REMARK  12 active torsions:
REMARK  status: ('A' for Active; 'I' for Inactive)
REMARK    1  A    between atoms: P_1  and  O_3 
REMARK    2  A    between atoms: P_1  and  O_4 
REMARK    3  A    between atoms: P_1  and  O_5 
REMARK    4  A    between atoms: O_5  and  P_6 
REMARK    5  A    between atoms: P_6  and  O_8 
REMARK    6  A    between atoms: P_6  and  O_9 
REMARK    7  A    between atoms: O_9  and  C_10 
REMARK    8  A    between atoms: C_10  and  C_11 
REMARK    9  A    between atoms: C_13  and  O_14 
REMARK   10  A    between atoms: C_15  and  O_16 
REMARK   11  A    between atoms: C_17  and  N_18 
REMARK   12  A    between atoms: C_26  and  N_27 
ROOT
HETATM    1  C   UNL     1       1.818  -2.054  -0.334  1.00  0.00     0.180 C 
HETATM    2  O   UNL     1       0.609  -1.805  -1.017  1.00  0.00    -0.353 OA
HETATM    3  C   UNL     1       2.922  -1.175  -0.928  1.00  0.00     0.182 C 
HETATM    4  C   UNL     1       2.152  -0.055  -1.589  1.00  0.00     0.198 C 
HETATM    5  C   UNL     1       0.781  -0.686  -1.864  1.00  0.00     0.262 C 
ENDROOT
BRANCH   5   6
HETATM    6  N   UNL     1      -0.330   0.258  -1.664  1.00  0.00    -0.297 N 
HETATM    7  C   UNL     1      -0.357   1.608  -1.855  1.00  0.00     0.188 A 
HETATM    8  N   UNL     1      -1.594   2.155  -1.704  1.00  0.00    -0.345 N 
HETATM    9  C   UNL     1      -2.359   1.085  -1.429  1.00  0.00     0.147 A 
ATOM     10  HN  UNL     1      -1.871   3.134  -1.781  1.00  0.00     0.167 HD
HETATM   11  C   UNL     1      -3.724   1.016  -1.193  1.00  0.00     0.290 A 
HETATM   12  C   UNL     1      -1.615  -0.042  -1.421  1.00  0.00     0.159 A 
HETATM   13  O   UNL     1      -4.439   2.054  -1.196  1.00  0.00    -0.265 OA
HETATM   14  N   UNL     1      -4.273  -0.214  -0.956  1.00  0.00    -0.154 N 
HETATM   15  C   UNL     1      -3.497  -1.350  -0.959  1.00  0.00     0.680 A 
HETATM   16  H   UNL     1      -5.299  -0.290  -0.771  1.00  0.00     0.187 HD
HETATM   17  N   UNL     1      -2.152  -1.265  -1.198  1.00  0.00    -0.174 N 
ATOM     18  HN  UNL     1      -1.569  -2.102  -1.208  1.00  0.00     0.186 HD
BRANCH  15  19
HETATM   19  N   UNL     1      -4.088  -2.624  -0.706  1.00  0.00    -0.234 N 
HETATM   20  H   UNL     1      -3.499  -3.486  -0.701  1.00  0.00     0.174 HD
HETATM   21  H   UNL     1      -5.112  -2.710  -0.518  1.00  0.00     0.174 HD
ENDBRANCH  15  19
ENDBRANCH   5   6
BRANCH   4  22
HETATM   22  O   UNL     1       2.785   0.360  -2.774  1.00  0.00    -0.388 OA
HETATM   23  H   UNL     1       2.344   1.201  -3.057  1.00  0.00     0.210 HD
ENDBRANCH   4  22
BRANCH   1  24
HETATM   24  C   UNL     1       1.620  -1.817   1.170  1.00  0.00     0.215 C 
BRANCH  24  25
HETATM   25  O   UNL     1       1.271  -0.473   1.410  1.00  0.00    -0.294 OA
BRANCH  25  26
HETATM   26  P   UNL     1       1.153  -0.246   3.096  1.00  0.00     0.401 P 
HETATM   27  O   UNL     1       0.797   1.197   3.381  1.00  0.00    -0.631 OA
BRANCH  26  28
HETATM   28  O   UNL     1      -0.013  -1.301   3.755  1.00  0.00    -0.195 OA
BRANCH  28  29
HETATM   29  P   UNL     1      -1.552  -0.712   3.329  1.00  0.00     0.399 P 
HETATM   30  O   UNL     1      -1.937   0.413   4.263  1.00  0.00    -0.631 OA
BRANCH  29  31
HETATM   31  O   UNL     1      -2.677  -1.965   3.489  1.00  0.00    -0.307 OA
HETATM   32  H   UNL     1      -2.405  -2.633   2.810  1.00  0.00     0.222 HD
ENDBRANCH  29  31
BRANCH  29  33
HETATM   33  O   UNL     1      -1.584  -0.153   1.731  1.00  0.00    -0.307 OA
HETATM   34  H   UNL     1      -2.510   0.171   1.596  1.00  0.00     0.222 HD
ENDBRANCH  29  33
ENDBRANCH  28  29
ENDBRANCH  26  28
BRANCH  26  35
HETATM   35  O   UNL     1       2.651  -0.576   3.812  1.00  0.00    -0.307 OA
HETATM   36  H   UNL     1       2.485  -0.516   4.786  1.00  0.00     0.222 HD
ENDBRANCH  26  35
ENDBRANCH  25  26
ENDBRANCH  24  25
ENDBRANCH   1  24
BRANCH   3  37
HETATM   37  O   UNL     1       3.703  -1.900  -1.851  1.00  0.00    -0.390 OA
HETATM   38  H   UNL     1       3.096  -2.280  -2.541  1.00  0.00     0.210 HD
ENDBRANCH   3  37
TORSDOF 12
