REMARK  8 active torsions:
REMARK  status: ('A' for Active; 'I' for Inactive)
REMARK    1  A    between atoms: P_1  and  O_5 
REMARK    2  A    between atoms: O_5  and  P_6 
REMARK    3  A    between atoms: P_6  and  O_9 
REMARK    4  A    between atoms: O_9  and  C_10 
REMARK    5  A    between atoms: C_10  and  C_11 
REMARK    6  A    between atoms: C_13  and  O_14 
REMARK    7  A    between atoms: C_16  and  O_17 
REMARK    8  A    between atoms: C_19  and  N_20 
ROOT
HETATM    1  C   UNL     1       2.863  -9.281  27.589  1.00  0.00     0.180 C 
HETATM    2  O   UNL     1       3.016 -10.142  28.564  1.00  0.00    -0.353 OA
HETATM    3  C   UNL     1       2.223  -7.911  28.277  1.00  0.00     0.182 C 
HETATM    4  C   UNL     1       2.541  -7.989  29.481  1.00  0.00     0.198 C 
HETATM    5  C   UNL     1       2.449  -9.558  29.836  1.00  0.00     0.262 C 
ENDROOT
BRANCH   5   6
HETATM    6  N   UNL     1       3.234  -9.909  30.848  1.00  0.00    -0.297 N 
HETATM    7  C   UNL     1       4.561  -9.828  31.086  1.00  0.00     0.188 A 
HETATM    8  N   UNL     1       4.830 -10.382  32.282  1.00  0.00    -0.345 N 
HETATM    9  C   UNL     1       3.692 -10.815  32.796  1.00  0.00     0.146 A 
ATOM     10  HN  UNL     1       5.750 -10.455  32.716  1.00  0.00     0.167 HD
HETATM   11  C   UNL     1       3.371 -11.525  34.121  1.00  0.00     0.278 A 
HETATM   12  C   UNL     1       2.694 -10.528  31.896  1.00  0.00     0.146 A 
HETATM   13  N   UNL     1       2.028 -11.873  34.417  1.00  0.00    -0.295 N 
HETATM   14  O   UNL     1       4.196 -11.807  34.928  1.00  0.00    -0.265 OA
HETATM   15  C   UNL     1       1.001 -11.563  33.469  1.00  0.00     0.196 A 
ATOM     16  HN  UNL     1       1.797 -12.338  35.295  1.00  0.00     0.171 HD
HETATM   17  N   UNL     1       1.306 -10.907  32.216  1.00  0.00    -0.314 N 
HETATM   18  N   UNL     1      -0.347 -11.942  33.772  1.00  0.00    -0.063 NA
ATOM     19  HN  UNL     1       0.558 -10.706  31.552  1.00  0.00     0.170 HD
ENDBRANCH   5   6
BRANCH   4  20
HETATM   20  O   UNL     1       1.580  -7.312  30.389  1.00  0.00    -0.388 OA
ATOM     21  HO  UNL     1       1.822  -7.371  31.306  1.00  0.00     0.210 HD
ENDBRANCH   4  20
BRANCH   1  22
HETATM   22  C   UNL     1       4.162  -8.990  26.908  1.00  0.00     0.216 C 
BRANCH  22  23
HETATM   23  O   UNL     1       4.967  -8.260  27.789  1.00  0.00    -0.287 OA
BRANCH  23  24
HETATM   24  P   UNL     1       6.322  -7.525  27.274  1.00  0.00     0.418 P 
HETATM   25  O   UNL     1       5.997  -6.559  26.166  1.00  0.00    -0.624 OA
HETATM   26  O   UNL     1       6.999  -6.944  28.489  1.00  0.00    -0.624 OA
BRANCH  24  27
HETATM   27  O   UNL     1       7.240  -8.738  26.682  1.00  0.00    -0.173 OA
BRANCH  27  28
HETATM   28  P   UNL     1       8.623  -8.588  25.833  1.00  0.00     0.431 P 
HETATM   29  O   UNL     1       8.234  -8.733  24.370  1.00  0.00    -0.616 OA
HETATM   30  O   UNL     1       9.481  -9.745  26.318  1.00  0.00    -0.616 OA
HETATM   31  O   UNL     1       9.320  -7.298  26.187  1.00  0.00    -0.616 OA
ENDBRANCH  27  28
ENDBRANCH  24  27
ENDBRANCH  23  24
ENDBRANCH  22  23
ENDBRANCH   1  22
BRANCH   3  32
HETATM   32  O   UNL     1       0.767  -8.069  28.060  1.00  0.00    -0.390 OA
ATOM     33  HO  UNL     1       0.525  -8.010  27.143  1.00  0.00     0.210 HD
ENDBRANCH   3  32
TORSDOF 8
