MODEL 1
REMARK VINA RESULT:    -5.006      0.000      0.000
REMARK INTER + INTRA:          -6.444
REMARK INTER:                  -6.176
REMARK INTRA:                  -0.267
REMARK UNBOUND:                -0.267
REMARK  6 active torsions:
REMARK  status: ('A' for Active; 'I' for Inactive)
REMARK    1  A    between atoms: C_2  and  O_3 
REMARK    2  A    between atoms: C_5  and  N_6 
REMARK       I    between atoms: N_6  and  C_18 
REMARK    3  A    between atoms: C_8  and  O_9 
REMARK    4  A    between atoms: C_11  and  O_12 
REMARK    5  A    between atoms: C_14  and  C_15 
REMARK    6  A    between atoms: C_15  and  O_16 
ROOT
HETATM    1  O   UNL     1      63.517   8.854 109.032  1.00  0.00    -0.349 OA
HETATM    2  C   UNL     1      64.209   8.045 108.066  1.00  0.00     0.282 C 
HETATM    3  C   UNL     1      65.716   7.939 108.336  1.00  0.00     0.170 C 
HETATM    4  C   UNL     1      65.966   7.600 109.807  1.00  0.00     0.177 C 
HETATM    5  C   UNL     1      65.226   8.573 110.728  1.00  0.00     0.180 C 
HETATM    6  C   UNL     1      63.730   8.498 110.400  1.00  0.00     0.179 C 
ENDROOT
BRANCH   3   7
HETATM    7  N   UNL     1      66.359   6.937 107.491  1.00  0.00    -0.349 N 
HETATM    8  C   UNL     1      67.250   7.289 106.566  1.00  0.00     0.214 C 
HETATM    9  O   UNL     1      67.509   8.464 106.366  1.00  0.00    -0.274 OA
HETATM   10  C   UNL     1      67.906   6.184 105.805  1.00  0.00     0.117 C 
ATOM     11  HN  UNL     1      66.123   5.951 107.612  1.00  0.00     0.163 HD
ENDBRANCH   3   7
BRANCH   2  12
HETATM   12  O   UNL     1      63.650   6.742 108.121  1.00  0.00    -0.369 OA
ATOM     13  HO  UNL     1      62.708   6.831 108.032  1.00  0.00     0.212 HD
ENDBRANCH   2  12
BRANCH   4  14
HETATM   14  O   UNL     1      67.378   7.516 110.028  1.00  0.00    -0.391 OA
ATOM     15  HO  UNL     1      67.873   8.273 109.739  1.00  0.00     0.210 HD
ENDBRANCH   4  14
BRANCH   5  16
HETATM   16  O   UNL     1      65.676   9.918 110.526  1.00  0.00    -0.390 OA
ATOM     17  HO  UNL     1      66.067  10.234 111.332  1.00  0.00     0.210 HD
ENDBRANCH   5  16
BRANCH   6  18
HETATM   18  C   UNL     1      62.893   9.428 111.260  1.00  0.00     0.198 C 
BRANCH  18  19
HETATM   19  O   UNL     1      61.968  10.183 110.452  1.00  0.00    -0.398 OA
ATOM     20  HO  UNL     1      62.431  10.708 109.810  1.00  0.00     0.209 HD
ENDBRANCH  18  19
ENDBRANCH   6  18
TORSDOF 6
ENDMDL
MODEL 2
REMARK VINA RESULT:    -4.849      1.499      1.646
REMARK INTER + INTRA:          -6.250
REMARK INTER:                  -5.848
REMARK INTRA:                  -0.402
REMARK UNBOUND:                -0.267
REMARK  6 active torsions:
REMARK  status: ('A' for Active; 'I' for Inactive)
REMARK    1  A    between atoms: C_2  and  O_3 
REMARK    2  A    between atoms: C_5  and  N_6 
REMARK       I    between atoms: N_6  and  C_18 
REMARK    3  A    between atoms: C_8  and  O_9 
REMARK    4  A    between atoms: C_11  and  O_12 
REMARK    5  A    between atoms: C_14  and  C_15 
REMARK    6  A    between atoms: C_15  and  O_16 
ROOT
HETATM    1  O   UNL     1      62.350   7.935 110.100  1.00  0.00    -0.349 OA
HETATM    2  C   UNL     1      63.111   7.579 108.933  1.00  0.00     0.282 C 
HETATM    3  C   UNL     1      64.466   8.294 108.854  1.00  0.00     0.170 C 
HETATM    4  C   UNL     1      65.195   8.194 110.194  1.00  0.00     0.177 C 
HETATM    5  C   UNL     1      64.299   8.662 111.344  1.00  0.00     0.180 C 
HETATM    6  C   UNL     1      63.034   7.796 111.347  1.00  0.00     0.179 C 
ENDROOT
BRANCH   3   7
HETATM    7  N   UNL     1      65.316   7.753 107.797  1.00  0.00    -0.349 N 
HETATM    8  C   UNL     1      65.995   8.559 106.983  1.00  0.00     0.214 C 
HETATM    9  O   UNL     1      65.880   9.770 107.066  1.00  0.00    -0.274 OA
HETATM   10  C   UNL     1      66.894   7.907 105.983  1.00  0.00     0.117 C 
ATOM     11  HN  UNL     1      65.391   6.742 107.681  1.00  0.00     0.163 HD
ENDBRANCH   3   7
BRANCH   2  12
HETATM   12  O   UNL     1      63.345   6.180 108.986  1.00  0.00    -0.369 OA
ATOM     13  HO  UNL     1      63.952   6.018 109.698  1.00  0.00     0.212 HD
ENDBRANCH   2  12
BRANCH   4  14
HETATM   14  O   UNL     1      66.449   8.877 110.091  1.00  0.00    -0.391 OA
ATOM     15  HO  UNL     1      67.164   8.474 110.570  1.00  0.00     0.210 HD
ENDBRANCH   4  14
BRANCH   5  16
HETATM   16  O   UNL     1      63.920  10.034 111.176  1.00  0.00    -0.390 OA
ATOM     17  HO  UNL     1      63.984  10.474 112.015  1.00  0.00     0.210 HD
ENDBRANCH   5  16
BRANCH   6  18
HETATM   18  C   UNL     1      62.066   8.174 112.454  1.00  0.00     0.198 C 
BRANCH  18  19
HETATM   19  O   UNL     1      61.423   9.432 112.167  1.00  0.00    -0.398 OA
ATOM     20  HO  UNL     1      62.058  10.080 111.886  1.00  0.00     0.209 HD
ENDBRANCH  18  19
ENDBRANCH   6  18
TORSDOF 6
ENDMDL
MODEL 3
REMARK VINA RESULT:    -4.738      2.098      5.176
REMARK INTER + INTRA:          -6.114
REMARK INTER:                  -5.693
REMARK INTRA:                  -0.421
REMARK UNBOUND:                -0.267
REMARK  6 active torsions:
REMARK  status: ('A' for Active; 'I' for Inactive)
REMARK    1  A    between atoms: C_2  and  O_3 
REMARK    2  A    between atoms: C_5  and  N_6 
REMARK       I    between atoms: N_6  and  C_18 
REMARK    3  A    between atoms: C_8  and  O_9 
REMARK    4  A    between atoms: C_11  and  O_12 
REMARK    5  A    between atoms: C_14  and  C_15 
REMARK    6  A    between atoms: C_15  and  O_16 
ROOT
HETATM    1  O   UNL     1      65.951   9.142 109.190  1.00  0.00    -0.349 OA
HETATM    2  C   UNL     1      65.495   8.704 110.482  1.00  0.00     0.282 C 
HETATM    3  C   UNL     1      64.011   8.316 110.500  1.00  0.00     0.170 C 
HETATM    4  C   UNL     1      63.693   7.394 109.322  1.00  0.00     0.177 C 
HETATM    5  C   UNL     1      64.170   8.004 108.001  1.00  0.00     0.180 C 
HETATM    6  C   UNL     1      65.680   8.249 108.107  1.00  0.00     0.179 C 
ENDROOT
BRANCH   3   7
HETATM    7  N   UNL     1      63.626   7.661 111.746  1.00  0.00    -0.349 N 
HETATM    8  C   UNL     1      62.485   7.969 112.360  1.00  0.00     0.214 C 
HETATM    9  O   UNL     1      61.759   8.846 111.921  1.00  0.00    -0.274 OA
HETATM   10  C   UNL     1      62.147   7.190 113.589  1.00  0.00     0.117 C 
ATOM     11  HN  UNL     1      64.241   6.956 112.154  1.00  0.00     0.163 HD
ENDBRANCH   3   7
BRANCH   2  12
HETATM   12  O   UNL     1      66.262   7.565 110.842  1.00  0.00    -0.369 OA
ATOM     13  HO  UNL     1      65.914   7.233 111.661  1.00  0.00     0.212 HD
ENDBRANCH   2  12
BRANCH   4  14
HETATM   14  O   UNL     1      62.302   7.057 109.361  1.00  0.00    -0.391 OA
ATOM     15  HO  UNL     1      62.116   6.152 109.579  1.00  0.00     0.210 HD
ENDBRANCH   4  14
BRANCH   5  16
HETATM   16  O   UNL     1      63.516   9.253 107.744  1.00  0.00    -0.390 OA
ATOM     17  HO  UNL     1      62.618   9.197 108.048  1.00  0.00     0.210 HD
ENDBRANCH   5  16
BRANCH   6  18
HETATM   18  C   UNL     1      66.266   8.857 106.844  1.00  0.00     0.198 C 
BRANCH  18  19
HETATM   19  O   UNL     1      66.004  10.273 106.786  1.00  0.00    -0.398 OA
ATOM     20  HO  UNL     1      66.692  10.726 106.313  1.00  0.00     0.209 HD
ENDBRANCH  18  19
ENDBRANCH   6  18
TORSDOF 6
ENDMDL
MODEL 4
REMARK VINA RESULT:    -4.685      2.037      2.860
REMARK INTER + INTRA:          -6.048
REMARK INTER:                  -5.634
REMARK INTRA:                  -0.415
REMARK UNBOUND:                -0.267
REMARK  6 active torsions:
REMARK  status: ('A' for Active; 'I' for Inactive)
REMARK    1  A    between atoms: C_2  and  O_3 
REMARK    2  A    between atoms: C_5  and  N_6 
REMARK       I    between atoms: N_6  and  C_18 
REMARK    3  A    between atoms: C_8  and  O_9 
REMARK    4  A    between atoms: C_11  and  O_12 
REMARK    5  A    between atoms: C_14  and  C_15 
REMARK    6  A    between atoms: C_15  and  O_16 
ROOT
HETATM    1  O   UNL     1      63.786   8.056 110.322  1.00  0.00    -0.349 OA
HETATM    2  C   UNL     1      63.430   8.249 108.942  1.00  0.00     0.282 C 
HETATM    3  C   UNL     1      64.637   8.545 108.043  1.00  0.00     0.170 C 
HETATM    4  C   UNL     1      65.759   7.543 108.319  1.00  0.00     0.177 C 
HETATM    5  C   UNL     1      66.085   7.481 109.814  1.00  0.00     0.180 C 
HETATM    6  C   UNL     1      64.808   7.087 110.564  1.00  0.00     0.179 C 
ENDROOT
BRANCH   3   7
HETATM    7  N   UNL     1      64.292   8.508 106.625  1.00  0.00    -0.349 N 
HETATM    8  C   UNL     1      64.703   9.464 105.793  1.00  0.00     0.214 C 
HETATM    9  O   UNL     1      65.333  10.422 106.209  1.00  0.00    -0.274 OA
HETATM   10  C   UNL     1      64.360   9.296 104.349  1.00  0.00     0.117 C 
ATOM     11  HN  UNL     1      63.727   7.738 106.265  1.00  0.00     0.163 HD
ENDBRANCH   3   7
BRANCH   2  12
HETATM   12  O   UNL     1      62.815   7.053 108.489  1.00  0.00    -0.369 OA
ATOM     13  HO  UNL     1      63.410   6.336 108.674  1.00  0.00     0.212 HD
ENDBRANCH   2  12
BRANCH   4  14
HETATM   14  O   UNL     1      66.872   7.850 107.472  1.00  0.00    -0.391 OA
ATOM     15  HO  UNL     1      67.713   7.876 107.912  1.00  0.00     0.210 HD
ENDBRANCH   4  14
BRANCH   5  16
HETATM   16  O   UNL     1      66.532   8.754 110.298  1.00  0.00    -0.390 OA
ATOM     17  HO  UNL     1      66.777   8.665 111.211  1.00  0.00     0.210 HD
ENDBRANCH   5  16
BRANCH   6  18
HETATM   18  C   UNL     1      65.015   6.993 112.067  1.00  0.00     0.198 C 
BRANCH  18  19
HETATM   19  O   UNL     1      66.372   6.623 112.376  1.00  0.00    -0.398 OA
ATOM     20  HO  UNL     1      66.401   5.791 112.835  1.00  0.00     0.209 HD
ENDBRANCH  18  19
ENDBRANCH   6  18
TORSDOF 6
ENDMDL
MODEL 5
REMARK VINA RESULT:    -4.664      2.095      3.684
REMARK INTER + INTRA:          -6.022
REMARK INTER:                  -5.790
REMARK INTRA:                  -0.232
REMARK UNBOUND:                -0.267
REMARK  6 active torsions:
REMARK  status: ('A' for Active; 'I' for Inactive)
REMARK    1  A    between atoms: C_2  and  O_3 
REMARK    2  A    between atoms: C_5  and  N_6 
REMARK       I    between atoms: N_6  and  C_18 
REMARK    3  A    between atoms: C_8  and  O_9 
REMARK    4  A    between atoms: C_11  and  O_12 
REMARK    5  A    between atoms: C_14  and  C_15 
REMARK    6  A    between atoms: C_15  and  O_16 
ROOT
HETATM    1  O   UNL     1      65.890   7.614 110.970  1.00  0.00    -0.349 OA
HETATM    2  C   UNL     1      65.805   8.275 109.697  1.00  0.00     0.282 C 
HETATM    3  C   UNL     1      64.418   8.169 109.052  1.00  0.00     0.170 C 
HETATM    4  C   UNL     1      63.333   8.521 110.071  1.00  0.00     0.177 C 
HETATM    5  C   UNL     1      63.499   7.703 111.355  1.00  0.00     0.180 C 
HETATM    6  C   UNL     1      64.893   7.985 111.924  1.00  0.00     0.179 C 
ENDROOT
BRANCH   3   7
HETATM    7  N   UNL     1      64.283   9.033 107.883  1.00  0.00    -0.349 N 
HETATM    8  C   UNL     1      64.567   8.585 106.661  1.00  0.00     0.214 C 
HETATM    9  O   UNL     1      64.999   7.455 106.497  1.00  0.00    -0.274 OA
HETATM   10  C   UNL     1      64.327   9.523 105.524  1.00  0.00     0.117 C 
ATOM     11  HN  UNL     1      63.967   9.996 108.004  1.00  0.00     0.163 HD
ENDBRANCH   3   7
BRANCH   2  12
HETATM   12  O   UNL     1      66.098   9.648 109.908  1.00  0.00    -0.369 OA
ATOM     13  HO  UNL     1      67.007   9.709 110.178  1.00  0.00     0.212 HD
ENDBRANCH   2  12
BRANCH   4  14
HETATM   14  O   UNL     1      62.052   8.404 109.444  1.00  0.00    -0.391 OA
ATOM     15  HO  UNL     1      62.079   8.227 108.511  1.00  0.00     0.210 HD
ENDBRANCH   4  14
BRANCH   5  16
HETATM   16  O   UNL     1      63.383   6.299 111.089  1.00  0.00    -0.390 OA
ATOM     17  HO  UNL     1      62.962   5.881 111.831  1.00  0.00     0.210 HD
ENDBRANCH   5  16
BRANCH   6  18
HETATM   18  C   UNL     1      65.169   7.220 113.208  1.00  0.00     0.198 C 
BRANCH  18  19
HETATM   19  O   UNL     1      66.405   6.486 113.113  1.00  0.00    -0.398 OA
ATOM     20  HO  UNL     1      66.601   6.044 113.931  1.00  0.00     0.209 HD
ENDBRANCH  18  19
ENDBRANCH   6  18
TORSDOF 6
ENDMDL
MODEL 6
REMARK VINA RESULT:    -4.491      2.428      2.848
REMARK INTER + INTRA:          -5.809
REMARK INTER:                  -5.346
REMARK INTRA:                  -0.463
REMARK UNBOUND:                -0.267
REMARK  6 active torsions:
REMARK  status: ('A' for Active; 'I' for Inactive)
REMARK    1  A    between atoms: C_2  and  O_3 
REMARK    2  A    between atoms: C_5  and  N_6 
REMARK       I    between atoms: N_6  and  C_18 
REMARK    3  A    between atoms: C_8  and  O_9 
REMARK    4  A    between atoms: C_11  and  O_12 
REMARK    5  A    between atoms: C_14  and  C_15 
REMARK    6  A    between atoms: C_15  and  O_16 
ROOT
HETATM    1  O   UNL     1      62.767   6.648 108.183  1.00  0.00    -0.349 OA
HETATM    2  C   UNL     1      63.384   6.833 106.898  1.00  0.00     0.282 C 
HETATM    3  C   UNL     1      64.244   8.100 106.817  1.00  0.00     0.170 C 
HETATM    4  C   UNL     1      65.170   8.188 108.031  1.00  0.00     0.177 C 
HETATM    5  C   UNL     1      64.383   8.041 109.335  1.00  0.00     0.180 C 
HETATM    6  C   UNL     1      63.654   6.693 109.303  1.00  0.00     0.179 C 
ENDROOT
BRANCH   3   7
HETATM    7  N   UNL     1      65.041   8.151 105.594  1.00  0.00    -0.349 N 
HETATM    8  C   UNL     1      64.754   9.018 104.624  1.00  0.00     0.214 C 
HETATM    9  O   UNL     1      63.785   9.754 104.712  1.00  0.00    -0.274 OA
HETATM   10  C   UNL     1      65.674   9.041 103.447  1.00  0.00     0.117 C 
ATOM     11  HN  UNL     1      65.829   7.513 105.481  1.00  0.00     0.163 HD
ENDBRANCH   3   7
BRANCH   2  12
HETATM   12  O   UNL     1      64.217   5.709 106.658  1.00  0.00    -0.369 OA
ATOM     13  HO  UNL     1      64.690   5.871 105.850  1.00  0.00     0.212 HD
ENDBRANCH   2  12
BRANCH   4  14
HETATM   14  O   UNL     1      65.952   9.383 107.931  1.00  0.00    -0.391 OA
ATOM     15  HO  UNL     1      65.904   9.824 107.091  1.00  0.00     0.210 HD
ENDBRANCH   4  14
BRANCH   5  16
HETATM   16  O   UNL     1      63.412   9.087 109.473  1.00  0.00    -0.390 OA
ATOM     17  HO  UNL     1      63.557   9.531 110.299  1.00  0.00     0.210 HD
ENDBRANCH   5  16
BRANCH   6  18
HETATM   18  C   UNL     1      62.835   6.438 110.557  1.00  0.00     0.198 C 
BRANCH  18  19
HETATM   19  O   UNL     1      61.579   7.142 110.502  1.00  0.00    -0.398 OA
ATOM     20  HO  UNL     1      61.286   7.382 111.373  1.00  0.00     0.209 HD
ENDBRANCH  18  19
ENDBRANCH   6  18
TORSDOF 6
ENDMDL
MODEL 7
REMARK VINA RESULT:    -4.450      3.278      6.103
REMARK INTER + INTRA:          -5.758
REMARK INTER:                  -5.379
REMARK INTRA:                  -0.379
REMARK UNBOUND:                -0.267
REMARK  6 active torsions:
REMARK  status: ('A' for Active; 'I' for Inactive)
REMARK    1  A    between atoms: C_2  and  O_3 
REMARK    2  A    between atoms: C_5  and  N_6 
REMARK       I    between atoms: N_6  and  C_18 
REMARK    3  A    between atoms: C_8  and  O_9 
REMARK    4  A    between atoms: C_11  and  O_12 
REMARK    5  A    between atoms: C_14  and  C_15 
REMARK    6  A    between atoms: C_15  and  O_16 
ROOT
HETATM    1  O   UNL     1      64.972   8.289 111.543  1.00  0.00    -0.349 OA
HETATM    2  C   UNL     1      64.181   7.692 112.584  1.00  0.00     0.282 C 
HETATM    3  C   UNL     1      62.691   7.596 112.232  1.00  0.00     0.170 C 
HETATM    4  C   UNL     1      62.517   7.010 110.829  1.00  0.00     0.177 C 
HETATM    5  C   UNL     1      63.361   7.775 109.806  1.00  0.00     0.180 C 
HETATM    6  C   UNL     1      64.827   7.704 110.247  1.00  0.00     0.179 C 
ENDROOT
BRANCH   3   7
HETATM    7  N   UNL     1      61.947   6.785 113.191  1.00  0.00    -0.349 N 
HETATM    8  C   UNL     1      60.746   7.165 113.625  1.00  0.00     0.214 C 
HETATM    9  O   UNL     1      60.263   8.227 113.271  1.00  0.00    -0.274 OA
HETATM   10  C   UNL     1      60.035   6.230 114.548  1.00  0.00     0.117 C 
ATOM     11  HN  UNL     1      62.353   5.915 113.535  1.00  0.00     0.163 HD
ENDBRANCH   3   7
BRANCH   2  12
HETATM   12  O   UNL     1      64.677   6.380 112.798  1.00  0.00    -0.369 OA
ATOM     13  HO  UNL     1      65.604   6.386 112.587  1.00  0.00     0.212 HD
ENDBRANCH   2  12
BRANCH   4  14
HETATM   14  O   UNL     1      61.120   6.942 110.527  1.00  0.00    -0.391 OA
ATOM     15  HO  UNL     1      60.890   7.191 109.640  1.00  0.00     0.210 HD
ENDBRANCH   4  14
BRANCH   5  16
HETATM   16  O   UNL     1      62.965   9.151 109.737  1.00  0.00    -0.390 OA
ATOM     17  HO  UNL     1      63.409   9.560 109.004  1.00  0.00     0.210 HD
ENDBRANCH   5  16
BRANCH   6  18
HETATM   18  C   UNL     1      65.762   8.434 109.298  1.00  0.00     0.198 C 
BRANCH  18  19
HETATM   19  O   UNL     1      66.090   9.743 109.805  1.00  0.00    -0.398 OA
ATOM     20  HO  UNL     1      66.914   9.727 110.277  1.00  0.00     0.209 HD
ENDBRANCH  18  19
ENDBRANCH   6  18
TORSDOF 6
ENDMDL
MODEL 8
REMARK VINA RESULT:    -4.423      3.882      5.357
REMARK INTER + INTRA:          -5.724
REMARK INTER:                  -5.321
REMARK INTRA:                  -0.403
REMARK UNBOUND:                -0.267
REMARK  6 active torsions:
REMARK  status: ('A' for Active; 'I' for Inactive)
REMARK    1  A    between atoms: C_2  and  O_3 
REMARK    2  A    between atoms: C_5  and  N_6 
REMARK       I    between atoms: N_6  and  C_18 
REMARK    3  A    between atoms: C_8  and  O_9 
REMARK    4  A    between atoms: C_11  and  O_12 
REMARK    5  A    between atoms: C_14  and  C_15 
REMARK    6  A    between atoms: C_15  and  O_16 
ROOT
HETATM    1  O   UNL     1      64.889   8.639 104.983  1.00  0.00    -0.349 OA
HETATM    2  C   UNL     1      63.809   8.128 104.183  1.00  0.00     0.282 C 
HETATM    3  C   UNL     1      63.144   6.885 104.788  1.00  0.00     0.170 C 
HETATM    4  C   UNL     1      62.839   7.117 106.268  1.00  0.00     0.177 C 
HETATM    5  C   UNL     1      64.086   7.595 107.018  1.00  0.00     0.180 C 
HETATM    6  C   UNL     1      64.575   8.887 106.354  1.00  0.00     0.179 C 
ENDROOT
BRANCH   3   7
HETATM    7  N   UNL     1      61.914   6.521 104.091  1.00  0.00    -0.349 N 
HETATM    8  C   UNL     1      61.674   5.261 103.733  1.00  0.00     0.214 C 
HETATM    9  O   UNL     1      62.503   4.389 103.933  1.00  0.00    -0.274 OA
HETATM   10  C   UNL     1      60.355   4.980 103.091  1.00  0.00     0.117 C 
ATOM     11  HN  UNL     1      61.227   7.244 103.874  1.00  0.00     0.163 HD
ENDBRANCH   3   7
BRANCH   2  12
HETATM   12  O   UNL     1      62.833   9.154 104.079  1.00  0.00    -0.369 OA
ATOM     13  HO  UNL     1      63.264   9.926 103.733  1.00  0.00     0.212 HD
ENDBRANCH   2  12
BRANCH   4  14
HETATM   14  O   UNL     1      62.229   5.938 106.805  1.00  0.00    -0.391 OA
ATOM     15  HO  UNL     1      61.683   5.457 106.195  1.00  0.00     0.210 HD
ENDBRANCH   4  14
BRANCH   5  16
HETATM   16  O   UNL     1      65.132   6.618 106.954  1.00  0.00    -0.390 OA
ATOM     17  HO  UNL     1      65.059   6.042 107.705  1.00  0.00     0.210 HD
ENDBRANCH   5  16
BRANCH   6  18
HETATM   18  C   UNL     1      65.816   9.456 107.021  1.00  0.00     0.198 C 
BRANCH  18  19
HETATM   19  O   UNL     1      65.823   9.161 108.431  1.00  0.00    -0.398 OA
ATOM     20  HO  UNL     1      65.324   8.374 108.615  1.00  0.00     0.209 HD
ENDBRANCH  18  19
ENDBRANCH   6  18
TORSDOF 6
ENDMDL
MODEL 9
REMARK VINA RESULT:    -4.387      2.206      2.878
REMARK INTER + INTRA:          -5.680
REMARK INTER:                  -5.287
REMARK INTRA:                  -0.393
REMARK UNBOUND:                -0.267
REMARK  6 active torsions:
REMARK  status: ('A' for Active; 'I' for Inactive)
REMARK    1  A    between atoms: C_2  and  O_3 
REMARK    2  A    between atoms: C_5  and  N_6 
REMARK       I    between atoms: N_6  and  C_18 
REMARK    3  A    between atoms: C_8  and  O_9 
REMARK    4  A    between atoms: C_11  and  O_12 
REMARK    5  A    between atoms: C_14  and  C_15 
REMARK    6  A    between atoms: C_15  and  O_16 
ROOT
HETATM    1  O   UNL     1      63.948   6.671 111.599  1.00  0.00    -0.349 OA
HETATM    2  C   UNL     1      65.317   6.364 111.287  1.00  0.00     0.282 C 
HETATM    3  C   UNL     1      65.918   7.291 110.223  1.00  0.00     0.170 C 
HETATM    4  C   UNL     1      65.611   8.751 110.562  1.00  0.00     0.177 C 
HETATM    5  C   UNL     1      64.114   8.956 110.807  1.00  0.00     0.180 C 
HETATM    6  C   UNL     1      63.687   8.030 111.952  1.00  0.00     0.179 C 
ENDROOT
BRANCH   3   7
HETATM    7  N   UNL     1      67.361   7.117 110.089  1.00  0.00    -0.349 N 
HETATM    8  C   UNL     1      67.869   6.222 109.244  1.00  0.00     0.214 C 
HETATM    9  O   UNL     1      67.137   5.487 108.601  1.00  0.00    -0.274 OA
HETATM   10  C   UNL     1      69.357   6.173 109.126  1.00  0.00     0.117 C 
ATOM     11  HN  UNL     1      67.991   7.691 110.651  1.00  0.00     0.163 HD
ENDBRANCH   3   7
BRANCH   2  12
HETATM   12  O   UNL     1      66.069   6.506 112.483  1.00  0.00    -0.369 OA
ATOM     13  HO  UNL     1      65.887   5.749 113.027  1.00  0.00     0.212 HD
ENDBRANCH   2  12
BRANCH   4  14
HETATM   14  O   UNL     1      66.176   9.590 109.548  1.00  0.00    -0.391 OA
ATOM     15  HO  UNL     1      65.593   9.791 108.826  1.00  0.00     0.210 HD
ENDBRANCH   4  14
BRANCH   5  16
HETATM   16  O   UNL     1      63.351   8.628 109.639  1.00  0.00    -0.390 OA
ATOM     17  HO  UNL     1      63.892   8.110 109.055  1.00  0.00     0.210 HD
ENDBRANCH   5  16
BRANCH   6  18
HETATM   18  C   UNL     1      62.209   8.150 112.284  1.00  0.00     0.198 C 
BRANCH  18  19
HETATM   19  O   UNL     1      61.699   9.443 111.900  1.00  0.00    -0.398 OA
ATOM     20  HO  UNL     1      61.071   9.362 111.193  1.00  0.00     0.209 HD
ENDBRANCH  18  19
ENDBRANCH   6  18
TORSDOF 6
ENDMDL
MODEL 10
REMARK VINA RESULT:    -4.380      2.319      3.757
REMARK INTER + INTRA:          -5.671
REMARK INTER:                  -5.233
REMARK INTRA:                  -0.438
REMARK UNBOUND:                -0.267
REMARK  6 active torsions:
REMARK  status: ('A' for Active; 'I' for Inactive)
REMARK    1  A    between atoms: C_2  and  O_3 
REMARK    2  A    between atoms: C_5  and  N_6 
REMARK       I    between atoms: N_6  and  C_18 
REMARK    3  A    between atoms: C_8  and  O_9 
REMARK    4  A    between atoms: C_11  and  O_12 
REMARK    5  A    between atoms: C_14  and  C_15 
REMARK    6  A    between atoms: C_15  and  O_16 
ROOT
HETATM    1  O   UNL     1      65.408   7.267 105.945  1.00  0.00    -0.349 OA
HETATM    2  C   UNL     1      65.778   6.448 107.066  1.00  0.00     0.282 C 
HETATM    3  C   UNL     1      66.376   7.250 108.229  1.00  0.00     0.170 C 
HETATM    4  C   UNL     1      65.499   8.464 108.539  1.00  0.00     0.177 C 
HETATM    5  C   UNL     1      65.233   9.286 107.275  1.00  0.00     0.180 C 
HETATM    6  C   UNL     1      64.556   8.374 106.246  1.00  0.00     0.179 C 
ENDROOT
BRANCH   3   7
HETATM    7  N   UNL     1      66.529   6.443 109.437  1.00  0.00    -0.349 N 
HETATM    8  C   UNL     1      67.736   6.151 109.919  1.00  0.00     0.214 C 
HETATM    9  O   UNL     1      68.744   6.508 109.332  1.00  0.00    -0.274 OA
HETATM   10  C   UNL     1      67.784   5.383 111.199  1.00  0.00     0.117 C 
ATOM     11  HN  UNL     1      65.699   6.096 109.918  1.00  0.00     0.163 HD
ENDBRANCH   3   7
BRANCH   2  12
HETATM   12  O   UNL     1      64.604   5.797 107.526  1.00  0.00    -0.369 OA
ATOM     13  HO  UNL     1      64.310   6.254 108.306  1.00  0.00     0.212 HD
ENDBRANCH   2  12
BRANCH   4  14
HETATM   14  O   UNL     1      66.086   9.195 109.621  1.00  0.00    -0.391 OA
ATOM     15  HO  UNL     1      65.943  10.134 109.593  1.00  0.00     0.210 HD
ENDBRANCH   4  14
BRANCH   5  16
HETATM   16  O   UNL     1      66.456   9.784 106.717  1.00  0.00    -0.390 OA
ATOM     17  HO  UNL     1      67.184   9.322 107.115  1.00  0.00     0.210 HD
ENDBRANCH   5  16
BRANCH   6  18
HETATM   18  C   UNL     1      64.243   9.090 104.943  1.00  0.00     0.198 C 
BRANCH  18  19
HETATM   19  O   UNL     1      63.910  10.471 105.182  1.00  0.00    -0.398 OA
ATOM     20  HO  UNL     1      64.557  10.884 105.742  1.00  0.00     0.209 HD
ENDBRANCH  18  19
ENDBRANCH   6  18
TORSDOF 6
ENDMDL
MODEL 11
REMARK VINA RESULT:    -4.369      1.445      2.589
REMARK INTER + INTRA:          -5.657
REMARK INTER:                  -5.461
REMARK INTRA:                  -0.197
REMARK UNBOUND:                -0.267
REMARK  6 active torsions:
REMARK  status: ('A' for Active; 'I' for Inactive)
REMARK    1  A    between atoms: C_2  and  O_3 
REMARK    2  A    between atoms: C_5  and  N_6 
REMARK       I    between atoms: N_6  and  C_18 
REMARK    3  A    between atoms: C_8  and  O_9 
REMARK    4  A    between atoms: C_11  and  O_12 
REMARK    5  A    between atoms: C_14  and  C_15 
REMARK    6  A    between atoms: C_15  and  O_16 
ROOT
HETATM    1  O   UNL     1      64.803   8.222 111.104  1.00  0.00    -0.349 OA
HETATM    2  C   UNL     1      65.846   8.320 110.119  1.00  0.00     0.282 C 
HETATM    3  C   UNL     1      65.475   7.674 108.779  1.00  0.00     0.170 C 
HETATM    4  C   UNL     1      64.083   8.133 108.339  1.00  0.00     0.177 C 
HETATM    5  C   UNL     1      63.055   7.915 109.452  1.00  0.00     0.180 C 
HETATM    6  C   UNL     1      63.519   8.693 110.689  1.00  0.00     0.179 C 
ENDROOT
BRANCH   3   7
HETATM    7  N   UNL     1      66.441   7.983 107.729  1.00  0.00    -0.349 N 
HETATM    8  C   UNL     1      66.868   7.042 106.889  1.00  0.00     0.214 C 
HETATM    9  O   UNL     1      66.500   5.885 107.012  1.00  0.00    -0.274 OA
HETATM   10  C   UNL     1      67.799   7.475 105.805  1.00  0.00     0.117 C 
ATOM     11  HN  UNL     1      66.796   8.936 107.638  1.00  0.00     0.163 HD
ENDBRANCH   3   7
BRANCH   2  12
HETATM   12  O   UNL     1      66.097   9.700 109.899  1.00  0.00    -0.369 OA
ATOM     13  HO  UNL     1      66.173   9.831 108.961  1.00  0.00     0.212 HD
ENDBRANCH   2  12
BRANCH   4  14
HETATM   14  O   UNL     1      63.763   7.508 107.092  1.00  0.00    -0.391 OA
ATOM     15  HO  UNL     1      62.903   7.105 107.056  1.00  0.00     0.210 HD
ENDBRANCH   4  14
BRANCH   5  16
HETATM   16  O   UNL     1      62.950   6.526 109.792  1.00  0.00    -0.390 OA
ATOM     17  HO  UNL     1      62.438   6.086 109.124  1.00  0.00     0.210 HD
ENDBRANCH   5  16
BRANCH   6  18
HETATM   18  C   UNL     1      62.567   8.548 111.865  1.00  0.00     0.198 C 
BRANCH  18  19
HETATM   19  O   UNL     1      61.575   9.593 111.854  1.00  0.00    -0.398 OA
ATOM     20  HO  UNL     1      61.646  10.135 112.631  1.00  0.00     0.209 HD
ENDBRANCH  18  19
ENDBRANCH   6  18
TORSDOF 6
ENDMDL
MODEL 12
REMARK VINA RESULT:    -4.357      2.188      5.148
REMARK INTER + INTRA:          -5.644
REMARK INTER:                  -5.402
REMARK INTRA:                  -0.242
REMARK UNBOUND:                -0.267
REMARK  6 active torsions:
REMARK  status: ('A' for Active; 'I' for Inactive)
REMARK    1  A    between atoms: C_2  and  O_3 
REMARK    2  A    between atoms: C_5  and  N_6 
REMARK       I    between atoms: N_6  and  C_18 
REMARK    3  A    between atoms: C_8  and  O_9 
REMARK    4  A    between atoms: C_11  and  O_12 
REMARK    5  A    between atoms: C_14  and  C_15 
REMARK    6  A    between atoms: C_15  and  O_16 
ROOT
HETATM    1  O   UNL     1      66.671   8.129 105.371  1.00  0.00    -0.349 OA
HETATM    2  C   UNL     1      66.650   7.689 106.740  1.00  0.00     0.282 C 
HETATM    3  C   UNL     1      65.660   8.472 107.611  1.00  0.00     0.170 C 
HETATM    4  C   UNL     1      64.304   8.572 106.911  1.00  0.00     0.177 C 
HETATM    5  C   UNL     1      64.459   9.113 105.488  1.00  0.00     0.180 C 
HETATM    6  C   UNL     1      65.400   8.177 104.720  1.00  0.00     0.179 C 
ENDROOT
BRANCH   3   7
HETATM    7  N   UNL     1      65.483   7.867 108.928  1.00  0.00    -0.349 N 
HETATM    8  C   UNL     1      65.725   8.558 110.040  1.00  0.00     0.214 C 
HETATM    9  O   UNL     1      66.154   9.699 109.983  1.00  0.00    -0.274 OA
HETATM   10  C   UNL     1      65.442   7.873 111.337  1.00  0.00     0.117 C 
ATOM     11  HN  UNL     1      65.168   6.898 108.997  1.00  0.00     0.163 HD
ENDBRANCH   3   7
BRANCH   2  12
HETATM   12  O   UNL     1      66.267   6.322 106.743  1.00  0.00    -0.369 OA
ATOM     13  HO  UNL     1      66.819   5.868 106.117  1.00  0.00     0.212 HD
ENDBRANCH   2  12
BRANCH   4  14
HETATM   14  O   UNL     1      63.407   9.314 107.743  1.00  0.00    -0.391 OA
ATOM     15  HO  UNL     1      63.494  10.258 107.683  1.00  0.00     0.210 HD
ENDBRANCH   4  14
BRANCH   5  16
HETATM   16  O   UNL     1      65.024  10.431 105.496  1.00  0.00    -0.390 OA
ATOM     17  HO  UNL     1      64.797  10.856 106.314  1.00  0.00     0.210 HD
ENDBRANCH   5  16
BRANCH   6  18
HETATM   18  C   UNL     1      65.628   8.620 103.285  1.00  0.00     0.198 C 
BRANCH  18  19
HETATM   19  O   UNL     1      67.033   8.799 103.019  1.00  0.00    -0.398 OA
ATOM     20  HO  UNL     1      67.513   8.956 103.824  1.00  0.00     0.209 HD
ENDBRANCH  18  19
ENDBRANCH   6  18
TORSDOF 6
ENDMDL
MODEL 13
REMARK VINA RESULT:    -4.324      2.575      3.955
REMARK INTER + INTRA:          -5.602
REMARK INTER:                  -5.168
REMARK INTRA:                  -0.434
REMARK UNBOUND:                -0.267
REMARK  6 active torsions:
REMARK  status: ('A' for Active; 'I' for Inactive)
REMARK    1  A    between atoms: C_2  and  O_3 
REMARK    2  A    between atoms: C_5  and  N_6 
REMARK       I    between atoms: N_6  and  C_18 
REMARK    3  A    between atoms: C_8  and  O_9 
REMARK    4  A    between atoms: C_11  and  O_12 
REMARK    5  A    between atoms: C_14  and  C_15 
REMARK    6  A    between atoms: C_15  and  O_16 
ROOT
HETATM    1  O   UNL     1      63.956   6.408 111.882  1.00  0.00    -0.349 OA
HETATM    2  C   UNL     1      64.543   7.007 110.715  1.00  0.00     0.282 C 
HETATM    3  C   UNL     1      63.610   8.001 110.012  1.00  0.00     0.170 C 
HETATM    4  C   UNL     1      62.999   8.963 111.032  1.00  0.00     0.177 C 
HETATM    5  C   UNL     1      62.351   8.198 112.189  1.00  0.00     0.180 C 
HETATM    6  C   UNL     1      63.426   7.323 112.843  1.00  0.00     0.179 C 
ENDROOT
BRANCH   3   7
HETATM    7  N   UNL     1      64.297   8.766 108.975  1.00  0.00    -0.349 N 
HETATM    8  C   UNL     1      64.249   8.389 107.698  1.00  0.00     0.214 C 
HETATM    9  O   UNL     1      63.673   7.364 107.373  1.00  0.00    -0.274 OA
HETATM   10  C   UNL     1      64.922   9.279 106.705  1.00  0.00     0.117 C 
ATOM     11  HN  UNL     1      64.822   9.602 109.232  1.00  0.00     0.163 HD
ENDBRANCH   3   7
BRANCH   2  12
HETATM   12  O   UNL     1      65.708   7.702 111.131  1.00  0.00    -0.369 OA
ATOM     13  HO  UNL     1      65.560   8.628 110.977  1.00  0.00     0.212 HD
ENDBRANCH   2  12
BRANCH   4  14
HETATM   14  O   UNL     1      62.128   9.871 110.348  1.00  0.00    -0.391 OA
ATOM     15  HO  UNL     1      62.016  10.713 110.772  1.00  0.00     0.210 HD
ENDBRANCH   4  14
BRANCH   5  16
HETATM   16  O   UNL     1      61.290   7.356 111.721  1.00  0.00    -0.390 OA
ATOM     17  HO  UNL     1      60.467   7.820 111.814  1.00  0.00     0.210 HD
ENDBRANCH   5  16
BRANCH   6  18
HETATM   18  C   UNL     1      62.892   6.513 114.013  1.00  0.00     0.198 C 
BRANCH  18  19
HETATM   19  O   UNL     1      61.752   7.163 114.610  1.00  0.00    -0.398 OA
ATOM     20  HO  UNL     1      62.002   7.626 115.401  1.00  0.00     0.209 HD
ENDBRANCH  18  19
ENDBRANCH   6  18
TORSDOF 6
ENDMDL
MODEL 14
REMARK VINA RESULT:    -4.289     14.737     15.703
REMARK INTER + INTRA:          -5.559
REMARK INTER:                  -5.108
REMARK INTRA:                  -0.451
REMARK UNBOUND:                -0.267
REMARK  6 active torsions:
REMARK  status: ('A' for Active; 'I' for Inactive)
REMARK    1  A    between atoms: C_2  and  O_3 
REMARK    2  A    between atoms: C_5  and  N_6 
REMARK       I    between atoms: N_6  and  C_18 
REMARK    3  A    between atoms: C_8  and  O_9 
REMARK    4  A    between atoms: C_11  and  O_12 
REMARK    5  A    between atoms: C_14  and  C_15 
REMARK    6  A    between atoms: C_15  and  O_16 
ROOT
HETATM    1  O   UNL     1      48.288   7.929 109.973  1.00  0.00    -0.349 OA
HETATM    2  C   UNL     1      48.567   6.564 109.619  1.00  0.00     0.282 C 
HETATM    3  C   UNL     1      50.002   6.135 109.950  1.00  0.00     0.170 C 
HETATM    4  C   UNL     1      50.361   6.551 111.378  1.00  0.00     0.177 C 
HETATM    5  C   UNL     1      50.078   8.038 111.604  1.00  0.00     0.180 C 
HETATM    6  C   UNL     1      48.592   8.289 111.322  1.00  0.00     0.179 C 
ENDROOT
BRANCH   3   7
HETATM    7  N   UNL     1      50.197   4.696 109.801  1.00  0.00    -0.349 N 
HETATM    8  C   UNL     1      50.921   4.201 108.798  1.00  0.00     0.214 C 
HETATM    9  O   UNL     1      51.394   4.939 107.949  1.00  0.00    -0.274 OA
HETATM   10  C   UNL     1      51.123   2.721 108.776  1.00  0.00     0.117 C 
ATOM     11  HN  UNL     1      49.773   4.058 110.476  1.00  0.00     0.163 HD
ENDBRANCH   3   7
BRANCH   2  12
HETATM   12  O   UNL     1      47.672   5.741 110.352  1.00  0.00    -0.369 OA
ATOM     13  HO  UNL     1      47.656   6.061 111.246  1.00  0.00     0.212 HD
ENDBRANCH   2  12
BRANCH   4  14
HETATM   14  O   UNL     1      51.706   6.145 111.653  1.00  0.00    -0.391 OA
ATOM     15  HO  UNL     1      52.358   6.488 111.054  1.00  0.00     0.210 HD
ENDBRANCH   4  14
BRANCH   5  16
HETATM   16  O   UNL     1      50.860   8.852 110.722  1.00  0.00    -0.390 OA
ATOM     17  HO  UNL     1      50.507   9.734 110.725  1.00  0.00     0.210 HD
ENDBRANCH   5  16
BRANCH   6  18
HETATM   18  C   UNL     1      48.195   9.743 111.518  1.00  0.00     0.198 C 
BRANCH  18  19
HETATM   19  O   UNL     1      48.659  10.554 110.421  1.00  0.00    -0.398 OA
ATOM     20  HO  UNL     1      49.195  10.044 109.825  1.00  0.00     0.209 HD
ENDBRANCH  18  19
ENDBRANCH   6  18
TORSDOF 6
ENDMDL
MODEL 15
REMARK VINA RESULT:    -4.282      7.670      9.501
REMARK INTER + INTRA:          -5.551
REMARK INTER:                  -5.316
REMARK INTRA:                  -0.235
REMARK UNBOUND:                -0.267
REMARK  6 active torsions:
REMARK  status: ('A' for Active; 'I' for Inactive)
REMARK    1  A    between atoms: C_2  and  O_3 
REMARK    2  A    between atoms: C_5  and  N_6 
REMARK       I    between atoms: N_6  and  C_18 
REMARK    3  A    between atoms: C_8  and  O_9 
REMARK    4  A    between atoms: C_11  and  O_12 
REMARK    5  A    between atoms: C_14  and  C_15 
REMARK    6  A    between atoms: C_15  and  O_16 
ROOT
HETATM    1  O   UNL     1      58.571   7.615 113.351  1.00  0.00    -0.349 OA
HETATM    2  C   UNL     1      58.839   8.796 114.126  1.00  0.00     0.282 C 
HETATM    3  C   UNL     1      59.507   8.497 115.473  1.00  0.00     0.170 C 
HETATM    4  C   UNL     1      60.681   7.536 115.279  1.00  0.00     0.177 C 
HETATM    5  C   UNL     1      60.249   6.292 114.498  1.00  0.00     0.180 C 
HETATM    6  C   UNL     1      59.689   6.748 113.145  1.00  0.00     0.179 C 
ENDROOT
BRANCH   3   7
HETATM    7  N   UNL     1      59.978   9.709 116.138  1.00  0.00    -0.349 N 
HETATM    8  C   UNL     1      59.326  10.216 117.183  1.00  0.00     0.214 C 
HETATM    9  O   UNL     1      58.289   9.708 117.576  1.00  0.00    -0.274 OA
HETATM   10  C   UNL     1      59.930  11.415 117.839  1.00  0.00     0.117 C 
ATOM     11  HN  UNL     1      60.819  10.174 115.797  1.00  0.00     0.163 HD
ENDBRANCH   3   7
BRANCH   2  12
HETATM   12  O   UNL     1      59.710   9.618 113.365  1.00  0.00    -0.369 OA
ATOM     13  HO  UNL     1      60.248  10.108 113.976  1.00  0.00     0.212 HD
ENDBRANCH   2  12
BRANCH   4  14
HETATM   14  O   UNL     1      61.277   7.270 116.553  1.00  0.00    -0.391 OA
ATOM     15  HO  UNL     1      62.223   7.355 116.577  1.00  0.00     0.210 HD
ENDBRANCH   4  14
BRANCH   5  16
HETATM   16  O   UNL     1      59.229   5.570 115.200  1.00  0.00    -0.390 OA
ATOM     17  HO  UNL     1      58.427   6.079 115.183  1.00  0.00     0.210 HD
ENDBRANCH   5  16
BRANCH   6  18
HETATM   18  C   UNL     1      59.226   5.589 112.280  1.00  0.00     0.198 C 
BRANCH  18  19
HETATM   19  O   UNL     1      58.964   6.026 110.932  1.00  0.00    -0.398 OA
ATOM     20  HO  UNL     1      58.035   6.172 110.798  1.00  0.00     0.209 HD
ENDBRANCH  18  19
ENDBRANCH   6  18
TORSDOF 6
ENDMDL
MODEL 16
REMARK VINA RESULT:    -4.267      2.530      3.654
REMARK INTER + INTRA:          -5.532
REMARK INTER:                  -5.118
REMARK INTRA:                  -0.414
REMARK UNBOUND:                -0.267
REMARK  6 active torsions:
REMARK  status: ('A' for Active; 'I' for Inactive)
REMARK    1  A    between atoms: C_2  and  O_3 
REMARK    2  A    between atoms: C_5  and  N_6 
REMARK       I    between atoms: N_6  and  C_18 
REMARK    3  A    between atoms: C_8  and  O_9 
REMARK    4  A    between atoms: C_11  and  O_12 
REMARK    5  A    between atoms: C_14  and  C_15 
REMARK    6  A    between atoms: C_15  and  O_16 
ROOT
HETATM    1  O   UNL     1      63.957   8.383 109.038  1.00  0.00    -0.349 OA
HETATM    2  C   UNL     1      63.082   7.730 108.103  1.00  0.00     0.282 C 
HETATM    3  C   UNL     1      63.783   7.325 106.800  1.00  0.00     0.170 C 
HETATM    4  C   UNL     1      65.099   6.610 107.109  1.00  0.00     0.177 C 
HETATM    5  C   UNL     1      65.965   7.439 108.062  1.00  0.00     0.180 C 
HETATM    6  C   UNL     1      65.163   7.682 109.346  1.00  0.00     0.179 C 
ENDROOT
BRANCH   3   7
HETATM    7  N   UNL     1      62.949   6.465 105.966  1.00  0.00    -0.349 N 
HETATM    8  C   UNL     1      62.531   6.868 104.767  1.00  0.00     0.214 C 
HETATM    9  O   UNL     1      62.792   7.988 104.360  1.00  0.00    -0.274 OA
HETATM   10  C   UNL     1      61.744   5.886 103.962  1.00  0.00     0.117 C 
ATOM     11  HN  UNL     1      62.681   5.541 106.307  1.00  0.00     0.163 HD
ENDBRANCH   3   7
BRANCH   2  12
HETATM   12  O   UNL     1      62.587   6.556 108.729  1.00  0.00    -0.369 OA
ATOM     13  HO  UNL     1      62.028   6.829 109.448  1.00  0.00     0.212 HD
ENDBRANCH   2  12
BRANCH   4  14
HETATM   14  O   UNL     1      65.733   6.253 105.876  1.00  0.00    -0.391 OA
ATOM     15  HO  UNL     1      65.654   5.338 105.636  1.00  0.00     0.210 HD
ENDBRANCH   4  14
BRANCH   5  16
HETATM   16  O   UNL     1      66.303   8.705 107.482  1.00  0.00    -0.390 OA
ATOM     17  HO  UNL     1      65.809   8.815 106.679  1.00  0.00     0.210 HD
ENDBRANCH   5  16
BRANCH   6  18
HETATM   18  C   UNL     1      65.929   8.500 110.371  1.00  0.00     0.198 C 
BRANCH  18  19
HETATM   19  O   UNL     1      66.090   9.861 109.926  1.00  0.00    -0.398 OA
ATOM     20  HO  UNL     1      65.591  10.020 109.133  1.00  0.00     0.209 HD
ENDBRANCH  18  19
ENDBRANCH   6  18
TORSDOF 6
ENDMDL
MODEL 17
REMARK VINA RESULT:    -4.199      1.688      5.123
REMARK INTER + INTRA:          -5.448
REMARK INTER:                  -5.034
REMARK INTRA:                  -0.414
REMARK UNBOUND:                -0.267
REMARK  6 active torsions:
REMARK  status: ('A' for Active; 'I' for Inactive)
REMARK    1  A    between atoms: C_2  and  O_3 
REMARK    2  A    between atoms: C_5  and  N_6 
REMARK       I    between atoms: N_6  and  C_18 
REMARK    3  A    between atoms: C_8  and  O_9 
REMARK    4  A    between atoms: C_11  and  O_12 
REMARK    5  A    between atoms: C_14  and  C_15 
REMARK    6  A    between atoms: C_15  and  O_16 
ROOT
HETATM    1  O   UNL     1      67.425   7.130 108.089  1.00  0.00    -0.349 OA
HETATM    2  C   UNL     1      66.454   7.013 109.143  1.00  0.00     0.282 C 
HETATM    3  C   UNL     1      65.364   8.091 109.083  1.00  0.00     0.170 C 
HETATM    4  C   UNL     1      64.810   8.203 107.662  1.00  0.00     0.177 C 
HETATM    5  C   UNL     1      65.939   8.389 106.645  1.00  0.00     0.180 C 
HETATM    6  C   UNL     1      66.890   7.193 106.765  1.00  0.00     0.179 C 
ENDROOT
BRANCH   3   7
HETATM    7  N   UNL     1      64.270   7.822 110.011  1.00  0.00    -0.349 N 
HETATM    8  C   UNL     1      63.958   8.688 110.974  1.00  0.00     0.214 C 
HETATM    9  O   UNL     1      64.616   9.702 111.137  1.00  0.00    -0.274 OA
HETATM   10  C   UNL     1      62.775   8.355 111.824  1.00  0.00     0.117 C 
ATOM     11  HN  UNL     1      63.735   6.957 109.921  1.00  0.00     0.163 HD
ENDBRANCH   3   7
BRANCH   2  12
HETATM   12  O   UNL     1      65.836   5.742 109.015  1.00  0.00    -0.369 OA
ATOM     13  HO  UNL     1      64.964   5.809 109.387  1.00  0.00     0.212 HD
ENDBRANCH   2  12
BRANCH   4  14
HETATM   14  O   UNL     1      63.803   9.221 107.638  1.00  0.00    -0.391 OA
ATOM     15  HO  UNL     1      63.815   9.775 106.867  1.00  0.00     0.210 HD
ENDBRANCH   4  14
BRANCH   5  16
HETATM   16  O   UNL     1      66.674   9.592 106.904  1.00  0.00    -0.390 OA
ATOM     17  HO  UNL     1      67.598   9.420 106.773  1.00  0.00     0.210 HD
ENDBRANCH   5  16
BRANCH   6  18
HETATM   18  C   UNL     1      68.057   7.271 105.795  1.00  0.00     0.198 C 
BRANCH  18  19
HETATM   19  O   UNL     1      69.002   8.277 106.208  1.00  0.00    -0.398 OA
ATOM     20  HO  UNL     1      69.230   8.173 107.125  1.00  0.00     0.209 HD
ENDBRANCH  18  19
ENDBRANCH   6  18
TORSDOF 6
ENDMDL
MODEL 18
REMARK VINA RESULT:    -4.066     13.293     15.365
REMARK INTER + INTRA:          -5.284
REMARK INTER:                  -4.841
REMARK INTRA:                  -0.443
REMARK UNBOUND:                -0.267
REMARK  6 active torsions:
REMARK  status: ('A' for Active; 'I' for Inactive)
REMARK    1  A    between atoms: C_2  and  O_3 
REMARK    2  A    between atoms: C_5  and  N_6 
REMARK       I    between atoms: N_6  and  C_18 
REMARK    3  A    between atoms: C_8  and  O_9 
REMARK    4  A    between atoms: C_11  and  O_12 
REMARK    5  A    between atoms: C_14  and  C_15 
REMARK    6  A    between atoms: C_15  and  O_16 
ROOT
HETATM    1  O   UNL     1      51.660   5.573 112.686  1.00  0.00    -0.349 OA
HETATM    2  C   UNL     1      50.771   5.721 111.567  1.00  0.00     0.282 C 
HETATM    3  C   UNL     1      50.129   7.111 111.484  1.00  0.00     0.170 C 
HETATM    4  C   UNL     1      51.195   8.196 111.649  1.00  0.00     0.177 C 
HETATM    5  C   UNL     1      52.029   7.958 112.911  1.00  0.00     0.180 C 
HETATM    6  C   UNL     1      52.675   6.573 112.802  1.00  0.00     0.179 C 
ENDROOT
BRANCH   3   7
HETATM    7  N   UNL     1      49.417   7.318 110.226  1.00  0.00    -0.349 N 
HETATM    8  C   UNL     1      48.098   7.502 110.206  1.00  0.00     0.214 C 
HETATM    9  O   UNL     1      47.445   7.448 111.235  1.00  0.00    -0.274 OA
HETATM   10  C   UNL     1      47.475   7.779 108.876  1.00  0.00     0.117 C 
ATOM     11  HN  UNL     1      49.938   7.322 109.349  1.00  0.00     0.163 HD
ENDBRANCH   3   7
BRANCH   2  12
HETATM   12  O   UNL     1      51.530   5.506 110.387  1.00  0.00    -0.369 OA
ATOM     13  HO  UNL     1      52.155   4.814 110.570  1.00  0.00     0.212 HD
ENDBRANCH   2  12
BRANCH   4  14
HETATM   14  O   UNL     1      50.564   9.479 111.576  1.00  0.00    -0.391 OA
ATOM     15  HO  UNL     1      49.899   9.635 112.235  1.00  0.00     0.210 HD
ENDBRANCH   4  14
BRANCH   5  16
HETATM   16  O   UNL     1      51.209   7.995 114.086  1.00  0.00    -0.390 OA
ATOM     17  HO  UNL     1      50.818   8.857 114.159  1.00  0.00     0.210 HD
ENDBRANCH   5  16
BRANCH   6  18
HETATM   18  C   UNL     1      53.533   6.228 114.007  1.00  0.00     0.198 C 
BRANCH  18  19
HETATM   19  O   UNL     1      54.086   7.419 114.602  1.00  0.00    -0.398 OA
ATOM     20  HO  UNL     1      53.597   7.669 115.377  1.00  0.00     0.209 HD
ENDBRANCH  18  19
ENDBRANCH   6  18
TORSDOF 6
ENDMDL
MODEL 19
REMARK VINA RESULT:    -4.001      2.099      5.269
REMARK INTER + INTRA:          -5.204
REMARK INTER:                  -4.781
REMARK INTRA:                  -0.423
REMARK UNBOUND:                -0.267
REMARK  6 active torsions:
REMARK  status: ('A' for Active; 'I' for Inactive)
REMARK    1  A    between atoms: C_2  and  O_3 
REMARK    2  A    between atoms: C_5  and  N_6 
REMARK       I    between atoms: N_6  and  C_18 
REMARK    3  A    between atoms: C_8  and  O_9 
REMARK    4  A    between atoms: C_11  and  O_12 
REMARK    5  A    between atoms: C_14  and  C_15 
REMARK    6  A    between atoms: C_15  and  O_16 
ROOT
HETATM    1  O   UNL     1      65.761   8.809 106.608  1.00  0.00    -0.349 OA
HETATM    2  C   UNL     1      65.513   8.612 108.010  1.00  0.00     0.282 C 
HETATM    3  C   UNL     1      64.094   8.113 108.308  1.00  0.00     0.170 C 
HETATM    4  C   UNL     1      63.740   6.945 107.388  1.00  0.00     0.177 C 
HETATM    5  C   UNL     1      63.988   7.307 105.921  1.00  0.00     0.180 C 
HETATM    6  C   UNL     1      65.463   7.693 105.767  1.00  0.00     0.179 C 
ENDROOT
BRANCH   3   7
HETATM    7  N   UNL     1      63.934   7.700 109.700  1.00  0.00    -0.349 N 
HETATM    8  C   UNL     1      62.876   8.082 110.412  1.00  0.00     0.214 C 
HETATM    9  O   UNL     1      62.041   8.833 109.934  1.00  0.00    -0.274 OA
HETATM   10  C   UNL     1      62.768   7.546 111.802  1.00  0.00     0.117 C 
ATOM     11  HN  UNL     1      64.644   7.108 110.133  1.00  0.00     0.163 HD
ENDBRANCH   3   7
BRANCH   2  12
HETATM   12  O   UNL     1      66.438   7.640 108.474  1.00  0.00    -0.369 OA
ATOM     13  HO  UNL     1      66.043   7.203 109.220  1.00  0.00     0.212 HD
ENDBRANCH   2  12
BRANCH   4  14
HETATM   14  O   UNL     1      62.409   6.508 107.684  1.00  0.00    -0.391 OA
ATOM     15  HO  UNL     1      61.886   6.279 106.926  1.00  0.00     0.210 HD
ENDBRANCH   4  14
BRANCH   5  16
HETATM   16  O   UNL     1      63.175   8.417 105.519  1.00  0.00    -0.390 OA
ATOM     17  HO  UNL     1      63.692   8.991 104.968  1.00  0.00     0.210 HD
ENDBRANCH   5  16
BRANCH   6  18
HETATM   18  C   UNL     1      65.825   8.074 104.341  1.00  0.00     0.198 C 
BRANCH  18  19
HETATM   19  O   UNL     1      65.461   9.441 104.066  1.00  0.00    -0.398 OA
ATOM     20  HO  UNL     1      65.783  10.021 104.746  1.00  0.00     0.209 HD
ENDBRANCH  18  19
ENDBRANCH   6  18
TORSDOF 6
ENDMDL
MODEL 20
REMARK VINA RESULT:    -3.987      2.990      5.383
REMARK INTER + INTRA:          -5.187
REMARK INTER:                  -4.770
REMARK INTRA:                  -0.417
REMARK UNBOUND:                -0.267
REMARK  6 active torsions:
REMARK  status: ('A' for Active; 'I' for Inactive)
REMARK    1  A    between atoms: C_2  and  O_3 
REMARK    2  A    between atoms: C_5  and  N_6 
REMARK       I    between atoms: N_6  and  C_18 
REMARK    3  A    between atoms: C_8  and  O_9 
REMARK    4  A    between atoms: C_11  and  O_12 
REMARK    5  A    between atoms: C_14  and  C_15 
REMARK    6  A    between atoms: C_15  and  O_16 
ROOT
HETATM    1  O   UNL     1      64.377   6.456 108.726  1.00  0.00    -0.349 OA
HETATM    2  C   UNL     1      63.146   5.884 109.200  1.00  0.00     0.282 C 
HETATM    3  C   UNL     1      62.568   6.619 110.416  1.00  0.00     0.170 C 
HETATM    4  C   UNL     1      62.561   8.128 110.168  1.00  0.00     0.177 C 
HETATM    5  C   UNL     1      63.944   8.619 109.732  1.00  0.00     0.180 C 
HETATM    6  C   UNL     1      64.341   7.860 108.461  1.00  0.00     0.179 C 
ENDROOT
BRANCH   3   7
HETATM    7  N   UNL     1      61.215   6.174 110.738  1.00  0.00    -0.349 N 
HETATM    8  C   UNL     1      60.846   5.956 111.999  1.00  0.00     0.214 C 
HETATM    9  O   UNL     1      61.647   6.070 112.912  1.00  0.00    -0.274 OA
HETATM   10  C   UNL     1      59.419   5.575 112.229  1.00  0.00     0.117 C 
ATOM     11  HN  UNL     1      60.541   6.029 109.985  1.00  0.00     0.163 HD
ENDBRANCH   3   7
BRANCH   2  12
HETATM   12  O   UNL     1      62.205   5.959 108.141  1.00  0.00    -0.369 OA
ATOM     13  HO  UNL     1      61.522   5.322 108.319  1.00  0.00     0.212 HD
ENDBRANCH   2  12
BRANCH   4  14
HETATM   14  O   UNL     1      62.025   8.784 111.322  1.00  0.00    -0.391 OA
ATOM     15  HO  UNL     1      61.439   8.253 111.848  1.00  0.00     0.210 HD
ENDBRANCH   4  14
BRANCH   5  16
HETATM   16  O   UNL     1      64.924   8.366 110.747  1.00  0.00    -0.390 OA
ATOM     17  HO  UNL     1      64.478   8.141 111.554  1.00  0.00     0.210 HD
ENDBRANCH   5  16
BRANCH   6  18
HETATM   18  C   UNL     1      65.706   8.270 107.935  1.00  0.00     0.198 C 
BRANCH  18  19
HETATM   19  O   UNL     1      66.050   9.598 108.377  1.00  0.00    -0.398 OA
ATOM     20  HO  UNL     1      65.487  10.247 107.972  1.00  0.00     0.209 HD
ENDBRANCH  18  19
ENDBRANCH   6  18
TORSDOF 6
ENDMDL
