REMARK  5 active torsions:
REMARK  status: ('A' for Active; 'I' for Inactive)
REMARK    1  A    between atoms: C_10  and  O_11 
REMARK    2  A    between atoms: C_13  and  N_14 
REMARK    3  A    between atoms: C_19  and  N_20 
REMARK    4  A    between atoms: C_38  and  O_39 
REMARK    5  A    between atoms: C_41  and  N_42 
ROOT
HETATM    1  P   UNL     1       5.084   2.300  15.667  1.00  0.00     0.408 P 
HETATM    2  O   UNL     1       6.532   2.245  16.115  1.00  0.00    -0.624 OA
HETATM    3  O   UNL     1       4.617   1.737  14.358  1.00  0.00    -0.624 OA
HETATM    4  O   UNL     1       4.484   3.786  15.853  1.00  0.00    -0.287 OA
HETATM    5  C   UNL     1       5.004   4.673  16.823  1.00  0.00     0.216 C 
HETATM    6  C   UNL     1       4.101   5.908  16.801  1.00  0.00     0.180 C 
HETATM    7  O   UNL     1       4.280   6.574  15.557  1.00  0.00    -0.353 OA
HETATM    8  C   UNL     1       2.600   5.645  16.848  1.00  0.00     0.198 C 
HETATM    9  O   UNL     1       2.215   5.502  18.198  1.00  0.00    -0.279 OA
HETATM   10  C   UNL     1       2.033   6.914  16.221  1.00  0.00     0.199 C 
HETATM   11  C   UNL     1       3.065   7.218  15.158  1.00  0.00     0.262 C 
HETATM   12  P   UNL     1       0.885   4.709  18.600  1.00  0.00     0.408 P 
HETATM   13  O   UNL     1      -0.228   5.273  17.755  1.00  0.00    -0.624 OA
HETATM   14  O   UNL     1       0.804   4.668  20.109  1.00  0.00    -0.624 OA
HETATM   15  O   UNL     1       1.163   3.210  18.087  1.00  0.00    -0.287 OA
HETATM   16  C   UNL     1       2.064   2.406  18.845  1.00  0.00     0.216 C 
HETATM   17  C   UNL     1       2.306   1.083  18.123  1.00  0.00     0.180 C 
HETATM   18  O   UNL     1       1.082   0.374  17.917  1.00  0.00    -0.353 OA
HETATM   19  C   UNL     1       2.889   1.254  16.730  1.00  0.00     0.198 C 
HETATM   20  O   UNL     1       4.292   1.509  16.811  1.00  0.00    -0.279 OA
HETATM   21  C   UNL     1       2.516  -0.065  16.077  1.00  0.00     0.199 C 
HETATM   22  C   UNL     1       1.166  -0.387  16.719  1.00  0.00     0.262 C 
ENDROOT
BRANCH  11  23
HETATM   23  N   UNL     1       2.755   6.600  13.858  1.00  0.00    -0.297 N 
HETATM   24  C   UNL     1       2.144   7.254  12.881  1.00  0.00     0.142 A 
HETATM   25  N   UNL     1       1.632   8.496  12.788  1.00  0.00    -0.336 N 
HETATM   26  C   UNL     1       2.066   6.313  11.760  1.00  0.00     0.122 A 
HETATM   27  C   UNL     1       1.043   8.878  11.644  1.00  0.00     0.183 A 
ATOM     28  HN  UNL     1       1.691   9.139  13.578  1.00  0.00     0.168 HD
HETATM   29  N   UNL     1       0.956   8.077  10.576  1.00  0.00    -0.337 N 
HETATM   30  C   UNL     1       1.415   6.799  10.545  1.00  0.00     0.131 A 
ATOM     31  HN  UNL     1       0.518   8.449   9.733  1.00  0.00     0.168 HD
HETATM   32  N   UNL     1       2.649   5.158  12.155  1.00  0.00    -0.346 N 
HETATM   33  C   UNL     1       3.080   5.359  13.430  1.00  0.00     0.188 A 
ATOM     34  HN  UNL     1       2.746   4.304  11.605  1.00  0.00     0.167 HD
BRANCH  30  35
HETATM   35  N   UNL     1       1.324   5.991   9.444  1.00  0.00    -0.383 N 
ATOM     36  HN2 UNL     1       0.870   6.330   8.596  1.00  0.00     0.157 HD
ATOM     37  HN1 UNL     1       1.669   5.031   9.421  1.00  0.00     0.157 HD
ENDBRANCH  30  35
ENDBRANCH  11  23
BRANCH  10  38
HETATM   38  O   UNL     1       2.168   7.963  17.205  1.00  0.00    -0.388 OA
ATOM     39  HO  UNL     1       1.520   7.772  17.873  1.00  0.00     0.210 HD
ENDBRANCH  10  38
BRANCH  21  40
HETATM   40  O   UNL     1       3.452  -1.094  16.439  1.00  0.00    -0.388 OA
ATOM     41  HO  UNL     1       3.219  -1.919  16.030  1.00  0.00     0.210 HD
ENDBRANCH  21  40
BRANCH  22  42
HETATM   42  N   UNL     1       0.120   0.122  15.808  1.00  0.00    -0.297 N 
HETATM   43  C   UNL     1      -0.269  -0.505  14.706  1.00  0.00     0.142 A 
HETATM   44  C   UNL     1      -1.296   0.347  14.087  1.00  0.00     0.122 A 
HETATM   45  N   UNL     1       0.085  -1.666  14.115  1.00  0.00    -0.336 N 
HETATM   46  N   UNL     1      -1.436   1.429  14.876  1.00  0.00    -0.346 N 
HETATM   47  C   UNL     1      -1.898  -0.149  12.824  1.00  0.00     0.131 A 
HETATM   48  C   UNL     1      -0.557   1.283  15.909  1.00  0.00     0.188 A 
ATOM     49  HN  UNL     1      -2.077   2.209  14.729  1.00  0.00     0.167 HD
HETATM   50  N   UNL     1      -2.858   0.563  12.176  1.00  0.00    -0.383 N 
HETATM   51  N   UNL     1      -1.458  -1.339  12.349  1.00  0.00    -0.337 N 
ATOM     52  HN2 UNL     1      -3.189   1.459  12.534  1.00  0.00     0.157 HD
ATOM     53  HN1 UNL     1      -3.272   0.222  11.308  1.00  0.00     0.157 HD
HETATM   54  C   UNL     1      -0.508  -2.062  12.971  1.00  0.00     0.183 A 
ATOM     55  HN  UNL     1      -1.863  -1.702  11.486  1.00  0.00     0.168 HD
ATOM     56  HN  UNL     1       0.808  -2.249  14.538  1.00  0.00     0.168 HD
ENDBRANCH  22  42
TORSDOF 5
