REMARK  2 active torsions:
REMARK  status: ('A' for Active; 'I' for Inactive)
REMARK    1  A    between atoms: C_7  and  C_9 
REMARK    2  A    between atoms: C_9  and  C_10 
ROOT
HETATM    1  C   UNL     1       3.064  46.851  44.116  1.00  0.00     0.042 A 
HETATM    2  C   UNL     1       2.232  47.669  43.356  1.00  0.00    -0.001 A 
HETATM    3  C   UNL     1       1.031  47.155  42.827  1.00  0.00     0.014 A 
HETATM    4  C   UNL     1       0.688  45.828  43.091  1.00  0.00     0.001 A 
HETATM    5  C   UNL     1       1.537  45.017  43.861  1.00  0.00     0.002 A 
HETATM    6  C   UNL     1       2.712  45.525  44.382  1.00  0.00     0.030 A 
HETATM    7  C   UNL     1       2.894  48.926  43.302  1.00  0.00    -0.020 A 
HETATM    8  C   UNL     1       4.051  48.799  44.033  1.00  0.00     0.097 A 
HETATM    9  N   UNL     1       4.142  47.551  44.504  1.00  0.00    -0.365 N 
ATOM     10  HN  UNL     1       4.910  47.188  45.069  1.00  0.00     0.165 HD
ENDROOT
BRANCH   7  11
HETATM   11  C   UNL     1       2.463  50.189  42.560  1.00  0.00     0.154 C 
BRANCH  11  12
HETATM   12  C   UNL     1       0.976  50.458  42.568  1.00  0.00     0.177 C 
HETATM   13  O   UNL     1       0.399  50.603  43.670  1.00  0.00    -0.648 OA
HETATM   14  O   UNL     1       0.357  50.555  41.487  1.00  0.00    -0.648 OA
ENDBRANCH  11  12
ENDBRANCH   7  11
TORSDOF 2
