MODEL 1
REMARK VINA RESULT:   -16.417      0.000      0.000
REMARK INTER + INTRA:         -27.318
REMARK INTER:                 -26.014
REMARK INTRA:                  -1.304
REMARK UNBOUND:                -1.304
REMARK  10 active torsions:
REMARK  status: ('A' for Active; 'I' for Inactive)
REMARK    1  A    between atoms: C_7  and  C_19 
REMARK    2  A    between atoms: C_8  and  C_20 
REMARK    3  A    between atoms: C_23  and  C_25 
REMARK    4  A    between atoms: C_24  and  C_26 
REMARK    5  A    between atoms: C_29  and  C_31 
REMARK    6  A    between atoms: C_30  and  C_32 
REMARK    7  A    between atoms: C_33  and  C_35 
REMARK    8  A    between atoms: C_34  and  C_36 
REMARK    9  A    between atoms: C_37  and  C_41 
REMARK   10  A    between atoms: C_38  and  C_42 
ROOT
HETATM    1  C   UNL     1      20.286  10.016 -13.582  1.00  0.00     0.001 C 
HETATM    2  C   UNL     1      21.565   9.580 -13.487  1.00  0.00     0.001 C 
ENDROOT
BRANCH   1   3
HETATM    3  C   UNL     1      19.723  10.803 -14.737  1.00  0.00     0.007 C 
HETATM    4  C   UNL     1      18.441  11.096 -14.909  1.00  0.00    -0.062 C 
HETATM    5  C   UNL     1      17.373  10.526 -13.988  1.00  0.00     0.048 C 
BRANCH   4   6
HETATM    6  C   UNL     1      18.080  11.996 -16.083  1.00  0.00     0.007 C 
HETATM    7  C   UNL     1      16.833  12.334 -16.411  1.00  0.00     0.001 C 
BRANCH   7   8
HETATM    8  C   UNL     1      16.659  13.297 -17.564  1.00  0.00     0.007 C 
HETATM    9  C   UNL     1      15.449  13.670 -18.000  1.00  0.00    -0.062 C 
HETATM   10  C   UNL     1      14.168  13.112 -17.441  1.00  0.00     0.048 C 
BRANCH   9  11
HETATM   11  C   UNL     1      15.384  14.726 -19.082  1.00  0.00     0.007 C 
HETATM   12  C   UNL     1      14.493  15.651 -18.952  1.00  0.00     0.009 C 
BRANCH  12  13
HETATM   13  C   UNL     1      14.437  16.796 -19.933  1.00  0.00    -0.041 C 
HETATM   14  C   UNL     1      14.839  18.130 -19.342  1.00  0.00    -0.019 C 
HETATM   15  C   UNL     1      13.685  18.595 -18.435  1.00  0.00     0.020 C 
HETATM   16  C   UNL     1      15.044  19.199 -20.425  1.00  0.00     0.021 C 
HETATM   17  C   UNL     1      16.135  18.008 -18.528  1.00  0.00     0.020 C 
HETATM   18  C   UNL     1      13.823  19.324 -21.351  1.00  0.00     0.084 C 
HETATM   19  C   UNL     1      13.339  18.001 -21.930  1.00  0.00     0.155 C 
HETATM   20  O   UNL     1      12.765  17.981 -22.979  1.00  0.00    -0.293 OA
HETATM   21  C   UNL     1      13.586  16.726 -21.181  1.00  0.00    -0.009 C 
HETATM   22  C   UNL     1      13.494  15.359 -21.880  1.00  0.00     0.052 C 
ENDBRANCH  12  13
ENDBRANCH   9  11
ENDBRANCH   7   8
ENDBRANCH   4   6
ENDBRANCH   1   3
BRANCH   2  23
HETATM   23  C   UNL     1      21.900   8.958 -12.147  1.00  0.00     0.007 C 
HETATM   24  C   UNL     1      23.133   8.490 -11.877  1.00  0.00    -0.062 C 
HETATM   25  C   UNL     1      24.254   8.518 -12.884  1.00  0.00     0.048 C 
BRANCH  24  26
HETATM   26  C   UNL     1      23.387   8.012 -10.440  1.00  0.00     0.007 C 
HETATM   27  C   UNL     1      24.577   8.250  -9.860  1.00  0.00     0.001 C 
BRANCH  27  28
HETATM   28  C   UNL     1      24.776   7.859  -8.410  1.00  0.00     0.007 C 
HETATM   29  C   UNL     1      25.971   7.594  -7.863  1.00  0.00    -0.062 C 
HETATM   30  C   UNL     1      27.275   7.564  -8.619  1.00  0.00     0.048 C 
BRANCH  29  31
HETATM   31  C   UNL     1      25.933   7.280  -6.376  1.00  0.00     0.007 C 
HETATM   32  C   UNL     1      26.992   7.535  -5.652  1.00  0.00     0.009 C 
BRANCH  32  33
HETATM   33  C   UNL     1      26.958   7.264  -4.174  1.00  0.00    -0.041 C 
HETATM   34  C   UNL     1      27.817   6.150  -3.546  1.00  0.00    -0.019 C 
HETATM   35  C   UNL     1      27.683   4.895  -4.406  1.00  0.00     0.020 C 
HETATM   36  C   UNL     1      29.302   6.548  -3.532  1.00  0.00     0.020 C 
HETATM   37  C   UNL     1      27.349   5.817  -2.128  1.00  0.00     0.021 C 
HETATM   38  C   UNL     1      27.265   7.056  -1.228  1.00  0.00     0.084 C 
HETATM   39  C   UNL     1      26.357   8.127  -1.793  1.00  0.00     0.155 C 
HETATM   40  O   UNL     1      25.614   8.813  -1.139  1.00  0.00    -0.293 OA
HETATM   41  C   UNL     1      26.420   8.375  -3.289  1.00  0.00    -0.009 C 
HETATM   42  C   UNL     1      25.701   9.591  -3.869  1.00  0.00     0.052 C 
ENDBRANCH  32  33
ENDBRANCH  29  31
ENDBRANCH  27  28
ENDBRANCH  24  26
ENDBRANCH   2  23
TORSDOF 10
ENDMDL
MODEL 2
REMARK VINA RESULT:   -15.471      0.575     19.130
REMARK INTER + INTRA:         -25.820
REMARK INTER:                 -24.387
REMARK INTRA:                  -1.433
REMARK UNBOUND:                -1.304
REMARK  10 active torsions:
REMARK  status: ('A' for Active; 'I' for Inactive)
REMARK    1  A    between atoms: C_7  and  C_19 
REMARK    2  A    between atoms: C_8  and  C_20 
REMARK    3  A    between atoms: C_23  and  C_25 
REMARK    4  A    between atoms: C_24  and  C_26 
REMARK    5  A    between atoms: C_29  and  C_31 
REMARK    6  A    between atoms: C_30  and  C_32 
REMARK    7  A    between atoms: C_33  and  C_35 
REMARK    8  A    between atoms: C_34  and  C_36 
REMARK    9  A    between atoms: C_37  and  C_41 
REMARK   10  A    between atoms: C_38  and  C_42 
ROOT
HETATM    1  C   UNL     1      21.138  10.081 -12.994  1.00  0.00     0.001 C 
HETATM    2  C   UNL     1      20.272   9.515 -13.870  1.00  0.00     0.001 C 
ENDROOT
BRANCH   1   3
HETATM    3  C   UNL     1      21.662   9.422 -11.745  1.00  0.00     0.007 C 
HETATM    4  C   UNL     1      22.822   8.788 -11.646  1.00  0.00    -0.062 C 
HETATM    5  C   UNL     1      23.696   8.548 -12.868  1.00  0.00     0.048 C 
BRANCH   4   6
HETATM    6  C   UNL     1      23.227   8.280 -10.268  1.00  0.00     0.007 C 
HETATM    7  C   UNL     1      24.486   8.205  -9.837  1.00  0.00     0.001 C 
BRANCH   7   8
HETATM    8  C   UNL     1      24.703   7.746  -8.413  1.00  0.00     0.007 C 
HETATM    9  C   UNL     1      25.929   7.626  -7.886  1.00  0.00    -0.062 C 
HETATM   10  C   UNL     1      27.188   7.859  -8.676  1.00  0.00     0.048 C 
BRANCH   9  11
HETATM   11  C   UNL     1      26.032   7.271  -6.418  1.00  0.00     0.007 C 
HETATM   12  C   UNL     1      27.120   7.603  -5.806  1.00  0.00     0.009 C 
BRANCH  12  13
HETATM   13  C   UNL     1      27.254   7.379  -4.321  1.00  0.00    -0.041 C 
HETATM   14  C   UNL     1      27.884   6.053  -3.954  1.00  0.00    -0.019 C 
HETATM   15  C   UNL     1      26.835   4.958  -4.222  1.00  0.00     0.020 C 
HETATM   16  C   UNL     1      28.260   5.987  -2.467  1.00  0.00     0.021 C 
HETATM   17  C   UNL     1      29.147   5.791  -4.786  1.00  0.00     0.020 C 
HETATM   18  C   UNL     1      27.071   6.330  -1.555  1.00  0.00     0.084 C 
HETATM   19  C   UNL     1      26.361   7.629  -1.914  1.00  0.00     0.155 C 
HETATM   20  O   UNL     1      25.784   8.250  -1.071  1.00  0.00    -0.293 OA
HETATM   21  C   UNL     1      26.392   8.127  -3.328  1.00  0.00    -0.009 C 
HETATM   22  C   UNL     1      26.060   9.591  -3.666  1.00  0.00     0.052 C 
ENDBRANCH  12  13
ENDBRANCH   9  11
ENDBRANCH   7   8
ENDBRANCH   4   6
ENDBRANCH   1   3
BRANCH   2  23
HETATM   23  C   UNL     1      19.787  10.462 -14.947  1.00  0.00     0.007 C 
HETATM   24  C   UNL     1      18.516  10.906 -14.974  1.00  0.00    -0.062 C 
HETATM   25  C   UNL     1      17.481  10.474 -13.967  1.00  0.00     0.048 C 
BRANCH  24  26
HETATM   26  C   UNL     1      18.181  11.969 -16.030  1.00  0.00     0.007 C 
HETATM   27  C   UNL     1      16.904  12.353 -16.205  1.00  0.00     0.001 C 
BRANCH  27  28
HETATM   28  C   UNL     1      16.604  13.474 -17.181  1.00  0.00     0.007 C 
HETATM   29  C   UNL     1      15.369  13.801 -17.587  1.00  0.00    -0.062 C 
HETATM   30  C   UNL     1      14.113  13.060 -17.205  1.00  0.00     0.048 C 
BRANCH  29  31
HETATM   31  C   UNL     1      15.306  14.996 -18.524  1.00  0.00     0.007 C 
HETATM   32  C   UNL     1      14.210  15.711 -18.560  1.00  0.00     0.009 C 
BRANCH  32  33
HETATM   33  C   UNL     1      14.145  16.918 -19.454  1.00  0.00    -0.041 C 
HETATM   34  C   UNL     1      14.892  18.216 -19.097  1.00  0.00    -0.019 C 
HETATM   35  C   UNL     1      14.642  18.528 -17.622  1.00  0.00     0.020 C 
HETATM   36  C   UNL     1      16.408  18.045 -19.286  1.00  0.00     0.020 C 
HETATM   37  C   UNL     1      14.389  19.396 -19.932  1.00  0.00     0.021 C 
HETATM   38  C   UNL     1      14.421  19.109 -21.438  1.00  0.00     0.084 C 
HETATM   39  C   UNL     1      13.621  17.880 -21.815  1.00  0.00     0.155 C 
HETATM   40  O   UNL     1      12.945  17.778 -22.806  1.00  0.00    -0.293 OA
HETATM   41  C   UNL     1      13.713  16.680 -20.890  1.00  0.00    -0.009 C 
HETATM   42  C   UNL     1      13.114  15.349 -21.342  1.00  0.00     0.052 C 
ENDBRANCH  32  33
ENDBRANCH  29  31
ENDBRANCH  27  28
ENDBRANCH  24  26
ENDBRANCH   2  23
TORSDOF 10
ENDMDL
MODEL 3
REMARK VINA RESULT:   -15.363      0.750      1.729
REMARK INTER + INTRA:         -25.648
REMARK INTER:                 -24.305
REMARK INTRA:                  -1.343
REMARK UNBOUND:                -1.304
REMARK  10 active torsions:
REMARK  status: ('A' for Active; 'I' for Inactive)
REMARK    1  A    between atoms: C_7  and  C_19 
REMARK    2  A    between atoms: C_8  and  C_20 
REMARK    3  A    between atoms: C_23  and  C_25 
REMARK    4  A    between atoms: C_24  and  C_26 
REMARK    5  A    between atoms: C_29  and  C_31 
REMARK    6  A    between atoms: C_30  and  C_32 
REMARK    7  A    between atoms: C_33  and  C_35 
REMARK    8  A    between atoms: C_34  and  C_36 
REMARK    9  A    between atoms: C_37  and  C_41 
REMARK   10  A    between atoms: C_38  and  C_42 
ROOT
HETATM    1  C   UNL     1      20.179  10.060 -13.506  1.00  0.00     0.001 C 
HETATM    2  C   UNL     1      21.483   9.703 -13.415  1.00  0.00     0.001 C 
ENDROOT
BRANCH   1   3
HETATM    3  C   UNL     1      19.576  10.855 -14.635  1.00  0.00     0.007 C 
HETATM    4  C   UNL     1      18.278  11.043 -14.828  1.00  0.00    -0.062 C 
HETATM    5  C   UNL     1      17.243  10.334 -13.968  1.00  0.00     0.048 C 
BRANCH   4   6
HETATM    6  C   UNL     1      17.866  11.969 -15.965  1.00  0.00     0.007 C 
HETATM    7  C   UNL     1      16.620  12.400 -16.166  1.00  0.00     0.001 C 
BRANCH   7   8
HETATM    8  C   UNL     1      16.402  13.375 -17.302  1.00  0.00     0.007 C 
HETATM    9  C   UNL     1      15.175  13.712 -17.721  1.00  0.00    -0.062 C 
HETATM   10  C   UNL     1      13.920  13.100 -17.158  1.00  0.00     0.048 C 
BRANCH   9  11
HETATM   11  C   UNL     1      15.063  14.782 -18.785  1.00  0.00     0.007 C 
HETATM   12  C   UNL     1      13.887  15.260 -19.019  1.00  0.00     0.009 C 
BRANCH  12  13
HETATM   13  C   UNL     1      13.711  16.402 -19.989  1.00  0.00    -0.041 C 
HETATM   14  C   UNL     1      13.417  15.965 -21.407  1.00  0.00    -0.019 C 
HETATM   15  C   UNL     1      14.727  15.410 -21.996  1.00  0.00     0.020 C 
HETATM   16  C   UNL     1      12.968  17.138 -22.289  1.00  0.00     0.021 C 
HETATM   17  C   UNL     1      12.324  14.887 -21.438  1.00  0.00     0.020 C 
HETATM   18  C   UNL     1      13.962  18.309 -22.244  1.00  0.00     0.084 C 
HETATM   19  C   UNL     1      14.340  18.755 -20.837  1.00  0.00     0.155 C 
HETATM   20  O   UNL     1      14.680  19.884 -20.638  1.00  0.00    -0.293 OA
HETATM   21  C   UNL     1      14.282  17.774 -19.704  1.00  0.00    -0.009 C 
HETATM   22  C   UNL     1      14.252  18.246 -18.241  1.00  0.00     0.052 C 
ENDBRANCH  12  13
ENDBRANCH   9  11
ENDBRANCH   7   8
ENDBRANCH   4   6
ENDBRANCH   1   3
BRANCH   2  23
HETATM   23  C   UNL     1      21.846   9.051 -12.097  1.00  0.00     0.007 C 
HETATM   24  C   UNL     1      23.049   8.480 -11.902  1.00  0.00    -0.062 C 
HETATM   25  C   UNL     1      24.104   8.416 -12.976  1.00  0.00     0.048 C 
BRANCH  24  26
HETATM   26  C   UNL     1      23.350   7.978 -10.483  1.00  0.00     0.007 C 
HETATM   27  C   UNL     1      24.511   8.311  -9.891  1.00  0.00     0.001 C 
BRANCH  27  28
HETATM   28  C   UNL     1      24.749   7.890  -8.454  1.00  0.00     0.007 C 
HETATM   29  C   UNL     1      25.958   7.619  -7.945  1.00  0.00    -0.062 C 
HETATM   30  C   UNL     1      27.243   7.611  -8.734  1.00  0.00     0.048 C 
BRANCH  29  31
HETATM   31  C   UNL     1      25.959   7.273  -6.464  1.00  0.00     0.007 C 
HETATM   32  C   UNL     1      27.020   7.555  -5.753  1.00  0.00     0.009 C 
BRANCH  32  33
HETATM   33  C   UNL     1      27.023   7.252  -4.280  1.00  0.00    -0.041 C 
HETATM   34  C   UNL     1      27.932   6.156  -3.693  1.00  0.00    -0.019 C 
HETATM   35  C   UNL     1      27.826   4.915  -4.577  1.00  0.00     0.020 C 
HETATM   36  C   UNL     1      29.402   6.606  -3.696  1.00  0.00     0.020 C 
HETATM   37  C   UNL     1      27.503   5.776  -2.274  1.00  0.00     0.021 C 
HETATM   38  C   UNL     1      27.393   6.993  -1.346  1.00  0.00     0.084 C 
HETATM   39  C   UNL     1      26.437   8.043  -1.871  1.00  0.00     0.155 C 
HETATM   40  O   UNL     1      25.683   8.688  -1.189  1.00  0.00    -0.293 OA
HETATM   41  C   UNL     1      26.463   8.324  -3.362  1.00  0.00    -0.009 C 
HETATM   42  C   UNL     1      25.691   9.526  -3.903  1.00  0.00     0.052 C 
ENDBRANCH  32  33
ENDBRANCH  29  31
ENDBRANCH  27  28
ENDBRANCH  24  26
ENDBRANCH   2  23
TORSDOF 10
ENDMDL
MODEL 4
REMARK VINA RESULT:   -15.136      0.937     19.168
REMARK INTER + INTRA:         -25.289
REMARK INTER:                 -23.830
REMARK INTRA:                  -1.459
REMARK UNBOUND:                -1.304
REMARK  10 active torsions:
REMARK  status: ('A' for Active; 'I' for Inactive)
REMARK    1  A    between atoms: C_7  and  C_19 
REMARK    2  A    between atoms: C_8  and  C_20 
REMARK    3  A    between atoms: C_23  and  C_25 
REMARK    4  A    between atoms: C_24  and  C_26 
REMARK    5  A    between atoms: C_29  and  C_31 
REMARK    6  A    between atoms: C_30  and  C_32 
REMARK    7  A    between atoms: C_33  and  C_35 
REMARK    8  A    between atoms: C_34  and  C_36 
REMARK    9  A    between atoms: C_37  and  C_41 
REMARK   10  A    between atoms: C_38  and  C_42 
ROOT
HETATM    1  C   UNL     1      21.372   9.976 -12.828  1.00  0.00     0.001 C 
HETATM    2  C   UNL     1      20.579   9.372 -13.746  1.00  0.00     0.001 C 
ENDROOT
BRANCH   1   3
HETATM    3  C   UNL     1      21.878   9.333 -11.563  1.00  0.00     0.007 C 
HETATM    4  C   UNL     1      22.985   8.610 -11.464  1.00  0.00    -0.062 C 
HETATM    5  C   UNL     1      23.798   8.242 -12.696  1.00  0.00     0.048 C 
BRANCH   4   6
HETATM    6  C   UNL     1      23.388   8.134 -10.075  1.00  0.00     0.007 C 
HETATM    7  C   UNL     1      24.567   8.392  -9.508  1.00  0.00     0.001 C 
BRANCH   7   8
HETATM    8  C   UNL     1      24.773   7.904  -8.091  1.00  0.00     0.007 C 
HETATM    9  C   UNL     1      25.986   7.580  -7.622  1.00  0.00    -0.062 C 
HETATM   10  C   UNL     1      27.226   7.598  -8.475  1.00  0.00     0.048 C 
BRANCH   9  11
HETATM   11  C   UNL     1      26.100   7.215  -6.158  1.00  0.00     0.007 C 
HETATM   12  C   UNL     1      27.170   7.587  -5.539  1.00  0.00     0.009 C 
BRANCH  12  13
HETATM   13  C   UNL     1      27.309   7.353  -4.055  1.00  0.00    -0.041 C 
HETATM   14  C   UNL     1      28.015   6.063  -3.700  1.00  0.00    -0.019 C 
HETATM   15  C   UNL     1      27.036   4.910  -3.988  1.00  0.00     0.020 C 
HETATM   16  C   UNL     1      28.386   6.001  -2.212  1.00  0.00     0.021 C 
HETATM   17  C   UNL     1      29.297   5.887  -4.528  1.00  0.00     0.020 C 
HETATM   18  C   UNL     1      27.174   6.261  -1.303  1.00  0.00     0.084 C 
HETATM   19  C   UNL     1      26.390   7.520  -1.652  1.00  0.00     0.155 C 
HETATM   20  O   UNL     1      25.771   8.094  -0.804  1.00  0.00    -0.293 OA
HETATM   21  C   UNL     1      26.398   8.036  -3.059  1.00  0.00    -0.009 C 
HETATM   22  C   UNL     1      25.981   9.481  -3.382  1.00  0.00     0.052 C 
ENDBRANCH  12  13
ENDBRANCH   9  11
ENDBRANCH   7   8
ENDBRANCH   4   6
ENDBRANCH   1   3
BRANCH   2  23
HETATM   23  C   UNL     1      20.088  10.303 -14.835  1.00  0.00     0.007 C 
HETATM   24  C   UNL     1      18.845  10.820 -14.811  1.00  0.00    -0.062 C 
HETATM   25  C   UNL     1      17.847  10.493 -13.730  1.00  0.00     0.048 C 
BRANCH  24  26
HETATM   26  C   UNL     1      18.512  11.858 -15.892  1.00  0.00     0.007 C 
HETATM   27  C   UNL     1      17.335  11.789 -16.540  1.00  0.00     0.001 C 
BRANCH  27  28
HETATM   28  C   UNL     1      16.981  12.879 -17.533  1.00  0.00     0.007 C 
HETATM   29  C   UNL     1      15.808  13.526 -17.545  1.00  0.00    -0.062 C 
HETATM   30  C   UNL     1      14.644  13.217 -16.637  1.00  0.00     0.048 C 
BRANCH  29  31
HETATM   31  C   UNL     1      15.698  14.620 -18.595  1.00  0.00     0.007 C 
HETATM   32  C   UNL     1      14.509  15.020 -18.966  1.00  0.00     0.009 C 
BRANCH  32  33
HETATM   33  C   UNL     1      14.384  16.127 -19.976  1.00  0.00    -0.041 C 
HETATM   34  C   UNL     1      14.027  15.830 -21.445  1.00  0.00    -0.019 C 
HETATM   35  C   UNL     1      14.879  14.654 -21.920  1.00  0.00     0.020 C 
HETATM   36  C   UNL     1      12.552  15.419 -21.577  1.00  0.00     0.020 C 
HETATM   37  C   UNL     1      14.320  17.033 -22.344  1.00  0.00     0.021 C 
HETATM   38  C   UNL     1      13.657  18.321 -21.840  1.00  0.00     0.084 C 
HETATM   39  C   UNL     1      14.064  18.671 -20.424  1.00  0.00     0.155 C 
HETATM   40  O   UNL     1      14.274  19.787 -20.025  1.00  0.00    -0.293 OA
HETATM   41  C   UNL     1      14.178  17.529 -19.430  1.00  0.00    -0.009 C 
HETATM   42  C   UNL     1      14.357  17.852 -17.948  1.00  0.00     0.052 C 
ENDBRANCH  32  33
ENDBRANCH  29  31
ENDBRANCH  27  28
ENDBRANCH  24  26
ENDBRANCH   2  23
TORSDOF 10
ENDMDL
