MODEL 1
REMARK VINA RESULT:    -6.845      0.000      0.000
REMARK INTER + INTRA:          -7.345
REMARK INTER:                  -7.245
REMARK INTRA:                  -0.100
REMARK UNBOUND:                -0.100
REMARK  1 active torsions:
REMARK  status: ('A' for Active; 'I' for Inactive)
REMARK    1  A    between atoms: O_14  and  C_15 
ROOT
HETATM    1  C   UNL     1      -5.188  14.885  10.251  1.00  0.00     0.004 A 
HETATM    2  C   UNL     1      -6.350  14.754   9.514  1.00  0.00     0.021 A 
HETATM    3  C   UNL     1      -7.563  14.860  10.173  1.00  0.00     0.038 A 
HETATM    4  C   UNL     1      -9.850  14.971  11.036  1.00  0.00     0.172 A 
HETATM    5  C   UNL     1      -9.666  15.321  13.176  1.00  0.00     0.207 A 
HETATM    6  C   UNL     1      -7.612  15.054  11.561  1.00  0.00     0.093 A 
HETATM    7  N   UNL     1     -11.075  15.022  11.505  1.00  0.00    -0.278 N 
ATOM      8  HN  UNL     1     -11.941  14.911  10.979  1.00  0.00     0.189 HD
HETATM    9  N   UNL     1     -10.944  15.265  12.887  1.00  0.00    -0.294 N 
ATOM     10  HN  UNL     1     -11.711  15.377  13.550  1.00  0.00     0.187 HD
HETATM   11  C   UNL     1      -5.227  15.101  11.631  1.00  0.00     0.039 A 
HETATM   12  N   UNL     1      -8.934  15.127  12.041  1.00  0.00    -0.281 N 
HETATM   13  C   UNL     1      -6.448  15.179  12.297  1.00  0.00     0.096 A 
HETATM   14  S   UNL     1      -9.178  14.714   9.463  1.00  0.00    -0.050 SA
ENDROOT
BRANCH  13  15
HETATM   15  O   UNL     1      -6.689  15.417  13.629  1.00  0.00    -0.354 OA
HETATM   16  C   UNL     1      -6.295  16.699  14.131  1.00  0.00     0.210 C 
ENDBRANCH  13  15
TORSDOF 1
ENDMDL
MODEL 2
REMARK VINA RESULT:    -6.836      2.587      4.537
REMARK INTER + INTRA:          -7.336
REMARK INTER:                  -7.236
REMARK INTRA:                  -0.099
REMARK UNBOUND:                -0.100
REMARK  1 active torsions:
REMARK  status: ('A' for Active; 'I' for Inactive)
REMARK    1  A    between atoms: O_14  and  C_15 
ROOT
HETATM    1  C   UNL     1     -10.826  14.867  10.403  1.00  0.00     0.004 A 
HETATM    2  C   UNL     1     -10.537  15.228  11.706  1.00  0.00     0.021 A 
HETATM    3  C   UNL     1      -9.209  15.332  12.081  1.00  0.00     0.038 A 
HETATM    4  C   UNL     1      -6.981  15.580  13.061  1.00  0.00     0.172 A 
HETATM    5  C   UNL     1      -5.572  15.123  11.466  1.00  0.00     0.207 A 
HETATM    6  C   UNL     1      -8.180  15.039  11.174  1.00  0.00     0.093 A 
HETATM    7  N   UNL     1      -5.783  15.702  13.584  1.00  0.00    -0.278 N 
ATOM      8  HN  UNL     1      -5.553  15.950  14.546  1.00  0.00     0.189 HD
HETATM    9  N   UNL     1      -4.880  15.420  12.540  1.00  0.00    -0.294 N 
ATOM     10  HN  UNL     1      -3.862  15.442  12.607  1.00  0.00     0.187 HD
HETATM   11  C   UNL     1      -9.807  14.594   9.485  1.00  0.00     0.039 A 
HETATM   12  N   UNL     1      -6.905  15.196  11.748  1.00  0.00    -0.281 N 
HETATM   13  C   UNL     1      -8.472  14.672   9.873  1.00  0.00     0.096 A 
HETATM   14  S   UNL     1      -8.585  15.758  13.683  1.00  0.00    -0.050 SA
ENDROOT
BRANCH  13  15
HETATM   15  O   UNL     1      -7.342  14.476   9.115  1.00  0.00    -0.354 OA
HETATM   16  C   UNL     1      -7.113  13.144   8.643  1.00  0.00     0.210 C 
ENDBRANCH  13  15
TORSDOF 1
ENDMDL
MODEL 3
REMARK VINA RESULT:    -6.807      2.015      3.089
REMARK INTER + INTRA:          -7.305
REMARK INTER:                  -7.204
REMARK INTRA:                  -0.101
REMARK UNBOUND:                -0.100
REMARK  1 active torsions:
REMARK  status: ('A' for Active; 'I' for Inactive)
REMARK    1  A    between atoms: O_14  and  C_15 
ROOT
HETATM    1  C   UNL     1      -4.948  14.923  10.461  1.00  0.00     0.004 A 
HETATM    2  C   UNL     1      -5.224  15.192  11.789  1.00  0.00     0.021 A 
HETATM    3  C   UNL     1      -6.548  15.245  12.189  1.00  0.00     0.038 A 
HETATM    4  C   UNL     1      -8.767  15.430  13.205  1.00  0.00     0.172 A 
HETATM    5  C   UNL     1     -10.191  15.080  11.597  1.00  0.00     0.207 A 
HETATM    6  C   UNL     1      -7.587  15.072  11.263  1.00  0.00     0.093 A 
HETATM    7  N   UNL     1      -9.959  15.537  13.742  1.00  0.00    -0.278 N 
ATOM      8  HN  UNL     1     -10.180  15.752  14.715  1.00  0.00     0.189 HD
HETATM    9  N   UNL     1     -10.872  15.293  12.697  1.00  0.00    -0.294 N 
ATOM     10  HN  UNL     1     -11.889  15.284  12.781  1.00  0.00     0.187 HD
HETATM   11  C   UNL     1      -5.976  14.727   9.535  1.00  0.00     0.039 A 
HETATM   12  N   UNL     1      -8.856  15.169  11.863  1.00  0.00    -0.281 N 
HETATM   13  C   UNL     1      -7.309  14.809   9.934  1.00  0.00     0.096 A 
HETATM   14  S   UNL     1      -7.157  15.586  13.817  1.00  0.00    -0.050 SA
ENDROOT
BRANCH  13  15
HETATM   15  O   UNL     1      -8.446  14.615   9.186  1.00  0.00    -0.354 OA
HETATM   16  C   UNL     1      -8.634  13.307   8.637  1.00  0.00     0.210 C 
ENDBRANCH  13  15
TORSDOF 1
ENDMDL
MODEL 4
REMARK VINA RESULT:    -6.791      2.758      4.901
REMARK INTER + INTRA:          -7.288
REMARK INTER:                  -7.224
REMARK INTRA:                  -0.064
REMARK UNBOUND:                -0.100
REMARK  1 active torsions:
REMARK  status: ('A' for Active; 'I' for Inactive)
REMARK    1  A    between atoms: O_14  and  C_15 
ROOT
HETATM    1  C   UNL     1     -10.102  15.357  13.151  1.00  0.00     0.004 A 
HETATM    2  C   UNL     1      -8.780  15.440  13.547  1.00  0.00     0.021 A 
HETATM    3  C   UNL     1      -7.795  15.332  12.581  1.00  0.00     0.038 A 
HETATM    4  C   UNL     1      -5.829  15.158  11.133  1.00  0.00     0.172 A 
HETATM    5  C   UNL     1      -6.596  14.854   9.119  1.00  0.00     0.207 A 
HETATM    6  C   UNL     1      -8.127  15.102  11.238  1.00  0.00     0.093 A 
HETATM    7  N   UNL     1      -4.779  15.054  10.354  1.00  0.00    -0.278 N 
ATOM      8  HN  UNL     1      -3.798  15.096  10.632  1.00  0.00     0.189 HD
HETATM    9  N   UNL     1      -5.286  14.874   9.051  1.00  0.00    -0.294 N 
ATOM     10  HN  UNL     1      -4.731  14.775   8.201  1.00  0.00     0.187 HD
HETATM   11  C   UNL     1     -10.443  15.150  11.812  1.00  0.00     0.039 A 
HETATM   12  N   UNL     1      -6.987  15.015  10.416  1.00  0.00    -0.281 N 
HETATM   13  C   UNL     1      -9.450  15.013  10.845  1.00  0.00     0.096 A 
HETATM   14  S   UNL     1      -6.043  15.388  12.834  1.00  0.00    -0.050 SA
ENDROOT
BRANCH  13  15
HETATM   15  O   UNL     1      -9.586  14.840   9.488  1.00  0.00    -0.354 OA
HETATM   16  C   UNL     1     -10.917  14.648   8.999  1.00  0.00     0.210 C 
ENDBRANCH  13  15
TORSDOF 1
ENDMDL
MODEL 5
REMARK VINA RESULT:    -6.717      2.169      3.952
REMARK INTER + INTRA:          -7.210
REMARK INTER:                  -7.110
REMARK INTRA:                  -0.100
REMARK UNBOUND:                -0.100
REMARK  1 active torsions:
REMARK  status: ('A' for Active; 'I' for Inactive)
REMARK    1  A    between atoms: O_14  and  C_15 
ROOT
HETATM    1  C   UNL     1     -10.598  14.472   9.325  1.00  0.00     0.004 A 
HETATM    2  C   UNL     1      -9.365  14.125   8.806  1.00  0.00     0.021 A 
HETATM    3  C   UNL     1      -8.241  14.322   9.589  1.00  0.00     0.038 A 
HETATM    4  C   UNL     1      -6.075  14.563  10.702  1.00  0.00     0.172 A 
HETATM    5  C   UNL     1      -6.500  15.421  12.657  1.00  0.00     0.207 A 
HETATM    6  C   UNL     1      -8.345  14.896  10.865  1.00  0.00     0.093 A 
HETATM    7  N   UNL     1      -4.915  14.703  11.300  1.00  0.00    -0.278 N 
ATOM      8  HN  UNL     1      -3.996  14.469  10.925  1.00  0.00     0.189 HD
HETATM    9  N   UNL     1      -5.203  15.244  12.569  1.00  0.00    -0.294 N 
ATOM     10  HN  UNL     1      -4.520  15.461  13.295  1.00  0.00     0.187 HD
HETATM   11  C   UNL     1     -10.715  15.025  10.604  1.00  0.00     0.039 A 
HETATM   12  N   UNL     1      -7.094  15.018  11.497  1.00  0.00    -0.281 N 
HETATM   13  C   UNL     1      -9.580  15.247  11.380  1.00  0.00     0.096 A 
HETATM   14  S   UNL     1      -6.561  13.977   9.149  1.00  0.00    -0.050 SA
ENDROOT
BRANCH  13  15
HETATM   15  O   UNL     1      -9.495  15.745  12.659  1.00  0.00    -0.354 OA
HETATM   16  C   UNL     1     -10.217  15.034  13.670  1.00  0.00     0.210 C 
ENDBRANCH  13  15
TORSDOF 1
ENDMDL
MODEL 6
REMARK VINA RESULT:    -6.626      1.975      3.799
REMARK INTER + INTRA:          -7.114
REMARK INTER:                  -7.024
REMARK INTRA:                  -0.090
REMARK UNBOUND:                -0.100
REMARK  1 active torsions:
REMARK  status: ('A' for Active; 'I' for Inactive)
REMARK    1  A    between atoms: O_14  and  C_15 
ROOT
HETATM    1  C   UNL     1     -10.242  15.369  13.191  1.00  0.00     0.004 A 
HETATM    2  C   UNL     1     -10.166  15.089  11.839  1.00  0.00     0.021 A 
HETATM    3  C   UNL     1      -8.916  15.005  11.253  1.00  0.00     0.038 A 
HETATM    4  C   UNL     1      -6.873  14.811   9.920  1.00  0.00     0.172 A 
HETATM    5  C   UNL     1      -5.225  15.163  11.297  1.00  0.00     0.207 A 
HETATM    6  C   UNL     1      -7.753  15.238  12.002  1.00  0.00     0.093 A 
HETATM    7  N   UNL     1      -5.774  14.718   9.208  1.00  0.00    -0.278 N 
ATOM      8  HN  UNL     1      -5.702  14.530   8.208  1.00  0.00     0.189 HD
HETATM    9  N   UNL     1      -4.714  14.932  10.112  1.00  0.00    -0.294 N 
ATOM     10  HN  UNL     1      -3.720  14.910   9.883  1.00  0.00     0.187 HD
HETATM   11  C   UNL     1      -9.088  15.582  13.951  1.00  0.00     0.039 A 
HETATM   12  N   UNL     1      -6.586  15.112  11.225  1.00  0.00    -0.281 N 
HETATM   13  C   UNL     1      -7.831  15.523  13.353  1.00  0.00     0.096 A 
HETATM   14  S   UNL     1      -8.557  14.677   9.550  1.00  0.00    -0.050 SA
ENDROOT
BRANCH  13  15
HETATM   15  O   UNL     1      -6.593  15.669  13.933  1.00  0.00    -0.354 OA
HETATM   16  C   UNL     1      -6.406  16.823  14.758  1.00  0.00     0.210 C 
ENDBRANCH  13  15
TORSDOF 1
ENDMDL
MODEL 7
REMARK VINA RESULT:    -6.298      1.983      3.183
REMARK INTER + INTRA:          -6.766
REMARK INTER:                  -6.665
REMARK INTRA:                  -0.102
REMARK UNBOUND:                -0.100
REMARK  1 active torsions:
REMARK  status: ('A' for Active; 'I' for Inactive)
REMARK    1  A    between atoms: O_14  and  C_15 
ROOT
HETATM    1  C   UNL     1      -6.302  15.378  13.129  1.00  0.00     0.004 A 
HETATM    2  C   UNL     1      -7.630  15.473  13.501  1.00  0.00     0.021 A 
HETATM    3  C   UNL     1      -8.600  15.305  12.529  1.00  0.00     0.038 A 
HETATM    4  C   UNL     1     -10.543  15.083  11.057  1.00  0.00     0.172 A 
HETATM    5  C   UNL     1      -9.745  14.702   9.068  1.00  0.00     0.207 A 
HETATM    6  C   UNL     1      -8.246  15.084  11.190  1.00  0.00     0.093 A 
HETATM    7  N   UNL     1     -11.580  14.971  10.261  1.00  0.00    -0.278 N 
ATOM      8  HN  UNL     1     -12.564  15.056  10.516  1.00  0.00     0.189 HD
HETATM    9  N   UNL     1     -11.053  14.709   8.981  1.00  0.00    -0.294 N 
ATOM     10  HN  UNL     1     -11.596  14.553   8.131  1.00  0.00     0.187 HD
HETATM   11  C   UNL     1      -5.939  15.136  11.801  1.00  0.00     0.039 A 
HETATM   12  N   UNL     1      -9.373  14.946  10.357  1.00  0.00    -0.281 N 
HETATM   13  C   UNL     1      -6.917  14.994  10.819  1.00  0.00     0.096 A 
HETATM   14  S   UNL     1     -10.355  15.397  12.747  1.00  0.00    -0.050 SA
ENDROOT
BRANCH  13  15
HETATM   15  O   UNL     1      -6.760  14.722   9.480  1.00  0.00    -0.354 OA
HETATM   16  C   UNL     1      -6.116  13.487   9.151  1.00  0.00     0.210 C 
ENDBRANCH  13  15
TORSDOF 1
ENDMDL
MODEL 8
REMARK VINA RESULT:    -6.020      5.837      7.546
REMARK INTER + INTRA:          -6.472
REMARK INTER:                  -6.371
REMARK INTRA:                  -0.101
REMARK UNBOUND:                -0.100
REMARK  1 active torsions:
REMARK  status: ('A' for Active; 'I' for Inactive)
REMARK    1  A    between atoms: O_14  and  C_15 
ROOT
HETATM    1  C   UNL     1      -3.717  17.397  18.236  1.00  0.00     0.004 A 
HETATM    2  C   UNL     1      -3.422  16.233  18.922  1.00  0.00     0.021 A 
HETATM    3  C   UNL     1      -4.284  15.159  18.798  1.00  0.00     0.038 A 
HETATM    4  C   UNL     1      -5.608  13.100  18.807  1.00  0.00     0.172 A 
HETATM    5  C   UNL     1      -7.320  13.485  17.520  1.00  0.00     0.207 A 
HETATM    6  C   UNL     1      -5.452  15.259  18.027  1.00  0.00     0.093 A 
HETATM    7  N   UNL     1      -6.327  12.002  18.816  1.00  0.00    -0.278 N 
ATOM      8  HN  UNL     1      -6.132  11.143  19.330  1.00  0.00     0.189 HD
HETATM    9  N   UNL     1      -7.423  12.256  17.968  1.00  0.00    -0.294 N 
ATOM     10  HN  UNL     1      -8.169  11.598  17.741  1.00  0.00     0.187 HD
HETATM   11  C   UNL     1      -4.867  17.499  17.448  1.00  0.00     0.039 A 
HETATM   12  N   UNL     1      -6.197  14.064  18.033  1.00  0.00    -0.281 N 
HETATM   13  C   UNL     1      -5.749  16.425  17.346  1.00  0.00     0.096 A 
HETATM   14  S   UNL     1      -4.137  13.577  19.582  1.00  0.00    -0.050 SA
ENDROOT
BRANCH  13  15
HETATM   15  O   UNL     1      -6.900  16.323  16.603  1.00  0.00    -0.354 OA
HETATM   16  C   UNL     1      -6.765  16.493  15.188  1.00  0.00     0.210 C 
ENDBRANCH  13  15
TORSDOF 1
ENDMDL
MODEL 9
REMARK VINA RESULT:    -5.941      4.996      6.085
REMARK INTER + INTRA:          -6.388
REMARK INTER:                  -6.320
REMARK INTRA:                  -0.069
REMARK UNBOUND:                -0.100
REMARK  1 active torsions:
REMARK  status: ('A' for Active; 'I' for Inactive)
REMARK    1  A    between atoms: O_14  and  C_15 
ROOT
HETATM    1  C   UNL     1      -7.872  16.701  14.598  1.00  0.00     0.004 A 
HETATM    2  C   UNL     1      -8.475  15.470  14.783  1.00  0.00     0.021 A 
HETATM    3  C   UNL     1      -8.043  14.677  15.831  1.00  0.00     0.038 A 
HETATM    4  C   UNL     1      -7.498  13.037  17.564  1.00  0.00     0.172 A 
HETATM    5  C   UNL     1      -5.891  13.919  18.737  1.00  0.00     0.207 A 
HETATM    6  C   UNL     1      -6.991  15.091  16.661  1.00  0.00     0.093 A 
HETATM    7  N   UNL     1      -7.195  12.157  18.490  1.00  0.00    -0.278 N 
ATOM      8  HN  UNL     1      -7.618  11.240  18.630  1.00  0.00     0.189 HD
HETATM    9  N   UNL     1      -6.166  12.745  19.253  1.00  0.00    -0.294 N 
ATOM     10  HN  UNL     1      -5.712  12.328  20.066  1.00  0.00     0.187 HD
HETATM   11  C   UNL     1      -6.838  17.132  15.433  1.00  0.00     0.039 A 
HETATM   12  N   UNL     1      -6.696  14.144  17.660  1.00  0.00    -0.281 N 
HETATM   13  C   UNL     1      -6.386  16.320  16.471  1.00  0.00     0.096 A 
HETATM   14  S   UNL     1      -8.638  13.066  16.264  1.00  0.00    -0.050 SA
ENDROOT
BRANCH  13  15
HETATM   15  O   UNL     1      -5.414  16.580  17.408  1.00  0.00    -0.354 OA
HETATM   16  C   UNL     1      -4.425  17.551  17.050  1.00  0.00     0.210 C 
ENDBRANCH  13  15
TORSDOF 1
ENDMDL
MODEL 10
REMARK VINA RESULT:    -5.782      4.886      5.850
REMARK INTER + INTRA:          -6.220
REMARK INTER:                  -6.145
REMARK INTRA:                  -0.075
REMARK UNBOUND:                -0.100
REMARK  1 active torsions:
REMARK  status: ('A' for Active; 'I' for Inactive)
REMARK    1  A    between atoms: O_14  and  C_15 
ROOT
HETATM    1  C   UNL     1      -6.878  17.257  15.031  1.00  0.00     0.004 A 
HETATM    2  C   UNL     1      -7.782  16.245  14.767  1.00  0.00     0.021 A 
HETATM    3  C   UNL     1      -7.843  15.173  15.640  1.00  0.00     0.038 A 
HETATM    4  C   UNL     1      -8.180  13.143  16.965  1.00  0.00     0.172 A 
HETATM    5  C   UNL     1      -6.779  13.273  18.625  1.00  0.00     0.207 A 
HETATM    6  C   UNL     1      -6.981  15.094  16.744  1.00  0.00     0.093 A 
HETATM    7  N   UNL     1      -8.350  12.051  17.674  1.00  0.00    -0.278 N 
ATOM      8  HN  UNL     1      -8.999  11.288  17.484  1.00  0.00     0.189 HD
HETATM    9  N   UNL     1      -7.450  12.154  18.753  1.00  0.00    -0.294 N 
ATOM     10  HN  UNL     1      -7.339  11.474  19.506  1.00  0.00     0.187 HD
HETATM   11  C   UNL     1      -6.030  17.198  16.140  1.00  0.00     0.039 A 
HETATM   12  N   UNL     1      -7.194  13.927  17.502  1.00  0.00    -0.281 N 
HETATM   13  C   UNL     1      -6.074  16.105  17.002  1.00  0.00     0.096 A 
HETATM   14  S   UNL     1      -8.896  13.754  15.514  1.00  0.00    -0.050 SA
ENDROOT
BRANCH  13  15
HETATM   15  O   UNL     1      -5.352  15.883  18.151  1.00  0.00    -0.354 OA
HETATM   16  C   UNL     1      -4.013  16.390  18.171  1.00  0.00     0.210 C 
ENDBRANCH  13  15
TORSDOF 1
ENDMDL
MODEL 11
REMARK VINA RESULT:    -5.775      5.432      7.116
REMARK INTER + INTRA:          -6.213
REMARK INTER:                  -6.130
REMARK INTRA:                  -0.083
REMARK UNBOUND:                -0.100
REMARK  1 active torsions:
REMARK  status: ('A' for Active; 'I' for Inactive)
REMARK    1  A    between atoms: O_14  and  C_15 
ROOT
HETATM    1  C   UNL     1      -6.153  13.863  19.008  1.00  0.00     0.004 A 
HETATM    2  C   UNL     1      -5.178  14.835  19.134  1.00  0.00     0.021 A 
HETATM    3  C   UNL     1      -5.141  15.854  18.199  1.00  0.00     0.038 A 
HETATM    4  C   UNL     1      -4.792  17.765  16.709  1.00  0.00     0.172 A 
HETATM    5  C   UNL     1      -6.324  17.611  15.171  1.00  0.00     0.207 A 
HETATM    6  C   UNL     1      -6.044  15.880  17.126  1.00  0.00     0.093 A 
HETATM    7  N   UNL     1      -4.604  18.782  15.902  1.00  0.00    -0.278 N 
ATOM      8  HN  UNL     1      -3.880  19.497  15.971  1.00  0.00     0.189 HD
HETATM    9  N   UNL     1      -5.610  18.682  14.920  1.00  0.00    -0.294 N 
ATOM     10  HN  UNL     1      -5.757  19.330  14.147  1.00  0.00     0.187 HD
HETATM   11  C   UNL     1      -7.071  13.891  17.954  1.00  0.00     0.039 A 
HETATM   12  N   UNL     1      -5.838  16.990  16.284  1.00  0.00    -0.281 N 
HETATM   13  C   UNL     1      -7.014  14.903  16.998  1.00  0.00     0.096 A 
HETATM   14  S   UNL     1      -3.989  17.198  18.132  1.00  0.00    -0.050 SA
ENDROOT
BRANCH  13  15
HETATM   15  O   UNL     1      -7.840  15.118  15.921  1.00  0.00    -0.354 OA
HETATM   16  C   UNL     1      -8.200  13.966  15.152  1.00  0.00     0.210 C 
ENDBRANCH  13  15
TORSDOF 1
ENDMDL
MODEL 12
REMARK VINA RESULT:    -5.734      4.668      6.113
REMARK INTER + INTRA:          -6.169
REMARK INTER:                  -6.076
REMARK INTRA:                  -0.093
REMARK UNBOUND:                -0.100
REMARK  1 active torsions:
REMARK  status: ('A' for Active; 'I' for Inactive)
REMARK    1  A    between atoms: O_14  and  C_15 
ROOT
HETATM    1  C   UNL     1      -9.877  14.664  14.688  1.00  0.00     0.004 A 
HETATM    2  C   UNL     1      -8.983  15.585  14.177  1.00  0.00     0.021 A 
HETATM    3  C   UNL     1      -7.853  15.887  14.916  1.00  0.00     0.038 A 
HETATM    4  C   UNL     1      -5.784  16.650  15.979  1.00  0.00     0.172 A 
HETATM    5  C   UNL     1      -5.653  15.580  17.869  1.00  0.00     0.207 A 
HETATM    6  C   UNL     1      -7.638  15.303  16.173  1.00  0.00     0.093 A 
HETATM    7  N   UNL     1      -4.681  17.063  16.558  1.00  0.00    -0.278 N 
ATOM      8  HN  UNL     1      -4.020  17.754  16.202  1.00  0.00     0.189 HD
HETATM    9  N   UNL     1      -4.598  16.353  17.772  1.00  0.00    -0.294 N 
ATOM     10  HN  UNL     1      -3.847  16.427  18.458  1.00  0.00     0.187 HD
HETATM   11  C   UNL     1      -9.662  14.060  15.930  1.00  0.00     0.039 A 
HETATM   12  N   UNL     1      -6.440  15.742  16.767  1.00  0.00    -0.281 N 
HETATM   13  C   UNL     1      -8.537  14.385  16.686  1.00  0.00     0.096 A 
HETATM   14  S   UNL     1      -6.575  17.037  14.490  1.00  0.00    -0.050 SA
ENDROOT
BRANCH  13  15
HETATM   15  O   UNL     1      -8.140  13.879  17.900  1.00  0.00    -0.354 OA
HETATM   16  C   UNL     1      -8.138  12.454  18.029  1.00  0.00     0.210 C 
ENDBRANCH  13  15
TORSDOF 1
ENDMDL
MODEL 13
REMARK VINA RESULT:    -5.708      6.657      7.530
REMARK INTER + INTRA:          -6.143
REMARK INTER:                  -6.081
REMARK INTRA:                  -0.061
REMARK UNBOUND:                -0.100
REMARK  1 active torsions:
REMARK  status: ('A' for Active; 'I' for Inactive)
REMARK    1  A    between atoms: O_14  and  C_15 
ROOT
HETATM    1  C   UNL     1      -4.619  17.995  17.577  1.00  0.00     0.004 A 
HETATM    2  C   UNL     1      -5.716  17.387  16.996  1.00  0.00     0.021 A 
HETATM    3  C   UNL     1      -5.997  16.074  17.333  1.00  0.00     0.038 A 
HETATM    4  C   UNL     1      -6.746  13.773  17.698  1.00  0.00     0.172 A 
HETATM    5  C   UNL     1      -5.341  12.905  19.116  1.00  0.00     0.207 A 
HETATM    6  C   UNL     1      -5.166  15.364  18.212  1.00  0.00     0.093 A 
HETATM    7  N   UNL     1      -7.138  12.535  17.891  1.00  0.00    -0.278 N 
ATOM      8  HN  UNL     1      -7.933  12.066  17.457  1.00  0.00     0.189 HD
HETATM    9  N   UNL     1      -6.232  11.988  18.821  1.00  0.00    -0.294 N 
ATOM     10  HN  UNL     1      -6.263  11.042  19.200  1.00  0.00     0.187 HD
HETATM   11  C   UNL     1      -3.798  17.303  18.471  1.00  0.00     0.039 A 
HETATM   12  N   UNL     1      -5.615  14.046  18.421  1.00  0.00    -0.281 N 
HETATM   13  C   UNL     1      -4.066  15.973  18.788  1.00  0.00     0.096 A 
HETATM   14  S   UNL     1      -7.324  15.075  16.718  1.00  0.00    -0.050 SA
ENDROOT
BRANCH  13  15
HETATM   15  O   UNL     1      -3.401  15.144  19.661  1.00  0.00    -0.354 OA
HETATM   16  C   UNL     1      -3.580  15.410  21.056  1.00  0.00     0.210 C 
ENDBRANCH  13  15
TORSDOF 1
ENDMDL
MODEL 14
REMARK VINA RESULT:    -5.689      4.495      6.220
REMARK INTER + INTRA:          -6.122
REMARK INTER:                  -6.047
REMARK INTRA:                  -0.075
REMARK UNBOUND:                -0.100
REMARK  1 active torsions:
REMARK  status: ('A' for Active; 'I' for Inactive)
REMARK    1  A    between atoms: O_14  and  C_15 
ROOT
HETATM    1  C   UNL     1      -8.506  13.177  16.717  1.00  0.00     0.004 A 
HETATM    2  C   UNL     1      -7.589  13.776  17.561  1.00  0.00     0.021 A 
HETATM    3  C   UNL     1      -6.939  14.917  17.124  1.00  0.00     0.038 A 
HETATM    4  C   UNL     1      -5.613  16.917  16.645  1.00  0.00     0.172 A 
HETATM    5  C   UNL     1      -6.182  17.545  14.640  1.00  0.00     0.207 A 
HETATM    6  C   UNL     1      -7.174  15.431  15.840  1.00  0.00     0.093 A 
HETATM    7  N   UNL     1      -4.898  17.985  16.379  1.00  0.00    -0.278 N 
ATOM      8  HN  UNL     1      -4.206  18.429  16.982  1.00  0.00     0.189 HD
HETATM    9  N   UNL     1      -5.286  18.392  15.086  1.00  0.00    -0.294 N 
ATOM     10  HN  UNL     1      -4.930  19.205  14.584  1.00  0.00     0.187 HD
HETATM   11  C   UNL     1      -8.763  13.694  15.444  1.00  0.00     0.039 A 
HETATM   12  N   UNL     1      -6.413  16.587  15.583  1.00  0.00    -0.281 N 
HETATM   13  C   UNL     1      -8.087  14.827  14.995  1.00  0.00     0.096 A 
HETATM   14  S   UNL     1      -5.719  15.852  18.003  1.00  0.00    -0.050 SA
ENDROOT
BRANCH  13  15
HETATM   15  O   UNL     1      -8.226  15.496  13.803  1.00  0.00    -0.354 OA
HETATM   16  C   UNL     1      -9.515  15.440  13.185  1.00  0.00     0.210 C 
ENDBRANCH  13  15
TORSDOF 1
ENDMDL
MODEL 15
REMARK VINA RESULT:    -5.665      4.870      6.044
REMARK INTER + INTRA:          -6.097
REMARK INTER:                  -5.996
REMARK INTRA:                  -0.100
REMARK UNBOUND:                -0.100
REMARK  1 active torsions:
REMARK  status: ('A' for Active; 'I' for Inactive)
REMARK    1  A    between atoms: O_14  and  C_15 
ROOT
HETATM    1  C   UNL     1      -8.369  13.101  16.874  1.00  0.00     0.004 A 
HETATM    2  C   UNL     1      -8.522  13.858  15.727  1.00  0.00     0.021 A 
HETATM    3  C   UNL     1      -7.722  14.976  15.565  1.00  0.00     0.038 A 
HETATM    4  C   UNL     1      -6.486  17.008  14.991  1.00  0.00     0.172 A 
HETATM    5  C   UNL     1      -5.113  17.359  16.642  1.00  0.00     0.207 A 
HETATM    6  C   UNL     1      -6.806  15.355  16.558  1.00  0.00     0.093 A 
HETATM    7  N   UNL     1      -5.827  18.103  14.692  1.00  0.00    -0.278 N 
ATOM      8  HN  UNL     1      -5.939  18.683  13.860  1.00  0.00     0.189 HD
HETATM    9  N   UNL     1      -4.930  18.312  15.759  1.00  0.00    -0.294 N 
ATOM     10  HN  UNL     1      -4.255  19.074  15.833  1.00  0.00     0.187 HD
HETATM   11  C   UNL     1      -7.444  13.458  17.859  1.00  0.00     0.039 A 
HETATM   12  N   UNL     1      -6.095  16.518  16.209  1.00  0.00    -0.281 N 
HETATM   13  C   UNL     1      -6.659  14.599  17.706  1.00  0.00     0.096 A 
HETATM   14  S   UNL     1      -7.737  16.109  14.205  1.00  0.00    -0.050 SA
ENDROOT
BRANCH  13  15
HETATM   15  O   UNL     1      -5.682  15.089  18.539  1.00  0.00    -0.354 OA
HETATM   16  C   UNL     1      -4.597  14.206  18.842  1.00  0.00     0.210 C 
ENDBRANCH  13  15
TORSDOF 1
ENDMDL
MODEL 16
REMARK VINA RESULT:    -5.658      5.160      6.519
REMARK INTER + INTRA:          -6.089
REMARK INTER:                  -5.990
REMARK INTRA:                  -0.100
REMARK UNBOUND:                -0.100
REMARK  1 active torsions:
REMARK  status: ('A' for Active; 'I' for Inactive)
REMARK    1  A    between atoms: O_14  and  C_15 
ROOT
HETATM    1  C   UNL     1      -6.456  17.604  15.372  1.00  0.00     0.004 A 
HETATM    2  C   UNL     1      -5.832  17.345  16.578  1.00  0.00     0.021 A 
HETATM    3  C   UNL     1      -6.062  16.126  17.190  1.00  0.00     0.038 A 
HETATM    4  C   UNL     1      -6.277  14.090  18.532  1.00  0.00     0.172 A 
HETATM    5  C   UNL     1      -7.636  12.792  17.434  1.00  0.00     0.207 A 
HETATM    6  C   UNL     1      -6.940  15.190  16.623  1.00  0.00     0.093 A 
HETATM    7  N   UNL     1      -6.404  13.000  19.252  1.00  0.00    -0.278 N 
ATOM      8  HN  UNL     1      -5.965  12.801  20.151  1.00  0.00     0.189 HD
HETATM    9  N   UNL     1      -7.272  12.161  18.524  1.00  0.00    -0.294 N 
ATOM     10  HN  UNL     1      -7.567  11.224  18.799  1.00  0.00     0.187 HD
HETATM   11  C   UNL     1      -7.315  16.669  14.787  1.00  0.00     0.039 A 
HETATM   12  N   UNL     1      -7.045  14.020  17.399  1.00  0.00    -0.281 N 
HETATM   13  C   UNL     1      -7.567  15.453  15.419  1.00  0.00     0.096 A 
HETATM   14  S   UNL     1      -5.400  15.566  18.735  1.00  0.00    -0.050 SA
ENDROOT
BRANCH  13  15
HETATM   15  O   UNL     1      -8.346  14.405  14.991  1.00  0.00    -0.354 OA
HETATM   16  C   UNL     1      -9.745  14.668  14.842  1.00  0.00     0.210 C 
ENDBRANCH  13  15
TORSDOF 1
ENDMDL
MODEL 17
REMARK VINA RESULT:    -5.561      5.148      6.518
REMARK INTER + INTRA:          -5.986
REMARK INTER:                  -5.908
REMARK INTRA:                  -0.078
REMARK UNBOUND:                -0.100
REMARK  1 active torsions:
REMARK  status: ('A' for Active; 'I' for Inactive)
REMARK    1  A    between atoms: O_14  and  C_15 
ROOT
HETATM    1  C   UNL     1      -6.548  16.756  15.666  1.00  0.00     0.004 A 
HETATM    2  C   UNL     1      -6.183  16.247  16.899  1.00  0.00     0.021 A 
HETATM    3  C   UNL     1      -7.090  15.454  17.579  1.00  0.00     0.038 A 
HETATM    4  C   UNL     1      -8.462  14.045  19.036  1.00  0.00     0.172 A 
HETATM    5  C   UNL     1     -10.350  13.765  17.989  1.00  0.00     0.207 A 
HETATM    6  C   UNL     1      -8.365  15.204  17.050  1.00  0.00     0.093 A 
HETATM    7  N   UNL     1      -9.207  13.298  19.817  1.00  0.00    -0.278 N 
ATOM      8  HN  UNL     1      -8.959  12.930  20.735  1.00  0.00     0.189 HD
HETATM    9  N   UNL     1     -10.419  13.110  19.124  1.00  0.00    -0.294 N 
ATOM     10  HN  UNL     1     -11.214  12.559  19.448  1.00  0.00     0.187 HD
HETATM   11  C   UNL     1      -7.809  16.495  15.121  1.00  0.00     0.039 A 
HETATM   12  N   UNL     1      -9.139  14.384  17.893  1.00  0.00    -0.281 N 
HETATM   13  C   UNL     1      -8.730  15.719  15.820  1.00  0.00     0.096 A 
HETATM   14  S   UNL     1      -6.868  14.703  19.168  1.00  0.00    -0.050 SA
ENDROOT
BRANCH  13  15
HETATM   15  O   UNL     1      -9.992  15.328  15.439  1.00  0.00    -0.354 OA
HETATM   16  C   UNL     1     -10.194  15.095  14.042  1.00  0.00     0.210 C 
ENDBRANCH  13  15
TORSDOF 1
ENDMDL
MODEL 18
REMARK VINA RESULT:    -5.551      5.460      6.595
REMARK INTER + INTRA:          -5.976
REMARK INTER:                  -5.904
REMARK INTRA:                  -0.071
REMARK UNBOUND:                -0.100
REMARK  1 active torsions:
REMARK  status: ('A' for Active; 'I' for Inactive)
REMARK    1  A    between atoms: O_14  and  C_15 
ROOT
HETATM    1  C   UNL     1      -4.478  13.098  19.268  1.00  0.00     0.004 A 
HETATM    2  C   UNL     1      -5.588  12.528  18.672  1.00  0.00     0.021 A 
HETATM    3  C   UNL     1      -6.431  13.343  17.937  1.00  0.00     0.038 A 
HETATM    4  C   UNL     1      -8.120  14.504  16.599  1.00  0.00     0.172 A 
HETATM    5  C   UNL     1      -7.507  16.591  16.545  1.00  0.00     0.207 A 
HETATM    6  C   UNL     1      -6.190  14.720  17.832  1.00  0.00     0.093 A 
HETATM    7  N   UNL     1      -9.027  15.134  15.890  1.00  0.00    -0.278 N 
ATOM      8  HN  UNL     1      -9.860  14.732  15.459  1.00  0.00     0.189 HD
HETATM    9  N   UNL     1      -8.612  16.480  15.848  1.00  0.00    -0.294 N 
ATOM     10  HN  UNL     1      -9.090  17.238  15.360  1.00  0.00     0.187 HD
HETATM   11  C   UNL     1      -4.217  14.466  19.152  1.00  0.00     0.039 A 
HETATM   12  N   UNL     1      -7.162  15.373  17.051  1.00  0.00    -0.281 N 
HETATM   13  C   UNL     1      -5.082  15.289  18.434  1.00  0.00     0.096 A 
HETATM   14  S   UNL     1      -7.914  12.861  17.097  1.00  0.00    -0.050 SA
ENDROOT
BRANCH  13  15
HETATM   15  O   UNL     1      -4.978  16.636  18.182  1.00  0.00    -0.354 OA
HETATM   16  C   UNL     1      -3.661  17.195  18.227  1.00  0.00     0.210 C 
ENDBRANCH  13  15
TORSDOF 1
ENDMDL
MODEL 19
REMARK VINA RESULT:    -5.542      5.670      7.231
REMARK INTER + INTRA:          -5.967
REMARK INTER:                  -5.873
REMARK INTRA:                  -0.093
REMARK UNBOUND:                -0.100
REMARK  1 active torsions:
REMARK  status: ('A' for Active; 'I' for Inactive)
REMARK    1  A    between atoms: O_14  and  C_15 
ROOT
HETATM    1  C   UNL     1      -4.266  13.160  19.528  1.00  0.00     0.004 A 
HETATM    2  C   UNL     1      -4.069  14.512  19.317  1.00  0.00     0.021 A 
HETATM    3  C   UNL     1      -4.977  15.194  18.525  1.00  0.00     0.038 A 
HETATM    4  C   UNL     1      -6.376  16.673  17.167  1.00  0.00     0.172 A 
HETATM    5  C   UNL     1      -7.975  15.425  16.379  1.00  0.00     0.207 A 
HETATM    6  C   UNL     1      -6.048  14.523  17.917  1.00  0.00     0.093 A 
HETATM    7  N   UNL     1      -7.125  17.459  16.430  1.00  0.00    -0.278 N 
ATOM      8  HN  UNL     1      -6.984  18.453  16.251  1.00  0.00     0.189 HD
HETATM    9  N   UNL     1      -8.165  16.645  15.938  1.00  0.00    -0.294 N 
ATOM     10  HN  UNL     1      -8.933  16.952  15.341  1.00  0.00     0.187 HD
HETATM   11  C   UNL     1      -5.343  12.486  18.943  1.00  0.00     0.039 A 
HETATM   12  N   UNL     1      -6.850  15.388  17.149  1.00  0.00    -0.281 N 
HETATM   13  C   UNL     1      -6.239  13.169  18.124  1.00  0.00     0.096 A 
HETATM   14  S   UNL     1      -4.936  16.912  18.094  1.00  0.00    -0.050 SA
ENDROOT
BRANCH  13  15
HETATM   15  O   UNL     1      -7.365  12.694  17.495  1.00  0.00    -0.354 OA
HETATM   16  C   UNL     1      -8.453  12.304  18.339  1.00  0.00     0.210 C 
ENDBRANCH  13  15
TORSDOF 1
ENDMDL
MODEL 20
REMARK VINA RESULT:    -5.462      6.876      7.889
REMARK INTER + INTRA:          -5.882
REMARK INTER:                  -5.783
REMARK INTRA:                  -0.099
REMARK UNBOUND:                -0.100
REMARK  1 active torsions:
REMARK  status: ('A' for Active; 'I' for Inactive)
REMARK    1  A    between atoms: O_14  and  C_15 
ROOT
HETATM    1  C   UNL     1      -6.994  12.770  17.758  1.00  0.00     0.004 A 
HETATM    2  C   UNL     1      -7.401  13.975  17.216  1.00  0.00     0.021 A 
HETATM    3  C   UNL     1      -6.608  15.090  17.421  1.00  0.00     0.038 A 
HETATM    4  C   UNL     1      -5.451  17.238  17.619  1.00  0.00     0.172 A 
HETATM    5  C   UNL     1      -3.670  16.850  18.808  1.00  0.00     0.207 A 
HETATM    6  C   UNL     1      -5.441  15.010  18.194  1.00  0.00     0.093 A 
HETATM    7  N   UNL     1      -4.831  18.389  17.737  1.00  0.00    -0.278 N 
ATOM      8  HN  UNL     1      -5.127  19.289  17.358  1.00  0.00     0.189 HD
HETATM    9  N   UNL     1      -3.673  18.123  18.494  1.00  0.00    -0.294 N 
ATOM     10  HN  UNL     1      -2.959  18.804  18.753  1.00  0.00     0.187 HD
HETATM   11  C   UNL     1      -5.821  12.675  18.512  1.00  0.00     0.039 A 
HETATM   12  N   UNL     1      -4.780  16.250  18.290  1.00  0.00    -0.281 N 
HETATM   13  C   UNL     1      -5.039  13.805  18.741  1.00  0.00     0.096 A 
HETATM   14  S   UNL     1      -6.917  16.738  16.849  1.00  0.00    -0.050 SA
ENDROOT
BRANCH  13  15
HETATM   15  O   UNL     1      -3.848  13.905  19.420  1.00  0.00    -0.354 OA
HETATM   16  C   UNL     1      -3.871  13.549  20.806  1.00  0.00     0.210 C 
ENDBRANCH  13  15
TORSDOF 1
ENDMDL
