REMARK  8 active torsions:
REMARK  status: ('A' for Active; 'I' for Inactive)
REMARK    1  A    between atoms: C_5  and  C_8 
REMARK    2  A    between atoms: C_8  and  N_24 
REMARK    3  A    between atoms: C_10  and  C_34 
REMARK    4  A    between atoms: C_13  and  C_30 
REMARK    5  A    between atoms: C_14  and  O_31 
REMARK    6  A    between atoms: C_18  and  C_25 
REMARK    7  A    between atoms: C_30  and  C_32 
REMARK    8  A    between atoms: C_30  and  O_31 
ROOT
HETATM    1  C   UNL     1      -8.469  11.752  -2.312  1.00  0.00     0.091 A 
HETATM    2  C   UNL     1      -8.862  10.953  -4.915  1.00  0.00     0.081 A 
HETATM    3  C   UNL     1      -9.364  12.187  -4.542  1.00  0.00     0.065 A 
HETATM    4  C   UNL     1      -9.155  12.610  -3.211  1.00  0.00     0.065 A 
HETATM    5  C   UNL     1      -9.073  13.621  -1.303  1.00  0.00     0.115 A 
HETATM    6  N   UNL     1      -8.436  12.425  -1.098  1.00  0.00    -0.326 N 
HETATM    7  C   UNL     1      -7.998  10.514  -2.802  1.00  0.00     0.074 A 
HETATM    8  N   UNL     1      -8.187  10.198  -4.065  1.00  0.00    -0.350 N 
ATOM      9  HN  UNL     1      -7.791   9.323  -4.407  1.00  0.00     0.166 HD
HETATM   10  N   UNL     1      -9.503  13.728  -2.536  1.00  0.00    -0.342 N 
ATOM     11  HN  UNL     1     -10.014  14.522  -2.922  1.00  0.00     0.167 HD
ENDROOT
BRANCH   6  12
HETATM   12  C   UNL     1      -7.787  11.940   0.144  1.00  0.00     0.091 C 
HETATM   13  C   UNL     1      -8.843  11.877   1.300  1.00  0.00     0.033 C 
BRANCH  12  14
HETATM   14  C   UNL     1      -6.506  12.728   0.463  1.00  0.00     0.009 C 
HETATM   15  C   UNL     1      -5.583  12.912  -0.765  1.00  0.00     0.007 C 
HETATM   16  C   UNL     1      -4.184  13.461  -0.402  1.00  0.00     0.005 C 
HETATM   17  C   UNL     1      -3.466  12.688   0.686  1.00  0.00    -0.019 C 
HETATM   18  C   UNL     1      -4.421  12.709   1.880  1.00  0.00     0.005 C 
HETATM   19  C   UNL     1      -2.131  13.306   1.131  1.00  0.00     0.010 C 
HETATM   20  C   UNL     1      -5.685  11.968   1.517  1.00  0.00     0.007 C 
ENDBRANCH  12  14
ENDBRANCH   6  12
BRANCH   5  21
HETATM   21  C   UNL     1      -9.262  14.686  -0.252  1.00  0.00     0.193 C 
BRANCH  21  22
HETATM   22  C   UNL     1      -8.843  16.011  -0.883  1.00  0.00     0.022 A 
HETATM   23  C   UNL     1      -8.267  17.117   0.023  1.00  0.00     0.008 A 
HETATM   24  C   UNL     1      -7.340  16.328  -0.905  1.00  0.00     0.008 A 
ENDBRANCH  21  22
BRANCH  21  25
HETATM   25  O   UNL     1     -10.634  14.619   0.176  1.00  0.00    -0.378 OA
BRANCH  25  26
HETATM   26  C   UNL     1     -10.929  15.492   1.302  1.00  0.00     0.164 C 
HETATM   27  C   UNL     1     -12.201  15.091   2.055  1.00  0.00     0.033 C 
ENDBRANCH  25  26
ENDBRANCH  21  25
ENDBRANCH   5  21
BRANCH   7  28
HETATM   28  C   UNL     1      -7.258   9.512  -2.029  1.00  0.00     0.010 A 
HETATM   29  C   UNL     1      -5.916   9.281  -2.317  1.00  0.00     0.040 A 
HETATM   30  C   UNL     1      -5.270   8.302  -1.577  1.00  0.00     0.050 A 
HETATM   31 CL   UNL     1      -3.625   7.976  -1.866  1.00  0.00    -0.083 Cl
HETATM   32  C   UNL     1      -5.930   7.626  -0.552  1.00  0.00     0.111 A 
HETATM   33  N   UNL     1      -7.208   7.849  -0.324  1.00  0.00    -0.373 N 
HETATM   34  C   UNL     1      -7.891   8.755  -1.017  1.00  0.00     0.101 A 
ATOM     35  HN  UNL     1      -7.685   7.314   0.402  1.00  0.00     0.164 HD
ENDBRANCH   7  28
BRANCH   2  36
HETATM   36  C   UNL     1      -8.972  10.467  -6.297  1.00  0.00     0.157 A 
HETATM   37  N   UNL     1      -9.617  11.096  -7.336  1.00  0.00    -0.284 N 
HETATM   38  C   UNL     1      -9.363  10.301  -8.411  1.00  0.00     0.388 A 
ATOM     39  HN  UNL     1     -10.160  11.959  -7.308  1.00  0.00     0.172 HD
HETATM   40  O   UNL     1      -9.738  10.501  -9.555  1.00  0.00    -0.236 OA
HETATM   41  O   UNL     1      -8.610   9.269  -7.974  1.00  0.00    -0.179 OA
HETATM   42  N   UNL     1      -8.384   9.412  -6.782  1.00  0.00    -0.238 N 
ATOM     43  HN  UNL     1      -7.803   8.779  -6.232  1.00  0.00     0.197 HD
ENDBRANCH   2  36
TORSDOF 8
