MODEL 1
REMARK VINA RESULT:    -3.949      0.000      0.000
REMARK INTER + INTRA:          -4.420
REMARK INTER:                  -4.411
REMARK INTRA:                  -0.009
REMARK UNBOUND:                -0.009
REMARK  2 active torsions:
REMARK  status: ('A' for Active; 'I' for Inactive)
REMARK    1  A    between atoms: C_1  and  C_2 
REMARK    2  A    between atoms: C_2  and  S_4 
ROOT
HETATM    1  S   UNL     1      27.197  31.887  -7.776  1.00  0.00     0.102 S 
HETATM    2  O   UNL     1      26.580  31.373  -9.034  1.00  0.00    -0.595 OA
HETATM    3  O   UNL     1      26.984  30.900  -6.635  1.00  0.00    -0.595 OA
HETATM    4  O   UNL     1      28.674  32.083  -7.951  1.00  0.00    -0.595 OA
ENDROOT
BRANCH   1   5
HETATM    5  C   UNL     1      26.417  33.447  -7.326  1.00  0.00     0.176 C 
BRANCH   5   6
HETATM    6  C   UNL     1      26.269  33.573  -5.805  1.00  0.00     0.104 C 
HETATM    7  S   UNL     1      25.509  35.140  -5.346  1.00  0.00    -0.097 SA
ENDBRANCH   5   6
ENDBRANCH   1   5
TORSDOF 2
ENDMDL
MODEL 2
REMARK VINA RESULT:    -3.323      2.764      3.841
REMARK INTER + INTRA:          -3.721
REMARK INTER:                  -3.701
REMARK INTRA:                  -0.020
REMARK UNBOUND:                -0.009
REMARK  2 active torsions:
REMARK  status: ('A' for Active; 'I' for Inactive)
REMARK    1  A    between atoms: C_1  and  C_2 
REMARK    2  A    between atoms: C_2  and  S_4 
ROOT
HETATM    1  S   UNL     1      25.900  33.918  -5.766  1.00  0.00     0.102 S 
HETATM    2  O   UNL     1      24.666  33.079  -5.800  1.00  0.00    -0.595 OA
HETATM    3  O   UNL     1      25.547  35.392  -5.907  1.00  0.00    -0.595 OA
HETATM    4  O   UNL     1      26.629  33.737  -4.467  1.00  0.00    -0.595 OA
ENDROOT
BRANCH   1   5
HETATM    5  C   UNL     1      26.969  33.459  -7.141  1.00  0.00     0.176 C 
BRANCH   5   6
HETATM    6  C   UNL     1      26.958  31.943  -7.368  1.00  0.00     0.104 C 
HETATM    7  S   UNL     1      26.740  31.539  -9.109  1.00  0.00    -0.097 SA
ENDBRANCH   5   6
ENDBRANCH   1   5
TORSDOF 2
ENDMDL
MODEL 3
REMARK VINA RESULT:    -3.213      2.069      2.754
REMARK INTER + INTRA:          -3.598
REMARK INTER:                  -3.589
REMARK INTRA:                  -0.008
REMARK UNBOUND:                -0.009
REMARK  2 active torsions:
REMARK  status: ('A' for Active; 'I' for Inactive)
REMARK    1  A    between atoms: C_1  and  C_2 
REMARK    2  A    between atoms: C_2  and  S_4 
ROOT
HETATM    1  S   UNL     1      26.964  31.366  -9.713  1.00  0.00     0.102 S 
HETATM    2  O   UNL     1      28.387  31.034  -9.409  1.00  0.00    -0.595 OA
HETATM    3  O   UNL     1      26.857  32.068 -11.060  1.00  0.00    -0.595 OA
HETATM    4  O   UNL     1      26.128  30.121  -9.769  1.00  0.00    -0.595 OA
ENDROOT
BRANCH   1   5
HETATM    5  C   UNL     1      26.330  32.478  -8.445  1.00  0.00     0.176 C 
BRANCH   5   6
HETATM    6  C   UNL     1      27.027  32.239  -7.101  1.00  0.00     0.104 C 
HETATM    7  S   UNL     1      26.215  33.140  -5.770  1.00  0.00    -0.097 SA
ENDBRANCH   5   6
ENDBRANCH   1   5
TORSDOF 2
ENDMDL
MODEL 4
REMARK VINA RESULT:    -1.754      2.420      3.964
REMARK INTER + INTRA:          -1.968
REMARK INTER:                  -1.954
REMARK INTRA:                  -0.014
REMARK UNBOUND:                -0.009
REMARK  2 active torsions:
REMARK  status: ('A' for Active; 'I' for Inactive)
REMARK    1  A    between atoms: C_1  and  C_2 
REMARK    2  A    between atoms: C_2  and  S_4 
ROOT
HETATM    1  S   UNL     1      27.204  32.210  -7.598  1.00  0.00     0.102 S 
HETATM    2  O   UNL     1      26.882  33.516  -6.952  1.00  0.00    -0.595 OA
HETATM    3  O   UNL     1      28.690  32.126  -7.921  1.00  0.00    -0.595 OA
HETATM    4  O   UNL     1      26.861  31.068  -6.686  1.00  0.00    -0.595 OA
ENDROOT
BRANCH   1   5
HETATM    5  C   UNL     1      26.283  32.066  -9.139  1.00  0.00     0.176 C 
BRANCH   5   6
HETATM    6  C   UNL     1      27.130  31.400 -10.230  1.00  0.00     0.104 C 
HETATM    7  S   UNL     1      26.265  30.010 -10.979  1.00  0.00    -0.097 SA
ENDBRANCH   5   6
ENDBRANCH   1   5
TORSDOF 2
ENDMDL
MODEL 5
REMARK VINA RESULT:    -1.590     10.480     11.083
REMARK INTER + INTRA:          -1.785
REMARK INTER:                  -1.763
REMARK INTRA:                  -0.022
REMARK UNBOUND:                -0.009
REMARK  2 active torsions:
REMARK  status: ('A' for Active; 'I' for Inactive)
REMARK    1  A    between atoms: C_1  and  C_2 
REMARK    2  A    between atoms: C_2  and  S_4 
ROOT
HETATM    1  S   UNL     1      16.680  31.380  -2.797  1.00  0.00     0.102 S 
HETATM    2  O   UNL     1      15.339  30.849  -3.181  1.00  0.00    -0.595 OA
HETATM    3  O   UNL     1      16.877  31.291  -1.290  1.00  0.00    -0.595 OA
HETATM    4  O   UNL     1      17.772  30.591  -3.457  1.00  0.00    -0.595 OA
ENDROOT
BRANCH   1   5
HETATM    5  C   UNL     1      16.793  33.112  -3.279  1.00  0.00     0.176 C 
BRANCH   5   6
HETATM    6  C   UNL     1      17.526  33.936  -2.215  1.00  0.00     0.104 C 
HETATM    7  S   UNL     1      16.585  35.401  -1.754  1.00  0.00    -0.097 SA
ENDBRANCH   5   6
ENDBRANCH   1   5
TORSDOF 2
ENDMDL
MODEL 6
REMARK VINA RESULT:    -1.577     10.465     11.183
REMARK INTER + INTRA:          -1.770
REMARK INTER:                  -1.740
REMARK INTRA:                  -0.030
REMARK UNBOUND:                -0.009
REMARK  2 active torsions:
REMARK  status: ('A' for Active; 'I' for Inactive)
REMARK    1  A    between atoms: C_1  and  C_2 
REMARK    2  A    between atoms: C_2  and  S_4 
ROOT
HETATM    1  S   UNL     1      16.684  31.415  -2.795  1.00  0.00     0.102 S 
HETATM    2  O   UNL     1      16.812  31.366  -1.309  1.00  0.00    -0.595 OA
HETATM    3  O   UNL     1      17.772  30.577  -3.452  1.00  0.00    -0.595 OA
HETATM    4  O   UNL     1      15.353  30.873  -3.230  1.00  0.00    -0.595 OA
ENDROOT
BRANCH   1   5
HETATM    5  C   UNL     1      16.868  33.118  -3.352  1.00  0.00     0.176 C 
BRANCH   5   6
HETATM    6  C   UNL     1      17.575  33.972  -2.294  1.00  0.00     0.104 C 
HETATM    7  S   UNL     1      16.541  35.347  -1.761  1.00  0.00    -0.097 SA
ENDBRANCH   5   6
ENDBRANCH   1   5
TORSDOF 2
ENDMDL
MODEL 7
REMARK VINA RESULT:    -0.983      2.529      3.320
REMARK INTER + INTRA:          -1.107
REMARK INTER:                  -1.080
REMARK INTRA:                  -0.027
REMARK UNBOUND:                -0.009
REMARK  2 active torsions:
REMARK  status: ('A' for Active; 'I' for Inactive)
REMARK    1  A    between atoms: C_1  and  C_2 
REMARK    2  A    between atoms: C_2  and  S_4 
ROOT
HETATM    1  S   UNL     1      26.173  33.548  -5.681  1.00  0.00     0.102 S 
HETATM    2  O   UNL     1      26.803  33.654  -4.331  1.00  0.00    -0.595 OA
HETATM    3  O   UNL     1      27.148  32.935  -6.678  1.00  0.00    -0.595 OA
HETATM    4  O   UNL     1      24.952  32.678  -5.629  1.00  0.00    -0.595 OA
ENDROOT
BRANCH   1   5
HETATM    5  C   UNL     1      25.733  35.195  -6.262  1.00  0.00     0.176 C 
BRANCH   5   6
HETATM    6  C   UNL     1      24.954  35.969  -5.193  1.00  0.00     0.104 C 
HETATM    7  S   UNL     1      26.011  37.146  -4.332  1.00  0.00    -0.097 SA
ENDBRANCH   5   6
ENDBRANCH   1   5
TORSDOF 2
ENDMDL
