REMARK  8 active torsions:
REMARK  status: ('A' for Active; 'I' for Inactive)
REMARK    1  A    between atoms: C_11  and  C_13 
REMARK    2  A    between atoms: C_13  and  N_14 
REMARK    3  A    between atoms: C_17  and  C_20 
REMARK    4  A    between atoms: C_20  and  C_21 
REMARK    5  A    between atoms: C_21  and  O_22 
REMARK    6  A    between atoms: O_22  and  P_23 
REMARK    7  A    between atoms: P_23  and  O_26 
REMARK    8  A    between atoms: O_26  and  P_27 
ROOT
HETATM    1  N   UNL     1       3.192   9.463 -20.782  1.00  0.00    -0.349 N 
HETATM    2  C   UNL     1       2.589  10.649 -20.916  1.00  0.00     0.141 A 
HETATM    3  S   UNL     1       1.013  10.656 -20.250  1.00  0.00    -0.087 SA
HETATM    4  C   UNL     1       1.108   8.950 -19.968  1.00  0.00     0.008 A 
HETATM    5  C   UNL     1       2.351   8.473 -20.268  1.00  0.00     0.021 A 
HETATM    6  C   UNL     1       2.808   7.053 -20.156  1.00  0.00     0.069 C 
ENDROOT
BRANCH   1   7
HETATM    7  C   UNL     1       4.583   9.222 -21.254  1.00  0.00     0.172 C 
BRANCH   7   8
HETATM    8  C   UNL     1       5.640   9.148 -20.145  1.00  0.00     0.019 A 
HETATM    9  C   UNL     1       6.260   7.966 -19.794  1.00  0.00     0.102 A 
HETATM   10  N   UNL     1       7.202   7.880 -18.837  1.00  0.00    -0.355 N 
HETATM   11  C   UNL     1       7.592   9.021 -18.240  1.00  0.00     0.078 A 
ATOM     12  HN  UNL     1       7.606   6.981 -18.573  1.00  0.00     0.166 HD
HETATM   13  N   UNL     1       7.081  10.225 -18.513  1.00  0.00    -0.332 N 
HETATM   14  C   UNL     1       8.622   8.944 -17.156  1.00  0.00     0.089 C 
HETATM   15  C   UNL     1       6.145  10.298 -19.489  1.00  0.00     0.109 A 
ATOM     16  HN  UNL     1       7.384  11.057 -18.006  1.00  0.00     0.168 HD
HETATM   17  N   UNL     1       5.682  11.525 -19.788  1.00  0.00    -0.385 N 
ATOM     18  HN2 UNL     1       4.977  11.580 -20.523  1.00  0.00     0.157 HD
ATOM     19  HN1 UNL     1       6.046  12.353 -19.316  1.00  0.00     0.157 HD
ENDBRANCH   7   8
ENDBRANCH   1   7
BRANCH   4  20
HETATM   20  C   UNL     1      -0.095   8.163 -19.505  1.00  0.00     0.075 C 
BRANCH  20  21
HETATM   21  C   UNL     1      -1.231   8.942 -18.863  1.00  0.00     0.186 C 
BRANCH  21  22
HETATM   22  O   UNL     1      -0.778   9.506 -17.615  1.00  0.00    -0.289 OA
BRANCH  22  23
HETATM   23  P   UNL     1      -1.703  10.447 -16.702  1.00  0.00     0.418 P 
HETATM   24  O   UNL     1      -2.870   9.667 -16.185  1.00  0.00    -0.624 OA
HETATM   25  O   UNL     1      -0.737  10.991 -15.697  1.00  0.00    -0.624 OA
BRANCH  23  26
HETATM   26  O   UNL     1      -2.170  11.605 -17.707  1.00  0.00    -0.173 OA
BRANCH  26  27
HETATM   27  P   UNL     1      -3.555  11.813 -18.575  1.00  0.00     0.431 P 
HETATM   28  O   UNL     1      -4.231  13.016 -17.920  1.00  0.00    -0.616 OA
HETATM   29  O   UNL     1      -4.331  10.503 -18.391  1.00  0.00    -0.616 OA
HETATM   30  O   UNL     1      -3.138  12.046 -19.979  1.00  0.00    -0.616 OA
ENDBRANCH  26  27
ENDBRANCH  23  26
ENDBRANCH  22  23
ENDBRANCH  21  22
ENDBRANCH  20  21
ENDBRANCH   4  20
TORSDOF 8
