REMARK  3 active torsions:
REMARK  status: ('A' for Active; 'I' for Inactive)
REMARK    1  A    between atoms: C_10  and  O_23 
REMARK    2  A    between atoms: C_12  and  N_18 
REMARK    3  A    between atoms: C_13  and  N_18 
ROOT
HETATM    1  N   UNL     1       6.469  -0.537   2.349  1.00  0.00    -0.354 N 
ATOM      2  HN  UNL     1       7.311  -0.341   2.890  1.00  0.00     0.166 HD
ENDROOT
BRANCH   1   3
HETATM    3  C   UNL     1       6.636  -0.713   0.928  1.00  0.00     0.033 A 
HETATM    4  C   UNL     1       6.528  -1.945   0.378  1.00  0.00     0.030 A 
HETATM    5  C   UNL     1       6.730  -2.117  -0.975  1.00  0.00     0.010 A 
HETATM    6  C   UNL     1       7.037  -0.993  -1.803  1.00  0.00    -0.049 A 
HETATM    7  C   UNL     1       7.216  -1.231  -3.262  1.00  0.00     0.066 C 
HETATM    8  C   UNL     1       7.127   0.206  -1.266  1.00  0.00    -0.024 A 
HETATM    9  C   UNL     1       7.167   0.038  -4.092  1.00  0.00     0.237 C 
HETATM   10  N   UNL     1       7.938   1.135  -3.488  1.00  0.00    -0.071 N 
HETATM   11  C   UNL     1       7.466   1.472  -2.108  1.00  0.00     0.271 C 
ATOM     12  HN2 UNL     1       8.937   0.929  -3.495  1.00  0.00     0.277 HD
ATOM     13  HN1 UNL     1       7.937   1.959  -4.089  1.00  0.00     0.277 HD
HETATM   14  C   UNL     1       6.943   0.380   0.143  1.00  0.00     0.038 A 
ENDBRANCH   1   3
BRANCH   1  15
HETATM   15  C   UNL     1       5.234  -0.611   3.077  1.00  0.00     0.076 A 
HETATM   16  C   UNL     1       5.254  -0.247   4.432  1.00  0.00     0.114 A 
HETATM   17 CL   UNL     1       6.777   0.235   5.209  1.00  0.00    -0.077 Cl
HETATM   18  C   UNL     1       4.053  -0.284   5.131  1.00  0.00     0.181 A 
HETATM   19  N   UNL     1       2.951  -0.667   4.543  1.00  0.00    -0.275 N 
HETATM   20  C   UNL     1       1.703  -0.695   5.301  1.00  0.00     0.180 C 
HETATM   21  N   UNL     1       2.954  -1.005   3.250  1.00  0.00    -0.306 N 
HETATM   22  C   UNL     1       4.029  -0.980   2.496  1.00  0.00     0.138 A 
ATOM     23  HN  UNL     1       2.074  -1.298   2.826  1.00  0.00     0.186 HD
BRANCH  18  24
HETATM   24  O   UNL     1       4.034   0.054   6.466  1.00  0.00    -0.344 OA
ATOM     25  HO  UNL     1       3.213   0.029   6.944  1.00  0.00     0.219 HD
ENDBRANCH  18  24
ENDBRANCH   1  15
TORSDOF 3
