MODEL 1
REMARK VINA RESULT:   -10.280      0.000      0.000
REMARK INTER + INTRA:         -15.349
REMARK INTER:                 -14.487
REMARK INTRA:                  -0.862
REMARK UNBOUND:                -0.862
REMARK  8 active torsions:
REMARK  status: ('A' for Active; 'I' for Inactive)
REMARK    1  A    between atoms: P_2  and  O_5 
REMARK    2  A    between atoms: O_5  and  P_6 
REMARK    3  A    between atoms: P_6  and  O_9 
REMARK    4  A    between atoms: O_9  and  C_10 
REMARK    5  A    between atoms: C_10  and  C_11 
REMARK    6  A    between atoms: C_13  and  O_14 
REMARK    7  A    between atoms: C_16  and  O_17 
REMARK    8  A    between atoms: C_19  and  N_20 
ROOT
HETATM    1  C   UNL     1      11.552  20.264  28.580  1.00  0.00     0.180 C 
HETATM    2  O   UNL     1      11.228  19.453  29.795  1.00  0.00    -0.354 OA
HETATM    3  C   UNL     1      12.653  19.386  27.820  1.00  0.00     0.182 C 
HETATM    4  C   UNL     1      12.528  18.201  28.282  1.00  0.00     0.198 C 
HETATM    5  C   UNL     1      12.128  18.496  29.843  1.00  0.00     0.259 C 
ENDROOT
BRANCH   1   6
HETATM    6  C   UNL     1      10.381  20.453  27.835  1.00  0.00     0.216 C 
BRANCH   6   7
HETATM    7  O   UNL     1      10.181  21.822  27.633  1.00  0.00    -0.287 OA
BRANCH   7   8
HETATM    8  P   UNL     1       8.638  22.412  27.696  1.00  0.00     0.418 P 
HETATM    9  O   UNL     1       7.776  21.473  28.474  1.00  0.00    -0.624 OA
HETATM   10  O   UNL     1       8.189  22.549  26.281  1.00  0.00    -0.624 OA
BRANCH   8  11
HETATM   11  O   UNL     1       8.670  23.788  28.548  1.00  0.00    -0.173 OA
BRANCH  11  12
HETATM   12  P   UNL     1       9.280  24.070  30.029  1.00  0.00     0.431 P 
HETATM   13  O   UNL     1       8.537  25.246  30.626  1.00  0.00    -0.616 OA
HETATM   14  O   UNL     1       9.293  22.894  30.932  1.00  0.00    -0.616 OA
HETATM   15  O   UNL     1      10.711  24.527  29.797  1.00  0.00    -0.616 OA
ENDBRANCH  11  12
ENDBRANCH   8  11
ENDBRANCH   7   8
ENDBRANCH   6   7
ENDBRANCH   1   6
BRANCH   3  16
HETATM   16  O   UNL     1      13.994  20.008  28.117  1.00  0.00    -0.390 OA
ATOM     17  HO  UNL     1      14.719  19.399  28.041  1.00  0.00     0.210 HD
ENDBRANCH   3  16
BRANCH   4  18
HETATM   18  O   UNL     1      13.784  17.416  28.296  1.00  0.00    -0.388 OA
ATOM     19  HO  UNL     1      14.422  17.920  28.786  1.00  0.00     0.210 HD
ENDBRANCH   4  18
BRANCH   5  20
HETATM   20  N   UNL     1      11.510  17.456  30.565  1.00  0.00    -0.304 N 
HETATM   21  C   UNL     1      10.394  16.700  30.066  1.00  0.00     0.137 A 
HETATM   22  C   UNL     1       9.744  15.672  30.867  1.00  0.00     0.093 A 
HETATM   23  C   UNL     1      10.250  15.417  32.233  1.00  0.00     0.098 A 
HETATM   24  N   UNL     1       9.643  14.423  33.056  1.00  0.00    -0.087 NA
HETATM   25  N   UNL     1      11.348  16.176  32.742  1.00  0.00    -0.300 N 
HETATM   26  C   UNL     1      11.996  17.214  31.938  1.00  0.00     0.325 A 
ATOM     27  HN  UNL     1      11.687  15.993  33.686  1.00  0.00     0.171 HD
HETATM   28  O   UNL     1      12.906  17.834  32.378  1.00  0.00    -0.247 OA
ENDBRANCH   5  20
TORSDOF 8
ENDMDL
MODEL 2
REMARK VINA RESULT:   -10.277      5.239      7.539
REMARK INTER + INTRA:         -15.345
REMARK INTER:                 -14.622
REMARK INTRA:                  -0.723
REMARK UNBOUND:                -0.862
REMARK  8 active torsions:
REMARK  status: ('A' for Active; 'I' for Inactive)
REMARK    1  A    between atoms: P_2  and  O_5 
REMARK    2  A    between atoms: O_5  and  P_6 
REMARK    3  A    between atoms: P_6  and  O_9 
REMARK    4  A    between atoms: O_9  and  C_10 
REMARK    5  A    between atoms: C_10  and  C_11 
REMARK    6  A    between atoms: C_13  and  O_14 
REMARK    7  A    between atoms: C_16  and  O_17 
REMARK    8  A    between atoms: C_19  and  N_20 
ROOT
HETATM    1  C   UNL     1      13.452  20.729  26.149  1.00  0.00     0.180 C 
HETATM    2  O   UNL     1      14.353  21.347  25.127  1.00  0.00    -0.354 OA
HETATM    3  C   UNL     1      14.229  19.401  26.587  1.00  0.00     0.182 C 
HETATM    4  C   UNL     1      15.446  19.582  26.241  1.00  0.00     0.198 C 
HETATM    5  C   UNL     1      15.270  20.443  24.858  1.00  0.00     0.259 C 
ENDROOT
BRANCH   1   6
HETATM    6  C   UNL     1      13.269  21.637  27.200  1.00  0.00     0.216 C 
BRANCH   6   7
HETATM    7  O   UNL     1      12.763  20.957  28.312  1.00  0.00    -0.287 OA
BRANCH   7   8
HETATM    8  P   UNL     1      11.124  20.877  28.510  1.00  0.00     0.418 P 
HETATM    9  O   UNL     1      10.797  19.876  29.570  1.00  0.00    -0.624 OA
HETATM   10  O   UNL     1      10.564  20.495  27.182  1.00  0.00    -0.624 OA
BRANCH   8  11
HETATM   11  O   UNL     1      10.626  22.305  29.086  1.00  0.00    -0.173 OA
BRANCH  11  12
HETATM   12  P   UNL     1       9.135  22.771  29.540  1.00  0.00     0.431 P 
HETATM   13  O   UNL     1       8.740  23.966  28.701  1.00  0.00    -0.616 OA
HETATM   14  O   UNL     1       8.111  21.699  29.510  1.00  0.00    -0.616 OA
HETATM   15  O   UNL     1       9.284  23.267  30.969  1.00  0.00    -0.616 OA
ENDBRANCH  11  12
ENDBRANCH   8  11
ENDBRANCH   7   8
ENDBRANCH   6   7
ENDBRANCH   1   6
BRANCH   3  16
HETATM   16  O   UNL     1      13.567  18.248  25.873  1.00  0.00    -0.390 OA
ATOM     17  HO  UNL     1      13.634  17.425  26.342  1.00  0.00     0.210 HD
ENDBRANCH   3  16
BRANCH   4  18
HETATM   18  O   UNL     1      16.173  18.340  25.890  1.00  0.00    -0.388 OA
ATOM     19  HO  UNL     1      16.080  18.219  24.953  1.00  0.00     0.210 HD
ENDBRANCH   4  18
BRANCH   5  20
HETATM   20  N   UNL     1      16.381  21.182  24.404  1.00  0.00    -0.304 N 
HETATM   21  C   UNL     1      16.624  22.551  24.769  1.00  0.00     0.137 A 
HETATM   22  C   UNL     1      17.753  23.299  24.231  1.00  0.00     0.093 A 
HETATM   23  C   UNL     1      18.658  22.622  23.278  1.00  0.00     0.098 A 
HETATM   24  N   UNL     1      19.774  23.315  22.723  1.00  0.00    -0.087 NA
HETATM   25  N   UNL     1      18.412  21.266  22.898  1.00  0.00    -0.300 N 
HETATM   26  C   UNL     1      17.274  20.518  23.435  1.00  0.00     0.325 A 
ATOM     27  HN  UNL     1      19.042  20.811  22.239  1.00  0.00     0.171 HD
HETATM   28  O   UNL     1      17.086  19.393  23.106  1.00  0.00    -0.247 OA
ENDBRANCH   5  20
TORSDOF 8
ENDMDL
MODEL 3
REMARK VINA RESULT:    -9.895      4.933      7.626
REMARK INTER + INTRA:         -14.807
REMARK INTER:                 -13.888
REMARK INTRA:                  -0.919
REMARK UNBOUND:                -0.862
REMARK  8 active torsions:
REMARK  status: ('A' for Active; 'I' for Inactive)
REMARK    1  A    between atoms: P_2  and  O_5 
REMARK    2  A    between atoms: O_5  and  P_6 
REMARK    3  A    between atoms: P_6  and  O_9 
REMARK    4  A    between atoms: O_9  and  C_10 
REMARK    5  A    between atoms: C_10  and  C_11 
REMARK    6  A    between atoms: C_13  and  O_14 
REMARK    7  A    between atoms: C_16  and  O_17 
REMARK    8  A    between atoms: C_19  and  N_20 
ROOT
HETATM    1  C   UNL     1      14.517  19.855  25.404  1.00  0.00     0.180 C 
HETATM    2  O   UNL     1      13.422  19.077  26.062  1.00  0.00    -0.354 OA
HETATM    3  C   UNL     1      14.601  21.199  26.267  1.00  0.00     0.182 C 
HETATM    4  C   UNL     1      14.035  20.929  27.382  1.00  0.00     0.198 C 
HETATM    5  C   UNL     1      12.849  19.903  26.909  1.00  0.00     0.259 C 
ENDROOT
BRANCH   1   6
HETATM    6  C   UNL     1      15.696  19.098  25.439  1.00  0.00     0.216 C 
BRANCH   6   7
HETATM    7  O   UNL     1      16.737  19.843  24.877  1.00  0.00    -0.287 OA
BRANCH   7   8
HETATM    8  P   UNL     1      16.689  20.168  23.257  1.00  0.00     0.418 P 
HETATM    9  O   UNL     1      18.080  20.205  22.713  1.00  0.00    -0.624 OA
HETATM   10  O   UNL     1      15.995  21.480  23.118  1.00  0.00    -0.624 OA
BRANCH   8  11
HETATM   11  O   UNL     1      15.964  18.921  22.524  1.00  0.00    -0.173 OA
BRANCH  11  12
HETATM   12  P   UNL     1      16.601  17.782  21.554  1.00  0.00     0.431 P 
HETATM   13  O   UNL     1      16.940  18.430  20.229  1.00  0.00    -0.616 OA
HETATM   14  O   UNL     1      17.750  17.044  22.131  1.00  0.00    -0.616 OA
HETATM   15  O   UNL     1      15.471  16.800  21.286  1.00  0.00    -0.616 OA
ENDBRANCH  11  12
ENDBRANCH   8  11
ENDBRANCH   7   8
ENDBRANCH   6   7
ENDBRANCH   1   6
BRANCH   3  16
HETATM   16  O   UNL     1      13.892  22.273  25.479  1.00  0.00    -0.390 OA
ATOM     17  HO  UNL     1      13.016  22.458  25.795  1.00  0.00     0.210 HD
ENDBRANCH   3  16
BRANCH   4  18
HETATM   18  O   UNL     1      13.376  22.087  28.029  1.00  0.00    -0.388 OA
ATOM     19  HO  UNL     1      12.452  22.036  27.816  1.00  0.00     0.210 HD
ENDBRANCH   4  18
BRANCH   5  20
HETATM   20  N   UNL     1      12.276  19.072  27.892  1.00  0.00    -0.304 N 
HETATM   21  C   UNL     1      12.787  17.769  28.222  1.00  0.00     0.137 A 
HETATM   22  C   UNL     1      12.131  16.914  29.202  1.00  0.00     0.093 A 
HETATM   23  C   UNL     1      10.903  17.409  29.861  1.00  0.00     0.098 A 
HETATM   24  N   UNL     1      10.225  16.606  30.825  1.00  0.00    -0.087 NA
HETATM   25  N   UNL     1      10.381  18.696  29.525  1.00  0.00    -0.300 N 
HETATM   26  C   UNL     1      11.037  19.551  28.535  1.00  0.00     0.325 A 
ATOM     27  HN  UNL     1       9.532  19.026  29.985  1.00  0.00     0.171 HD
HETATM   28  O   UNL     1      10.587  20.616  28.269  1.00  0.00    -0.247 OA
ENDBRANCH   5  20
TORSDOF 8
ENDMDL
MODEL 4
REMARK VINA RESULT:    -9.871      5.334      7.913
REMARK INTER + INTRA:         -14.772
REMARK INTER:                 -13.465
REMARK INTRA:                  -1.307
REMARK UNBOUND:                -0.862
REMARK  8 active torsions:
REMARK  status: ('A' for Active; 'I' for Inactive)
REMARK    1  A    between atoms: P_2  and  O_5 
REMARK    2  A    between atoms: O_5  and  P_6 
REMARK    3  A    between atoms: P_6  and  O_9 
REMARK    4  A    between atoms: O_9  and  C_10 
REMARK    5  A    between atoms: C_10  and  C_11 
REMARK    6  A    between atoms: C_13  and  O_14 
REMARK    7  A    between atoms: C_16  and  O_17 
REMARK    8  A    between atoms: C_19  and  N_20 
ROOT
HETATM    1  C   UNL     1      13.451  20.747  26.247  1.00  0.00     0.180 C 
HETATM    2  O   UNL     1      14.334  21.369  25.212  1.00  0.00    -0.354 OA
HETATM    3  C   UNL     1      14.217  19.399  26.641  1.00  0.00     0.182 C 
HETATM    4  C   UNL     1      15.428  19.568  26.265  1.00  0.00     0.198 C 
HETATM    5  C   UNL     1      15.228  20.455  24.903  1.00  0.00     0.259 C 
ENDROOT
BRANCH   1   6
HETATM    6  C   UNL     1      13.311  21.640  27.318  1.00  0.00     0.216 C 
BRANCH   6   7
HETATM    7  O   UNL     1      11.982  22.071  27.386  1.00  0.00    -0.287 OA
BRANCH   7   8
HETATM    8  P   UNL     1      10.947  21.283  28.405  1.00  0.00     0.418 P 
HETATM    9  O   UNL     1       9.955  20.505  27.604  1.00  0.00    -0.624 OA
HETATM   10  O   UNL     1      10.299  22.338  29.235  1.00  0.00    -0.624 OA
BRANCH   8  11
HETATM   11  O   UNL     1      11.805  20.185  29.227  1.00  0.00    -0.173 OA
BRANCH  11  12
HETATM   12  P   UNL     1      11.506  18.603  29.457  1.00  0.00     0.431 P 
HETATM   13  O   UNL     1      10.194  18.475  30.200  1.00  0.00    -0.616 OA
HETATM   14  O   UNL     1      11.538  17.777  28.225  1.00  0.00    -0.616 OA
HETATM   15  O   UNL     1      12.594  18.117  30.401  1.00  0.00    -0.616 OA
ENDBRANCH  11  12
ENDBRANCH   8  11
ENDBRANCH   7   8
ENDBRANCH   6   7
ENDBRANCH   1   6
BRANCH   3  16
HETATM   16  O   UNL     1      13.518  18.270  25.927  1.00  0.00    -0.390 OA
ATOM     17  HO  UNL     1      12.620  18.143  26.209  1.00  0.00     0.210 HD
ENDBRANCH   3  16
BRANCH   4  18
HETATM   18  O   UNL     1      16.124  18.321  25.873  1.00  0.00    -0.388 OA
ATOM     19  HO  UNL     1      15.769  18.056  25.034  1.00  0.00     0.210 HD
ENDBRANCH   4  18
BRANCH   5  20
HETATM   20  N   UNL     1      16.338  21.184  24.431  1.00  0.00    -0.304 N 
HETATM   21  C   UNL     1      16.553  22.576  24.720  1.00  0.00     0.137 A 
HETATM   22  C   UNL     1      17.682  23.309  24.165  1.00  0.00     0.093 A 
HETATM   23  C   UNL     1      18.619  22.593  23.273  1.00  0.00     0.098 A 
HETATM   24  N   UNL     1      19.737  23.271  22.703  1.00  0.00    -0.087 NA
HETATM   25  N   UNL     1      18.402  21.214  22.967  1.00  0.00    -0.300 N 
HETATM   26  C   UNL     1      17.263  20.480  23.521  1.00  0.00     0.325 A 
ATOM     27  HN  UNL     1      19.054  20.731  22.350  1.00  0.00     0.171 HD
HETATM   28  O   UNL     1      17.099  19.335  23.255  1.00  0.00    -0.247 OA
ENDBRANCH   5  20
TORSDOF 8
ENDMDL
MODEL 5
REMARK VINA RESULT:    -9.549      4.959      7.247
REMARK INTER + INTRA:         -14.319
REMARK INTER:                 -13.511
REMARK INTRA:                  -0.808
REMARK UNBOUND:                -0.862
REMARK  8 active torsions:
REMARK  status: ('A' for Active; 'I' for Inactive)
REMARK    1  A    between atoms: P_2  and  O_5 
REMARK    2  A    between atoms: O_5  and  P_6 
REMARK    3  A    between atoms: P_6  and  O_9 
REMARK    4  A    between atoms: O_9  and  C_10 
REMARK    5  A    between atoms: C_10  and  C_11 
REMARK    6  A    between atoms: C_13  and  O_14 
REMARK    7  A    between atoms: C_16  and  O_17 
REMARK    8  A    between atoms: C_19  and  N_20 
ROOT
HETATM    1  C   UNL     1      14.777  20.146  25.365  1.00  0.00     0.180 C 
HETATM    2  O   UNL     1      13.726  19.240  25.923  1.00  0.00    -0.354 OA
HETATM    3  C   UNL     1      14.651  21.469  26.255  1.00  0.00     0.182 C 
HETATM    4  C   UNL     1      14.036  21.113  27.318  1.00  0.00     0.198 C 
HETATM    5  C   UNL     1      13.005  19.980  26.737  1.00  0.00     0.259 C 
ENDROOT
BRANCH   1   6
HETATM    6  C   UNL     1      16.024  19.517  25.478  1.00  0.00     0.216 C 
BRANCH   6   7
HETATM    7  O   UNL     1      16.570  19.345  24.202  1.00  0.00    -0.287 OA
BRANCH   7   8
HETATM    8  P   UNL     1      17.313  20.634  23.482  1.00  0.00     0.418 P 
HETATM    9  O   UNL     1      16.283  21.615  23.028  1.00  0.00    -0.624 OA
HETATM   10  O   UNL     1      18.100  20.076  22.346  1.00  0.00    -0.624 OA
BRANCH   8  11
HETATM   11  O   UNL     1      18.180  21.400  24.613  1.00  0.00    -0.173 OA
BRANCH  11  12
HETATM   12  P   UNL     1      19.120  22.719  24.475  1.00  0.00     0.431 P 
HETATM   13  O   UNL     1      18.320  23.917  24.937  1.00  0.00    -0.616 OA
HETATM   14  O   UNL     1      20.434  22.623  25.157  1.00  0.00    -0.616 OA
HETATM   15  O   UNL     1      19.354  22.896  22.983  1.00  0.00    -0.616 OA
ENDBRANCH  11  12
ENDBRANCH   8  11
ENDBRANCH   7   8
ENDBRANCH   6   7
ENDBRANCH   1   6
BRANCH   3  16
HETATM   16  O   UNL     1      13.893  22.482  25.433  1.00  0.00    -0.390 OA
ATOM     17  HO  UNL     1      13.651  23.260  25.921  1.00  0.00     0.210 HD
ENDBRANCH   3  16
BRANCH   4  18
HETATM   18  O   UNL     1      13.210  22.179  27.932  1.00  0.00    -0.388 OA
ATOM     19  HO  UNL     1      12.367  21.793  28.137  1.00  0.00     0.210 HD
ENDBRANCH   4  18
BRANCH   5  20
HETATM   20  N   UNL     1      12.453  19.068  27.659  1.00  0.00    -0.304 N 
HETATM   21  C   UNL     1      13.112  17.856  28.065  1.00  0.00     0.137 A 
HETATM   22  C   UNL     1      12.482  16.909  28.975  1.00  0.00     0.093 A 
HETATM   23  C   UNL     1      11.124  17.211  29.479  1.00  0.00     0.098 A 
HETATM   24  N   UNL     1      10.467  16.311  30.369  1.00  0.00    -0.087 NA
HETATM   25  N   UNL     1      10.457  18.405  29.066  1.00  0.00    -0.300 N 
HETATM   26  C   UNL     1      11.089  19.353  28.147  1.00  0.00     0.325 A 
ATOM     27  HN  UNL     1       9.521  18.601  29.419  1.00  0.00     0.171 HD
HETATM   28  O   UNL     1      10.519  20.339  27.815  1.00  0.00    -0.247 OA
ENDBRANCH   5  20
TORSDOF 8
ENDMDL
MODEL 6
REMARK VINA RESULT:    -9.345      4.873      7.419
REMARK INTER + INTRA:         -14.031
REMARK INTER:                 -12.939
REMARK INTRA:                  -1.092
REMARK UNBOUND:                -0.862
REMARK  8 active torsions:
REMARK  status: ('A' for Active; 'I' for Inactive)
REMARK    1  A    between atoms: P_2  and  O_5 
REMARK    2  A    between atoms: O_5  and  P_6 
REMARK    3  A    between atoms: P_6  and  O_9 
REMARK    4  A    between atoms: O_9  and  C_10 
REMARK    5  A    between atoms: C_10  and  C_11 
REMARK    6  A    between atoms: C_13  and  O_14 
REMARK    7  A    between atoms: C_16  and  O_17 
REMARK    8  A    between atoms: C_19  and  N_20 
ROOT
HETATM    1  C   UNL     1      14.185  19.702  27.571  1.00  0.00     0.180 C 
HETATM    2  O   UNL     1      15.320  19.676  26.597  1.00  0.00    -0.354 OA
HETATM    3  C   UNL     1      13.342  20.991  27.139  1.00  0.00     0.182 C 
HETATM    4  C   UNL     1      13.692  21.245  25.935  1.00  0.00     0.198 C 
HETATM    5  C   UNL     1      15.275  20.824  25.958  1.00  0.00     0.259 C 
ENDROOT
BRANCH   1   6
HETATM    6  C   UNL     1      13.465  18.505  27.460  1.00  0.00     0.216 C 
BRANCH   6   7
HETATM    7  O   UNL     1      12.101  18.773  27.618  1.00  0.00    -0.287 OA
BRANCH   7   8
HETATM    8  P   UNL     1      11.419  18.543  29.105  1.00  0.00     0.418 P 
HETATM    9  O   UNL     1      12.301  19.134  30.156  1.00  0.00    -0.624 OA
HETATM   10  O   UNL     1      11.261  17.069  29.266  1.00  0.00    -0.624 OA
BRANCH   8  11
HETATM   11  O   UNL     1      10.044  19.395  29.155  1.00  0.00    -0.173 OA
BRANCH  11  12
HETATM   12  P   UNL     1       9.761  20.925  28.681  1.00  0.00     0.431 P 
HETATM   13  O   UNL     1       8.336  21.275  29.050  1.00  0.00    -0.616 OA
HETATM   14  O   UNL     1      10.735  21.924  29.185  1.00  0.00    -0.616 OA
HETATM   15  O   UNL     1       9.827  20.898  27.163  1.00  0.00    -0.616 OA
ENDBRANCH  11  12
ENDBRANCH   8  11
ENDBRANCH   7   8
ENDBRANCH   6   7
ENDBRANCH   1   6
BRANCH   3  16
HETATM   16  O   UNL     1      13.691  22.091  28.110  1.00  0.00    -0.390 OA
ATOM     17  HO  UNL     1      13.809  22.938  27.696  1.00  0.00     0.210 HD
ENDBRANCH   3  16
BRANCH   4  18
HETATM   18  O   UNL     1      13.628  22.679  25.571  1.00  0.00    -0.388 OA
ATOM     19  HO  UNL     1      12.884  22.786  24.990  1.00  0.00     0.210 HD
ENDBRANCH   4  18
BRANCH   5  20
HETATM   20  N   UNL     1      15.900  20.572  24.720  1.00  0.00    -0.304 N 
HETATM   21  C   UNL     1      15.936  19.275  24.101  1.00  0.00     0.137 A 
HETATM   22  C   UNL     1      16.644  19.042  22.849  1.00  0.00     0.093 A 
HETATM   23  C   UNL     1      17.348  20.177  22.215  1.00  0.00     0.098 A 
HETATM   24  N   UNL     1      18.057  19.996  20.991  1.00  0.00    -0.087 NA
HETATM   25  N   UNL     1      17.330  21.465  22.833  1.00  0.00    -0.300 N 
HETATM   26  C   UNL     1      16.624  21.696  24.095  1.00  0.00     0.325 A 
ATOM     27  HN  UNL     1      17.820  22.240  22.387  1.00  0.00     0.171 HD
HETATM   28  O   UNL     1      16.622  22.773  24.593  1.00  0.00    -0.247 OA
ENDBRANCH   5  20
TORSDOF 8
ENDMDL
MODEL 7
REMARK VINA RESULT:    -9.295      0.931      1.596
REMARK INTER + INTRA:         -13.961
REMARK INTER:                 -13.950
REMARK INTRA:                  -0.011
REMARK UNBOUND:                -0.862
REMARK  8 active torsions:
REMARK  status: ('A' for Active; 'I' for Inactive)
REMARK    1  A    between atoms: P_2  and  O_5 
REMARK    2  A    between atoms: O_5  and  P_6 
REMARK    3  A    between atoms: P_6  and  O_9 
REMARK    4  A    between atoms: O_9  and  C_10 
REMARK    5  A    between atoms: C_10  and  C_11 
REMARK    6  A    between atoms: C_13  and  O_14 
REMARK    7  A    between atoms: C_16  and  O_17 
REMARK    8  A    between atoms: C_19  and  N_20 
ROOT
HETATM    1  C   UNL     1      11.503  20.191  28.453  1.00  0.00     0.180 C 
HETATM    2  O   UNL     1      11.240  19.496  29.751  1.00  0.00    -0.354 OA
HETATM    3  C   UNL     1      12.502  19.203  27.687  1.00  0.00     0.182 C 
HETATM    4  C   UNL     1      12.362  18.065  28.253  1.00  0.00     0.198 C 
HETATM    5  C   UNL     1      12.099  18.502  29.810  1.00  0.00     0.259 C 
ENDROOT
BRANCH   1   6
HETATM    6  C   UNL     1      10.287  20.380  27.785  1.00  0.00     0.216 C 
BRANCH   6   7
HETATM    7  O   UNL     1      10.096  21.745  27.553  1.00  0.00    -0.287 OA
BRANCH   7   8
HETATM    8  P   UNL     1       8.559  22.350  27.617  1.00  0.00     0.418 P 
HETATM    9  O   UNL     1       7.673  21.386  28.337  1.00  0.00    -0.624 OA
HETATM   10  O   UNL     1       8.135  22.557  26.203  1.00  0.00    -0.624 OA
BRANCH   8  11
HETATM   11  O   UNL     1       8.591  23.685  28.531  1.00  0.00    -0.173 OA
BRANCH  11  12
HETATM   12  P   UNL     1       9.343  23.945  29.950  1.00  0.00     0.431 P 
HETATM   13  O   UNL     1      10.808  24.197  29.665  1.00  0.00    -0.616 OA
HETATM   14  O   UNL     1       8.741  25.010  30.788  1.00  0.00    -0.616 OA
HETATM   15  O   UNL     1       9.262  22.626  30.700  1.00  0.00    -0.616 OA
ENDBRANCH  11  12
ENDBRANCH   8  11
ENDBRANCH   7   8
ENDBRANCH   6   7
ENDBRANCH   1   6
BRANCH   3  16
HETATM   16  O   UNL     1      13.888  19.780  27.832  1.00  0.00    -0.390 OA
ATOM     17  HO  UNL     1      14.030  20.560  27.309  1.00  0.00     0.210 HD
ENDBRANCH   3  16
BRANCH   4  18
HETATM   18  O   UNL     1      13.580  17.222  28.238  1.00  0.00    -0.388 OA
ATOM     19  HO  UNL     1      14.288  17.750  28.589  1.00  0.00     0.210 HD
ENDBRANCH   4  18
BRANCH   5  20
HETATM   20  N   UNL     1      11.495  17.554  30.660  1.00  0.00    -0.304 N 
HETATM   21  C   UNL     1      11.683  17.535  32.085  1.00  0.00     0.137 A 
HETATM   22  C   UNL     1      11.088  16.502  32.923  1.00  0.00     0.093 A 
HETATM   23  C   UNL     1      10.281  15.445  32.275  1.00  0.00     0.098 A 
HETATM   24  N   UNL     1       9.683  14.412  33.055  1.00  0.00    -0.087 NA
HETATM   25  N   UNL     1      10.104  15.449  30.857  1.00  0.00    -0.300 N 
HETATM   26  C   UNL     1      10.707  16.484  30.016  1.00  0.00     0.325 A 
ATOM     27  HN  UNL     1       9.547  14.715  30.422  1.00  0.00     0.171 HD
HETATM   28  O   UNL     1      10.550  16.470  28.840  1.00  0.00    -0.247 OA
ENDBRANCH   5  20
TORSDOF 8
ENDMDL
MODEL 8
REMARK VINA RESULT:    -9.261      4.981      7.458
REMARK INTER + INTRA:         -13.913
REMARK INTER:                 -12.804
REMARK INTRA:                  -1.109
REMARK UNBOUND:                -0.862
REMARK  8 active torsions:
REMARK  status: ('A' for Active; 'I' for Inactive)
REMARK    1  A    between atoms: P_2  and  O_5 
REMARK    2  A    between atoms: O_5  and  P_6 
REMARK    3  A    between atoms: P_6  and  O_9 
REMARK    4  A    between atoms: O_9  and  C_10 
REMARK    5  A    between atoms: C_10  and  C_11 
REMARK    6  A    between atoms: C_13  and  O_14 
REMARK    7  A    between atoms: C_16  and  O_17 
REMARK    8  A    between atoms: C_19  and  N_20 
ROOT
HETATM    1  C   UNL     1      15.197  20.863  26.268  1.00  0.00     0.180 C 
HETATM    2  O   UNL     1      14.156  21.041  27.328  1.00  0.00    -0.354 OA
HETATM    3  C   UNL     1      14.847  19.440  25.626  1.00  0.00     0.182 C 
HETATM    4  C   UNL     1      13.632  19.206  25.945  1.00  0.00     0.198 C 
HETATM    5  C   UNL     1      13.549  19.879  27.437  1.00  0.00     0.259 C 
ENDROOT
BRANCH   1   6
HETATM    6  C   UNL     1      15.101  21.922  25.356  1.00  0.00     0.216 C 
BRANCH   6   7
HETATM    7  O   UNL     1      16.379  22.438  25.115  1.00  0.00    -0.287 OA
BRANCH   7   8
HETATM    8  P   UNL     1      17.150  22.015  23.716  1.00  0.00     0.418 P 
HETATM    9  O   UNL     1      18.378  21.229  24.040  1.00  0.00    -0.624 OA
HETATM   10  O   UNL     1      17.466  23.292  23.014  1.00  0.00    -0.624 OA
BRANCH   8  11
HETATM   11  O   UNL     1      16.182  21.002  22.905  1.00  0.00    -0.173 OA
BRANCH  11  12
HETATM   12  P   UNL     1      16.523  19.555  22.246  1.00  0.00     0.431 P 
HETATM   13  O   UNL     1      17.514  19.773  21.123  1.00  0.00    -0.616 OA
HETATM   14  O   UNL     1      16.980  18.524  23.209  1.00  0.00    -0.616 OA
HETATM   15  O   UNL     1      15.227  19.087  21.603  1.00  0.00    -0.616 OA
ENDBRANCH  11  12
ENDBRANCH   8  11
ENDBRANCH   7   8
ENDBRANCH   6   7
ENDBRANCH   1   6
BRANCH   3  16
HETATM   16  O   UNL     1      15.822  18.444  26.204  1.00  0.00    -0.390 OA
ATOM     17  HO  UNL     1      16.123  17.800  25.574  1.00  0.00     0.210 HD
ENDBRANCH   3  16
BRANCH   4  18
HETATM   18  O   UNL     1      13.306  17.770  26.098  1.00  0.00    -0.388 OA
ATOM     19  HO  UNL     1      13.012  17.644  26.993  1.00  0.00     0.210 HD
ENDBRANCH   4  18
BRANCH   5  20
HETATM   20  N   UNL     1      12.270  20.188  27.942  1.00  0.00    -0.304 N 
HETATM   21  C   UNL     1      11.689  21.502  27.877  1.00  0.00     0.137 A 
HETATM   22  C   UNL     1      10.389  21.796  28.464  1.00  0.00     0.093 A 
HETATM   23  C   UNL     1       9.662  20.706  29.151  1.00  0.00     0.098 A 
HETATM   24  N   UNL     1       8.388  20.947  29.743  1.00  0.00    -0.087 NA
HETATM   25  N   UNL     1      10.241  19.402  29.233  1.00  0.00    -0.300 N 
HETATM   26  C   UNL     1      11.551  19.110  28.648  1.00  0.00     0.325 A 
ATOM     27  HN  UNL     1       9.731  18.659  29.710  1.00  0.00     0.171 HD
HETATM   28  O   UNL     1      12.015  18.021  28.728  1.00  0.00    -0.247 OA
ENDBRANCH   5  20
TORSDOF 8
ENDMDL
MODEL 9
REMARK VINA RESULT:    -9.237      6.206      8.601
REMARK INTER + INTRA:         -13.879
REMARK INTER:                 -12.875
REMARK INTRA:                  -1.005
REMARK UNBOUND:                -0.862
REMARK  8 active torsions:
REMARK  status: ('A' for Active; 'I' for Inactive)
REMARK    1  A    between atoms: P_2  and  O_5 
REMARK    2  A    between atoms: O_5  and  P_6 
REMARK    3  A    between atoms: P_6  and  O_9 
REMARK    4  A    between atoms: O_9  and  C_10 
REMARK    5  A    between atoms: C_10  and  C_11 
REMARK    6  A    between atoms: C_13  and  O_14 
REMARK    7  A    between atoms: C_16  and  O_17 
REMARK    8  A    between atoms: C_19  and  N_20 
ROOT
HETATM    1  C   UNL     1      14.433  21.334  25.408  1.00  0.00     0.180 C 
HETATM    2  O   UNL     1      15.410  22.256  24.750  1.00  0.00    -0.354 OA
HETATM    3  C   UNL     1      15.104  19.891  25.249  1.00  0.00     0.182 C 
HETATM    4  C   UNL     1      16.343  20.109  25.020  1.00  0.00     0.198 C 
HETATM    5  C   UNL     1      16.275  21.483  24.130  1.00  0.00     0.259 C 
ENDROOT
BRANCH   1   6
HETATM    6  C   UNL     1      14.269  21.726  26.744  1.00  0.00     0.216 C 
BRANCH   6   7
HETATM    7  O   UNL     1      13.992  20.598  27.523  1.00  0.00    -0.287 OA
BRANCH   7   8
HETATM    8  P   UNL     1      12.460  20.401  28.109  1.00  0.00     0.418 P 
HETATM    9  O   UNL     1      12.515  20.168  29.584  1.00  0.00    -0.624 OA
HETATM   10  O   UNL     1      11.881  19.239  27.376  1.00  0.00    -0.624 OA
BRANCH   8  11
HETATM   11  O   UNL     1      11.673  21.802  27.916  1.00  0.00    -0.173 OA
BRANCH  11  12
HETATM   12  P   UNL     1      10.138  22.185  28.295  1.00  0.00     0.431 P 
HETATM   13  O   UNL     1       9.670  23.255  27.334  1.00  0.00    -0.616 OA
HETATM   14  O   UNL     1       9.206  21.033  28.355  1.00  0.00    -0.616 OA
HETATM   15  O   UNL     1      10.210  22.830  29.670  1.00  0.00    -0.616 OA
ENDBRANCH  11  12
ENDBRANCH   8  11
ENDBRANCH   7   8
ENDBRANCH   6   7
ENDBRANCH   1   6
BRANCH   3  16
HETATM   16  O   UNL     1      14.396  19.199  24.110  1.00  0.00    -0.390 OA
ATOM     17  HO  UNL     1      13.935  18.412  24.374  1.00  0.00     0.210 HD
ENDBRANCH   3  16
BRANCH   4  18
HETATM   18  O   UNL     1      17.000  19.081  24.181  1.00  0.00    -0.388 OA
ATOM     19  HO  UNL     1      16.318  18.658  23.673  1.00  0.00     0.210 HD
ENDBRANCH   4  18
BRANCH   5  20
HETATM   20  N   UNL     1      17.448  22.259  24.038  1.00  0.00    -0.304 N 
HETATM   21  C   UNL     1      17.692  23.425  24.843  1.00  0.00     0.137 A 
HETATM   22  C   UNL     1      18.891  24.235  24.676  1.00  0.00     0.093 A 
HETATM   23  C   UNL     1      19.871  23.841  23.641  1.00  0.00     0.098 A 
HETATM   24  N   UNL     1      21.057  24.605  23.440  1.00  0.00    -0.087 NA
HETATM   25  N   UNL     1      19.626  22.693  22.826  1.00  0.00    -0.300 N 
HETATM   26  C   UNL     1      18.418  21.883  22.990  1.00  0.00     0.325 A 
ATOM     27  HN  UNL     1      20.308  22.432  22.114  1.00  0.00     0.171 HD
HETATM   28  O   UNL     1      18.232  20.934  22.303  1.00  0.00    -0.247 OA
ENDBRANCH   5  20
TORSDOF 8
ENDMDL
MODEL 10
REMARK VINA RESULT:    -9.022      5.319      7.703
REMARK INTER + INTRA:         -13.576
REMARK INTER:                 -13.174
REMARK INTRA:                  -0.402
REMARK UNBOUND:                -0.862
REMARK  8 active torsions:
REMARK  status: ('A' for Active; 'I' for Inactive)
REMARK    1  A    between atoms: P_2  and  O_5 
REMARK    2  A    between atoms: O_5  and  P_6 
REMARK    3  A    between atoms: P_6  and  O_9 
REMARK    4  A    between atoms: O_9  and  C_10 
REMARK    5  A    between atoms: C_10  and  C_11 
REMARK    6  A    between atoms: C_13  and  O_14 
REMARK    7  A    between atoms: C_16  and  O_17 
REMARK    8  A    between atoms: C_19  and  N_20 
ROOT
HETATM    1  C   UNL     1      15.365  20.816  26.292  1.00  0.00     0.180 C 
HETATM    2  O   UNL     1      14.258  21.018  27.277  1.00  0.00    -0.354 OA
HETATM    3  C   UNL     1      14.978  19.447  25.559  1.00  0.00     0.182 C 
HETATM    4  C   UNL     1      13.729  19.281  25.775  1.00  0.00     0.198 C 
HETATM    5  C   UNL     1      13.572  19.896  27.286  1.00  0.00     0.259 C 
ENDROOT
BRANCH   1   6
HETATM    6  C   UNL     1      15.408  21.916  25.425  1.00  0.00     0.216 C 
BRANCH   6   7
HETATM    7  O   UNL     1      15.836  21.491  24.164  1.00  0.00    -0.287 OA
BRANCH   7   8
HETATM    8  P   UNL     1      17.460  21.405  23.869  1.00  0.00     0.418 P 
HETATM    9  O   UNL     1      17.692  20.811  22.519  1.00  0.00    -0.624 OA
HETATM   10  O   UNL     1      18.036  20.568  24.960  1.00  0.00    -0.624 OA
BRANCH   8  11
HETATM   11  O   UNL     1      18.028  22.918  23.787  1.00  0.00    -0.173 OA
BRANCH  11  12
HETATM   12  P   UNL     1      19.562  23.451  23.885  1.00  0.00     0.431 P 
HETATM   13  O   UNL     1      19.546  24.957  23.733  1.00  0.00    -0.616 OA
HETATM   14  O   UNL     1      20.297  23.014  25.096  1.00  0.00    -0.616 OA
HETATM   15  O   UNL     1      20.264  22.894  22.657  1.00  0.00    -0.616 OA
ENDBRANCH  11  12
ENDBRANCH   8  11
ENDBRANCH   7   8
ENDBRANCH   6   7
ENDBRANCH   1   6
BRANCH   3  16
HETATM   16  O   UNL     1      15.840  18.366  26.163  1.00  0.00    -0.390 OA
ATOM     17  HO  UNL     1      15.770  18.310  27.108  1.00  0.00     0.210 HD
ENDBRANCH   3  16
BRANCH   4  18
HETATM   18  O   UNL     1      13.302  17.864  25.836  1.00  0.00    -0.388 OA
ATOM     19  HO  UNL     1      14.084  17.344  25.975  1.00  0.00     0.210 HD
ENDBRANCH   4  18
BRANCH   5  20
HETATM   20  N   UNL     1      12.279  20.268  27.707  1.00  0.00    -0.304 N 
HETATM   21  C   UNL     1      11.834  21.633  27.785  1.00  0.00     0.137 A 
HETATM   22  C   UNL     1      10.510  21.980  28.282  1.00  0.00     0.093 A 
HETATM   23  C   UNL     1       9.613  20.890  28.723  1.00  0.00     0.098 A 
HETATM   24  N   UNL     1       8.309  21.182  29.220  1.00  0.00    -0.087 NA
HETATM   25  N   UNL     1      10.056  19.532  28.664  1.00  0.00    -0.300 N 
HETATM   26  C   UNL     1      11.389  19.185  28.170  1.00  0.00     0.325 A 
ATOM     27  HN  UNL     1       9.429  18.789  28.973  1.00  0.00     0.171 HD
HETATM   28  O   UNL     1      11.739  18.052  28.129  1.00  0.00    -0.247 OA
ENDBRANCH   5  20
TORSDOF 8
ENDMDL
MODEL 11
REMARK VINA RESULT:    -8.980      3.974      6.461
REMARK INTER + INTRA:         -13.517
REMARK INTER:                 -12.669
REMARK INTRA:                  -0.849
REMARK UNBOUND:                -0.862
REMARK  8 active torsions:
REMARK  status: ('A' for Active; 'I' for Inactive)
REMARK    1  A    between atoms: P_2  and  O_5 
REMARK    2  A    between atoms: O_5  and  P_6 
REMARK    3  A    between atoms: P_6  and  O_9 
REMARK    4  A    between atoms: O_9  and  C_10 
REMARK    5  A    between atoms: C_10  and  C_11 
REMARK    6  A    between atoms: C_13  and  O_14 
REMARK    7  A    between atoms: C_16  and  O_17 
REMARK    8  A    between atoms: C_19  and  N_20 
ROOT
HETATM    1  C   UNL     1      13.110  19.010  26.652  1.00  0.00     0.180 C 
HETATM    2  O   UNL     1      12.498  17.963  27.526  1.00  0.00    -0.354 OA
HETATM    3  C   UNL     1      12.717  20.385  27.371  1.00  0.00     0.182 C 
HETATM    4  C   UNL     1      12.420  20.071  28.574  1.00  0.00     0.198 C 
HETATM    5  C   UNL     1      11.719  18.605  28.369  1.00  0.00     0.259 C 
ENDROOT
BRANCH   1   6
HETATM    6  C   UNL     1      14.493  18.794  26.586  1.00  0.00     0.216 C 
BRANCH   6   7
HETATM    7  O   UNL     1      15.147  20.026  26.489  1.00  0.00    -0.287 OA
BRANCH   7   8
HETATM    8  P   UNL     1      16.056  20.334  25.143  1.00  0.00     0.418 P 
HETATM    9  O   UNL     1      17.477  19.952  25.401  1.00  0.00    -0.624 OA
HETATM   10  O   UNL     1      15.905  21.791  24.865  1.00  0.00    -0.624 OA
BRANCH   8  11
HETATM   11  O   UNL     1      15.544  19.349  23.965  1.00  0.00    -0.173 OA
BRANCH  11  12
HETATM   12  P   UNL     1      16.203  19.053  22.509  1.00  0.00     0.431 P 
HETATM   13  O   UNL     1      17.202  17.927  22.666  1.00  0.00    -0.616 OA
HETATM   14  O   UNL     1      15.227  18.792  21.423  1.00  0.00    -0.616 OA
HETATM   15  O   UNL     1      16.999  20.301  22.163  1.00  0.00    -0.616 OA
ENDBRANCH  11  12
ENDBRANCH   8  11
ENDBRANCH   7   8
ENDBRANCH   6   7
ENDBRANCH   1   6
BRANCH   3  16
HETATM   16  O   UNL     1      11.560  20.970  26.599  1.00  0.00    -0.390 OA
ATOM     17  HO  UNL     1      11.826  21.439  25.817  1.00  0.00     0.210 HD
ENDBRANCH   3  16
BRANCH   4  18
HETATM   18  O   UNL     1      11.409  20.953  29.202  1.00  0.00    -0.388 OA
ATOM     19  HO  UNL     1      11.457  21.791  28.760  1.00  0.00     0.210 HD
ENDBRANCH   4  18
BRANCH   5  20
HETATM   20  N   UNL     1      11.632  17.761  29.494  1.00  0.00    -0.304 N 
HETATM   21  C   UNL     1      12.482  16.618  29.693  1.00  0.00     0.137 A 
HETATM   22  C   UNL     1      12.322  15.735  30.840  1.00  0.00     0.093 A 
HETATM   23  C   UNL     1      11.247  16.027  31.812  1.00  0.00     0.098 A 
HETATM   24  N   UNL     1      11.050  15.188  32.948  1.00  0.00    -0.087 NA
HETATM   25  N   UNL     1      10.387  17.151  31.611  1.00  0.00    -0.300 N 
HETATM   26  C   UNL     1      10.545  18.035  30.454  1.00  0.00     0.325 A 
ATOM     27  HN  UNL     1       9.648  17.342  32.287  1.00  0.00     0.171 HD
HETATM   28  O   UNL     1       9.821  18.963  30.304  1.00  0.00    -0.247 OA
ENDBRANCH   5  20
TORSDOF 8
ENDMDL
MODEL 12
REMARK VINA RESULT:    -8.970      5.259      8.006
REMARK INTER + INTRA:         -13.503
REMARK INTER:                 -12.624
REMARK INTRA:                  -0.879
REMARK UNBOUND:                -0.862
REMARK  8 active torsions:
REMARK  status: ('A' for Active; 'I' for Inactive)
REMARK    1  A    between atoms: P_2  and  O_5 
REMARK    2  A    between atoms: O_5  and  P_6 
REMARK    3  A    between atoms: P_6  and  O_9 
REMARK    4  A    between atoms: O_9  and  C_10 
REMARK    5  A    between atoms: C_10  and  C_11 
REMARK    6  A    between atoms: C_13  and  O_14 
REMARK    7  A    between atoms: C_16  and  O_17 
REMARK    8  A    between atoms: C_19  and  N_20 
ROOT
HETATM    1  C   UNL     1      14.340  19.711  27.557  1.00  0.00     0.180 C 
HETATM    2  O   UNL     1      15.468  19.712  26.575  1.00  0.00    -0.354 OA
HETATM    3  C   UNL     1      13.441  20.955  27.105  1.00  0.00     0.182 C 
HETATM    4  C   UNL     1      13.772  21.198  25.894  1.00  0.00     0.198 C 
HETATM    5  C   UNL     1      15.371  20.845  25.913  1.00  0.00     0.259 C 
ENDROOT
BRANCH   1   6
HETATM    6  C   UNL     1      13.670  18.483  27.476  1.00  0.00     0.216 C 
BRANCH   6   7
HETATM    7  O   UNL     1      12.292  18.715  27.414  1.00  0.00    -0.287 OA
BRANCH   7   8
HETATM    8  P   UNL     1      11.352  18.226  28.683  1.00  0.00     0.418 P 
HETATM    9  O   UNL     1      10.760  16.888  28.380  1.00  0.00    -0.624 OA
HETATM   10  O   UNL     1      10.310  19.278  28.856  1.00  0.00    -0.624 OA
BRANCH   8  11
HETATM   11  O   UNL     1      12.323  17.998  29.958  1.00  0.00    -0.173 OA
BRANCH  11  12
HETATM   12  P   UNL     1      12.039  17.187  31.338  1.00  0.00     0.431 P 
HETATM   13  O   UNL     1      12.121  15.706  31.038  1.00  0.00    -0.616 OA
HETATM   14  O   UNL     1      12.901  17.579  32.480  1.00  0.00    -0.616 OA
HETATM   15  O   UNL     1      10.591  17.483  31.692  1.00  0.00    -0.616 OA
ENDBRANCH  11  12
ENDBRANCH   8  11
ENDBRANCH   7   8
ENDBRANCH   6   7
ENDBRANCH   1   6
BRANCH   3  16
HETATM   16  O   UNL     1      13.750  22.088  28.051  1.00  0.00    -0.390 OA
ATOM     17  HO  UNL     1      13.851  22.927  27.616  1.00  0.00     0.210 HD
ENDBRANCH   3  16
BRANCH   4  18
HETATM   18  O   UNL     1      13.645  22.620  25.501  1.00  0.00    -0.388 OA
ATOM     19  HO  UNL     1      13.514  23.119  26.298  1.00  0.00     0.210 HD
ENDBRANCH   4  18
BRANCH   5  20
HETATM   20  N   UNL     1      15.998  20.593  24.676  1.00  0.00    -0.304 N 
HETATM   21  C   UNL     1      16.058  19.291  24.069  1.00  0.00     0.137 A 
HETATM   22  C   UNL     1      16.767  19.060  22.818  1.00  0.00     0.093 A 
HETATM   23  C   UNL     1      17.446  20.203  22.170  1.00  0.00     0.098 A 
HETATM   24  N   UNL     1      18.155  20.024  20.946  1.00  0.00    -0.087 NA
HETATM   25  N   UNL     1      17.404  21.497  22.776  1.00  0.00    -0.300 N 
HETATM   26  C   UNL     1      16.696  21.726  24.037  1.00  0.00     0.325 A 
ATOM     27  HN  UNL     1      17.877  22.277  22.321  1.00  0.00     0.171 HD
HETATM   28  O   UNL     1      16.674  22.807  24.526  1.00  0.00    -0.247 OA
ENDBRANCH   5  20
TORSDOF 8
ENDMDL
MODEL 13
REMARK VINA RESULT:    -8.912      6.495      9.060
REMARK INTER + INTRA:         -13.422
REMARK INTER:                 -12.685
REMARK INTRA:                  -0.736
REMARK UNBOUND:                -0.862
REMARK  8 active torsions:
REMARK  status: ('A' for Active; 'I' for Inactive)
REMARK    1  A    between atoms: P_2  and  O_5 
REMARK    2  A    between atoms: O_5  and  P_6 
REMARK    3  A    between atoms: P_6  and  O_9 
REMARK    4  A    between atoms: O_9  and  C_10 
REMARK    5  A    between atoms: C_10  and  C_11 
REMARK    6  A    between atoms: C_13  and  O_14 
REMARK    7  A    between atoms: C_16  and  O_17 
REMARK    8  A    between atoms: C_19  and  N_20 
ROOT
HETATM    1  C   UNL     1      14.686  21.104  25.092  1.00  0.00     0.180 C 
HETATM    2  O   UNL     1      15.615  22.142  24.544  1.00  0.00    -0.354 OA
HETATM    3  C   UNL     1      15.396  19.721  24.714  1.00  0.00     0.182 C 
HETATM    4  C   UNL     1      16.620  20.012  24.487  1.00  0.00     0.198 C 
HETATM    5  C   UNL     1      16.484  21.493  23.801  1.00  0.00     0.259 C 
ENDROOT
BRANCH   1   6
HETATM    6  C   UNL     1      14.551  21.300  26.473  1.00  0.00     0.216 C 
BRANCH   6   7
HETATM    7  O   UNL     1      13.581  20.423  26.968  1.00  0.00    -0.287 OA
BRANCH   7   8
HETATM    8  P   UNL     1      12.250  21.058  27.716  1.00  0.00     0.418 P 
HETATM    9  O   UNL     1      11.017  20.625  26.993  1.00  0.00    -0.624 OA
HETATM   10  O   UNL     1      12.428  22.538  27.690  1.00  0.00    -0.624 OA
BRANCH   8  11
HETATM   11  O   UNL     1      12.151  20.399  29.190  1.00  0.00    -0.173 OA
BRANCH  11  12
HETATM   12  P   UNL     1      11.617  18.926  29.628  1.00  0.00     0.431 P 
HETATM   13  O   UNL     1      12.532  18.398  30.711  1.00  0.00    -0.616 OA
HETATM   14  O   UNL     1      10.188  18.873  30.021  1.00  0.00    -0.616 OA
HETATM   15  O   UNL     1      11.823  18.042  28.408  1.00  0.00    -0.616 OA
ENDBRANCH  11  12
ENDBRANCH   8  11
ENDBRANCH   7   8
ENDBRANCH   6   7
ENDBRANCH   1   6
BRANCH   3  16
HETATM   16  O   UNL     1      14.675  19.172  23.508  1.00  0.00    -0.390 OA
ATOM     17  HO  UNL     1      15.024  18.342  23.205  1.00  0.00     0.210 HD
ENDBRANCH   3  16
BRANCH   4  18
HETATM   18  O   UNL     1      17.283  19.133  23.496  1.00  0.00    -0.388 OA
ATOM     19  HO  UNL     1      17.815  18.516  23.983  1.00  0.00     0.210 HD
ENDBRANCH   4  18
BRANCH   5  20
HETATM   20  N   UNL     1      17.630  22.314  23.789  1.00  0.00    -0.304 N 
HETATM   21  C   UNL     1      17.828  23.411  24.697  1.00  0.00     0.137 A 
HETATM   22  C   UNL     1      18.999  24.273  24.614  1.00  0.00     0.093 A 
HETATM   23  C   UNL     1      19.998  24.007  23.557  1.00  0.00     0.098 A 
HETATM   24  N   UNL     1      21.159  24.826  23.436  1.00  0.00    -0.087 NA
HETATM   25  N   UNL     1      19.800  22.929  22.641  1.00  0.00    -0.300 N 
HETATM   26  C   UNL     1      18.619  22.067  22.721  1.00  0.00     0.325 A 
ATOM     27  HN  UNL     1      20.495  22.756  21.916  1.00  0.00     0.171 HD
HETATM   28  O   UNL     1      18.471  21.177  21.951  1.00  0.00    -0.247 OA
ENDBRANCH   5  20
TORSDOF 8
ENDMDL
MODEL 14
REMARK VINA RESULT:    -8.749      1.085      2.158
REMARK INTER + INTRA:         -13.192
REMARK INTER:                 -12.760
REMARK INTRA:                  -0.432
REMARK UNBOUND:                -0.862
REMARK  8 active torsions:
REMARK  status: ('A' for Active; 'I' for Inactive)
REMARK    1  A    between atoms: P_2  and  O_5 
REMARK    2  A    between atoms: O_5  and  P_6 
REMARK    3  A    between atoms: P_6  and  O_9 
REMARK    4  A    between atoms: O_9  and  C_10 
REMARK    5  A    between atoms: C_10  and  C_11 
REMARK    6  A    between atoms: C_13  and  O_14 
REMARK    7  A    between atoms: C_16  and  O_17 
REMARK    8  A    between atoms: C_19  and  N_20 
ROOT
HETATM    1  C   UNL     1      12.149  20.179  28.821  1.00  0.00     0.180 C 
HETATM    2  O   UNL     1      11.863  19.306  30.001  1.00  0.00    -0.354 OA
HETATM    3  C   UNL     1      12.840  19.188  27.772  1.00  0.00     0.182 C 
HETATM    4  C   UNL     1      12.513  18.010  28.145  1.00  0.00     0.198 C 
HETATM    5  C   UNL     1      12.492  18.174  29.775  1.00  0.00     0.259 C 
ENDROOT
BRANCH   1   6
HETATM    6  C   UNL     1      10.945  20.726  28.359  1.00  0.00     0.216 C 
BRANCH   6   7
HETATM    7  O   UNL     1      10.576  21.791  29.187  1.00  0.00    -0.287 OA
BRANCH   7   8
HETATM    8  P   UNL     1       9.105  21.732  29.938  1.00  0.00     0.418 P 
HETATM    9  O   UNL     1       9.051  22.768  31.013  1.00  0.00    -0.624 OA
HETATM   10  O   UNL     1       8.971  20.350  30.480  1.00  0.00    -0.624 OA
BRANCH   8  11
HETATM   11  O   UNL     1       7.980  22.163  28.857  1.00  0.00    -0.173 OA
BRANCH  11  12
HETATM   12  P   UNL     1       8.167  22.808  27.376  1.00  0.00     0.431 P 
HETATM   13  O   UNL     1       6.810  23.270  26.890  1.00  0.00    -0.616 OA
HETATM   14  O   UNL     1       9.191  23.877  27.287  1.00  0.00    -0.616 OA
HETATM   15  O   UNL     1       8.584  21.653  26.480  1.00  0.00    -0.616 OA
ENDBRANCH  11  12
ENDBRANCH   8  11
ENDBRANCH   7   8
ENDBRANCH   6   7
ENDBRANCH   1   6
BRANCH   3  16
HETATM   16  O   UNL     1      14.325  19.447  27.834  1.00  0.00    -0.390 OA
ATOM     17  HO  UNL     1      14.608  19.831  28.655  1.00  0.00     0.210 HD
ENDBRANCH   3  16
BRANCH   4  18
HETATM   18  O   UNL     1      13.516  16.968  27.826  1.00  0.00    -0.388 OA
ATOM     19  HO  UNL     1      13.090  16.334  27.261  1.00  0.00     0.210 HD
ENDBRANCH   4  18
BRANCH   5  20
HETATM   20  N   UNL     1      11.778  17.211  30.518  1.00  0.00    -0.304 N 
HETATM   21  C   UNL     1      10.716  16.415  29.967  1.00  0.00     0.137 A 
HETATM   22  C   UNL     1       9.962  15.472  30.783  1.00  0.00     0.093 A 
HETATM   23  C   UNL     1      10.304  15.349  32.216  1.00  0.00     0.098 A 
HETATM   24  N   UNL     1       9.591  14.442  33.054  1.00  0.00    -0.087 NA
HETATM   25  N   UNL     1      11.348  16.150  32.774  1.00  0.00    -0.300 N 
HETATM   26  C   UNL     1      12.100  17.101  31.954  1.00  0.00     0.325 A 
ATOM     27  HN  UNL     1      11.573  16.057  33.764  1.00  0.00     0.171 HD
HETATM   28  O   UNL     1      12.963  17.758  32.435  1.00  0.00    -0.247 OA
ENDBRANCH   5  20
TORSDOF 8
ENDMDL
MODEL 15
REMARK VINA RESULT:    -8.737      4.245      6.437
REMARK INTER + INTRA:         -13.174
REMARK INTER:                 -12.500
REMARK INTRA:                  -0.674
REMARK UNBOUND:                -0.862
REMARK  8 active torsions:
REMARK  status: ('A' for Active; 'I' for Inactive)
REMARK    1  A    between atoms: P_2  and  O_5 
REMARK    2  A    between atoms: O_5  and  P_6 
REMARK    3  A    between atoms: P_6  and  O_9 
REMARK    4  A    between atoms: O_9  and  C_10 
REMARK    5  A    between atoms: C_10  and  C_11 
REMARK    6  A    between atoms: C_13  and  O_14 
REMARK    7  A    between atoms: C_16  and  O_17 
REMARK    8  A    between atoms: C_19  and  N_20 
ROOT
HETATM    1  C   UNL     1      13.766  19.179  26.488  1.00  0.00     0.180 C 
HETATM    2  O   UNL     1      13.069  18.138  27.305  1.00  0.00    -0.354 OA
HETATM    3  C   UNL     1      13.328  20.557  27.173  1.00  0.00     0.182 C 
HETATM    4  C   UNL     1      12.925  20.247  28.346  1.00  0.00     0.198 C 
HETATM    5  C   UNL     1      12.228  18.789  28.079  1.00  0.00     0.259 C 
ENDROOT
BRANCH   1   6
HETATM    6  C   UNL     1      15.147  18.948  26.541  1.00  0.00     0.216 C 
BRANCH   6   7
HETATM    7  O   UNL     1      15.824  20.142  26.275  1.00  0.00    -0.287 OA
BRANCH   7   8
HETATM    8  P   UNL     1      16.450  20.374  24.763  1.00  0.00     0.418 P 
HETATM    9  O   UNL     1      15.658  21.421  24.050  1.00  0.00    -0.624 OA
HETATM   10  O   UNL     1      16.382  19.051  24.078  1.00  0.00    -0.624 OA
BRANCH   8  11
HETATM   11  O   UNL     1      17.938  20.989  24.933  1.00  0.00    -0.173 OA
BRANCH  11  12
HETATM   12  P   UNL     1      18.560  22.365  24.330  1.00  0.00     0.431 P 
HETATM   13  O   UNL     1      18.843  22.148  22.860  1.00  0.00    -0.616 OA
HETATM   14  O   UNL     1      17.743  23.578  24.574  1.00  0.00    -0.616 OA
HETATM   15  O   UNL     1      19.907  22.534  25.016  1.00  0.00    -0.616 OA
ENDBRANCH  11  12
ENDBRANCH   8  11
ENDBRANCH   7   8
ENDBRANCH   6   7
ENDBRANCH   1   6
BRANCH   3  16
HETATM   16  O   UNL     1      12.248  21.156  26.305  1.00  0.00    -0.390 OA
ATOM     17  HO  UNL     1      11.411  21.238  26.747  1.00  0.00     0.210 HD
ENDBRANCH   3  16
BRANCH   4  18
HETATM   18  O   UNL     1      11.874  21.139  28.886  1.00  0.00    -0.388 OA
ATOM     19  HO  UNL     1      11.670  20.832  29.761  1.00  0.00     0.210 HD
ENDBRANCH   4  18
BRANCH   5  20
HETATM   20  N   UNL     1      12.036  17.945  29.191  1.00  0.00    -0.304 N 
HETATM   21  C   UNL     1      12.814  16.760  29.430  1.00  0.00     0.137 A 
HETATM   22  C   UNL     1      12.545  15.881  30.560  1.00  0.00     0.093 A 
HETATM   23  C   UNL     1      11.433  16.223  31.472  1.00  0.00     0.098 A 
HETATM   24  N   UNL     1      11.131  15.390  32.589  1.00  0.00    -0.087 NA
HETATM   25  N   UNL     1      10.644  17.390  31.231  1.00  0.00    -0.300 N 
HETATM   26  C   UNL     1      10.912  18.270  30.091  1.00  0.00     0.325 A 
ATOM     27  HN  UNL     1       9.879  17.616  31.865  1.00  0.00     0.171 HD
HETATM   28  O   UNL     1      10.245  19.234  29.907  1.00  0.00    -0.247 OA
ENDBRANCH   5  20
TORSDOF 8
ENDMDL
MODEL 16
REMARK VINA RESULT:    -8.597      6.082      8.941
REMARK INTER + INTRA:         -12.978
REMARK INTER:                 -12.360
REMARK INTRA:                  -0.618
REMARK UNBOUND:                -0.862
REMARK  8 active torsions:
REMARK  status: ('A' for Active; 'I' for Inactive)
REMARK    1  A    between atoms: P_2  and  O_5 
REMARK    2  A    between atoms: O_5  and  P_6 
REMARK    3  A    between atoms: P_6  and  O_9 
REMARK    4  A    between atoms: O_9  and  C_10 
REMARK    5  A    between atoms: C_10  and  C_11 
REMARK    6  A    between atoms: C_13  and  O_14 
REMARK    7  A    between atoms: C_16  and  O_17 
REMARK    8  A    between atoms: C_19  and  N_20 
ROOT
HETATM    1  C   UNL     1      15.304  19.830  23.881  1.00  0.00     0.180 C 
HETATM    2  O   UNL     1      14.144  19.424  24.734  1.00  0.00    -0.354 OA
HETATM    3  C   UNL     1      15.961  21.047  24.685  1.00  0.00     0.182 C 
HETATM    4  C   UNL     1      15.535  20.937  25.885  1.00  0.00     0.198 C 
HETATM    5  C   UNL     1      14.019  20.363  25.646  1.00  0.00     0.259 C 
ENDROOT
BRANCH   1   6
HETATM    6  C   UNL     1      16.164  18.734  23.733  1.00  0.00     0.216 C 
BRANCH   6   7
HETATM    7  O   UNL     1      17.028  18.969  22.659  1.00  0.00    -0.287 OA
BRANCH   7   8
HETATM    8  P   UNL     1      16.530  18.553  21.139  1.00  0.00     0.418 P 
HETATM    9  O   UNL     1      17.312  19.326  20.128  1.00  0.00    -0.624 OA
HETATM   10  O   UNL     1      15.073  18.861  21.082  1.00  0.00    -0.624 OA
BRANCH   8  11
HETATM   11  O   UNL     1      16.918  17.000  20.900  1.00  0.00    -0.173 OA
BRANCH  11  12
HETATM   12  P   UNL     1      18.211  16.167  21.428  1.00  0.00     0.431 P 
HETATM   13  O   UNL     1      17.897  15.638  22.811  1.00  0.00    -0.616 OA
HETATM   14  O   UNL     1      18.683  15.101  20.511  1.00  0.00    -0.616 OA
HETATM   15  O   UNL     1      19.317  17.197  21.594  1.00  0.00    -0.616 OA
ENDBRANCH  11  12
ENDBRANCH   8  11
ENDBRANCH   7   8
ENDBRANCH   6   7
ENDBRANCH   1   6
BRANCH   3  16
HETATM   16  O   UNL     1      15.514  22.317  24.003  1.00  0.00    -0.390 OA
ATOM     17  HO  UNL     1      14.737  22.205  23.468  1.00  0.00     0.210 HD
ENDBRANCH   3  16
BRANCH   4  18
HETATM   18  O   UNL     1      15.404  22.224  26.607  1.00  0.00    -0.388 OA
ATOM     19  HO  UNL     1      14.834  22.778  26.086  1.00  0.00     0.210 HD
ENDBRANCH   4  18
BRANCH   5  20
HETATM   20  N   UNL     1      13.384  19.729  26.732  1.00  0.00    -0.304 N 
HETATM   21  C   UNL     1      13.508  18.324  27.011  1.00  0.00     0.137 A 
HETATM   22  C   UNL     1      12.787  17.693  28.108  1.00  0.00     0.093 A 
HETATM   23  C   UNL     1      11.901  18.531  28.944  1.00  0.00     0.098 A 
HETATM   24  N   UNL     1      11.173  17.957  30.027  1.00  0.00    -0.087 NA
HETATM   25  N   UNL     1      11.759  19.925  28.662  1.00  0.00    -0.300 N 
HETATM   26  C   UNL     1      12.480  20.556  27.554  1.00  0.00     0.325 A 
ATOM     27  HN  UNL     1      11.144  20.492  29.244  1.00  0.00     0.171 HD
HETATM   28  O   UNL     1      12.348  21.715  27.335  1.00  0.00    -0.247 OA
ENDBRANCH   5  20
TORSDOF 8
ENDMDL
MODEL 17
REMARK VINA RESULT:    -8.442      4.164      6.992
REMARK INTER + INTRA:         -12.759
REMARK INTER:                 -11.933
REMARK INTRA:                  -0.826
REMARK UNBOUND:                -0.862
REMARK  8 active torsions:
REMARK  status: ('A' for Active; 'I' for Inactive)
REMARK    1  A    between atoms: P_2  and  O_5 
REMARK    2  A    between atoms: O_5  and  P_6 
REMARK    3  A    between atoms: P_6  and  O_9 
REMARK    4  A    between atoms: O_9  and  C_10 
REMARK    5  A    between atoms: C_10  and  C_11 
REMARK    6  A    between atoms: C_13  and  O_14 
REMARK    7  A    between atoms: C_16  and  O_17 
REMARK    8  A    between atoms: C_19  and  N_20 
ROOT
HETATM    1  C   UNL     1      13.599  18.269  28.328  1.00  0.00     0.180 C 
HETATM    2  O   UNL     1      12.947  19.571  28.672  1.00  0.00    -0.354 OA
HETATM    3  C   UNL     1      12.429  17.195  28.516  1.00  0.00     0.182 C 
HETATM    4  C   UNL     1      11.338  17.861  28.470  1.00  0.00     0.198 C 
HETATM    5  C   UNL     1      11.779  19.264  29.192  1.00  0.00     0.259 C 
ENDROOT
BRANCH   1   6
HETATM    6  C   UNL     1      14.085  18.338  27.015  1.00  0.00     0.216 C 
BRANCH   6   7
HETATM    7  O   UNL     1      13.806  19.602  26.487  1.00  0.00    -0.287 OA
BRANCH   7   8
HETATM    8  P   UNL     1      14.910  20.294  25.471  1.00  0.00     0.418 P 
HETATM    9  O   UNL     1      16.288  20.061  25.998  1.00  0.00    -0.624 OA
HETATM   10  O   UNL     1      14.567  21.743  25.411  1.00  0.00    -0.624 OA
BRANCH   8  11
HETATM   11  O   UNL     1      14.842  19.508  24.058  1.00  0.00    -0.173 OA
BRANCH  11  12
HETATM   12  P   UNL     1      15.891  19.525  22.816  1.00  0.00     0.431 P 
HETATM   13  O   UNL     1      17.096  18.697  23.208  1.00  0.00    -0.616 OA
HETATM   14  O   UNL     1      15.321  19.108  21.512  1.00  0.00    -0.616 OA
HETATM   15  O   UNL     1      16.365  20.965  22.706  1.00  0.00    -0.616 OA
ENDBRANCH  11  12
ENDBRANCH   8  11
ENDBRANCH   7   8
ENDBRANCH   6   7
ENDBRANCH   1   6
BRANCH   3  16
HETATM   16  O   UNL     1      12.662  16.517  29.844  1.00  0.00    -0.390 OA
ATOM     17  HO  UNL     1      11.910  16.551  30.423  1.00  0.00     0.210 HD
ENDBRANCH   3  16
BRANCH   4  18
HETATM   18  O   UNL     1      10.236  17.285  29.274  1.00  0.00    -0.388 OA
ATOM     19  HO  UNL     1      10.446  16.371  29.419  1.00  0.00     0.210 HD
ENDBRANCH   4  18
BRANCH   5  20
HETATM   20  N   UNL     1      10.973  20.397  28.962  1.00  0.00    -0.304 N 
HETATM   21  C   UNL     1      11.377  21.499  28.132  1.00  0.00     0.137 A 
HETATM   22  C   UNL     1      10.540  22.681  27.966  1.00  0.00     0.093 A 
HETATM   23  C   UNL     1       9.248  22.737  28.684  1.00  0.00     0.098 A 
HETATM   24  N   UNL     1       8.398  23.874  28.555  1.00  0.00    -0.087 NA
HETATM   25  N   UNL     1       8.850  21.653  29.524  1.00  0.00    -0.300 N 
HETATM   26  C   UNL     1       9.694  20.469  29.695  1.00  0.00     0.325 A 
ATOM     27  HN  UNL     1       7.958  21.704  30.016  1.00  0.00     0.171 HD
HETATM   28  O   UNL     1       9.346  19.579  30.398  1.00  0.00    -0.247 OA
ENDBRANCH   5  20
TORSDOF 8
ENDMDL
MODEL 18
REMARK VINA RESULT:    -8.435      6.388      9.161
REMARK INTER + INTRA:         -12.749
REMARK INTER:                 -11.913
REMARK INTRA:                  -0.836
REMARK UNBOUND:                -0.862
REMARK  8 active torsions:
REMARK  status: ('A' for Active; 'I' for Inactive)
REMARK    1  A    between atoms: P_2  and  O_5 
REMARK    2  A    between atoms: O_5  and  P_6 
REMARK    3  A    between atoms: P_6  and  O_9 
REMARK    4  A    between atoms: O_9  and  C_10 
REMARK    5  A    between atoms: C_10  and  C_11 
REMARK    6  A    between atoms: C_13  and  O_14 
REMARK    7  A    between atoms: C_16  and  O_17 
REMARK    8  A    between atoms: C_19  and  N_20 
ROOT
HETATM    1  C   UNL     1      15.730  19.986  23.378  1.00  0.00     0.180 C 
HETATM    2  O   UNL     1      14.616  19.653  24.319  1.00  0.00    -0.354 OA
HETATM    3  C   UNL     1      16.355  21.327  23.987  1.00  0.00     0.182 C 
HETATM    4  C   UNL     1      15.972  21.363  25.206  1.00  0.00     0.198 C 
HETATM    5  C   UNL     1      14.477  20.701  25.101  1.00  0.00     0.259 C 
ENDROOT
BRANCH   1   6
HETATM    6  C   UNL     1      16.633  18.916  23.347  1.00  0.00     0.216 C 
BRANCH   6   7
HETATM    7  O   UNL     1      17.738  19.269  22.565  1.00  0.00    -0.287 OA
BRANCH   7   8
HETATM    8  P   UNL     1      18.044  18.400  21.193  1.00  0.00     0.418 P 
HETATM    9  O   UNL     1      19.294  17.604  21.375  1.00  0.00    -0.624 OA
HETATM   10  O   UNL     1      18.165  19.396  20.090  1.00  0.00    -0.624 OA
BRANCH   8  11
HETATM   11  O   UNL     1      16.854  17.317  21.018  1.00  0.00    -0.173 OA
BRANCH  11  12
HETATM   12  P   UNL     1      15.461  17.440  20.189  1.00  0.00     0.431 P 
HETATM   13  O   UNL     1      14.790  18.736  20.587  1.00  0.00    -0.616 OA
HETATM   14  O   UNL     1      15.597  17.305  18.718  1.00  0.00    -0.616 OA
HETATM   15  O   UNL     1      14.581  16.313  20.706  1.00  0.00    -0.616 OA
ENDBRANCH  11  12
ENDBRANCH   8  11
ENDBRANCH   7   8
ENDBRANCH   6   7
ENDBRANCH   1   6
BRANCH   3  16
HETATM   16  O   UNL     1      15.831  22.473  23.159  1.00  0.00    -0.390 OA
ATOM     17  HO  UNL     1      15.204  23.017  23.620  1.00  0.00     0.210 HD
ENDBRANCH   3  16
BRANCH   4  18
HETATM   18  O   UNL     1      15.805  22.729  25.754  1.00  0.00    -0.388 OA
ATOM     19  HO  UNL     1      15.005  23.082  25.382  1.00  0.00     0.210 HD
ENDBRANCH   4  18
BRANCH   5  20
HETATM   20  N   UNL     1      13.904  20.193  26.285  1.00  0.00    -0.304 N 
HETATM   21  C   UNL     1      13.945  18.804  26.651  1.00  0.00     0.137 A 
HETATM   22  C   UNL     1      13.289  18.308  27.854  1.00  0.00     0.093 A 
HETATM   23  C   UNL     1      12.558  19.271  28.706  1.00  0.00     0.098 A 
HETATM   24  N   UNL     1      11.898  18.831  29.891  1.00  0.00    -0.087 NA
HETATM   25  N   UNL     1      12.499  20.650  28.338  1.00  0.00    -0.300 N 
HETATM   26  C   UNL     1      13.153  21.145  27.126  1.00  0.00     0.325 A 
ATOM     27  HN  UNL     1      11.990  21.304  28.933  1.00  0.00     0.171 HD
HETATM   28  O   UNL     1      13.092  22.295  26.837  1.00  0.00    -0.247 OA
ENDBRANCH   5  20
TORSDOF 8
ENDMDL
MODEL 19
REMARK VINA RESULT:    -8.247      4.273      7.302
REMARK INTER + INTRA:         -12.484
REMARK INTER:                 -11.742
REMARK INTRA:                  -0.742
REMARK UNBOUND:                -0.862
REMARK  8 active torsions:
REMARK  status: ('A' for Active; 'I' for Inactive)
REMARK    1  A    between atoms: P_2  and  O_5 
REMARK    2  A    between atoms: O_5  and  P_6 
REMARK    3  A    between atoms: P_6  and  O_9 
REMARK    4  A    between atoms: O_9  and  C_10 
REMARK    5  A    between atoms: C_10  and  C_11 
REMARK    6  A    between atoms: C_13  and  O_14 
REMARK    7  A    between atoms: C_16  and  O_17 
REMARK    8  A    between atoms: C_19  and  N_20 
ROOT
HETATM    1  C   UNL     1      12.611  19.177  29.539  1.00  0.00     0.180 C 
HETATM    2  O   UNL     1      13.734  19.808  28.778  1.00  0.00    -0.354 OA
HETATM    3  C   UNL     1      11.306  19.606  28.719  1.00  0.00     0.182 C 
HETATM    4  C   UNL     1      11.723  19.939  27.557  1.00  0.00     0.198 C 
HETATM    5  C   UNL     1      13.171  20.620  27.909  1.00  0.00     0.259 C 
ENDROOT
BRANCH   1   6
HETATM    6  C   UNL     1      12.812  17.791  29.578  1.00  0.00     0.216 C 
BRANCH   6   7
HETATM    7  O   UNL     1      11.688  17.148  29.051  1.00  0.00    -0.287 OA
BRANCH   7   8
HETATM    8  P   UNL     1      10.898  16.041  29.991  1.00  0.00     0.418 P 
HETATM    9  O   UNL     1      11.857  14.983  30.428  1.00  0.00    -0.624 OA
HETATM   10  O   UNL     1       9.798  15.492  29.148  1.00  0.00    -0.624 OA
BRANCH   8  11
HETATM   11  O   UNL     1      10.424  16.791  31.344  1.00  0.00    -0.173 OA
BRANCH  11  12
HETATM   12  P   UNL     1      11.098  16.772  32.824  1.00  0.00     0.431 P 
HETATM   13  O   UNL     1      11.060  15.350  33.339  1.00  0.00    -0.616 OA
HETATM   14  O   UNL     1      12.457  17.362  32.898  1.00  0.00    -0.616 OA
HETATM   15  O   UNL     1      10.162  17.583  33.706  1.00  0.00    -0.616 OA
ENDBRANCH  11  12
ENDBRANCH   8  11
ENDBRANCH   7   8
ENDBRANCH   6   7
ENDBRANCH   1   6
BRANCH   3  16
HETATM   16  O   UNL     1      10.665  20.742  29.476  1.00  0.00    -0.390 OA
ATOM     17  HO  UNL     1       9.791  20.542  29.789  1.00  0.00     0.210 HD
ENDBRANCH   3  16
BRANCH   4  18
HETATM   18  O   UNL     1      10.905  20.978  26.890  1.00  0.00    -0.388 OA
ATOM     19  HO  UNL     1      11.203  21.818  27.215  1.00  0.00     0.210 HD
ENDBRANCH   4  18
BRANCH   5  20
HETATM   20  N   UNL     1      14.108  20.735  26.864  1.00  0.00    -0.304 N 
HETATM   21  C   UNL     1      15.149  19.772  26.624  1.00  0.00     0.137 A 
HETATM   22  C   UNL     1      16.136  19.956  25.569  1.00  0.00     0.093 A 
HETATM   23  C   UNL     1      16.060  21.176  24.736  1.00  0.00     0.098 A 
HETATM   24  N   UNL     1      17.007  21.401  23.695  1.00  0.00    -0.087 NA
HETATM   25  N   UNL     1      15.039  22.146  24.981  1.00  0.00    -0.300 N 
HETATM   26  C   UNL     1      14.051  21.962  26.045  1.00  0.00     0.325 A 
ATOM     27  HN  UNL     1      14.997  22.983  24.401  1.00  0.00     0.171 HD
HETATM   28  O   UNL     1      13.211  22.778  26.233  1.00  0.00    -0.247 OA
ENDBRANCH   5  20
TORSDOF 8
ENDMDL
