MODEL 1
REMARK VINA RESULT:    -9.248      0.000      0.000
REMARK INTER + INTRA:         -12.592
REMARK INTER:                 -11.951
REMARK INTRA:                  -0.641
REMARK UNBOUND:                -0.641
REMARK  6 active torsions:
REMARK  status: ('A' for Active; 'I' for Inactive)
REMARK    1  A    between atoms: P_1  and  O_5 
REMARK    2  A    between atoms: O_5  and  C_6 
REMARK    3  A    between atoms: C_6  and  C_7 
REMARK    4  A    between atoms: C_9  and  O_10 
REMARK    5  A    between atoms: C_13  and  N_14 
REMARK    6  A    between atoms: C_23  and  N_24 
ROOT
HETATM    1  N   UNL     1     -41.858  30.800   9.518  1.00  0.00    -0.299 N 
HETATM    2  C   UNL     1     -42.331  31.042   8.251  1.00  0.00     0.188 A 
HETATM    3  N   UNL     1     -41.686  30.381   7.320  1.00  0.00    -0.345 N 
ATOM      4  HN  UNL     1     -41.855  30.391   6.314  1.00  0.00     0.167 HD
HETATM    5  C   UNL     1     -40.721  29.665   8.013  1.00  0.00     0.147 A 
HETATM    6  C   UNL     1     -39.721  28.752   7.549  1.00  0.00     0.290 A 
HETATM    7  O   UNL     1     -39.521  28.409   6.385  1.00  0.00    -0.265 OA
HETATM    8  N   UNL     1     -38.959  28.245   8.586  1.00  0.00    -0.154 N 
ATOM      9  HN  UNL     1     -38.218  27.585   8.350  1.00  0.00     0.187 HD
HETATM   10  C   UNL     1     -39.127  28.563   9.914  1.00  0.00     0.680 A 
HETATM   11  N   UNL     1     -40.054  29.416  10.356  1.00  0.00    -0.174 N 
ATOM     12  HN  UNL     1     -40.174  29.658  11.339  1.00  0.00     0.186 HD
HETATM   13  C   UNL     1     -40.809  29.919   9.368  1.00  0.00     0.159 A 
ENDROOT
BRANCH   1  14
HETATM   14  C   UNL     1     -42.441  31.299  10.769  1.00  0.00     0.233 C 
HETATM   15  O   UNL     1     -43.758  31.746  10.475  1.00  0.00    -0.356 OA
HETATM   16  C   UNL     1     -44.034  32.978  11.175  1.00  0.00     0.177 C 
HETATM   17  C   UNL     1     -42.833  33.223  12.089  1.00  0.00     0.153 C 
HETATM   18  C   UNL     1     -41.709  32.491  11.366  1.00  0.00     0.088 C 
BRANCH  16  19
HETATM   19  C   UNL     1     -44.325  34.063  10.164  1.00  0.00     0.217 C 
BRANCH  19  20
HETATM   20  O   UNL     1     -44.353  33.507   8.829  1.00  0.00    -0.280 OA
BRANCH  20  21
HETATM   21  P   UNL     1     -44.158  34.415   7.486  1.00  0.00     0.422 P 
HETATM   22  O   UNL     1     -45.028  35.633   7.633  1.00  0.00    -0.617 OA
HETATM   23  O   UNL     1     -44.584  33.555   6.268  1.00  0.00    -0.617 OA
HETATM   24  O   UNL     1     -42.662  34.809   7.367  1.00  0.00    -0.617 OA
ENDBRANCH  20  21
ENDBRANCH  19  20
ENDBRANCH  16  19
BRANCH  17  25
HETATM   25  O   UNL     1     -43.062  32.632  13.371  1.00  0.00    -0.393 OA
ATOM     26  HO  UNL     1     -42.257  32.256  13.706  1.00  0.00     0.210 HD
ENDBRANCH  17  25
ENDBRANCH   1  14
BRANCH  10  27
HETATM   27  N   UNL     1     -38.317  27.956  10.794  1.00  0.00    -0.234 N 
ATOM     28  HN2 UNL     1     -37.404  28.363  10.998  1.00  0.00     0.174 HD
ATOM     29  HN1 UNL     1     -38.668  27.107  11.238  1.00  0.00     0.174 HD
ENDBRANCH  10  27
TORSDOF 6
ENDMDL
MODEL 2
REMARK VINA RESULT:    -8.404      1.842      2.316
REMARK INTER + INTRA:         -11.501
REMARK INTER:                 -10.919
REMARK INTRA:                  -0.582
REMARK UNBOUND:                -0.641
REMARK  6 active torsions:
REMARK  status: ('A' for Active; 'I' for Inactive)
REMARK    1  A    between atoms: P_1  and  O_5 
REMARK    2  A    between atoms: O_5  and  C_6 
REMARK    3  A    between atoms: C_6  and  C_7 
REMARK    4  A    between atoms: C_9  and  O_10 
REMARK    5  A    between atoms: C_13  and  N_14 
REMARK    6  A    between atoms: C_23  and  N_24 
ROOT
HETATM    1  N   UNL     1     -42.132  31.335   9.575  1.00  0.00    -0.299 N 
HETATM    2  C   UNL     1     -41.699  31.228   8.276  1.00  0.00     0.188 A 
HETATM    3  N   UNL     1     -40.697  30.394   8.129  1.00  0.00    -0.345 N 
ATOM      4  HN  UNL     1     -40.212  30.145   7.267  1.00  0.00     0.167 HD
HETATM    5  C   UNL     1     -40.447  29.928   9.411  1.00  0.00     0.147 A 
HETATM    6  C   UNL     1     -39.482  28.986   9.892  1.00  0.00     0.290 A 
HETATM    7  O   UNL     1     -38.651  28.378   9.222  1.00  0.00    -0.265 OA
HETATM    8  N   UNL     1     -39.580  28.796  11.259  1.00  0.00    -0.154 N 
ATOM      9  HN  UNL     1     -38.928  28.141  11.692  1.00  0.00     0.187 HD
HETATM   10  C   UNL     1     -40.489  29.424  12.078  1.00  0.00     0.680 A 
HETATM   11  N   UNL     1     -41.389  30.305  11.640  1.00  0.00    -0.174 N 
ATOM     12  HN  UNL     1     -42.060  30.777  12.247  1.00  0.00     0.186 HD
HETATM   13  C   UNL     1     -41.318  30.505  10.314  1.00  0.00     0.159 A 
ENDROOT
BRANCH   1  14
HETATM   14  C   UNL     1     -43.299  32.095  10.037  1.00  0.00     0.233 C 
HETATM   15  O   UNL     1     -44.100  32.378   8.898  1.00  0.00    -0.356 OA
HETATM   16  C   UNL     1     -44.609  33.728   8.968  1.00  0.00     0.177 C 
HETATM   17  C   UNL     1     -44.202  34.260  10.343  1.00  0.00     0.153 C 
HETATM   18  C   UNL     1     -42.960  33.438  10.666  1.00  0.00     0.088 C 
BRANCH  16  19
HETATM   19  C   UNL     1     -44.096  34.509   7.781  1.00  0.00     0.217 C 
BRANCH  19  20
HETATM   20  O   UNL     1     -44.357  33.784   6.557  1.00  0.00    -0.280 OA
BRANCH  20  21
HETATM   21  P   UNL     1     -45.355  34.341   5.391  1.00  0.00     0.422 P 
HETATM   22  O   UNL     1     -46.735  34.428   5.981  1.00  0.00    -0.617 OA
HETATM   23  O   UNL     1     -45.304  33.340   4.207  1.00  0.00    -0.617 OA
HETATM   24  O   UNL     1     -44.854  35.737   4.936  1.00  0.00    -0.617 OA
ENDBRANCH  20  21
ENDBRANCH  19  20
ENDBRANCH  16  19
BRANCH  17  25
HETATM   25  O   UNL     1     -45.232  33.995  11.298  1.00  0.00    -0.393 OA
ATOM     26  HO  UNL     1     -45.975  34.567  11.146  1.00  0.00     0.210 HD
ENDBRANCH  17  25
ENDBRANCH   1  14
BRANCH  10  27
HETATM   27  N   UNL     1     -40.463  29.100  13.379  1.00  0.00    -0.234 N 
ATOM     28  HN2 UNL     1     -41.003  28.299  13.708  1.00  0.00     0.174 HD
ATOM     29  HN1 UNL     1     -39.879  29.674  13.988  1.00  0.00     0.174 HD
ENDBRANCH  10  27
TORSDOF 6
ENDMDL
MODEL 3
REMARK VINA RESULT:    -8.308      1.800      2.786
REMARK INTER + INTRA:         -11.378
REMARK INTER:                 -10.659
REMARK INTRA:                  -0.719
REMARK UNBOUND:                -0.641
REMARK  6 active torsions:
REMARK  status: ('A' for Active; 'I' for Inactive)
REMARK    1  A    between atoms: P_1  and  O_5 
REMARK    2  A    between atoms: O_5  and  C_6 
REMARK    3  A    between atoms: C_6  and  C_7 
REMARK    4  A    between atoms: C_9  and  O_10 
REMARK    5  A    between atoms: C_13  and  N_14 
REMARK    6  A    between atoms: C_23  and  N_24 
ROOT
HETATM    1  N   UNL     1     -41.356  30.461  11.618  1.00  0.00    -0.299 N 
HETATM    2  C   UNL     1     -40.960  29.856  12.786  1.00  0.00     0.188 A 
HETATM    3  N   UNL     1     -39.984  28.996  12.621  1.00  0.00    -0.345 N 
ATOM      4  HN  UNL     1     -39.521  28.432  13.334  1.00  0.00     0.167 HD
HETATM    5  C   UNL     1     -39.724  29.027  11.259  1.00  0.00     0.147 A 
HETATM    6  C   UNL     1     -38.760  28.317  10.474  1.00  0.00     0.290 A 
HETATM    7  O   UNL     1     -37.933  27.505  10.884  1.00  0.00    -0.265 OA
HETATM    8  N   UNL     1     -38.832  28.654   9.135  1.00  0.00    -0.154 N 
ATOM      9  HN  UNL     1     -38.182  28.195   8.497  1.00  0.00     0.187 HD
HETATM   10  C   UNL     1     -39.715  29.563   8.598  1.00  0.00     0.680 A 
HETATM   11  N   UNL     1     -40.619  30.226   9.320  1.00  0.00    -0.174 N 
ATOM     12  HN  UNL     1     -41.279  30.895   8.923  1.00  0.00     0.186 HD
HETATM   13  C   UNL     1     -40.567  29.920  10.626  1.00  0.00     0.159 A 
ENDROOT
BRANCH   1  14
HETATM   14  C   UNL     1     -42.339  31.543  11.494  1.00  0.00     0.233 C 
HETATM   15  O   UNL     1     -43.163  31.243  10.376  1.00  0.00    -0.356 OA
HETATM   16  C   UNL     1     -43.428  32.441   9.615  1.00  0.00     0.177 C 
HETATM   17  C   UNL     1     -42.835  33.595  10.425  1.00  0.00     0.153 C 
HETATM   18  C   UNL     1     -41.730  32.910  11.222  1.00  0.00     0.088 C 
BRANCH  16  19
HETATM   19  C   UNL     1     -42.880  32.268   8.217  1.00  0.00     0.217 C 
BRANCH  19  20
HETATM   20  O   UNL     1     -43.804  32.816   7.248  1.00  0.00    -0.280 OA
BRANCH  20  21
HETATM   21  P   UNL     1     -43.848  34.402   6.863  1.00  0.00     0.422 P 
HETATM   22  O   UNL     1     -42.438  34.921   6.917  1.00  0.00    -0.617 OA
HETATM   23  O   UNL     1     -44.758  35.115   7.898  1.00  0.00    -0.617 OA
HETATM   24  O   UNL     1     -44.442  34.548   5.437  1.00  0.00    -0.617 OA
ENDBRANCH  20  21
ENDBRANCH  19  20
ENDBRANCH  16  19
BRANCH  17  25
HETATM   25  O   UNL     1     -43.820  34.133  11.309  1.00  0.00    -0.393 OA
ATOM     26  HO  UNL     1     -44.623  33.628  11.251  1.00  0.00     0.210 HD
ENDBRANCH  17  25
ENDBRANCH   1  14
BRANCH  10  27
HETATM   27  N   UNL     1     -39.628  29.791   7.279  1.00  0.00    -0.234 N 
ATOM     28  HN2 UNL     1     -40.380  30.295   6.808  1.00  0.00     0.174 HD
ATOM     29  HN1 UNL     1     -38.789  29.457   6.805  1.00  0.00     0.174 HD
ENDBRANCH  10  27
TORSDOF 6
ENDMDL
MODEL 4
REMARK VINA RESULT:    -8.248      2.613      5.500
REMARK INTER + INTRA:         -11.300
REMARK INTER:                 -10.104
REMARK INTRA:                  -1.196
REMARK UNBOUND:                -0.641
REMARK  6 active torsions:
REMARK  status: ('A' for Active; 'I' for Inactive)
REMARK    1  A    between atoms: P_1  and  O_5 
REMARK    2  A    between atoms: O_5  and  C_6 
REMARK    3  A    between atoms: C_6  and  C_7 
REMARK    4  A    between atoms: C_9  and  O_10 
REMARK    5  A    between atoms: C_13  and  N_14 
REMARK    6  A    between atoms: C_23  and  N_24 
ROOT
HETATM    1  N   UNL     1     -43.723  32.392  11.175  1.00  0.00    -0.299 N 
HETATM    2  C   UNL     1     -44.319  33.103  12.188  1.00  0.00     0.188 A 
HETATM    3  N   UNL     1     -43.822  32.837  13.372  1.00  0.00    -0.345 N 
ATOM      4  HN  UNL     1     -44.094  33.240  14.269  1.00  0.00     0.167 HD
HETATM    5  C   UNL     1     -42.843  31.885  13.128  1.00  0.00     0.147 A 
HETATM    6  C   UNL     1     -41.946  31.216  14.021  1.00  0.00     0.290 A 
HETATM    7  O   UNL     1     -41.869  31.371  15.238  1.00  0.00    -0.265 OA
HETATM    8  N   UNL     1     -41.113  30.335  13.355  1.00  0.00    -0.154 N 
ATOM      9  HN  UNL     1     -40.439  29.810  13.913  1.00  0.00     0.187 HD
HETATM   10  C   UNL     1     -41.124  30.115  11.998  1.00  0.00     0.680 A 
HETATM   11  N   UNL     1     -41.958  30.731  11.158  1.00  0.00    -0.174 N 
ATOM     12  HN  UNL     1     -41.973  30.563  10.152  1.00  0.00     0.186 HD
HETATM   13  C   UNL     1     -42.776  31.595  11.779  1.00  0.00     0.159 A 
ENDROOT
BRANCH   1  14
HETATM   14  C   UNL     1     -43.980  32.552   9.739  1.00  0.00     0.233 C 
HETATM   15  O   UNL     1     -43.540  31.364   9.094  1.00  0.00    -0.356 OA
HETATM   16  C   UNL     1     -42.864  31.688   7.859  1.00  0.00     0.177 C 
HETATM   17  C   UNL     1     -43.041  33.194   7.664  1.00  0.00     0.153 C 
HETATM   18  C   UNL     1     -43.216  33.697   9.093  1.00  0.00     0.088 C 
BRANCH  16  19
HETATM   19  C   UNL     1     -41.438  31.196   7.935  1.00  0.00     0.217 C 
BRANCH  19  20
HETATM   20  O   UNL     1     -41.414  29.758   8.093  1.00  0.00    -0.280 OA
BRANCH  20  21
HETATM   21  P   UNL     1     -40.036  28.883   8.042  1.00  0.00     0.422 P 
HETATM   22  O   UNL     1     -38.942  29.725   8.637  1.00  0.00    -0.617 OA
HETATM   23  O   UNL     1     -39.748  28.541   6.557  1.00  0.00    -0.617 OA
HETATM   24  O   UNL     1     -40.246  27.582   8.862  1.00  0.00    -0.617 OA
ENDBRANCH  20  21
ENDBRANCH  19  20
ENDBRANCH  16  19
BRANCH  17  25
HETATM   25  O   UNL     1     -44.220  33.457   6.900  1.00  0.00    -0.393 OA
ATOM     26  HO  UNL     1     -44.177  34.328   6.522  1.00  0.00     0.210 HD
ENDBRANCH  17  25
ENDBRANCH   1  14
BRANCH  10  27
HETATM   27  N   UNL     1     -40.225  29.245  11.513  1.00  0.00    -0.234 N 
ATOM     28  HN2 UNL     1     -40.522  28.298  11.275  1.00  0.00     0.174 HD
ATOM     29  HN1 UNL     1     -39.271  29.584  11.389  1.00  0.00     0.174 HD
ENDBRANCH  10  27
TORSDOF 6
ENDMDL
MODEL 5
REMARK VINA RESULT:    -8.173      5.170      8.238
REMARK INTER + INTRA:         -11.203
REMARK INTER:                 -10.509
REMARK INTRA:                  -0.694
REMARK UNBOUND:                -0.641
REMARK  6 active torsions:
REMARK  status: ('A' for Active; 'I' for Inactive)
REMARK    1  A    between atoms: P_1  and  O_5 
REMARK    2  A    between atoms: O_5  and  C_6 
REMARK    3  A    between atoms: C_6  and  C_7 
REMARK    4  A    between atoms: C_9  and  O_10 
REMARK    5  A    between atoms: C_13  and  N_14 
REMARK    6  A    between atoms: C_23  and  N_24 
ROOT
HETATM    1  N   UNL     1     -45.609  35.401   6.522  1.00  0.00    -0.299 N 
HETATM    2  C   UNL     1     -45.188  36.543   5.885  1.00  0.00     0.188 A 
HETATM    3  N   UNL     1     -46.113  37.471   5.818  1.00  0.00    -0.345 N 
ATOM      4  HN  UNL     1     -46.038  38.399   5.402  1.00  0.00     0.167 HD
HETATM    5  C   UNL     1     -47.215  36.904   6.440  1.00  0.00     0.147 A 
HETATM    6  C   UNL     1     -48.523  37.431   6.689  1.00  0.00     0.290 A 
HETATM    7  O   UNL     1     -48.935  38.548   6.384  1.00  0.00    -0.265 OA
HETATM    8  N   UNL     1     -49.329  36.526   7.355  1.00  0.00    -0.154 N 
ATOM      9  HN  UNL     1     -50.283  36.815   7.574  1.00  0.00     0.187 HD
HETATM   10  C   UNL     1     -48.941  35.265   7.745  1.00  0.00     0.680 A 
HETATM   11  N   UNL     1     -47.727  34.764   7.515  1.00  0.00    -0.174 N 
ATOM     12  HN  UNL     1     -47.440  33.826   7.797  1.00  0.00     0.186 HD
HETATM   13  C   UNL     1     -46.923  35.625   6.872  1.00  0.00     0.159 A 
ENDROOT
BRANCH   1  14
HETATM   14  C   UNL     1     -44.777  34.238   6.852  1.00  0.00     0.233 C 
HETATM   15  O   UNL     1     -45.262  33.702   8.076  1.00  0.00    -0.356 OA
HETATM   16  C   UNL     1     -44.160  33.312   8.922  1.00  0.00     0.177 C 
HETATM   17  C   UNL     1     -42.897  33.489   8.078  1.00  0.00     0.153 C 
HETATM   18  C   UNL     1     -43.310  34.566   7.082  1.00  0.00     0.088 C 
BRANCH  16  19
HETATM   19  C   UNL     1     -44.213  34.112  10.202  1.00  0.00     0.217 C 
BRANCH  19  20
HETATM   20  O   UNL     1     -43.115  33.742  11.068  1.00  0.00    -0.280 OA
BRANCH  20  21
HETATM   21  P   UNL     1     -43.283  32.709  12.321  1.00  0.00     0.422 P 
HETATM   22  O   UNL     1     -44.685  32.168  12.277  1.00  0.00    -0.617 OA
HETATM   23  O   UNL     1     -43.019  33.502  13.627  1.00  0.00    -0.617 OA
HETATM   24  O   UNL     1     -42.241  31.570  12.165  1.00  0.00    -0.617 OA
ENDBRANCH  20  21
ENDBRANCH  19  20
ENDBRANCH  16  19
BRANCH  17  25
HETATM   25  O   UNL     1     -42.589  32.274   7.391  1.00  0.00    -0.393 OA
ATOM     26  HO  UNL     1     -41.892  31.811   7.841  1.00  0.00     0.210 HD
ENDBRANCH  17  25
ENDBRANCH   1  14
BRANCH  10  27
HETATM   27  N   UNL     1     -49.844  34.528   8.409  1.00  0.00    -0.234 N 
ATOM     28  HN2 UNL     1     -50.651  34.986   8.834  1.00  0.00     0.174 HD
ATOM     29  HN1 UNL     1     -49.685  33.521   8.443  1.00  0.00     0.174 HD
ENDBRANCH  10  27
TORSDOF 6
ENDMDL
MODEL 6
REMARK VINA RESULT:    -8.039      7.133      9.636
REMARK INTER + INTRA:         -11.029
REMARK INTER:                 -10.513
REMARK INTRA:                  -0.517
REMARK UNBOUND:                -0.641
REMARK  6 active torsions:
REMARK  status: ('A' for Active; 'I' for Inactive)
REMARK    1  A    between atoms: P_1  and  O_5 
REMARK    2  A    between atoms: O_5  and  C_6 
REMARK    3  A    between atoms: C_6  and  C_7 
REMARK    4  A    between atoms: C_9  and  O_10 
REMARK    5  A    between atoms: C_13  and  N_14 
REMARK    6  A    between atoms: C_23  and  N_24 
ROOT
HETATM    1  N   UNL     1     -49.160  36.342   5.484  1.00  0.00    -0.299 N 
HETATM    2  C   UNL     1     -50.004  36.367   4.401  1.00  0.00     0.188 A 
HETATM    3  N   UNL     1     -51.180  35.840   4.646  1.00  0.00    -0.345 N 
ATOM      4  HN  UNL     1     -51.970  35.749   4.007  1.00  0.00     0.167 HD
HETATM    5  C   UNL     1     -51.105  35.433   5.969  1.00  0.00     0.147 A 
HETATM    6  C   UNL     1     -52.077  34.801   6.810  1.00  0.00     0.290 A 
HETATM    7  O   UNL     1     -53.224  34.487   6.499  1.00  0.00    -0.265 OA
HETATM    8  N   UNL     1     -51.590  34.573   8.084  1.00  0.00    -0.154 N 
ATOM      9  HN  UNL     1     -52.214  34.123   8.754  1.00  0.00     0.187 HD
HETATM   10  C   UNL     1     -50.328  34.907   8.516  1.00  0.00     0.680 A 
HETATM   11  N   UNL     1     -49.414  35.492   7.740  1.00  0.00    -0.174 N 
ATOM     12  HN  UNL     1     -48.475  35.734   8.057  1.00  0.00     0.186 HD
HETATM   13  C   UNL     1     -49.863  35.729   6.497  1.00  0.00     0.159 A 
ENDROOT
BRANCH   1  14
HETATM   14  C   UNL     1     -47.828  36.954   5.557  1.00  0.00     0.233 C 
HETATM   15  O   UNL     1     -46.879  35.899   5.636  1.00  0.00    -0.356 OA
HETATM   16  C   UNL     1     -45.843  36.229   6.585  1.00  0.00     0.177 C 
HETATM   17  C   UNL     1     -46.106  37.674   7.011  1.00  0.00     0.153 C 
HETATM   18  C   UNL     1     -47.606  37.820   6.788  1.00  0.00     0.088 C 
BRANCH  16  19
HETATM   19  C   UNL     1     -45.848  35.204   7.696  1.00  0.00     0.217 C 
BRANCH  19  20
HETATM   20  O   UNL     1     -44.541  35.131   8.312  1.00  0.00    -0.280 OA
BRANCH  20  21
HETATM   21  P   UNL     1     -43.347  34.172   7.747  1.00  0.00     0.422 P 
HETATM   22  O   UNL     1     -43.992  32.994   7.073  1.00  0.00    -0.617 OA
HETATM   23  O   UNL     1     -42.481  33.733   8.957  1.00  0.00    -0.617 OA
HETATM   24  O   UNL     1     -42.490  34.989   6.743  1.00  0.00    -0.617 OA
ENDBRANCH  20  21
ENDBRANCH  19  20
ENDBRANCH  16  19
BRANCH  17  25
HETATM   25  O   UNL     1     -45.391  38.575   6.163  1.00  0.00    -0.393 OA
ATOM     26  HO  UNL     1     -45.431  39.457   6.514  1.00  0.00     0.210 HD
ENDBRANCH  17  25
ENDBRANCH   1  14
BRANCH  10  27
HETATM   27  N   UNL     1     -50.030  34.638   9.796  1.00  0.00    -0.234 N 
ATOM     28  HN2 UNL     1     -49.469  33.815  10.018  1.00  0.00     0.174 HD
ATOM     29  HN1 UNL     1     -50.373  35.293  10.500  1.00  0.00     0.174 HD
ENDBRANCH  10  27
TORSDOF 6
ENDMDL
MODEL 7
REMARK VINA RESULT:    -7.984      3.945      6.400
REMARK INTER + INTRA:         -10.958
REMARK INTER:                 -10.437
REMARK INTRA:                  -0.521
REMARK UNBOUND:                -0.641
REMARK  6 active torsions:
REMARK  status: ('A' for Active; 'I' for Inactive)
REMARK    1  A    between atoms: P_1  and  O_5 
REMARK    2  A    between atoms: O_5  and  C_6 
REMARK    3  A    between atoms: C_6  and  C_7 
REMARK    4  A    between atoms: C_9  and  O_10 
REMARK    5  A    between atoms: C_13  and  N_14 
REMARK    6  A    between atoms: C_23  and  N_24 
ROOT
HETATM    1  N   UNL     1     -43.947  33.695   7.985  1.00  0.00    -0.299 N 
HETATM    2  C   UNL     1     -43.029  32.761   7.568  1.00  0.00     0.188 A 
HETATM    3  N   UNL     1     -42.560  32.022   8.545  1.00  0.00    -0.345 N 
ATOM      4  HN  UNL     1     -41.879  31.265   8.485  1.00  0.00     0.167 HD
HETATM    5  C   UNL     1     -43.200  32.502   9.678  1.00  0.00     0.147 A 
HETATM    6  C   UNL     1     -43.112  32.092  11.046  1.00  0.00     0.290 A 
HETATM    7  O   UNL     1     -42.418  31.183  11.498  1.00  0.00    -0.265 OA
HETATM    8  N   UNL     1     -43.937  32.841  11.867  1.00  0.00    -0.154 N 
ATOM      9  HN  UNL     1     -43.939  32.620  12.863  1.00  0.00     0.187 HD
HETATM   10  C   UNL     1     -44.754  33.861  11.440  1.00  0.00     0.680 A 
HETATM   11  N   UNL     1     -44.840  34.254  10.168  1.00  0.00    -0.174 N 
ATOM     12  HN  UNL     1     -45.440  35.016   9.851  1.00  0.00     0.186 HD
HETATM   13  C   UNL     1     -44.052  33.539   9.350  1.00  0.00     0.159 A 
ENDROOT
BRANCH   1  14
HETATM   14  C   UNL     1     -44.728  34.586   7.119  1.00  0.00     0.233 C 
HETATM   15  O   UNL     1     -45.530  33.767   6.280  1.00  0.00    -0.356 OA
HETATM   16  C   UNL     1     -45.551  34.297   4.937  1.00  0.00     0.177 C 
HETATM   17  C   UNL     1     -44.818  35.638   5.002  1.00  0.00     0.153 C 
HETATM   18  C   UNL     1     -43.887  35.452   6.194  1.00  0.00     0.088 C 
BRANCH  16  19
HETATM   19  C   UNL     1     -44.966  33.272   3.993  1.00  0.00     0.217 C 
BRANCH  19  20
HETATM   20  O   UNL     1     -45.985  32.793   3.084  1.00  0.00    -0.280 OA
BRANCH  20  21
HETATM   21  P   UNL     1     -46.024  31.261   2.523  1.00  0.00     0.422 P 
HETATM   22  O   UNL     1     -44.602  30.808   2.344  1.00  0.00    -0.617 OA
HETATM   23  O   UNL     1     -46.793  31.269   1.177  1.00  0.00    -0.617 OA
HETATM   24  O   UNL     1     -46.765  30.373   3.559  1.00  0.00    -0.617 OA
ENDBRANCH  20  21
ENDBRANCH  19  20
ENDBRANCH  16  19
BRANCH  17  25
HETATM   25  O   UNL     1     -45.745  36.694   5.260  1.00  0.00    -0.393 OA
ATOM     26  HO  UNL     1     -46.631  36.405   5.074  1.00  0.00     0.210 HD
ENDBRANCH  17  25
ENDBRANCH   1  14
BRANCH  10  27
HETATM   27  N   UNL     1     -45.511  34.466  12.368  1.00  0.00    -0.234 N 
ATOM     28  HN2 UNL     1     -45.065  34.874  13.190  1.00  0.00     0.174 HD
ATOM     29  HN1 UNL     1     -46.516  34.502  12.196  1.00  0.00     0.174 HD
ENDBRANCH  10  27
TORSDOF 6
ENDMDL
MODEL 8
REMARK VINA RESULT:    -7.976      1.695      2.697
REMARK INTER + INTRA:         -10.948
REMARK INTER:                 -10.421
REMARK INTRA:                  -0.527
REMARK UNBOUND:                -0.641
REMARK  6 active torsions:
REMARK  status: ('A' for Active; 'I' for Inactive)
REMARK    1  A    between atoms: P_1  and  O_5 
REMARK    2  A    between atoms: O_5  and  C_6 
REMARK    3  A    between atoms: C_6  and  C_7 
REMARK    4  A    between atoms: C_9  and  O_10 
REMARK    5  A    between atoms: C_13  and  N_14 
REMARK    6  A    between atoms: C_23  and  N_24 
ROOT
HETATM    1  N   UNL     1     -42.124  30.798  12.134  1.00  0.00    -0.299 N 
HETATM    2  C   UNL     1     -41.503  30.190  13.198  1.00  0.00     0.188 A 
HETATM    3  N   UNL     1     -40.461  29.472  12.850  1.00  0.00    -0.345 N 
ATOM      4  HN  UNL     1     -39.840  28.936  13.456  1.00  0.00     0.167 HD
HETATM    5  C   UNL     1     -40.395  29.608  11.471  1.00  0.00     0.147 A 
HETATM    6  C   UNL     1     -39.468  29.070  10.522  1.00  0.00     0.290 A 
HETATM    7  O   UNL     1     -38.501  28.350  10.765  1.00  0.00    -0.265 OA
HETATM    8  N   UNL     1     -39.762  29.464   9.229  1.00  0.00    -0.154 N 
ATOM      9  HN  UNL     1     -39.154  29.126   8.482  1.00  0.00     0.187 HD
HETATM   10  C   UNL     1     -40.813  30.277   8.874  1.00  0.00     0.680 A 
HETATM   11  N   UNL     1     -41.684  30.780   9.750  1.00  0.00    -0.174 N 
ATOM     12  HN  UNL     1     -42.468  31.378   9.488  1.00  0.00     0.186 HD
HETATM   13  C   UNL     1     -41.418  30.415  11.014  1.00  0.00     0.159 A 
ENDROOT
BRANCH   1  14
HETATM   14  C   UNL     1     -43.238  31.750  12.212  1.00  0.00     0.233 C 
HETATM   15  O   UNL     1     -43.894  31.740  10.952  1.00  0.00    -0.356 OA
HETATM   16  C   UNL     1     -44.255  33.084  10.567  1.00  0.00     0.177 C 
HETATM   17  C   UNL     1     -43.922  33.971  11.768  1.00  0.00     0.153 C 
HETATM   18  C   UNL     1     -42.813  33.188  12.462  1.00  0.00     0.088 C 
BRANCH  16  19
HETATM   19  C   UNL     1     -43.552  33.433   9.276  1.00  0.00     0.217 C 
BRANCH  19  20
HETATM   20  O   UNL     1     -44.519  33.611   8.214  1.00  0.00    -0.280 OA
BRANCH  20  21
HETATM   21  P   UNL     1     -44.266  34.600   6.941  1.00  0.00     0.422 P 
HETATM   22  O   UNL     1     -45.075  35.847   7.168  1.00  0.00    -0.617 OA
HETATM   23  O   UNL     1     -44.721  33.851   5.662  1.00  0.00    -0.617 OA
HETATM   24  O   UNL     1     -42.750  34.926   6.861  1.00  0.00    -0.617 OA
ENDBRANCH  20  21
ENDBRANCH  19  20
ENDBRANCH  16  19
BRANCH  17  25
HETATM   25  O   UNL     1     -45.058  34.084  12.627  1.00  0.00    -0.393 OA
ATOM     26  HO  UNL     1     -44.822  33.843  13.516  1.00  0.00     0.210 HD
ENDBRANCH  17  25
ENDBRANCH   1  14
BRANCH  10  27
HETATM   27  N   UNL     1     -40.935  30.583   7.574  1.00  0.00    -0.234 N 
ATOM     28  HN2 UNL     1     -40.200  31.121   7.114  1.00  0.00     0.174 HD
ATOM     29  HN1 UNL     1     -41.767  30.242   7.093  1.00  0.00     0.174 HD
ENDBRANCH  10  27
TORSDOF 6
ENDMDL
MODEL 9
REMARK VINA RESULT:    -7.798      6.337      8.924
REMARK INTER + INTRA:         -10.718
REMARK INTER:                 -10.009
REMARK INTRA:                  -0.709
REMARK UNBOUND:                -0.641
REMARK  6 active torsions:
REMARK  status: ('A' for Active; 'I' for Inactive)
REMARK    1  A    between atoms: P_1  and  O_5 
REMARK    2  A    between atoms: O_5  and  C_6 
REMARK    3  A    between atoms: C_6  and  C_7 
REMARK    4  A    between atoms: C_9  and  O_10 
REMARK    5  A    between atoms: C_13  and  N_14 
REMARK    6  A    between atoms: C_23  and  N_24 
ROOT
HETATM    1  N   UNL     1     -46.969  36.591   6.371  1.00  0.00    -0.299 N 
HETATM    2  C   UNL     1     -47.673  35.786   7.232  1.00  0.00     0.188 A 
HETATM    3  N   UNL     1     -46.957  34.802   7.725  1.00  0.00    -0.345 N 
ATOM      4  HN  UNL     1     -47.254  34.082   8.384  1.00  0.00     0.167 HD
HETATM    5  C   UNL     1     -45.707  34.963   7.146  1.00  0.00     0.147 A 
HETATM    6  C   UNL     1     -44.501  34.207   7.301  1.00  0.00     0.290 A 
HETATM    7  O   UNL     1     -44.337  33.223   8.019  1.00  0.00    -0.265 OA
HETATM    8  N   UNL     1     -43.467  34.719   6.539  1.00  0.00    -0.154 N 
ATOM      9  HN  UNL     1     -42.566  34.243   6.584  1.00  0.00     0.187 HD
HETATM   10  C   UNL     1     -43.562  35.823   5.723  1.00  0.00     0.680 A 
HETATM   11  N   UNL     1     -44.682  36.531   5.569  1.00  0.00    -0.174 N 
ATOM     12  HN  UNL     1     -44.756  37.346   4.959  1.00  0.00     0.186 HD
HETATM   13  C   UNL     1     -45.701  36.057   6.303  1.00  0.00     0.159 A 
ENDROOT
BRANCH   1  14
HETATM   14  C   UNL     1     -47.457  37.830   5.752  1.00  0.00     0.233 C 
HETATM   15  O   UNL     1     -47.993  38.639   6.790  1.00  0.00    -0.356 OA
HETATM   16  C   UNL     1     -49.214  39.272   6.348  1.00  0.00     0.177 C 
HETATM   17  C   UNL     1     -49.351  38.934   4.863  1.00  0.00     0.153 C 
HETATM   18  C   UNL     1     -48.578  37.625   4.746  1.00  0.00     0.088 C 
BRANCH  16  19
HETATM   19  C   UNL     1     -50.351  38.820   7.234  1.00  0.00     0.217 C 
BRANCH  19  20
HETATM   20  O   UNL     1     -49.835  38.295   8.479  1.00  0.00    -0.280 OA
BRANCH  20  21
HETATM   21  P   UNL     1     -50.796  37.696   9.655  1.00  0.00     0.422 P 
HETATM   22  O   UNL     1     -50.628  38.569  10.867  1.00  0.00    -0.617 OA
HETATM   23  O   UNL     1     -50.346  36.238   9.936  1.00  0.00    -0.617 OA
HETATM   24  O   UNL     1     -52.264  37.716   9.153  1.00  0.00    -0.617 OA
ENDBRANCH  20  21
ENDBRANCH  19  20
ENDBRANCH  16  19
BRANCH  17  25
HETATM   25  O   UNL     1     -48.729  39.946   4.068  1.00  0.00    -0.393 OA
ATOM     26  HO  UNL     1     -48.377  39.566   3.271  1.00  0.00     0.210 HD
ENDBRANCH  17  25
ENDBRANCH   1  14
BRANCH  10  27
HETATM   27  N   UNL     1     -42.450  36.200   5.075  1.00  0.00    -0.234 N 
ATOM     28  HN2 UNL     1     -42.487  36.995   4.437  1.00  0.00     0.174 HD
ATOM     29  HN1 UNL     1     -41.599  35.671   5.267  1.00  0.00     0.174 HD
ENDBRANCH  10  27
TORSDOF 6
ENDMDL
MODEL 10
REMARK VINA RESULT:    -7.784      7.386      8.847
REMARK INTER + INTRA:         -10.700
REMARK INTER:                 -10.118
REMARK INTRA:                  -0.583
REMARK UNBOUND:                -0.641
REMARK  6 active torsions:
REMARK  status: ('A' for Active; 'I' for Inactive)
REMARK    1  A    between atoms: P_1  and  O_5 
REMARK    2  A    between atoms: O_5  and  C_6 
REMARK    3  A    between atoms: C_6  and  C_7 
REMARK    4  A    between atoms: C_9  and  O_10 
REMARK    5  A    between atoms: C_13  and  N_14 
REMARK    6  A    between atoms: C_23  and  N_24 
ROOT
HETATM    1  N   UNL     1     -34.273  31.378   8.659  1.00  0.00    -0.299 N 
HETATM    2  C   UNL     1     -35.045  30.796   9.635  1.00  0.00     0.188 A 
HETATM    3  N   UNL     1     -34.609  29.615  10.006  1.00  0.00    -0.345 N 
ATOM      4  HN  UNL     1     -35.007  28.996  10.712  1.00  0.00     0.167 HD
HETATM    5  C   UNL     1     -33.485  29.401   9.222  1.00  0.00     0.147 A 
HETATM    6  C   UNL     1     -32.573  28.298   9.175  1.00  0.00     0.290 A 
HETATM    7  O   UNL     1     -32.616  27.280   9.863  1.00  0.00    -0.265 OA
HETATM    8  N   UNL     1     -31.570  28.493   8.244  1.00  0.00    -0.154 N 
ATOM      9  HN  UNL     1     -30.873  27.756   8.139  1.00  0.00     0.187 HD
HETATM   10  C   UNL     1     -31.442  29.608   7.448  1.00  0.00     0.680 A 
HETATM   11  N   UNL     1     -32.288  30.639   7.481  1.00  0.00    -0.174 N 
ATOM     12  HN  UNL     1     -32.198  31.463   6.886  1.00  0.00     0.186 HD
HETATM   13  C   UNL     1     -33.270  30.475   8.381  1.00  0.00     0.159 A 
ENDROOT
BRANCH   1  14
HETATM   14  C   UNL     1     -34.435  32.735   8.123  1.00  0.00     0.233 C 
HETATM   15  O   UNL     1     -33.540  33.581   8.831  1.00  0.00    -0.356 OA
HETATM   16  C   UNL     1     -34.178  34.841   9.132  1.00  0.00     0.177 C 
HETATM   17  C   UNL     1     -35.528  34.813   8.413  1.00  0.00     0.153 C 
HETATM   18  C   UNL     1     -35.825  33.321   8.320  1.00  0.00     0.088 C 
BRANCH  16  19
HETATM   19  C   UNL     1     -34.234  35.020  10.631  1.00  0.00     0.217 C 
BRANCH  19  20
HETATM   20  O   UNL     1     -35.345  35.874  10.991  1.00  0.00    -0.280 OA
BRANCH  20  21
HETATM   21  P   UNL     1     -35.751  36.196  12.539  1.00  0.00     0.422 P 
HETATM   22  O   UNL     1     -35.674  34.905  13.306  1.00  0.00    -0.617 OA
HETATM   23  O   UNL     1     -37.190  36.774  12.540  1.00  0.00    -0.617 OA
HETATM   24  O   UNL     1     -34.753  37.241  13.105  1.00  0.00    -0.617 OA
ENDBRANCH  20  21
ENDBRANCH  19  20
ENDBRANCH  16  19
BRANCH  17  25
HETATM   25  O   UNL     1     -35.402  35.373   7.105  1.00  0.00    -0.393 OA
ATOM     26  HO  UNL     1     -35.580  34.712   6.446  1.00  0.00     0.210 HD
ENDBRANCH  17  25
ENDBRANCH   1  14
BRANCH  10  27
HETATM   27  N   UNL     1     -30.390  29.645   6.616  1.00  0.00    -0.234 N 
ATOM     28  HN2 UNL     1     -29.962  30.544   6.389  1.00  0.00     0.174 HD
ATOM     29  HN1 UNL     1     -30.051  28.753   6.256  1.00  0.00     0.174 HD
ENDBRANCH  10  27
TORSDOF 6
ENDMDL
MODEL 11
REMARK VINA RESULT:    -7.678      6.647      9.538
REMARK INTER + INTRA:         -10.563
REMARK INTER:                  -9.814
REMARK INTRA:                  -0.749
REMARK UNBOUND:                -0.641
REMARK  6 active torsions:
REMARK  status: ('A' for Active; 'I' for Inactive)
REMARK    1  A    between atoms: P_1  and  O_5 
REMARK    2  A    between atoms: O_5  and  C_6 
REMARK    3  A    between atoms: C_6  and  C_7 
REMARK    4  A    between atoms: C_9  and  O_10 
REMARK    5  A    between atoms: C_13  and  N_14 
REMARK    6  A    between atoms: C_23  and  N_24 
ROOT
HETATM    1  N   UNL     1     -47.983  36.706   6.376  1.00  0.00    -0.299 N 
HETATM    2  C   UNL     1     -47.880  38.073   6.465  1.00  0.00     0.188 A 
HETATM    3  N   UNL     1     -48.796  38.613   7.233  1.00  0.00    -0.345 N 
ATOM      4  HN  UNL     1     -48.921  39.601   7.457  1.00  0.00     0.167 HD
HETATM    5  C   UNL     1     -49.556  37.539   7.671  1.00  0.00     0.147 A 
HETATM    6  C   UNL     1     -50.690  37.490   8.544  1.00  0.00     0.290 A 
HETATM    7  O   UNL     1     -51.230  38.442   9.102  1.00  0.00    -0.265 OA
HETATM    8  N   UNL     1     -51.146  36.197   8.728  1.00  0.00    -0.154 N 
ATOM      9  HN  UNL     1     -51.956  36.064   9.335  1.00  0.00     0.187 HD
HETATM   10  C   UNL     1     -50.591  35.077   8.154  1.00  0.00     0.680 A 
HETATM   11  N   UNL     1     -49.537  35.113   7.337  1.00  0.00    -0.174 N 
ATOM     12  HN  UNL     1     -49.129  34.284   6.905  1.00  0.00     0.186 HD
HETATM   13  C   UNL     1     -49.072  36.357   7.145  1.00  0.00     0.159 A 
ENDROOT
BRANCH   1  14
HETATM   14  C   UNL     1     -47.044  35.811   5.690  1.00  0.00     0.233 C 
HETATM   15  O   UNL     1     -46.885  34.657   6.504  1.00  0.00    -0.356 OA
HETATM   16  C   UNL     1     -45.500  34.248   6.526  1.00  0.00     0.177 C 
HETATM   17  C   UNL     1     -44.780  35.145   5.518  1.00  0.00     0.153 C 
HETATM   18  C   UNL     1     -45.652  36.394   5.500  1.00  0.00     0.088 C 
BRANCH  16  19
HETATM   19  C   UNL     1     -44.990  34.313   7.947  1.00  0.00     0.217 C 
BRANCH  19  20
HETATM   20  O   UNL     1     -44.472  33.024   8.350  1.00  0.00    -0.280 OA
BRANCH  20  21
HETATM   21  P   UNL     1     -42.919  32.578   8.112  1.00  0.00     0.422 P 
HETATM   22  O   UNL     1     -42.331  32.252   9.456  1.00  0.00    -0.617 OA
HETATM   23  O   UNL     1     -42.184  33.768   7.441  1.00  0.00    -0.617 OA
HETATM   24  O   UNL     1     -42.898  31.339   7.178  1.00  0.00    -0.617 OA
ENDBRANCH  20  21
ENDBRANCH  19  20
ENDBRANCH  16  19
BRANCH  17  25
HETATM   25  O   UNL     1     -44.773  34.529   4.228  1.00  0.00    -0.393 OA
ATOM     26  HO  UNL     1     -45.559  34.007   4.111  1.00  0.00     0.210 HD
ENDBRANCH  17  25
ENDBRANCH   1  14
BRANCH  10  27
HETATM   27  N   UNL     1     -51.144  33.895   8.464  1.00  0.00    -0.234 N 
ATOM     28  HN2 UNL     1     -51.605  33.351   7.735  1.00  0.00     0.174 HD
ATOM     29  HN1 UNL     1     -51.061  33.583   9.432  1.00  0.00     0.174 HD
ENDBRANCH  10  27
TORSDOF 6
ENDMDL
MODEL 12
REMARK VINA RESULT:    -7.654      8.069     10.443
REMARK INTER + INTRA:         -10.532
REMARK INTER:                  -9.703
REMARK INTRA:                  -0.829
REMARK UNBOUND:                -0.641
REMARK  6 active torsions:
REMARK  status: ('A' for Active; 'I' for Inactive)
REMARK    1  A    between atoms: P_1  and  O_5 
REMARK    2  A    between atoms: O_5  and  C_6 
REMARK    3  A    between atoms: C_6  and  C_7 
REMARK    4  A    between atoms: C_9  and  O_10 
REMARK    5  A    between atoms: C_13  and  N_14 
REMARK    6  A    between atoms: C_23  and  N_24 
ROOT
HETATM    1  N   UNL     1     -34.276  35.521   8.663  1.00  0.00    -0.299 N 
HETATM    2  C   UNL     1     -33.086  36.084   9.055  1.00  0.00     0.188 A 
HETATM    3  N   UNL     1     -33.112  36.555  10.279  1.00  0.00    -0.345 N 
ATOM      4  HN  UNL     1     -32.355  37.010  10.791  1.00  0.00     0.167 HD
HETATM    5  C   UNL     1     -34.401  36.295  10.720  1.00  0.00     0.147 A 
HETATM    6  C   UNL     1     -35.031  36.563  11.978  1.00  0.00     0.290 A 
HETATM    7  O   UNL     1     -34.518  37.099  12.957  1.00  0.00    -0.265 OA
HETATM    8  N   UNL     1     -36.344  36.127  12.003  1.00  0.00    -0.154 N 
ATOM      9  HN  UNL     1     -36.875  36.278  12.861  1.00  0.00     0.187 HD
HETATM   10  C   UNL     1     -36.987  35.505  10.958  1.00  0.00     0.680 A 
HETATM   11  N   UNL     1     -36.410  35.255   9.782  1.00  0.00    -0.174 N 
ATOM     12  HN  UNL     1     -36.888  34.801   9.004  1.00  0.00     0.186 HD
HETATM   13  C   UNL     1     -35.133  35.665   9.732  1.00  0.00     0.159 A 
ENDROOT
BRANCH   1  14
HETATM   14  C   UNL     1     -34.524  34.812   7.402  1.00  0.00     0.233 C 
HETATM   15  O   UNL     1     -34.637  33.429   7.707  1.00  0.00    -0.356 OA
HETATM   16  C   UNL     1     -33.956  32.640   6.707  1.00  0.00     0.177 C 
HETATM   17  C   UNL     1     -33.519  33.623   5.620  1.00  0.00     0.153 C 
HETATM   18  C   UNL     1     -33.399  34.936   6.386  1.00  0.00     0.088 C 
BRANCH  16  19
HETATM   19  C   UNL     1     -32.848  31.855   7.369  1.00  0.00     0.217 C 
BRANCH  19  20
HETATM   20  O   UNL     1     -33.224  31.506   8.722  1.00  0.00    -0.280 OA
BRANCH  20  21
HETATM   21  P   UNL     1     -33.206  29.971   9.279  1.00  0.00     0.422 P 
HETATM   22  O   UNL     1     -33.089  29.059   8.090  1.00  0.00    -0.617 OA
HETATM   23  O   UNL     1     -34.530  29.733  10.051  1.00  0.00    -0.617 OA
HETATM   24  O   UNL     1     -31.992  29.805  10.231  1.00  0.00    -0.617 OA
ENDBRANCH  20  21
ENDBRANCH  19  20
ENDBRANCH  16  19
BRANCH  17  25
HETATM   25  O   UNL     1     -34.531  33.729   4.616  1.00  0.00    -0.393 OA
ATOM     26  HO  UNL     1     -34.299  33.201   3.861  1.00  0.00     0.210 HD
ENDBRANCH  17  25
ENDBRANCH   1  14
BRANCH  10  27
HETATM   27  N   UNL     1     -38.256  35.122  11.165  1.00  0.00    -0.234 N 
ATOM     28  HN2 UNL     1     -38.793  34.729  10.391  1.00  0.00     0.174 HD
ATOM     29  HN1 UNL     1     -38.625  35.229  12.110  1.00  0.00     0.174 HD
ENDBRANCH  10  27
TORSDOF 6
ENDMDL
MODEL 13
REMARK VINA RESULT:    -7.645      2.568      4.528
REMARK INTER + INTRA:         -10.520
REMARK INTER:                  -9.592
REMARK INTRA:                  -0.928
REMARK UNBOUND:                -0.641
REMARK  6 active torsions:
REMARK  status: ('A' for Active; 'I' for Inactive)
REMARK    1  A    between atoms: P_1  and  O_5 
REMARK    2  A    between atoms: O_5  and  C_6 
REMARK    3  A    between atoms: C_6  and  C_7 
REMARK    4  A    between atoms: C_9  and  O_10 
REMARK    5  A    between atoms: C_13  and  N_14 
REMARK    6  A    between atoms: C_23  and  N_24 
ROOT
HETATM    1  N   UNL     1     -39.843  29.748   9.286  1.00  0.00    -0.299 N 
HETATM    2  C   UNL     1     -38.788  29.062   8.734  1.00  0.00     0.188 A 
HETATM    3  N   UNL     1     -38.116  28.351   9.608  1.00  0.00    -0.345 N 
ATOM      4  HN  UNL     1     -37.304  27.758   9.439  1.00  0.00     0.167 HD
HETATM    5  C   UNL     1     -38.760  28.590  10.813  1.00  0.00     0.147 A 
HETATM    6  C   UNL     1     -38.499  28.087  12.128  1.00  0.00     0.290 A 
HETATM    7  O   UNL     1     -37.609  27.304  12.452  1.00  0.00    -0.265 OA
HETATM    8  N   UNL     1     -39.398  28.577  13.058  1.00  0.00    -0.154 N 
ATOM      9  HN  UNL     1     -39.288  28.274  14.026  1.00  0.00     0.187 HD
HETATM   10  C   UNL     1     -40.429  29.442  12.776  1.00  0.00     0.680 A 
HETATM   11  N   UNL     1     -40.678  29.919  11.555  1.00  0.00    -0.174 N 
ATOM     12  HN  UNL     1     -41.438  30.567  11.345  1.00  0.00     0.186 HD
HETATM   13  C   UNL     1     -39.821  29.455  10.632  1.00  0.00     0.159 A 
ENDROOT
BRANCH   1  14
HETATM   14  C   UNL     1     -40.843  30.533   8.553  1.00  0.00     0.233 C 
HETATM   15  O   UNL     1     -41.236  31.610   9.392  1.00  0.00    -0.356 OA
HETATM   16  C   UNL     1     -42.662  31.816   9.305  1.00  0.00     0.177 C 
HETATM   17  C   UNL     1     -43.157  30.877   8.203  1.00  0.00     0.153 C 
HETATM   18  C   UNL     1     -42.113  29.767   8.217  1.00  0.00     0.088 C 
BRANCH  16  19
HETATM   19  C   UNL     1     -43.274  31.608  10.671  1.00  0.00     0.217 C 
BRANCH  19  20
HETATM   20  O   UNL     1     -43.039  32.767  11.504  1.00  0.00    -0.280 OA
BRANCH  20  21
HETATM   21  P   UNL     1     -43.725  32.956  12.974  1.00  0.00     0.422 P 
HETATM   22  O   UNL     1     -42.777  33.765  13.815  1.00  0.00    -0.617 OA
HETATM   23  O   UNL     1     -43.955  31.545  13.574  1.00  0.00    -0.617 OA
HETATM   24  O   UNL     1     -45.080  33.692  12.797  1.00  0.00    -0.617 OA
ENDBRANCH  20  21
ENDBRANCH  19  20
ENDBRANCH  16  19
BRANCH  17  25
HETATM   25  O   UNL     1     -43.146  31.550   6.942  1.00  0.00    -0.393 OA
ATOM     26  HO  UNL     1     -44.036  31.727   6.658  1.00  0.00     0.210 HD
ENDBRANCH  17  25
ENDBRANCH   1  14
BRANCH  10  27
HETATM   27  N   UNL     1     -41.226  29.795  13.796  1.00  0.00    -0.234 N 
ATOM     28  HN2 UNL     1     -41.919  29.131  14.143  1.00  0.00     0.174 HD
ATOM     29  HN1 UNL     1     -41.086  30.724  14.194  1.00  0.00     0.174 HD
ENDBRANCH  10  27
TORSDOF 6
ENDMDL
MODEL 14
REMARK VINA RESULT:    -7.605      7.057     10.263
REMARK INTER + INTRA:         -10.469
REMARK INTER:                  -9.782
REMARK INTRA:                  -0.688
REMARK UNBOUND:                -0.641
REMARK  6 active torsions:
REMARK  status: ('A' for Active; 'I' for Inactive)
REMARK    1  A    between atoms: P_1  and  O_5 
REMARK    2  A    between atoms: O_5  and  C_6 
REMARK    3  A    between atoms: C_6  and  C_7 
REMARK    4  A    between atoms: C_9  and  O_10 
REMARK    5  A    between atoms: C_13  and  N_14 
REMARK    6  A    between atoms: C_23  and  N_24 
ROOT
HETATM    1  N   UNL     1     -47.314  36.796   6.609  1.00  0.00    -0.299 N 
HETATM    2  C   UNL     1     -48.266  36.265   7.444  1.00  0.00     0.188 A 
HETATM    3  N   UNL     1     -49.444  36.827   7.314  1.00  0.00    -0.345 N 
ATOM      4  HN  UNL     1     -50.303  36.603   7.817  1.00  0.00     0.167 HD
HETATM    5  C   UNL     1     -49.256  37.796   6.340  1.00  0.00     0.147 A 
HETATM    6  C   UNL     1     -50.175  38.728   5.758  1.00  0.00     0.290 A 
HETATM    7  O   UNL     1     -51.369  38.847   6.026  1.00  0.00    -0.265 OA
HETATM    8  N   UNL     1     -49.572  39.522   4.800  1.00  0.00    -0.154 N 
ATOM      9  HN  UNL     1     -50.151  40.219   4.331  1.00  0.00     0.187 HD
HETATM   10  C   UNL     1     -48.249  39.442   4.431  1.00  0.00     0.680 A 
HETATM   11  N   UNL     1     -47.385  38.580   4.969  1.00  0.00    -0.174 N 
ATOM     12  HN  UNL     1     -46.402  38.525   4.702  1.00  0.00     0.186 HD
HETATM   13  C   UNL     1     -47.947  37.794   5.901  1.00  0.00     0.159 A 
ENDROOT
BRANCH   1  14
HETATM   14  C   UNL     1     -45.941  36.306   6.439  1.00  0.00     0.233 C 
HETATM   15  O   UNL     1     -45.788  35.934   5.076  1.00  0.00    -0.356 OA
HETATM   16  C   UNL     1     -45.037  34.705   4.976  1.00  0.00     0.177 C 
HETATM   17  C   UNL     1     -44.565  34.382   6.394  1.00  0.00     0.153 C 
HETATM   18  C   UNL     1     -45.616  35.067   7.260  1.00  0.00     0.088 C 
BRANCH  16  19
HETATM   19  C   UNL     1     -45.896  33.654   4.313  1.00  0.00     0.217 C 
BRANCH  19  20
HETATM   20  O   UNL     1     -45.068  32.727   3.572  1.00  0.00    -0.280 OA
BRANCH  20  21
HETATM   21  P   UNL     1     -45.685  31.536   2.642  1.00  0.00     0.422 P 
HETATM   22  O   UNL     1     -44.549  30.632   2.252  1.00  0.00    -0.617 OA
HETATM   23  O   UNL     1     -46.338  32.196   1.400  1.00  0.00    -0.617 OA
HETATM   24  O   UNL     1     -46.752  30.767   3.465  1.00  0.00    -0.617 OA
ENDBRANCH  20  21
ENDBRANCH  19  20
ENDBRANCH  16  19
BRANCH  17  25
HETATM   25  O   UNL     1     -43.279  34.960   6.629  1.00  0.00    -0.393 OA
ATOM     26  HO  UNL     1     -42.717  34.828   5.874  1.00  0.00     0.210 HD
ENDBRANCH  17  25
ENDBRANCH   1  14
BRANCH  10  27
HETATM   27  N   UNL     1     -47.835  40.271   3.461  1.00  0.00    -0.234 N 
ATOM     28  HN2 UNL     1     -46.904  40.683   3.518  1.00  0.00     0.174 HD
ATOM     29  HN1 UNL     1     -48.480  40.441   2.689  1.00  0.00     0.174 HD
ENDBRANCH  10  27
TORSDOF 6
ENDMDL
MODEL 15
REMARK VINA RESULT:    -7.603      2.263      5.502
REMARK INTER + INTRA:         -10.466
REMARK INTER:                  -9.190
REMARK INTRA:                  -1.277
REMARK UNBOUND:                -0.641
REMARK  6 active torsions:
REMARK  status: ('A' for Active; 'I' for Inactive)
REMARK    1  A    between atoms: P_1  and  O_5 
REMARK    2  A    between atoms: O_5  and  C_6 
REMARK    3  A    between atoms: C_6  and  C_7 
REMARK    4  A    between atoms: C_9  and  O_10 
REMARK    5  A    between atoms: C_13  and  N_14 
REMARK    6  A    between atoms: C_23  and  N_24 
ROOT
HETATM    1  N   UNL     1     -41.583  31.347  11.507  1.00  0.00    -0.299 N 
HETATM    2  C   UNL     1     -41.351  30.659  12.673  1.00  0.00     0.188 A 
HETATM    3  N   UNL     1     -42.149  31.013  13.652  1.00  0.00    -0.345 N 
ATOM      4  HN  UNL     1     -42.173  30.644  14.603  1.00  0.00     0.167 HD
HETATM    5  C   UNL     1     -42.951  32.001  13.102  1.00  0.00     0.147 A 
HETATM    6  C   UNL     1     -44.021  32.763  13.673  1.00  0.00     0.290 A 
HETATM    7  O   UNL     1     -44.454  32.676  14.820  1.00  0.00    -0.265 OA
HETATM    8  N   UNL     1     -44.568  33.650  12.765  1.00  0.00    -0.154 N 
ATOM      9  HN  UNL     1     -45.338  34.239  13.085  1.00  0.00     0.187 HD
HETATM   10  C   UNL     1     -44.153  33.799  11.462  1.00  0.00     0.680 A 
HETATM   11  N   UNL     1     -43.156  33.096  10.921  1.00  0.00    -0.174 N 
ATOM     12  HN  UNL     1     -42.842  33.211   9.957  1.00  0.00     0.186 HD
HETATM   13  C   UNL     1     -42.609  32.224  11.783  1.00  0.00     0.159 A 
ENDROOT
BRANCH   1  14
HETATM   14  C   UNL     1     -40.936  31.099  10.213  1.00  0.00     0.233 C 
HETATM   15  O   UNL     1     -41.417  32.079   9.303  1.00  0.00    -0.356 OA
HETATM   16  C   UNL     1     -41.672  31.481   8.014  1.00  0.00     0.177 C 
HETATM   17  C   UNL     1     -41.159  30.043   8.108  1.00  0.00     0.153 C 
HETATM   18  C   UNL     1     -41.266  29.748   9.599  1.00  0.00     0.088 C 
BRANCH  16  19
HETATM   19  C   UNL     1     -43.137  31.637   7.679  1.00  0.00     0.217 C 
BRANCH  19  20
HETATM   20  O   UNL     1     -43.627  32.907   8.168  1.00  0.00    -0.280 OA
BRANCH  20  21
HETATM   21  P   UNL     1     -43.875  34.196   7.196  1.00  0.00     0.422 P 
HETATM   22  O   UNL     1     -44.580  33.704   5.963  1.00  0.00    -0.617 OA
HETATM   23  O   UNL     1     -42.490  34.805   6.856  1.00  0.00    -0.617 OA
HETATM   24  O   UNL     1     -44.744  35.231   7.959  1.00  0.00    -0.617 OA
ENDBRANCH  20  21
ENDBRANCH  19  20
ENDBRANCH  16  19
BRANCH  17  25
HETATM   25  O   UNL     1     -39.795  29.978   7.688  1.00  0.00    -0.393 OA
ATOM     26  HO  UNL     1     -39.374  30.821   7.811  1.00  0.00     0.210 HD
ENDBRANCH  17  25
ENDBRANCH   1  14
BRANCH  10  27
HETATM   27  N   UNL     1     -44.816  34.689  10.708  1.00  0.00    -0.234 N 
ATOM     28  HN2 UNL     1     -44.292  35.321  10.103  1.00  0.00     0.174 HD
ATOM     29  HN1 UNL     1     -45.835  34.679  10.766  1.00  0.00     0.174 HD
ENDBRANCH  10  27
TORSDOF 6
ENDMDL
MODEL 16
REMARK VINA RESULT:    -7.458      7.604      8.786
REMARK INTER + INTRA:         -10.278
REMARK INTER:                  -8.724
REMARK INTRA:                  -1.554
REMARK UNBOUND:                -0.641
REMARK  6 active torsions:
REMARK  status: ('A' for Active; 'I' for Inactive)
REMARK    1  A    between atoms: P_1  and  O_5 
REMARK    2  A    between atoms: O_5  and  C_6 
REMARK    3  A    between atoms: C_6  and  C_7 
REMARK    4  A    between atoms: C_9  and  O_10 
REMARK    5  A    between atoms: C_13  and  N_14 
REMARK    6  A    between atoms: C_23  and  N_24 
ROOT
HETATM    1  N   UNL     1     -33.579  33.894   7.421  1.00  0.00    -0.299 N 
HETATM    2  C   UNL     1     -33.126  33.152   6.358  1.00  0.00     0.188 A 
HETATM    3  N   UNL     1     -33.064  31.866   6.611  1.00  0.00    -0.345 N 
ATOM      4  HN  UNL     1     -32.766  31.118   5.984  1.00  0.00     0.167 HD
HETATM    5  C   UNL     1     -33.495  31.753   7.925  1.00  0.00     0.147 A 
HETATM    6  C   UNL     1     -33.658  30.602   8.760  1.00  0.00     0.290 A 
HETATM    7  O   UNL     1     -33.438  29.432   8.451  1.00  0.00    -0.265 OA
HETATM    8  N   UNL     1     -34.126  30.935  10.018  1.00  0.00    -0.154 N 
ATOM      9  HN  UNL     1     -34.271  30.177  10.684  1.00  0.00     0.187 HD
HETATM   10  C   UNL     1     -34.411  32.214  10.438  1.00  0.00     0.680 A 
HETATM   11  N   UNL     1     -34.259  33.293   9.669  1.00  0.00    -0.174 N 
ATOM     12  HN  UNL     1     -34.462  34.243   9.981  1.00  0.00     0.186 HD
HETATM   13  C   UNL     1     -33.808  32.996   8.440  1.00  0.00     0.159 A 
ENDROOT
BRANCH   1  14
HETATM   14  C   UNL     1     -33.865  35.334   7.411  1.00  0.00     0.233 C 
HETATM   15  O   UNL     1     -33.136  35.919   8.481  1.00  0.00    -0.356 OA
HETATM   16  C   UNL     1     -33.943  36.911   9.151  1.00  0.00     0.177 C 
HETATM   17  C   UNL     1     -35.221  37.045   8.322  1.00  0.00     0.153 C 
HETATM   18  C   UNL     1     -35.326  35.682   7.648  1.00  0.00     0.088 C 
BRANCH  16  19
HETATM   19  C   UNL     1     -34.133  36.499  10.593  1.00  0.00     0.217 C 
BRANCH  19  20
HETATM   20  O   UNL     1     -35.467  36.840  11.036  1.00  0.00    -0.280 OA
BRANCH  20  21
HETATM   21  P   UNL     1     -36.453  35.775  11.785  1.00  0.00     0.422 P 
HETATM   22  O   UNL     1     -36.828  34.721  10.780  1.00  0.00    -0.617 OA
HETATM   23  O   UNL     1     -37.697  36.553  12.285  1.00  0.00    -0.617 OA
HETATM   24  O   UNL     1     -35.690  35.154  12.985  1.00  0.00    -0.617 OA
ENDBRANCH  20  21
ENDBRANCH  19  20
ENDBRANCH  16  19
BRANCH  17  25
HETATM   25  O   UNL     1     -35.064  38.071   7.339  1.00  0.00    -0.393 OA
ATOM     26  HO  UNL     1     -35.013  38.922   7.759  1.00  0.00     0.210 HD
ENDBRANCH  17  25
ENDBRANCH   1  14
BRANCH  10  27
HETATM   27  N   UNL     1     -34.885  32.355  11.685  1.00  0.00    -0.234 N 
ATOM     28  HN2 UNL     1     -34.925  31.542  12.300  1.00  0.00     0.174 HD
ATOM     29  HN1 UNL     1     -35.173  33.292  11.969  1.00  0.00     0.174 HD
ENDBRANCH  10  27
TORSDOF 6
ENDMDL
MODEL 17
REMARK VINA RESULT:    -7.441      7.271     10.332
REMARK INTER + INTRA:         -10.257
REMARK INTER:                  -9.587
REMARK INTRA:                  -0.671
REMARK UNBOUND:                -0.641
REMARK  6 active torsions:
REMARK  status: ('A' for Active; 'I' for Inactive)
REMARK    1  A    between atoms: P_1  and  O_5 
REMARK    2  A    between atoms: O_5  and  C_6 
REMARK    3  A    between atoms: C_6  and  C_7 
REMARK    4  A    between atoms: C_9  and  O_10 
REMARK    5  A    between atoms: C_13  and  N_14 
REMARK    6  A    between atoms: C_23  and  N_24 
ROOT
HETATM    1  N   UNL     1     -48.956  36.930   6.321  1.00  0.00    -0.299 N 
HETATM    2  C   UNL     1     -49.128  37.770   7.394  1.00  0.00     0.188 A 
HETATM    3  N   UNL     1     -50.371  37.834   7.810  1.00  0.00    -0.345 N 
ATOM      4  HN  UNL     1     -50.743  38.381   8.587  1.00  0.00     0.167 HD
HETATM    5  C   UNL     1     -51.064  36.992   6.953  1.00  0.00     0.147 A 
HETATM    6  C   UNL     1     -52.450  36.638   6.909  1.00  0.00     0.290 A 
HETATM    7  O   UNL     1     -53.335  37.033   7.666  1.00  0.00    -0.265 OA
HETATM    8  N   UNL     1     -52.726  35.748   5.887  1.00  0.00    -0.154 N 
ATOM      9  HN  UNL     1     -53.693  35.440   5.777  1.00  0.00     0.187 HD
HETATM   10  C   UNL     1     -51.795  35.246   5.008  1.00  0.00     0.680 A 
HETATM   11  N   UNL     1     -50.501  35.572   5.039  1.00  0.00    -0.174 N 
ATOM     12  HN  UNL     1     -49.811  35.207   4.383  1.00  0.00     0.186 HD
HETATM   13  C   UNL     1     -50.207  36.434   6.025  1.00  0.00     0.159 A 
ENDROOT
BRANCH   1  14
HETATM   14  C   UNL     1     -47.675  36.562   5.707  1.00  0.00     0.233 C 
HETATM   15  O   UNL     1     -47.426  35.200   6.028  1.00  0.00    -0.356 OA
HETATM   16  C   UNL     1     -46.033  35.012   6.358  1.00  0.00     0.177 C 
HETATM   17  C   UNL     1     -45.347  36.348   6.069  1.00  0.00     0.153 C 
HETATM   18  C   UNL     1     -46.484  37.349   6.232  1.00  0.00     0.088 C 
BRANCH  16  19
HETATM   19  C   UNL     1     -45.927  34.512   7.780  1.00  0.00     0.217 C 
BRANCH  19  20
HETATM   20  O   UNL     1     -44.628  34.836   8.327  1.00  0.00    -0.280 OA
BRANCH  20  21
HETATM   21  P   UNL     1     -43.279  33.986   7.973  1.00  0.00     0.422 P 
HETATM   22  O   UNL     1     -42.478  34.796   6.992  1.00  0.00    -0.617 OA
HETATM   23  O   UNL     1     -43.721  32.630   7.365  1.00  0.00    -0.617 OA
HETATM   24  O   UNL     1     -42.483  33.752   9.285  1.00  0.00    -0.617 OA
ENDBRANCH  20  21
ENDBRANCH  19  20
ENDBRANCH  16  19
BRANCH  17  25
HETATM   25  O   UNL     1     -44.858  36.370   4.726  1.00  0.00    -0.393 OA
ATOM     26  HO  UNL     1     -45.132  35.585   4.265  1.00  0.00     0.210 HD
ENDBRANCH  17  25
ENDBRANCH   1  14
BRANCH  10  27
HETATM   27  N   UNL     1     -52.231  34.367   4.093  1.00  0.00    -0.234 N 
ATOM     28  HN2 UNL     1     -51.698  33.514   3.924  1.00  0.00     0.174 HD
ATOM     29  HN1 UNL     1     -53.102  34.592   3.612  1.00  0.00     0.174 HD
ENDBRANCH  10  27
TORSDOF 6
ENDMDL
MODEL 18
REMARK VINA RESULT:    -7.407      3.905      6.831
REMARK INTER + INTRA:         -10.213
REMARK INTER:                  -9.495
REMARK INTRA:                  -0.719
REMARK UNBOUND:                -0.641
REMARK  6 active torsions:
REMARK  status: ('A' for Active; 'I' for Inactive)
REMARK    1  A    between atoms: P_1  and  O_5 
REMARK    2  A    between atoms: O_5  and  C_6 
REMARK    3  A    between atoms: C_6  and  C_7 
REMARK    4  A    between atoms: C_9  and  O_10 
REMARK    5  A    between atoms: C_13  and  N_14 
REMARK    6  A    between atoms: C_23  and  N_24 
ROOT
HETATM    1  N   UNL     1     -41.842  30.916   9.433  1.00  0.00    -0.299 N 
HETATM    2  C   UNL     1     -42.333  31.802   8.506  1.00  0.00     0.188 A 
HETATM    3  N   UNL     1     -42.926  32.842   9.045  1.00  0.00    -0.345 N 
ATOM      4  HN  UNL     1     -43.361  33.631   8.566  1.00  0.00     0.167 HD
HETATM    5  C   UNL     1     -42.827  32.624  10.411  1.00  0.00     0.147 A 
HETATM    6  C   UNL     1     -43.275  33.413  11.518  1.00  0.00     0.290 A 
HETATM    7  O   UNL     1     -43.860  34.493  11.462  1.00  0.00    -0.265 OA
HETATM    8  N   UNL     1     -42.963  32.829  12.732  1.00  0.00    -0.154 N 
ATOM      9  HN  UNL     1     -43.246  33.320  13.580  1.00  0.00     0.187 HD
HETATM   10  C   UNL     1     -42.299  31.633  12.882  1.00  0.00     0.680 A 
HETATM   11  N   UNL     1     -41.881  30.889  11.857  1.00  0.00    -0.174 N 
ATOM     12  HN  UNL     1     -41.395  29.999  11.966  1.00  0.00     0.186 HD
HETATM   13  C   UNL     1     -42.169  31.437  10.666  1.00  0.00     0.159 A 
ENDROOT
BRANCH   1  14
HETATM   14  C   UNL     1     -41.035  29.724   9.147  1.00  0.00     0.233 C 
HETATM   15  O   UNL     1     -39.923  29.742  10.031  1.00  0.00    -0.356 OA
HETATM   16  C   UNL     1     -38.725  29.334   9.335  1.00  0.00     0.177 C 
HETATM   17  C   UNL     1     -39.177  28.888   7.944  1.00  0.00     0.153 C 
HETATM   18  C   UNL     1     -40.461  29.683   7.739  1.00  0.00     0.088 C 
BRANCH  16  19
HETATM   19  C   UNL     1     -37.725  30.466   9.371  1.00  0.00     0.217 C 
BRANCH  19  20
HETATM   20  O   UNL     1     -36.493  30.024   9.987  1.00  0.00    -0.280 OA
BRANCH  20  21
HETATM   21  P   UNL     1     -35.124  30.913   9.969  1.00  0.00     0.422 P 
HETATM   22  O   UNL     1     -35.195  31.831   8.780  1.00  0.00    -0.617 OA
HETATM   23  O   UNL     1     -33.926  29.934   9.861  1.00  0.00    -0.617 OA
HETATM   24  O   UNL     1     -35.039  31.719  11.292  1.00  0.00    -0.617 OA
ENDBRANCH  20  21
ENDBRANCH  19  20
ENDBRANCH  16  19
BRANCH  17  25
HETATM   25  O   UNL     1     -39.459  27.487   7.944  1.00  0.00    -0.393 OA
ATOM     26  HO  UNL     1     -40.251  27.312   7.448  1.00  0.00     0.210 HD
ENDBRANCH  17  25
ENDBRANCH   1  14
BRANCH  10  27
HETATM   27  N   UNL     1     -42.052  31.226  14.136  1.00  0.00    -0.234 N 
ATOM     28  HN2 UNL     1     -41.174  31.487  14.584  1.00  0.00     0.174 HD
ATOM     29  HN1 UNL     1     -42.778  30.676  14.596  1.00  0.00     0.174 HD
ENDBRANCH  10  27
TORSDOF 6
ENDMDL
MODEL 19
REMARK VINA RESULT:    -7.382      9.693     10.651
REMARK INTER + INTRA:         -10.181
REMARK INTER:                  -9.587
REMARK INTRA:                  -0.594
REMARK UNBOUND:                -0.641
REMARK  6 active torsions:
REMARK  status: ('A' for Active; 'I' for Inactive)
REMARK    1  A    between atoms: P_1  and  O_5 
REMARK    2  A    between atoms: O_5  and  C_6 
REMARK    3  A    between atoms: C_6  and  C_7 
REMARK    4  A    between atoms: C_9  and  O_10 
REMARK    5  A    between atoms: C_13  and  N_14 
REMARK    6  A    between atoms: C_23  and  N_24 
ROOT
HETATM    1  N   UNL     1     -34.248  35.984   6.270  1.00  0.00    -0.299 N 
HETATM    2  C   UNL     1     -35.455  35.339   6.146  1.00  0.00     0.188 A 
HETATM    3  N   UNL     1     -35.951  35.395   4.933  1.00  0.00    -0.345 N 
ATOM      4  HN  UNL     1     -36.825  34.990   4.596  1.00  0.00     0.167 HD
HETATM    5  C   UNL     1     -35.020  36.128   4.214  1.00  0.00     0.147 A 
HETATM    6  C   UNL     1     -34.996  36.513   2.835  1.00  0.00     0.290 A 
HETATM    7  O   UNL     1     -35.841  36.248   1.983  1.00  0.00    -0.265 OA
HETATM    8  N   UNL     1     -33.863  37.242   2.520  1.00  0.00    -0.154 N 
ATOM      9  HN  UNL     1     -33.761  37.562   1.556  1.00  0.00     0.187 HD
HETATM   10  C   UNL     1     -32.865  37.568   3.408  1.00  0.00     0.680 A 
HETATM   11  N   UNL     1     -32.880  37.218   4.695  1.00  0.00    -0.174 N 
ATOM     12  HN  UNL     1     -32.144  37.465   5.356  1.00  0.00     0.186 HD
HETATM   13  C   UNL     1     -33.968  36.505   5.026  1.00  0.00     0.159 A 
ENDROOT
BRANCH   1  14
HETATM   14  C   UNL     1     -33.395  35.999   7.464  1.00  0.00     0.233 C 
HETATM   15  O   UNL     1     -33.830  34.945   8.311  1.00  0.00    -0.356 OA
HETATM   16  C   UNL     1     -33.830  35.378   9.688  1.00  0.00     0.177 C 
HETATM   17  C   UNL     1     -33.197  36.771   9.692  1.00  0.00     0.153 C 
HETATM   18  C   UNL     1     -33.494  37.276   8.285  1.00  0.00     0.088 C 
BRANCH  16  19
HETATM   19  C   UNL     1     -35.237  35.293  10.232  1.00  0.00     0.217 C 
BRANCH  19  20
HETATM   20  O   UNL     1     -35.526  36.451  11.050  1.00  0.00    -0.280 OA
BRANCH  20  21
HETATM   21  P   UNL     1     -35.721  36.367  12.668  1.00  0.00     0.422 P 
HETATM   22  O   UNL     1     -35.682  34.915  13.055  1.00  0.00    -0.617 OA
HETATM   23  O   UNL     1     -37.089  37.012  13.014  1.00  0.00    -0.617 OA
HETATM   24  O   UNL     1     -34.570  37.156  13.347  1.00  0.00    -0.617 OA
ENDBRANCH  20  21
ENDBRANCH  19  20
ENDBRANCH  16  19
BRANCH  17  25
HETATM   25  O   UNL     1     -31.785  36.669   9.892  1.00  0.00    -0.393 OA
ATOM     26  HO  UNL     1     -31.575  35.857  10.339  1.00  0.00     0.210 HD
ENDBRANCH  17  25
ENDBRANCH   1  14
BRANCH  10  27
HETATM   27  N   UNL     1     -31.821  38.259   2.925  1.00  0.00    -0.234 N 
ATOM     28  HN2 UNL     1     -31.869  38.646   1.983  1.00  0.00     0.174 HD
ATOM     29  HN1 UNL     1     -31.018  38.379   3.544  1.00  0.00     0.174 HD
ENDBRANCH  10  27
TORSDOF 6
ENDMDL
MODEL 20
REMARK VINA RESULT:    -7.316      8.260      9.338
REMARK INTER + INTRA:         -10.095
REMARK INTER:                  -9.363
REMARK INTRA:                  -0.732
REMARK UNBOUND:                -0.641
REMARK  6 active torsions:
REMARK  status: ('A' for Active; 'I' for Inactive)
REMARK    1  A    between atoms: P_1  and  O_5 
REMARK    2  A    between atoms: O_5  and  C_6 
REMARK    3  A    between atoms: C_6  and  C_7 
REMARK    4  A    between atoms: C_9  and  O_10 
REMARK    5  A    between atoms: C_13  and  N_14 
REMARK    6  A    between atoms: C_23  and  N_24 
ROOT
HETATM    1  N   UNL     1     -33.824  33.290   7.055  1.00  0.00    -0.299 N 
HETATM    2  C   UNL     1     -33.070  32.623   6.121  1.00  0.00     0.188 A 
HETATM    3  N   UNL     1     -32.665  33.389   5.136  1.00  0.00    -0.345 N 
ATOM      4  HN  UNL     1     -32.093  33.126   4.333  1.00  0.00     0.167 HD
HETATM    5  C   UNL     1     -33.190  34.637   5.433  1.00  0.00     0.147 A 
HETATM    6  C   UNL     1     -33.084  35.886   4.740  1.00  0.00     0.290 A 
HETATM    7  O   UNL     1     -32.470  36.098   3.697  1.00  0.00    -0.265 OA
HETATM    8  N   UNL     1     -33.762  36.900   5.392  1.00  0.00    -0.154 N 
ATOM      9  HN  UNL     1     -33.743  37.828   4.969  1.00  0.00     0.187 HD
HETATM   10  C   UNL     1     -34.459  36.751   6.569  1.00  0.00     0.680 A 
HETATM   11  N   UNL     1     -34.567  35.592   7.220  1.00  0.00    -0.174 N 
ATOM     12  HN  UNL     1     -35.090  35.478   8.088  1.00  0.00     0.186 HD
HETATM   13  C   UNL     1     -33.914  34.591   6.609  1.00  0.00     0.159 A 
ENDROOT
BRANCH   1  14
HETATM   14  C   UNL     1     -34.321  32.737   8.320  1.00  0.00     0.233 C 
HETATM   15  O   UNL     1     -35.647  33.216   8.500  1.00  0.00    -0.356 OA
HETATM   16  C   UNL     1     -35.862  33.581   9.881  1.00  0.00     0.177 C 
HETATM   17  C   UNL     1     -34.604  33.147  10.633  1.00  0.00     0.153 C 
HETATM   18  C   UNL     1     -33.537  33.180   9.545  1.00  0.00     0.088 C 
BRANCH  16  19
HETATM   19  C   UNL     1     -36.199  35.052   9.955  1.00  0.00     0.217 C 
BRANCH  19  20
HETATM   20  O   UNL     1     -37.007  35.321  11.124  1.00  0.00    -0.280 OA
BRANCH  20  21
HETATM   21  P   UNL     1     -36.455  36.161  12.410  1.00  0.00     0.422 P 
HETATM   22  O   UNL     1     -37.615  36.926  12.984  1.00  0.00    -0.617 OA
HETATM   23  O   UNL     1     -35.337  37.113  11.909  1.00  0.00    -0.617 OA
HETATM   24  O   UNL     1     -35.880  35.159  13.446  1.00  0.00    -0.617 OA
ENDBRANCH  20  21
ENDBRANCH  19  20
ENDBRANCH  16  19
BRANCH  17  25
HETATM   25  O   UNL     1     -34.762  31.815  11.129  1.00  0.00    -0.393 OA
ATOM     26  HO  UNL     1     -35.324  31.816  11.895  1.00  0.00     0.210 HD
ENDBRANCH  17  25
ENDBRANCH   1  14
BRANCH  10  27
HETATM   27  N   UNL     1     -35.035  37.850   7.080  1.00  0.00    -0.234 N 
ATOM     28  HN2 UNL     1     -34.448  38.610   7.424  1.00  0.00     0.174 HD
ATOM     29  HN1 UNL     1     -36.055  37.879   7.084  1.00  0.00     0.174 HD
ENDBRANCH  10  27
TORSDOF 6
ENDMDL
