MODEL 1
REMARK VINA RESULT:   -11.632      0.000      0.000
REMARK INTER + INTRA:         -20.633
REMARK INTER:                 -19.112
REMARK INTRA:                  -1.522
REMARK UNBOUND:                -1.522
REMARK  11 active torsions:
REMARK  status: ('A' for Active; 'I' for Inactive)
REMARK    1  A    between atoms: C_2  and  O_55 
REMARK    2  A    between atoms: C_2  and  C_35 
REMARK    3  A    between atoms: C_3  and  O_57 
REMARK    4  A    between atoms: C_6  and  O_58 
REMARK    5  A    between atoms: C_9  and  O_57 
REMARK    6  A    between atoms: C_12  and  C_23 
REMARK    7  A    between atoms: C_13  and  N_45 
REMARK       I    between atoms: C_14  and  N_45 
REMARK    8  A    between atoms: C_14  and  O_55 
REMARK       I    between atoms: C_23  and  N_51 
REMARK    9  A    between atoms: C_24  and  S_62 
REMARK   10  A    between atoms: C_35  and  C_38 
REMARK   11  A    between atoms: N_51  and  S_62 
ROOT
HETATM    1  C   UNL     1     -15.802  20.706 -16.133  1.00  0.00     0.243 C 
HETATM    2  C   UNL     1     -13.455  19.643 -16.323  1.00  0.00     0.181 C 
HETATM    3  C   UNL     1     -12.743  18.701 -17.449  1.00  0.00     0.069 C 
HETATM    4  C   UNL     1     -13.769  17.966 -17.875  1.00  0.00     0.151 C 
HETATM    5  C   UNL     1     -14.928  19.029 -18.102  1.00  0.00     0.159 C 
HETATM    6  C   UNL     1     -13.033  21.048 -16.090  1.00  0.00     0.241 C 
HETATM    7  C   UNL     1     -12.066  22.538 -14.263  1.00  0.00     0.122 A 
HETATM    8  C   UNL     1     -17.168  20.865 -16.808  1.00  0.00     0.179 C 
HETATM    9  C   UNL     1     -17.381  22.357 -17.086  1.00  0.00     0.035 C 
HETATM   10  C   UNL     1     -16.307  22.885 -18.091  1.00  0.00     0.002 C 
HETATM   11  C   UNL     1     -13.244  23.534 -14.067  1.00  0.00     0.048 A 
HETATM   12  C   UNL     1     -13.434  25.042 -14.262  1.00  0.00    -0.023 C 
HETATM   13  C   UNL     1     -14.374  25.618 -15.046  1.00  0.00    -0.030 C 
HETATM   14  C   UNL     1     -15.401  24.805 -15.865  1.00  0.00     0.027 C 
HETATM   15  C   UNL     1     -15.226  25.093 -17.374  1.00  0.00     0.004 C 
HETATM   16  C   UNL     1     -12.416  23.072 -12.861  1.00  0.00     0.053 A 
HETATM   17  C   UNL     1     -16.399  24.441 -18.173  1.00  0.00     0.000 C 
HETATM   18  N   UNL     1     -14.775  19.869 -16.747  1.00  0.00    -0.334 N 
HETATM   19  N   UNL     1     -12.399  21.226 -14.819  1.00  0.00    -0.341 N 
ATOM     20  HN  UNL     1     -12.167  20.396 -14.273  1.00  0.00     0.163 HD
HETATM   21  O   UNL     1     -13.204  21.931 -16.873  1.00  0.00    -0.271 OA
HETATM   22  O   UNL     1     -15.591  21.269 -15.108  1.00  0.00    -0.271 OA
ENDROOT
BRANCH   4  23
HETATM   23  O   UNL     1     -14.493  17.177 -16.890  1.00  0.00    -0.327 OA
BRANCH  23  24
HETATM   24  C   UNL     1     -13.751  16.052 -16.585  1.00  0.00     0.165 A 
HETATM   25  C   UNL     1     -13.389  15.799 -15.117  1.00  0.00     0.057 A 
HETATM   26  C   UNL     1     -13.906  16.742 -14.033  1.00  0.00     0.072 C 
HETATM   27  N   UNL     1     -12.581  14.680 -14.731  1.00  0.00    -0.358 N 
HETATM   28  C   UNL     1     -12.146  13.824 -15.823  1.00  0.00     0.032 A 
ATOM     29  HN  UNL     1     -12.329  14.497 -13.760  1.00  0.00     0.165 HD
HETATM   30  C   UNL     1     -12.495  14.084 -17.287  1.00  0.00     0.036 A 
HETATM   31  C   UNL     1     -11.275  12.610 -15.412  1.00  0.00     0.061 A 
HETATM   32  N   UNL     1     -13.304  15.229 -17.675  1.00  0.00    -0.337 N 
HETATM   33  C   UNL     1     -12.014  13.159 -18.413  1.00  0.00     0.091 A 
ATOM     34  HN  UNL     1     -13.536  15.432 -18.646  1.00  0.00     0.168 HD
HETATM   35  C   UNL     1     -11.151  11.963 -17.983  1.00  0.00     0.126 A 
HETATM   36  C   UNL     1     -10.786  11.705 -16.520  1.00  0.00     0.038 A 
BRANCH  35  37
HETATM   37  O   UNL     1     -10.684  11.108 -18.960  1.00  0.00    -0.390 OA
HETATM   38  C   UNL     1      -9.310  10.820 -18.900  1.00  0.00     0.202 C 
ENDBRANCH  35  37
ENDBRANCH  23  24
ENDBRANCH   4  23
BRANCH   8  39
HETATM   39  N   UNL     1     -18.226  20.443 -15.955  1.00  0.00    -0.324 N 
HETATM   40  C   UNL     1     -18.732  19.100 -16.089  1.00  0.00     0.361 C 
HETATM   41  O   UNL     1     -18.353  18.342 -16.944  1.00  0.00    -0.239 OA
ATOM     42  HN  UNL     1     -18.620  21.078 -15.261  1.00  0.00     0.165 HD
BRANCH  40  43
HETATM   43  O   UNL     1     -19.719  18.739 -15.157  1.00  0.00    -0.303 OA
BRANCH  43  44
HETATM   44  C   UNL     1     -19.213  17.813 -14.223  1.00  0.00     0.199 C 
BRANCH  44  45
HETATM   45  C   UNL     1     -20.016  18.102 -12.950  1.00  0.00     0.080 A 
HETATM   46  C   UNL     1     -21.473  17.615 -12.911  1.00  0.00     0.022 A 
HETATM   47  C   UNL     1     -21.162  19.101 -13.153  1.00  0.00     0.022 A 
BRANCH  45  48
HETATM   48  C   UNL     1     -19.277  18.203 -11.594  1.00  0.00     0.397 C 
HETATM   49  F   UNL     1     -20.156  17.978 -10.594  1.00  0.00    -0.170 F 
HETATM   50  F   UNL     1     -18.285  17.254 -11.571  1.00  0.00    -0.170 F 
HETATM   51  F   UNL     1     -18.778  19.480 -11.515  1.00  0.00    -0.170 F 
ENDBRANCH  45  48
ENDBRANCH  44  45
ENDBRANCH  43  44
ENDBRANCH  40  43
ENDBRANCH   8  39
BRANCH   7  52
HETATM   52  C   UNL     1     -10.880  23.308 -14.784  1.00  0.00     0.260 C 
HETATM   53  O   UNL     1     -10.416  24.298 -14.289  1.00  0.00    -0.270 OA
HETATM   54  N   UNL     1     -10.243  22.710 -15.908  1.00  0.00    -0.252 N 
ATOM     55  HN  UNL     1     -10.590  21.847 -16.327  1.00  0.00     0.181 HD
BRANCH  54  56
HETATM   56  S   UNL     1      -8.919  23.485 -16.492  1.00  0.00     0.241 S 
HETATM   57  O   UNL     1      -7.904  23.886 -15.508  1.00  0.00    -0.205 OA
HETATM   58  O   UNL     1      -9.329  24.671 -17.251  1.00  0.00    -0.205 OA
BRANCH  56  59
HETATM   59  C   UNL     1      -8.215  22.383 -17.738  1.00  0.00     0.079 A 
HETATM   60  C   UNL     1      -6.814  22.800 -18.181  1.00  0.00     0.028 A 
HETATM   61  C   UNL     1      -6.995  21.607 -17.227  1.00  0.00     0.028 A 
HETATM   62  C   UNL     1      -9.140  21.690 -18.767  1.00  0.00     0.034 C 
ENDBRANCH  56  59
ENDBRANCH  54  56
ENDBRANCH   7  52
TORSDOF 11
ENDMDL
MODEL 2
REMARK VINA RESULT:   -11.379      0.802      1.106
REMARK INTER + INTRA:         -20.218
REMARK INTER:                 -18.815
REMARK INTRA:                  -1.403
REMARK UNBOUND:                -1.522
REMARK  11 active torsions:
REMARK  status: ('A' for Active; 'I' for Inactive)
REMARK    1  A    between atoms: C_2  and  O_55 
REMARK    2  A    between atoms: C_2  and  C_35 
REMARK    3  A    between atoms: C_3  and  O_57 
REMARK    4  A    between atoms: C_6  and  O_58 
REMARK    5  A    between atoms: C_9  and  O_57 
REMARK    6  A    between atoms: C_12  and  C_23 
REMARK    7  A    between atoms: C_13  and  N_45 
REMARK       I    between atoms: C_14  and  N_45 
REMARK    8  A    between atoms: C_14  and  O_55 
REMARK       I    between atoms: C_23  and  N_51 
REMARK    9  A    between atoms: C_24  and  S_62 
REMARK   10  A    between atoms: C_35  and  C_38 
REMARK   11  A    between atoms: N_51  and  S_62 
ROOT
HETATM    1  C   UNL     1     -15.789  20.603 -16.037  1.00  0.00     0.243 C 
HETATM    2  C   UNL     1     -13.427  19.574 -16.218  1.00  0.00     0.181 C 
HETATM    3  C   UNL     1     -12.705  18.620 -17.327  1.00  0.00     0.069 C 
HETATM    4  C   UNL     1     -13.721  17.859 -17.732  1.00  0.00     0.151 C 
HETATM    5  C   UNL     1     -14.898  18.900 -17.975  1.00  0.00     0.159 C 
HETATM    6  C   UNL     1     -13.026  20.990 -16.016  1.00  0.00     0.241 C 
HETATM    7  C   UNL     1     -12.073  22.533 -14.225  1.00  0.00     0.122 A 
HETATM    8  C   UNL     1     -17.161  20.727 -16.709  1.00  0.00     0.179 C 
HETATM    9  C   UNL     1     -17.398  22.209 -17.017  1.00  0.00     0.035 C 
HETATM   10  C   UNL     1     -16.338  22.732 -18.038  1.00  0.00     0.002 C 
HETATM   11  C   UNL     1     -13.266  23.515 -14.044  1.00  0.00     0.048 A 
HETATM   12  C   UNL     1     -13.481  25.014 -14.270  1.00  0.00    -0.023 C 
HETATM   13  C   UNL     1     -14.434  25.559 -15.061  1.00  0.00    -0.030 C 
HETATM   14  C   UNL     1     -15.452  24.713 -15.858  1.00  0.00     0.027 C 
HETATM   15  C   UNL     1     -15.288  24.972 -17.373  1.00  0.00     0.004 C 
HETATM   16  C   UNL     1     -12.426  23.091 -12.833  1.00  0.00     0.053 A 
HETATM   17  C   UNL     1     -16.454  24.285 -18.152  1.00  0.00     0.000 C 
HETATM   18  N   UNL     1     -14.752  19.770 -16.639  1.00  0.00    -0.334 N 
HETATM   19  N   UNL     1     -12.388  21.204 -14.752  1.00  0.00    -0.341 N 
ATOM     20  HN  UNL     1     -12.141  20.390 -14.190  1.00  0.00     0.163 HD
HETATM   21  O   UNL     1     -13.214  21.853 -16.816  1.00  0.00    -0.271 OA
HETATM   22  O   UNL     1     -15.582  21.192 -15.025  1.00  0.00    -0.271 OA
ENDROOT
BRANCH   4  23
HETATM   23  O   UNL     1     -14.428  17.080 -16.727  1.00  0.00    -0.327 OA
BRANCH  23  24
HETATM   24  C   UNL     1     -13.683  15.957 -16.427  1.00  0.00     0.165 A 
HETATM   25  C   UNL     1     -13.473  15.599 -14.951  1.00  0.00     0.057 A 
HETATM   26  C   UNL     1     -14.139  16.439 -13.863  1.00  0.00     0.072 C 
HETATM   27  N   UNL     1     -12.671  14.476 -14.563  1.00  0.00    -0.358 N 
HETATM   28  C   UNL     1     -12.089  13.722 -15.661  1.00  0.00     0.032 A 
ATOM     29  HN  UNL     1     -12.520  14.225 -13.586  1.00  0.00     0.165 HD
HETATM   30  C   UNL     1     -12.285  14.086 -17.131  1.00  0.00     0.036 A 
HETATM   31  C   UNL     1     -11.223  12.504 -15.248  1.00  0.00     0.061 A 
HETATM   32  N   UNL     1     -13.089  15.235 -17.519  1.00  0.00    -0.337 N 
HETATM   33  C   UNL     1     -11.652  13.267 -18.263  1.00  0.00     0.091 A 
ATOM     34  HN  UNL     1     -13.222  15.507 -18.492  1.00  0.00     0.168 HD
HETATM   35  C   UNL     1     -10.796  12.066 -17.831  1.00  0.00     0.126 A 
HETATM   36  C   UNL     1     -10.583  11.704 -16.359  1.00  0.00     0.038 A 
BRANCH  35  37
HETATM   37  O   UNL     1     -10.195  11.304 -18.811  1.00  0.00    -0.390 OA
HETATM   38  C   UNL     1      -8.996  11.825 -19.327  1.00  0.00     0.202 C 
ENDBRANCH  35  37
ENDBRANCH  23  24
ENDBRANCH   4  23
BRANCH   8  39
HETATM   39  N   UNL     1     -18.208  20.306 -15.842  1.00  0.00    -0.324 N 
HETATM   40  C   UNL     1     -18.537  18.905 -15.781  1.00  0.00     0.361 C 
HETATM   41  O   UNL     1     -18.019  18.080 -16.488  1.00  0.00    -0.239 OA
ATOM     42  HN  UNL     1     -18.716  20.983 -15.273  1.00  0.00     0.165 HD
BRANCH  40  43
HETATM   43  O   UNL     1     -19.526  18.565 -14.842  1.00  0.00    -0.303 OA
BRANCH  43  44
HETATM   44  C   UNL     1     -19.091  18.843 -13.531  1.00  0.00     0.199 C 
BRANCH  44  45
HETATM   45  C   UNL     1     -19.934  17.906 -12.660  1.00  0.00     0.080 A 
HETATM   46  C   UNL     1     -19.293  17.384 -11.364  1.00  0.00     0.022 A 
HETATM   47  C   UNL     1     -19.397  16.470 -12.595  1.00  0.00     0.022 A 
BRANCH  45  48
HETATM   48  C   UNL     1     -21.475  18.040 -12.672  1.00  0.00     0.397 C 
HETATM   49  F   UNL     1     -21.806  19.302 -13.022  1.00  0.00    -0.170 F 
HETATM   50  F   UNL     1     -21.979  17.151 -13.589  1.00  0.00    -0.170 F 
HETATM   51  F   UNL     1     -21.902  17.770 -11.395  1.00  0.00    -0.170 F 
ENDBRANCH  45  48
ENDBRANCH  44  45
ENDBRANCH  43  44
ENDBRANCH  40  43
ENDBRANCH   8  39
BRANCH   7  52
HETATM   52  C   UNL     1     -10.902  23.310 -14.769  1.00  0.00     0.260 C 
HETATM   53  O   UNL     1     -10.461  24.326 -14.306  1.00  0.00    -0.270 OA
HETATM   54  N   UNL     1     -10.249  22.689 -15.871  1.00  0.00    -0.252 N 
ATOM     55  HN  UNL     1     -10.577  21.806 -16.262  1.00  0.00     0.181 HD
BRANCH  54  56
HETATM   56  S   UNL     1      -8.940  23.472 -16.476  1.00  0.00     0.241 S 
HETATM   57  O   UNL     1      -7.914  23.886 -15.508  1.00  0.00    -0.205 OA
HETATM   58  O   UNL     1      -9.370  24.652 -17.235  1.00  0.00    -0.205 OA
BRANCH  56  59
HETATM   59  C   UNL     1      -8.244  22.371 -17.728  1.00  0.00     0.079 A 
HETATM   60  C   UNL     1      -6.847  22.788 -18.180  1.00  0.00     0.028 A 
HETATM   61  C   UNL     1      -7.021  21.594 -17.226  1.00  0.00     0.028 A 
HETATM   62  C   UNL     1      -9.177  21.679 -18.751  1.00  0.00     0.034 C 
ENDBRANCH  56  59
ENDBRANCH  54  56
ENDBRANCH   7  52
TORSDOF 11
ENDMDL
MODEL 3
REMARK VINA RESULT:   -10.313      1.348      2.091
REMARK INTER + INTRA:         -18.466
REMARK INTER:                 -17.983
REMARK INTRA:                  -0.483
REMARK UNBOUND:                -1.522
REMARK  11 active torsions:
REMARK  status: ('A' for Active; 'I' for Inactive)
REMARK    1  A    between atoms: C_2  and  O_55 
REMARK    2  A    between atoms: C_2  and  C_35 
REMARK    3  A    between atoms: C_3  and  O_57 
REMARK    4  A    between atoms: C_6  and  O_58 
REMARK    5  A    between atoms: C_9  and  O_57 
REMARK    6  A    between atoms: C_12  and  C_23 
REMARK    7  A    between atoms: C_13  and  N_45 
REMARK       I    between atoms: C_14  and  N_45 
REMARK    8  A    between atoms: C_14  and  O_55 
REMARK       I    between atoms: C_23  and  N_51 
REMARK    9  A    between atoms: C_24  and  S_62 
REMARK   10  A    between atoms: C_35  and  C_38 
REMARK   11  A    between atoms: N_51  and  S_62 
ROOT
HETATM    1  C   UNL     1     -15.946  20.849 -16.108  1.00  0.00     0.243 C 
HETATM    2  C   UNL     1     -13.632  19.719 -16.308  1.00  0.00     0.181 C 
HETATM    3  C   UNL     1     -12.949  18.764 -17.440  1.00  0.00     0.069 C 
HETATM    4  C   UNL     1     -13.996  18.063 -17.871  1.00  0.00     0.151 C 
HETATM    5  C   UNL     1     -15.124  19.162 -18.090  1.00  0.00     0.159 C 
HETATM    6  C   UNL     1     -13.169  21.109 -16.064  1.00  0.00     0.241 C 
HETATM    7  C   UNL     1     -12.157  22.556 -14.226  1.00  0.00     0.122 A 
HETATM    8  C   UNL     1     -17.308  21.053 -16.782  1.00  0.00     0.179 C 
HETATM    9  C   UNL     1     -17.476  22.553 -17.048  1.00  0.00     0.035 C 
HETATM   10  C   UNL     1     -16.387  23.056 -18.050  1.00  0.00     0.002 C 
HETATM   11  C   UNL     1     -13.305  23.585 -14.023  1.00  0.00     0.048 A 
HETATM   12  C   UNL     1     -13.451  25.099 -14.207  1.00  0.00    -0.023 C 
HETATM   13  C   UNL     1     -14.373  25.709 -14.986  1.00  0.00    -0.030 C 
HETATM   14  C   UNL     1     -15.424  24.932 -15.810  1.00  0.00     0.027 C 
HETATM   15  C   UNL     1     -15.241  25.226 -17.317  1.00  0.00     0.004 C 
HETATM   16  C   UNL     1     -12.491  23.090 -12.821  1.00  0.00     0.053 A 
HETATM   17  C   UNL     1     -16.433  24.616 -18.120  1.00  0.00     0.000 C 
HETATM   18  N   UNL     1     -14.945  19.987 -16.729  1.00  0.00    -0.334 N 
HETATM   19  N   UNL     1     -12.529  21.258 -14.792  1.00  0.00    -0.341 N 
ATOM     20  HN  UNL     1     -12.322  20.418 -14.252  1.00  0.00     0.163 HD
HETATM   21  O   UNL     1     -13.314  22.002 -16.840  1.00  0.00    -0.271 OA
HETATM   22  O   UNL     1     -15.719  21.398 -15.079  1.00  0.00    -0.271 OA
ENDROOT
BRANCH   4  23
HETATM   23  O   UNL     1     -14.743  17.288 -16.892  1.00  0.00    -0.327 OA
BRANCH  23  24
HETATM   24  C   UNL     1     -14.196  16.023 -16.812  1.00  0.00     0.165 A 
HETATM   25  C   UNL     1     -13.966  15.249 -18.116  1.00  0.00     0.057 A 
HETATM   26  C   UNL     1     -14.276  15.910 -19.457  1.00  0.00     0.072 C 
HETATM   27  N   UNL     1     -13.447  13.913 -18.108  1.00  0.00    -0.358 N 
HETATM   28  C   UNL     1     -13.163  13.367 -16.791  1.00  0.00     0.032 A 
ATOM     29  HN  UNL     1     -13.289  13.384 -18.965  1.00  0.00     0.165 HD
HETATM   30  C   UNL     1     -13.406  14.131 -15.491  1.00  0.00     0.036 A 
HETATM   31  C   UNL     1     -12.598  11.923 -16.775  1.00  0.00     0.061 A 
HETATM   32  N   UNL     1     -13.945  15.482 -15.504  1.00  0.00    -0.337 N 
HETATM   33  C   UNL     1     -13.096  13.519 -14.119  1.00  0.00     0.091 A 
ATOM     34  HN  UNL     1     -14.131  16.006 -14.650  1.00  0.00     0.168 HD
HETATM   35  C   UNL     1     -12.540  12.088 -14.127  1.00  0.00     0.126 A 
HETATM   36  C   UNL     1     -12.307  11.310 -15.424  1.00  0.00     0.038 A 
BRANCH  35  37
HETATM   37  O   UNL     1     -12.255  11.488 -12.918  1.00  0.00    -0.390 OA
HETATM   38  C   UNL     1     -13.255  11.609 -11.937  1.00  0.00     0.202 C 
ENDBRANCH  35  37
ENDBRANCH  23  24
ENDBRANCH   4  23
BRANCH   8  39
HETATM   39  N   UNL     1     -18.378  20.656 -15.931  1.00  0.00    -0.324 N 
HETATM   40  C   UNL     1     -18.707  19.257 -15.838  1.00  0.00     0.361 C 
HETATM   41  O   UNL     1     -18.169  18.413 -16.507  1.00  0.00    -0.239 OA
ATOM     42  HN  UNL     1     -18.901  21.349 -15.396  1.00  0.00     0.165 HD
BRANCH  40  43
HETATM   43  O   UNL     1     -19.721  18.943 -14.917  1.00  0.00    -0.303 OA
BRANCH  43  44
HETATM   44  C   UNL     1     -19.240  19.022 -13.594  1.00  0.00     0.199 C 
BRANCH  44  45
HETATM   45  C   UNL     1     -19.654  17.683 -12.975  1.00  0.00     0.080 A 
HETATM   46  C   UNL     1     -19.249  16.405 -13.726  1.00  0.00     0.022 A 
HETATM   47  C   UNL     1     -20.697  16.915 -13.796  1.00  0.00     0.022 A 
BRANCH  45  48
HETATM   48  C   UNL     1     -19.803  17.573 -11.439  1.00  0.00     0.397 C 
HETATM   49  F   UNL     1     -19.107  18.572 -10.854  1.00  0.00    -0.170 F 
HETATM   50  F   UNL     1     -21.135  17.682 -11.125  1.00  0.00    -0.170 F 
HETATM   51  F   UNL     1     -19.282  16.353 -11.081  1.00  0.00    -0.170 F 
ENDBRANCH  45  48
ENDBRANCH  44  45
ENDBRANCH  43  44
ENDBRANCH  40  43
ENDBRANCH   8  39
BRANCH   7  52
HETATM   52  C   UNL     1     -10.949  23.294 -14.743  1.00  0.00     0.260 C 
HETATM   53  O   UNL     1     -10.445  24.255 -14.231  1.00  0.00    -0.270 OA
HETATM   54  N   UNL     1     -10.345  22.699 -15.887  1.00  0.00    -0.252 N 
ATOM     55  HN  UNL     1     -10.728  21.859 -16.322  1.00  0.00     0.181 HD
BRANCH  54  56
HETATM   56  S   UNL     1      -9.000  23.439 -16.467  1.00  0.00     0.241 S 
HETATM   57  O   UNL     1      -7.970  23.800 -15.482  1.00  0.00    -0.205 OA
HETATM   58  O   UNL     1      -9.375  24.644 -17.214  1.00  0.00    -0.205 OA
BRANCH  56  59
HETATM   59  C   UNL     1      -8.332  22.328 -17.726  1.00  0.00     0.079 A 
HETATM   60  C   UNL     1      -6.953  22.751 -18.225  1.00  0.00     0.028 A 
HETATM   61  C   UNL     1      -7.087  21.569 -17.251  1.00  0.00     0.028 A 
HETATM   62  C   UNL     1      -9.289  21.615 -18.711  1.00  0.00     0.034 C 
ENDBRANCH  56  59
ENDBRANCH  54  56
ENDBRANCH   7  52
TORSDOF 11
ENDMDL
MODEL 4
REMARK VINA RESULT:    -9.988      2.146      2.879
REMARK INTER + INTRA:         -17.933
REMARK INTER:                 -16.344
REMARK INTRA:                  -1.589
REMARK UNBOUND:                -1.522
REMARK  11 active torsions:
REMARK  status: ('A' for Active; 'I' for Inactive)
REMARK    1  A    between atoms: C_2  and  O_55 
REMARK    2  A    between atoms: C_2  and  C_35 
REMARK    3  A    between atoms: C_3  and  O_57 
REMARK    4  A    between atoms: C_6  and  O_58 
REMARK    5  A    between atoms: C_9  and  O_57 
REMARK    6  A    between atoms: C_12  and  C_23 
REMARK    7  A    between atoms: C_13  and  N_45 
REMARK       I    between atoms: C_14  and  N_45 
REMARK    8  A    between atoms: C_14  and  O_55 
REMARK       I    between atoms: C_23  and  N_51 
REMARK    9  A    between atoms: C_24  and  S_62 
REMARK   10  A    between atoms: C_35  and  C_38 
REMARK   11  A    between atoms: N_51  and  S_62 
ROOT
HETATM    1  C   UNL     1     -15.909  20.699 -15.891  1.00  0.00     0.243 C 
HETATM    2  C   UNL     1     -13.564  19.623 -16.026  1.00  0.00     0.181 C 
HETATM    3  C   UNL     1     -12.856  18.615 -17.096  1.00  0.00     0.069 C 
HETATM    4  C   UNL     1     -13.885  17.857 -17.474  1.00  0.00     0.151 C 
HETATM    5  C   UNL     1     -15.044  18.907 -17.760  1.00  0.00     0.159 C 
HETATM    6  C   UNL     1     -13.140  21.039 -15.877  1.00  0.00     0.241 C 
HETATM    7  C   UNL     1     -12.165  22.633 -14.144  1.00  0.00     0.122 A 
HETATM    8  C   UNL     1     -17.277  20.819 -16.571  1.00  0.00     0.179 C 
HETATM    9  C   UNL     1     -17.489  22.293 -16.935  1.00  0.00     0.035 C 
HETATM   10  C   UNL     1     -16.418  22.758 -17.974  1.00  0.00     0.002 C 
HETATM   11  C   UNL     1     -13.341  23.641 -14.004  1.00  0.00     0.048 A 
HETATM   12  C   UNL     1     -13.530  25.135 -14.288  1.00  0.00    -0.023 C 
HETATM   13  C   UNL     1     -14.472  25.665 -15.102  1.00  0.00    -0.030 C 
HETATM   14  C   UNL     1     -15.503  24.806 -15.868  1.00  0.00     0.027 C 
HETATM   15  C   UNL     1     -15.331  25.004 -17.392  1.00  0.00     0.004 C 
HETATM   16  C   UNL     1     -12.510  23.250 -12.776  1.00  0.00     0.053 A 
HETATM   17  C   UNL     1     -16.508  24.308 -18.147  1.00  0.00     0.000 C 
HETATM   18  N   UNL     1     -14.885  19.826 -16.458  1.00  0.00    -0.334 N 
HETATM   19  N   UNL     1     -12.501  21.291 -14.621  1.00  0.00    -0.341 N 
ATOM     20  HN  UNL     1     -12.269  20.495 -14.027  1.00  0.00     0.163 HD
HETATM   21  O   UNL     1     -13.312  21.874 -16.711  1.00  0.00    -0.271 OA
HETATM   22  O   UNL     1     -15.694  21.322 -14.902  1.00  0.00    -0.271 OA
ENDROOT
BRANCH   4  23
HETATM   23  O   UNL     1     -14.607  17.129 -16.442  1.00  0.00    -0.327 OA
BRANCH  23  24
HETATM   24  C   UNL     1     -14.998  15.906 -16.949  1.00  0.00     0.165 A 
HETATM   25  C   UNL     1     -14.051  14.712 -16.772  1.00  0.00     0.057 A 
HETATM   26  C   UNL     1     -12.750  14.883 -15.992  1.00  0.00     0.072 C 
HETATM   27  N   UNL     1     -14.368  13.424 -17.315  1.00  0.00    -0.358 N 
HETATM   28  C   UNL     1     -15.633  13.345 -18.027  1.00  0.00     0.032 A 
ATOM     29  HN  UNL     1     -13.750  12.619 -17.208  1.00  0.00     0.165 HD
HETATM   30  C   UNL     1     -16.569  14.537 -18.216  1.00  0.00     0.036 A 
HETATM   31  C   UNL     1     -15.983  11.953 -18.613  1.00  0.00     0.061 A 
HETATM   32  N   UNL     1     -16.236  15.846 -17.675  1.00  0.00    -0.337 N 
HETATM   33  C   UNL     1     -17.895  14.416 -18.977  1.00  0.00     0.091 A 
ATOM     34  HN  UNL     1     -16.837  16.660 -17.802  1.00  0.00     0.168 HD
HETATM   35  C   UNL     1     -18.221  13.028 -19.551  1.00  0.00     0.126 A 
HETATM   36  C   UNL     1     -17.281  11.833 -19.378  1.00  0.00     0.038 A 
BRANCH  35  37
HETATM   37  O   UNL     1     -19.397  12.870 -20.254  1.00  0.00    -0.390 OA
HETATM   38  C   UNL     1     -19.796  13.980 -21.017  1.00  0.00     0.202 C 
ENDBRANCH  35  37
ENDBRANCH  23  24
ENDBRANCH   4  23
BRANCH   8  39
HETATM   39  N   UNL     1     -18.333  20.450 -15.690  1.00  0.00    -0.324 N 
HETATM   40  C   UNL     1     -18.642  19.052 -15.527  1.00  0.00     0.361 C 
HETATM   41  O   UNL     1     -18.099  18.184 -16.159  1.00  0.00    -0.239 OA
ATOM     42  HN  UNL     1     -18.861  21.161 -15.185  1.00  0.00     0.165 HD
BRANCH  40  43
HETATM   43  O   UNL     1     -19.642  18.770 -14.581  1.00  0.00    -0.303 OA
BRANCH  43  44
HETATM   44  C   UNL     1     -19.103  18.715 -13.280  1.00  0.00     0.199 C 
BRANCH  44  45
HETATM   45  C   UNL     1     -19.851  17.550 -12.623  1.00  0.00     0.080 A 
HETATM   46  C   UNL     1     -20.835  16.761 -13.500  1.00  0.00     0.022 A 
HETATM   47  C   UNL     1     -21.359  17.783 -12.480  1.00  0.00     0.022 A 
BRANCH  45  48
HETATM   48  C   UNL     1     -19.182  16.782 -11.458  1.00  0.00     0.397 C 
HETATM   49  F   UNL     1     -19.761  15.567 -11.339  1.00  0.00    -0.170 F 
HETATM   50  F   UNL     1     -17.847  16.640 -11.743  1.00  0.00    -0.170 F 
HETATM   51  F   UNL     1     -19.397  17.526 -10.324  1.00  0.00    -0.170 F 
ENDBRANCH  45  48
ENDBRANCH  44  45
ENDBRANCH  43  44
ENDBRANCH  40  43
ENDBRANCH   8  39
BRANCH   7  52
HETATM   52  C   UNL     1     -10.979  23.370 -14.715  1.00  0.00     0.260 C 
HETATM   53  O   UNL     1     -10.491  24.368 -14.260  1.00  0.00    -0.270 OA
HETATM   54  N   UNL     1     -10.375  22.728 -15.833  1.00  0.00    -0.252 N 
ATOM     55  HN  UNL     1     -10.744  21.858 -16.217  1.00  0.00     0.181 HD
BRANCH  54  56
HETATM   56  S   UNL     1      -9.054  23.465 -16.468  1.00  0.00     0.241 S 
HETATM   57  O   UNL     1      -8.000  23.857 -15.521  1.00  0.00    -0.205 OA
HETATM   58  O   UNL     1      -9.460  24.649 -17.232  1.00  0.00    -0.205 OA
BRANCH  56  59
HETATM   59  C   UNL     1      -8.412  22.331 -17.719  1.00  0.00     0.079 A 
HETATM   60  C   UNL     1      -7.043  22.744 -18.253  1.00  0.00     0.028 A 
HETATM   61  C   UNL     1      -7.158  21.579 -17.255  1.00  0.00     0.028 A 
HETATM   62  C   UNL     1      -9.389  21.600 -18.671  1.00  0.00     0.034 C 
ENDBRANCH  56  59
ENDBRANCH  54  56
ENDBRANCH   7  52
TORSDOF 11
ENDMDL
MODEL 5
REMARK VINA RESULT:    -9.664      2.071      2.701
REMARK INTER + INTRA:         -17.400
REMARK INTER:                 -17.132
REMARK INTRA:                  -0.268
REMARK UNBOUND:                -1.522
REMARK  11 active torsions:
REMARK  status: ('A' for Active; 'I' for Inactive)
REMARK    1  A    between atoms: C_2  and  O_55 
REMARK    2  A    between atoms: C_2  and  C_35 
REMARK    3  A    between atoms: C_3  and  O_57 
REMARK    4  A    between atoms: C_6  and  O_58 
REMARK    5  A    between atoms: C_9  and  O_57 
REMARK    6  A    between atoms: C_12  and  C_23 
REMARK    7  A    between atoms: C_13  and  N_45 
REMARK       I    between atoms: C_14  and  N_45 
REMARK    8  A    between atoms: C_14  and  O_55 
REMARK       I    between atoms: C_23  and  N_51 
REMARK    9  A    between atoms: C_24  and  S_62 
REMARK   10  A    between atoms: C_35  and  C_38 
REMARK   11  A    between atoms: N_51  and  S_62 
ROOT
HETATM    1  C   UNL     1     -15.985  20.885 -16.153  1.00  0.00     0.243 C 
HETATM    2  C   UNL     1     -13.671  19.747 -16.311  1.00  0.00     0.181 C 
HETATM    3  C   UNL     1     -12.975  18.781 -17.426  1.00  0.00     0.069 C 
HETATM    4  C   UNL     1     -14.018  18.079 -17.866  1.00  0.00     0.151 C 
HETATM    5  C   UNL     1     -15.139  19.180 -18.109  1.00  0.00     0.159 C 
HETATM    6  C   UNL     1     -13.207  21.138 -16.073  1.00  0.00     0.241 C 
HETATM    7  C   UNL     1     -12.217  22.597 -14.233  1.00  0.00     0.122 A 
HETATM    8  C   UNL     1     -17.336  21.088 -16.848  1.00  0.00     0.179 C 
HETATM    9  C   UNL     1     -17.496  22.586 -17.129  1.00  0.00     0.035 C 
HETATM   10  C   UNL     1     -16.392  23.077 -18.120  1.00  0.00     0.002 C 
HETATM   11  C   UNL     1     -13.365  23.632 -14.054  1.00  0.00     0.048 A 
HETATM   12  C   UNL     1     -13.503  25.144 -14.253  1.00  0.00    -0.023 C 
HETATM   13  C   UNL     1     -14.413  25.750 -15.050  1.00  0.00    -0.030 C 
HETATM   14  C   UNL     1     -15.455  24.970 -15.882  1.00  0.00     0.027 C 
HETATM   15  C   UNL     1     -15.249  25.250 -17.389  1.00  0.00     0.004 C 
HETATM   16  C   UNL     1     -12.569  23.144 -12.837  1.00  0.00     0.053 A 
HETATM   17  C   UNL     1     -16.432  24.636 -18.204  1.00  0.00     0.000 C 
HETATM   18  N   UNL     1     -14.977  20.015 -16.753  1.00  0.00    -0.334 N 
HETATM   19  N   UNL     1     -12.585  21.296 -14.793  1.00  0.00    -0.341 N 
ATOM     20  HN  UNL     1     -12.388  20.459 -14.244  1.00  0.00     0.163 HD
HETATM   21  O   UNL     1     -13.339  22.025 -16.858  1.00  0.00    -0.271 OA
HETATM   22  O   UNL     1     -15.770  21.443 -15.126  1.00  0.00    -0.271 OA
ENDROOT
BRANCH   4  23
HETATM   23  O   UNL     1     -14.781  17.315 -16.890  1.00  0.00    -0.327 OA
BRANCH  23  24
HETATM   24  C   UNL     1     -14.243  16.046 -16.797  1.00  0.00     0.165 A 
HETATM   25  C   UNL     1     -14.020  15.257 -18.093  1.00  0.00     0.057 A 
HETATM   26  C   UNL     1     -14.327  15.906 -19.441  1.00  0.00     0.072 C 
HETATM   27  N   UNL     1     -13.511  13.917 -18.071  1.00  0.00    -0.358 N 
HETATM   28  C   UNL     1     -13.229  13.384 -16.748  1.00  0.00     0.032 A 
ATOM     29  HN  UNL     1     -13.357  13.377 -18.922  1.00  0.00     0.165 HD
HETATM   30  C   UNL     1     -13.465  14.163 -15.457  1.00  0.00     0.036 A 
HETATM   31  C   UNL     1     -12.675  11.936 -16.718  1.00  0.00     0.061 A 
HETATM   32  N   UNL     1     -13.995  15.518 -15.484  1.00  0.00    -0.337 N 
HETATM   33  C   UNL     1     -13.158  13.565 -14.078  1.00  0.00     0.091 A 
ATOM     34  HN  UNL     1     -14.176  16.053 -14.635  1.00  0.00     0.168 HD
HETATM   35  C   UNL     1     -12.613  12.129 -14.071  1.00  0.00     0.126 A 
HETATM   36  C   UNL     1     -12.387  11.336 -15.360  1.00  0.00     0.038 A 
BRANCH  35  37
HETATM   37  O   UNL     1     -12.331  11.541 -12.855  1.00  0.00    -0.390 OA
HETATM   38  C   UNL     1     -13.331  11.676 -11.877  1.00  0.00     0.202 C 
ENDBRANCH  35  37
ENDBRANCH  23  24
ENDBRANCH   4  23
BRANCH   8  39
HETATM   39  N   UNL     1     -18.419  20.701 -16.009  1.00  0.00    -0.324 N 
HETATM   40  C   UNL     1     -18.887  19.340 -16.065  1.00  0.00     0.361 C 
HETATM   41  O   UNL     1     -18.456  18.532 -16.846  1.00  0.00    -0.239 OA
ATOM     42  HN  UNL     1     -18.855  21.375 -15.379  1.00  0.00     0.165 HD
BRANCH  40  43
HETATM   43  O   UNL     1     -19.904  19.022 -15.149  1.00  0.00    -0.303 OA
BRANCH  43  44
HETATM   44  C   UNL     1     -21.019  19.866 -15.321  1.00  0.00     0.199 C 
BRANCH  44  45
HETATM   45  C   UNL     1     -22.177  19.072 -14.708  1.00  0.00     0.080 A 
HETATM   46  C   UNL     1     -22.285  19.052 -13.176  1.00  0.00     0.022 A 
HETATM   47  C   UNL     1     -21.733  17.830 -13.926  1.00  0.00     0.022 A 
BRANCH  45  48
HETATM   48  C   UNL     1     -23.496  18.920 -15.504  1.00  0.00     0.397 C 
HETATM   49  F   UNL     1     -24.449  19.685 -14.930  1.00  0.00    -0.170 F 
HETATM   50  F   UNL     1     -23.273  19.335 -16.793  1.00  0.00    -0.170 F 
HETATM   51  F   UNL     1     -23.843  17.593 -15.437  1.00  0.00    -0.170 F 
ENDBRANCH  45  48
ENDBRANCH  44  45
ENDBRANCH  43  44
ENDBRANCH  40  43
ENDBRANCH   8  39
BRANCH   7  52
HETATM   52  C   UNL     1     -11.000  23.328 -14.739  1.00  0.00     0.260 C 
HETATM   53  O   UNL     1     -10.494  24.286 -14.223  1.00  0.00    -0.270 OA
HETATM   54  N   UNL     1     -10.389  22.729 -15.877  1.00  0.00    -0.252 N 
ATOM     55  HN  UNL     1     -10.773  21.891 -16.315  1.00  0.00     0.181 HD
BRANCH  54  56
HETATM   56  S   UNL     1      -9.034  23.460 -16.445  1.00  0.00     0.241 S 
HETATM   57  O   UNL     1      -8.015  23.823 -15.450  1.00  0.00    -0.205 OA
HETATM   58  O   UNL     1      -9.395  24.662 -17.204  1.00  0.00    -0.205 OA
BRANCH  56  59
HETATM   59  C   UNL     1      -8.355  22.339 -17.689  1.00  0.00     0.079 A 
HETATM   60  C   UNL     1      -6.968  22.754 -18.173  1.00  0.00     0.028 A 
HETATM   61  C   UNL     1      -7.119  21.577 -17.194  1.00  0.00     0.028 A 
HETATM   62  C   UNL     1      -9.303  21.623 -18.681  1.00  0.00     0.034 C 
ENDBRANCH  56  59
ENDBRANCH  54  56
ENDBRANCH   7  52
TORSDOF 11
ENDMDL
MODEL 6
REMARK VINA RESULT:    -9.590      1.600      1.918
REMARK INTER + INTRA:         -17.279
REMARK INTER:                 -15.566
REMARK INTRA:                  -1.713
REMARK UNBOUND:                -1.522
REMARK  11 active torsions:
REMARK  status: ('A' for Active; 'I' for Inactive)
REMARK    1  A    between atoms: C_2  and  O_55 
REMARK    2  A    between atoms: C_2  and  C_35 
REMARK    3  A    between atoms: C_3  and  O_57 
REMARK    4  A    between atoms: C_6  and  O_58 
REMARK    5  A    between atoms: C_9  and  O_57 
REMARK    6  A    between atoms: C_12  and  C_23 
REMARK    7  A    between atoms: C_13  and  N_45 
REMARK       I    between atoms: C_14  and  N_45 
REMARK    8  A    between atoms: C_14  and  O_55 
REMARK       I    between atoms: C_23  and  N_51 
REMARK    9  A    between atoms: C_24  and  S_62 
REMARK   10  A    between atoms: C_35  and  C_38 
REMARK   11  A    between atoms: N_51  and  S_62 
ROOT
HETATM    1  C   UNL     1     -16.064  20.696 -15.828  1.00  0.00     0.243 C 
HETATM    2  C   UNL     1     -13.731  19.606 -15.626  1.00  0.00     0.181 C 
HETATM    3  C   UNL     1     -12.965  18.441 -16.473  1.00  0.00     0.069 C 
HETATM    4  C   UNL     1     -13.975  17.636 -16.799  1.00  0.00     0.151 C 
HETATM    5  C   UNL     1     -15.097  18.631 -17.328  1.00  0.00     0.159 C 
HETATM    6  C   UNL     1     -13.298  21.027 -15.672  1.00  0.00     0.241 C 
HETATM    7  C   UNL     1     -12.424  22.871 -14.145  1.00  0.00     0.122 A 
HETATM    8  C   UNL     1     -17.381  20.712 -16.613  1.00  0.00     0.179 C 
HETATM    9  C   UNL     1     -17.546  22.111 -17.218  1.00  0.00     0.035 C 
HETATM   10  C   UNL     1     -16.399  22.404 -18.238  1.00  0.00     0.002 C 
HETATM   11  C   UNL     1     -13.593  23.891 -14.248  1.00  0.00     0.048 A 
HETATM   12  C   UNL     1     -13.742  25.322 -14.775  1.00  0.00    -0.023 C 
HETATM   13  C   UNL     1     -14.617  25.721 -15.726  1.00  0.00    -0.030 C 
HETATM   14  C   UNL     1     -15.604  24.755 -16.419  1.00  0.00     0.027 C 
HETATM   15  C   UNL     1     -15.325  24.710 -17.939  1.00  0.00     0.004 C 
HETATM   16  C   UNL     1     -12.855  23.696 -12.918  1.00  0.00     0.053 A 
HETATM   17  C   UNL     1     -16.455  23.907 -18.657  1.00  0.00     0.000 C 
HETATM   18  N   UNL     1     -15.016  19.742 -16.177  1.00  0.00    -0.334 N 
HETATM   19  N   UNL     1     -12.745  21.471 -14.428  1.00  0.00    -0.341 N 
ATOM     20  HN  UNL     1     -12.565  20.777 -13.702  1.00  0.00     0.163 HD
HETATM   21  O   UNL     1     -13.401  21.721 -16.635  1.00  0.00    -0.271 OA
HETATM   22  O   UNL     1     -15.910  21.466 -14.935  1.00  0.00    -0.271 OA
ENDROOT
BRANCH   4  23
HETATM   23  O   UNL     1     -14.777  17.080 -15.720  1.00  0.00    -0.327 OA
BRANCH  23  24
HETATM   24  C   UNL     1     -14.917  15.722 -15.921  1.00  0.00     0.165 A 
HETATM   25  C   UNL     1     -16.335  15.152 -16.052  1.00  0.00     0.057 A 
HETATM   26  C   UNL     1     -17.538  16.092 -16.027  1.00  0.00     0.072 C 
HETATM   27  N   UNL     1     -16.561  13.745 -16.214  1.00  0.00    -0.358 N 
HETATM   28  C   UNL     1     -15.361  12.925 -16.244  1.00  0.00     0.032 A 
ATOM     29  HN  UNL     1     -17.496  13.349 -16.301  1.00  0.00     0.165 HD
HETATM   30  C   UNL     1     -13.950  13.490 -16.099  1.00  0.00     0.036 A 
HETATM   31  C   UNL     1     -15.598  11.404 -16.422  1.00  0.00     0.061 A 
HETATM   32  N   UNL     1     -13.727  14.917 -15.921  1.00  0.00    -0.337 N 
HETATM   33  C   UNL     1     -12.707  12.591 -16.132  1.00  0.00     0.091 A 
ATOM     34  HN  UNL     1     -12.796  15.316 -15.806  1.00  0.00     0.168 HD
HETATM   35  C   UNL     1     -12.965  11.087 -16.307  1.00  0.00     0.126 A 
HETATM   36  C   UNL     1     -14.377  10.512 -16.439  1.00  0.00     0.038 A 
BRANCH  35  37
HETATM   37  O   UNL     1     -11.881  10.235 -16.333  1.00  0.00    -0.390 OA
HETATM   38  C   UNL     1     -12.194   8.867 -16.410  1.00  0.00     0.202 C 
ENDBRANCH  35  37
ENDBRANCH  23  24
ENDBRANCH   4  23
BRANCH   8  39
HETATM   39  N   UNL     1     -18.500  20.488 -15.762  1.00  0.00    -0.324 N 
HETATM   40  C   UNL     1     -19.512  19.552 -16.180  1.00  0.00     0.361 C 
HETATM   41  O   UNL     1     -19.495  19.006 -17.253  1.00  0.00    -0.239 OA
ATOM     42  HN  UNL     1     -18.584  20.981 -14.873  1.00  0.00     0.165 HD
BRANCH  40  43
HETATM   43  O   UNL     1     -20.540  19.330 -15.248  1.00  0.00    -0.303 OA
BRANCH  43  44
HETATM   44  C   UNL     1     -20.010  18.998 -13.985  1.00  0.00     0.199 C 
BRANCH  44  45
HETATM   45  C   UNL     1     -21.163  18.271 -13.285  1.00  0.00     0.080 A 
HETATM   46  C   UNL     1     -22.374  17.878 -14.146  1.00  0.00     0.022 A 
HETATM   47  C   UNL     1     -22.457  19.092 -13.206  1.00  0.00     0.022 A 
BRANCH  45  48
HETATM   48  C   UNL     1     -20.863  17.383 -12.054  1.00  0.00     0.397 C 
HETATM   49  F   UNL     1     -22.015  17.136 -11.395  1.00  0.00    -0.170 F 
HETATM   50  F   UNL     1     -20.312  16.205 -12.496  1.00  0.00    -0.170 F 
HETATM   51  F   UNL     1     -20.000  18.095 -11.258  1.00  0.00    -0.170 F 
ENDBRANCH  45  48
ENDBRANCH  44  45
ENDBRANCH  43  44
ENDBRANCH  40  43
ENDBRANCH   8  39
BRANCH   7  52
HETATM   52  C   UNL     1     -11.192  23.505 -14.738  1.00  0.00     0.260 C 
HETATM   53  O   UNL     1     -10.605  24.449 -14.287  1.00  0.00    -0.270 OA
HETATM   54  N   UNL     1     -10.676  22.826 -15.878  1.00  0.00    -0.252 N 
ATOM     55  HN  UNL     1     -11.131  21.997 -16.262  1.00  0.00     0.181 HD
BRANCH  54  56
HETATM   56  S   UNL     1      -9.310  23.450 -16.540  1.00  0.00     0.241 S 
HETATM   57  O   UNL     1      -8.195  23.717 -15.620  1.00  0.00    -0.205 OA
HETATM   58  O   UNL     1      -9.624  24.686 -17.264  1.00  0.00    -0.205 OA
BRANCH  56  59
HETATM   59  C   UNL     1      -8.818  22.291 -17.835  1.00  0.00     0.079 A 
HETATM   60  C   UNL     1     -10.004  21.592 -18.494  1.00  0.00     0.028 A 
HETATM   61  C   UNL     1      -9.276  22.728 -19.232  1.00  0.00     0.028 A 
HETATM   62  C   UNL     1      -7.479  21.522 -17.715  1.00  0.00     0.034 C 
ENDBRANCH  56  59
ENDBRANCH  54  56
ENDBRANCH   7  52
TORSDOF 11
ENDMDL
MODEL 7
REMARK VINA RESULT:    -9.113      4.409      8.480
REMARK INTER + INTRA:         -16.495
REMARK INTER:                 -15.339
REMARK INTRA:                  -1.156
REMARK UNBOUND:                -1.522
REMARK  11 active torsions:
REMARK  status: ('A' for Active; 'I' for Inactive)
REMARK    1  A    between atoms: C_2  and  O_55 
REMARK    2  A    between atoms: C_2  and  C_35 
REMARK    3  A    between atoms: C_3  and  O_57 
REMARK    4  A    between atoms: C_6  and  O_58 
REMARK    5  A    between atoms: C_9  and  O_57 
REMARK    6  A    between atoms: C_12  and  C_23 
REMARK    7  A    between atoms: C_13  and  N_45 
REMARK       I    between atoms: C_14  and  N_45 
REMARK    8  A    between atoms: C_14  and  O_55 
REMARK       I    between atoms: C_23  and  N_51 
REMARK    9  A    between atoms: C_24  and  S_62 
REMARK   10  A    between atoms: C_35  and  C_38 
REMARK   11  A    between atoms: N_51  and  S_62 
ROOT
HETATM    1  C   UNL     1     -12.875  22.117 -16.981  1.00  0.00     0.243 C 
HETATM    2  C   UNL     1     -14.603  20.301 -17.602  1.00  0.00     0.181 C 
HETATM    3  C   UNL     1     -15.390  19.163 -16.737  1.00  0.00     0.069 C 
HETATM    4  C   UNL     1     -14.471  18.830 -15.831  1.00  0.00     0.151 C 
HETATM    5  C   UNL     1     -13.926  20.231 -15.312  1.00  0.00     0.159 C 
HETATM    6  C   UNL     1     -15.306  21.472 -18.188  1.00  0.00     0.241 C 
HETATM    7  C   UNL     1     -15.814  22.540 -20.445  1.00  0.00     0.122 A 
HETATM    8  C   UNL     1     -12.060  22.740 -15.842  1.00  0.00     0.179 C 
HETATM    9  C   UNL     1     -12.473  24.211 -15.722  1.00  0.00     0.035 C 
HETATM   10  C   UNL     1     -13.980  24.324 -15.325  1.00  0.00     0.002 C 
HETATM   11  C   UNL     1     -15.049  23.886 -20.291  1.00  0.00     0.048 A 
HETATM   12  C   UNL     1     -15.451  25.364 -20.256  1.00  0.00    -0.023 C 
HETATM   13  C   UNL     1     -15.176  26.228 -19.253  1.00  0.00    -0.030 C 
HETATM   14  C   UNL     1     -14.400  25.820 -17.980  1.00  0.00     0.027 C 
HETATM   15  C   UNL     1     -15.288  26.020 -16.730  1.00  0.00     0.004 C 
HETATM   16  C   UNL     1     -15.085  23.170 -21.647  1.00  0.00     0.053 A 
HETATM   17  C   UNL     1     -14.432  25.815 -15.440  1.00  0.00     0.000 C 
HETATM   18  N   UNL     1     -13.741  20.971 -16.720  1.00  0.00    -0.334 N 
HETATM   19  N   UNL     1     -15.354  21.424 -19.618  1.00  0.00    -0.341 N 
ATOM     20  HN  UNL     1     -15.052  20.568 -20.084  1.00  0.00     0.163 HD
HETATM   21  O   UNL     1     -15.778  22.354 -17.540  1.00  0.00    -0.271 OA
HETATM   22  O   UNL     1     -12.792  22.577 -18.074  1.00  0.00    -0.271 OA
ENDROOT
BRANCH   4  23
HETATM   23  O   UNL     1     -13.186  18.349 -16.313  1.00  0.00    -0.327 OA
BRANCH  23  24
HETATM   24  C   UNL     1     -13.096  16.993 -16.070  1.00  0.00     0.165 A 
HETATM   25  C   UNL     1     -12.676  16.075 -17.225  1.00  0.00     0.057 A 
HETATM   26  C   UNL     1     -12.304  16.678 -18.578  1.00  0.00     0.072 C 
HETATM   27  N   UNL     1     -12.608  14.653 -17.059  1.00  0.00    -0.358 N 
HETATM   28  C   UNL     1     -12.962  14.166 -15.736  1.00  0.00     0.032 A 
ATOM     29  HN  UNL     1     -12.332  14.028 -17.816  1.00  0.00     0.165 HD
HETATM   30  C   UNL     1     -13.394  15.077 -14.590  1.00  0.00     0.036 A 
HETATM   31  C   UNL     1     -12.887  12.629 -15.550  1.00  0.00     0.061 A 
HETATM   32  N   UNL     1     -13.475  16.519 -14.767  1.00  0.00    -0.337 N 
HETATM   33  C   UNL     1     -13.763  14.525 -13.207  1.00  0.00     0.091 A 
ATOM     34  HN  UNL     1     -13.776  17.147 -14.022  1.00  0.00     0.168 HD
HETATM   35  C   UNL     1     -13.685  12.999 -13.046  1.00  0.00     0.126 A 
HETATM   36  C   UNL     1     -13.265  12.078 -14.194  1.00  0.00     0.038 A 
BRANCH  35  37
HETATM   37  O   UNL     1     -14.017  12.452 -11.824  1.00  0.00    -0.390 OA
HETATM   38  C   UNL     1     -15.093  11.547 -11.844  1.00  0.00     0.202 C 
ENDBRANCH  35  37
ENDBRANCH  23  24
ENDBRANCH   4  23
BRANCH   8  39
HETATM   39  N   UNL     1     -10.665  22.718 -16.125  1.00  0.00    -0.324 N 
HETATM   40  C   UNL     1      -9.783  23.530 -15.326  1.00  0.00     0.361 C 
HETATM   41  O   UNL     1     -10.180  24.287 -14.478  1.00  0.00    -0.239 OA
ATOM     42  HN  UNL     1     -10.296  22.138 -16.878  1.00  0.00     0.165 HD
BRANCH  40  43
HETATM   43  O   UNL     1      -8.416  23.389 -15.617  1.00  0.00    -0.303 OA
BRANCH  43  44
HETATM   44  C   UNL     1      -8.073  24.107 -16.780  1.00  0.00     0.199 C 
BRANCH  44  45
HETATM   45  C   UNL     1      -7.843  23.015 -17.830  1.00  0.00     0.080 A 
HETATM   46  C   UNL     1      -7.203  21.703 -17.352  1.00  0.00     0.022 A 
HETATM   47  C   UNL     1      -6.363  22.736 -18.120  1.00  0.00     0.022 A 
BRANCH  45  48
HETATM   48  C   UNL     1      -8.789  22.927 -19.052  1.00  0.00     0.397 C 
HETATM   49  F   UNL     1      -9.759  23.858 -18.928  1.00  0.00    -0.170 F 
HETATM   50  F   UNL     1      -8.052  23.163 -20.186  1.00  0.00    -0.170 F 
HETATM   51  F   UNL     1      -9.332  21.666 -19.036  1.00  0.00    -0.170 F 
ENDBRANCH  45  48
ENDBRANCH  44  45
ENDBRANCH  43  44
ENDBRANCH  40  43
ENDBRANCH   8  39
BRANCH   7  52
HETATM   52  C   UNL     1     -17.285  22.844 -20.565  1.00  0.00     0.260 C 
HETATM   53  O   UNL     1     -17.923  22.822 -21.581  1.00  0.00    -0.270 OA
HETATM   54  N   UNL     1     -17.935  23.082 -19.321  1.00  0.00    -0.252 N 
ATOM     55  HN  UNL     1     -17.427  23.070 -18.437  1.00  0.00     0.181 HD
BRANCH  54  56
HETATM   56  S   UNL     1     -19.548  23.378 -19.389  1.00  0.00     0.241 S 
HETATM   57  O   UNL     1     -20.014  24.240 -20.485  1.00  0.00    -0.205 OA
HETATM   58  O   UNL     1     -20.006  23.949 -18.118  1.00  0.00    -0.205 OA
BRANCH  56  59
HETATM   59  C   UNL     1     -20.342  21.757 -19.457  1.00  0.00     0.079 A 
HETATM   60  C   UNL     1     -19.583  20.687 -18.677  1.00  0.00     0.028 A 
HETATM   61  C   UNL     1     -20.871  21.294 -18.094  1.00  0.00     0.028 A 
HETATM   62  C   UNL     1     -21.126  21.335 -20.724  1.00  0.00     0.034 C 
ENDBRANCH  56  59
ENDBRANCH  54  56
ENDBRANCH   7  52
TORSDOF 11
ENDMDL
