MODEL 1
REMARK VINA RESULT:    -9.453      0.000      0.000
REMARK INTER + INTRA:         -12.472
REMARK INTER:                 -11.663
REMARK INTRA:                  -0.809
REMARK UNBOUND:                -0.809
REMARK  4 active torsions:
REMARK  status: ('A' for Active; 'I' for Inactive)
REMARK    1  A    between atoms: C_4  and  N_5 
REMARK    2  A    between atoms: N_5  and  C_7 
REMARK    3  A    between atoms: C_16  and  C_24 
REMARK       I    between atoms: N_20  and  C_21 
REMARK    4  A    between atoms: C_27  and  C_30 
ROOT
HETATM    1  C   UNL     1      38.208  48.880  67.824  1.00  0.00     0.033 C 
HETATM    2  C   UNL     1      38.734  49.607  66.593  1.00  0.00     0.091 C 
HETATM    3  C   UNL     1      38.313  51.076  66.521  1.00  0.00     0.055 C 
HETATM    4  C   UNL     1      39.207  51.872  65.642  1.00  0.00     0.119 C 
HETATM    5  C   UNL     1      40.575  51.908  66.360  1.00  0.00    -0.008 A 
HETATM    6  C   UNL     1      41.321  53.040  66.625  1.00  0.00     0.024 A 
HETATM    7  C   UNL     1      42.512  52.959  67.353  1.00  0.00    -0.025 A 
HETATM    8  C   UNL     1      42.928  51.734  67.862  1.00  0.00     0.014 A 
HETATM    9  C   UNL     1      42.201  50.594  67.622  1.00  0.00     0.031 A 
HETATM   10  C   UNL     1      41.042  50.679  66.828  1.00  0.00     0.046 A 
HETATM   11  N   UNL     1      40.197  49.505  66.516  1.00  0.00    -0.313 N 
HETATM   12  C   UNL     1      40.743  48.258  66.054  1.00  0.00     0.220 C 
HETATM   13  C   UNL     1      42.258  48.130  65.888  1.00  0.00     0.117 C 
HETATM   14  O   UNL     1      39.986  47.364  65.827  1.00  0.00    -0.273 OA
ENDROOT
BRANCH   4  15
HETATM   15  N   UNL     1      38.686  53.249  65.455  1.00  0.00    -0.381 N 
ATOM     16  HN  UNL     1      39.240  54.046  65.767  1.00  0.00     0.160 HD
BRANCH  15  17
HETATM   17  C   UNL     1      37.424  53.467  64.846  1.00  0.00     0.028 A 
HETATM   18  C   UNL     1      36.652  54.543  65.215  1.00  0.00     0.031 A 
HETATM   19  C   UNL     1      35.405  54.737  64.641  1.00  0.00     0.026 A 
HETATM   20  C   UNL     1      34.952  53.835  63.739  1.00  0.00     0.034 A 
HETATM   21  C   UNL     1      35.702  52.785  63.370  1.00  0.00     0.026 A 
HETATM   22 CL   UNL     1      33.374  54.063  62.990  1.00  0.00    -0.084 Cl
HETATM   23  C   UNL     1      36.939  52.552  63.923  1.00  0.00     0.031 A 
ENDBRANCH  15  17
ENDBRANCH   4  15
BRANCH   7  24
HETATM   24  C   UNL     1      43.368  54.212  67.566  1.00  0.00    -0.026 A 
HETATM   25  C   UNL     1      44.655  54.277  66.969  1.00  0.00     0.013 A 
HETATM   26  C   UNL     1      45.437  55.394  67.097  1.00  0.00     0.019 A 
HETATM   27  C   UNL     1      44.935  56.463  67.839  1.00  0.00     0.040 A 
HETATM   28  C   UNL     1      43.685  56.435  68.388  1.00  0.00     0.019 A 
HETATM   29  C   UNL     1      42.901  55.318  68.240  1.00  0.00     0.013 A 
BRANCH  27  30
HETATM   30  C   UNL     1      45.754  57.721  68.039  1.00  0.00     0.209 C 
HETATM   31  O   UNL     1      45.351  58.783  67.529  1.00  0.00    -0.644 OA
HETATM   32  O   UNL     1      46.811  57.661  68.702  1.00  0.00    -0.644 OA
ENDBRANCH  27  30
ENDBRANCH   7  24
TORSDOF 4
ENDMDL
MODEL 2
REMARK VINA RESULT:    -9.252      4.021      7.815
REMARK INTER + INTRA:         -12.225
REMARK INTER:                 -11.243
REMARK INTRA:                  -0.981
REMARK UNBOUND:                -0.809
REMARK  4 active torsions:
REMARK  status: ('A' for Active; 'I' for Inactive)
REMARK    1  A    between atoms: C_4  and  N_5 
REMARK    2  A    between atoms: N_5  and  C_7 
REMARK    3  A    between atoms: C_16  and  C_24 
REMARK       I    between atoms: N_20  and  C_21 
REMARK    4  A    between atoms: C_27  and  C_30 
ROOT
HETATM    1  C   UNL     1      37.182  54.816  68.605  1.00  0.00     0.033 C 
HETATM    2  C   UNL     1      38.435  54.910  67.743  1.00  0.00     0.091 C 
HETATM    3  C   UNL     1      39.735  54.735  68.531  1.00  0.00     0.055 C 
HETATM    4  C   UNL     1      40.867  54.329  67.658  1.00  0.00     0.119 C 
HETATM    5  C   UNL     1      40.528  52.902  67.171  1.00  0.00    -0.008 A 
HETATM    6  C   UNL     1      41.365  51.805  67.236  1.00  0.00     0.024 A 
HETATM    7  C   UNL     1      40.920  50.542  66.834  1.00  0.00    -0.025 A 
HETATM    8  C   UNL     1      39.607  50.374  66.411  1.00  0.00     0.014 A 
HETATM    9  C   UNL     1      38.750  51.445  66.346  1.00  0.00     0.031 A 
HETATM   10  C   UNL     1      39.232  52.723  66.686  1.00  0.00     0.046 A 
HETATM   11  N   UNL     1      38.384  53.936  66.645  1.00  0.00    -0.313 N 
HETATM   12  C   UNL     1      37.547  54.259  65.523  1.00  0.00     0.220 C 
HETATM   13  C   UNL     1      37.519  53.310  64.323  1.00  0.00     0.117 C 
HETATM   14  O   UNL     1      36.896  55.257  65.577  1.00  0.00    -0.273 OA
ENDROOT
BRANCH   4  15
HETATM   15  N   UNL     1      42.147  54.328  68.410  1.00  0.00    -0.381 N 
ATOM     16  HN  UNL     1      42.388  53.529  68.996  1.00  0.00     0.160 HD
BRANCH  15  17
HETATM   17  C   UNL     1      43.038  55.427  68.321  1.00  0.00     0.028 A 
HETATM   18  C   UNL     1      42.709  56.636  68.889  1.00  0.00     0.031 A 
HETATM   19  C   UNL     1      43.568  57.718  68.774  1.00  0.00     0.026 A 
HETATM   20  C   UNL     1      44.714  57.572  68.069  1.00  0.00     0.034 A 
HETATM   21  C   UNL     1      45.044  56.396  67.516  1.00  0.00     0.026 A 
HETATM   22 CL   UNL     1      45.824  58.931  67.916  1.00  0.00    -0.084 Cl
HETATM   23  C   UNL     1      44.215  55.301  67.599  1.00  0.00     0.031 A 
ENDBRANCH  15  17
ENDBRANCH   4  15
BRANCH   7  24
HETATM   24  C   UNL     1      41.887  49.352  66.834  1.00  0.00    -0.026 A 
HETATM   25  C   UNL     1      41.614  48.243  65.992  1.00  0.00     0.013 A 
HETATM   26  C   UNL     1      42.472  47.177  65.928  1.00  0.00     0.019 A 
HETATM   27  C   UNL     1      43.618  47.211  66.722  1.00  0.00     0.040 A 
HETATM   28  C   UNL     1      43.917  48.286  67.509  1.00  0.00     0.019 A 
HETATM   29  C   UNL     1      43.061  49.357  67.554  1.00  0.00     0.013 A 
BRANCH  27  30
HETATM   30  C   UNL     1      44.600  46.058  66.717  1.00  0.00     0.209 C 
HETATM   31  O   UNL     1      45.593  46.116  67.466  1.00  0.00    -0.644 OA
HETATM   32  O   UNL     1      44.394  45.086  65.960  1.00  0.00    -0.644 OA
ENDBRANCH  27  30
ENDBRANCH   7  24
TORSDOF 4
ENDMDL
MODEL 3
REMARK VINA RESULT:    -9.098      4.038      8.502
REMARK INTER + INTRA:         -12.035
REMARK INTER:                 -10.878
REMARK INTRA:                  -1.157
REMARK UNBOUND:                -0.809
REMARK  4 active torsions:
REMARK  status: ('A' for Active; 'I' for Inactive)
REMARK    1  A    between atoms: C_4  and  N_5 
REMARK    2  A    between atoms: N_5  and  C_7 
REMARK    3  A    between atoms: C_16  and  C_24 
REMARK       I    between atoms: N_20  and  C_21 
REMARK    4  A    between atoms: C_27  and  C_30 
ROOT
HETATM    1  C   UNL     1      37.948  54.916  68.656  1.00  0.00     0.033 C 
HETATM    2  C   UNL     1      39.180  54.691  67.789  1.00  0.00     0.091 C 
HETATM    3  C   UNL     1      40.401  54.203  68.572  1.00  0.00     0.055 C 
HETATM    4  C   UNL     1      41.391  53.524  67.697  1.00  0.00     0.119 C 
HETATM    5  C   UNL     1      40.705  52.223  67.222  1.00  0.00    -0.008 A 
HETATM    6  C   UNL     1      41.243  50.952  67.291  1.00  0.00     0.024 A 
HETATM    7  C   UNL     1      40.497  49.837  66.900  1.00  0.00    -0.025 A 
HETATM    8  C   UNL     1      39.180  49.998  66.484  1.00  0.00     0.014 A 
HETATM    9  C   UNL     1      38.616  51.248  66.415  1.00  0.00     0.031 A 
HETATM   10  C   UNL     1      39.402  52.368  66.744  1.00  0.00     0.046 A 
HETATM   11  N   UNL     1      38.882  53.754  66.698  1.00  0.00    -0.313 N 
HETATM   12  C   UNL     1      38.145  54.267  65.577  1.00  0.00     0.220 C 
HETATM   13  C   UNL     1      37.874  53.348  64.384  1.00  0.00     0.117 C 
HETATM   14  O   UNL     1      37.762  55.396  65.626  1.00  0.00    -0.273 OA
ENDROOT
BRANCH   4  15
HETATM   15  N   UNL     1      42.635  53.209  68.443  1.00  0.00    -0.381 N 
ATOM     16  HN  UNL     1      42.575  52.793  69.372  1.00  0.00     0.160 HD
BRANCH  15  17
HETATM   17  C   UNL     1      43.905  53.481  67.876  1.00  0.00     0.028 A 
HETATM   18  C   UNL     1      44.055  54.498  66.963  1.00  0.00     0.031 A 
HETATM   19  C   UNL     1      45.292  54.742  66.386  1.00  0.00     0.026 A 
HETATM   20  C   UNL     1      46.336  53.945  66.713  1.00  0.00     0.034 A 
HETATM   21  C   UNL     1      46.199  52.954  67.607  1.00  0.00     0.026 A 
HETATM   22 CL   UNL     1      47.919  54.240  66.000  1.00  0.00    -0.084 Cl
HETATM   23  C   UNL     1      44.987  52.673  68.194  1.00  0.00     0.031 A 
ENDBRANCH  15  17
ENDBRANCH   4  15
BRANCH   7  24
HETATM   24  C   UNL     1      41.137  48.444  66.905  1.00  0.00    -0.026 A 
HETATM   25  C   UNL     1      40.656  47.467  67.815  1.00  0.00     0.013 A 
HETATM   26  C   UNL     1      41.170  46.197  67.825  1.00  0.00     0.019 A 
HETATM   27  C   UNL     1      42.186  45.895  66.919  1.00  0.00     0.040 A 
HETATM   28  C   UNL     1      42.635  46.810  66.010  1.00  0.00     0.019 A 
HETATM   29  C   UNL     1      42.103  48.074  65.995  1.00  0.00     0.013 A 
BRANCH  27  30
HETATM   30  C   UNL     1      42.814  44.518  66.888  1.00  0.00     0.209 C 
HETATM   31  O   UNL     1      42.961  43.905  67.962  1.00  0.00    -0.644 OA
HETATM   32  O   UNL     1      43.175  44.037  65.793  1.00  0.00    -0.644 OA
ENDBRANCH  27  30
ENDBRANCH   7  24
TORSDOF 4
ENDMDL
MODEL 4
REMARK VINA RESULT:    -9.086      3.770      7.684
REMARK INTER + INTRA:         -12.020
REMARK INTER:                 -11.294
REMARK INTRA:                  -0.726
REMARK UNBOUND:                -0.809
REMARK  4 active torsions:
REMARK  status: ('A' for Active; 'I' for Inactive)
REMARK    1  A    between atoms: C_4  and  N_5 
REMARK    2  A    between atoms: N_5  and  C_7 
REMARK    3  A    between atoms: C_16  and  C_24 
REMARK       I    between atoms: N_20  and  C_21 
REMARK    4  A    between atoms: C_27  and  C_30 
ROOT
HETATM    1  C   UNL     1      43.945  51.115  70.334  1.00  0.00     0.033 C 
HETATM    2  C   UNL     1      43.889  50.965  68.818  1.00  0.00     0.091 C 
HETATM    3  C   UNL     1      42.817  49.985  68.338  1.00  0.00     0.055 C 
HETATM    4  C   UNL     1      42.438  50.221  66.921  1.00  0.00     0.119 C 
HETATM    5  C   UNL     1      41.727  51.594  66.903  1.00  0.00    -0.008 A 
HETATM    6  C   UNL     1      40.497  51.860  66.334  1.00  0.00     0.024 A 
HETATM    7  C   UNL     1      39.916  53.127  66.447  1.00  0.00    -0.025 A 
HETATM    8  C   UNL     1      40.556  54.118  67.182  1.00  0.00     0.014 A 
HETATM    9  C   UNL     1      41.776  53.878  67.766  1.00  0.00     0.031 A 
HETATM   10  C   UNL     1      42.382  52.620  67.585  1.00  0.00     0.046 A 
HETATM   11  N   UNL     1      43.694  52.271  68.174  1.00  0.00    -0.313 N 
HETATM   12  C   UNL     1      44.839  53.133  68.081  1.00  0.00     0.220 C 
HETATM   13  C   UNL     1      44.701  54.471  67.354  1.00  0.00     0.117 C 
HETATM   14  O   UNL     1      45.857  52.770  68.587  1.00  0.00    -0.273 OA
ENDROOT
BRANCH   4  15
HETATM   15  N   UNL     1      41.525  49.160  66.428  1.00  0.00    -0.381 N 
ATOM     16  HN  UNL     1      41.371  49.052  65.426  1.00  0.00     0.160 HD
BRANCH  15  17
HETATM   17  C   UNL     1      40.865  48.296  67.338  1.00  0.00     0.028 A 
HETATM   18  C   UNL     1      41.573  47.336  68.023  1.00  0.00     0.031 A 
HETATM   19  C   UNL     1      40.920  46.472  68.888  1.00  0.00     0.026 A 
HETATM   20  C   UNL     1      39.577  46.569  69.021  1.00  0.00     0.034 A 
HETATM   21  C   UNL     1      38.880  47.505  68.359  1.00  0.00     0.026 A 
HETATM   22 CL   UNL     1      38.726  45.487  70.120  1.00  0.00    -0.084 Cl
HETATM   23  C   UNL     1      39.488  48.375  67.485  1.00  0.00     0.031 A 
ENDBRANCH  15  17
ENDBRANCH   4  15
BRANCH   7  24
HETATM   24  C   UNL     1      38.589  53.429  65.740  1.00  0.00    -0.026 A 
HETATM   25  C   UNL     1      37.781  54.494  66.217  1.00  0.00     0.013 A 
HETATM   26  C   UNL     1      36.609  54.827  65.590  1.00  0.00     0.019 A 
HETATM   27  C   UNL     1      36.231  54.082  64.473  1.00  0.00     0.040 A 
HETATM   28  C   UNL     1      37.013  53.079  63.977  1.00  0.00     0.019 A 
HETATM   29  C   UNL     1      38.194  52.764  64.601  1.00  0.00     0.013 A 
BRANCH  27  30
HETATM   30  C   UNL     1      34.938  54.381  63.744  1.00  0.00     0.209 C 
HETATM   31  O   UNL     1      34.656  53.714  62.731  1.00  0.00    -0.644 OA
HETATM   32  O   UNL     1      34.194  55.290  64.170  1.00  0.00    -0.644 OA
ENDBRANCH  27  30
ENDBRANCH   7  24
TORSDOF 4
ENDMDL
MODEL 5
REMARK VINA RESULT:    -9.072      4.863      8.432
REMARK INTER + INTRA:         -12.003
REMARK INTER:                 -10.971
REMARK INTRA:                  -1.032
REMARK UNBOUND:                -0.809
REMARK  4 active torsions:
REMARK  status: ('A' for Active; 'I' for Inactive)
REMARK    1  A    between atoms: C_4  and  N_5 
REMARK    2  A    between atoms: N_5  and  C_7 
REMARK    3  A    between atoms: C_16  and  C_24 
REMARK       I    between atoms: N_20  and  C_21 
REMARK    4  A    between atoms: C_27  and  C_30 
ROOT
HETATM    1  C   UNL     1      45.880  55.087  69.107  1.00  0.00     0.033 C 
HETATM    2  C   UNL     1      44.576  54.880  69.867  1.00  0.00     0.091 C 
HETATM    3  C   UNL     1      43.607  56.060  69.755  1.00  0.00     0.055 C 
HETATM    4  C   UNL     1      42.206  55.662  70.047  1.00  0.00     0.119 C 
HETATM    5  C   UNL     1      41.789  54.723  68.893  1.00  0.00    -0.008 A 
HETATM    6  C   UNL     1      40.644  54.839  68.129  1.00  0.00     0.024 A 
HETATM    7  C   UNL     1      40.409  53.974  67.056  1.00  0.00    -0.025 A 
HETATM    8  C   UNL     1      41.359  53.017  66.720  1.00  0.00     0.014 A 
HETATM    9  C   UNL     1      42.511  52.885  67.456  1.00  0.00     0.031 A 
HETATM   10  C   UNL     1      42.702  53.717  68.576  1.00  0.00     0.046 A 
HETATM   11  N   UNL     1      43.910  53.647  69.428  1.00  0.00    -0.313 N 
HETATM   12  C   UNL     1      44.436  52.406  69.926  1.00  0.00     0.220 C 
HETATM   13  C   UNL     1      43.730  51.101  69.556  1.00  0.00     0.117 C 
HETATM   14  O   UNL     1      45.415  52.445  70.607  1.00  0.00    -0.273 OA
ENDROOT
BRANCH   4  15
HETATM   15  N   UNL     1      41.314  56.847  70.097  1.00  0.00    -0.381 N 
ATOM     16  HN  UNL     1      40.947  57.240  69.231  1.00  0.00     0.160 HD
BRANCH  15  17
HETATM   17  C   UNL     1      40.968  57.439  71.338  1.00  0.00     0.028 A 
HETATM   18  C   UNL     1      41.281  56.808  72.520  1.00  0.00     0.031 A 
HETATM   19  C   UNL     1      40.914  57.374  73.731  1.00  0.00     0.026 A 
HETATM   20  C   UNL     1      40.217  58.535  73.728  1.00  0.00     0.034 A 
HETATM   21  C   UNL     1      39.913  59.158  72.580  1.00  0.00     0.026 A 
HETATM   22 CL   UNL     1      39.746  59.276  75.255  1.00  0.00    -0.084 Cl
HETATM   23  C   UNL     1      40.250  58.626  71.358  1.00  0.00     0.031 A 
ENDBRANCH  15  17
ENDBRANCH   4  15
BRANCH   7  24
HETATM   24  C   UNL     1      39.095  54.063  66.272  1.00  0.00    -0.026 A 
HETATM   25  C   UNL     1      37.984  54.721  66.861  1.00  0.00     0.013 A 
HETATM   26  C   UNL     1      36.803  54.862  66.180  1.00  0.00     0.019 A 
HETATM   27  C   UNL     1      36.724  54.332  64.892  1.00  0.00     0.040 A 
HETATM   28  C   UNL     1      37.794  53.731  64.294  1.00  0.00     0.019 A 
HETATM   29  C   UNL     1      38.978  53.609  64.977  1.00  0.00     0.013 A 
BRANCH  27  30
HETATM   30  C   UNL     1      35.444  54.433  64.090  1.00  0.00     0.209 C 
HETATM   31  O   UNL     1      34.575  55.247  64.452  1.00  0.00    -0.644 OA
HETATM   32  O   UNL     1      35.290  53.695  63.093  1.00  0.00    -0.644 OA
ENDBRANCH  27  30
ENDBRANCH   7  24
TORSDOF 4
ENDMDL
MODEL 6
REMARK VINA RESULT:    -9.041      4.034      7.924
REMARK INTER + INTRA:         -11.964
REMARK INTER:                 -10.857
REMARK INTRA:                  -1.107
REMARK UNBOUND:                -0.809
REMARK  4 active torsions:
REMARK  status: ('A' for Active; 'I' for Inactive)
REMARK    1  A    between atoms: C_4  and  N_5 
REMARK    2  A    between atoms: N_5  and  C_7 
REMARK    3  A    between atoms: C_16  and  C_24 
REMARK       I    between atoms: N_20  and  C_21 
REMARK    4  A    between atoms: C_27  and  C_30 
ROOT
HETATM    1  C   UNL     1      37.189  54.846  68.609  1.00  0.00     0.033 C 
HETATM    2  C   UNL     1      38.517  54.931  67.866  1.00  0.00     0.091 C 
HETATM    3  C   UNL     1      39.733  54.647  68.750  1.00  0.00     0.055 C 
HETATM    4  C   UNL     1      40.920  54.240  67.955  1.00  0.00     0.119 C 
HETATM    5  C   UNL     1      40.566  52.862  67.350  1.00  0.00    -0.008 A 
HETATM    6  C   UNL     1      41.345  51.724  67.417  1.00  0.00     0.024 A 
HETATM    7  C   UNL     1      40.885  50.510  66.899  1.00  0.00    -0.025 A 
HETATM    8  C   UNL     1      39.609  50.431  66.354  1.00  0.00     0.014 A 
HETATM    9  C   UNL     1      38.808  51.545  66.283  1.00  0.00     0.031 A 
HETATM   10  C   UNL     1      39.311  52.775  66.745  1.00  0.00     0.046 A 
HETATM   11  N   UNL     1      38.523  54.028  66.708  1.00  0.00    -0.313 N 
HETATM   12  C   UNL     1      37.804  54.457  65.540  1.00  0.00     0.220 C 
HETATM   13  C   UNL     1      37.843  53.584  64.285  1.00  0.00     0.117 C 
HETATM   14  O   UNL     1      37.194  55.480  65.601  1.00  0.00    -0.273 OA
ENDROOT
BRANCH   4  15
HETATM   15  N   UNL     1      42.127  54.132  68.813  1.00  0.00    -0.381 N 
ATOM     16  HN  UNL     1      42.024  53.921  69.805  1.00  0.00     0.160 HD
BRANCH  15  17
HETATM   17  C   UNL     1      43.421  54.321  68.266  1.00  0.00     0.028 A 
HETATM   18  C   UNL     1      43.811  55.560  67.817  1.00  0.00     0.031 A 
HETATM   19  C   UNL     1      45.066  55.735  67.254  1.00  0.00     0.026 A 
HETATM   20  C   UNL     1      45.882  54.663  67.126  1.00  0.00     0.034 A 
HETATM   21  C   UNL     1      45.510  53.452  67.566  1.00  0.00     0.026 A 
HETATM   22 CL   UNL     1      47.484  54.862  66.421  1.00  0.00    -0.084 Cl
HETATM   23  C   UNL     1      44.271  53.234  68.122  1.00  0.00     0.031 A 
ENDBRANCH  15  17
ENDBRANCH   4  15
BRANCH   7  24
HETATM   24  C   UNL     1      41.796  49.277  66.907  1.00  0.00    -0.026 A 
HETATM   25  C   UNL     1      41.479  48.181  66.063  1.00  0.00     0.013 A 
HETATM   26  C   UNL     1      42.288  47.076  66.006  1.00  0.00     0.019 A 
HETATM   27  C   UNL     1      43.428  47.059  66.808  1.00  0.00     0.040 A 
HETATM   28  C   UNL     1      43.770  48.120  67.597  1.00  0.00     0.019 A 
HETATM   29  C   UNL     1      42.964  49.229  67.635  1.00  0.00     0.013 A 
BRANCH  27  30
HETATM   30  C   UNL     1      44.357  45.862  66.811  1.00  0.00     0.209 C 
HETATM   31  O   UNL     1      43.944  44.787  66.340  1.00  0.00    -0.644 OA
HETATM   32  O   UNL     1      45.504  45.983  67.291  1.00  0.00    -0.644 OA
ENDBRANCH  27  30
ENDBRANCH   7  24
TORSDOF 4
ENDMDL
MODEL 7
REMARK VINA RESULT:    -8.832      4.476      7.429
REMARK INTER + INTRA:         -11.706
REMARK INTER:                 -10.535
REMARK INTRA:                  -1.171
REMARK UNBOUND:                -0.809
REMARK  4 active torsions:
REMARK  status: ('A' for Active; 'I' for Inactive)
REMARK    1  A    between atoms: C_4  and  N_5 
REMARK    2  A    between atoms: N_5  and  C_7 
REMARK    3  A    between atoms: C_16  and  C_24 
REMARK       I    between atoms: N_20  and  C_21 
REMARK    4  A    between atoms: C_27  and  C_30 
ROOT
HETATM    1  C   UNL     1      45.778  49.167  67.053  1.00  0.00     0.033 C 
HETATM    2  C   UNL     1      44.951  49.737  68.199  1.00  0.00     0.091 C 
HETATM    3  C   UNL     1      44.932  51.267  68.241  1.00  0.00     0.055 C 
HETATM    4  C   UNL     1      43.769  51.792  69.000  1.00  0.00     0.119 C 
HETATM    5  C   UNL     1      42.523  51.424  68.163  1.00  0.00    -0.008 A 
HETATM    6  C   UNL     1      41.518  52.292  67.783  1.00  0.00     0.024 A 
HETATM    7  C   UNL     1      40.475  51.861  66.957  1.00  0.00    -0.025 A 
HETATM    8  C   UNL     1      40.472  50.559  66.470  1.00  0.00     0.014 A 
HETATM    9  C   UNL     1      41.463  49.677  66.824  1.00  0.00     0.031 A 
HETATM   10  C   UNL     1      42.468  50.104  67.713  1.00  0.00     0.046 A 
HETATM   11  N   UNL     1      43.575  49.224  68.152  1.00  0.00    -0.313 N 
HETATM   12  C   UNL     1      43.360  47.883  68.620  1.00  0.00     0.220 C 
HETATM   13  C   UNL     1      41.934  47.332  68.658  1.00  0.00     0.117 C 
HETATM   14  O   UNL     1      44.312  47.246  68.953  1.00  0.00    -0.273 OA
ENDROOT
BRANCH   4  15
HETATM   15  N   UNL     1      43.861  53.263  69.170  1.00  0.00    -0.381 N 
ATOM     16  HN  UNL     1      44.323  53.825  68.456  1.00  0.00     0.160 HD
BRANCH  15  17
HETATM   17  C   UNL     1      43.313  53.894  70.315  1.00  0.00     0.028 A 
HETATM   18  C   UNL     1      42.467  54.970  70.176  1.00  0.00     0.031 A 
HETATM   19  C   UNL     1      41.957  55.605  71.298  1.00  0.00     0.026 A 
HETATM   20  C   UNL     1      42.330  55.169  72.524  1.00  0.00     0.034 A 
HETATM   21  C   UNL     1      43.150  54.117  72.667  1.00  0.00     0.026 A 
HETATM   22 CL   UNL     1      41.688  55.955  73.964  1.00  0.00    -0.084 Cl
HETATM   23  C   UNL     1      43.685  53.466  71.580  1.00  0.00     0.031 A 
ENDBRANCH  15  17
ENDBRANCH   4  15
BRANCH   7  24
HETATM   24  C   UNL     1      39.326  52.815  66.612  1.00  0.00    -0.026 A 
HETATM   25  C   UNL     1      38.934  52.960  65.256  1.00  0.00     0.013 A 
HETATM   26  C   UNL     1      37.885  53.768  64.906  1.00  0.00     0.019 A 
HETATM   27  C   UNL     1      37.217  54.450  65.923  1.00  0.00     0.040 A 
HETATM   28  C   UNL     1      37.554  54.293  67.237  1.00  0.00     0.019 A 
HETATM   29  C   UNL     1      38.595  53.468  67.580  1.00  0.00     0.013 A 
BRANCH  27  30
HETATM   30  C   UNL     1      36.061  55.376  65.607  1.00  0.00     0.209 C 
HETATM   31  O   UNL     1      35.997  56.471  66.195  1.00  0.00    -0.644 OA
HETATM   32  O   UNL     1      35.201  55.016  64.775  1.00  0.00    -0.644 OA
ENDBRANCH  27  30
ENDBRANCH   7  24
TORSDOF 4
ENDMDL
MODEL 8
REMARK VINA RESULT:    -8.819      4.347      7.507
REMARK INTER + INTRA:         -11.691
REMARK INTER:                 -10.836
REMARK INTRA:                  -0.855
REMARK UNBOUND:                -0.809
REMARK  4 active torsions:
REMARK  status: ('A' for Active; 'I' for Inactive)
REMARK    1  A    between atoms: C_4  and  N_5 
REMARK    2  A    between atoms: N_5  and  C_7 
REMARK    3  A    between atoms: C_16  and  C_24 
REMARK       I    between atoms: N_20  and  C_21 
REMARK    4  A    between atoms: C_27  and  C_30 
ROOT
HETATM    1  C   UNL     1      44.280  48.649  70.538  1.00  0.00     0.033 C 
HETATM    2  C   UNL     1      44.125  48.837  69.033  1.00  0.00     0.091 C 
HETATM    3  C   UNL     1      42.823  48.260  68.474  1.00  0.00     0.055 C 
HETATM    4  C   UNL     1      42.454  48.870  67.171  1.00  0.00     0.119 C 
HETATM    5  C   UNL     1      42.109  50.344  67.483  1.00  0.00    -0.008 A 
HETATM    6  C   UNL     1      40.961  51.006  67.093  1.00  0.00     0.024 A 
HETATM    7  C   UNL     1      40.720  52.321  67.502  1.00  0.00    -0.025 A 
HETATM    8  C   UNL     1      41.618  52.957  68.351  1.00  0.00     0.014 A 
HETATM    9  C   UNL     1      42.763  52.319  68.762  1.00  0.00     0.031 A 
HETATM   10  C   UNL     1      43.027  51.021  68.287  1.00  0.00     0.046 A 
HETATM   11  N   UNL     1      44.234  50.256  68.674  1.00  0.00    -0.313 N 
HETATM   12  C   UNL     1      45.554  50.824  68.643  1.00  0.00     0.220 C 
HETATM   13  C   UNL     1      45.724  52.279  68.203  1.00  0.00     0.117 C 
HETATM   14  O   UNL     1      46.469  50.134  68.973  1.00  0.00    -0.273 OA
ENDROOT
BRANCH   4  15
HETATM   15  N   UNL     1      41.285  48.182  66.570  1.00  0.00    -0.381 N 
ATOM     16  HN  UNL     1      40.375  48.641  66.568  1.00  0.00     0.160 HD
BRANCH  15  17
HETATM   17  C   UNL     1      41.422  46.892  65.998  1.00  0.00     0.028 A 
HETATM   18  C   UNL     1      42.662  46.421  65.636  1.00  0.00     0.031 A 
HETATM   19  C   UNL     1      42.790  45.171  65.048  1.00  0.00     0.026 A 
HETATM   20  C   UNL     1      41.675  44.442  64.811  1.00  0.00     0.034 A 
HETATM   21  C   UNL     1      40.462  44.892  65.167  1.00  0.00     0.026 A 
HETATM   22 CL   UNL     1      41.812  42.849  64.074  1.00  0.00    -0.084 Cl
HETATM   23  C   UNL     1      40.292  46.130  65.743  1.00  0.00     0.031 A 
ENDBRANCH  15  17
ENDBRANCH   4  15
BRANCH   7  24
HETATM   24  C   UNL     1      39.482  53.069  66.992  1.00  0.00    -0.026 A 
HETATM   25  C   UNL     1      38.700  53.815  67.912  1.00  0.00     0.013 A 
HETATM   26  C   UNL     1      37.611  54.533  67.494  1.00  0.00     0.019 A 
HETATM   27  C   UNL     1      37.289  54.502  66.137  1.00  0.00     0.040 A 
HETATM   28  C   UNL     1      38.051  53.822  65.231  1.00  0.00     0.019 A 
HETATM   29  C   UNL     1      39.151  53.120  65.656  1.00  0.00     0.013 A 
BRANCH  27  30
HETATM   30  C   UNL     1      36.086  55.255  65.608  1.00  0.00     0.209 C 
HETATM   31  O   UNL     1      35.370  54.708  64.750  1.00  0.00    -0.644 OA
HETATM   32  O   UNL     1      35.849  56.404  66.039  1.00  0.00    -0.644 OA
ENDBRANCH  27  30
ENDBRANCH   7  24
TORSDOF 4
ENDMDL
MODEL 9
REMARK VINA RESULT:    -8.797      4.683      6.678
REMARK INTER + INTRA:         -11.664
REMARK INTER:                 -10.581
REMARK INTRA:                  -1.083
REMARK UNBOUND:                -0.809
REMARK  4 active torsions:
REMARK  status: ('A' for Active; 'I' for Inactive)
REMARK    1  A    between atoms: C_4  and  N_5 
REMARK    2  A    between atoms: N_5  and  C_7 
REMARK    3  A    between atoms: C_16  and  C_24 
REMARK       I    between atoms: N_20  and  C_21 
REMARK    4  A    between atoms: C_27  and  C_30 
ROOT
HETATM    1  C   UNL     1      44.777  52.605  67.881  1.00  0.00     0.033 C 
HETATM    2  C   UNL     1      43.706  53.616  67.490  1.00  0.00     0.091 C 
HETATM    3  C   UNL     1      42.319  53.287  68.047  1.00  0.00     0.055 C 
HETATM    4  C   UNL     1      41.438  54.482  68.096  1.00  0.00     0.119 C 
HETATM    5  C   UNL     1      42.059  55.414  69.161  1.00  0.00    -0.008 A 
HETATM    6  C   UNL     1      41.387  55.993  70.220  1.00  0.00     0.024 A 
HETATM    7  C   UNL     1      42.072  56.759  71.169  1.00  0.00    -0.025 A 
HETATM    8  C   UNL     1      43.451  56.902  71.076  1.00  0.00     0.014 A 
HETATM    9  C   UNL     1      44.146  56.329  70.039  1.00  0.00     0.031 A 
HETATM   10  C   UNL     1      43.435  55.620  69.053  1.00  0.00     0.046 A 
HETATM   11  N   UNL     1      44.097  54.971  67.899  1.00  0.00    -0.313 N 
HETATM   12  C   UNL     1      45.075  55.643  67.089  1.00  0.00     0.220 C 
HETATM   13  C   UNL     1      45.459  57.082  67.433  1.00  0.00     0.117 C 
HETATM   14  O   UNL     1      45.558  55.041  66.178  1.00  0.00    -0.273 OA
ENDROOT
BRANCH   4  15
HETATM   15  N   UNL     1      40.054  54.109  68.479  1.00  0.00    -0.381 N 
ATOM     16  HN  UNL     1      39.883  53.655  69.376  1.00  0.00     0.160 HD
BRANCH  15  17
HETATM   17  C   UNL     1      38.966  54.379  67.611  1.00  0.00     0.028 A 
HETATM   18  C   UNL     1      37.755  54.786  68.120  1.00  0.00     0.031 A 
HETATM   19  C   UNL     1      36.684  55.019  67.270  1.00  0.00     0.026 A 
HETATM   20  C   UNL     1      36.844  54.810  65.942  1.00  0.00     0.034 A 
HETATM   21  C   UNL     1      38.024  54.418  65.438  1.00  0.00     0.026 A 
HETATM   22 CL   UNL     1      35.500  55.107  64.843  1.00  0.00    -0.084 Cl
HETATM   23  C   UNL     1      39.107  54.167  66.247  1.00  0.00     0.031 A 
ENDBRANCH  15  17
ENDBRANCH   4  15
BRANCH   7  24
HETATM   24  C   UNL     1      41.298  57.462  72.290  1.00  0.00    -0.026 A 
HETATM   25  C   UNL     1      40.580  58.649  71.992  1.00  0.00     0.013 A 
HETATM   26  C   UNL     1      39.840  59.287  72.953  1.00  0.00     0.019 A 
HETATM   27  C   UNL     1      39.821  58.738  74.235  1.00  0.00     0.040 A 
HETATM   28  C   UNL     1      40.475  57.577  74.532  1.00  0.00     0.019 A 
HETATM   29  C   UNL     1      41.199  56.935  73.559  1.00  0.00     0.013 A 
BRANCH  27  30
HETATM   30  C   UNL     1      39.042  59.402  75.352  1.00  0.00     0.209 C 
HETATM   31  O   UNL     1      37.942  59.919  75.085  1.00  0.00    -0.644 OA
HETATM   32  O   UNL     1      39.525  59.420  76.504  1.00  0.00    -0.644 OA
ENDBRANCH  27  30
ENDBRANCH   7  24
TORSDOF 4
ENDMDL
MODEL 10
REMARK VINA RESULT:    -8.797      4.455      7.663
REMARK INTER + INTRA:         -11.663
REMARK INTER:                 -10.864
REMARK INTRA:                  -0.800
REMARK UNBOUND:                -0.809
REMARK  4 active torsions:
REMARK  status: ('A' for Active; 'I' for Inactive)
REMARK    1  A    between atoms: C_4  and  N_5 
REMARK    2  A    between atoms: N_5  and  C_7 
REMARK    3  A    between atoms: C_16  and  C_24 
REMARK       I    between atoms: N_20  and  C_21 
REMARK    4  A    between atoms: C_27  and  C_30 
ROOT
HETATM    1  C   UNL     1      44.924  48.535  66.729  1.00  0.00     0.033 C 
HETATM    2  C   UNL     1      44.215  49.212  67.896  1.00  0.00     0.091 C 
HETATM    3  C   UNL     1      44.352  50.736  67.895  1.00  0.00     0.055 C 
HETATM    4  C   UNL     1      43.285  51.394  68.693  1.00  0.00     0.119 C 
HETATM    5  C   UNL     1      41.969  51.134  67.926  1.00  0.00    -0.008 A 
HETATM    6  C   UNL     1      41.038  52.090  67.568  1.00  0.00     0.024 A 
HETATM    7  C   UNL     1      39.919  51.748  66.804  1.00  0.00    -0.025 A 
HETATM    8  C   UNL     1      39.762  50.442  66.355  1.00  0.00     0.014 A 
HETATM    9  C   UNL     1      40.676  49.473  66.687  1.00  0.00     0.031 A 
HETATM   10  C   UNL     1      41.761  49.817  67.516  1.00  0.00     0.046 A 
HETATM   11  N   UNL     1      42.795  48.840  67.927  1.00  0.00    -0.313 N 
HETATM   12  C   UNL     1      42.470  47.539  68.442  1.00  0.00     0.220 C 
HETATM   13  C   UNL     1      41.000  47.136  68.562  1.00  0.00     0.117 C 
HETATM   14  O   UNL     1      43.369  46.816  68.748  1.00  0.00    -0.273 OA
ENDROOT
BRANCH   4  15
HETATM   15  N   UNL     1      43.532  52.852  68.816  1.00  0.00    -0.381 N 
ATOM     16  HN  UNL     1      42.844  53.443  69.282  1.00  0.00     0.160 HD
BRANCH  15  17
HETATM   17  C   UNL     1      44.716  53.431  68.293  1.00  0.00     0.028 A 
HETATM   18  C   UNL     1      44.705  54.041  67.061  1.00  0.00     0.031 A 
HETATM   19  C   UNL     1      45.871  54.579  66.538  1.00  0.00     0.026 A 
HETATM   20  C   UNL     1      47.019  54.465  67.245  1.00  0.00     0.034 A 
HETATM   21  C   UNL     1      47.037  53.876  68.450  1.00  0.00     0.026 A 
HETATM   22 CL   UNL     1      48.511  55.147  66.605  1.00  0.00    -0.084 Cl
HETATM   23  C   UNL     1      45.905  53.321  68.999  1.00  0.00     0.031 A 
ENDBRANCH  15  17
ENDBRANCH   4  15
BRANCH   7  24
HETATM   24  C   UNL     1      38.854  52.805  66.486  1.00  0.00    -0.026 A 
HETATM   25  C   UNL     1      38.393  52.938  65.151  1.00  0.00     0.013 A 
HETATM   26  C   UNL     1      37.413  53.839  64.829  1.00  0.00     0.019 A 
HETATM   27  C   UNL     1      36.887  54.627  65.852  1.00  0.00     0.040 A 
HETATM   28  C   UNL     1      37.290  54.486  67.149  1.00  0.00     0.019 A 
HETATM   29  C   UNL     1      38.260  53.569  67.466  1.00  0.00     0.013 A 
BRANCH  27  30
HETATM   30  C   UNL     1      35.815  55.658  65.565  1.00  0.00     0.209 C 
HETATM   31  O   UNL     1      34.947  55.395  64.714  1.00  0.00    -0.644 OA
HETATM   32  O   UNL     1      35.835  56.745  66.182  1.00  0.00    -0.644 OA
ENDBRANCH  27  30
ENDBRANCH   7  24
TORSDOF 4
ENDMDL
MODEL 11
REMARK VINA RESULT:    -8.750      4.068      8.210
REMARK INTER + INTRA:         -11.606
REMARK INTER:                 -10.571
REMARK INTRA:                  -1.035
REMARK UNBOUND:                -0.809
REMARK  4 active torsions:
REMARK  status: ('A' for Active; 'I' for Inactive)
REMARK    1  A    between atoms: C_4  and  N_5 
REMARK    2  A    between atoms: N_5  and  C_7 
REMARK    3  A    between atoms: C_16  and  C_24 
REMARK       I    between atoms: N_20  and  C_21 
REMARK    4  A    between atoms: C_27  and  C_30 
ROOT
HETATM    1  C   UNL     1      43.829  52.322  71.008  1.00  0.00     0.033 C 
HETATM    2  C   UNL     1      43.876  52.057  69.508  1.00  0.00     0.091 C 
HETATM    3  C   UNL     1      42.894  50.978  69.044  1.00  0.00     0.055 C 
HETATM    4  C   UNL     1      42.590  51.085  67.594  1.00  0.00     0.119 C 
HETATM    5  C   UNL     1      41.803  52.406  67.429  1.00  0.00    -0.008 A 
HETATM    6  C   UNL     1      40.597  52.552  66.772  1.00  0.00     0.024 A 
HETATM    7  C   UNL     1      39.937  53.785  66.754  1.00  0.00    -0.025 A 
HETATM    8  C   UNL     1      40.473  54.865  67.445  1.00  0.00     0.014 A 
HETATM    9  C   UNL     1      41.666  54.746  68.114  1.00  0.00     0.031 A 
HETATM   10  C   UNL     1      42.354  53.518  68.066  1.00  0.00     0.046 A 
HETATM   11  N   UNL     1      43.645  53.296  68.755  1.00  0.00    -0.313 N 
HETATM   12  C   UNL     1      44.743  54.219  68.660  1.00  0.00     0.220 C 
HETATM   13  C   UNL     1      44.572  55.489  67.824  1.00  0.00     0.117 C 
HETATM   14  O   UNL     1      45.746  53.959  69.250  1.00  0.00    -0.273 OA
ENDROOT
BRANCH   4  15
HETATM   15  N   UNL     1      41.772  49.936  67.134  1.00  0.00    -0.381 N 
ATOM     16  HN  UNL     1      40.858  50.102  66.715  1.00  0.00     0.160 HD
BRANCH  15  17
HETATM   17  C   UNL     1      42.250  48.608  67.272  1.00  0.00     0.028 A 
HETATM   18  C   UNL     1      43.435  48.232  66.685  1.00  0.00     0.031 A 
HETATM   19  C   UNL     1      43.885  46.925  66.796  1.00  0.00     0.026 A 
HETATM   20  C   UNL     1      43.124  46.025  67.461  1.00  0.00     0.034 A 
HETATM   21  C   UNL     1      41.970  46.385  68.041  1.00  0.00     0.026 A 
HETATM   22 CL   UNL     1      43.679  44.361  67.621  1.00  0.00    -0.084 Cl
HETATM   23  C   UNL     1      41.484  47.669  67.946  1.00  0.00     0.031 A 
ENDBRANCH  15  17
ENDBRANCH   4  15
BRANCH   7  24
HETATM   24  C   UNL     1      38.642  53.950  65.951  1.00  0.00    -0.026 A 
HETATM   25  C   UNL     1      38.463  53.188  64.767  1.00  0.00     0.013 A 
HETATM   26  C   UNL     1      37.304  53.272  64.041  1.00  0.00     0.019 A 
HETATM   27  C   UNL     1      36.308  54.135  64.497  1.00  0.00     0.040 A 
HETATM   28  C   UNL     1      36.446  54.847  65.654  1.00  0.00     0.019 A 
HETATM   29  C   UNL     1      37.603  54.743  66.384  1.00  0.00     0.013 A 
BRANCH  27  30
HETATM   30  C   UNL     1      35.010  54.293  63.734  1.00  0.00     0.209 C 
HETATM   31  O   UNL     1      34.224  55.196  64.074  1.00  0.00    -0.644 OA
HETATM   32  O   UNL     1      34.758  53.513  62.791  1.00  0.00    -0.644 OA
ENDBRANCH  27  30
ENDBRANCH   7  24
TORSDOF 4
ENDMDL
MODEL 12
REMARK VINA RESULT:    -8.749      5.365      8.850
REMARK INTER + INTRA:         -11.604
REMARK INTER:                 -10.557
REMARK INTRA:                  -1.046
REMARK UNBOUND:                -0.809
REMARK  4 active torsions:
REMARK  status: ('A' for Active; 'I' for Inactive)
REMARK    1  A    between atoms: C_4  and  N_5 
REMARK    2  A    between atoms: N_5  and  C_7 
REMARK    3  A    between atoms: C_16  and  C_24 
REMARK       I    between atoms: N_20  and  C_21 
REMARK    4  A    between atoms: C_27  and  C_30 
ROOT
HETATM    1  C   UNL     1      45.166  56.126  70.466  1.00  0.00     0.033 C 
HETATM    2  C   UNL     1      43.812  55.747  71.053  1.00  0.00     0.091 C 
HETATM    3  C   UNL     1      42.733  56.812  70.845  1.00  0.00     0.055 C 
HETATM    4  C   UNL     1      41.363  56.249  70.952  1.00  0.00     0.119 C 
HETATM    5  C   UNL     1      41.202  55.308  69.736  1.00  0.00    -0.008 A 
HETATM    6  C   UNL     1      40.152  55.319  68.838  1.00  0.00     0.024 A 
HETATM    7  C   UNL     1      40.152  54.470  67.728  1.00  0.00    -0.025 A 
HETATM    8  C   UNL     1      41.241  53.639  67.493  1.00  0.00     0.014 A 
HETATM    9  C   UNL     1      42.303  53.614  68.364  1.00  0.00     0.031 A 
HETATM   10  C   UNL     1      42.257  54.423  69.515  1.00  0.00     0.046 A 
HETATM   11  N   UNL     1      43.353  54.462  70.510  1.00  0.00    -0.313 N 
HETATM   12  C   UNL     1      43.956  53.272  71.046  1.00  0.00     0.220 C 
HETATM   13  C   UNL     1      43.457  51.909  70.564  1.00  0.00     0.117 C 
HETATM   14  O   UNL     1      44.834  53.399  71.843  1.00  0.00    -0.273 OA
ENDROOT
BRANCH   4  15
HETATM   15  N   UNL     1      40.339  57.322  70.914  1.00  0.00    -0.381 N 
ATOM     16  HN  UNL     1      39.755  57.434  70.086  1.00  0.00     0.160 HD
BRANCH  15  17
HETATM   17  C   UNL     1      40.166  58.195  72.019  1.00  0.00     0.028 A 
HETATM   18  C   UNL     1      40.047  57.688  73.292  1.00  0.00     0.031 A 
HETATM   19  C   UNL     1      39.846  58.541  74.366  1.00  0.00     0.026 A 
HETATM   20  C   UNL     1      39.739  59.871  74.136  1.00  0.00     0.034 A 
HETATM   21  C   UNL     1      39.858  60.372  72.897  1.00  0.00     0.026 A 
HETATM   22 CL   UNL     1      39.491  60.974  75.486  1.00  0.00    -0.084 Cl
HETATM   23  C   UNL     1      40.048  59.560  71.804  1.00  0.00     0.031 A 
ENDBRANCH  15  17
ENDBRANCH   4  15
BRANCH   7  24
HETATM   24  C   UNL     1      38.942  54.437  66.787  1.00  0.00    -0.026 A 
HETATM   25  C   UNL     1      37.695  54.934  67.250  1.00  0.00     0.013 A 
HETATM   26  C   UNL     1      36.598  54.963  66.431  1.00  0.00     0.019 A 
HETATM   27  C   UNL     1      36.741  54.482  65.129  1.00  0.00     0.040 A 
HETATM   28  C   UNL     1      37.940  54.036  64.654  1.00  0.00     0.019 A 
HETATM   29  C   UNL     1      39.039  54.026  65.476  1.00  0.00     0.013 A 
BRANCH  27  30
HETATM   30  C   UNL     1      35.565  54.465  64.175  1.00  0.00     0.209 C 
HETATM   31  O   UNL     1      35.610  53.712  63.186  1.00  0.00    -0.644 OA
HETATM   32  O   UNL     1      34.586  55.209  64.401  1.00  0.00    -0.644 OA
ENDBRANCH  27  30
ENDBRANCH   7  24
TORSDOF 4
ENDMDL
MODEL 13
REMARK VINA RESULT:    -8.703      4.202      7.308
REMARK INTER + INTRA:         -11.547
REMARK INTER:                 -10.910
REMARK INTRA:                  -0.638
REMARK UNBOUND:                -0.809
REMARK  4 active torsions:
REMARK  status: ('A' for Active; 'I' for Inactive)
REMARK    1  A    between atoms: C_4  and  N_5 
REMARK    2  A    between atoms: N_5  and  C_7 
REMARK    3  A    between atoms: C_16  and  C_24 
REMARK       I    between atoms: N_20  and  C_21 
REMARK    4  A    between atoms: C_27  and  C_30 
ROOT
HETATM    1  C   UNL     1      44.656  49.208  70.513  1.00  0.00     0.033 C 
HETATM    2  C   UNL     1      44.396  49.273  69.013  1.00  0.00     0.091 C 
HETATM    3  C   UNL     1      43.069  48.637  68.592  1.00  0.00     0.055 C 
HETATM    4  C   UNL     1      42.603  49.137  67.273  1.00  0.00     0.119 C 
HETATM    5  C   UNL     1      42.253  50.627  67.491  1.00  0.00    -0.008 A 
HETATM    6  C   UNL     1      41.070  51.242  67.130  1.00  0.00     0.024 A 
HETATM    7  C   UNL     1      40.835  52.583  67.449  1.00  0.00    -0.025 A 
HETATM    8  C   UNL     1      41.777  53.295  68.181  1.00  0.00     0.014 A 
HETATM    9  C   UNL     1      42.958  52.706  68.562  1.00  0.00     0.031 A 
HETATM   10  C   UNL     1      43.212  51.377  68.173  1.00  0.00     0.046 A 
HETATM   11  N   UNL     1      44.456  50.661  68.536  1.00  0.00    -0.313 N 
HETATM   12  C   UNL     1      45.760  51.239  68.368  1.00  0.00     0.220 C 
HETATM   13  C   UNL     1      45.875  52.657  67.804  1.00  0.00     0.117 C 
HETATM   14  O   UNL     1      46.708  50.589  68.688  1.00  0.00    -0.273 OA
ENDROOT
BRANCH   4  15
HETATM   15  N   UNL     1      41.408  48.389  66.810  1.00  0.00    -0.381 N 
ATOM     16  HN  UNL     1      41.083  48.500  65.850  1.00  0.00     0.160 HD
BRANCH  15  17
HETATM   17  C   UNL     1      40.713  47.521  67.690  1.00  0.00     0.028 A 
HETATM   18  C   UNL     1      39.467  47.861  68.161  1.00  0.00     0.031 A 
HETATM   19  C   UNL     1      38.803  47.025  69.046  1.00  0.00     0.026 A 
HETATM   20  C   UNL     1      39.415  45.890  69.460  1.00  0.00     0.034 A 
HETATM   21  C   UNL     1      40.629  45.550  69.000  1.00  0.00     0.026 A 
HETATM   22 CL   UNL     1      38.588  44.809  70.577  1.00  0.00    -0.084 Cl
HETATM   23  C   UNL     1      41.324  46.355  68.130  1.00  0.00     0.031 A 
ENDBRANCH  15  17
ENDBRANCH   4  15
BRANCH   7  24
HETATM   24  C   UNL     1      39.552  53.272  66.968  1.00  0.00    -0.026 A 
HETATM   25  C   UNL     1      38.681  53.853  67.926  1.00  0.00     0.013 A 
HETATM   26  C   UNL     1      37.547  54.516  67.539  1.00  0.00     0.019 A 
HETATM   27  C   UNL     1      37.269  54.596  66.175  1.00  0.00     0.040 A 
HETATM   28  C   UNL     1      38.115  54.078  65.236  1.00  0.00     0.019 A 
HETATM   29  C   UNL     1      39.258  53.431  65.632  1.00  0.00     0.013 A 
BRANCH  27  30
HETATM   30  C   UNL     1      36.022  55.296  65.677  1.00  0.00     0.209 C 
HETATM   31  O   UNL     1      35.306  54.715  64.841  1.00  0.00    -0.644 OA
HETATM   32  O   UNL     1      35.750  56.437  66.109  1.00  0.00    -0.644 OA
ENDBRANCH  27  30
ENDBRANCH   7  24
TORSDOF 4
ENDMDL
MODEL 14
REMARK VINA RESULT:    -8.627      2.652      7.711
REMARK INTER + INTRA:         -11.453
REMARK INTER:                 -10.431
REMARK INTRA:                  -1.023
REMARK UNBOUND:                -0.809
REMARK  4 active torsions:
REMARK  status: ('A' for Active; 'I' for Inactive)
REMARK    1  A    between atoms: C_4  and  N_5 
REMARK    2  A    between atoms: N_5  and  C_7 
REMARK    3  A    between atoms: C_16  and  C_24 
REMARK       I    between atoms: N_20  and  C_21 
REMARK    4  A    between atoms: C_27  and  C_30 
ROOT
HETATM    1  C   UNL     1      43.905  54.393  67.385  1.00  0.00     0.033 C 
HETATM    2  C   UNL     1      42.707  53.675  67.996  1.00  0.00     0.091 C 
HETATM    3  C   UNL     1      41.604  53.353  66.985  1.00  0.00     0.055 C 
HETATM    4  C   UNL     1      40.721  52.254  67.452  1.00  0.00     0.119 C 
HETATM    5  C   UNL     1      41.603  50.985  67.463  1.00  0.00    -0.008 A 
HETATM    6  C   UNL     1      41.287  49.775  66.876  1.00  0.00     0.024 A 
HETATM    7  C   UNL     1      42.200  48.716  66.882  1.00  0.00    -0.025 A 
HETATM    8  C   UNL     1      43.461  48.895  67.440  1.00  0.00     0.014 A 
HETATM    9  C   UNL     1      43.806  50.091  68.021  1.00  0.00     0.031 A 
HETATM   10  C   UNL     1      42.852  51.124  68.070  1.00  0.00     0.046 A 
HETATM   11  N   UNL     1      43.132  52.445  68.677  1.00  0.00    -0.313 N 
HETATM   12  C   UNL     1      43.746  52.590  69.968  1.00  0.00     0.220 C 
HETATM   13  C   UNL     1      44.138  51.333  70.747  1.00  0.00     0.117 C 
HETATM   14  O   UNL     1      43.935  53.694  70.378  1.00  0.00    -0.273 OA
ENDROOT
BRANCH   4  15
HETATM   15  N   UNL     1      39.565  52.073  66.539  1.00  0.00    -0.381 N 
ATOM     16  HN  UNL     1      39.474  51.209  66.006  1.00  0.00     0.160 HD
BRANCH  15  17
HETATM   17  C   UNL     1      38.587  53.089  66.402  1.00  0.00     0.028 A 
HETATM   18  C   UNL     1      38.197  53.514  65.153  1.00  0.00     0.031 A 
HETATM   19  C   UNL     1      37.263  54.530  65.021  1.00  0.00     0.026 A 
HETATM   20  C   UNL     1      36.768  55.114  66.138  1.00  0.00     0.034 A 
HETATM   21  C   UNL     1      37.140  54.702  67.359  1.00  0.00     0.026 A 
HETATM   22 CL   UNL     1      35.575  56.401  65.996  1.00  0.00    -0.084 Cl
HETATM   23  C   UNL     1      38.071  53.704  67.533  1.00  0.00     0.031 A 
ENDBRANCH  15  17
ENDBRANCH   4  15
BRANCH   7  24
HETATM   24  C   UNL     1      41.802  47.355  66.301  1.00  0.00    -0.026 A 
HETATM   25  C   UNL     1      40.427  47.071  66.093  1.00  0.00     0.013 A 
HETATM   26  C   UNL     1      40.027  45.884  65.536  1.00  0.00     0.019 A 
HETATM   27  C   UNL     1      41.013  44.961  65.187  1.00  0.00     0.040 A 
HETATM   28  C   UNL     1      42.341  45.232  65.343  1.00  0.00     0.019 A 
HETATM   29  C   UNL     1      42.734  46.430  65.885  1.00  0.00     0.013 A 
BRANCH  27  30
HETATM   30  C   UNL     1      40.642  43.621  64.586  1.00  0.00     0.209 C 
HETATM   31  O   UNL     1      41.218  42.601  65.004  1.00  0.00    -0.644 OA
HETATM   32  O   UNL     1      39.777  43.576  63.685  1.00  0.00    -0.644 OA
ENDBRANCH  27  30
ENDBRANCH   7  24
TORSDOF 4
ENDMDL
MODEL 15
REMARK VINA RESULT:    -8.557      3.741      5.953
REMARK INTER + INTRA:         -11.367
REMARK INTER:                 -10.143
REMARK INTRA:                  -1.224
REMARK UNBOUND:                -0.809
REMARK  4 active torsions:
REMARK  status: ('A' for Active; 'I' for Inactive)
REMARK    1  A    between atoms: C_4  and  N_5 
REMARK    2  A    between atoms: N_5  and  C_7 
REMARK    3  A    between atoms: C_16  and  C_24 
REMARK       I    between atoms: N_20  and  C_21 
REMARK    4  A    between atoms: C_27  and  C_30 
ROOT
HETATM    1  C   UNL     1      37.563  54.803  65.274  1.00  0.00     0.033 C 
HETATM    2  C   UNL     1      37.957  53.719  66.270  1.00  0.00     0.091 C 
HETATM    3  C   UNL     1      38.738  52.563  65.642  1.00  0.00     0.055 C 
HETATM    4  C   UNL     1      39.527  51.808  66.650  1.00  0.00     0.119 C 
HETATM    5  C   UNL     1      40.624  52.783  67.137  1.00  0.00    -0.008 A 
HETATM    6  C   UNL     1      41.977  52.511  67.200  1.00  0.00     0.024 A 
HETATM    7  C   UNL     1      42.887  53.500  67.585  1.00  0.00    -0.025 A 
HETATM    8  C   UNL     1      42.436  54.786  67.860  1.00  0.00     0.014 A 
HETATM    9  C   UNL     1      41.097  55.086  67.795  1.00  0.00     0.031 A 
HETATM   10  C   UNL     1      40.185  54.063  67.475  1.00  0.00     0.046 A 
HETATM   11  N   UNL     1      38.725  54.292  67.383  1.00  0.00    -0.313 N 
HETATM   12  C   UNL     1      37.987  54.999  68.393  1.00  0.00     0.220 C 
HETATM   13  C   UNL     1      38.735  55.549  69.608  1.00  0.00     0.117 C 
HETATM   14  O   UNL     1      36.812  55.137  68.236  1.00  0.00    -0.273 OA
ENDROOT
BRANCH   4  15
HETATM   15  N   UNL     1      40.140  50.598  66.050  1.00  0.00    -0.381 N 
ATOM     16  HN  UNL     1      40.540  50.646  65.113  1.00  0.00     0.160 HD
BRANCH  15  17
HETATM   17  C   UNL     1      40.176  49.375  66.767  1.00  0.00     0.028 A 
HETATM   18  C   UNL     1      39.006  48.743  67.119  1.00  0.00     0.031 A 
HETATM   19  C   UNL     1      39.043  47.563  67.847  1.00  0.00     0.026 A 
HETATM   20  C   UNL     1      40.243  47.066  68.230  1.00  0.00     0.034 A 
HETATM   21  C   UNL     1      41.388  47.675  67.885  1.00  0.00     0.026 A 
HETATM   22 CL   UNL     1      40.315  45.566  69.148  1.00  0.00    -0.084 Cl
HETATM   23  C   UNL     1      41.394  48.851  67.172  1.00  0.00     0.031 A 
ENDBRANCH  15  17
ENDBRANCH   4  15
BRANCH   7  24
HETATM   24  C   UNL     1      44.375  53.159  67.730  1.00  0.00    -0.026 A 
HETATM   25  C   UNL     1      44.743  51.902  68.275  1.00  0.00     0.013 A 
HETATM   26  C   UNL     1      46.060  51.537  68.384  1.00  0.00     0.019 A 
HETATM   27  C   UNL     1      47.027  52.443  67.949  1.00  0.00     0.040 A 
HETATM   28  C   UNL     1      46.691  53.641  67.386  1.00  0.00     0.019 A 
HETATM   29  C   UNL     1      45.370  53.990  67.265  1.00  0.00     0.013 A 
BRANCH  27  30
HETATM   30  C   UNL     1      48.501  52.115  68.058  1.00  0.00     0.209 C 
HETATM   31  O   UNL     1      48.839  51.080  68.661  1.00  0.00    -0.644 OA
HETATM   32  O   UNL     1      49.338  52.893  67.550  1.00  0.00    -0.644 OA
ENDBRANCH  27  30
ENDBRANCH   7  24
TORSDOF 4
ENDMDL
MODEL 16
REMARK VINA RESULT:    -8.526      4.380      8.099
REMARK INTER + INTRA:         -11.329
REMARK INTER:                 -10.161
REMARK INTRA:                  -1.168
REMARK UNBOUND:                -0.809
REMARK  4 active torsions:
REMARK  status: ('A' for Active; 'I' for Inactive)
REMARK    1  A    between atoms: C_4  and  N_5 
REMARK    2  A    between atoms: N_5  and  C_7 
REMARK    3  A    between atoms: C_16  and  C_24 
REMARK       I    between atoms: N_20  and  C_21 
REMARK    4  A    between atoms: C_27  and  C_30 
ROOT
HETATM    1  C   UNL     1      47.337  50.940  67.491  1.00  0.00     0.033 C 
HETATM    2  C   UNL     1      46.631  52.089  68.200  1.00  0.00     0.091 C 
HETATM    3  C   UNL     1      46.317  53.275  67.285  1.00  0.00     0.055 C 
HETATM    4  C   UNL     1      45.227  54.126  67.827  1.00  0.00     0.119 C 
HETATM    5  C   UNL     1      43.950  53.257  67.767  1.00  0.00    -0.008 A 
HETATM    6  C   UNL     1      42.742  53.632  67.212  1.00  0.00     0.024 A 
HETATM    7  C   UNL     1      41.675  52.730  67.146  1.00  0.00    -0.025 A 
HETATM    8  C   UNL     1      41.843  51.426  67.597  1.00  0.00     0.014 A 
HETATM    9  C   UNL     1      43.037  51.024  68.145  1.00  0.00     0.031 A 
HETATM   10  C   UNL     1      44.079  51.962  68.269  1.00  0.00     0.046 A 
HETATM   11  N   UNL     1      45.399  51.620  68.847  1.00  0.00    -0.313 N 
HETATM   12  C   UNL     1      45.541  50.901  70.083  1.00  0.00     0.220 C 
HETATM   13  C   UNL     1      44.282  50.457  70.830  1.00  0.00     0.117 C 
HETATM   14  O   UNL     1      46.644  50.669  70.473  1.00  0.00    -0.273 OA
ENDROOT
BRANCH   4  15
HETATM   15  N   UNL     1      45.054  55.355  67.013  1.00  0.00    -0.381 N 
ATOM     16  HN  UNL     1      44.958  55.280  66.000  1.00  0.00     0.160 HD
BRANCH  15  17
HETATM   17  C   UNL     1      45.022  56.631  67.629  1.00  0.00     0.028 A 
HETATM   18  C   UNL     1      46.191  57.256  67.993  1.00  0.00     0.031 A 
HETATM   19  C   UNL     1      46.155  58.491  68.624  1.00  0.00     0.026 A 
HETATM   20  C   UNL     1      44.954  59.050  68.901  1.00  0.00     0.034 A 
HETATM   21  C   UNL     1      43.809  58.448  68.545  1.00  0.00     0.026 A 
HETATM   22 CL   UNL     1      44.883  60.620  69.695  1.00  0.00    -0.084 Cl
HETATM   23  C   UNL     1      43.801  57.220  67.926  1.00  0.00     0.031 A 
ENDBRANCH  15  17
ENDBRANCH   4  15
BRANCH   7  24
HETATM   24  C   UNL     1      40.316  53.188  66.603  1.00  0.00    -0.026 A 
HETATM   25  C   UNL     1      39.710  54.347  67.152  1.00  0.00     0.013 A 
HETATM   26  C   UNL     1      38.517  54.817  66.669  1.00  0.00     0.019 A 
HETATM   27  C   UNL     1      37.913  54.116  65.625  1.00  0.00     0.040 A 
HETATM   28  C   UNL     1      38.499  53.021  65.058  1.00  0.00     0.019 A 
HETATM   29  C   UNL     1      39.703  52.568  65.537  1.00  0.00     0.013 A 
BRANCH  27  30
HETATM   30  C   UNL     1      36.583  54.566  65.056  1.00  0.00     0.209 C 
HETATM   31  O   UNL     1      36.253  54.167  63.925  1.00  0.00    -0.644 OA
HETATM   32  O   UNL     1      35.859  55.329  65.730  1.00  0.00    -0.644 OA
ENDBRANCH  27  30
ENDBRANCH   7  24
TORSDOF 4
ENDMDL
MODEL 17
REMARK VINA RESULT:    -8.037      4.873      7.917
REMARK INTER + INTRA:         -10.726
REMARK INTER:                 -10.031
REMARK INTRA:                  -0.695
REMARK UNBOUND:                -0.809
REMARK  4 active torsions:
REMARK  status: ('A' for Active; 'I' for Inactive)
REMARK    1  A    between atoms: C_4  and  N_5 
REMARK    2  A    between atoms: N_5  and  C_7 
REMARK    3  A    between atoms: C_16  and  C_24 
REMARK       I    between atoms: N_20  and  C_21 
REMARK    4  A    between atoms: C_27  and  C_30 
ROOT
HETATM    1  C   UNL     1      46.182  52.828  70.238  1.00  0.00     0.033 C 
HETATM    2  C   UNL     1      44.849  52.344  70.794  1.00  0.00     0.091 C 
HETATM    3  C   UNL     1      43.966  53.469  71.338  1.00  0.00     0.055 C 
HETATM    4  C   UNL     1      42.534  53.078  71.398  1.00  0.00     0.119 C 
HETATM    5  C   UNL     1      42.082  52.922  69.928  1.00  0.00    -0.008 A 
HETATM    6  C   UNL     1      40.966  53.505  69.359  1.00  0.00     0.024 A 
HETATM    7  C   UNL     1      40.698  53.356  67.995  1.00  0.00    -0.025 A 
HETATM    8  C   UNL     1      41.588  52.657  67.189  1.00  0.00     0.014 A 
HETATM    9  C   UNL     1      42.711  52.075  67.726  1.00  0.00     0.031 A 
HETATM   10  C   UNL     1      42.931  52.174  69.113  1.00  0.00     0.046 A 
HETATM   11  N   UNL     1      44.111  51.579  69.781  1.00  0.00    -0.313 N 
HETATM   12  C   UNL     1      44.538  50.229  69.540  1.00  0.00     0.220 C 
HETATM   13  C   UNL     1      43.754  49.370  68.546  1.00  0.00     0.117 C 
HETATM   14  O   UNL     1      45.501  49.833  70.122  1.00  0.00    -0.273 OA
ENDROOT
BRANCH   4  15
HETATM   15  N   UNL     1      41.725  54.117  72.081  1.00  0.00    -0.381 N 
ATOM     16  HN  UNL     1      40.921  53.842  72.644  1.00  0.00     0.160 HD
BRANCH  15  17
HETATM   17  C   UNL     1      42.058  55.490  71.957  1.00  0.00     0.028 A 
HETATM   18  C   UNL     1      42.918  56.079  72.855  1.00  0.00     0.031 A 
HETATM   19  C   UNL     1      43.218  57.429  72.750  1.00  0.00     0.026 A 
HETATM   20  C   UNL     1      42.629  58.157  71.773  1.00  0.00     0.034 A 
HETATM   21  C   UNL     1      41.793  57.588  70.891  1.00  0.00     0.026 A 
HETATM   22 CL   UNL     1      43.001  59.871  71.616  1.00  0.00    -0.084 Cl
HETATM   23  C   UNL     1      41.462  56.255  70.966  1.00  0.00     0.031 A 
ENDBRANCH  15  17
ENDBRANCH   4  15
BRANCH   7  24
HETATM   24  C   UNL     1      39.413  53.939  67.397  1.00  0.00    -0.026 A 
HETATM   25  C   UNL     1      39.282  54.015  65.986  1.00  0.00     0.013 A 
HETATM   26  C   UNL     1      38.134  54.489  65.407  1.00  0.00     0.019 A 
HETATM   27  C   UNL     1      37.101  54.902  66.248  1.00  0.00     0.040 A 
HETATM   28  C   UNL     1      37.192  54.800  67.606  1.00  0.00     0.019 A 
HETATM   29  C   UNL     1      38.339  54.308  68.177  1.00  0.00     0.013 A 
BRANCH  27  30
HETATM   30  C   UNL     1      35.812  55.456  65.677  1.00  0.00     0.209 C 
HETATM   31  O   UNL     1      35.176  54.765  64.860  1.00  0.00    -0.644 OA
HETATM   32  O   UNL     1      35.425  56.589  66.034  1.00  0.00    -0.644 OA
ENDBRANCH  27  30
ENDBRANCH   7  24
TORSDOF 4
ENDMDL
MODEL 18
REMARK VINA RESULT:    -7.853      4.332      9.047
REMARK INTER + INTRA:         -10.498
REMARK INTER:                  -9.470
REMARK INTRA:                  -1.028
REMARK UNBOUND:                -0.809
REMARK  4 active torsions:
REMARK  status: ('A' for Active; 'I' for Inactive)
REMARK    1  A    between atoms: C_4  and  N_5 
REMARK    2  A    between atoms: N_5  and  C_7 
REMARK    3  A    between atoms: C_16  and  C_24 
REMARK       I    between atoms: N_20  and  C_21 
REMARK    4  A    between atoms: C_27  and  C_30 
ROOT
HETATM    1  C   UNL     1      45.272  59.315  68.155  1.00  0.00     0.033 C 
HETATM    2  C   UNL     1      44.896  58.331  69.256  1.00  0.00     0.091 C 
HETATM    3  C   UNL     1      43.386  58.157  69.434  1.00  0.00     0.055 C 
HETATM    4  C   UNL     1      43.046  56.881  70.112  1.00  0.00     0.119 C 
HETATM    5  C   UNL     1      43.438  55.762  69.120  1.00  0.00    -0.008 A 
HETATM    6  C   UNL     1      42.629  54.718  68.717  1.00  0.00     0.024 A 
HETATM    7  C   UNL     1      43.066  53.806  67.751  1.00  0.00    -0.025 A 
HETATM    8  C   UNL     1      44.308  53.978  67.151  1.00  0.00     0.014 A 
HETATM    9  C   UNL     1      45.129  55.013  67.525  1.00  0.00     0.031 A 
HETATM   10  C   UNL     1      44.705  55.882  68.549  1.00  0.00     0.046 A 
HETATM   11  N   UNL     1      45.522  57.024  69.019  1.00  0.00    -0.313 N 
HETATM   12  C   UNL     1      46.917  56.899  69.338  1.00  0.00     0.220 C 
HETATM   13  C   UNL     1      47.594  55.536  69.177  1.00  0.00     0.117 C 
HETATM   14  O   UNL     1      47.497  57.873  69.710  1.00  0.00    -0.273 OA
ENDROOT
BRANCH   4  15
HETATM   15  N   UNL     1      41.596  56.810  70.423  1.00  0.00    -0.381 N 
ATOM     16  HN  UNL     1      40.936  56.541  69.694  1.00  0.00     0.160 HD
BRANCH  15  17
HETATM   17  C   UNL     1      41.121  57.115  71.723  1.00  0.00     0.028 A 
HETATM   18  C   UNL     1      40.211  58.130  71.910  1.00  0.00     0.031 A 
HETATM   19  C   UNL     1      39.771  58.446  73.187  1.00  0.00     0.026 A 
HETATM   20  C   UNL     1      40.274  57.763  74.241  1.00  0.00     0.034 A 
HETATM   21  C   UNL     1      41.158  56.768  74.066  1.00  0.00     0.026 A 
HETATM   22 CL   UNL     1      39.725  58.141  75.871  1.00  0.00    -0.084 Cl
HETATM   23  C   UNL     1      41.626  56.430  72.818  1.00  0.00     0.031 A 
ENDBRANCH  15  17
ENDBRANCH   4  15
BRANCH   7  24
HETATM   24  C   UNL     1      42.189  52.606  67.376  1.00  0.00    -0.026 A 
HETATM   25  C   UNL     1      42.579  51.309  67.801  1.00  0.00     0.013 A 
HETATM   26  C   UNL     1      41.804  50.213  67.526  1.00  0.00     0.019 A 
HETATM   27  C   UNL     1      40.624  50.410  66.809  1.00  0.00     0.040 A 
HETATM   28  C   UNL     1      40.213  51.654  66.425  1.00  0.00     0.019 A 
HETATM   29  C   UNL     1      40.987  52.748  66.720  1.00  0.00     0.013 A 
BRANCH  27  30
HETATM   30  C   UNL     1      39.730  49.241  66.451  1.00  0.00     0.209 C 
HETATM   31  O   UNL     1      38.508  49.336  66.669  1.00  0.00    -0.644 OA
HETATM   32  O   UNL     1      40.240  48.213  65.956  1.00  0.00    -0.644 OA
ENDBRANCH  27  30
ENDBRANCH   7  24
TORSDOF 4
ENDMDL
MODEL 19
REMARK VINA RESULT:    -7.824      4.495      9.812
REMARK INTER + INTRA:         -10.463
REMARK INTER:                  -9.444
REMARK INTRA:                  -1.019
REMARK UNBOUND:                -0.809
REMARK  4 active torsions:
REMARK  status: ('A' for Active; 'I' for Inactive)
REMARK    1  A    between atoms: C_4  and  N_5 
REMARK    2  A    between atoms: N_5  and  C_7 
REMARK    3  A    between atoms: C_16  and  C_24 
REMARK       I    between atoms: N_20  and  C_21 
REMARK    4  A    between atoms: C_27  and  C_30 
ROOT
HETATM    1  C   UNL     1      46.777  57.401  70.181  1.00  0.00     0.033 C 
HETATM    2  C   UNL     1      46.415  57.201  68.714  1.00  0.00     0.091 C 
HETATM    3  C   UNL     1      46.928  55.883  68.130  1.00  0.00     0.055 C 
HETATM    4  C   UNL     1      46.171  55.475  66.919  1.00  0.00     0.119 C 
HETATM    5  C   UNL     1      44.745  55.139  67.411  1.00  0.00    -0.008 A 
HETATM    6  C   UNL     1      44.046  53.979  67.135  1.00  0.00     0.024 A 
HETATM    7  C   UNL     1      42.789  53.750  67.702  1.00  0.00    -0.025 A 
HETATM    8  C   UNL     1      42.253  54.673  68.592  1.00  0.00     0.014 A 
HETATM    9  C   UNL     1      42.930  55.830  68.893  1.00  0.00     0.031 A 
HETATM   10  C   UNL     1      44.163  56.080  68.261  1.00  0.00     0.046 A 
HETATM   11  N   UNL     1      44.962  57.299  68.520  1.00  0.00    -0.313 N 
HETATM   12  C   UNL     1      44.390  58.617  68.516  1.00  0.00     0.220 C 
HETATM   13  C   UNL     1      42.893  58.773  68.245  1.00  0.00     0.117 C 
HETATM   14  O   UNL     1      45.110  59.542  68.736  1.00  0.00    -0.273 OA
ENDROOT
BRANCH   4  15
HETATM   15  N   UNL     1      46.789  54.289  66.276  1.00  0.00    -0.381 N 
ATOM     16  HN  UNL     1      46.541  53.354  66.598  1.00  0.00     0.160 HD
BRANCH  15  17
HETATM   17  C   UNL     1      47.721  54.444  65.219  1.00  0.00     0.028 A 
HETATM   18  C   UNL     1      49.069  54.321  65.459  1.00  0.00     0.031 A 
HETATM   19  C   UNL     1      49.981  54.504  64.430  1.00  0.00     0.026 A 
HETATM   20  C   UNL     1      49.522  54.835  63.200  1.00  0.00     0.034 A 
HETATM   21  C   UNL     1      48.208  54.952  62.957  1.00  0.00     0.026 A 
HETATM   22 CL   UNL     1      50.660  55.064  61.875  1.00  0.00    -0.084 Cl
HETATM   23  C   UNL     1      47.273  54.788  63.952  1.00  0.00     0.031 A 
ENDBRANCH  15  17
ENDBRANCH   4  15
BRANCH   7  24
HETATM   24  C   UNL     1      41.992  52.497  67.320  1.00  0.00    -0.026 A 
HETATM   25  C   UNL     1      42.470  51.225  67.729  1.00  0.00     0.013 A 
HETATM   26  C   UNL     1      41.768  50.083  67.447  1.00  0.00     0.019 A 
HETATM   27  C   UNL     1      40.573  50.207  66.738  1.00  0.00     0.040 A 
HETATM   28  C   UNL     1      40.078  51.425  66.370  1.00  0.00     0.019 A 
HETATM   29  C   UNL     1      40.778  52.566  66.672  1.00  0.00     0.013 A 
BRANCH  27  30
HETATM   30  C   UNL     1      39.757  48.985  66.374  1.00  0.00     0.209 C 
HETATM   31  O   UNL     1      40.334  48.019  65.842  1.00  0.00    -0.644 OA
HETATM   32  O   UNL     1      38.529  48.981  66.608  1.00  0.00    -0.644 OA
ENDBRANCH  27  30
ENDBRANCH   7  24
TORSDOF 4
ENDMDL
