MODEL 1
REMARK VINA RESULT:    -6.861      0.000      0.000
REMARK INTER + INTRA:          -8.801
REMARK INTER:                  -8.466
REMARK INTRA:                  -0.336
REMARK UNBOUND:                -0.336
REMARK  4 active torsions:
REMARK  status: ('A' for Active; 'I' for Inactive)
REMARK    1  A    between atoms: C_1  and  C_7 
REMARK    2  A    between atoms: C_7  and  P_11 
REMARK    3  A    between atoms: C_9  and  O_12 
REMARK    4  A    between atoms: P_11  and  O_12 
ROOT
HETATM    1  C   UNL     1      17.673 -31.225  -0.846  1.00  0.00    -0.046 A 
HETATM    2  C   UNL     1      17.802 -32.379  -0.087  1.00  0.00     0.008 A 
HETATM    3  C   UNL     1      18.938 -32.602   0.670  1.00  0.00     0.007 A 
HETATM    4  C   UNL     1      20.011 -31.726   0.650  1.00  0.00    -0.062 A 
HETATM    5  C   UNL     1      19.887 -30.581  -0.113  1.00  0.00     0.007 A 
HETATM    6  C   UNL     1      18.748 -30.343  -0.866  1.00  0.00     0.008 A 
HETATM    7  C   UNL     1      21.251 -31.988   1.484  1.00  0.00     0.048 C 
ENDROOT
BRANCH   1   8
HETATM    8  C   UNL     1      16.428 -30.946  -1.661  1.00  0.00     0.173 C 
BRANCH   8   9
HETATM    9  P   UNL     1      16.408 -31.861  -3.192  1.00  0.00     0.253 P 
HETATM   10  O   UNL     1      15.482 -31.350  -4.229  1.00  0.00    -0.646 OA
HETATM   11  O   UNL     1      17.896 -31.901  -3.686  1.00  0.00    -0.646 OA
BRANCH   9  12
HETATM   12  O   UNL     1      15.745 -33.198  -2.710  1.00  0.00    -0.312 OA
BRANCH  12  13
HETATM   13  C   UNL     1      16.178 -34.513  -2.903  1.00  0.00     0.174 C 
HETATM   14  C   UNL     1      15.911 -35.135  -1.591  1.00  0.00     0.034 C 
ENDBRANCH  12  13
ENDBRANCH   9  12
ENDBRANCH   8   9
ENDBRANCH   1   8
TORSDOF 4
ENDMDL
MODEL 2
REMARK VINA RESULT:    -6.831      0.059      1.269
REMARK INTER + INTRA:          -8.764
REMARK INTER:                  -8.423
REMARK INTRA:                  -0.341
REMARK UNBOUND:                -0.336
REMARK  4 active torsions:
REMARK  status: ('A' for Active; 'I' for Inactive)
REMARK    1  A    between atoms: C_1  and  C_7 
REMARK    2  A    between atoms: C_7  and  P_11 
REMARK    3  A    between atoms: C_9  and  O_12 
REMARK    4  A    between atoms: P_11  and  O_12 
ROOT
HETATM    1  C   UNL     1      17.689 -31.224  -0.853  1.00  0.00    -0.046 A 
HETATM    2  C   UNL     1      18.742 -30.321  -0.853  1.00  0.00     0.008 A 
HETATM    3  C   UNL     1      19.894 -30.582  -0.134  1.00  0.00     0.007 A 
HETATM    4  C   UNL     1      20.019 -31.711   0.660  1.00  0.00    -0.062 A 
HETATM    5  C   UNL     1      18.967 -32.606   0.667  1.00  0.00     0.007 A 
HETATM    6  C   UNL     1      17.813 -32.359  -0.059  1.00  0.00     0.008 A 
HETATM    7  C   UNL     1      21.288 -31.979   1.445  1.00  0.00     0.048 C 
ENDROOT
BRANCH   1   8
HETATM    8  C   UNL     1      16.429 -30.973  -1.654  1.00  0.00     0.173 C 
BRANCH   8   9
HETATM    9  P   UNL     1      16.418 -31.878  -3.192  1.00  0.00     0.253 P 
HETATM   10  O   UNL     1      15.494 -31.363  -4.229  1.00  0.00    -0.646 OA
HETATM   11  O   UNL     1      17.908 -31.909  -3.679  1.00  0.00    -0.646 OA
BRANCH   9  12
HETATM   12  O   UNL     1      15.759 -33.221  -2.721  1.00  0.00    -0.312 OA
BRANCH  12  13
HETATM   13  C   UNL     1      16.201 -34.533  -2.919  1.00  0.00     0.174 C 
HETATM   14  C   UNL     1      16.104 -35.111  -1.564  1.00  0.00     0.034 C 
ENDBRANCH  12  13
ENDBRANCH   9  12
ENDBRANCH   8   9
ENDBRANCH   1   8
TORSDOF 4
ENDMDL
MODEL 3
REMARK VINA RESULT:    -6.400      1.666      1.978
REMARK INTER + INTRA:          -8.233
REMARK INTER:                  -8.073
REMARK INTRA:                  -0.159
REMARK UNBOUND:                -0.336
REMARK  4 active torsions:
REMARK  status: ('A' for Active; 'I' for Inactive)
REMARK    1  A    between atoms: C_1  and  C_7 
REMARK    2  A    between atoms: C_7  and  P_11 
REMARK    3  A    between atoms: C_9  and  O_12 
REMARK    4  A    between atoms: P_11  and  O_12 
ROOT
HETATM    1  C   UNL     1      18.205 -30.648  -1.557  1.00  0.00    -0.046 A 
HETATM    2  C   UNL     1      17.780 -31.141  -0.332  1.00  0.00     0.008 A 
HETATM    3  C   UNL     1      18.697 -31.539   0.625  1.00  0.00     0.007 A 
HETATM    4  C   UNL     1      20.061 -31.523   0.379  1.00  0.00    -0.062 A 
HETATM    5  C   UNL     1      20.484 -31.039  -0.844  1.00  0.00     0.007 A 
HETATM    6  C   UNL     1      19.573 -30.629  -1.804  1.00  0.00     0.008 A 
HETATM    7  C   UNL     1      21.052 -31.965   1.439  1.00  0.00     0.048 C 
ENDROOT
BRANCH   1   8
HETATM    8  C   UNL     1      17.221 -30.182  -2.609  1.00  0.00     0.173 C 
BRANCH   8   9
HETATM    9  P   UNL     1      16.078 -31.469  -3.077  1.00  0.00     0.253 P 
HETATM   10  O   UNL     1      15.549 -31.381  -4.457  1.00  0.00    -0.646 OA
HETATM   11  O   UNL     1      16.825 -32.822  -2.807  1.00  0.00    -0.646 OA
BRANCH   9  12
HETATM   12  O   UNL     1      14.854 -31.099  -2.170  1.00  0.00    -0.312 OA
BRANCH  12  13
HETATM   13  C   UNL     1      14.060 -31.937  -1.380  1.00  0.00     0.174 C 
HETATM   14  C   UNL     1      13.607 -31.030  -0.308  1.00  0.00     0.034 C 
ENDBRANCH  12  13
ENDBRANCH   9  12
ENDBRANCH   8   9
ENDBRANCH   1   8
TORSDOF 4
ENDMDL
MODEL 4
REMARK VINA RESULT:    -6.373      1.549      3.232
REMARK INTER + INTRA:          -8.199
REMARK INTER:                  -7.893
REMARK INTRA:                  -0.305
REMARK UNBOUND:                -0.336
REMARK  4 active torsions:
REMARK  status: ('A' for Active; 'I' for Inactive)
REMARK    1  A    between atoms: C_1  and  C_7 
REMARK    2  A    between atoms: C_7  and  P_11 
REMARK    3  A    between atoms: C_9  and  O_12 
REMARK    4  A    between atoms: P_11  and  O_12 
ROOT
HETATM    1  C   UNL     1      17.756 -31.191  -0.771  1.00  0.00    -0.046 A 
HETATM    2  C   UNL     1      18.920 -30.437  -0.797  1.00  0.00     0.008 A 
HETATM    3  C   UNL     1      20.072 -30.898  -0.186  1.00  0.00     0.007 A 
HETATM    4  C   UNL     1      20.096 -32.087   0.525  1.00  0.00    -0.062 A 
HETATM    5  C   UNL     1      18.934 -32.835   0.557  1.00  0.00     0.007 A 
HETATM    6  C   UNL     1      17.778 -32.386  -0.061  1.00  0.00     0.008 A 
HETATM    7  C   UNL     1      21.367 -32.576   1.191  1.00  0.00     0.048 C 
ENDROOT
BRANCH   1   8
HETATM    8  C   UNL     1      16.490 -30.720  -1.456  1.00  0.00     0.173 C 
BRANCH   8   9
HETATM    9  P   UNL     1      16.437 -31.198  -3.174  1.00  0.00     0.253 P 
HETATM   10  O   UNL     1      17.619 -31.942  -3.666  1.00  0.00    -0.646 OA
HETATM   11  O   UNL     1      15.104 -32.006  -3.351  1.00  0.00    -0.646 OA
BRANCH   9  12
HETATM   12  O   UNL     1      16.554 -29.792  -3.858  1.00  0.00    -0.312 OA
BRANCH  12  13
HETATM   13  C   UNL     1      17.156 -28.626  -3.373  1.00  0.00     0.174 C 
HETATM   14  C   UNL     1      16.071 -27.633  -3.492  1.00  0.00     0.034 C 
ENDBRANCH  12  13
ENDBRANCH   9  12
ENDBRANCH   8   9
ENDBRANCH   1   8
TORSDOF 4
ENDMDL
MODEL 5
REMARK VINA RESULT:    -6.358      1.831      2.613
REMARK INTER + INTRA:          -8.180
REMARK INTER:                  -7.929
REMARK INTRA:                  -0.251
REMARK UNBOUND:                -0.336
REMARK  4 active torsions:
REMARK  status: ('A' for Active; 'I' for Inactive)
REMARK    1  A    between atoms: C_1  and  C_7 
REMARK    2  A    between atoms: C_7  and  P_11 
REMARK    3  A    between atoms: C_9  and  O_12 
REMARK    4  A    between atoms: P_11  and  O_12 
ROOT
HETATM    1  C   UNL     1      18.113 -31.463  -1.264  1.00  0.00    -0.046 A 
HETATM    2  C   UNL     1      19.299 -30.818  -1.585  1.00  0.00     0.008 A 
HETATM    3  C   UNL     1      20.143 -30.357  -0.591  1.00  0.00     0.007 A 
HETATM    4  C   UNL     1      19.813 -30.459   0.751  1.00  0.00    -0.062 A 
HETATM    5  C   UNL     1      18.629 -31.094   1.072  1.00  0.00     0.007 A 
HETATM    6  C   UNL     1      17.782 -31.570   0.083  1.00  0.00     0.008 A 
HETATM    7  C   UNL     1      20.749 -29.945   1.828  1.00  0.00     0.048 C 
ENDROOT
BRANCH   1   8
HETATM    8  C   UNL     1      17.187 -32.001  -2.334  1.00  0.00     0.173 C 
BRANCH   8   9
HETATM    9  P   UNL     1      16.135 -30.729  -3.012  1.00  0.00     0.253 P 
HETATM   10  O   UNL     1      16.759 -29.394  -3.156  1.00  0.00    -0.646 OA
HETATM   11  O   UNL     1      15.607 -31.294  -4.377  1.00  0.00    -0.646 OA
BRANCH   9  12
HETATM   12  O   UNL     1      15.115 -30.553  -1.833  1.00  0.00    -0.312 OA
BRANCH  12  13
HETATM   13  C   UNL     1      14.088 -31.410  -1.425  1.00  0.00     0.174 C 
HETATM   14  C   UNL     1      13.559 -30.726  -0.228  1.00  0.00     0.034 C 
ENDBRANCH  12  13
ENDBRANCH   9  12
ENDBRANCH   8   9
ENDBRANCH   1   8
TORSDOF 4
ENDMDL
MODEL 6
REMARK VINA RESULT:    -6.224      1.741      4.257
REMARK INTER + INTRA:          -8.015
REMARK INTER:                  -7.610
REMARK INTRA:                  -0.405
REMARK UNBOUND:                -0.336
REMARK  4 active torsions:
REMARK  status: ('A' for Active; 'I' for Inactive)
REMARK    1  A    between atoms: C_1  and  C_7 
REMARK    2  A    between atoms: C_7  and  P_11 
REMARK    3  A    between atoms: C_9  and  O_12 
REMARK    4  A    between atoms: P_11  and  O_12 
ROOT
HETATM    1  C   UNL     1      15.543 -32.892  -2.113  1.00  0.00    -0.046 A 
HETATM    2  C   UNL     1      16.202 -33.718  -3.012  1.00  0.00     0.008 A 
HETATM    3  C   UNL     1      16.648 -34.968  -2.626  1.00  0.00     0.007 A 
HETATM    4  C   UNL     1      16.517 -35.419  -1.322  1.00  0.00    -0.062 A 
HETATM    5  C   UNL     1      15.868 -34.594  -0.423  1.00  0.00     0.007 A 
HETATM    6  C   UNL     1      15.408 -33.343  -0.805  1.00  0.00     0.008 A 
HETATM    7  C   UNL     1      17.015 -36.792  -0.915  1.00  0.00     0.048 C 
ENDROOT
BRANCH   1   8
HETATM    8  C   UNL     1      15.022 -31.531  -2.521  1.00  0.00     0.173 C 
BRANCH   8   9
HETATM    9  P   UNL     1      16.310 -30.297  -2.543  1.00  0.00     0.253 P 
HETATM   10  O   UNL     1      17.273 -30.400  -3.663  1.00  0.00    -0.646 OA
HETATM   11  O   UNL     1      15.575 -28.912  -2.509  1.00  0.00    -0.646 OA
BRANCH   9  12
HETATM   12  O   UNL     1      17.137 -30.734  -1.284  1.00  0.00    -0.312 OA
BRANCH  12  13
HETATM   13  C   UNL     1      18.523 -30.838  -1.136  1.00  0.00     0.174 C 
HETATM   14  C   UNL     1      18.655 -31.604   0.119  1.00  0.00     0.034 C 
ENDBRANCH  12  13
ENDBRANCH   9  12
ENDBRANCH   8   9
ENDBRANCH   1   8
TORSDOF 4
ENDMDL
MODEL 7
REMARK VINA RESULT:    -6.053      3.698      4.456
REMARK INTER + INTRA:          -7.804
REMARK INTER:                  -7.398
REMARK INTRA:                  -0.407
REMARK UNBOUND:                -0.336
REMARK  4 active torsions:
REMARK  status: ('A' for Active; 'I' for Inactive)
REMARK    1  A    between atoms: C_1  and  C_7 
REMARK    2  A    between atoms: C_7  and  P_11 
REMARK    3  A    between atoms: C_9  and  O_12 
REMARK    4  A    between atoms: P_11  and  O_12 
ROOT
HETATM    1  C   UNL     1      15.470 -33.192  -2.251  1.00  0.00    -0.046 A 
HETATM    2  C   UNL     1      15.150 -33.662  -0.986  1.00  0.00     0.008 A 
HETATM    3  C   UNL     1      15.691 -34.844  -0.515  1.00  0.00     0.007 A 
HETATM    4  C   UNL     1      16.515 -35.634  -1.301  1.00  0.00    -0.062 A 
HETATM    5  C   UNL     1      16.828 -35.170  -2.564  1.00  0.00     0.007 A 
HETATM    6  C   UNL     1      16.299 -33.981  -3.041  1.00  0.00     0.008 A 
HETATM    7  C   UNL     1      17.098 -36.928  -0.769  1.00  0.00     0.048 C 
ENDROOT
BRANCH   1   8
HETATM    8  C   UNL     1      14.911 -31.887  -2.778  1.00  0.00     0.173 C 
BRANCH   8   9
HETATM    9  P   UNL     1      15.770 -30.471  -2.115  1.00  0.00     0.253 P 
HETATM   10  O   UNL     1      16.770 -30.766  -1.063  1.00  0.00    -0.646 OA
HETATM   11  O   UNL     1      16.399 -29.736  -3.350  1.00  0.00    -0.646 OA
BRANCH   9  12
HETATM   12  O   UNL     1      14.598 -29.769  -1.346  1.00  0.00    -0.312 OA
BRANCH  12  13
HETATM   13  C   UNL     1      13.296 -30.227  -1.120  1.00  0.00     0.174 C 
HETATM   14  C   UNL     1      13.335 -30.612   0.304  1.00  0.00     0.034 C 
ENDBRANCH  12  13
ENDBRANCH   9  12
ENDBRANCH   8   9
ENDBRANCH   1   8
TORSDOF 4
ENDMDL
MODEL 8
REMARK VINA RESULT:    -6.013      2.996      5.254
REMARK INTER + INTRA:          -7.755
REMARK INTER:                  -7.928
REMARK INTRA:                   0.173
REMARK UNBOUND:                -0.336
REMARK  4 active torsions:
REMARK  status: ('A' for Active; 'I' for Inactive)
REMARK    1  A    between atoms: C_1  and  C_7 
REMARK    2  A    between atoms: C_7  and  P_11 
REMARK    3  A    between atoms: C_9  and  O_12 
REMARK    4  A    between atoms: P_11  and  O_12 
ROOT
HETATM    1  C   UNL     1      17.637 -31.546  -1.767  1.00  0.00    -0.046 A 
HETATM    2  C   UNL     1      17.123 -32.001  -2.973  1.00  0.00     0.008 A 
HETATM    3  C   UNL     1      16.367 -33.158  -3.026  1.00  0.00     0.007 A 
HETATM    4  C   UNL     1      16.149 -33.939  -1.902  1.00  0.00    -0.062 A 
HETATM    5  C   UNL     1      16.668 -33.491  -0.703  1.00  0.00     0.007 A 
HETATM    6  C   UNL     1      17.417 -32.327  -0.638  1.00  0.00     0.008 A 
HETATM    7  C   UNL     1      15.320 -35.207  -1.979  1.00  0.00     0.048 C 
ENDROOT
BRANCH   1   8
HETATM    8  C   UNL     1      18.444 -30.268  -1.681  1.00  0.00     0.173 C 
BRANCH   8   9
HETATM    9  P   UNL     1      20.010 -30.517  -0.863  1.00  0.00     0.253 P 
HETATM   10  O   UNL     1      20.282 -31.901  -0.412  1.00  0.00    -0.646 OA
HETATM   11  O   UNL     1      21.100 -29.986  -1.858  1.00  0.00    -0.646 OA
BRANCH   9  12
HETATM   12  O   UNL     1      19.761 -29.721   0.465  1.00  0.00    -0.312 OA
BRANCH  12  13
HETATM   13  C   UNL     1      20.318 -29.928   1.731  1.00  0.00     0.174 C 
HETATM   14  C   UNL     1      19.609 -28.933   2.559  1.00  0.00     0.034 C 
ENDBRANCH  12  13
ENDBRANCH   9  12
ENDBRANCH   8   9
ENDBRANCH   1   8
TORSDOF 4
ENDMDL
MODEL 9
REMARK VINA RESULT:    -5.955      1.855      3.109
REMARK INTER + INTRA:          -7.683
REMARK INTER:                  -7.448
REMARK INTRA:                  -0.235
REMARK UNBOUND:                -0.336
REMARK  4 active torsions:
REMARK  status: ('A' for Active; 'I' for Inactive)
REMARK    1  A    between atoms: C_1  and  C_7 
REMARK    2  A    between atoms: C_7  and  P_11 
REMARK    3  A    between atoms: C_9  and  O_12 
REMARK    4  A    between atoms: P_11  and  O_12 
ROOT
HETATM    1  C   UNL     1      18.290 -31.440  -1.276  1.00  0.00    -0.046 A 
HETATM    2  C   UNL     1      17.842 -31.641   0.021  1.00  0.00     0.008 A 
HETATM    3  C   UNL     1      18.505 -31.071   1.093  1.00  0.00     0.007 A 
HETATM    4  C   UNL     1      19.671 -30.339   0.924  1.00  0.00    -0.062 A 
HETATM    5  C   UNL     1      20.122 -30.146  -0.368  1.00  0.00     0.007 A 
HETATM    6  C   UNL     1      19.457 -30.704  -1.448  1.00  0.00     0.008 A 
HETATM    7  C   UNL     1      20.387 -29.725   2.110  1.00  0.00     0.048 C 
ENDROOT
BRANCH   1   8
HETATM    8  C   UNL     1      17.564 -32.031  -2.466  1.00  0.00     0.173 C 
BRANCH   8   9
HETATM    9  P   UNL     1      16.044 -31.167  -2.823  1.00  0.00     0.253 P 
HETATM   10  O   UNL     1      15.638 -31.152  -4.247  1.00  0.00    -0.646 OA
HETATM   11  O   UNL     1      14.957 -31.816  -1.897  1.00  0.00    -0.646 OA
BRANCH   9  12
HETATM   12  O   UNL     1      16.487 -29.691  -2.533  1.00  0.00    -0.312 OA
BRANCH  12  13
HETATM   13  C   UNL     1      17.029 -28.748  -3.412  1.00  0.00     0.174 C 
HETATM   14  C   UNL     1      16.019 -27.672  -3.389  1.00  0.00     0.034 C 
ENDBRANCH  12  13
ENDBRANCH   9  12
ENDBRANCH   8   9
ENDBRANCH   1   8
TORSDOF 4
ENDMDL
MODEL 10
REMARK VINA RESULT:    -5.949      3.418      5.441
REMARK INTER + INTRA:          -7.675
REMARK INTER:                  -7.507
REMARK INTRA:                  -0.168
REMARK UNBOUND:                -0.336
REMARK  4 active torsions:
REMARK  status: ('A' for Active; 'I' for Inactive)
REMARK    1  A    between atoms: C_1  and  C_7 
REMARK    2  A    between atoms: C_7  and  P_11 
REMARK    3  A    between atoms: C_9  and  O_12 
REMARK    4  A    between atoms: P_11  and  O_12 
ROOT
HETATM    1  C   UNL     1      17.869 -31.185  -1.544  1.00  0.00    -0.046 A 
HETATM    2  C   UNL     1      17.069 -30.171  -2.050  1.00  0.00     0.008 A 
HETATM    3  C   UNL     1      15.692 -30.240  -1.946  1.00  0.00     0.007 A 
HETATM    4  C   UNL     1      15.056 -31.343  -1.396  1.00  0.00    -0.062 A 
HETATM    5  C   UNL     1      15.852 -32.356  -0.899  1.00  0.00     0.007 A 
HETATM    6  C   UNL     1      17.234 -32.290  -0.989  1.00  0.00     0.008 A 
HETATM    7  C   UNL     1      13.545 -31.403  -1.292  1.00  0.00     0.048 C 
ENDROOT
BRANCH   1   8
HETATM    8  C   UNL     1      19.379 -31.118  -1.622  1.00  0.00     0.173 C 
BRANCH   8   9
HETATM    9  P   UNL     1      20.138 -31.137  -0.008  1.00  0.00     0.253 P 
HETATM   10  O   UNL     1      20.232 -32.468   0.637  1.00  0.00    -0.646 OA
HETATM   11  O   UNL     1      21.540 -30.458  -0.186  1.00  0.00    -0.646 OA
BRANCH   9  12
HETATM   12  O   UNL     1      19.044 -30.383   0.824  1.00  0.00    -0.312 OA
BRANCH  12  13
HETATM   13  C   UNL     1      18.910 -30.281   2.213  1.00  0.00     0.174 C 
HETATM   14  C   UNL     1      19.653 -29.042   2.515  1.00  0.00     0.034 C 
ENDBRANCH  12  13
ENDBRANCH   9  12
ENDBRANCH   8   9
ENDBRANCH   1   8
TORSDOF 4
ENDMDL
MODEL 11
REMARK VINA RESULT:    -5.785      2.456      4.681
REMARK INTER + INTRA:          -7.473
REMARK INTER:                  -7.282
REMARK INTRA:                  -0.191
REMARK UNBOUND:                -0.336
REMARK  4 active torsions:
REMARK  status: ('A' for Active; 'I' for Inactive)
REMARK    1  A    between atoms: C_1  and  C_7 
REMARK    2  A    between atoms: C_7  and  P_11 
REMARK    3  A    between atoms: C_9  and  O_12 
REMARK    4  A    between atoms: P_11  and  O_12 
ROOT
HETATM    1  C   UNL     1      15.888 -32.129  -1.545  1.00  0.00    -0.046 A 
HETATM    2  C   UNL     1      15.092 -33.116  -2.107  1.00  0.00     0.008 A 
HETATM    3  C   UNL     1      15.349 -34.453  -1.864  1.00  0.00     0.007 A 
HETATM    4  C   UNL     1      16.440 -34.861  -1.112  1.00  0.00    -0.062 A 
HETATM    5  C   UNL     1      17.238 -33.878  -0.559  1.00  0.00     0.007 A 
HETATM    6  C   UNL     1      16.981 -32.536  -0.788  1.00  0.00     0.008 A 
HETATM    7  C   UNL     1      16.709 -36.331  -0.858  1.00  0.00     0.048 C 
ENDROOT
BRANCH   1   8
HETATM    8  C   UNL     1      15.609 -30.658  -1.775  1.00  0.00     0.173 C 
BRANCH   8   9
HETATM    9  P   UNL     1      16.715 -29.945  -2.980  1.00  0.00     0.253 P 
HETATM   10  O   UNL     1      18.002 -29.442  -2.446  1.00  0.00    -0.646 OA
HETATM   11  O   UNL     1      16.913 -31.044  -4.081  1.00  0.00    -0.646 OA
BRANCH   9  12
HETATM   12  O   UNL     1      15.920 -28.647  -3.355  1.00  0.00    -0.312 OA
BRANCH  12  13
HETATM   13  C   UNL     1      16.411 -27.382  -3.693  1.00  0.00     0.174 C 
HETATM   14  C   UNL     1      15.197 -26.679  -4.151  1.00  0.00     0.034 C 
ENDBRANCH  12  13
ENDBRANCH   9  12
ENDBRANCH   8   9
ENDBRANCH   1   8
TORSDOF 4
ENDMDL
MODEL 12
REMARK VINA RESULT:    -5.605      1.765      3.229
REMARK INTER + INTRA:          -7.252
REMARK INTER:                  -6.956
REMARK INTRA:                  -0.295
REMARK UNBOUND:                -0.336
REMARK  4 active torsions:
REMARK  status: ('A' for Active; 'I' for Inactive)
REMARK    1  A    between atoms: C_1  and  C_7 
REMARK    2  A    between atoms: C_7  and  P_11 
REMARK    3  A    between atoms: C_9  and  O_12 
REMARK    4  A    between atoms: P_11  and  O_12 
ROOT
HETATM    1  C   UNL     1      18.118 -31.750  -0.999  1.00  0.00    -0.046 A 
HETATM    2  C   UNL     1      18.860 -30.607  -1.262  1.00  0.00     0.008 A 
HETATM    3  C   UNL     1      19.741 -30.105  -0.322  1.00  0.00     0.007 A 
HETATM    4  C   UNL     1      19.871 -30.677   0.934  1.00  0.00    -0.062 A 
HETATM    5  C   UNL     1      19.127 -31.810   1.200  1.00  0.00     0.007 A 
HETATM    6  C   UNL     1      18.249 -32.326   0.260  1.00  0.00     0.008 A 
HETATM    7  C   UNL     1      20.840 -30.112   1.954  1.00  0.00     0.048 C 
ENDROOT
BRANCH   1   8
HETATM    8  C   UNL     1      17.168 -32.332  -2.023  1.00  0.00     0.173 C 
BRANCH   8   9
HETATM    9  P   UNL     1      15.646 -31.406  -2.131  1.00  0.00     0.253 P 
HETATM   10  O   UNL     1      14.553 -32.062  -2.885  1.00  0.00    -0.646 OA
HETATM   11  O   UNL     1      15.241 -31.077  -0.652  1.00  0.00    -0.646 OA
BRANCH   9  12
HETATM   12  O   UNL     1      16.102 -30.228  -3.060  1.00  0.00    -0.312 OA
BRANCH  12  13
HETATM   13  C   UNL     1      16.015 -28.850  -2.838  1.00  0.00     0.174 C 
HETATM   14  C   UNL     1      17.182 -28.332  -3.579  1.00  0.00     0.034 C 
ENDBRANCH  12  13
ENDBRANCH   9  12
ENDBRANCH   8   9
ENDBRANCH   1   8
TORSDOF 4
ENDMDL
MODEL 13
REMARK VINA RESULT:    -5.578      2.559      5.073
REMARK INTER + INTRA:          -7.218
REMARK INTER:                  -7.121
REMARK INTRA:                  -0.097
REMARK UNBOUND:                -0.336
REMARK  4 active torsions:
REMARK  status: ('A' for Active; 'I' for Inactive)
REMARK    1  A    between atoms: C_1  and  C_7 
REMARK    2  A    between atoms: C_7  and  P_11 
REMARK    3  A    between atoms: C_9  and  O_12 
REMARK    4  A    between atoms: P_11  and  O_12 
ROOT
HETATM    1  C   UNL     1      15.912 -31.503  -1.809  1.00  0.00    -0.046 A 
HETATM    2  C   UNL     1      15.365 -30.229  -1.859  1.00  0.00     0.008 A 
HETATM    3  C   UNL     1      14.192 -29.938  -1.186  1.00  0.00     0.007 A 
HETATM    4  C   UNL     1      13.487 -30.911  -0.495  1.00  0.00    -0.062 A 
HETATM    5  C   UNL     1      14.027 -32.182  -0.452  1.00  0.00     0.007 A 
HETATM    6  C   UNL     1      15.207 -32.480  -1.114  1.00  0.00     0.008 A 
HETATM    7  C   UNL     1      12.201 -30.575   0.235  1.00  0.00     0.048 C 
ENDROOT
BRANCH   1   8
HETATM    8  C   UNL     1      17.208 -31.838  -2.515  1.00  0.00     0.173 C 
BRANCH   8   9
HETATM    9  P   UNL     1      18.530 -30.731  -2.055  1.00  0.00     0.253 P 
HETATM   10  O   UNL     1      19.900 -31.242  -2.290  1.00  0.00    -0.646 OA
HETATM   11  O   UNL     1      18.250 -29.391  -2.819  1.00  0.00    -0.646 OA
BRANCH   9  12
HETATM   12  O   UNL     1      18.375 -30.747  -0.494  1.00  0.00    -0.312 OA
BRANCH  12  13
HETATM   13  C   UNL     1      19.030 -31.549   0.446  1.00  0.00     0.174 C 
HETATM   14  C   UNL     1      18.988 -30.715   1.663  1.00  0.00     0.034 C 
ENDBRANCH  12  13
ENDBRANCH   9  12
ENDBRANCH   8   9
ENDBRANCH   1   8
TORSDOF 4
ENDMDL
MODEL 14
REMARK VINA RESULT:    -5.418      2.246      2.876
REMARK INTER + INTRA:          -7.020
REMARK INTER:                  -7.380
REMARK INTRA:                   0.360
REMARK UNBOUND:                -0.336
REMARK  4 active torsions:
REMARK  status: ('A' for Active; 'I' for Inactive)
REMARK    1  A    between atoms: C_1  and  C_7 
REMARK    2  A    between atoms: C_7  and  P_11 
REMARK    3  A    between atoms: C_9  and  O_12 
REMARK    4  A    between atoms: P_11  and  O_12 
ROOT
HETATM    1  C   UNL     1      16.642 -31.330  -2.066  1.00  0.00    -0.046 A 
HETATM    2  C   UNL     1      17.655 -30.992  -2.952  1.00  0.00     0.008 A 
HETATM    3  C   UNL     1      18.941 -30.763  -2.499  1.00  0.00     0.007 A 
HETATM    4  C   UNL     1      19.256 -30.796  -1.149  1.00  0.00    -0.062 A 
HETATM    5  C   UNL     1      18.246 -31.124  -0.265  1.00  0.00     0.007 A 
HETATM    6  C   UNL     1      16.956 -31.366  -0.711  1.00  0.00     0.008 A 
HETATM    7  C   UNL     1      20.672 -30.539  -0.670  1.00  0.00     0.048 C 
ENDROOT
BRANCH   1   8
HETATM    8  C   UNL     1      15.233 -31.612  -2.541  1.00  0.00     0.173 C 
BRANCH   8   9
HETATM    9  P   UNL     1      14.144 -32.048  -1.197  1.00  0.00     0.253 P 
HETATM   10  O   UNL     1      14.250 -31.199   0.012  1.00  0.00    -0.646 OA
HETATM   11  O   UNL     1      12.698 -32.051  -1.802  1.00  0.00    -0.646 OA
BRANCH   9  12
HETATM   12  O   UNL     1      14.774 -33.417  -0.762  1.00  0.00    -0.312 OA
BRANCH  12  13
HETATM   13  C   UNL     1      14.901 -34.599  -1.499  1.00  0.00     0.174 C 
HETATM   14  C   UNL     1      16.271 -35.037  -1.167  1.00  0.00     0.034 C 
ENDBRANCH  12  13
ENDBRANCH   9  12
ENDBRANCH   8   9
ENDBRANCH   1   8
TORSDOF 4
ENDMDL
MODEL 15
REMARK VINA RESULT:    -5.392      2.147      2.814
REMARK INTER + INTRA:          -6.988
REMARK INTER:                  -7.805
REMARK INTRA:                   0.817
REMARK UNBOUND:                -0.336
REMARK  4 active torsions:
REMARK  status: ('A' for Active; 'I' for Inactive)
REMARK    1  A    between atoms: C_1  and  C_7 
REMARK    2  A    between atoms: C_7  and  P_11 
REMARK    3  A    between atoms: C_9  and  O_12 
REMARK    4  A    between atoms: P_11  and  O_12 
ROOT
HETATM    1  C   UNL     1      17.749 -32.016  -1.333  1.00  0.00    -0.046 A 
HETATM    2  C   UNL     1      18.307 -30.769  -1.579  1.00  0.00     0.008 A 
HETATM    3  C   UNL     1      19.085 -30.143  -0.623  1.00  0.00     0.007 A 
HETATM    4  C   UNL     1      19.284 -30.697   0.633  1.00  0.00    -0.062 A 
HETATM    5  C   UNL     1      18.722 -31.934   0.881  1.00  0.00     0.007 A 
HETATM    6  C   UNL     1      17.950 -32.574  -0.075  1.00  0.00     0.008 A 
HETATM    7  C   UNL     1      20.138 -29.995   1.670  1.00  0.00     0.048 C 
ENDROOT
BRANCH   1   8
HETATM    8  C   UNL     1      16.917 -32.732  -2.375  1.00  0.00     0.173 C 
BRANCH   8   9
HETATM    9  P   UNL     1      15.996 -34.093  -1.679  1.00  0.00     0.253 P 
HETATM   10  O   UNL     1      15.604 -35.153  -2.637  1.00  0.00    -0.646 OA
HETATM   11  O   UNL     1      16.873 -34.644  -0.501  1.00  0.00    -0.646 OA
BRANCH   9  12
HETATM   12  O   UNL     1      14.649 -33.370  -1.332  1.00  0.00    -0.312 OA
BRANCH  12  13
HETATM   13  C   UNL     1      14.167 -32.141  -1.794  1.00  0.00     0.174 C 
HETATM   14  C   UNL     1      14.108 -31.336  -0.559  1.00  0.00     0.034 C 
ENDBRANCH  12  13
ENDBRANCH   9  12
ENDBRANCH   8   9
ENDBRANCH   1   8
TORSDOF 4
ENDMDL
MODEL 16
REMARK VINA RESULT:    -5.338      1.756      4.654
REMARK INTER + INTRA:          -6.921
REMARK INTER:                  -6.558
REMARK INTRA:                  -0.363
REMARK UNBOUND:                -0.336
REMARK  4 active torsions:
REMARK  status: ('A' for Active; 'I' for Inactive)
REMARK    1  A    between atoms: C_1  and  C_7 
REMARK    2  A    between atoms: C_7  and  P_11 
REMARK    3  A    between atoms: C_9  and  O_12 
REMARK    4  A    between atoms: P_11  and  O_12 
ROOT
HETATM    1  C   UNL     1      16.360 -32.058  -1.090  1.00  0.00    -0.046 A 
HETATM    2  C   UNL     1      16.976 -33.263  -0.784  1.00  0.00     0.008 A 
HETATM    3  C   UNL     1      16.293 -34.458  -0.916  1.00  0.00     0.007 A 
HETATM    4  C   UNL     1      14.959 -34.498  -1.291  1.00  0.00    -0.062 A 
HETATM    5  C   UNL     1      14.342 -33.298  -1.588  1.00  0.00     0.007 A 
HETATM    6  C   UNL     1      15.023 -32.096  -1.469  1.00  0.00     0.008 A 
HETATM    7  C   UNL     1      14.224 -35.817  -1.428  1.00  0.00     0.048 C 
ENDROOT
BRANCH   1   8
HETATM    8  C   UNL     1      17.096 -30.739  -0.979  1.00  0.00     0.173 C 
BRANCH   8   9
HETATM    9  P   UNL     1      18.085 -30.398  -2.424  1.00  0.00     0.253 P 
HETATM   10  O   UNL     1      18.138 -31.483  -3.431  1.00  0.00    -0.646 OA
HETATM   11  O   UNL     1      17.528 -29.057  -3.016  1.00  0.00    -0.646 OA
BRANCH   9  12
HETATM   12  O   UNL     1      19.518 -30.395  -1.787  1.00  0.00    -0.312 OA
BRANCH  12  13
HETATM   13  C   UNL     1      19.881 -30.287  -0.440  1.00  0.00     0.174 C 
HETATM   14  C   UNL     1      20.469 -31.611  -0.161  1.00  0.00     0.034 C 
ENDBRANCH  12  13
ENDBRANCH   9  12
ENDBRANCH   8   9
ENDBRANCH   1   8
TORSDOF 4
ENDMDL
MODEL 17
REMARK VINA RESULT:    -5.336      2.725      4.016
REMARK INTER + INTRA:          -6.919
REMARK INTER:                  -6.662
REMARK INTRA:                  -0.257
REMARK UNBOUND:                -0.336
REMARK  4 active torsions:
REMARK  status: ('A' for Active; 'I' for Inactive)
REMARK    1  A    between atoms: C_1  and  C_7 
REMARK    2  A    between atoms: C_7  and  P_11 
REMARK    3  A    between atoms: C_9  and  O_12 
REMARK    4  A    between atoms: P_11  and  O_12 
ROOT
HETATM    1  C   UNL     1      16.399 -30.290  -1.883  1.00  0.00    -0.046 A 
HETATM    2  C   UNL     1      17.685 -30.314  -2.403  1.00  0.00     0.008 A 
HETATM    3  C   UNL     1      18.147 -29.278  -3.194  1.00  0.00     0.007 A 
HETATM    4  C   UNL     1      17.332 -28.215  -3.553  1.00  0.00    -0.062 A 
HETATM    5  C   UNL     1      16.048 -28.195  -3.042  1.00  0.00     0.007 A 
HETATM    6  C   UNL     1      15.581 -29.223  -2.239  1.00  0.00     0.008 A 
HETATM    7  C   UNL     1      17.853 -27.089  -4.424  1.00  0.00     0.048 C 
ENDROOT
BRANCH   1   8
HETATM    8  C   UNL     1      15.882 -31.399  -0.993  1.00  0.00     0.173 C 
BRANCH   8   9
HETATM    9  P   UNL     1      14.617 -32.370  -1.794  1.00  0.00     0.253 P 
HETATM   10  O   UNL     1      13.222 -31.963  -1.505  1.00  0.00    -0.646 OA
HETATM   11  O   UNL     1      14.950 -32.323  -3.326  1.00  0.00    -0.646 OA
BRANCH   9  12
HETATM   12  O   UNL     1      14.787 -33.731  -1.034  1.00  0.00    -0.312 OA
BRANCH  12  13
HETATM   13  C   UNL     1      14.883 -35.024  -1.559  1.00  0.00     0.174 C 
HETATM   14  C   UNL     1      16.338 -35.181  -1.756  1.00  0.00     0.034 C 
ENDBRANCH  12  13
ENDBRANCH   9  12
ENDBRANCH   8   9
ENDBRANCH   1   8
TORSDOF 4
ENDMDL
MODEL 18
REMARK VINA RESULT:    -5.209      2.311      4.603
REMARK INTER + INTRA:          -6.763
REMARK INTER:                  -6.449
REMARK INTRA:                  -0.314
REMARK UNBOUND:                -0.336
REMARK  4 active torsions:
REMARK  status: ('A' for Active; 'I' for Inactive)
REMARK    1  A    between atoms: C_1  and  C_7 
REMARK    2  A    between atoms: C_7  and  P_11 
REMARK    3  A    between atoms: C_9  and  O_12 
REMARK    4  A    between atoms: P_11  and  O_12 
ROOT
HETATM    1  C   UNL     1      15.224 -31.830  -2.117  1.00  0.00    -0.046 A 
HETATM    2  C   UNL     1      16.024 -31.670  -3.240  1.00  0.00     0.008 A 
HETATM    3  C   UNL     1      16.440 -30.412  -3.636  1.00  0.00     0.007 A 
HETATM    4  C   UNL     1      16.027 -29.265  -2.974  1.00  0.00    -0.062 A 
HETATM    5  C   UNL     1      15.224 -29.424  -1.862  1.00  0.00     0.007 A 
HETATM    6  C   UNL     1      14.811 -30.682  -1.451  1.00  0.00     0.008 A 
HETATM    7  C   UNL     1      16.491 -27.894  -3.424  1.00  0.00     0.048 C 
ENDROOT
BRANCH   1   8
HETATM    8  C   UNL     1      14.779 -33.200  -1.650  1.00  0.00     0.173 C 
BRANCH   8   9
HETATM    9  P   UNL     1      16.160 -34.279  -1.318  1.00  0.00     0.253 P 
HETATM   10  O   UNL     1      16.087 -35.037  -0.048  1.00  0.00    -0.646 OA
HETATM   11  O   UNL     1      16.279 -35.217  -2.570  1.00  0.00    -0.646 OA
BRANCH   9  12
HETATM   12  O   UNL     1      17.289 -33.219  -1.070  1.00  0.00    -0.312 OA
BRANCH  12  13
HETATM   13  C   UNL     1      17.958 -32.911   0.119  1.00  0.00     0.174 C 
HETATM   14  C   UNL     1      18.358 -31.506  -0.095  1.00  0.00     0.034 C 
ENDBRANCH  12  13
ENDBRANCH   9  12
ENDBRANCH   8   9
ENDBRANCH   1   8
TORSDOF 4
ENDMDL
MODEL 19
REMARK VINA RESULT:    -5.182      3.245      5.189
REMARK INTER + INTRA:          -6.730
REMARK INTER:                  -6.532
REMARK INTRA:                  -0.198
REMARK UNBOUND:                -0.336
REMARK  4 active torsions:
REMARK  status: ('A' for Active; 'I' for Inactive)
REMARK    1  A    between atoms: C_1  and  C_7 
REMARK    2  A    between atoms: C_7  and  P_11 
REMARK    3  A    between atoms: C_9  and  O_12 
REMARK    4  A    between atoms: P_11  and  O_12 
ROOT
HETATM    1  C   UNL     1      17.740 -31.130  -1.787  1.00  0.00    -0.046 A 
HETATM    2  C   UNL     1      16.937 -30.104  -2.262  1.00  0.00     0.008 A 
HETATM    3  C   UNL     1      15.584 -30.076  -1.975  1.00  0.00     0.007 A 
HETATM    4  C   UNL     1      14.968 -31.096  -1.265  1.00  0.00    -0.062 A 
HETATM    5  C   UNL     1      15.766 -32.122  -0.799  1.00  0.00     0.007 A 
HETATM    6  C   UNL     1      17.125 -32.152  -1.072  1.00  0.00     0.008 A 
HETATM    7  C   UNL     1      13.483 -31.051  -0.963  1.00  0.00     0.048 C 
ENDROOT
BRANCH   1   8
HETATM    8  C   UNL     1      19.228 -31.166  -2.065  1.00  0.00     0.173 C 
BRANCH   8   9
HETATM    9  P   UNL     1      20.189 -30.656  -0.651  1.00  0.00     0.253 P 
HETATM   10  O   UNL     1      21.480 -30.000  -0.960  1.00  0.00    -0.646 OA
HETATM   11  O   UNL     1      19.242 -29.741   0.201  1.00  0.00    -0.646 OA
BRANCH   9  12
HETATM   12  O   UNL     1      20.596 -32.054  -0.071  1.00  0.00    -0.312 OA
BRANCH  12  13
HETATM   13  C   UNL     1      20.961 -32.391   1.237  1.00  0.00     0.174 C 
HETATM   14  C   UNL     1      21.622 -33.698   1.059  1.00  0.00     0.034 C 
ENDBRANCH  12  13
ENDBRANCH   9  12
ENDBRANCH   8   9
ENDBRANCH   1   8
TORSDOF 4
ENDMDL
MODEL 20
REMARK VINA RESULT:    -5.095      1.991      3.086
REMARK INTER + INTRA:          -6.622
REMARK INTER:                  -7.010
REMARK INTRA:                   0.389
REMARK UNBOUND:                -0.336
REMARK  4 active torsions:
REMARK  status: ('A' for Active; 'I' for Inactive)
REMARK    1  A    between atoms: C_1  and  C_7 
REMARK    2  A    between atoms: C_7  and  P_11 
REMARK    3  A    between atoms: C_9  and  O_12 
REMARK    4  A    between atoms: P_11  and  O_12 
ROOT
HETATM    1  C   UNL     1      17.177 -31.580  -0.793  1.00  0.00    -0.046 A 
HETATM    2  C   UNL     1      18.317 -31.919  -0.079  1.00  0.00     0.008 A 
HETATM    3  C   UNL     1      19.545 -31.377  -0.411  1.00  0.00     0.007 A 
HETATM    4  C   UNL     1      19.699 -30.533  -1.501  1.00  0.00    -0.062 A 
HETATM    5  C   UNL     1      18.566 -30.202  -2.217  1.00  0.00     0.007 A 
HETATM    6  C   UNL     1      17.329 -30.731  -1.885  1.00  0.00     0.008 A 
HETATM    7  C   UNL     1      21.054 -29.950  -1.853  1.00  0.00     0.048 C 
ENDROOT
BRANCH   1   8
HETATM    8  C   UNL     1      15.818 -32.139  -0.431  1.00  0.00     0.173 C 
BRANCH   8   9
HETATM    9  P   UNL     1      14.863 -32.573  -1.874  1.00  0.00     0.253 P 
HETATM   10  O   UNL     1      15.548 -32.383  -3.173  1.00  0.00    -0.646 OA
HETATM   11  O   UNL     1      14.401 -34.055  -1.651  1.00  0.00    -0.646 OA
BRANCH   9  12
HETATM   12  O   UNL     1      13.779 -31.441  -1.842  1.00  0.00    -0.312 OA
BRANCH  12  13
HETATM   13  C   UNL     1      13.716 -30.307  -1.024  1.00  0.00     0.174 C 
HETATM   14  C   UNL     1      12.725 -30.703  -0.005  1.00  0.00     0.034 C 
ENDBRANCH  12  13
ENDBRANCH   9  12
ENDBRANCH   8   9
ENDBRANCH   1   8
TORSDOF 4
ENDMDL
