REMARK  3 active torsions:
REMARK  status: ('A' for Active; 'I' for Inactive)
REMARK    1  A    between atoms: C_6  and  S_9 
REMARK    2  A    between atoms: S_9  and  N_12 
REMARK    3  A    between atoms: N_12  and  C_13 
ROOT
HETATM    1  C   UNL     1       0.488   1.145  -1.347  1.00  0.00     0.043 A 
HETATM    2  C   UNL     1       0.333  -0.247  -1.213  1.00  0.00     0.041 A 
HETATM    3  C   UNL     1      -0.846  -0.884  -1.635  1.00  0.00    -0.011 A 
HETATM    4  C   UNL     1      -1.003  -2.368  -1.394  1.00  0.00     0.168 C 
HETATM    5  N   UNL     1      -2.119  -2.972  -2.137  1.00  0.00    -0.334 N 
HETATM    6  C   UNL     1      -2.210  -4.431  -2.219  1.00  0.00     0.154 C 
HETATM    7  C   UNL     1      -3.200  -2.167  -2.638  1.00  0.00     0.322 C 
HETATM    8  O   UNL     1      -4.240  -2.709  -3.102  1.00  0.00    -0.247 OA
HETATM    9  N   UNL     1      -3.091  -0.746  -2.630  1.00  0.00    -0.308 N 
HETATM   10  C   UNL     1      -1.884  -0.117  -2.194  1.00  0.00     0.044 A 
HETATM   11  C   UNL     1      -1.727   1.268  -2.338  1.00  0.00     0.032 A 
HETATM   12  C   UNL     1      -0.550   1.892  -1.922  1.00  0.00     0.032 A 
HETATM   13  H   UNL     1      -3.881  -0.170  -3.002  1.00  0.00     0.170 HD
ENDROOT
BRANCH   1  14
HETATM   14  N   UNL     1       1.677   1.823  -0.904  1.00  0.00    -0.281 N 
HETATM   15  H   UNL     1       1.800   2.834  -1.135  1.00  0.00     0.179 HD
BRANCH  14  16
HETATM   16  S   UNL     1       2.863   1.108   0.142  1.00  0.00     0.263 S 
HETATM   17  O   UNL     1       3.811   2.172   0.618  1.00  0.00    -0.200 OA
HETATM   18  O   UNL     1       3.635   0.072  -0.627  1.00  0.00    -0.200 OA
BRANCH  16  19
HETATM   19  C   UNL     1       2.076   0.385   1.543  1.00  0.00     0.080 A 
HETATM   20  C   UNL     1       0.961   1.009   2.118  1.00  0.00     0.035 A 
HETATM   21  C   UNL     1       0.311   0.430   3.220  1.00  0.00    -0.022 A 
HETATM   22  C   UNL     1       0.779  -0.792   3.732  1.00  0.00     0.122 A 
HETATM   23  C   UNL     1      -0.909   1.079   3.806  1.00  0.00     0.051 C 
HETATM   24  F   UNL     1       0.153  -1.386   4.780  1.00  0.00    -0.206 F 
HETATM   25  C   UNL     1       1.897  -1.410   3.163  1.00  0.00     0.044 A 
HETATM   26  C   UNL     1       2.546  -0.823   2.074  1.00  0.00     0.028 A 
ENDBRANCH  16  19
ENDBRANCH  14  16
ENDBRANCH   1  14
TORSDOF 3
