REMARK  3 active torsions:
REMARK  status: ('A' for Active; 'I' for Inactive)
REMARK    1  A    between atoms: C_6  and  S_9 
REMARK    2  A    between atoms: S_9  and  N_12 
REMARK    3  A    between atoms: N_12  and  C_14 
ROOT
HETATM    1  C   UNL     1      45.120  39.411  77.010  1.00  0.00     0.043 A 
HETATM    2  C   UNL     1      43.989  39.086  76.261  1.00  0.00     0.041 A 
HETATM    3  C   UNL     1      43.379  40.013  75.425  1.00  0.00    -0.011 A 
HETATM    4  C   UNL     1      42.182  39.647  74.658  1.00  0.00     0.168 A 
HETATM    5  N   UNL     1      41.712  40.695  73.754  1.00  0.00    -0.334 N 
HETATM    6  C   UNL     1      40.576  40.378  72.896  1.00  0.00     0.154 C 
HETATM    7  C   UNL     1      42.270  41.975  73.712  1.00  0.00     0.322 A 
HETATM    8  O   UNL     1      41.808  42.832  72.953  1.00  0.00    -0.247 OA
HETATM    9  N   UNL     1      43.297  42.257  74.516  1.00  0.00    -0.308 N 
ATOM     10  HN  UNL     1      43.645  43.215  74.541  1.00  0.00     0.170 HD
HETATM   11  C   UNL     1      43.907  41.319  75.311  1.00  0.00     0.044 A 
HETATM   12  C   UNL     1      45.057  41.657  76.026  1.00  0.00     0.032 A 
HETATM   13  C   UNL     1      45.659  40.698  76.851  1.00  0.00     0.032 A 
ENDROOT
BRANCH   1  14
HETATM   14  N   UNL     1      45.803  38.479  77.828  1.00  0.00    -0.281 N 
ATOM     15  HN  UNL     1      45.828  38.641  78.835  1.00  0.00     0.179 HD
BRANCH  14  16
HETATM   16  S   UNL     1      46.526  37.203  77.252  1.00  0.00     0.263 S 
HETATM   17  O   UNL     1      47.145  36.524  78.373  1.00  0.00    -0.200 OA
HETATM   18  O   UNL     1      45.673  36.436  76.407  1.00  0.00    -0.200 OA
BRANCH  16  19
HETATM   19  C   UNL     1      47.750  37.760  76.329  1.00  0.00     0.080 A 
HETATM   20  C   UNL     1      47.868  37.543  74.939  1.00  0.00     0.035 A 
HETATM   21  C   UNL     1      48.885  38.065  74.119  1.00  0.00    -0.022 A 
HETATM   22  C   UNL     1      48.966  37.703  72.656  1.00  0.00     0.051 C 
HETATM   23  C   UNL     1      49.816  38.891  74.689  1.00  0.00     0.122 A 
HETATM   24  C   UNL     1      49.769  39.206  76.029  1.00  0.00     0.044 A 
HETATM   25  F   UNL     1      50.820  39.363  73.919  1.00  0.00    -0.206 F 
HETATM   26  C   UNL     1      48.728  38.677  76.809  1.00  0.00     0.028 A 
ENDBRANCH  16  19
ENDBRANCH  14  16
ENDBRANCH   1  14
TORSDOF 3
