REMARK  14 active torsions:
REMARK  status: ('A' for Active; 'I' for Inactive)
REMARK    1  A    between atoms: C_1  and  O_2 
REMARK    2  A    between atoms: C_1  and  C_3 
REMARK    3  A    between atoms: O_2  and  P_17 
REMARK    4  A    between atoms: C_4  and  C_6 
REMARK    5  A    between atoms: C_6  and  C_7 
REMARK    6  A    between atoms: C_7  and  C_8 
REMARK    7  A    between atoms: C_9  and  C_11 
REMARK    8  A    between atoms: C_11  and  C_12 
REMARK    9  A    between atoms: C_12  and  C_13 
REMARK   10  A    between atoms: P_17  and  O_19 
REMARK   11  A    between atoms: P_17  and  O_20 
REMARK   12  A    between atoms: O_20  and  P_21 
REMARK   13  A    between atoms: P_21  and  O_23 
REMARK   14  A    between atoms: P_21  and  O_24 
ROOT
HETATM    1  C   UNL     1       0.153   0.629   2.646  1.00  0.00     0.002 C 
HETATM    2  C   UNL     1      -0.455  -0.528   2.298  1.00  0.00    -0.085 C 
HETATM    3  C   UNL     1      -1.815  -0.538   1.640  1.00  0.00     0.043 C 
ENDROOT
BRANCH   1   4
HETATM    4  C   UNL     1      -0.432   1.990   2.389  1.00  0.00     0.208 C 
BRANCH   4   5
HETATM    5  O   UNL     1      -1.569   2.169   3.200  1.00  0.00    -0.293 OA
BRANCH   5   6
HETATM    6  P   UNL     1      -2.370   3.593   2.711  1.00  0.00     0.402 P 
HETATM    7  O   UNL     1      -2.998   3.363   1.353  1.00  0.00    -0.631 OA
BRANCH   6   8
HETATM    8  O   UNL     1      -1.265   4.877   2.631  1.00  0.00    -0.307 OA
HETATM    9  H   UNL     1      -0.863   4.819   1.728  1.00  0.00     0.222 HD
ENDBRANCH   6   8
BRANCH   6  10
HETATM   10  O   UNL     1      -3.578   3.929   3.864  1.00  0.00    -0.195 OA
BRANCH  10  11
HETATM   11  P   UNL     1      -4.351   5.374   3.404  1.00  0.00     0.399 P 
HETATM   12  O   UNL     1      -5.456   5.665   4.394  1.00  0.00    -0.631 OA
BRANCH  11  13
HETATM   13  O   UNL     1      -5.032   5.227   1.860  1.00  0.00    -0.307 OA
HETATM   14  H   UNL     1      -5.656   4.461   1.931  1.00  0.00     0.222 HD
ENDBRANCH  11  13
BRANCH  11  15
HETATM   15  O   UNL     1      -3.258   6.667   3.417  1.00  0.00    -0.307 OA
HETATM   16  H   UNL     1      -2.869   6.658   4.328  1.00  0.00     0.222 HD
ENDBRANCH  11  15
ENDBRANCH  10  11
ENDBRANCH   6  10
ENDBRANCH   5   6
ENDBRANCH   4   5
ENDBRANCH   1   4
BRANCH   2  17
HETATM   17  C   UNL     1       0.239  -1.845   2.587  1.00  0.00     0.037 C 
BRANCH  17  18
HETATM   18  C   UNL     1       1.458  -2.069   1.681  1.00  0.00     0.031 C 
BRANCH  18  19
HETATM   19  C   UNL     1       1.070  -2.220   0.229  1.00  0.00    -0.024 C 
HETATM   20  C   UNL     1       1.972  -2.388  -0.762  1.00  0.00    -0.087 C 
HETATM   21  C   UNL     1       3.455  -2.436  -0.477  1.00  0.00     0.043 C 
BRANCH  20  22
HETATM   22  C   UNL     1       1.488  -2.526  -2.188  1.00  0.00     0.037 C 
BRANCH  22  23
HETATM   23  C   UNL     1       0.920  -3.928  -2.437  1.00  0.00     0.031 C 
BRANCH  23  24
HETATM   24  C   UNL     1       0.486  -4.082  -3.874  1.00  0.00    -0.024 C 
HETATM   25  C   UNL     1       1.296  -4.491  -4.877  1.00  0.00    -0.091 C 
HETATM   26  C   UNL     1       0.732  -4.557  -6.273  1.00  0.00     0.042 C 
HETATM   27  C   UNL     1       2.732  -4.892  -4.633  1.00  0.00     0.042 C 
ENDBRANCH  23  24
ENDBRANCH  22  23
ENDBRANCH  20  22
ENDBRANCH  18  19
ENDBRANCH  17  18
ENDBRANCH   2  17
TORSDOF 14
