REMARK  6 active torsions:
REMARK  status: ('A' for Active; 'I' for Inactive)
REMARK    1  A    between atoms: C_3  and  C_4 
REMARK    2  A    between atoms: C_4  and  O_5 
REMARK    3  A    between atoms: C_9  and  S_18 
REMARK    4  A    between atoms: C_10  and  S_11 
REMARK    5  A    between atoms: S_11  and  N_13 
REMARK    6  A    between atoms: S_18  and  C_19 
ROOT
HETATM    1 CL   UNL     1     -39.020  20.767 -59.901  1.00  0.00    -0.083 Cl
HETATM    2  C   UNL     1     -40.433  20.232 -60.866  1.00  0.00     0.051 A 
HETATM    3  C   UNL     1     -40.547  18.819 -61.269  1.00  0.00     0.062 A 
HETATM    4  C   UNL     1     -41.415  21.137 -61.234  1.00  0.00     0.045 A 
HETATM    5  C   UNL     1     -42.510  20.728 -61.972  1.00  0.00     0.025 A 
HETATM    6  C   UNL     1     -42.625  19.271 -62.374  1.00  0.00     0.097 A 
HETATM    7  C   UNL     1     -41.625  18.396 -61.999  1.00  0.00     0.046 A 
ENDROOT
BRANCH   5   8
HETATM    8  S   UNL     1     -43.724  21.827 -62.446  1.00  0.00    -0.123 SA
BRANCH   8   9
HETATM    9  C   UNL     1     -44.180  23.026 -61.204  1.00  0.00     0.052 C 
HETATM   10  C   UNL     1     -44.005  24.415 -61.788  1.00  0.00     0.015 C 
HETATM   11  C   UNL     1     -44.799  25.370 -60.913  1.00  0.00     0.001 C 
HETATM   12  C   UNL     1     -44.465  25.248 -59.394  1.00  0.00     0.000 C 
HETATM   13  C   UNL     1     -44.234  23.848 -58.793  1.00  0.00     0.001 C 
HETATM   14  C   UNL     1     -43.516  22.940 -59.813  1.00  0.00     0.015 C 
ENDBRANCH   8   9
ENDBRANCH   5   8
BRANCH   6  15
HETATM   15  S   UNL     1     -43.881  18.719 -63.248  1.00  0.00     0.258 S 
HETATM   16  O   UNL     1     -45.058  18.701 -62.428  1.00  0.00    -0.201 OA
HETATM   17  O   UNL     1     -44.028  19.437 -64.479  1.00  0.00    -0.201 OA
BRANCH  15  18
HETATM   18  N   UNL     1     -43.524  17.205 -63.726  1.00  0.00    -0.324 N 
ATOM     19  HN2 UNL     1     -44.065  16.378 -63.472  1.00  0.00     0.169 HD
ATOM     20  HN1 UNL     1     -42.687  17.218 -64.309  1.00  0.00     0.169 HD
ENDBRANCH  15  18
ENDBRANCH   6  15
BRANCH   3  21
HETATM   21  C   UNL     1     -39.495  17.867 -60.859  1.00  0.00     0.294 C 
HETATM   22  O   UNL     1     -38.436  18.259 -60.442  1.00  0.00    -0.259 OA
BRANCH  21  23
HETATM   23  O   UNL     1     -39.741  16.468 -60.903  1.00  0.00    -0.322 OA
HETATM   24  C   UNL     1     -38.649  15.561 -60.956  1.00  0.00     0.213 C 
ENDBRANCH  21  23
ENDBRANCH   3  21
TORSDOF 6
