REMARK  6 active torsions:
REMARK  status: ('A' for Active; 'I' for Inactive)
REMARK    1  A    between atoms: C_3  and  C_4 
REMARK    2  A    between atoms: C_4  and  O_5 
REMARK    3  A    between atoms: C_9  and  S_16 
REMARK    4  A    between atoms: C_10  and  S_11 
REMARK    5  A    between atoms: S_11  and  N_13 
REMARK    6  A    between atoms: S_16  and  C_17 
ROOT
HETATM    1 CL   UNL     1      -0.554   1.996   3.144  1.00  0.00    -0.083 Cl
HETATM    2  C   UNL     1      -0.038   1.388   1.573  1.00  0.00     0.051 A 
HETATM    3  C   UNL     1       1.322   1.269   1.201  1.00  0.00     0.062 A 
HETATM    4  C   UNL     1      -1.041   1.058   0.658  1.00  0.00     0.045 A 
HETATM    5  C   UNL     1      -0.728   0.575  -0.617  1.00  0.00     0.025 A 
HETATM    6  C   UNL     1       0.622   0.521  -1.026  1.00  0.00     0.092 A 
HETATM    7  C   UNL     1       1.629   0.858  -0.108  1.00  0.00     0.045 A 
ENDROOT
BRANCH   5   8
HETATM    8  S   UNL     1      -2.087   0.154  -1.730  1.00  0.00    -0.123 SA
BRANCH   8   9
HETATM    9  C   UNL     1      -2.507  -1.526  -1.089  1.00  0.00     0.052 C 
HETATM   10  C   UNL     1      -1.332  -2.532  -1.139  1.00  0.00     0.015 C 
HETATM   11  C   UNL     1      -1.522  -3.732  -0.186  1.00  0.00     0.001 C 
HETATM   12  C   UNL     1      -3.003  -4.045   0.059  1.00  0.00     0.000 C 
HETATM   13  C   UNL     1      -3.748  -2.849   0.689  1.00  0.00     0.001 C 
HETATM   14  C   UNL     1      -3.143  -1.481   0.309  1.00  0.00     0.015 C 
ENDBRANCH   8   9
ENDBRANCH   5   8
BRANCH   6  15
HETATM   15  S   UNL     1       1.089   0.176  -2.703  1.00  0.00     0.240 S 
HETATM   16  O   UNL     1       0.332  -1.003  -3.243  1.00  0.00    -0.206 OA
HETATM   17  O   UNL     1       2.557  -0.138  -2.773  1.00  0.00    -0.206 OA
BRANCH  15  18
HETATM   18  N   UNL     1       0.768   1.563  -3.684  1.00  0.00    -0.225 NA
HETATM   19  H   UNL     1       1.260   2.370  -3.240  1.00  0.00     0.136 HD
HETATM   20  H   UNL     1      -0.256   1.760  -3.615  1.00  0.00     0.136 HD
ENDBRANCH  15  18
ENDBRANCH   6  15
BRANCH   3  21
HETATM   21  C   UNL     1       2.439   1.585   2.128  1.00  0.00     0.294 C 
HETATM   22  O   UNL     1       2.256   1.611   3.375  1.00  0.00    -0.259 OA
BRANCH  21  23
HETATM   23  O   UNL     1       3.717   1.828   1.610  1.00  0.00    -0.322 OA
HETATM   24  C   UNL     1       4.838   2.123   2.435  1.00  0.00     0.213 C 
ENDBRANCH  21  23
ENDBRANCH   3  21
TORSDOF 6
