MODEL 1
REMARK VINA RESULT:    -8.069      0.000      0.000
REMARK INTER + INTRA:          -8.069
REMARK INTER:                  -8.069
REMARK INTRA:                   0.000
REMARK UNBOUND:                 0.000
REMARK  0 active torsions:
REMARK  status: ('A' for Active; 'I' for Inactive)
ROOT
HETATM    1  C   UNL     1      39.864 -20.229  13.604  1.00  0.00     0.015 A 
HETATM    2  C   UNL     1      42.136 -20.213  12.661  1.00  0.00     0.127 A 
HETATM    3  C   UNL     1      43.030 -19.839  11.665  1.00  0.00     0.043 A 
HETATM    4  C   UNL     1      42.578 -19.097  10.572  1.00  0.00     0.004 A 
HETATM    5  C   UNL     1      41.239 -18.731  10.485  1.00  0.00     0.012 A 
HETATM    6  C   UNL     1      40.324 -19.115  11.508  1.00  0.00    -0.023 A 
HETATM    7  C   UNL     1      38.950 -18.743  11.431  1.00  0.00     0.012 A 
HETATM    8  C   UNL     1      38.069 -19.123  12.439  1.00  0.00     0.001 A 
HETATM    9  C   UNL     1      38.527 -19.864  13.527  1.00  0.00     0.001 A 
HETATM   10  C   UNL     1      40.766 -19.840  12.573  1.00  0.00     0.013 A 
HETATM   11  F   UNL     1      42.554 -20.938  13.737  1.00  0.00    -0.205 F 
ENDROOT
TORSDOF 0
ENDMDL
MODEL 2
REMARK VINA RESULT:    -8.007      1.654      2.568
REMARK INTER + INTRA:          -8.007
REMARK INTER:                  -8.007
REMARK INTRA:                   0.000
REMARK UNBOUND:                 0.000
REMARK  0 active torsions:
REMARK  status: ('A' for Active; 'I' for Inactive)
ROOT
HETATM    1  C   UNL     1      38.964 -18.830  11.469  1.00  0.00     0.015 A 
HETATM    2  C   UNL     1      41.218 -18.795  10.485  1.00  0.00     0.127 A 
HETATM    3  C   UNL     1      42.568 -19.118  10.543  1.00  0.00     0.043 A 
HETATM    4  C   UNL     1      43.068 -19.807  11.649  1.00  0.00     0.004 A 
HETATM    5  C   UNL     1      42.216 -20.171  12.686  1.00  0.00     0.012 A 
HETATM    6  C   UNL     1      40.831 -19.839  12.624  1.00  0.00    -0.023 A 
HETATM    7  C   UNL     1      39.948 -20.211  13.680  1.00  0.00     0.012 A 
HETATM    8  C   UNL     1      38.598 -19.883  13.605  1.00  0.00     0.001 A 
HETATM    9  C   UNL     1      38.105 -19.194  12.497  1.00  0.00     0.001 A 
HETATM   10  C   UNL     1      40.345 -19.166  11.545  1.00  0.00     0.013 A 
HETATM   11  F   UNL     1      40.706 -18.122   9.416  1.00  0.00    -0.205 F 
ENDROOT
TORSDOF 0
ENDMDL
MODEL 3
REMARK VINA RESULT:    -7.945      0.746      3.336
REMARK INTER + INTRA:          -7.945
REMARK INTER:                  -7.945
REMARK INTRA:                   0.000
REMARK UNBOUND:                 0.000
REMARK  0 active torsions:
REMARK  status: ('A' for Active; 'I' for Inactive)
ROOT
HETATM    1  C   UNL     1      42.366 -19.859  12.122  1.00  0.00     0.015 A 
HETATM    2  C   UNL     1      40.290 -20.328  13.357  1.00  0.00     0.127 A 
HETATM    3  C   UNL     1      38.905 -20.290  13.452  1.00  0.00     0.043 A 
HETATM    4  C   UNL     1      38.154 -19.738  12.412  1.00  0.00     0.004 A 
HETATM    5  C   UNL     1      38.793 -19.233  11.285  1.00  0.00     0.012 A 
HETATM    6  C   UNL     1      40.214 -19.273  11.189  1.00  0.00    -0.023 A 
HETATM    7  C   UNL     1      40.880 -18.761  10.036  1.00  0.00     0.012 A 
HETATM    8  C   UNL     1      42.268 -18.809   9.956  1.00  0.00     0.001 A 
HETATM    9  C   UNL     1      43.011 -19.362  10.998  1.00  0.00     0.001 A 
HETATM   10  C   UNL     1      40.945 -19.811  12.205  1.00  0.00     0.013 A 
HETATM   11  F   UNL     1      41.044 -20.861  14.359  1.00  0.00    -0.205 F 
ENDROOT
TORSDOF 0
ENDMDL
MODEL 4
REMARK VINA RESULT:    -7.893      1.840      4.156
REMARK INTER + INTRA:          -7.893
REMARK INTER:                  -7.893
REMARK INTRA:                   0.000
REMARK UNBOUND:                 0.000
REMARK  0 active torsions:
REMARK  status: ('A' for Active; 'I' for Inactive)
ROOT
HETATM    1  C   UNL     1      40.716 -18.732  10.303  1.00  0.00     0.015 A 
HETATM    2  C   UNL     1      38.883 -19.273  11.852  1.00  0.00     0.127 A 
HETATM    3  C   UNL     1      38.431 -19.820  13.046  1.00  0.00     0.043 A 
HETATM    4  C   UNL     1      39.341 -20.402  13.930  1.00  0.00     0.004 A 
HETATM    5  C   UNL     1      40.696 -20.429  13.617  1.00  0.00     0.012 A 
HETATM    6  C   UNL     1      41.158 -19.867  12.391  1.00  0.00    -0.023 A 
HETATM    7  C   UNL     1      42.545 -19.885  12.061  1.00  0.00     0.012 A 
HETATM    8  C   UNL     1      42.982 -19.330  10.862  1.00  0.00     0.001 A 
HETATM    9  C   UNL     1      42.068 -18.750   9.984  1.00  0.00     0.001 A 
HETATM   10  C   UNL     1      40.269 -19.300  11.529  1.00  0.00     0.013 A 
HETATM   11  F   UNL     1      38.014 -18.699  10.973  1.00  0.00    -0.205 F 
ENDROOT
TORSDOF 0
ENDMDL
MODEL 5
REMARK VINA RESULT:    -7.566      1.797      4.047
REMARK INTER + INTRA:          -7.566
REMARK INTER:                  -7.566
REMARK INTRA:                   0.000
REMARK UNBOUND:                 0.000
REMARK  0 active torsions:
REMARK  status: ('A' for Active; 'I' for Inactive)
ROOT
HETATM    1  C   UNL     1      42.061 -19.253  11.383  1.00  0.00     0.015 A 
HETATM    2  C   UNL     1      39.676 -18.749  11.047  1.00  0.00     0.127 A 
HETATM    3  C   UNL     1      38.350 -18.859  11.444  1.00  0.00     0.043 A 
HETATM    4  C   UNL     1      38.027 -19.595  12.585  1.00  0.00     0.004 A 
HETATM    5  C   UNL     1      39.032 -20.210  13.324  1.00  0.00     0.012 A 
HETATM    6  C   UNL     1      40.393 -20.095  12.916  1.00  0.00    -0.023 A 
HETATM    7  C   UNL     1      41.432 -20.719  13.668  1.00  0.00     0.012 A 
HETATM    8  C   UNL     1      42.756 -20.596  13.259  1.00  0.00     0.001 A 
HETATM    9  C   UNL     1      43.071 -19.859  12.117  1.00  0.00     0.001 A 
HETATM   10  C   UNL     1      40.706 -19.378  11.801  1.00  0.00     0.013 A 
HETATM   11  F   UNL     1      40.016 -18.037   9.936  1.00  0.00    -0.205 F 
ENDROOT
TORSDOF 0
ENDMDL
MODEL 6
REMARK VINA RESULT:    -7.547      1.351      3.428
REMARK INTER + INTRA:          -7.547
REMARK INTER:                  -7.547
REMARK INTRA:                   0.000
REMARK UNBOUND:                 0.000
REMARK  0 active torsions:
REMARK  status: ('A' for Active; 'I' for Inactive)
ROOT
HETATM    1  C   UNL     1      41.483 -20.712  13.622  1.00  0.00     0.015 A 
HETATM    2  C   UNL     1      39.115 -20.103  13.346  1.00  0.00     0.127 A 
HETATM    3  C   UNL     1      38.106 -19.463  12.638  1.00  0.00     0.043 A 
HETATM    4  C   UNL     1      38.416 -18.760  11.473  1.00  0.00     0.004 A 
HETATM    5  C   UNL     1      39.730 -18.707  11.021  1.00  0.00     0.012 A 
HETATM    6  C   UNL     1      40.764 -19.364  11.748  1.00  0.00    -0.023 A 
HETATM    7  C   UNL     1      42.115 -19.319  11.293  1.00  0.00     0.012 A 
HETATM    8  C   UNL     1      43.113 -19.968  12.012  1.00  0.00     0.001 A 
HETATM    9  C   UNL     1      42.797 -20.668  13.176  1.00  0.00     0.001 A 
HETATM   10  C   UNL     1      40.460 -20.048  12.887  1.00  0.00     0.013 A 
HETATM   11  F   UNL     1      38.838 -20.794  14.488  1.00  0.00    -0.205 F 
ENDROOT
TORSDOF 0
ENDMDL
MODEL 7
REMARK VINA RESULT:    -7.184      1.232      2.235
REMARK INTER + INTRA:          -7.184
REMARK INTER:                  -7.184
REMARK INTRA:                   0.000
REMARK UNBOUND:                 0.000
REMARK  0 active torsions:
REMARK  status: ('A' for Active; 'I' for Inactive)
ROOT
HETATM    1  C   UNL     1      39.227 -19.291  12.105  1.00  0.00     0.015 A 
HETATM    2  C   UNL     1      40.965 -20.425  13.427  1.00  0.00     0.127 A 
HETATM    3  C   UNL     1      42.291 -20.791  13.620  1.00  0.00     0.043 A 
HETATM    4  C   UNL     1      43.258 -20.409  12.688  1.00  0.00     0.004 A 
HETATM    5  C   UNL     1      42.893 -19.661  11.574  1.00  0.00     0.012 A 
HETATM    6  C   UNL     1      41.532 -19.286  11.377  1.00  0.00    -0.023 A 
HETATM    7  C   UNL     1      41.147 -18.517  10.240  1.00  0.00     0.012 A 
HETATM    8  C   UNL     1      39.815 -18.156  10.063  1.00  0.00     0.001 A 
HETATM    9  C   UNL     1      38.855 -18.541  10.998  1.00  0.00     0.001 A 
HETATM   10  C   UNL     1      40.590 -19.661  12.287  1.00  0.00     0.013 A 
HETATM   11  F   UNL     1      40.003 -20.786  14.323  1.00  0.00    -0.205 F 
ENDROOT
TORSDOF 0
ENDMDL
MODEL 8
REMARK VINA RESULT:    -7.113      1.116      3.064
REMARK INTER + INTRA:          -7.113
REMARK INTER:                  -7.113
REMARK INTRA:                   0.000
REMARK UNBOUND:                 0.000
REMARK  0 active torsions:
REMARK  status: ('A' for Active; 'I' for Inactive)
ROOT
HETATM    1  C   UNL     1      42.623 -19.238  10.752  1.00  0.00     0.015 A 
HETATM    2  C   UNL     1      42.490 -20.364  12.935  1.00  0.00     0.127 A 
HETATM    3  C   UNL     1      41.746 -20.835  14.010  1.00  0.00     0.043 A 
HETATM    4  C   UNL     1      40.361 -20.662  14.021  1.00  0.00     0.004 A 
HETATM    5  C   UNL     1      39.729 -20.025  12.958  1.00  0.00     0.012 A 
HETATM    6  C   UNL     1      40.495 -19.543  11.856  1.00  0.00    -0.023 A 
HETATM    7  C   UNL     1      39.858 -18.892  10.759  1.00  0.00     0.012 A 
HETATM    8  C   UNL     1      40.618 -18.430   9.689  1.00  0.00     0.001 A 
HETATM    9  C   UNL     1      42.001 -18.606   9.684  1.00  0.00     0.001 A 
HETATM   10  C   UNL     1      41.847 -19.712  11.847  1.00  0.00     0.013 A 
HETATM   11  F   UNL     1      43.843 -20.521  12.901  1.00  0.00    -0.205 F 
ENDROOT
TORSDOF 0
ENDMDL
MODEL 9
REMARK VINA RESULT:    -6.727      1.484      2.719
REMARK INTER + INTRA:          -6.727
REMARK INTER:                  -6.727
REMARK INTRA:                   0.000
REMARK UNBOUND:                 0.000
REMARK  0 active torsions:
REMARK  status: ('A' for Active; 'I' for Inactive)
ROOT
HETATM    1  C   UNL     1      42.411 -20.275  12.744  1.00  0.00     0.015 A 
HETATM    2  C   UNL     1      42.055 -19.063  10.633  1.00  0.00     0.127 A 
HETATM    3  C   UNL     1      41.209 -18.439   9.725  1.00  0.00     0.043 A 
HETATM    4  C   UNL     1      39.838 -18.384   9.981  1.00  0.00     0.004 A 
HETATM    5  C   UNL     1      39.323 -18.948  11.143  1.00  0.00     0.012 A 
HETATM    6  C   UNL     1      40.193 -19.587  12.074  1.00  0.00    -0.023 A 
HETATM    7  C   UNL     1      39.676 -20.166  13.271  1.00  0.00     0.012 A 
HETATM    8  C   UNL     1      40.538 -20.784  14.171  1.00  0.00     0.001 A 
HETATM    9  C   UNL     1      41.906 -20.836  13.910  1.00  0.00     0.001 A 
HETATM   10  C   UNL     1      41.531 -19.641  11.822  1.00  0.00     0.013 A 
HETATM   11  F   UNL     1      43.397 -19.130  10.406  1.00  0.00    -0.205 F 
ENDROOT
TORSDOF 0
ENDMDL
MODEL 10
REMARK VINA RESULT:    -5.119      8.850      9.787
REMARK INTER + INTRA:          -5.119
REMARK INTER:                  -5.119
REMARK INTRA:                   0.000
REMARK UNBOUND:                 0.000
REMARK  0 active torsions:
REMARK  status: ('A' for Active; 'I' for Inactive)
ROOT
HETATM    1  C   UNL     1      39.545 -11.857  12.118  1.00  0.00     0.015 A 
HETATM    2  C   UNL     1      38.547 -11.379   9.921  1.00  0.00     0.127 A 
HETATM    3  C   UNL     1      38.077 -10.474   8.977  1.00  0.00     0.043 A 
HETATM    4  C   UNL     1      38.112  -9.106   9.253  1.00  0.00     0.004 A 
HETATM    5  C   UNL     1      38.619  -8.652  10.466  1.00  0.00     0.012 A 
HETATM    6  C   UNL     1      39.101  -9.582  11.433  1.00  0.00    -0.023 A 
HETATM    7  C   UNL     1      39.626  -9.128  12.678  1.00  0.00     0.012 A 
HETATM    8  C   UNL     1      40.095 -10.048  13.611  1.00  0.00     0.001 A 
HETATM    9  C   UNL     1      40.058 -11.413  13.330  1.00  0.00     0.001 A 
HETATM   10  C   UNL     1      39.065 -10.917  11.163  1.00  0.00     0.013 A 
HETATM   11  F   UNL     1      38.523 -12.719   9.676  1.00  0.00    -0.205 F 
ENDROOT
TORSDOF 0
ENDMDL
