REMARK  5 active torsions:
REMARK  status: ('A' for Active; 'I' for Inactive)
REMARK    1  A    between atoms: C_2  and  O_24 
REMARK    2  A    between atoms: C_3  and  O_26 
REMARK    3  A    between atoms: N_4  and  C_11 
REMARK       I    between atoms: N_4  and  C_9 
REMARK    4  A    between atoms: N_13  and  C_15 
REMARK    5  A    between atoms: C_15  and  C_16 
ROOT
HETATM    1  C   UNL     1      -2.876  81.422  68.989  1.00  0.00     0.127 C 
HETATM    2  C   UNL     1      -2.640  80.179  69.835  1.00  0.00     0.172 C 
HETATM    3  C   UNL     1      -3.890  79.300  69.790  1.00  0.00     0.173 C 
HETATM    4  N   UNL     1      -3.019  80.889  67.642  1.00  0.00    -0.352 N 
HETATM    5  C   UNL     1      -4.230  80.149  67.389  1.00  0.00     0.153 C 
HETATM    6  C   UNL     1      -4.304  78.960  68.349  1.00  0.00     0.133 C 
HETATM    7  C   UNL     1      -1.927  80.878  66.891  1.00  0.00     0.139 C 
HETATM    8  N   UNL     1      -1.829  80.103  65.817  1.00  0.00    -0.367 N 
ATOM      9  HN  UNL     1      -2.599  79.499  65.528  1.00  0.00     0.161 HD
HETATM   10  S   UNL     1      -0.659  81.842  67.568  1.00  0.00    -0.092 SA
HETATM   11  C   UNL     1      -1.751  82.453  68.871  1.00  0.00     0.110 C 
ENDROOT
BRANCH   8  12
HETATM   12  C   UNL     1      -0.574  80.147  65.062  1.00  0.00     0.160 C 
BRANCH  12  13
HETATM   13  C   UNL     1      -0.799  80.266  63.564  1.00  0.00    -0.041 A 
HETATM   14  C   UNL     1      -2.067  80.303  63.003  1.00  0.00     0.009 A 
HETATM   15  C   UNL     1      -2.233  80.423  61.623  1.00  0.00     0.001 A 
HETATM   16  C   UNL     1      -1.132  80.436  60.813  1.00  0.00     0.000 A 
HETATM   17  C   UNL     1       0.129  80.408  61.352  1.00  0.00     0.001 A 
HETATM   18  C   UNL     1       0.301  80.340  62.732  1.00  0.00     0.009 A 
ENDBRANCH  12  13
ENDBRANCH   8  12
BRANCH   6  19
HETATM   19  N   UNL     1      -5.641  78.380  68.389  1.00  0.00    -0.353 N 
HETATM   20  C   UNL     1      -6.760  79.074  68.670  1.00  0.00     0.214 C 
HETATM   21  O   UNL     1      -6.755  80.293  68.905  1.00  0.00    -0.274 OA
HETATM   22  C   UNL     1      -8.051  78.323  68.543  1.00  0.00     0.117 C 
ATOM     23  HN  UNL     1      -5.735  77.384  68.191  1.00  0.00     0.163 HD
ENDBRANCH   6  19
BRANCH   2  24
HETATM   24  O   UNL     1      -2.350  80.547  71.192  1.00  0.00    -0.391 OA
ATOM     25  HO  UNL     1      -1.573  81.093  71.220  1.00  0.00     0.210 HD
ENDBRANCH   2  24
BRANCH   3  26
HETATM   26  O   UNL     1      -3.650  78.050  70.440  1.00  0.00    -0.391 OA
ATOM     27  HO  UNL     1      -3.394  78.260  71.330  1.00  0.00     0.210 HD
ENDBRANCH   3  26
TORSDOF 5
