REMARK  4 active torsions:
REMARK  status: ('A' for Active; 'I' for Inactive)
REMARK    1  A    between atoms: C_3  and  O_4 
REMARK    2  A    between atoms: C_11  and  C_12 
REMARK    3  A    between atoms: C_12  and  O_13 
REMARK    4  A    between atoms: O_13  and  P_14 
ROOT
HETATM    1  C   UNK A   0       5.077  -2.674  19.276  1.00  0.00     0.052 C 
HETATM    2  C   UNK A   0       5.670  -3.820  20.094  1.00  0.00    -0.017 A 
HETATM    3  C   UNK A   0       4.920  -4.915  20.370  1.00  0.00     0.094 A 
HETATM    4  C   UNK A   0       5.457  -5.953  21.111  1.00  0.00     0.039 A 
HETATM    5  C   UNK A   0       4.612  -7.187  21.422  1.00  0.00     0.071 C 
HETATM    6  N   UNK A   0       6.730  -5.876  21.560  1.00  0.00    -0.367 N 
ATOM      7  HN  UNK A   0       7.125  -6.642  22.106  1.00  0.00     0.165 HD
HETATM    8  C   UNK A   0       7.481  -4.784  21.286  1.00  0.00     0.098 A 
HETATM    9  C   UNK A   0       6.946  -3.743  20.544  1.00  0.00    -0.010 A 
ENDROOT
BRANCH   9  10
HETATM   10  C   UNK A   0       7.795  -2.510  20.234  1.00  0.00     0.223 C 
BRANCH  10  11
HETATM   11  O   UNK A   0       7.320  -1.420  20.970  1.00  0.00    -0.278 OA
BRANCH  11  12
HETATM   12  P   UNK A   0       8.209  -0.894  22.256  1.00  0.00     0.422 P 
HETATM   13  O   UNK A   0       7.654   0.423  22.745  1.00  0.00    -0.617 OA
HETATM   14  O   UNK A   0       8.138  -1.912  23.368  1.00  0.00    -0.617 OA
HETATM   15  O   UNK A   0       9.647  -0.708  21.833  1.00  0.00    -0.617 OA
ENDBRANCH  11  12
ENDBRANCH  10  11
ENDBRANCH   9  10
BRANCH   3  16
HETATM   16  O   UNK A   0       3.600  -4.997  19.905  1.00  0.00    -0.358 OA
ATOM     17  HO  UNK A   0       3.074  -5.764  20.098  1.00  0.00     0.217 HD
ENDBRANCH   3  16
TORSDOF 4
