MODEL 1
REMARK VINA RESULT:    -7.867      0.000      0.000
REMARK INTER + INTRA:         -12.598
REMARK INTER:                 -11.776
REMARK INTRA:                  -0.822
REMARK UNBOUND:                -0.822
REMARK  9 active torsions:
REMARK  status: ('A' for Active; 'I' for Inactive)
REMARK    1  A    between atoms: C_1  and  N_11 
REMARK    2  A    between atoms: C_4  and  O_22 
REMARK    3  A    between atoms: C_6  and  C_8 
REMARK    4  A    between atoms: C_8  and  O_28 
REMARK    5  A    between atoms: O_24  and  P_29 
REMARK    6  A    between atoms: O_24  and  P_30 
REMARK    7  A    between atoms: O_25  and  P_31 
REMARK    8  A    between atoms: O_25  and  P_30 
REMARK    9  A    between atoms: O_28  and  P_29 
ROOT
HETATM    1  C   UNL     1     -15.655  -3.014  20.906  1.00  0.00     0.269 C 
HETATM    2  C   UNL     1     -15.097  -3.766  19.651  1.00  0.00     0.250 C 
HETATM    3  C   UNL     1     -14.405  -2.641  18.898  1.00  0.00     0.187 C 
HETATM    4  C   UNL     1     -14.803  -1.473  19.461  1.00  0.00     0.180 C 
HETATM    5  F   UNL     1     -14.246  -4.713  20.058  1.00  0.00    -0.242 F 
HETATM    6  O   UNL     1     -15.993  -1.856  20.451  1.00  0.00    -0.353 OA
ENDROOT
BRANCH   4   7
HETATM    7  C   UNL     1     -15.323  -0.437  18.494  1.00  0.00     0.216 C 
BRANCH   7   8
HETATM    8  O   UNL     1     -14.508  -0.461  17.372  1.00  0.00    -0.287 OA
BRANCH   8   9
HETATM    9  P   UNL     1     -14.398   0.854  16.387  1.00  0.00     0.417 P 
HETATM   10  O   UNL     1     -15.065   2.048  17.029  1.00  0.00    -0.624 OA
HETATM   11  O   UNL     1     -12.969   1.153  16.036  1.00  0.00    -0.624 OA
BRANCH   9  12
HETATM   12  O   UNL     1     -15.102   0.522  14.929  1.00  0.00    -0.180 OA
BRANCH  12  13
HETATM   13  P   UNL     1     -16.488   1.203  14.385  1.00  0.00     0.428 P 
HETATM   14  O   UNL     1     -16.835   0.516  13.094  1.00  0.00    -0.624 OA
HETATM   15  O   UNL     1     -17.607   1.108  15.408  1.00  0.00    -0.624 OA
BRANCH  13  16
HETATM   16  O   UNL     1     -16.224   2.790  14.133  1.00  0.00    -0.173 OA
BRANCH  16  17
HETATM   17  P   UNL     1     -17.234   3.816  13.365  1.00  0.00     0.431 P 
HETATM   18  O   UNL     1     -16.556   5.169  13.458  1.00  0.00    -0.616 OA
HETATM   19  O   UNL     1     -17.400   3.427  11.915  1.00  0.00    -0.616 OA
HETATM   20  O   UNL     1     -18.558   3.831  14.097  1.00  0.00    -0.616 OA
ENDBRANCH  16  17
ENDBRANCH  13  16
ENDBRANCH  12  13
ENDBRANCH   9  12
ENDBRANCH   8   9
ENDBRANCH   7   8
ENDBRANCH   4   7
BRANCH   3  21
HETATM   21  O   UNL     1     -12.920  -2.766  19.054  1.00  0.00    -0.390 OA
ATOM     22  HO  UNL     1     -12.717  -3.163  19.892  1.00  0.00     0.210 HD
ENDBRANCH   3  21
BRANCH   1  23
HETATM   23  N   UNL     1     -16.870  -3.601  21.551  1.00  0.00    -0.279 N 
HETATM   24  C   UNL     1     -18.088  -3.148  21.227  1.00  0.00     0.102 A 
HETATM   25  C   UNL     1     -19.206  -3.679  21.877  1.00  0.00     0.062 A 
HETATM   26  C   UNL     1     -19.008  -4.650  22.853  1.00  0.00     0.121 A 
HETATM   27  N   UNL     1     -20.133  -5.232  23.565  1.00  0.00    -0.083 NA
HETATM   28  N   UNL     1     -17.770  -5.046  23.140  1.00  0.00    -0.297 N 
HETATM   29  C   UNL     1     -16.730  -4.521  22.503  1.00  0.00     0.329 A 
ATOM     30  HN  UNL     1     -17.619  -5.758  23.855  1.00  0.00     0.171 HD
HETATM   31  O   UNL     1     -15.639  -4.910  22.792  1.00  0.00    -0.246 OA
ENDBRANCH   1  23
TORSDOF 9
ENDMDL
MODEL 2
REMARK VINA RESULT:    -7.846      0.722      1.383
REMARK INTER + INTRA:         -12.566
REMARK INTER:                 -11.650
REMARK INTRA:                  -0.916
REMARK UNBOUND:                -0.822
REMARK  9 active torsions:
REMARK  status: ('A' for Active; 'I' for Inactive)
REMARK    1  A    between atoms: C_1  and  N_11 
REMARK    2  A    between atoms: C_4  and  O_22 
REMARK    3  A    between atoms: C_6  and  C_8 
REMARK    4  A    between atoms: C_8  and  O_28 
REMARK    5  A    between atoms: O_24  and  P_29 
REMARK    6  A    between atoms: O_24  and  P_30 
REMARK    7  A    between atoms: O_25  and  P_31 
REMARK    8  A    between atoms: O_25  and  P_30 
REMARK    9  A    between atoms: O_28  and  P_29 
ROOT
HETATM    1  C   UNL     1     -15.835  -3.016  20.830  1.00  0.00     0.269 C 
HETATM    2  C   UNL     1     -15.265  -3.799  19.599  1.00  0.00     0.250 C 
HETATM    3  C   UNL     1     -14.633  -2.680  18.787  1.00  0.00     0.187 C 
HETATM    4  C   UNL     1     -15.070  -1.506  19.306  1.00  0.00     0.180 C 
HETATM    5  F   UNL     1     -14.369  -4.691  20.032  1.00  0.00    -0.242 F 
HETATM    6  O   UNL     1     -16.228  -1.894  20.332  1.00  0.00    -0.353 OA
ENDROOT
BRANCH   4   7
HETATM    7  C   UNL     1     -15.647  -0.535  18.304  1.00  0.00     0.216 C 
BRANCH   7   8
HETATM    8  O   UNL     1     -14.615   0.279  17.864  1.00  0.00    -0.287 OA
BRANCH   8   9
HETATM    9  P   UNL     1     -14.057   0.166  16.319  1.00  0.00     0.417 P 
HETATM   10  O   UNL     1     -13.120   1.310  16.014  1.00  0.00    -0.624 OA
HETATM   11  O   UNL     1     -13.397  -1.159  16.073  1.00  0.00    -0.624 OA
BRANCH   9  12
HETATM   12  O   UNL     1     -15.330   0.174  15.263  1.00  0.00    -0.180 OA
BRANCH  12  13
HETATM   13  P   UNL     1     -16.375   1.419  15.070  1.00  0.00     0.428 P 
HETATM   14  O   UNL     1     -17.676   0.997  15.693  1.00  0.00    -0.624 OA
HETATM   15  O   UNL     1     -15.840   2.708  15.667  1.00  0.00    -0.624 OA
BRANCH  13  16
HETATM   16  O   UNL     1     -16.570   1.691  13.476  1.00  0.00    -0.173 OA
BRANCH  16  17
HETATM   17  P   UNL     1     -17.275   3.005  12.811  1.00  0.00     0.431 P 
HETATM   18  O   UNL     1     -18.006   2.476  11.592  1.00  0.00    -0.616 OA
HETATM   19  O   UNL     1     -18.263   3.629  13.767  1.00  0.00    -0.616 OA
HETATM   20  O   UNL     1     -16.195   3.981  12.404  1.00  0.00    -0.616 OA
ENDBRANCH  16  17
ENDBRANCH  13  16
ENDBRANCH  12  13
ENDBRANCH   9  12
ENDBRANCH   8   9
ENDBRANCH   7   8
ENDBRANCH   4   7
BRANCH   3  21
HETATM   21  O   UNL     1     -13.141  -2.737  18.923  1.00  0.00    -0.390 OA
ATOM     22  HO  UNL     1     -12.836  -3.619  18.744  1.00  0.00     0.210 HD
ENDBRANCH   3  21
BRANCH   1  23
HETATM   23  N   UNL     1     -17.015  -3.623  21.520  1.00  0.00    -0.279 N 
HETATM   24  C   UNL     1     -18.250  -3.180  21.255  1.00  0.00     0.102 A 
HETATM   25  C   UNL     1     -19.333  -3.730  21.947  1.00  0.00     0.062 A 
HETATM   26  C   UNL     1     -19.083  -4.710  22.902  1.00  0.00     0.121 A 
HETATM   27  N   UNL     1     -20.169  -5.313  23.655  1.00  0.00    -0.083 NA
HETATM   28  N   UNL     1     -17.829  -5.096  23.130  1.00  0.00    -0.297 N 
HETATM   29  C   UNL     1     -16.824  -4.553  22.454  1.00  0.00     0.329 A 
ATOM     30  HN  UNL     1     -17.640  -5.815  23.829  1.00  0.00     0.171 HD
HETATM   31  O   UNL     1     -15.717  -4.933  22.691  1.00  0.00    -0.246 OA
ENDBRANCH   1  23
TORSDOF 9
ENDMDL
MODEL 3
REMARK VINA RESULT:    -7.538      1.805      2.435
REMARK INTER + INTRA:         -12.106
REMARK INTER:                 -11.138
REMARK INTRA:                  -0.968
REMARK UNBOUND:                -0.822
REMARK  9 active torsions:
REMARK  status: ('A' for Active; 'I' for Inactive)
REMARK    1  A    between atoms: C_1  and  N_11 
REMARK    2  A    between atoms: C_4  and  O_22 
REMARK    3  A    between atoms: C_6  and  C_8 
REMARK    4  A    between atoms: C_8  and  O_28 
REMARK    5  A    between atoms: O_24  and  P_29 
REMARK    6  A    between atoms: O_24  and  P_30 
REMARK    7  A    between atoms: O_25  and  P_31 
REMARK    8  A    between atoms: O_25  and  P_30 
REMARK    9  A    between atoms: O_28  and  P_29 
ROOT
HETATM    1  C   UNL     1     -14.683  -1.358  21.121  1.00  0.00     0.269 C 
HETATM    2  C   UNL     1     -13.240  -1.471  20.522  1.00  0.00     0.250 C 
HETATM    3  C   UNL     1     -13.103  -0.143  19.796  1.00  0.00     0.187 C 
HETATM    4  C   UNL     1     -14.337   0.415  19.735  1.00  0.00     0.180 C 
HETATM    5  F   UNL     1     -12.366  -1.605  21.524  1.00  0.00    -0.242 F 
HETATM    6  O   UNL     1     -15.347  -0.720  20.220  1.00  0.00    -0.353 OA
ENDROOT
BRANCH   4   7
HETATM    7  C   UNL     1     -14.772   0.865  18.361  1.00  0.00     0.216 C 
BRANCH   7   8
HETATM    8  O   UNL     1     -14.614  -0.206  17.496  1.00  0.00    -0.287 OA
BRANCH   8   9
HETATM    9  P   UNL     1     -13.924   0.006  16.016  1.00  0.00     0.417 P 
HETATM   10  O   UNL     1     -13.015   1.212  16.028  1.00  0.00    -0.624 OA
HETATM   11  O   UNL     1     -13.189  -1.226  15.576  1.00  0.00    -0.624 OA
BRANCH   9  12
HETATM   12  O   UNL     1     -15.102   0.192  14.871  1.00  0.00    -0.180 OA
BRANCH  12  13
HETATM   13  P   UNL     1     -16.277   1.331  14.916  1.00  0.00     0.428 P 
HETATM   14  O   UNL     1     -17.373   0.794  15.793  1.00  0.00    -0.624 OA
HETATM   15  O   UNL     1     -15.752   2.670  15.403  1.00  0.00    -0.624 OA
BRANCH  13  16
HETATM   16  O   UNL     1     -16.826   1.572  13.402  1.00  0.00    -0.173 OA
BRANCH  16  17
HETATM   17  P   UNL     1     -17.340   2.994  12.787  1.00  0.00     0.431 P 
HETATM   18  O   UNL     1     -18.114   2.618  11.539  1.00  0.00    -0.616 OA
HETATM   19  O   UNL     1     -18.252   3.705  13.759  1.00  0.00    -0.616 OA
HETATM   20  O   UNL     1     -16.133   3.834  12.434  1.00  0.00    -0.616 OA
ENDBRANCH  16  17
ENDBRANCH  13  16
ENDBRANCH  12  13
ENDBRANCH   9  12
ENDBRANCH   8   9
ENDBRANCH   7   8
ENDBRANCH   4   7
BRANCH   3  21
HETATM   21  O   UNL     1     -12.203   0.768  20.575  1.00  0.00    -0.390 OA
ATOM     22  HO  UNL     1     -11.396   0.910  20.095  1.00  0.00     0.210 HD
ENDBRANCH   3  21
BRANCH   1  23
HETATM   23  N   UNL     1     -15.407  -2.644  21.367  1.00  0.00    -0.279 N 
HETATM   24  C   UNL     1     -15.262  -3.670  20.519  1.00  0.00     0.102 A 
HETATM   25  C   UNL     1     -15.985  -4.845  20.743  1.00  0.00     0.062 A 
HETATM   26  C   UNL     1     -16.846  -4.898  21.834  1.00  0.00     0.121 A 
HETATM   27  N   UNL     1     -17.627  -6.091  22.112  1.00  0.00    -0.083 NA
HETATM   28  N   UNL     1     -16.958  -3.837  22.631  1.00  0.00    -0.297 N 
HETATM   29  C   UNL     1     -16.255  -2.737  22.389  1.00  0.00     0.329 A 
ATOM     30  HN  UNL     1     -17.588  -3.870  23.433  1.00  0.00     0.171 HD
HETATM   31  O   UNL     1     -16.386  -1.812  23.133  1.00  0.00    -0.246 OA
ENDBRANCH   1  23
TORSDOF 9
ENDMDL
MODEL 4
REMARK VINA RESULT:    -7.470      1.353      2.062
REMARK INTER + INTRA:         -12.003
REMARK INTER:                 -10.899
REMARK INTRA:                  -1.105
REMARK UNBOUND:                -0.822
REMARK  9 active torsions:
REMARK  status: ('A' for Active; 'I' for Inactive)
REMARK    1  A    between atoms: C_1  and  N_11 
REMARK    2  A    between atoms: C_4  and  O_22 
REMARK    3  A    between atoms: C_6  and  C_8 
REMARK    4  A    between atoms: C_8  and  O_28 
REMARK    5  A    between atoms: O_24  and  P_29 
REMARK    6  A    between atoms: O_24  and  P_30 
REMARK    7  A    between atoms: O_25  and  P_31 
REMARK    8  A    between atoms: O_25  and  P_30 
REMARK    9  A    between atoms: O_28  and  P_29 
ROOT
HETATM    1  C   UNL     1     -15.637  -2.965  20.858  1.00  0.00     0.269 C 
HETATM    2  C   UNL     1     -15.296  -3.464  19.413  1.00  0.00     0.250 C 
HETATM    3  C   UNL     1     -14.535  -2.276  18.848  1.00  0.00     0.187 C 
HETATM    4  C   UNL     1     -14.725  -1.233  19.693  1.00  0.00     0.180 C 
HETATM    5  F   UNL     1     -14.542  -4.564  19.503  1.00  0.00    -0.242 F 
HETATM    6  O   UNL     1     -15.861  -1.705  20.709  1.00  0.00    -0.353 OA
ENDROOT
BRANCH   4   7
HETATM    7  C   UNL     1     -15.190   0.047  19.042  1.00  0.00     0.216 C 
BRANCH   7   8
HETATM    8  O   UNL     1     -15.821  -0.288  17.855  1.00  0.00    -0.287 OA
BRANCH   8   9
HETATM    9  P   UNL     1     -17.427   0.010  17.644  1.00  0.00     0.417 P 
HETATM   10  O   UNL     1     -18.229  -1.248  17.874  1.00  0.00    -0.624 OA
HETATM   11  O   UNL     1     -17.895   1.125  18.533  1.00  0.00    -0.624 OA
BRANCH   9  12
HETATM   12  O   UNL     1     -17.694   0.585  16.117  1.00  0.00    -0.180 OA
BRANCH  12  13
HETATM   13  P   UNL     1     -17.303   2.090  15.604  1.00  0.00     0.428 P 
HETATM   14  O   UNL     1     -18.320   3.029  16.190  1.00  0.00    -0.624 OA
HETATM   15  O   UNL     1     -15.882   2.469  15.983  1.00  0.00    -0.624 OA
BRANCH  13  16
HETATM   16  O   UNL     1     -17.372   2.118  13.978  1.00  0.00    -0.173 OA
BRANCH  16  17
HETATM   17  P   UNL     1     -17.997   3.322  13.069  1.00  0.00     0.431 P 
HETATM   18  O   UNL     1     -17.750   2.894  11.636  1.00  0.00    -0.616 OA
HETATM   19  O   UNL     1     -19.481   3.467  13.310  1.00  0.00    -0.616 OA
HETATM   20  O   UNL     1     -17.251   4.601  13.380  1.00  0.00    -0.616 OA
ENDBRANCH  16  17
ENDBRANCH  13  16
ENDBRANCH  12  13
ENDBRANCH   9  12
ENDBRANCH   8   9
ENDBRANCH   7   8
ENDBRANCH   4   7
BRANCH   3  21
HETATM   21  O   UNL     1     -13.070  -2.591  18.798  1.00  0.00    -0.390 OA
ATOM     22  HO  UNL     1     -12.761  -2.537  17.902  1.00  0.00     0.210 HD
ENDBRANCH   3  21
BRANCH   1  23
HETATM   23  N   UNL     1     -16.855  -3.552  21.497  1.00  0.00    -0.279 N 
HETATM   24  C   UNL     1     -18.068  -3.073  21.196  1.00  0.00     0.102 A 
HETATM   25  C   UNL     1     -19.189  -3.605  21.841  1.00  0.00     0.062 A 
HETATM   26  C   UNL     1     -18.998  -4.605  22.789  1.00  0.00     0.121 A 
HETATM   27  N   UNL     1     -20.125  -5.190  23.495  1.00  0.00    -0.083 NA
HETATM   28  N   UNL     1     -17.763  -5.027  23.055  1.00  0.00    -0.297 N 
HETATM   29  C   UNL     1     -16.721  -4.500  22.423  1.00  0.00     0.329 A 
ATOM     30  HN  UNL     1     -17.616  -5.760  23.749  1.00  0.00     0.171 HD
HETATM   31  O   UNL     1     -15.633  -4.912  22.692  1.00  0.00    -0.246 OA
ENDBRANCH   1  23
TORSDOF 9
ENDMDL
MODEL 5
REMARK VINA RESULT:    -7.308      1.475      2.106
REMARK INTER + INTRA:         -11.761
REMARK INTER:                 -10.745
REMARK INTRA:                  -1.016
REMARK UNBOUND:                -0.822
REMARK  9 active torsions:
REMARK  status: ('A' for Active; 'I' for Inactive)
REMARK    1  A    between atoms: C_1  and  N_11 
REMARK    2  A    between atoms: C_4  and  O_22 
REMARK    3  A    between atoms: C_6  and  C_8 
REMARK    4  A    between atoms: C_8  and  O_28 
REMARK    5  A    between atoms: O_24  and  P_29 
REMARK    6  A    between atoms: O_24  and  P_30 
REMARK    7  A    between atoms: O_25  and  P_31 
REMARK    8  A    between atoms: O_25  and  P_30 
REMARK    9  A    between atoms: O_28  and  P_29 
ROOT
HETATM    1  C   UNL     1     -16.158  -3.122  20.121  1.00  0.00     0.269 C 
HETATM    2  C   UNL     1     -16.380  -3.429  18.601  1.00  0.00     0.250 C 
HETATM    3  C   UNL     1     -15.729  -2.223  17.945  1.00  0.00     0.187 C 
HETATM    4  C   UNL     1     -15.508  -1.303  18.915  1.00  0.00     0.180 C 
HETATM    5  F   UNL     1     -15.765  -4.576  18.298  1.00  0.00    -0.242 F 
HETATM    6  O   UNL     1     -16.280  -1.842  20.203  1.00  0.00    -0.353 OA
ENDROOT
BRANCH   4   7
HETATM    7  C   UNL     1     -16.022   0.085  18.616  1.00  0.00     0.216 C 
BRANCH   7   8
HETATM    8  O   UNL     1     -16.827   0.003  17.491  1.00  0.00    -0.287 OA
BRANCH   8   9
HETATM    9  P   UNL     1     -16.782   1.178  16.339  1.00  0.00     0.417 P 
HETATM   10  O   UNL     1     -15.973   2.358  16.825  1.00  0.00    -0.624 OA
HETATM   11  O   UNL     1     -16.247   0.649  15.040  1.00  0.00    -0.624 OA
BRANCH   9  12
HETATM   12  O   UNL     1     -18.320   1.657  15.966  1.00  0.00    -0.180 OA
BRANCH  12  13
HETATM   13  P   UNL     1     -18.739   3.169  15.497  1.00  0.00     0.428 P 
HETATM   14  O   UNL     1     -20.080   3.061  14.826  1.00  0.00    -0.624 OA
HETATM   15  O   UNL     1     -18.753   4.143  16.662  1.00  0.00    -0.624 OA
BRANCH  13  16
HETATM   16  O   UNL     1     -17.620   3.715  14.448  1.00  0.00    -0.173 OA
BRANCH  16  17
HETATM   17  P   UNL     1     -17.689   3.581  12.822  1.00  0.00     0.431 P 
HETATM   18  O   UNL     1     -17.961   2.112  12.566  1.00  0.00    -0.616 OA
HETATM   19  O   UNL     1     -18.816   4.414  12.259  1.00  0.00    -0.616 OA
HETATM   20  O   UNL     1     -16.350   3.985  12.246  1.00  0.00    -0.616 OA
ENDBRANCH  16  17
ENDBRANCH  13  16
ENDBRANCH  12  13
ENDBRANCH   9  12
ENDBRANCH   8   9
ENDBRANCH   7   8
ENDBRANCH   4   7
BRANCH   3  21
HETATM   21  O   UNL     1     -14.410  -2.620  17.353  1.00  0.00    -0.390 OA
ATOM     22  HO  UNL     1     -14.528  -3.367  16.778  1.00  0.00     0.210 HD
ENDBRANCH   3  21
BRANCH   1  23
HETATM   23  N   UNL     1     -17.147  -3.716  21.074  1.00  0.00    -0.279 N 
HETATM   24  C   UNL     1     -18.327  -3.118  21.277  1.00  0.00     0.102 A 
HETATM   25  C   UNL     1     -19.215  -3.665  22.207  1.00  0.00     0.062 A 
HETATM   26  C   UNL     1     -18.830  -4.807  22.903  1.00  0.00     0.121 A 
HETATM   27  N   UNL     1     -19.711  -5.415  23.885  1.00  0.00    -0.083 NA
HETATM   28  N   UNL     1     -17.636  -5.344  22.666  1.00  0.00    -0.297 N 
HETATM   29  C   UNL     1     -16.817  -4.799  21.774  1.00  0.00     0.329 A 
ATOM     30  HN  UNL     1     -17.348  -6.182  23.172  1.00  0.00     0.171 HD
HETATM   31  O   UNL     1     -15.757  -5.319  21.594  1.00  0.00    -0.246 OA
ENDBRANCH   1  23
TORSDOF 9
ENDMDL
MODEL 6
REMARK VINA RESULT:    -7.204      1.901      2.617
REMARK INTER + INTRA:         -11.605
REMARK INTER:                 -10.180
REMARK INTRA:                  -1.425
REMARK UNBOUND:                -0.822
REMARK  9 active torsions:
REMARK  status: ('A' for Active; 'I' for Inactive)
REMARK    1  A    between atoms: C_1  and  N_11 
REMARK    2  A    between atoms: C_4  and  O_22 
REMARK    3  A    between atoms: C_6  and  C_8 
REMARK    4  A    between atoms: C_8  and  O_28 
REMARK    5  A    between atoms: O_24  and  P_29 
REMARK    6  A    between atoms: O_24  and  P_30 
REMARK    7  A    between atoms: O_25  and  P_31 
REMARK    8  A    between atoms: O_25  and  P_30 
REMARK    9  A    between atoms: O_28  and  P_29 
ROOT
HETATM    1  C   UNL     1     -17.455  -1.910  20.337  1.00  0.00     0.269 C 
HETATM    2  C   UNL     1     -16.198  -1.239  20.987  1.00  0.00     0.250 C 
HETATM    3  C   UNL     1     -15.530  -0.602  19.780  1.00  0.00     0.187 C 
HETATM    4  C   UNL     1     -16.121  -1.113  18.672  1.00  0.00     0.180 C 
HETATM    5  F   UNL     1     -16.606  -0.338  21.886  1.00  0.00    -0.242 F 
HETATM    6  O   UNL     1     -17.035  -2.314  19.188  1.00  0.00    -0.353 OA
ENDROOT
BRANCH   4   7
HETATM    7  C   UNL     1     -15.175  -1.665  17.633  1.00  0.00     0.216 C 
BRANCH   7   8
HETATM    8  O   UNL     1     -14.185  -0.719  17.420  1.00  0.00    -0.287 OA
BRANCH   8   9
HETATM    9  P   UNL     1     -13.799  -0.236  15.894  1.00  0.00     0.417 P 
HETATM   10  O   UNL     1     -12.783   0.880  15.937  1.00  0.00    -0.624 OA
HETATM   11  O   UNL     1     -13.308  -1.388  15.066  1.00  0.00    -0.624 OA
BRANCH   9  12
HETATM   12  O   UNL     1     -15.162   0.265  15.103  1.00  0.00    -0.180 OA
BRANCH  12  13
HETATM   13  P   UNL     1     -16.157   1.457  15.622  1.00  0.00     0.428 P 
HETATM   14  O   UNL     1     -17.531   0.859  15.742  1.00  0.00    -0.624 OA
HETATM   15  O   UNL     1     -15.678   2.070  16.926  1.00  0.00    -0.624 OA
BRANCH  13  16
HETATM   16  O   UNL     1     -16.152   2.654  14.518  1.00  0.00    -0.173 OA
BRANCH  16  17
HETATM   17  P   UNL     1     -17.086   2.724  13.181  1.00  0.00     0.431 P 
HETATM   18  O   UNL     1     -17.057   1.317  12.615  1.00  0.00    -0.616 OA
HETATM   19  O   UNL     1     -18.505   3.102  13.532  1.00  0.00    -0.616 OA
HETATM   20  O   UNL     1     -16.468   3.704  12.208  1.00  0.00    -0.616 OA
ENDBRANCH  16  17
ENDBRANCH  13  16
ENDBRANCH  12  13
ENDBRANCH   9  12
ENDBRANCH   8   9
ENDBRANCH   7   8
ENDBRANCH   4   7
BRANCH   3  21
HETATM   21  O   UNL     1     -15.753   0.880  19.801  1.00  0.00    -0.390 OA
ATOM     22  HO  UNL     1     -16.685   1.065  19.782  1.00  0.00     0.210 HD
ENDBRANCH   3  21
BRANCH   1  23
HETATM   23  N   UNL     1     -18.013  -3.106  21.042  1.00  0.00    -0.279 N 
HETATM   24  C   UNL     1     -17.199  -4.088  21.448  1.00  0.00     0.102 A 
HETATM   25  C   UNL     1     -17.748  -5.217  22.062  1.00  0.00     0.062 A 
HETATM   26  C   UNL     1     -19.130  -5.286  22.213  1.00  0.00     0.121 A 
HETATM   27  N   UNL     1     -19.755  -6.438  22.839  1.00  0.00    -0.083 NA
HETATM   28  N   UNL     1     -19.886  -4.282  21.773  1.00  0.00    -0.297 N 
HETATM   29  C   UNL     1     -19.331  -3.224  21.195  1.00  0.00     0.329 A 
ATOM     30  HN  UNL     1     -20.900  -4.327  21.882  1.00  0.00     0.171 HD
HETATM   31  O   UNL     1     -20.049  -2.347  20.819  1.00  0.00    -0.246 OA
ENDBRANCH   1  23
TORSDOF 9
ENDMDL
MODEL 7
REMARK VINA RESULT:    -7.191      2.460      3.857
REMARK INTER + INTRA:         -11.586
REMARK INTER:                 -10.170
REMARK INTRA:                  -1.416
REMARK UNBOUND:                -0.822
REMARK  9 active torsions:
REMARK  status: ('A' for Active; 'I' for Inactive)
REMARK    1  A    between atoms: C_1  and  N_11 
REMARK    2  A    between atoms: C_4  and  O_22 
REMARK    3  A    between atoms: C_6  and  C_8 
REMARK    4  A    between atoms: C_8  and  O_28 
REMARK    5  A    between atoms: O_24  and  P_29 
REMARK    6  A    between atoms: O_24  and  P_30 
REMARK    7  A    between atoms: O_25  and  P_31 
REMARK    8  A    between atoms: O_25  and  P_30 
REMARK    9  A    between atoms: O_28  and  P_29 
ROOT
HETATM    1  C   UNL     1     -14.239  -0.888  18.084  1.00  0.00     0.269 C 
HETATM    2  C   UNL     1     -14.166  -0.915  16.520  1.00  0.00     0.250 C 
HETATM    3  C   UNL     1     -14.053   0.565  16.191  1.00  0.00     0.187 C 
HETATM    4  C   UNL     1     -14.348   1.254  17.321  1.00  0.00     0.180 C 
HETATM    5  F   UNL     1     -13.086  -1.609  16.150  1.00  0.00    -0.242 F 
HETATM    6  O   UNL     1     -14.917   0.175  18.348  1.00  0.00    -0.353 OA
ENDROOT
BRANCH   4   7
HETATM    7  C   UNL     1     -15.389   2.336  17.162  1.00  0.00     0.216 C 
BRANCH   7   8
HETATM    8  O   UNL     1     -14.782   3.550  17.441  1.00  0.00    -0.287 OA
BRANCH   8   9
HETATM    9  P   UNL     1     -13.989   4.382  16.262  1.00  0.00     0.417 P 
HETATM   10  O   UNL     1     -13.940   5.854  16.600  1.00  0.00    -0.624 OA
HETATM   11  O   UNL     1     -12.613   3.829  16.035  1.00  0.00    -0.624 OA
BRANCH   9  12
HETATM   12  O   UNL     1     -14.748   4.157  14.810  1.00  0.00    -0.180 OA
BRANCH  12  13
HETATM   13  P   UNL     1     -16.010   5.048  14.268  1.00  0.00     0.428 P 
HETATM   14  O   UNL     1     -17.005   5.126  15.393  1.00  0.00    -0.624 OA
HETATM   15  O   UNL     1     -15.573   6.420  13.787  1.00  0.00    -0.624 OA
BRANCH  13  16
HETATM   16  O   UNL     1     -16.664   4.293  12.982  1.00  0.00    -0.173 OA
BRANCH  16  17
HETATM   17  P   UNL     1     -17.509   2.896  13.022  1.00  0.00     0.431 P 
HETATM   18  O   UNL     1     -17.844   2.605  11.573  1.00  0.00    -0.616 OA
HETATM   19  O   UNL     1     -16.672   1.774  13.588  1.00  0.00    -0.616 OA
HETATM   20  O   UNL     1     -18.770   3.116  13.828  1.00  0.00    -0.616 OA
ENDBRANCH  16  17
ENDBRANCH  13  16
ENDBRANCH  12  13
ENDBRANCH   9  12
ENDBRANCH   8   9
ENDBRANCH   7   8
ENDBRANCH   4   7
BRANCH   3  21
HETATM   21  O   UNL     1     -12.647   0.888  15.786  1.00  0.00    -0.390 OA
ATOM     22  HO  UNL     1     -12.038   0.378  16.307  1.00  0.00     0.210 HD
ENDBRANCH   3  21
BRANCH   1  23
HETATM   23  N   UNL     1     -14.948  -2.031  18.740  1.00  0.00    -0.279 N 
HETATM   24  C   UNL     1     -16.283  -2.028  18.834  1.00  0.00     0.102 A 
HETATM   25  C   UNL     1     -16.921  -3.083  19.493  1.00  0.00     0.062 A 
HETATM   26  C   UNL     1     -16.139  -4.094  20.042  1.00  0.00     0.121 A 
HETATM   27  N   UNL     1     -16.747  -5.212  20.742  1.00  0.00    -0.083 NA
HETATM   28  N   UNL     1     -14.814  -4.030  19.927  1.00  0.00    -0.297 N 
HETATM   29  C   UNL     1     -14.241  -3.013  19.295  1.00  0.00     0.329 A 
ATOM     30  HN  UNL     1     -14.234  -4.768  20.328  1.00  0.00     0.171 HD
HETATM   31  O   UNL     1     -13.049  -3.001  19.214  1.00  0.00    -0.246 OA
ENDBRANCH   1  23
TORSDOF 9
ENDMDL
MODEL 8
REMARK VINA RESULT:    -7.010      2.891      4.052
REMARK INTER + INTRA:         -11.316
REMARK INTER:                 -10.451
REMARK INTRA:                  -0.865
REMARK UNBOUND:                -0.822
REMARK  9 active torsions:
REMARK  status: ('A' for Active; 'I' for Inactive)
REMARK    1  A    between atoms: C_1  and  N_11 
REMARK    2  A    between atoms: C_4  and  O_22 
REMARK    3  A    between atoms: C_6  and  C_8 
REMARK    4  A    between atoms: C_8  and  O_28 
REMARK    5  A    between atoms: O_24  and  P_29 
REMARK    6  A    between atoms: O_24  and  P_30 
REMARK    7  A    between atoms: O_25  and  P_31 
REMARK    8  A    between atoms: O_25  and  P_30 
REMARK    9  A    between atoms: O_28  and  P_29 
ROOT
HETATM    1  C   UNL     1     -13.710  -1.668  20.860  1.00  0.00     0.269 C 
HETATM    2  C   UNL     1     -14.847  -2.744  20.915  1.00  0.00     0.250 C 
HETATM    3  C   UNL     1     -14.815  -3.298  19.500  1.00  0.00     0.187 C 
HETATM    4  C   UNL     1     -14.056  -2.459  18.753  1.00  0.00     0.180 C 
HETATM    5  F   UNL     1     -14.529  -3.660  21.835  1.00  0.00    -0.242 F 
HETATM    6  O   UNL     1     -13.798  -1.180  19.671  1.00  0.00    -0.353 OA
ENDROOT
BRANCH   4   7
HETATM    7  C   UNL     1     -14.692  -1.985  17.469  1.00  0.00     0.216 C 
BRANCH   7   8
HETATM    8  O   UNL     1     -14.303  -0.671  17.265  1.00  0.00    -0.287 OA
BRANCH   8   9
HETATM    9  P   UNL     1     -13.756  -0.176  15.793  1.00  0.00     0.417 P 
HETATM   10  O   UNL     1     -12.836   1.012  15.947  1.00  0.00    -0.624 OA
HETATM   11  O   UNL     1     -13.081  -1.297  15.058  1.00  0.00    -0.624 OA
BRANCH   9  12
HETATM   12  O   UNL     1     -15.036   0.217  14.823  1.00  0.00    -0.180 OA
BRANCH  12  13
HETATM   13  P   UNL     1     -16.222   1.273  15.224  1.00  0.00     0.428 P 
HETATM   14  O   UNL     1     -17.076   0.597  16.259  1.00  0.00    -0.624 OA
HETATM   15  O   UNL     1     -15.662   2.598  15.711  1.00  0.00    -0.624 OA
BRANCH  13  16
HETATM   16  O   UNL     1     -17.096   1.602  13.890  1.00  0.00    -0.173 OA
BRANCH  16  17
HETATM   17  P   UNL     1     -17.125   3.027  13.095  1.00  0.00     0.431 P 
HETATM   18  O   UNL     1     -17.828   2.725  11.786  1.00  0.00    -0.616 OA
HETATM   19  O   UNL     1     -17.908   4.061  13.867  1.00  0.00    -0.616 OA
HETATM   20  O   UNL     1     -15.701   3.472  12.845  1.00  0.00    -0.616 OA
ENDBRANCH  16  17
ENDBRANCH  13  16
ENDBRANCH  12  13
ENDBRANCH   9  12
ENDBRANCH   8   9
ENDBRANCH   7   8
ENDBRANCH   4   7
BRANCH   3  21
HETATM   21  O   UNL     1     -14.172  -4.652  19.501  1.00  0.00    -0.390 OA
ATOM     22  HO  UNL     1     -13.702  -4.783  20.316  1.00  0.00     0.210 HD
ENDBRANCH   3  21
BRANCH   1  23
HETATM   23  N   UNL     1     -13.832  -0.519  21.812  1.00  0.00    -0.279 N 
HETATM   24  C   UNL     1     -15.039  -0.043  22.140  1.00  0.00     0.102 A 
HETATM   25  C   UNL     1     -15.126   1.061  22.993  1.00  0.00     0.062 A 
HETATM   26  C   UNL     1     -13.948   1.636  23.458  1.00  0.00     0.121 A 
HETATM   27  N   UNL     1     -13.978   2.788  24.343  1.00  0.00    -0.083 NA
HETATM   28  N   UNL     1     -12.778   1.124  23.082  1.00  0.00    -0.297 N 
HETATM   29  C   UNL     1     -12.732   0.075  22.270  1.00  0.00     0.329 A 
ATOM     30  HN  UNL     1     -11.910   1.542  23.420  1.00  0.00     0.171 HD
HETATM   31  O   UNL     1     -11.659  -0.351  21.963  1.00  0.00    -0.246 OA
ENDBRANCH   1  23
TORSDOF 9
ENDMDL
MODEL 9
REMARK VINA RESULT:    -6.981      5.188      8.711
REMARK INTER + INTRA:         -11.272
REMARK INTER:                 -10.206
REMARK INTRA:                  -1.066
REMARK UNBOUND:                -0.822
REMARK  9 active torsions:
REMARK  status: ('A' for Active; 'I' for Inactive)
REMARK    1  A    between atoms: C_1  and  N_11 
REMARK    2  A    between atoms: C_4  and  O_22 
REMARK    3  A    between atoms: C_6  and  C_8 
REMARK    4  A    between atoms: C_8  and  O_28 
REMARK    5  A    between atoms: O_24  and  P_29 
REMARK    6  A    between atoms: O_24  and  P_30 
REMARK    7  A    between atoms: O_25  and  P_31 
REMARK    8  A    between atoms: O_25  and  P_30 
REMARK    9  A    between atoms: O_28  and  P_29 
ROOT
HETATM    1  C   UNL     1     -15.671   0.345  15.819  1.00  0.00     0.269 C 
HETATM    2  C   UNL     1     -14.357   0.700  16.593  1.00  0.00     0.250 C 
HETATM    3  C   UNL     1     -14.429  -0.252  17.776  1.00  0.00     0.187 C 
HETATM    4  C   UNL     1     -15.684  -0.765  17.807  1.00  0.00     0.180 C 
HETATM    5  F   UNL     1     -13.309   0.458  15.800  1.00  0.00    -0.242 F 
HETATM    6  O   UNL     1     -16.523   0.086  16.750  1.00  0.00    -0.353 OA
ENDROOT
BRANCH   4   7
HETATM    7  C   UNL     1     -16.386  -0.669  19.140  1.00  0.00     0.216 C 
BRANCH   7   8
HETATM    8  O   UNL     1     -15.534  -1.185  20.104  1.00  0.00    -0.287 OA
BRANCH   8   9
HETATM    9  P   UNL     1     -16.032  -1.344  21.665  1.00  0.00     0.417 P 
HETATM   10  O   UNL     1     -15.091  -0.612  22.592  1.00  0.00    -0.624 OA
HETATM   11  O   UNL     1     -17.445  -0.870  21.838  1.00  0.00    -0.624 OA
BRANCH   9  12
HETATM   12  O   UNL     1     -16.101  -2.946  22.071  1.00  0.00    -0.180 OA
BRANCH  12  13
HETATM   13  P   UNL     1     -17.030  -4.061  21.315  1.00  0.00     0.428 P 
HETATM   14  O   UNL     1     -16.876  -5.347  22.078  1.00  0.00    -0.624 OA
HETATM   15  O   UNL     1     -18.479  -3.619  21.213  1.00  0.00    -0.624 OA
BRANCH  13  16
HETATM   16  O   UNL     1     -16.491  -4.237  19.789  1.00  0.00    -0.173 OA
BRANCH  16  17
HETATM   17  P   UNL     1     -15.055  -4.880  19.351  1.00  0.00     0.431 P 
HETATM   18  O   UNL     1     -14.599  -5.669  20.563  1.00  0.00    -0.616 OA
HETATM   19  O   UNL     1     -15.215  -5.806  18.170  1.00  0.00    -0.616 OA
HETATM   20  O   UNL     1     -14.090  -3.753  19.054  1.00  0.00    -0.616 OA
ENDBRANCH  16  17
ENDBRANCH  13  16
ENDBRANCH  12  13
ENDBRANCH   9  12
ENDBRANCH   8   9
ENDBRANCH   7   8
ENDBRANCH   4   7
BRANCH   3  21
HETATM   21  O   UNL     1     -13.457  -1.376  17.580  1.00  0.00    -0.390 OA
ATOM     22  HO  UNL     1     -12.881  -1.179  16.851  1.00  0.00     0.210 HD
ENDBRANCH   3  21
BRANCH   1  23
HETATM   23  N   UNL     1     -16.264   1.431  14.977  1.00  0.00    -0.279 N 
HETATM   24  C   UNL     1     -16.583   2.609  15.526  1.00  0.00     0.102 A 
HETATM   25  C   UNL     1     -17.179   3.592  14.731  1.00  0.00     0.062 A 
HETATM   26  C   UNL     1     -17.436   3.300  13.395  1.00  0.00     0.121 A 
HETATM   27  N   UNL     1     -18.059   4.281  12.523  1.00  0.00    -0.083 NA
HETATM   28  N   UNL     1     -17.110   2.103  12.913  1.00  0.00    -0.297 N 
HETATM   29  C   UNL     1     -16.543   1.193  13.697  1.00  0.00     0.329 A 
ATOM     30  HN  UNL     1     -17.295   1.883  11.934  1.00  0.00     0.171 HD
HETATM   31  O   UNL     1     -16.265   0.134  13.220  1.00  0.00    -0.246 OA
ENDBRANCH   1  23
TORSDOF 9
ENDMDL
MODEL 10
REMARK VINA RESULT:    -6.847      2.684      3.504
REMARK INTER + INTRA:         -11.071
REMARK INTER:                 -10.329
REMARK INTRA:                  -0.742
REMARK UNBOUND:                -0.822
REMARK  9 active torsions:
REMARK  status: ('A' for Active; 'I' for Inactive)
REMARK    1  A    between atoms: C_1  and  N_11 
REMARK    2  A    between atoms: C_4  and  O_22 
REMARK    3  A    between atoms: C_6  and  C_8 
REMARK    4  A    between atoms: C_8  and  O_28 
REMARK    5  A    between atoms: O_24  and  P_29 
REMARK    6  A    between atoms: O_24  and  P_30 
REMARK    7  A    between atoms: O_25  and  P_31 
REMARK    8  A    between atoms: O_25  and  P_30 
REMARK    9  A    between atoms: O_28  and  P_29 
ROOT
HETATM    1  C   UNL     1     -14.635  -1.552  20.181  1.00  0.00     0.269 C 
HETATM    2  C   UNL     1     -13.171  -1.032  19.986  1.00  0.00     0.250 C 
HETATM    3  C   UNL     1     -13.405   0.434  19.664  1.00  0.00     0.187 C 
HETATM    4  C   UNL     1     -14.727   0.587  19.406  1.00  0.00     0.180 C 
HETATM    5  F   UNL     1     -12.495  -1.209  21.125  1.00  0.00    -0.242 F 
HETATM    6  O   UNL     1     -15.321  -0.891  19.313  1.00  0.00    -0.353 OA
ENDROOT
BRANCH   4   7
HETATM    7  C   UNL     1     -15.054   1.298  18.115  1.00  0.00     0.216 C 
BRANCH   7   8
HETATM    8  O   UNL     1     -16.077   0.597  17.495  1.00  0.00    -0.287 OA
BRANCH   8   9
HETATM    9  P   UNL     1     -17.522   1.323  17.183  1.00  0.00     0.417 P 
HETATM   10  O   UNL     1     -18.228   0.620  16.048  1.00  0.00    -0.624 OA
HETATM   11  O   UNL     1     -18.383   1.374  18.411  1.00  0.00    -0.624 OA
BRANCH   9  12
HETATM   12  O   UNL     1     -17.280   2.914  16.805  1.00  0.00    -0.180 OA
BRANCH  12  13
HETATM   13  P   UNL     1     -17.861   3.654  15.465  1.00  0.00     0.428 P 
HETATM   14  O   UNL     1     -19.335   3.850  15.678  1.00  0.00    -0.624 OA
HETATM   15  O   UNL     1     -17.140   4.960  15.179  1.00  0.00    -0.624 OA
BRANCH  13  16
HETATM   16  O   UNL     1     -17.595   2.687  14.182  1.00  0.00    -0.173 OA
BRANCH  16  17
HETATM   17  P   UNL     1     -17.548   3.163  12.621  1.00  0.00     0.431 P 
HETATM   18  O   UNL     1     -18.666   4.179  12.493  1.00  0.00    -0.616 OA
HETATM   19  O   UNL     1     -16.226   3.814  12.293  1.00  0.00    -0.616 OA
HETATM   20  O   UNL     1     -17.816   1.962  11.740  1.00  0.00    -0.616 OA
ENDBRANCH  16  17
ENDBRANCH  13  16
ENDBRANCH  12  13
ENDBRANCH   9  12
ENDBRANCH   8   9
ENDBRANCH   7   8
ENDBRANCH   4   7
BRANCH   3  21
HETATM   21  O   UNL     1     -13.049   1.276  20.852  1.00  0.00    -0.390 OA
ATOM     22  HO  UNL     1     -12.999   0.731  21.628  1.00  0.00     0.210 HD
ENDBRANCH   3  21
BRANCH   1  23
HETATM   23  N   UNL     1     -14.871  -3.004  19.906  1.00  0.00    -0.279 N 
HETATM   24  C   UNL     1     -15.122  -3.420  18.659  1.00  0.00     0.102 A 
HETATM   25  C   UNL     1     -15.386  -4.774  18.433  1.00  0.00     0.062 A 
HETATM   26  C   UNL     1     -15.393  -5.640  19.522  1.00  0.00     0.121 A 
HETATM   27  N   UNL     1     -15.667  -7.056  19.348  1.00  0.00    -0.083 NA
HETATM   28  N   UNL     1     -15.151  -5.161  20.741  1.00  0.00    -0.297 N 
HETATM   29  C   UNL     1     -14.904  -3.868  20.919  1.00  0.00     0.329 A 
ATOM     30  HN  UNL     1     -15.155  -5.791  21.543  1.00  0.00     0.171 HD
HETATM   31  O   UNL     1     -14.689  -3.485  22.029  1.00  0.00    -0.246 OA
ENDBRANCH   1  23
TORSDOF 9
ENDMDL
MODEL 11
REMARK VINA RESULT:    -6.834      2.890      4.355
REMARK INTER + INTRA:         -11.051
REMARK INTER:                 -10.140
REMARK INTRA:                  -0.911
REMARK UNBOUND:                -0.822
REMARK  9 active torsions:
REMARK  status: ('A' for Active; 'I' for Inactive)
REMARK    1  A    between atoms: C_1  and  N_11 
REMARK    2  A    between atoms: C_4  and  O_22 
REMARK    3  A    between atoms: C_6  and  C_8 
REMARK    4  A    between atoms: C_8  and  O_28 
REMARK    5  A    between atoms: O_24  and  P_29 
REMARK    6  A    between atoms: O_24  and  P_30 
REMARK    7  A    between atoms: O_25  and  P_31 
REMARK    8  A    between atoms: O_25  and  P_30 
REMARK    9  A    between atoms: O_28  and  P_29 
ROOT
HETATM    1  C   UNL     1     -18.723  -1.590  20.974  1.00  0.00     0.269 C 
HETATM    2  C   UNL     1     -18.128  -0.295  21.623  1.00  0.00     0.250 C 
HETATM    3  C   UNL     1     -19.254   0.703  21.407  1.00  0.00     0.187 C 
HETATM    4  C   UNL     1     -20.123   0.149  20.527  1.00  0.00     0.180 C 
HETATM    5  F   UNL     1     -17.890  -0.531  22.917  1.00  0.00    -0.242 F 
HETATM    6  O   UNL     1     -19.395  -1.154  19.965  1.00  0.00    -0.353 OA
ENDROOT
BRANCH   4   7
HETATM    7  C   UNL     1     -20.490   1.018  19.348  1.00  0.00     0.216 C 
BRANCH   7   8
HETATM    8  O   UNL     1     -19.311   1.441  18.754  1.00  0.00    -0.287 OA
BRANCH   8   9
HETATM    9  P   UNL     1     -19.103   1.321  17.125  1.00  0.00     0.417 P 
HETATM   10  O   UNL     1     -18.942  -0.126  16.722  1.00  0.00    -0.624 OA
HETATM   11  O   UNL     1     -20.233   1.972  16.382  1.00  0.00    -0.624 OA
BRANCH   9  12
HETATM   12  O   UNL     1     -17.775   2.192  16.664  1.00  0.00    -0.180 OA
BRANCH  12  13
HETATM   13  P   UNL     1     -17.136   2.192  15.157  1.00  0.00     0.428 P 
HETATM   14  O   UNL     1     -15.793   2.860  15.252  1.00  0.00    -0.624 OA
HETATM   15  O   UNL     1     -17.044   0.791  14.578  1.00  0.00    -0.624 OA
BRANCH  13  16
HETATM   16  O   UNL     1     -18.123   3.036  14.175  1.00  0.00    -0.173 OA
BRANCH  16  17
HETATM   17  P   UNL     1     -17.810   3.440  12.625  1.00  0.00     0.431 P 
HETATM   18  O   UNL     1     -18.834   4.508  12.289  1.00  0.00    -0.616 OA
HETATM   19  O   UNL     1     -16.418   4.007  12.484  1.00  0.00    -0.616 OA
HETATM   20  O   UNL     1     -18.009   2.218  11.756  1.00  0.00    -0.616 OA
ENDBRANCH  16  17
ENDBRANCH  13  16
ENDBRANCH  12  13
ENDBRANCH   9  12
ENDBRANCH   8   9
ENDBRANCH   7   8
ENDBRANCH   4   7
BRANCH   3  21
HETATM   21  O   UNL     1     -19.970   0.946  22.701  1.00  0.00    -0.390 OA
ATOM     22  HO  UNL     1     -20.651   1.596  22.573  1.00  0.00     0.210 HD
ENDBRANCH   3  21
BRANCH   1  23
HETATM   23  N   UNL     1     -17.739  -2.585  20.444  1.00  0.00    -0.279 N 
HETATM   24  C   UNL     1     -17.214  -2.426  19.224  1.00  0.00     0.102 A 
HETATM   25  C   UNL     1     -16.332  -3.393  18.731  1.00  0.00     0.062 A 
HETATM   26  C   UNL     1     -16.047  -4.498  19.526  1.00  0.00     0.121 A 
HETATM   27  N   UNL     1     -15.142  -5.537  19.063  1.00  0.00    -0.083 NA
HETATM   28  N   UNL     1     -16.615  -4.605  20.725  1.00  0.00    -0.297 N 
HETATM   29  C   UNL     1     -17.447  -3.668  21.162  1.00  0.00     0.329 A 
ATOM     30  HN  UNL     1     -16.409  -5.414  21.313  1.00  0.00     0.171 HD
HETATM   31  O   UNL     1     -17.930  -3.806  22.246  1.00  0.00    -0.246 OA
ENDBRANCH   1  23
TORSDOF 9
ENDMDL
MODEL 12
REMARK VINA RESULT:    -6.814      9.437     11.741
REMARK INTER + INTRA:         -11.022
REMARK INTER:                 -10.314
REMARK INTRA:                  -0.708
REMARK UNBOUND:                -0.822
REMARK  9 active torsions:
REMARK  status: ('A' for Active; 'I' for Inactive)
REMARK    1  A    between atoms: C_1  and  N_11 
REMARK    2  A    between atoms: C_4  and  O_22 
REMARK    3  A    between atoms: C_6  and  C_8 
REMARK    4  A    between atoms: C_8  and  O_28 
REMARK    5  A    between atoms: O_24  and  P_29 
REMARK    6  A    between atoms: O_24  and  P_30 
REMARK    7  A    between atoms: O_25  and  P_31 
REMARK    8  A    between atoms: O_25  and  P_30 
REMARK    9  A    between atoms: O_28  and  P_29 
ROOT
HETATM    1  C   UNL     1      -8.533   4.403  12.774  1.00  0.00     0.269 C 
HETATM    2  C   UNL     1      -7.336   4.521  13.777  1.00  0.00     0.250 C 
HETATM    3  C   UNL     1      -7.925   3.904  15.035  1.00  0.00     0.187 C 
HETATM    4  C   UNL     1      -9.263   3.792  14.843  1.00  0.00     0.180 C 
HETATM    5  F   UNL     1      -6.300   3.825  13.298  1.00  0.00    -0.242 F 
HETATM    6  O   UNL     1      -9.575   4.603  13.505  1.00  0.00    -0.353 OA
ENDROOT
BRANCH   4   7
HETATM    7  C   UNL     1     -10.122   4.367  15.943  1.00  0.00     0.216 C 
BRANCH   7   8
HETATM    8  O   UNL     1     -11.047   5.216  15.356  1.00  0.00    -0.287 OA
BRANCH   8   9
HETATM    9  P   UNL     1     -12.613   5.231  15.862  1.00  0.00     0.417 P 
HETATM   10  O   UNL     1     -12.858   4.109  16.844  1.00  0.00    -0.624 OA
HETATM   11  O   UNL     1     -12.984   6.560  16.451  1.00  0.00    -0.624 OA
BRANCH   9  12
HETATM   12  O   UNL     1     -13.624   5.080  14.562  1.00  0.00    -0.180 OA
BRANCH  12  13
HETATM   13  P   UNL     1     -15.246   4.885  14.658  1.00  0.00     0.428 P 
HETATM   14  O   UNL     1     -15.601   4.897  16.119  1.00  0.00    -0.624 OA
HETATM   15  O   UNL     1     -15.995   5.948  13.873  1.00  0.00    -0.624 OA
BRANCH  13  16
HETATM   16  O   UNL     1     -15.638   3.453  13.989  1.00  0.00    -0.173 OA
BRANCH  16  17
HETATM   17  P   UNL     1     -17.075   3.076  13.313  1.00  0.00     0.431 P 
HETATM   18  O   UNL     1     -18.110   3.670  14.248  1.00  0.00    -0.616 OA
HETATM   19  O   UNL     1     -17.208   3.697  11.944  1.00  0.00    -0.616 OA
HETATM   20  O   UNL     1     -17.205   1.570  13.261  1.00  0.00    -0.616 OA
ENDBRANCH  16  17
ENDBRANCH  13  16
ENDBRANCH  12  13
ENDBRANCH   9  12
ENDBRANCH   8   9
ENDBRANCH   7   8
ENDBRANCH   4   7
BRANCH   3  21
HETATM   21  O   UNL     1      -7.355   2.533  15.241  1.00  0.00    -0.390 OA
ATOM     22  HO  UNL     1      -7.312   2.075  14.410  1.00  0.00     0.210 HD
ENDBRANCH   3  21
BRANCH   1  23
HETATM   23  N   UNL     1      -8.578   5.409  11.667  1.00  0.00    -0.279 N 
HETATM   24  C   UNL     1      -8.994   6.657  11.910  1.00  0.00     0.102 A 
HETATM   25  C   UNL     1      -9.074   7.566  10.851  1.00  0.00     0.062 A 
HETATM   26  C   UNL     1      -8.731   7.131   9.574  1.00  0.00     0.121 A 
HETATM   27  N   UNL     1      -8.800   8.030   8.436  1.00  0.00    -0.083 NA
HETATM   28  N   UNL     1      -8.340   5.871   9.397  1.00  0.00    -0.297 N 
HETATM   29  C   UNL     1      -8.276   5.034  10.426  1.00  0.00     0.329 A 
ATOM     30  HN  UNL     1      -8.088   5.546   8.463  1.00  0.00     0.171 HD
HETATM   31  O   UNL     1      -7.916   3.914  10.218  1.00  0.00    -0.246 OA
ENDBRANCH   1  23
TORSDOF 9
ENDMDL
MODEL 13
REMARK VINA RESULT:    -6.805      1.887      2.582
REMARK INTER + INTRA:         -11.009
REMARK INTER:                  -9.895
REMARK INTRA:                  -1.114
REMARK UNBOUND:                -0.822
REMARK  9 active torsions:
REMARK  status: ('A' for Active; 'I' for Inactive)
REMARK    1  A    between atoms: C_1  and  N_11 
REMARK    2  A    between atoms: C_4  and  O_22 
REMARK    3  A    between atoms: C_6  and  C_8 
REMARK    4  A    between atoms: C_8  and  O_28 
REMARK    5  A    between atoms: O_24  and  P_29 
REMARK    6  A    between atoms: O_24  and  P_30 
REMARK    7  A    between atoms: O_25  and  P_31 
REMARK    8  A    between atoms: O_25  and  P_30 
REMARK    9  A    between atoms: O_28  and  P_29 
ROOT
HETATM    1  C   UNL     1     -14.862  -1.531  20.489  1.00  0.00     0.269 C 
HETATM    2  C   UNL     1     -14.258  -1.537  19.044  1.00  0.00     0.250 C 
HETATM    3  C   UNL     1     -14.193  -0.051  18.731  1.00  0.00     0.187 C 
HETATM    4  C   UNL     1     -14.925   0.594  19.673  1.00  0.00     0.180 C 
HETATM    5  F   UNL     1     -13.050  -2.108  19.084  1.00  0.00    -0.242 F 
HETATM    6  O   UNL     1     -15.695  -0.549  20.475  1.00  0.00    -0.353 OA
ENDROOT
BRANCH   4   7
HETATM    7  C   UNL     1     -15.956   1.559  19.138  1.00  0.00     0.216 C 
BRANCH   7   8
HETATM    8  O   UNL     1     -15.281   2.572  18.474  1.00  0.00    -0.287 OA
BRANCH   8   9
HETATM    9  P   UNL     1     -15.797   3.099  17.002  1.00  0.00     0.417 P 
HETATM   10  O   UNL     1     -15.695   4.603  16.918  1.00  0.00    -0.624 OA
HETATM   11  O   UNL     1     -15.037   2.438  15.889  1.00  0.00    -0.624 OA
BRANCH   9  12
HETATM   12  O   UNL     1     -17.360   2.619  16.752  1.00  0.00    -0.180 OA
BRANCH  12  13
HETATM   13  P   UNL     1     -18.435   3.404  15.798  1.00  0.00     0.428 P 
HETATM   14  O   UNL     1     -19.494   2.406  15.422  1.00  0.00    -0.624 OA
HETATM   15  O   UNL     1     -19.014   4.629  16.483  1.00  0.00    -0.624 OA
BRANCH  13  16
HETATM   16  O   UNL     1     -17.659   3.938  14.471  1.00  0.00    -0.173 OA
BRANCH  16  17
HETATM   17  P   UNL     1     -17.468   3.109  13.077  1.00  0.00     0.431 P 
HETATM   18  O   UNL     1     -18.819   3.186  12.393  1.00  0.00    -0.616 OA
HETATM   19  O   UNL     1     -16.417   3.751  12.205  1.00  0.00    -0.616 OA
HETATM   20  O   UNL     1     -17.121   1.674  13.411  1.00  0.00    -0.616 OA
ENDBRANCH  16  17
ENDBRANCH  13  16
ENDBRANCH  12  13
ENDBRANCH   9  12
ENDBRANCH   8   9
ENDBRANCH   7   8
ENDBRANCH   4   7
BRANCH   3  21
HETATM   21  O   UNL     1     -12.774   0.424  18.819  1.00  0.00    -0.390 OA
ATOM     22  HO  UNL     1     -12.224  -0.103  18.251  1.00  0.00     0.210 HD
ENDBRANCH   3  21
BRANCH   1  23
HETATM   23  N   UNL     1     -15.630  -2.748  20.897  1.00  0.00    -0.279 N 
HETATM   24  C   UNL     1     -16.953  -2.805  20.701  1.00  0.00     0.102 A 
HETATM   25  C   UNL     1     -17.657  -3.933  21.133  1.00  0.00     0.062 A 
HETATM   26  C   UNL     1     -16.954  -4.952  21.769  1.00  0.00     0.121 A 
HETATM   27  N   UNL     1     -17.635  -6.144  22.243  1.00  0.00    -0.083 NA
HETATM   28  N   UNL     1     -15.641  -4.827  21.947  1.00  0.00    -0.297 N 
HETATM   29  C   UNL     1     -15.003  -3.742  21.524  1.00  0.00     0.329 A 
ATOM     30  HN  UNL     1     -15.120  -5.571  22.412  1.00  0.00     0.171 HD
HETATM   31  O   UNL     1     -13.824  -3.677  21.703  1.00  0.00    -0.246 OA
ENDBRANCH   1  23
TORSDOF 9
ENDMDL
MODEL 14
REMARK VINA RESULT:    -6.754      5.463      8.791
REMARK INTER + INTRA:         -10.931
REMARK INTER:                  -9.566
REMARK INTRA:                  -1.366
REMARK UNBOUND:                -0.822
REMARK  9 active torsions:
REMARK  status: ('A' for Active; 'I' for Inactive)
REMARK    1  A    between atoms: C_1  and  N_11 
REMARK    2  A    between atoms: C_4  and  O_22 
REMARK    3  A    between atoms: C_6  and  C_8 
REMARK    4  A    between atoms: C_8  and  O_28 
REMARK    5  A    between atoms: O_24  and  P_29 
REMARK    6  A    between atoms: O_24  and  P_30 
REMARK    7  A    between atoms: O_25  and  P_31 
REMARK    8  A    between atoms: O_25  and  P_30 
REMARK    9  A    between atoms: O_28  and  P_29 
ROOT
HETATM    1  C   UNL     1     -15.669   0.641  15.843  1.00  0.00     0.269 C 
HETATM    2  C   UNL     1     -14.111   0.505  15.772  1.00  0.00     0.250 C 
HETATM    3  C   UNL     1     -13.783  -0.022  17.159  1.00  0.00     0.187 C 
HETATM    4  C   UNL     1     -14.895   0.126  17.921  1.00  0.00     0.180 C 
HETATM    5  F   UNL     1     -13.797  -0.362  14.803  1.00  0.00    -0.242 F 
HETATM    6  O   UNL     1     -15.895   1.016  17.055  1.00  0.00    -0.353 OA
ENDROOT
BRANCH   4   7
HETATM    7  C   UNL     1     -14.681   0.824  19.243  1.00  0.00     0.216 C 
BRANCH   7   8
HETATM    8  O   UNL     1     -15.234   0.028  20.234  1.00  0.00    -0.287 OA
BRANCH   8   9
HETATM    9  P   UNL     1     -14.294  -1.014  21.095  1.00  0.00     0.417 P 
HETATM   10  O   UNL     1     -12.930  -1.137  20.459  1.00  0.00    -0.624 OA
HETATM   11  O   UNL     1     -14.190  -0.594  22.532  1.00  0.00    -0.624 OA
BRANCH   9  12
HETATM   12  O   UNL     1     -15.024  -2.496  21.170  1.00  0.00    -0.180 OA
BRANCH  12  13
HETATM   13  P   UNL     1     -15.417  -3.409  19.869  1.00  0.00     0.428 P 
HETATM   14  O   UNL     1     -16.464  -2.651  19.102  1.00  0.00    -0.624 OA
HETATM   15  O   UNL     1     -14.203  -3.738  19.018  1.00  0.00    -0.624 OA
BRANCH  13  16
HETATM   16  O   UNL     1     -16.014  -4.830  20.394  1.00  0.00    -0.173 OA
BRANCH  16  17
HETATM   17  P   UNL     1     -16.967  -5.040  21.703  1.00  0.00     0.431 P 
HETATM   18  O   UNL     1     -16.015  -5.010  22.883  1.00  0.00    -0.616 OA
HETATM   19  O   UNL     1     -17.969  -3.918  21.828  1.00  0.00    -0.616 OA
HETATM   20  O   UNL     1     -17.644  -6.389  21.598  1.00  0.00    -0.616 OA
ENDBRANCH  16  17
ENDBRANCH  13  16
ENDBRANCH  12  13
ENDBRANCH   9  12
ENDBRANCH   8   9
ENDBRANCH   7   8
ENDBRANCH   4   7
BRANCH   3  21
HETATM   21  O   UNL     1     -13.448  -1.481  17.080  1.00  0.00    -0.390 OA
ATOM     22  HO  UNL     1     -12.870  -1.717  17.796  1.00  0.00     0.210 HD
ENDBRANCH   3  21
BRANCH   1  23
HETATM   23  N   UNL     1     -16.292   1.666  14.947  1.00  0.00    -0.279 N 
HETATM   24  C   UNL     1     -16.505   2.909  15.395  1.00  0.00     0.102 A 
HETATM   25  C   UNL     1     -17.131   3.836  14.556  1.00  0.00     0.062 A 
HETATM   26  C   UNL     1     -17.526   3.423  13.288  1.00  0.00     0.121 A 
HETATM   27  N   UNL     1     -18.186   4.342  12.376  1.00  0.00    -0.083 NA
HETATM   28  N   UNL     1     -17.299   2.168  12.908  1.00  0.00    -0.297 N 
HETATM   29  C   UNL     1     -16.701   1.313  13.730  1.00  0.00     0.329 A 
ATOM     30  HN  UNL     1     -17.586   1.860  11.979  1.00  0.00     0.171 HD
HETATM   31  O   UNL     1     -16.516   0.198  13.344  1.00  0.00    -0.246 OA
ENDBRANCH   1  23
TORSDOF 9
ENDMDL
MODEL 15
REMARK VINA RESULT:    -6.731      3.101      4.832
REMARK INTER + INTRA:         -10.897
REMARK INTER:                  -9.344
REMARK INTRA:                  -1.553
REMARK UNBOUND:                -0.822
REMARK  9 active torsions:
REMARK  status: ('A' for Active; 'I' for Inactive)
REMARK    1  A    between atoms: C_1  and  N_11 
REMARK    2  A    between atoms: C_4  and  O_22 
REMARK    3  A    between atoms: C_6  and  C_8 
REMARK    4  A    between atoms: C_8  and  O_28 
REMARK    5  A    between atoms: O_24  and  P_29 
REMARK    6  A    between atoms: O_24  and  P_30 
REMARK    7  A    between atoms: O_25  and  P_31 
REMARK    8  A    between atoms: O_25  and  P_30 
REMARK    9  A    between atoms: O_28  and  P_29 
ROOT
HETATM    1  C   UNL     1     -14.531  -0.696  17.868  1.00  0.00     0.269 C 
HETATM    2  C   UNL     1     -14.270  -0.687  16.324  1.00  0.00     0.250 C 
HETATM    3  C   UNL     1     -14.961   0.599  15.902  1.00  0.00     0.187 C 
HETATM    4  C   UNL     1     -15.722   1.011  16.946  1.00  0.00     0.180 C 
HETATM    5  F   UNL     1     -12.951  -0.658  16.109  1.00  0.00    -0.242 F 
HETATM    6  O   UNL     1     -15.711  -0.195  17.989  1.00  0.00    -0.353 OA
ENDROOT
BRANCH   4   7
HETATM    7  C   UNL     1     -17.161   1.322  16.612  1.00  0.00     0.216 C 
BRANCH   7   8
HETATM    8  O   UNL     1     -17.226   1.617  15.259  1.00  0.00    -0.287 OA
BRANCH   8   9
HETATM    9  P   UNL     1     -18.151   2.866  14.716  1.00  0.00     0.417 P 
HETATM   10  O   UNL     1     -18.303   2.793  13.215  1.00  0.00    -0.624 OA
HETATM   11  O   UNL     1     -19.487   2.892  15.399  1.00  0.00    -0.624 OA
BRANCH   9  12
HETATM   12  O   UNL     1     -17.459   4.304  15.149  1.00  0.00    -0.180 OA
BRANCH  12  13
HETATM   13  P   UNL     1     -15.988   4.820  14.651  1.00  0.00     0.428 P 
HETATM   14  O   UNL     1     -15.364   3.687  13.886  1.00  0.00    -0.624 OA
HETATM   15  O   UNL     1     -16.080   6.092  13.826  1.00  0.00    -0.624 OA
BRANCH  13  16
HETATM   16  O   UNL     1     -15.093   5.182  15.963  1.00  0.00    -0.173 OA
BRANCH  16  17
HETATM   17  P   UNL     1     -13.464   5.272  16.012  1.00  0.00     0.431 P 
HETATM   18  O   UNL     1     -13.170   6.520  16.822  1.00  0.00    -0.616 OA
HETATM   19  O   UNL     1     -12.876   4.065  16.702  1.00  0.00    -0.616 OA
HETATM   20  O   UNL     1     -12.944   5.419  14.599  1.00  0.00    -0.616 OA
ENDBRANCH  16  17
ENDBRANCH  13  16
ENDBRANCH  12  13
ENDBRANCH   9  12
ENDBRANCH   8   9
ENDBRANCH   7   8
ENDBRANCH   4   7
BRANCH   3  21
HETATM   21  O   UNL     1     -13.936   1.652  15.610  1.00  0.00    -0.390 OA
ATOM     22  HO  UNL     1     -13.584   1.992  16.424  1.00  0.00     0.210 HD
ENDBRANCH   3  21
BRANCH   1  23
HETATM   23  N   UNL     1     -14.556  -2.036  18.534  1.00  0.00    -0.279 N 
HETATM   24  C   UNL     1     -15.371  -2.996  18.080  1.00  0.00     0.102 A 
HETATM   25  C   UNL     1     -15.412  -4.225  18.746  1.00  0.00     0.062 A 
HETATM   26  C   UNL     1     -14.614  -4.397  19.872  1.00  0.00     0.121 A 
HETATM   27  N   UNL     1     -14.621  -5.650  20.607  1.00  0.00    -0.083 NA
HETATM   28  N   UNL     1     -13.837  -3.397  20.282  1.00  0.00    -0.297 N 
HETATM   29  C   UNL     1     -13.822  -2.243  19.625  1.00  0.00     0.329 A 
ATOM     30  HN  UNL     1     -13.249  -3.517  21.107  1.00  0.00     0.171 HD
HETATM   31  O   UNL     1     -13.107  -1.376  20.028  1.00  0.00    -0.246 OA
ENDBRANCH   1  23
TORSDOF 9
ENDMDL
MODEL 16
REMARK VINA RESULT:    -6.709      5.095      8.943
REMARK INTER + INTRA:         -10.865
REMARK INTER:                  -9.258
REMARK INTRA:                  -1.606
REMARK UNBOUND:                -0.822
REMARK  9 active torsions:
REMARK  status: ('A' for Active; 'I' for Inactive)
REMARK    1  A    between atoms: C_1  and  N_11 
REMARK    2  A    between atoms: C_4  and  O_22 
REMARK    3  A    between atoms: C_6  and  C_8 
REMARK    4  A    between atoms: C_8  and  O_28 
REMARK    5  A    between atoms: O_24  and  P_29 
REMARK    6  A    between atoms: O_24  and  P_30 
REMARK    7  A    between atoms: O_25  and  P_31 
REMARK    8  A    between atoms: O_25  and  P_30 
REMARK    9  A    between atoms: O_28  and  P_29 
ROOT
HETATM    1  C   UNL     1     -16.247   0.531  16.410  1.00  0.00     0.269 C 
HETATM    2  C   UNL     1     -15.227   0.371  17.588  1.00  0.00     0.250 C 
HETATM    3  C   UNL     1     -15.915  -0.673  18.451  1.00  0.00     0.187 C 
HETATM    4  C   UNL     1     -17.190  -0.793  18.005  1.00  0.00     0.180 C 
HETATM    5  F   UNL     1     -14.061  -0.056  17.094  1.00  0.00    -0.242 F 
HETATM    6  O   UNL     1     -17.398   0.406  16.974  1.00  0.00    -0.353 OA
ENDROOT
BRANCH   4   7
HETATM    7  C   UNL     1     -18.258  -0.681  19.066  1.00  0.00     0.216 C 
BRANCH   7   8
HETATM    8  O   UNL     1     -18.480  -1.951  19.576  1.00  0.00    -0.287 OA
BRANCH   8   9
HETATM    9  P   UNL     1     -18.651  -2.186  21.196  1.00  0.00     0.417 P 
HETATM   10  O   UNL     1     -19.660  -1.216  21.764  1.00  0.00    -0.624 OA
HETATM   11  O   UNL     1     -19.028  -3.606  21.504  1.00  0.00    -0.624 OA
BRANCH   9  12
HETATM   12  O   UNL     1     -17.191  -1.995  21.948  1.00  0.00    -0.180 OA
BRANCH  12  13
HETATM   13  P   UNL     1     -15.944  -3.052  21.850  1.00  0.00     0.428 P 
HETATM   14  O   UNL     1     -14.682  -2.257  22.033  1.00  0.00    -0.624 OA
HETATM   15  O   UNL     1     -16.071  -4.176  22.863  1.00  0.00    -0.624 OA
BRANCH  13  16
HETATM   16  O   UNL     1     -15.970  -3.749  20.378  1.00  0.00    -0.173 OA
BRANCH  16  17
HETATM   17  P   UNL     1     -15.268  -5.168  19.982  1.00  0.00     0.431 P 
HETATM   18  O   UNL     1     -14.981  -5.057  18.497  1.00  0.00    -0.616 OA
HETATM   19  O   UNL     1     -13.976  -5.362  20.738  1.00  0.00    -0.616 OA
HETATM   20  O   UNL     1     -16.250  -6.287  20.253  1.00  0.00    -0.616 OA
ENDBRANCH  16  17
ENDBRANCH  13  16
ENDBRANCH  12  13
ENDBRANCH   9  12
ENDBRANCH   8   9
ENDBRANCH   7   8
ENDBRANCH   4   7
BRANCH   3  21
HETATM   21  O   UNL     1     -15.226  -1.995  18.293  1.00  0.00    -0.390 OA
ATOM     22  HO  UNL     1     -15.846  -2.699  18.441  1.00  0.00     0.210 HD
ENDBRANCH   3  21
BRANCH   1  23
HETATM   23  N   UNL     1     -16.249   1.850  15.702  1.00  0.00    -0.279 N 
HETATM   24  C   UNL     1     -15.974   2.973  16.375  1.00  0.00     0.102 A 
HETATM   25  C   UNL     1     -16.028   4.199  15.704  1.00  0.00     0.062 A 
HETATM   26  C   UNL     1     -16.385   4.205  14.360  1.00  0.00     0.121 A 
HETATM   27  N   UNL     1     -16.463   5.449  13.614  1.00  0.00    -0.083 NA
HETATM   28  N   UNL     1     -16.663   3.053  13.752  1.00  0.00    -0.297 N 
HETATM   29  C   UNL     1     -16.601   1.907  14.420  1.00  0.00     0.329 A 
ATOM     30  HN  UNL     1     -16.925   3.051  12.766  1.00  0.00     0.171 HD
HETATM   31  O   UNL     1     -16.856   0.900  13.831  1.00  0.00    -0.246 OA
ENDBRANCH   1  23
TORSDOF 9
ENDMDL
MODEL 17
REMARK VINA RESULT:    -6.637      4.406      6.683
REMARK INTER + INTRA:         -10.756
REMARK INTER:                  -9.585
REMARK INTRA:                  -1.171
REMARK UNBOUND:                -0.822
REMARK  9 active torsions:
REMARK  status: ('A' for Active; 'I' for Inactive)
REMARK    1  A    between atoms: C_1  and  N_11 
REMARK    2  A    between atoms: C_4  and  O_22 
REMARK    3  A    between atoms: C_6  and  C_8 
REMARK    4  A    between atoms: C_8  and  O_28 
REMARK    5  A    between atoms: O_24  and  P_29 
REMARK    6  A    between atoms: O_24  and  P_30 
REMARK    7  A    between atoms: O_25  and  P_31 
REMARK    8  A    between atoms: O_25  and  P_30 
REMARK    9  A    between atoms: O_28  and  P_29 
ROOT
HETATM    1  C   UNL     1     -15.797  -3.664  20.370  1.00  0.00     0.269 C 
HETATM    2  C   UNL     1     -15.484  -3.405  21.882  1.00  0.00     0.250 C 
HETATM    3  C   UNL     1     -16.554  -4.241  22.566  1.00  0.00     0.187 C 
HETATM    4  C   UNL     1     -17.457  -4.597  21.619  1.00  0.00     0.180 C 
HETATM    5  F   UNL     1     -14.247  -3.834  22.147  1.00  0.00    -0.242 F 
HETATM    6  O   UNL     1     -17.082  -3.743  20.325  1.00  0.00    -0.353 OA
ENDROOT
BRANCH   4   7
HETATM    7  C   UNL     1     -18.898  -4.308  21.963  1.00  0.00     0.216 C 
BRANCH   7   8
HETATM    8  O   UNL     1     -19.260  -3.138  21.314  1.00  0.00    -0.287 OA
BRANCH   8   9
HETATM    9  P   UNL     1     -20.846  -2.757  21.093  1.00  0.00     0.417 P 
HETATM   10  O   UNL     1     -21.697  -4.004  21.138  1.00  0.00    -0.624 OA
HETATM   11  O   UNL     1     -21.310  -1.746  22.102  1.00  0.00    -0.624 OA
BRANCH   9  12
HETATM   12  O   UNL     1     -21.041  -1.985  19.644  1.00  0.00    -0.180 OA
BRANCH  12  13
HETATM   13  P   UNL     1     -22.456  -1.876  18.828  1.00  0.00     0.428 P 
HETATM   14  O   UNL     1     -22.584  -3.127  18.005  1.00  0.00    -0.624 OA
HETATM   15  O   UNL     1     -23.637  -1.676  19.761  1.00  0.00    -0.624 OA
BRANCH  13  16
HETATM   16  O   UNL     1     -22.399  -0.564  17.865  1.00  0.00    -0.173 OA
BRANCH  16  17
HETATM   17  P   UNL     1     -21.087  -0.033  17.051  1.00  0.00     0.431 P 
HETATM   18  O   UNL     1     -21.633   0.955  16.038  1.00  0.00    -0.616 OA
HETATM   19  O   UNL     1     -20.123   0.667  17.978  1.00  0.00    -0.616 OA
HETATM   20  O   UNL     1     -20.441  -1.210  16.354  1.00  0.00    -0.616 OA
ENDBRANCH  16  17
ENDBRANCH  13  16
ENDBRANCH  12  13
ENDBRANCH   9  12
ENDBRANCH   8   9
ENDBRANCH   7   8
ENDBRANCH   4   7
BRANCH   3  21
HETATM   21  O   UNL     1     -15.938  -5.484  23.133  1.00  0.00    -0.390 OA
ATOM     22  HO  UNL     1     -15.989  -6.187  22.496  1.00  0.00     0.210 HD
ENDBRANCH   3  21
BRANCH   1  23
HETATM   23  N   UNL     1     -15.394  -2.589  19.410  1.00  0.00    -0.279 N 
HETATM   24  C   UNL     1     -16.297  -1.701  18.977  1.00  0.00     0.102 A 
HETATM   25  C   UNL     1     -15.908  -0.735  18.045  1.00  0.00     0.062 A 
HETATM   26  C   UNL     1     -14.594  -0.743  17.587  1.00  0.00     0.121 A 
HETATM   27  N   UNL     1     -14.136   0.233  16.614  1.00  0.00    -0.083 NA
HETATM   28  N   UNL     1     -13.748  -1.664  18.046  1.00  0.00    -0.297 N 
HETATM   29  C   UNL     1     -14.151  -2.567  18.932  1.00  0.00     0.329 A 
ATOM     30  HN  UNL     1     -12.783  -1.675  17.715  1.00  0.00     0.171 HD
HETATM   31  O   UNL     1     -13.356  -3.370  19.317  1.00  0.00    -0.246 OA
ENDBRANCH   1  23
TORSDOF 9
ENDMDL
MODEL 18
REMARK VINA RESULT:    -6.613     10.322     11.756
REMARK INTER + INTRA:         -10.721
REMARK INTER:                  -9.718
REMARK INTRA:                  -1.003
REMARK UNBOUND:                -0.822
REMARK  9 active torsions:
REMARK  status: ('A' for Active; 'I' for Inactive)
REMARK    1  A    between atoms: C_1  and  N_11 
REMARK    2  A    between atoms: C_4  and  O_22 
REMARK    3  A    between atoms: C_6  and  C_8 
REMARK    4  A    between atoms: C_8  and  O_28 
REMARK    5  A    between atoms: O_24  and  P_29 
REMARK    6  A    between atoms: O_24  and  P_30 
REMARK    7  A    between atoms: O_25  and  P_31 
REMARK    8  A    between atoms: O_25  and  P_30 
REMARK    9  A    between atoms: O_28  and  P_29 
ROOT
HETATM    1  C   UNL     1      -9.531   6.423  14.080  1.00  0.00     0.269 C 
HETATM    2  C   UNL     1      -8.726   7.589  14.746  1.00  0.00     0.250 C 
HETATM    3  C   UNL     1      -9.818   8.321  15.509  1.00  0.00     0.187 C 
HETATM    4  C   UNL     1     -11.008   7.847  15.067  1.00  0.00     0.180 C 
HETATM    5  F   UNL     1      -7.796   7.066  15.551  1.00  0.00    -0.242 F 
HETATM    6  O   UNL     1     -10.669   6.954  13.790  1.00  0.00    -0.353 OA
ENDROOT
BRANCH   4   7
HETATM    7  C   UNL     1     -12.004   8.900  14.643  1.00  0.00     0.216 C 
BRANCH   7   8
HETATM    8  O   UNL     1     -12.857   8.324  13.715  1.00  0.00    -0.287 OA
BRANCH   8   9
HETATM    9  P   UNL     1     -14.349   7.790  14.164  1.00  0.00     0.417 P 
HETATM   10  O   UNL     1     -14.862   8.592  15.337  1.00  0.00    -0.624 OA
HETATM   11  O   UNL     1     -15.312   7.832  13.013  1.00  0.00    -0.624 OA
BRANCH   9  12
HETATM   12  O   UNL     1     -14.275   6.186  14.558  1.00  0.00    -0.180 OA
BRANCH  12  13
HETATM   13  P   UNL     1     -15.573   5.248  14.898  1.00  0.00     0.428 P 
HETATM   14  O   UNL     1     -15.065   4.062  15.669  1.00  0.00    -0.624 OA
HETATM   15  O   UNL     1     -16.645   6.012  15.654  1.00  0.00    -0.624 OA
BRANCH  13  16
HETATM   16  O   UNL     1     -16.248   4.768  13.496  1.00  0.00    -0.173 OA
BRANCH  16  17
HETATM   17  P   UNL     1     -17.257   3.499  13.307  1.00  0.00     0.431 P 
HETATM   18  O   UNL     1     -17.661   3.540  11.846  1.00  0.00    -0.616 OA
HETATM   19  O   UNL     1     -16.551   2.198  13.605  1.00  0.00    -0.616 OA
HETATM   20  O   UNL     1     -18.462   3.701  14.199  1.00  0.00    -0.616 OA
ENDBRANCH  16  17
ENDBRANCH  13  16
ENDBRANCH  12  13
ENDBRANCH   9  12
ENDBRANCH   8   9
ENDBRANCH   7   8
ENDBRANCH   4   7
BRANCH   3  21
HETATM   21  O   UNL     1      -9.698   8.025  16.973  1.00  0.00    -0.390 OA
ATOM     22  HO  UNL     1     -10.294   8.580  17.462  1.00  0.00     0.210 HD
ENDBRANCH   3  21
BRANCH   1  23
HETATM   23  N   UNL     1      -8.974   5.867  12.807  1.00  0.00    -0.279 N 
HETATM   24  C   UNL     1      -8.917   6.630  11.709  1.00  0.00     0.102 A 
HETATM   25  C   UNL     1      -8.436   6.075  10.519  1.00  0.00     0.062 A 
HETATM   26  C   UNL     1      -8.048   4.739  10.518  1.00  0.00     0.121 A 
HETATM   27  N   UNL     1      -7.546   4.109   9.309  1.00  0.00    -0.083 NA
HETATM   28  N   UNL     1      -8.144   4.030  11.641  1.00  0.00    -0.297 N 
HETATM   29  C   UNL     1      -8.605   4.589  12.753  1.00  0.00     0.329 A 
ATOM     30  HN  UNL     1      -7.861   3.049  11.646  1.00  0.00     0.171 HD
HETATM   31  O   UNL     1      -8.670   3.914  13.736  1.00  0.00    -0.246 OA
ENDBRANCH   1  23
TORSDOF 9
ENDMDL
MODEL 19
REMARK VINA RESULT:    -6.551      5.584      8.143
REMARK INTER + INTRA:         -10.628
REMARK INTER:                  -9.304
REMARK INTRA:                  -1.323
REMARK UNBOUND:                -0.822
REMARK  9 active torsions:
REMARK  status: ('A' for Active; 'I' for Inactive)
REMARK    1  A    between atoms: C_1  and  N_11 
REMARK    2  A    between atoms: C_4  and  O_22 
REMARK    3  A    between atoms: C_6  and  C_8 
REMARK    4  A    between atoms: C_8  and  O_28 
REMARK    5  A    between atoms: O_24  and  P_29 
REMARK    6  A    between atoms: O_24  and  P_30 
REMARK    7  A    between atoms: O_25  and  P_31 
REMARK    8  A    between atoms: O_25  and  P_30 
REMARK    9  A    between atoms: O_28  and  P_29 
ROOT
HETATM    1  C   UNL     1     -20.822  -1.927  20.897  1.00  0.00     0.269 C 
HETATM    2  C   UNL     1     -21.691  -3.203  20.635  1.00  0.00     0.250 C 
HETATM    3  C   UNL     1     -21.554  -3.945  21.954  1.00  0.00     0.187 C 
HETATM    4  C   UNL     1     -20.549  -3.356  22.648  1.00  0.00     0.180 C 
HETATM    5  F   UNL     1     -22.948  -2.825  20.384  1.00  0.00    -0.242 F 
HETATM    6  O   UNL     1     -19.848  -2.355  21.624  1.00  0.00    -0.353 OA
ENDROOT
BRANCH   4   7
HETATM    7  C   UNL     1     -19.491  -4.297  23.173  1.00  0.00     0.216 C 
BRANCH   7   8
HETATM    8  O   UNL     1     -18.270  -3.887  22.659  1.00  0.00    -0.287 OA
BRANCH   8   9
HETATM    9  P   UNL     1     -17.242  -4.974  21.973  1.00  0.00     0.417 P 
HETATM   10  O   UNL     1     -15.946  -5.031  22.747  1.00  0.00    -0.624 OA
HETATM   11  O   UNL     1     -17.873  -6.332  21.868  1.00  0.00    -0.624 OA
BRANCH   9  12
HETATM   12  O   UNL     1     -16.948  -4.554  20.401  1.00  0.00    -0.180 OA
BRANCH  12  13
HETATM   13  P   UNL     1     -15.623  -4.998  19.548  1.00  0.00     0.428 P 
HETATM   14  O   UNL     1     -15.522  -6.494  19.646  1.00  0.00    -0.624 OA
HETATM   15  O   UNL     1     -15.686  -4.517  18.109  1.00  0.00    -0.624 OA
BRANCH  13  16
HETATM   16  O   UNL     1     -14.316  -4.293  20.216  1.00  0.00    -0.173 OA
BRANCH  16  17
HETATM   17  P   UNL     1     -13.990  -2.694  20.219  1.00  0.00     0.431 P 
HETATM   18  O   UNL     1     -15.342  -2.024  20.374  1.00  0.00    -0.616 OA
HETATM   19  O   UNL     1     -13.101  -2.325  21.382  1.00  0.00    -0.616 OA
HETATM   20  O   UNL     1     -13.361  -2.325  18.893  1.00  0.00    -0.616 OA
ENDBRANCH  16  17
ENDBRANCH  13  16
ENDBRANCH  12  13
ENDBRANCH   9  12
ENDBRANCH   8   9
ENDBRANCH   7   8
ENDBRANCH   4   7
BRANCH   3  21
HETATM   21  O   UNL     1     -22.822  -3.814  22.743  1.00  0.00    -0.390 OA
ATOM     22  HO  UNL     1     -23.317  -3.065  22.432  1.00  0.00     0.210 HD
ENDBRANCH   3  21
BRANCH   1  23
HETATM   23  N   UNL     1     -20.214  -1.274  19.695  1.00  0.00    -0.279 N 
HETATM   24  C   UNL     1     -18.990  -1.626  19.287  1.00  0.00     0.102 A 
HETATM   25  C   UNL     1     -18.423  -0.970  18.190  1.00  0.00     0.062 A 
HETATM   26  C   UNL     1     -19.151   0.042  17.572  1.00  0.00     0.121 A 
HETATM   27  N   UNL     1     -18.610   0.762  16.433  1.00  0.00    -0.083 NA
HETATM   28  N   UNL     1     -20.359   0.356  18.038  1.00  0.00    -0.297 N 
HETATM   29  C   UNL     1     -20.867  -0.289  19.082  1.00  0.00     0.329 A 
ATOM     30  HN  UNL     1     -20.898   1.097  17.589  1.00  0.00     0.171 HD
HETATM   31  O   UNL     1     -21.954   0.026  19.461  1.00  0.00    -0.246 OA
ENDBRANCH   1  23
TORSDOF 9
ENDMDL
MODEL 20
REMARK VINA RESULT:    -6.490      5.447      7.671
REMARK INTER + INTRA:         -10.537
REMARK INTER:                  -9.520
REMARK INTRA:                  -1.016
REMARK UNBOUND:                -0.822
REMARK  9 active torsions:
REMARK  status: ('A' for Active; 'I' for Inactive)
REMARK    1  A    between atoms: C_1  and  N_11 
REMARK    2  A    between atoms: C_4  and  O_22 
REMARK    3  A    between atoms: C_6  and  C_8 
REMARK    4  A    between atoms: C_8  and  O_28 
REMARK    5  A    between atoms: O_24  and  P_29 
REMARK    6  A    between atoms: O_24  and  P_30 
REMARK    7  A    between atoms: O_25  and  P_31 
REMARK    8  A    between atoms: O_25  and  P_30 
REMARK    9  A    between atoms: O_28  and  P_29 
ROOT
HETATM    1  C   UNL     1     -21.532  -2.907  21.194  1.00  0.00     0.269 C 
HETATM    2  C   UNL     1     -21.583  -2.756  22.752  1.00  0.00     0.250 C 
HETATM    3  C   UNL     1     -20.275  -2.034  23.034  1.00  0.00     0.187 C 
HETATM    4  C   UNL     1     -19.528  -2.093  21.904  1.00  0.00     0.180 C 
HETATM    5  F   UNL     1     -22.655  -2.028  23.080  1.00  0.00    -0.242 F 
HETATM    6  O   UNL     1     -20.286  -3.112  20.939  1.00  0.00    -0.353 OA
ENDROOT
BRANCH   4   7
HETATM    7  C   UNL     1     -18.117  -2.596  22.090  1.00  0.00     0.216 C 
BRANCH   7   8
HETATM    8  O   UNL     1     -17.938  -3.676  21.240  1.00  0.00    -0.287 OA
BRANCH   8   9
HETATM    9  P   UNL     1     -17.052  -4.980  21.715  1.00  0.00     0.417 P 
HETATM   10  O   UNL     1     -15.976  -4.558  22.687  1.00  0.00    -0.624 OA
HETATM   11  O   UNL     1     -17.927  -6.049  22.302  1.00  0.00    -0.624 OA
BRANCH   9  12
HETATM   12  O   UNL     1     -16.374  -5.708  20.394  1.00  0.00    -0.180 OA
BRANCH  12  13
HETATM   13  P   UNL     1     -15.586  -4.918  19.195  1.00  0.00     0.428 P 
HETATM   14  O   UNL     1     -15.045  -5.967  18.264  1.00  0.00    -0.624 OA
HETATM   15  O   UNL     1     -16.485  -3.923  18.484  1.00  0.00    -0.624 OA
BRANCH  13  16
HETATM   16  O   UNL     1     -14.370  -4.058  19.853  1.00  0.00    -0.173 OA
BRANCH  16  17
HETATM   17  P   UNL     1     -14.136  -2.451  19.681  1.00  0.00     0.431 P 
HETATM   18  O   UNL     1     -13.839  -2.259  18.206  1.00  0.00    -0.616 OA
HETATM   19  O   UNL     1     -15.378  -1.680  20.056  1.00  0.00    -0.616 OA
HETATM   20  O   UNL     1     -12.946  -2.043  20.522  1.00  0.00    -0.616 OA
ENDBRANCH  16  17
ENDBRANCH  13  16
ENDBRANCH  12  13
ENDBRANCH   9  12
ENDBRANCH   8   9
ENDBRANCH   7   8
ENDBRANCH   4   7
BRANCH   3  21
HETATM   21  O   UNL     1     -20.549  -0.596  23.352  1.00  0.00    -0.390 OA
ATOM     22  HO  UNL     1     -19.919  -0.282  23.989  1.00  0.00     0.210 HD
ENDBRANCH   3  21
BRANCH   1  23
HETATM   23  N   UNL     1     -22.291  -4.057  20.609  1.00  0.00    -0.279 N 
HETATM   24  C   UNL     1     -22.329  -5.231  21.250  1.00  0.00     0.102 A 
HETATM   25  C   UNL     1     -23.005  -6.305  20.662  1.00  0.00     0.062 A 
HETATM   26  C   UNL     1     -23.599  -6.116  19.419  1.00  0.00     0.121 A 
HETATM   27  N   UNL     1     -24.309  -7.198  18.758  1.00  0.00    -0.083 NA
HETATM   28  N   UNL     1     -23.511  -4.927  18.826  1.00  0.00    -0.297 N 
HETATM   29  C   UNL     1     -22.863  -3.928  19.414  1.00  0.00     0.329 A 
ATOM     30  HN  UNL     1     -23.946  -4.782  17.914  1.00  0.00     0.171 HD
HETATM   31  O   UNL     1     -22.813  -2.879  18.845  1.00  0.00    -0.246 OA
ENDBRANCH   1  23
TORSDOF 9
ENDMDL
