MODEL 1
REMARK VINA RESULT:    -9.364      0.000      0.000
REMARK INTER + INTRA:         -12.841
REMARK INTER:                 -12.101
REMARK INTRA:                  -0.741
REMARK UNBOUND:                -0.741
REMARK  5 active torsions:
REMARK  status: ('A' for Active; 'I' for Inactive)
REMARK    1  A    between atoms: C_6  and  C_7 
REMARK    2  A    between atoms: C_6  and  N_30 
REMARK    3  A    between atoms: C_14  and  C_16 
REMARK    4  A    between atoms: C_14  and  N_33 
REMARK    5  A    between atoms: C_15  and  C_23 
REMARK       I    between atoms: C_23  and  N_29 
ROOT
HETATM    1  O   UNL     1     180.480 127.190  30.256  1.00  0.00    -0.267 OA
HETATM    2  C   UNL     1     183.427 125.270  31.207  1.00  0.00     0.156 C 
HETATM    3  C   UNL     1     181.643 126.959  30.567  1.00  0.00     0.257 C 
HETATM    4  C   UNL     1     181.125 124.607  30.970  1.00  0.00     0.156 C 
HETATM    5  C   UNL     1     181.504 123.555  29.952  1.00  0.00     0.292 C 
HETATM    6  C   UNL     1     183.853 124.201  30.213  1.00  0.00     0.292 C 
HETATM    7  N   UNL     1     182.068 125.724  30.890  1.00  0.00    -0.344 N 
HETATM    8  N   UNL     1     182.876 123.072  30.287  1.00  0.00     0.098 N 
ENDROOT
BRANCH   8   9
HETATM    9  C   UNL     1     183.287 121.938  29.403  1.00  0.00     0.348 C 
BRANCH   9  10
HETATM   10  C   UNL     1     182.382 120.782  29.720  1.00  0.00     0.113 A 
HETATM   11  N   UNL     1     181.353 120.477  28.958  1.00  0.00    -0.342 N 
HETATM   12  C   UNL     1     180.692 119.457  29.645  1.00  0.00     0.060 A 
ATOM     13  HN  UNL     1     181.096 120.893  28.063  1.00  0.00     0.167 HD
HETATM   14  C   UNL     1     179.507 118.793  29.332  1.00  0.00     0.032 A 
HETATM   15  C   UNL     1     181.361 119.155  30.823  1.00  0.00     0.062 A 
HETATM   16  C   UNL     1     179.023 117.844  30.223  1.00  0.00     0.002 A 
HETATM   17  C   UNL     1     179.706 117.557  31.402  1.00  0.00     0.002 A 
HETATM   18  C   UNL     1     180.892 118.205  31.713  1.00  0.00     0.032 A 
HETATM   19  N   UNL     1     182.452 120.019  30.858  1.00  0.00    -0.333 N 
BRANCH  19  20
HETATM   20  C   UNL     1     183.409 120.136  31.977  1.00  0.00     0.139 C 
BRANCH  20  21
HETATM   21  C   UNL     1     184.615 119.168  31.974  1.00  0.00    -0.035 C 
HETATM   22  C   UNL     1     184.202 117.782  32.452  1.00  0.00     0.016 C 
HETATM   23  C   UNL     1     185.665 119.722  32.933  1.00  0.00     0.016 C 
HETATM   24  C   UNL     1     185.269 119.041  30.603  1.00  0.00     0.016 C 
ENDBRANCH  20  21
ENDBRANCH  19  20
ENDBRANCH   9  10
ENDBRANCH   8   9
BRANCH   3  25
HETATM   25  C   UNL     1     182.610 128.113  30.676  1.00  0.00     0.079 A 
HETATM   26  C   UNL     1     183.087 128.861  29.614  1.00  0.00     0.042 A 
HETATM   27  N   UNL     1     183.821 129.875  30.099  1.00  0.00    -0.300 N 
HETATM   28  C   UNL     1     182.939 128.679  28.142  1.00  0.00     0.071 C 
HETATM   29  C   UNL     1     184.526 130.934  29.387  1.00  0.00     0.177 C 
HETATM   30  N   UNL     1     183.877 129.828  31.459  1.00  0.00    -0.302 N 
HETATM   31  C   UNL     1     183.162 128.778  31.815  1.00  0.00     0.040 A 
ATOM     32  HN  UNL     1     184.372 130.472  32.076  1.00  0.00     0.186 HD
HETATM   33  C   UNL     1     183.010 128.466  33.266  1.00  0.00     0.071 C 
ENDBRANCH   3  25
TORSDOF 5
ENDMDL
MODEL 2
REMARK VINA RESULT:    -9.203      0.458      1.553
REMARK INTER + INTRA:         -12.634
REMARK INTER:                 -11.949
REMARK INTRA:                  -0.684
REMARK UNBOUND:                -0.741
REMARK  5 active torsions:
REMARK  status: ('A' for Active; 'I' for Inactive)
REMARK    1  A    between atoms: C_6  and  C_7 
REMARK    2  A    between atoms: C_6  and  N_30 
REMARK    3  A    between atoms: C_14  and  C_16 
REMARK    4  A    between atoms: C_14  and  N_33 
REMARK    5  A    between atoms: C_15  and  C_23 
REMARK       I    between atoms: C_23  and  N_29 
ROOT
HETATM    1  O   UNL     1     180.482 127.169  30.300  1.00  0.00    -0.267 OA
HETATM    2  C   UNL     1     183.497 125.294  31.118  1.00  0.00     0.156 C 
HETATM    3  C   UNL     1     181.661 126.955  30.555  1.00  0.00     0.257 C 
HETATM    4  C   UNL     1     181.195 124.600  31.000  1.00  0.00     0.156 C 
HETATM    5  C   UNL     1     181.537 123.545  29.972  1.00  0.00     0.292 C 
HETATM    6  C   UNL     1     183.887 124.223  30.111  1.00  0.00     0.292 C 
HETATM    7  N   UNL     1     182.118 125.728  30.865  1.00  0.00    -0.344 N 
HETATM    8  N   UNL     1     182.930 123.082  30.242  1.00  0.00     0.098 N 
ENDROOT
BRANCH   8   9
HETATM    9  C   UNL     1     183.311 121.946  29.346  1.00  0.00     0.348 C 
BRANCH   9  10
HETATM   10  C   UNL     1     182.406 120.796  29.684  1.00  0.00     0.113 A 
HETATM   11  N   UNL     1     181.370 120.485  28.935  1.00  0.00    -0.342 N 
HETATM   12  C   UNL     1     180.712 119.474  29.639  1.00  0.00     0.060 A 
ATOM     13  HN  UNL     1     181.106 120.892  28.038  1.00  0.00     0.167 HD
HETATM   14  C   UNL     1     179.524 118.809  29.344  1.00  0.00     0.032 A 
HETATM   15  C   UNL     1     181.392 119.184  30.815  1.00  0.00     0.062 A 
HETATM   16  C   UNL     1     179.045 117.872  30.250  1.00  0.00     0.002 A 
HETATM   17  C   UNL     1     179.738 117.596  31.426  1.00  0.00     0.002 A 
HETATM   18  C   UNL     1     180.928 118.244  31.719  1.00  0.00     0.032 A 
HETATM   19  N   UNL     1     182.485 120.045  30.830  1.00  0.00    -0.333 N 
BRANCH  19  20
HETATM   20  C   UNL     1     183.452 120.172  31.939  1.00  0.00     0.139 C 
BRANCH  20  21
HETATM   21  C   UNL     1     184.650 119.195  31.941  1.00  0.00    -0.035 C 
HETATM   22  C   UNL     1     184.221 117.808  32.400  1.00  0.00     0.016 C 
HETATM   23  C   UNL     1     185.693 119.731  32.919  1.00  0.00     0.016 C 
HETATM   24  C   UNL     1     185.321 119.076  30.578  1.00  0.00     0.016 C 
ENDBRANCH  20  21
ENDBRANCH  19  20
ENDBRANCH   9  10
ENDBRANCH   8   9
BRANCH   3  25
HETATM   25  C   UNL     1     182.617 128.122  30.608  1.00  0.00     0.079 A 
HETATM   26  C   UNL     1     183.110 128.702  31.764  1.00  0.00     0.042 A 
HETATM   27  N   UNL     1     184.024 129.624  31.425  1.00  0.00    -0.300 N 
HETATM   28  C   UNL     1     182.760 128.483  33.196  1.00  0.00     0.071 C 
HETATM   29  C   UNL     1     184.825 130.495  32.278  1.00  0.00     0.177 C 
HETATM   30  N   UNL     1     184.154 129.707  30.071  1.00  0.00    -0.302 N 
HETATM   31  C   UNL     1     183.316 128.818  29.573  1.00  0.00     0.040 A 
ATOM     32  HN  UNL     1     184.772 130.329  29.550  1.00  0.00     0.186 HD
HETATM   33  C   UNL     1     183.239 128.649  28.092  1.00  0.00     0.071 C 
ENDBRANCH   3  25
TORSDOF 5
ENDMDL
MODEL 3
REMARK VINA RESULT:    -9.065      2.742      4.456
REMARK INTER + INTRA:         -12.456
REMARK INTER:                 -11.680
REMARK INTRA:                  -0.776
REMARK UNBOUND:                -0.741
REMARK  5 active torsions:
REMARK  status: ('A' for Active; 'I' for Inactive)
REMARK    1  A    between atoms: C_6  and  C_7 
REMARK    2  A    between atoms: C_6  and  N_30 
REMARK    3  A    between atoms: C_14  and  C_16 
REMARK    4  A    between atoms: C_14  and  N_33 
REMARK    5  A    between atoms: C_15  and  C_23 
REMARK       I    between atoms: C_23  and  N_29 
ROOT
HETATM    1  O   UNL     1     184.497 128.446  29.192  1.00  0.00    -0.267 OA
HETATM    2  C   UNL     1     184.219 124.815  29.070  1.00  0.00     0.156 C 
HETATM    3  C   UNL     1     184.031 127.342  28.931  1.00  0.00     0.257 C 
HETATM    4  C   UNL     1     186.009 126.231  29.835  1.00  0.00     0.156 C 
HETATM    5  C   UNL     1     185.967 125.591  31.204  1.00  0.00     0.292 C 
HETATM    6  C   UNL     1     184.168 124.122  30.423  1.00  0.00     0.292 C 
HETATM    7  N   UNL     1     184.670 126.200  29.243  1.00  0.00    -0.344 N 
HETATM    8  N   UNL     1     185.533 124.174  31.030  1.00  0.00     0.098 N 
ENDROOT
BRANCH   8   9
HETATM    9  C   UNL     1     185.582 123.425  32.324  1.00  0.00     0.348 C 
BRANCH   9  10
HETATM   10  C   UNL     1     185.536 121.961  31.988  1.00  0.00     0.113 A 
HETATM   11  N   UNL     1     186.507 121.371  31.325  1.00  0.00    -0.342 N 
HETATM   12  C   UNL     1     186.040 120.076  31.090  1.00  0.00     0.060 A 
ATOM     13  HN  UNL     1     187.402 121.770  31.044  1.00  0.00     0.167 HD
HETATM   14  C   UNL     1     186.629 119.030  30.382  1.00  0.00     0.032 A 
HETATM   15  C   UNL     1     184.778 119.909  31.643  1.00  0.00     0.062 A 
HETATM   16  C   UNL     1     185.923 117.842  30.242  1.00  0.00     0.002 A 
HETATM   17  C   UNL     1     184.656 117.694  30.801  1.00  0.00     0.002 A 
HETATM   18  C   UNL     1     184.070 118.726  31.518  1.00  0.00     0.032 A 
HETATM   19  N   UNL     1     184.465 121.136  32.221  1.00  0.00    -0.333 N 
BRANCH  19  20
HETATM   20  C   UNL     1     183.173 121.474  32.852  1.00  0.00     0.139 C 
BRANCH  20  21
HETATM   21  C   UNL     1     181.952 121.624  31.915  1.00  0.00    -0.035 C 
HETATM   22  C   UNL     1     181.232 122.942  32.165  1.00  0.00     0.016 C 
HETATM   23  C   UNL     1     180.988 120.478  32.211  1.00  0.00     0.016 C 
HETATM   24  C   UNL     1     182.323 121.539  30.439  1.00  0.00     0.016 C 
ENDBRANCH  20  21
ENDBRANCH  19  20
ENDBRANCH   9  10
ENDBRANCH   8   9
BRANCH   3  25
HETATM   25  C   UNL     1     182.738 127.265  28.155  1.00  0.00     0.079 A 
HETATM   26  C   UNL     1     182.629 127.294  26.775  1.00  0.00     0.042 A 
HETATM   27  N   UNL     1     181.347 127.077  26.443  1.00  0.00    -0.300 N 
HETATM   28  C   UNL     1     183.646 127.550  25.717  1.00  0.00     0.071 C 
HETATM   29  C   UNL     1     180.729 127.007  25.123  1.00  0.00     0.177 C 
HETATM   30  N   UNL     1     180.574 126.924  27.554  1.00  0.00    -0.302 N 
HETATM   31  C   UNL     1     181.393 127.038  28.582  1.00  0.00     0.040 A 
ATOM     32  HN  UNL     1     179.569 126.756  27.585  1.00  0.00     0.186 HD
HETATM   33  C   UNL     1     180.844 126.894  29.962  1.00  0.00     0.071 C 
ENDBRANCH   3  25
TORSDOF 5
ENDMDL
MODEL 4
REMARK VINA RESULT:    -8.922      3.039      8.427
REMARK INTER + INTRA:         -12.271
REMARK INTER:                 -11.415
REMARK INTRA:                  -0.856
REMARK UNBOUND:                -0.741
REMARK  5 active torsions:
REMARK  status: ('A' for Active; 'I' for Inactive)
REMARK    1  A    between atoms: C_6  and  C_7 
REMARK    2  A    between atoms: C_6  and  N_30 
REMARK    3  A    between atoms: C_14  and  C_16 
REMARK    4  A    between atoms: C_14  and  N_33 
REMARK    5  A    between atoms: C_15  and  C_23 
REMARK       I    between atoms: C_23  and  N_29 
ROOT
HETATM    1  O   UNL     1     182.922 121.342  33.413  1.00  0.00    -0.267 OA
HETATM    2  C   UNL     1     182.374 122.193  29.913  1.00  0.00     0.156 C 
HETATM    3  C   UNL     1     182.985 121.257  32.191  1.00  0.00     0.257 C 
HETATM    4  C   UNL     1     181.453 123.140  31.925  1.00  0.00     0.156 C 
HETATM    5  C   UNL     1     181.981 124.508  31.556  1.00  0.00     0.292 C 
HETATM    6  C   UNL     1     182.891 123.559  29.488  1.00  0.00     0.292 C 
HETATM    7  N   UNL     1     182.341 122.113  31.377  1.00  0.00    -0.344 N 
HETATM    8  N   UNL     1     181.991 124.604  30.066  1.00  0.00     0.098 N 
ENDROOT
BRANCH   8   9
HETATM    9  C   UNL     1     182.383 125.973  29.610  1.00  0.00     0.348 C 
BRANCH   9  10
HETATM   10  C   UNL     1     181.573 126.277  28.382  1.00  0.00     0.113 A 
HETATM   11  N   UNL     1     180.512 125.569  28.058  1.00  0.00    -0.342 N 
HETATM   12  C   UNL     1     180.126 126.058  26.809  1.00  0.00     0.060 A 
ATOM     13  HN  UNL     1     180.069 124.827  28.600  1.00  0.00     0.167 HD
HETATM   14  C   UNL     1     179.099 125.640  25.965  1.00  0.00     0.032 A 
HETATM   15  C   UNL     1     180.973 127.083  26.408  1.00  0.00     0.062 A 
HETATM   16  C   UNL     1     178.958 126.261  24.731  1.00  0.00     0.002 A 
HETATM   17  C   UNL     1     179.819 127.285  24.344  1.00  0.00     0.002 A 
HETATM   18  C   UNL     1     180.835 127.715  25.185  1.00  0.00     0.032 A 
HETATM   19  N   UNL     1     181.903 127.214  27.435  1.00  0.00    -0.333 N 
BRANCH  19  20
HETATM   20  C   UNL     1     183.069 128.119  27.416  1.00  0.00     0.139 C 
BRANCH  20  21
HETATM   21  C   UNL     1     184.383 127.560  26.822  1.00  0.00    -0.035 C 
HETATM   22  C   UNL     1     185.222 126.883  27.898  1.00  0.00     0.016 C 
HETATM   23  C   UNL     1     185.177 128.731  26.249  1.00  0.00     0.016 C 
HETATM   24  C   UNL     1     184.146 126.570  25.688  1.00  0.00     0.016 C 
ENDBRANCH  20  21
ENDBRANCH  19  20
ENDBRANCH   9  10
ENDBRANCH   8   9
BRANCH   3  25
HETATM   25  C   UNL     1     183.741 120.101  31.582  1.00  0.00     0.079 A 
HETATM   26  C   UNL     1     185.104 120.073  31.342  1.00  0.00     0.042 A 
HETATM   27  N   UNL     1     185.438 118.846  30.914  1.00  0.00    -0.300 N 
HETATM   28  C   UNL     1     186.141 121.138  31.450  1.00  0.00     0.071 C 
HETATM   29  C   UNL     1     186.745 118.317  30.538  1.00  0.00     0.177 C 
HETATM   30  N   UNL     1     184.341 118.043  30.831  1.00  0.00    -0.302 N 
HETATM   31  C   UNL     1     183.322 118.783  31.224  1.00  0.00     0.040 A 
ATOM     32  HN  UNL     1     184.313 117.069  30.528  1.00  0.00     0.186 HD
HETATM   33  C   UNL     1     181.961 118.171  31.268  1.00  0.00     0.071 C 
ENDBRANCH   3  25
TORSDOF 5
ENDMDL
MODEL 5
REMARK VINA RESULT:    -8.807      4.575      6.034
REMARK INTER + INTRA:         -12.122
REMARK INTER:                 -11.262
REMARK INTRA:                  -0.860
REMARK UNBOUND:                -0.741
REMARK  5 active torsions:
REMARK  status: ('A' for Active; 'I' for Inactive)
REMARK    1  A    between atoms: C_6  and  C_7 
REMARK    2  A    between atoms: C_6  and  N_30 
REMARK    3  A    between atoms: C_14  and  C_16 
REMARK    4  A    between atoms: C_14  and  N_33 
REMARK    5  A    between atoms: C_15  and  C_23 
REMARK       I    between atoms: C_23  and  N_29 
ROOT
HETATM    1  O   UNL     1     188.404 125.047  35.965  1.00  0.00    -0.267 OA
HETATM    2  C   UNL     1     188.140 125.993  32.457  1.00  0.00     0.156 C 
HETATM    3  C   UNL     1     188.384 125.766  34.973  1.00  0.00     0.257 C 
HETATM    4  C   UNL     1     188.226 123.825  33.500  1.00  0.00     0.156 C 
HETATM    5  C   UNL     1     186.901 123.443  32.879  1.00  0.00     0.292 C 
HETATM    6  C   UNL     1     186.823 125.635  31.786  1.00  0.00     0.292 C 
HETATM    7  N   UNL     1     188.256 125.271  33.729  1.00  0.00    -0.344 N 
HETATM    8  N   UNL     1     186.790 124.156  31.572  1.00  0.00     0.098 N 
ENDROOT
BRANCH   8   9
HETATM    9  C   UNL     1     185.562 123.740  30.826  1.00  0.00     0.348 C 
BRANCH   9  10
HETATM   10  C   UNL     1     185.467 122.245  30.932  1.00  0.00     0.113 A 
HETATM   11  N   UNL     1     186.275 121.449  30.264  1.00  0.00    -0.342 N 
HETATM   12  C   UNL     1     185.790 120.163  30.509  1.00  0.00     0.060 A 
ATOM     13  HN  UNL     1     187.078 121.714  29.694  1.00  0.00     0.167 HD
HETATM   14  C   UNL     1     186.224 118.936  30.011  1.00  0.00     0.032 A 
HETATM   15  C   UNL     1     184.686 120.214  31.350  1.00  0.00     0.062 A 
HETATM   16  C   UNL     1     185.525 117.790  30.368  1.00  0.00     0.002 A 
HETATM   17  C   UNL     1     184.418 117.861  31.209  1.00  0.00     0.002 A 
HETATM   18  C   UNL     1     183.989 119.077  31.719  1.00  0.00     0.032 A 
HETATM   19  N   UNL     1     184.489 121.567  31.616  1.00  0.00    -0.333 N 
BRANCH  19  20
HETATM   20  C   UNL     1     183.366 122.125  32.393  1.00  0.00     0.139 C 
BRANCH  20  21
HETATM   21  C   UNL     1     181.980 122.149  31.708  1.00  0.00    -0.035 C 
HETATM   22  C   UNL     1     181.279 123.481  31.942  1.00  0.00     0.016 C 
HETATM   23  C   UNL     1     181.132 121.037  32.321  1.00  0.00     0.016 C 
HETATM   24  C   UNL     1     182.056 121.891  30.207  1.00  0.00     0.016 C 
ENDBRANCH  20  21
ENDBRANCH  19  20
ENDBRANCH   9  10
ENDBRANCH   8   9
BRANCH   3  25
HETATM   25  C   UNL     1     188.598 127.250  35.148  1.00  0.00     0.079 A 
HETATM   26  C   UNL     1     187.593 128.196  35.264  1.00  0.00     0.042 A 
HETATM   27  N   UNL     1     188.153 129.386  35.531  1.00  0.00    -0.300 N 
HETATM   28  C   UNL     1     186.116 128.080  35.107  1.00  0.00     0.071 C 
HETATM   29  C   UNL     1     187.521 130.682  35.746  1.00  0.00     0.177 C 
HETATM   30  N   UNL     1     189.511 129.285  35.578  1.00  0.00    -0.302 N 
HETATM   31  C   UNL     1     189.788 128.017  35.346  1.00  0.00     0.040 A 
ATOM     32  HN  UNL     1     190.177 130.038  35.754  1.00  0.00     0.186 HD
HETATM   33  C   UNL     1     191.214 127.576  35.353  1.00  0.00     0.071 C 
ENDBRANCH   3  25
TORSDOF 5
ENDMDL
MODEL 6
REMARK VINA RESULT:    -8.663      4.654      6.080
REMARK INTER + INTRA:         -11.936
REMARK INTER:                 -11.126
REMARK INTRA:                  -0.810
REMARK UNBOUND:                -0.741
REMARK  5 active torsions:
REMARK  status: ('A' for Active; 'I' for Inactive)
REMARK    1  A    between atoms: C_6  and  C_7 
REMARK    2  A    between atoms: C_6  and  N_30 
REMARK    3  A    between atoms: C_14  and  C_16 
REMARK    4  A    between atoms: C_14  and  N_33 
REMARK    5  A    between atoms: C_15  and  C_23 
REMARK       I    between atoms: C_23  and  N_29 
ROOT
HETATM    1  O   UNL     1     188.413 124.990  35.972  1.00  0.00    -0.267 OA
HETATM    2  C   UNL     1     188.018 126.028  32.502  1.00  0.00     0.156 C 
HETATM    3  C   UNL     1     188.341 125.737  35.002  1.00  0.00     0.257 C 
HETATM    4  C   UNL     1     188.205 123.835  33.477  1.00  0.00     0.156 C 
HETATM    5  C   UNL     1     186.877 123.426  32.881  1.00  0.00     0.292 C 
HETATM    6  C   UNL     1     186.695 125.644  31.857  1.00  0.00     0.292 C 
HETATM    7  N   UNL     1     188.194 125.273  33.748  1.00  0.00    -0.344 N 
HETATM    8  N   UNL     1     186.705 124.172  31.600  1.00  0.00     0.098 N 
ENDROOT
BRANCH   8   9
HETATM    9  C   UNL     1     185.470 123.736  30.876  1.00  0.00     0.348 C 
BRANCH   9  10
HETATM   10  C   UNL     1     185.419 122.237  30.955  1.00  0.00     0.113 A 
HETATM   11  N   UNL     1     186.229 121.477  30.250  1.00  0.00    -0.342 N 
HETATM   12  C   UNL     1     185.786 120.173  30.483  1.00  0.00     0.060 A 
ATOM     13  HN  UNL     1     187.008 121.774  29.663  1.00  0.00     0.167 HD
HETATM   14  C   UNL     1     186.239 118.968  29.949  1.00  0.00     0.032 A 
HETATM   15  C   UNL     1     184.706 120.178  31.355  1.00  0.00     0.062 A 
HETATM   16  C   UNL     1     185.582 117.797  30.302  1.00  0.00     0.002 A 
HETATM   17  C   UNL     1     184.497 117.821  31.175  1.00  0.00     0.002 A 
HETATM   18  C   UNL     1     184.050 119.016  31.720  1.00  0.00     0.032 A 
HETATM   19  N   UNL     1     184.479 121.519  31.652  1.00  0.00    -0.333 N 
BRANCH  19  20
HETATM   20  C   UNL     1     183.364 122.032  32.471  1.00  0.00     0.139 C 
BRANCH  20  21
HETATM   21  C   UNL     1     181.955 122.009  31.833  1.00  0.00    -0.035 C 
HETATM   22  C   UNL     1     182.042 121.788  30.329  1.00  0.00     0.016 C 
HETATM   23  C   UNL     1     181.300 123.365  32.089  1.00  0.00     0.016 C 
HETATM   24  C   UNL     1     181.048 120.943  32.436  1.00  0.00     0.016 C 
ENDBRANCH  20  21
ENDBRANCH  19  20
ENDBRANCH   9  10
ENDBRANCH   8   9
BRANCH   3  25
HETATM   25  C   UNL     1     188.510 127.222  35.215  1.00  0.00     0.079 A 
HETATM   26  C   UNL     1     189.722 127.886  35.300  1.00  0.00     0.042 A 
HETATM   27  N   UNL     1     189.483 129.205  35.363  1.00  0.00    -0.300 N 
HETATM   28  C   UNL     1     191.119 127.372  35.364  1.00  0.00     0.071 C 
HETATM   29  C   UNL     1     190.424 130.315  35.456  1.00  0.00     0.177 C 
HETATM   30  N   UNL     1     188.145 129.460  35.348  1.00  0.00    -0.302 N 
HETATM   31  C   UNL     1     187.554 128.283  35.264  1.00  0.00     0.040 A 
ATOM     32  HN  UNL     1     187.693 130.373  35.392  1.00  0.00     0.186 HD
HETATM   33  C   UNL     1     186.064 128.227  35.203  1.00  0.00     0.071 C 
ENDBRANCH   3  25
TORSDOF 5
ENDMDL
MODEL 7
REMARK VINA RESULT:    -8.622      2.208      4.634
REMARK INTER + INTRA:         -11.883
REMARK INTER:                 -10.913
REMARK INTRA:                  -0.969
REMARK UNBOUND:                -0.741
REMARK  5 active torsions:
REMARK  status: ('A' for Active; 'I' for Inactive)
REMARK    1  A    between atoms: C_6  and  C_7 
REMARK    2  A    between atoms: C_6  and  N_30 
REMARK    3  A    between atoms: C_14  and  C_16 
REMARK    4  A    between atoms: C_14  and  N_33 
REMARK    5  A    between atoms: C_15  and  C_23 
REMARK       I    between atoms: C_23  and  N_29 
ROOT
HETATM    1  O   UNL     1     182.045 128.681  28.577  1.00  0.00    -0.267 OA
HETATM    2  C   UNL     1     185.076 126.962  29.642  1.00  0.00     0.156 C 
HETATM    3  C   UNL     1     183.241 128.459  28.727  1.00  0.00     0.257 C 
HETATM    4  C   UNL     1     182.761 126.523  30.136  1.00  0.00     0.156 C 
HETATM    5  C   UNL     1     182.879 125.123  29.577  1.00  0.00     0.292 C 
HETATM    6  C   UNL     1     185.244 125.550  29.103  1.00  0.00     0.292 C 
HETATM    7  N   UNL     1     183.693 127.406  29.433  1.00  0.00    -0.344 N 
HETATM    8  N   UNL     1     184.277 124.657  29.811  1.00  0.00     0.098 N 
ENDROOT
BRANCH   8   9
HETATM    9  C   UNL     1     184.453 123.229  29.399  1.00  0.00     0.348 C 
BRANCH   9  10
HETATM   10  C   UNL     1     185.065 122.506  30.566  1.00  0.00     0.113 A 
HETATM   11  N   UNL     1     186.012 123.050  31.299  1.00  0.00    -0.342 N 
HETATM   12  C   UNL     1     186.410 122.038  32.174  1.00  0.00     0.060 A 
ATOM     13  HN  UNL     1     186.375 124.002  31.242  1.00  0.00     0.167 HD
HETATM   14  C   UNL     1     187.418 122.035  33.137  1.00  0.00     0.032 A 
HETATM   15  C   UNL     1     185.666 120.887  31.952  1.00  0.00     0.062 A 
HETATM   16  C   UNL     1     187.656 120.865  33.845  1.00  0.00     0.002 A 
HETATM   17  C   UNL     1     186.903 119.718  33.606  1.00  0.00     0.002 A 
HETATM   18  C   UNL     1     185.889 119.719  32.659  1.00  0.00     0.032 A 
HETATM   19  N   UNL     1     184.800 121.205  30.909  1.00  0.00    -0.333 N 
BRANCH  19  20
HETATM   20  C   UNL     1     183.873 120.260  30.256  1.00  0.00     0.139 C 
BRANCH  20  21
HETATM   21  C   UNL     1     182.403 120.273  30.734  1.00  0.00    -0.035 C 
HETATM   22  C   UNL     1     181.925 118.866  31.066  1.00  0.00     0.016 C 
HETATM   23  C   UNL     1     181.543 120.826  29.600  1.00  0.00     0.016 C 
HETATM   24  C   UNL     1     182.183 121.166  31.950  1.00  0.00     0.016 C 
ENDBRANCH  20  21
ENDBRANCH  19  20
ENDBRANCH   9  10
ENDBRANCH   8   9
BRANCH   3  25
HETATM   25  C   UNL     1     184.239 129.447  28.175  1.00  0.00     0.079 A 
HETATM   26  C   UNL     1     184.535 130.681  28.729  1.00  0.00     0.042 A 
HETATM   27  N   UNL     1     185.553 131.225  28.044  1.00  0.00    -0.300 N 
HETATM   28  C   UNL     1     183.905 131.426  29.855  1.00  0.00     0.071 C 
HETATM   29  C   UNL     1     186.227 132.503  28.242  1.00  0.00     0.177 C 
HETATM   30  N   UNL     1     185.944 130.411  27.024  1.00  0.00    -0.302 N 
HETATM   31  C   UNL     1     185.164 129.349  27.090  1.00  0.00     0.040 A 
ATOM     32  HN  UNL     1     186.687 130.587  26.348  1.00  0.00     0.186 HD
HETATM   33  C   UNL     1     185.362 128.246  26.104  1.00  0.00     0.071 C 
ENDBRANCH   3  25
TORSDOF 5
ENDMDL
MODEL 8
REMARK VINA RESULT:    -8.490      2.825      8.925
REMARK INTER + INTRA:         -11.712
REMARK INTER:                 -10.387
REMARK INTRA:                  -1.325
REMARK UNBOUND:                -0.741
REMARK  5 active torsions:
REMARK  status: ('A' for Active; 'I' for Inactive)
REMARK    1  A    between atoms: C_6  and  C_7 
REMARK    2  A    between atoms: C_6  and  N_30 
REMARK    3  A    between atoms: C_14  and  C_16 
REMARK    4  A    between atoms: C_14  and  N_33 
REMARK    5  A    between atoms: C_15  and  C_23 
REMARK       I    between atoms: C_23  and  N_29 
ROOT
HETATM    1  O   UNL     1     185.329 120.539  29.508  1.00  0.00    -0.267 OA
HETATM    2  C   UNL     1     183.525 122.720  31.801  1.00  0.00     0.156 C 
HETATM    3  C   UNL     1     184.456 120.911  30.284  1.00  0.00     0.257 C 
HETATM    4  C   UNL     1     185.679 122.971  30.757  1.00  0.00     0.156 C 
HETATM    5  C   UNL     1     185.252 124.276  30.125  1.00  0.00     0.292 C 
HETATM    6  C   UNL     1     183.068 124.046  31.212  1.00  0.00     0.292 C 
HETATM    7  N   UNL     1     184.513 122.100  30.911  1.00  0.00    -0.344 N 
HETATM    8  N   UNL     1     184.266 124.923  31.040  1.00  0.00     0.098 N 
ENDROOT
BRANCH   8   9
HETATM    9  C   UNL     1     183.880 126.284  30.553  1.00  0.00     0.348 C 
BRANCH   9  10
HETATM   10  C   UNL     1     183.875 127.195  31.747  1.00  0.00     0.113 A 
HETATM   11  N   UNL     1     182.754 127.628  32.284  1.00  0.00    -0.342 N 
HETATM   12  C   UNL     1     183.158 128.542  33.260  1.00  0.00     0.060 A 
ATOM     13  HN  UNL     1     181.801 127.357  32.042  1.00  0.00     0.167 HD
HETATM   14  C   UNL     1     182.391 129.347  34.100  1.00  0.00     0.032 A 
HETATM   15  C   UNL     1     184.543 128.627  33.298  1.00  0.00     0.062 A 
HETATM   16  C   UNL     1     183.044 130.226  34.954  1.00  0.00     0.002 A 
HETATM   17  C   UNL     1     184.434 130.301  34.977  1.00  0.00     0.002 A 
HETATM   18  C   UNL     1     185.203 129.494  34.152  1.00  0.00     0.032 A 
HETATM   19  N   UNL     1     184.993 127.750  32.315  1.00  0.00    -0.333 N 
BRANCH  19  20
HETATM   20  C   UNL     1     186.403 127.570  31.917  1.00  0.00     0.139 C 
BRANCH  20  21
HETATM   21  C   UNL     1     187.267 126.636  32.796  1.00  0.00    -0.035 C 
HETATM   22  C   UNL     1     188.174 127.440  33.718  1.00  0.00     0.016 C 
HETATM   23  C   UNL     1     188.139 125.792  31.870  1.00  0.00     0.016 C 
HETATM   24  C   UNL     1     186.434 125.677  33.639  1.00  0.00     0.016 C 
ENDBRANCH  20  21
ENDBRANCH  19  20
ENDBRANCH   9  10
ENDBRANCH   8   9
BRANCH   3  25
HETATM   25  C   UNL     1     183.326 119.967  30.614  1.00  0.00     0.079 A 
HETATM   26  C   UNL     1     182.062 120.002  30.049  1.00  0.00     0.042 A 
HETATM   27  N   UNL     1     181.368 118.940  30.487  1.00  0.00    -0.300 N 
HETATM   28  C   UNL     1     181.424 120.992  29.137  1.00  0.00     0.071 C 
HETATM   29  C   UNL     1     180.002 118.532  30.178  1.00  0.00     0.177 C 
HETATM   30  N   UNL     1     182.111 118.195  31.352  1.00  0.00    -0.302 N 
HETATM   31  C   UNL     1     183.280 118.800  31.438  1.00  0.00     0.040 A 
ATOM     32  HN  UNL     1     181.822 117.343  31.834  1.00  0.00     0.186 HD
HETATM   33  C   UNL     1     184.339 118.205  32.306  1.00  0.00     0.071 C 
ENDBRANCH   3  25
TORSDOF 5
ENDMDL
MODEL 9
REMARK VINA RESULT:    -8.454      2.132      9.474
REMARK INTER + INTRA:         -11.666
REMARK INTER:                 -10.665
REMARK INTRA:                  -1.001
REMARK UNBOUND:                -0.741
REMARK  5 active torsions:
REMARK  status: ('A' for Active; 'I' for Inactive)
REMARK    1  A    between atoms: C_6  and  C_7 
REMARK    2  A    between atoms: C_6  and  N_30 
REMARK    3  A    between atoms: C_14  and  C_16 
REMARK    4  A    between atoms: C_14  and  N_33 
REMARK    5  A    between atoms: C_15  and  C_23 
REMARK       I    between atoms: C_23  and  N_29 
ROOT
HETATM    1  O   UNL     1     185.232 120.823  29.460  1.00  0.00    -0.267 OA
HETATM    2  C   UNL     1     183.177 122.936  31.602  1.00  0.00     0.156 C 
HETATM    3  C   UNL     1     184.330 121.140  30.228  1.00  0.00     0.257 C 
HETATM    4  C   UNL     1     185.252 123.389  30.468  1.00  0.00     0.156 C 
HETATM    5  C   UNL     1     184.628 124.553  29.733  1.00  0.00     0.292 C 
HETATM    6  C   UNL     1     182.522 124.120  30.908  1.00  0.00     0.292 C 
HETATM    7  N   UNL     1     184.226 122.380  30.740  1.00  0.00    -0.344 N 
HETATM    8  N   UNL     1     183.577 125.138  30.617  1.00  0.00     0.098 N 
ENDROOT
BRANCH   8   9
HETATM    9  C   UNL     1     182.989 126.377  30.019  1.00  0.00     0.348 C 
BRANCH   9  10
HETATM   10  C   UNL     1     183.246 127.498  30.986  1.00  0.00     0.113 A 
HETATM   11  N   UNL     1     182.599 127.591  32.128  1.00  0.00    -0.342 N 
HETATM   12  C   UNL     1     183.004 128.813  32.668  1.00  0.00     0.060 A 
ATOM     13  HN  UNL     1     181.946 126.918  32.531  1.00  0.00     0.167 HD
HETATM   14  C   UNL     1     182.595 129.452  33.837  1.00  0.00     0.032 A 
HETATM   15  C   UNL     1     183.917 129.434  31.826  1.00  0.00     0.062 A 
HETATM   16  C   UNL     1     183.114 130.708  34.123  1.00  0.00     0.002 A 
HETATM   17  C   UNL     1     184.026 131.317  33.266  1.00  0.00     0.002 A 
HETATM   18  C   UNL     1     184.446 130.682  32.107  1.00  0.00     0.032 A 
HETATM   19  N   UNL     1     184.064 128.572  30.743  1.00  0.00    -0.333 N 
BRANCH  19  20
HETATM   20  C   UNL     1     184.867 128.852  29.537  1.00  0.00     0.139 C 
BRANCH  20  21
HETATM   21  C   UNL     1     184.123 129.452  28.321  1.00  0.00    -0.035 C 
HETATM   22  C   UNL     1     184.036 128.444  27.183  1.00  0.00     0.016 C 
HETATM   23  C   UNL     1     184.914 130.666  27.838  1.00  0.00     0.016 C 
HETATM   24  C   UNL     1     182.717 129.929  28.664  1.00  0.00     0.016 C 
ENDBRANCH  20  21
ENDBRANCH  19  20
ENDBRANCH   9  10
ENDBRANCH   8   9
BRANCH   3  25
HETATM   25  C   UNL     1     183.355 120.081  30.680  1.00  0.00     0.079 A 
HETATM   26  C   UNL     1     182.079 119.899  30.175  1.00  0.00     0.042 A 
HETATM   27  N   UNL     1     181.555 118.791  30.724  1.00  0.00    -0.300 N 
HETATM   28  C   UNL     1     181.275 120.718  29.224  1.00  0.00     0.071 C 
HETATM   29  C   UNL     1     180.249 118.179  30.511  1.00  0.00     0.177 C 
HETATM   30  N   UNL     1     182.426 118.225  31.605  1.00  0.00    -0.302 N 
HETATM   31  C   UNL     1     183.502 118.988  31.590  1.00  0.00     0.040 A 
ATOM     32  HN  UNL     1     182.276 117.384  32.162  1.00  0.00     0.186 HD
HETATM   33  C   UNL     1     184.665 118.614  32.448  1.00  0.00     0.071 C 
ENDBRANCH   3  25
TORSDOF 5
ENDMDL
MODEL 10
REMARK VINA RESULT:    -8.398      3.105      8.419
REMARK INTER + INTRA:         -11.594
REMARK INTER:                 -11.101
REMARK INTRA:                  -0.493
REMARK UNBOUND:                -0.741
REMARK  5 active torsions:
REMARK  status: ('A' for Active; 'I' for Inactive)
REMARK    1  A    between atoms: C_6  and  C_7 
REMARK    2  A    between atoms: C_6  and  N_30 
REMARK    3  A    between atoms: C_14  and  C_16 
REMARK    4  A    between atoms: C_14  and  N_33 
REMARK    5  A    between atoms: C_15  and  C_23 
REMARK       I    between atoms: C_23  and  N_29 
ROOT
HETATM    1  O   UNL     1     182.119 121.246  32.277  1.00  0.00    -0.267 OA
HETATM    2  C   UNL     1     184.363 121.705  29.444  1.00  0.00     0.156 C 
HETATM    3  C   UNL     1     183.135 121.158  31.596  1.00  0.00     0.257 C 
HETATM    4  C   UNL     1     182.036 122.260  29.715  1.00  0.00     0.156 C 
HETATM    5  C   UNL     1     182.320 123.714  29.409  1.00  0.00     0.292 C 
HETATM    6  C   UNL     1     184.684 123.151  29.097  1.00  0.00     0.292 C 
HETATM    7  N   UNL     1     183.210 121.660  30.350  1.00  0.00    -0.344 N 
HETATM    8  N   UNL     1     183.475 123.763  28.466  1.00  0.00     0.098 N 
ENDROOT
BRANCH   8   9
HETATM    9  C   UNL     1     183.748 125.161  28.010  1.00  0.00     0.348 C 
BRANCH   9  10
HETATM   10  C   UNL     1     182.539 125.621  27.247  1.00  0.00     0.113 A 
HETATM   11  N   UNL     1     181.660 124.769  26.762  1.00  0.00    -0.342 N 
HETATM   12  C   UNL     1     180.780 125.554  26.014  1.00  0.00     0.060 A 
ATOM     13  HN  UNL     1     181.628 123.759  26.902  1.00  0.00     0.167 HD
HETATM   14  C   UNL     1     179.688 125.175  25.235  1.00  0.00     0.032 A 
HETATM   15  C   UNL     1     181.149 126.891  26.080  1.00  0.00     0.062 A 
HETATM   16  C   UNL     1     179.001 126.157  24.533  1.00  0.00     0.002 A 
HETATM   17  C   UNL     1     179.388 127.492  24.608  1.00  0.00     0.002 A 
HETATM   18  C   UNL     1     180.465 127.878  25.393  1.00  0.00     0.032 A 
HETATM   19  N   UNL     1     182.287 126.919  26.881  1.00  0.00    -0.333 N 
BRANCH  19  20
HETATM   20  C   UNL     1     183.100 128.119  27.162  1.00  0.00     0.139 C 
BRANCH  20  21
HETATM   21  C   UNL     1     182.966 128.744  28.570  1.00  0.00    -0.035 C 
HETATM   22  C   UNL     1     182.622 130.225  28.478  1.00  0.00     0.016 C 
HETATM   23  C   UNL     1     184.311 128.599  29.279  1.00  0.00     0.016 C 
HETATM   24  C   UNL     1     181.918 128.048  29.431  1.00  0.00     0.016 C 
ENDBRANCH  20  21
ENDBRANCH  19  20
ENDBRANCH   9  10
ENDBRANCH   8   9
BRANCH   3  25
HETATM   25  C   UNL     1     184.310 120.385  32.143  1.00  0.00     0.079 A 
HETATM   26  C   UNL     1     185.463 120.944  32.666  1.00  0.00     0.042 A 
HETATM   27  N   UNL     1     186.228 119.961  33.166  1.00  0.00    -0.300 N 
HETATM   28  C   UNL     1     185.937 122.357  32.705  1.00  0.00     0.071 C 
HETATM   29  C   UNL     1     187.527 120.038  33.825  1.00  0.00     0.177 C 
HETATM   30  N   UNL     1     185.642 118.745  32.979  1.00  0.00    -0.302 N 
HETATM   31  C   UNL     1     184.499 118.986  32.366  1.00  0.00     0.040 A 
ATOM     32  HN  UNL     1     186.012 117.836  33.257  1.00  0.00     0.186 HD
HETATM   33  C   UNL     1     183.601 117.839  32.037  1.00  0.00     0.071 C 
ENDBRANCH   3  25
TORSDOF 5
ENDMDL
MODEL 11
REMARK VINA RESULT:    -8.319      2.495      8.359
REMARK INTER + INTRA:         -11.492
REMARK INTER:                 -11.108
REMARK INTRA:                  -0.384
REMARK UNBOUND:                -0.741
REMARK  5 active torsions:
REMARK  status: ('A' for Active; 'I' for Inactive)
REMARK    1  A    between atoms: C_6  and  C_7 
REMARK    2  A    between atoms: C_6  and  N_30 
REMARK    3  A    between atoms: C_14  and  C_16 
REMARK    4  A    between atoms: C_14  and  N_33 
REMARK    5  A    between atoms: C_15  and  C_23 
REMARK       I    between atoms: C_23  and  N_29 
ROOT
HETATM    1  O   UNL     1     184.312 121.483  28.728  1.00  0.00    -0.267 OA
HETATM    2  C   UNL     1     182.794 123.122  31.607  1.00  0.00     0.156 C 
HETATM    3  C   UNL     1     183.632 121.621  29.739  1.00  0.00     0.257 C 
HETATM    4  C   UNL     1     184.464 123.895  30.055  1.00  0.00     0.156 C 
HETATM    5  C   UNL     1     183.606 125.082  29.680  1.00  0.00     0.292 C 
HETATM    6  C   UNL     1     181.916 124.321  31.282  1.00  0.00     0.292 C 
HETATM    7  N   UNL     1     183.603 122.773  30.434  1.00  0.00    -0.344 N 
HETATM    8  N   UNL     1     182.799 125.457  30.879  1.00  0.00     0.098 N 
ENDROOT
BRANCH   8   9
HETATM    9  C   UNL     1     182.008 126.703  30.637  1.00  0.00     0.348 C 
BRANCH   9  10
HETATM   10  C   UNL     1     181.519 126.646  29.218  1.00  0.00     0.113 A 
HETATM   11  N   UNL     1     180.870 125.602  28.749  1.00  0.00    -0.342 N 
HETATM   12  C   UNL     1     180.713 125.862  27.387  1.00  0.00     0.060 A 
ATOM     13  HN  UNL     1     180.552 124.782  29.267  1.00  0.00     0.167 HD
HETATM   14  C   UNL     1     180.148 125.073  26.386  1.00  0.00     0.032 A 
HETATM   15  C   UNL     1     181.270 127.092  27.063  1.00  0.00     0.062 A 
HETATM   16  C   UNL     1     180.168 125.544  25.080  1.00  0.00     0.002 A 
HETATM   17  C   UNL     1     180.734 126.778  24.773  1.00  0.00     0.002 A 
HETATM   18  C   UNL     1     181.286 127.574  25.766  1.00  0.00     0.032 A 
HETATM   19  N   UNL     1     181.787 127.588  28.257  1.00  0.00    -0.333 N 
BRANCH  19  20
HETATM   20  C   UNL     1     182.564 128.835  28.394  1.00  0.00     0.139 C 
BRANCH  20  21
HETATM   21  C   UNL     1     184.096 128.731  28.215  1.00  0.00    -0.035 C 
HETATM   22  C   UNL     1     184.791 128.549  29.558  1.00  0.00     0.016 C 
HETATM   23  C   UNL     1     184.586 130.033  27.585  1.00  0.00     0.016 C 
HETATM   24  C   UNL     1     184.509 127.592  27.289  1.00  0.00     0.016 C 
ENDBRANCH  20  21
ENDBRANCH  19  20
ENDBRANCH   9  10
ENDBRANCH   8   9
BRANCH   3  25
HETATM   25  C   UNL     1     182.870 120.431  30.271  1.00  0.00     0.079 A 
HETATM   26  C   UNL     1     181.668 119.962  29.771  1.00  0.00     0.042 A 
HETATM   27  N   UNL     1     181.356 118.822  30.405  1.00  0.00    -0.300 N 
HETATM   28  C   UNL     1     180.745 120.528  28.746  1.00  0.00     0.071 C 
HETATM   29  C   UNL     1     180.200 117.949  30.233  1.00  0.00     0.177 C 
HETATM   30  N   UNL     1     182.297 118.510  31.340  1.00  0.00    -0.302 N 
HETATM   31  C   UNL     1     183.204 119.466  31.271  1.00  0.00     0.040 A 
ATOM     32  HN  UNL     1     182.300 117.704  31.964  1.00  0.00     0.186 HD
HETATM   33  C   UNL     1     184.395 119.398  32.168  1.00  0.00     0.071 C 
ENDBRANCH   3  25
TORSDOF 5
ENDMDL
MODEL 12
REMARK VINA RESULT:    -8.298      4.812      6.224
REMARK INTER + INTRA:         -11.464
REMARK INTER:                 -10.618
REMARK INTRA:                  -0.847
REMARK UNBOUND:                -0.741
REMARK  5 active torsions:
REMARK  status: ('A' for Active; 'I' for Inactive)
REMARK    1  A    between atoms: C_6  and  C_7 
REMARK    2  A    between atoms: C_6  and  N_30 
REMARK    3  A    between atoms: C_14  and  C_16 
REMARK    4  A    between atoms: C_14  and  N_33 
REMARK    5  A    between atoms: C_15  and  C_23 
REMARK       I    between atoms: C_23  and  N_29 
ROOT
HETATM    1  O   UNL     1     187.178 128.643  33.935  1.00  0.00    -0.267 OA
HETATM    2  C   UNL     1     187.692 125.092  33.305  1.00  0.00     0.156 C 
HETATM    3  C   UNL     1     187.775 127.585  33.774  1.00  0.00     0.257 C 
HETATM    4  C   UNL     1     185.671 126.352  33.653  1.00  0.00     0.156 C 
HETATM    5  C   UNL     1     185.126 125.899  32.317  1.00  0.00     0.292 C 
HETATM    6  C   UNL     1     187.166 124.587  31.970  1.00  0.00     0.292 C 
HETATM    7  N   UNL     1     187.132 126.419  33.584  1.00  0.00    -0.344 N 
HETATM    8  N   UNL     1     185.674 124.539  32.040  1.00  0.00     0.098 N 
ENDROOT
BRANCH   8   9
HETATM    9  C   UNL     1     185.088 123.958  30.792  1.00  0.00     0.348 C 
BRANCH   9  10
HETATM   10  C   UNL     1     185.204 122.464  30.904  1.00  0.00     0.113 A 
HETATM   11  N   UNL     1     186.066 121.779  30.184  1.00  0.00    -0.342 N 
HETATM   12  C   UNL     1     185.777 120.441  30.462  1.00  0.00     0.060 A 
ATOM     13  HN  UNL     1     186.787 122.144  29.562  1.00  0.00     0.167 HD
HETATM   14  C   UNL     1     186.339 119.279  29.936  1.00  0.00     0.032 A 
HETATM   15  C   UNL     1     184.735 120.351  31.374  1.00  0.00     0.062 A 
HETATM   16  C   UNL     1     185.827 118.053  30.339  1.00  0.00     0.002 A 
HETATM   17  C   UNL     1     184.778 117.982  31.253  1.00  0.00     0.002 A 
HETATM   18  C   UNL     1     184.224 119.134  31.789  1.00  0.00     0.032 A 
HETATM   19  N   UNL     1     184.374 121.667  31.652  1.00  0.00    -0.333 N 
BRANCH  19  20
HETATM   20  C   UNL     1     183.239 122.076  32.503  1.00  0.00     0.139 C 
BRANCH  20  21
HETATM   21  C   UNL     1     181.824 121.963  31.889  1.00  0.00    -0.035 C 
HETATM   22  C   UNL     1     181.864 122.191  30.383  1.00  0.00     0.016 C 
HETATM   23  C   UNL     1     180.948 123.041  32.522  1.00  0.00     0.016 C 
HETATM   24  C   UNL     1     181.165 120.617  32.165  1.00  0.00     0.016 C 
ENDBRANCH  20  21
ENDBRANCH  19  20
ENDBRANCH   9  10
ENDBRANCH   8   9
BRANCH   3  25
HETATM   25  C   UNL     1     189.281 127.577  33.880  1.00  0.00     0.079 A 
HETATM   26  C   UNL     1     190.001 127.671  35.059  1.00  0.00     0.042 A 
HETATM   27  N   UNL     1     191.303 127.503  34.779  1.00  0.00    -0.300 N 
HETATM   28  C   UNL     1     189.563 127.947  36.456  1.00  0.00     0.071 C 
HETATM   29  C   UNL     1     192.454 127.510  35.675  1.00  0.00     0.177 C 
HETATM   30  N   UNL     1     191.495 127.322  33.442  1.00  0.00    -0.302 N 
HETATM   31  C   UNL     1     190.296 127.368  32.896  1.00  0.00     0.040 A 
ATOM     32  HN  UNL     1     192.385 127.180  32.963  1.00  0.00     0.186 HD
HETATM   33  C   UNL     1     190.167 127.176  31.421  1.00  0.00     0.071 C 
ENDBRANCH   3  25
TORSDOF 5
ENDMDL
MODEL 13
REMARK VINA RESULT:    -8.263      4.775      6.427
REMARK INTER + INTRA:         -11.420
REMARK INTER:                 -10.732
REMARK INTRA:                  -0.688
REMARK UNBOUND:                -0.741
REMARK  5 active torsions:
REMARK  status: ('A' for Active; 'I' for Inactive)
REMARK    1  A    between atoms: C_6  and  C_7 
REMARK    2  A    between atoms: C_6  and  N_30 
REMARK    3  A    between atoms: C_14  and  C_16 
REMARK    4  A    between atoms: C_14  and  N_33 
REMARK    5  A    between atoms: C_15  and  C_23 
REMARK       I    between atoms: C_23  and  N_29 
ROOT
HETATM    1  O   UNL     1     190.261 125.164  31.520  1.00  0.00    -0.267 OA
HETATM    2  C   UNL     1     186.809 125.889  32.433  1.00  0.00     0.156 C 
HETATM    3  C   UNL     1     189.289 125.382  32.233  1.00  0.00     0.257 C 
HETATM    4  C   UNL     1     187.892 125.840  30.283  1.00  0.00     0.156 C 
HETATM    5  C   UNL     1     186.913 124.801  29.783  1.00  0.00     0.292 C 
HETATM    6  C   UNL     1     185.785 124.870  31.957  1.00  0.00     0.292 C 
HETATM    7  N   UNL     1     188.078 125.677  31.726  1.00  0.00    -0.344 N 
HETATM    8  N   UNL     1     185.614 125.029  30.481  1.00  0.00     0.098 N 
ENDROOT
BRANCH   8   9
HETATM    9  C   UNL     1     184.546 124.121  29.956  1.00  0.00     0.348 C 
BRANCH   9  10
HETATM   10  C   UNL     1     184.895 122.729  30.398  1.00  0.00     0.113 A 
HETATM   11  N   UNL     1     185.734 121.975  29.720  1.00  0.00    -0.342 N 
HETATM   12  C   UNL     1     185.688 120.732  30.354  1.00  0.00     0.060 A 
ATOM     13  HN  UNL     1     186.295 122.241  28.910  1.00  0.00     0.167 HD
HETATM   14  C   UNL     1     186.333 119.540  30.029  1.00  0.00     0.032 A 
HETATM   15  C   UNL     1     184.814 120.772  31.432  1.00  0.00     0.062 A 
HETATM   16  C   UNL     1     186.070 118.413  30.796  1.00  0.00     0.002 A 
HETATM   17  C   UNL     1     185.187 118.470  31.871  1.00  0.00     0.002 A 
HETATM   18  C   UNL     1     184.553 119.656  32.208  1.00  0.00     0.032 A 
HETATM   19  N   UNL     1     184.308 122.069  31.448  1.00  0.00    -0.333 N 
BRANCH  19  20
HETATM   20  C   UNL     1     183.262 122.562  32.365  1.00  0.00     0.139 C 
BRANCH  20  21
HETATM   21  C   UNL     1     181.794 122.406  31.904  1.00  0.00    -0.035 C 
HETATM   22  C   UNL     1     181.183 123.758  31.563  1.00  0.00     0.016 C 
HETATM   23  C   UNL     1     181.002 121.790  33.055  1.00  0.00     0.016 C 
HETATM   24  C   UNL     1     181.645 121.481  30.701  1.00  0.00     0.016 C 
ENDBRANCH  20  21
ENDBRANCH  19  20
ENDBRANCH   9  10
ENDBRANCH   8   9
BRANCH   3  25
HETATM   25  C   UNL     1     189.477 125.407  33.731  1.00  0.00     0.079 A 
HETATM   26  C   UNL     1     189.953 126.482  34.461  1.00  0.00     0.042 A 
HETATM   27  N   UNL     1     189.865 126.186  35.767  1.00  0.00    -0.300 N 
HETATM   28  C   UNL     1     190.532 127.784  34.023  1.00  0.00     0.071 C 
HETATM   29  C   UNL     1     190.233 126.989  36.928  1.00  0.00     0.177 C 
HETATM   30  N   UNL     1     189.365 124.932  35.950  1.00  0.00    -0.302 N 
HETATM   31  C   UNL     1     189.133 124.456  34.741  1.00  0.00     0.040 A 
ATOM     32  HN  UNL     1     189.203 124.459  36.839  1.00  0.00     0.186 HD
HETATM   33  C   UNL     1     188.551 123.089  34.604  1.00  0.00     0.071 C 
ENDBRANCH   3  25
TORSDOF 5
ENDMDL
MODEL 14
REMARK VINA RESULT:    -8.231      5.521      6.770
REMARK INTER + INTRA:         -11.378
REMARK INTER:                 -10.506
REMARK INTRA:                  -0.872
REMARK UNBOUND:                -0.741
REMARK  5 active torsions:
REMARK  status: ('A' for Active; 'I' for Inactive)
REMARK    1  A    between atoms: C_6  and  C_7 
REMARK    2  A    between atoms: C_6  and  N_30 
REMARK    3  A    between atoms: C_14  and  C_16 
REMARK    4  A    between atoms: C_14  and  N_33 
REMARK    5  A    between atoms: C_15  and  C_23 
REMARK       I    between atoms: C_23  and  N_29 
ROOT
HETATM    1  O   UNL     1     190.862 127.678  32.688  1.00  0.00    -0.267 OA
HETATM    2  C   UNL     1     187.904 126.096  34.109  1.00  0.00     0.156 C 
HETATM    3  C   UNL     1     190.068 127.293  33.538  1.00  0.00     0.257 C 
HETATM    4  C   UNL     1     188.514 126.523  31.820  1.00  0.00     0.156 C 
HETATM    5  C   UNL     1     188.410 125.051  31.488  1.00  0.00     0.292 C 
HETATM    6  C   UNL     1     187.754 124.612  33.808  1.00  0.00     0.292 C 
HETATM    7  N   UNL     1     188.915 126.678  33.219  1.00  0.00    -0.344 N 
HETATM    8  N   UNL     1     187.364 124.459  32.373  1.00  0.00     0.098 N 
ENDROOT
BRANCH   8   9
HETATM    9  C   UNL     1     187.103 123.027  32.029  1.00  0.00     0.348 C 
BRANCH   9  10
HETATM   10  C   UNL     1     185.613 122.860  31.937  1.00  0.00     0.113 A 
HETATM   11  N   UNL     1     184.806 123.891  31.815  1.00  0.00    -0.342 N 
HETATM   12  C   UNL     1     183.521 123.350  31.903  1.00  0.00     0.060 A 
ATOM     13  HN  UNL     1     185.061 124.870  31.684  1.00  0.00     0.167 HD
HETATM   14  C   UNL     1     182.282 123.987  31.894  1.00  0.00     0.032 A 
HETATM   15  C   UNL     1     183.588 121.973  32.065  1.00  0.00     0.062 A 
HETATM   16  C   UNL     1     181.139 123.217  32.058  1.00  0.00     0.002 A 
HETATM   17  C   UNL     1     181.224 121.837  32.223  1.00  0.00     0.002 A 
HETATM   18  C   UNL     1     182.453 121.195  32.219  1.00  0.00     0.032 A 
HETATM   19  N   UNL     1     184.946 121.670  32.084  1.00  0.00    -0.333 N 
BRANCH  19  20
HETATM   20  C   UNL     1     185.515 120.330  32.333  1.00  0.00     0.139 C 
BRANCH  20  21
HETATM   21  C   UNL     1     185.456 119.315  31.168  1.00  0.00    -0.035 C 
HETATM   22  C   UNL     1     186.808 118.646  30.960  1.00  0.00     0.016 C 
HETATM   23  C   UNL     1     185.090 120.078  29.897  1.00  0.00     0.016 C 
HETATM   24  C   UNL     1     184.400 118.236  31.374  1.00  0.00     0.016 C 
ENDBRANCH  20  21
ENDBRANCH  19  20
ENDBRANCH   9  10
ENDBRANCH   8   9
BRANCH   3  25
HETATM   25  C   UNL     1     190.354 127.597  34.989  1.00  0.00     0.079 A 
HETATM   26  C   UNL     1     189.887 128.700  35.683  1.00  0.00     0.042 A 
HETATM   27  N   UNL     1     190.234 128.573  36.973  1.00  0.00    -0.300 N 
HETATM   28  C   UNL     1     189.154 129.912  35.219  1.00  0.00     0.071 C 
HETATM   29  C   UNL     1     189.972 129.464  38.098  1.00  0.00     0.177 C 
HETATM   30  N   UNL     1     190.944 127.428  37.176  1.00  0.00    -0.302 N 
HETATM   31  C   UNL     1     191.025 126.840  35.998  1.00  0.00     0.040 A 
ATOM     32  HN  UNL     1     191.333 127.095  38.058  1.00  0.00     0.186 HD
HETATM   33  C   UNL     1     191.735 125.531  35.893  1.00  0.00     0.071 C 
ENDBRANCH   3  25
TORSDOF 5
ENDMDL
MODEL 15
REMARK VINA RESULT:    -8.155      3.026      8.589
REMARK INTER + INTRA:         -11.279
REMARK INTER:                 -10.847
REMARK INTRA:                  -0.432
REMARK UNBOUND:                -0.741
REMARK  5 active torsions:
REMARK  status: ('A' for Active; 'I' for Inactive)
REMARK    1  A    between atoms: C_6  and  C_7 
REMARK    2  A    between atoms: C_6  and  N_30 
REMARK    3  A    between atoms: C_14  and  C_16 
REMARK    4  A    between atoms: C_14  and  N_33 
REMARK    5  A    between atoms: C_15  and  C_23 
REMARK       I    between atoms: C_23  and  N_29 
ROOT
HETATM    1  O   UNL     1     183.053 121.748  33.072  1.00  0.00    -0.267 OA
HETATM    2  C   UNL     1     182.541 122.607  29.569  1.00  0.00     0.156 C 
HETATM    3  C   UNL     1     183.236 121.766  31.860  1.00  0.00     0.257 C 
HETATM    4  C   UNL     1     181.210 123.085  31.517  1.00  0.00     0.156 C 
HETATM    5  C   UNL     1     181.302 124.570  31.249  1.00  0.00     0.292 C 
HETATM    6  C   UNL     1     182.627 124.091  29.245  1.00  0.00     0.292 C 
HETATM    7  N   UNL     1     182.419 122.426  31.020  1.00  0.00    -0.344 N 
HETATM    8  N   UNL     1     181.399 124.760  29.772  1.00  0.00     0.098 N 
ENDROOT
BRANCH   8   9
HETATM    9  C   UNL     1     181.369 126.210  29.405  1.00  0.00     0.348 C 
BRANCH   9  10
HETATM   10  C   UNL     1     182.633 126.499  28.647  1.00  0.00     0.113 A 
HETATM   11  N   UNL     1     183.803 126.563  29.247  1.00  0.00    -0.342 N 
HETATM   12  C   UNL     1     184.690 126.983  28.254  1.00  0.00     0.060 A 
ATOM     13  HN  UNL     1     184.015 126.352  30.222  1.00  0.00     0.167 HD
HETATM   14  C   UNL     1     186.050 127.273  28.337  1.00  0.00     0.032 A 
HETATM   15  C   UNL     1     184.021 127.151  27.048  1.00  0.00     0.062 A 
HETATM   16  C   UNL     1     186.701 127.735  27.200  1.00  0.00     0.002 A 
HETATM   17  C   UNL     1     186.013 127.902  26.001  1.00  0.00     0.002 A 
HETATM   18  C   UNL     1     184.663 127.602  25.908  1.00  0.00     0.032 A 
HETATM   19  N   UNL     1     182.692 126.834  27.317  1.00  0.00    -0.333 N 
BRANCH  19  20
HETATM   20  C   UNL     1     181.577 126.959  26.358  1.00  0.00     0.139 C 
BRANCH  20  21
HETATM   21  C   UNL     1     181.153 125.678  25.604  1.00  0.00    -0.035 C 
HETATM   22  C   UNL     1     182.361 124.806  25.288  1.00  0.00     0.016 C 
HETATM   23  C   UNL     1     180.499 126.099  24.290  1.00  0.00     0.016 C 
HETATM   24  C   UNL     1     180.134 124.846  26.375  1.00  0.00     0.016 C 
ENDBRANCH  20  21
ENDBRANCH  19  20
ENDBRANCH   9  10
ENDBRANCH   8   9
BRANCH   3  25
HETATM   25  C   UNL     1     184.367 120.947  31.284  1.00  0.00     0.079 A 
HETATM   26  C   UNL     1     184.400 119.565  31.215  1.00  0.00     0.042 A 
HETATM   27  N   UNL     1     185.495 119.197  30.531  1.00  0.00    -0.300 N 
HETATM   28  C   UNL     1     183.486 118.533  31.781  1.00  0.00     0.071 C 
HETATM   29  C   UNL     1     185.969 117.861  30.186  1.00  0.00     0.177 C 
HETATM   30  N   UNL     1     186.221 120.285  30.152  1.00  0.00    -0.302 N 
HETATM   31  C   UNL     1     185.560 121.335  30.600  1.00  0.00     0.040 A 
ATOM     32  HN  UNL     1     187.098 120.287  29.630  1.00  0.00     0.186 HD
HETATM   33  C   UNL     1     186.097 122.699  30.321  1.00  0.00     0.071 C 
ENDBRANCH   3  25
TORSDOF 5
ENDMDL
MODEL 16
REMARK VINA RESULT:    -8.153      3.057      4.871
REMARK INTER + INTRA:         -11.277
REMARK INTER:                 -10.511
REMARK INTRA:                  -0.766
REMARK UNBOUND:                -0.741
REMARK  5 active torsions:
REMARK  status: ('A' for Active; 'I' for Inactive)
REMARK    1  A    between atoms: C_6  and  C_7 
REMARK    2  A    between atoms: C_6  and  N_30 
REMARK    3  A    between atoms: C_14  and  C_16 
REMARK    4  A    between atoms: C_14  and  N_33 
REMARK    5  A    between atoms: C_15  and  C_23 
REMARK       I    between atoms: C_23  and  N_29 
ROOT
HETATM    1  O   UNL     1     188.465 127.896  29.152  1.00  0.00    -0.267 OA
HETATM    2  C   UNL     1     185.426 125.893  29.315  1.00  0.00     0.156 C 
HETATM    3  C   UNL     1     187.274 127.616  29.074  1.00  0.00     0.257 C 
HETATM    4  C   UNL     1     187.739 125.267  29.552  1.00  0.00     0.156 C 
HETATM    5  C   UNL     1     187.472 124.700  30.929  1.00  0.00     0.292 C 
HETATM    6  C   UNL     1     185.110 125.303  30.681  1.00  0.00     0.292 C 
HETATM    7  N   UNL     1     186.813 126.372  29.294  1.00  0.00    -0.344 N 
HETATM    8  N   UNL     1     186.071 124.188  30.946  1.00  0.00     0.098 N 
ENDROOT
BRANCH   8   9
HETATM    9  C   UNL     1     185.758 123.495  32.234  1.00  0.00     0.348 C 
BRANCH   9  10
HETATM   10  C   UNL     1     185.663 122.027  31.933  1.00  0.00     0.113 A 
HETATM   11  N   UNL     1     186.624 121.384  31.305  1.00  0.00    -0.342 N 
HETATM   12  C   UNL     1     186.114 120.102  31.091  1.00  0.00     0.060 A 
ATOM     13  HN  UNL     1     187.539 121.742  31.033  1.00  0.00     0.167 HD
HETATM   14  C   UNL     1     186.677 119.017  30.421  1.00  0.00     0.032 A 
HETATM   15  C   UNL     1     184.835 119.996  31.621  1.00  0.00     0.062 A 
HETATM   16  C   UNL     1     185.929 117.854  30.295  1.00  0.00     0.002 A 
HETATM   17  C   UNL     1     184.646 117.767  30.830  1.00  0.00     0.002 A 
HETATM   18  C   UNL     1     184.085 118.838  31.510  1.00  0.00     0.032 A 
HETATM   19  N   UNL     1     184.557 121.248  32.163  1.00  0.00    -0.333 N 
BRANCH  19  20
HETATM   20  C   UNL     1     183.267 121.650  32.758  1.00  0.00     0.139 C 
BRANCH  20  21
HETATM   21  C   UNL     1     182.095 121.913  31.783  1.00  0.00    -0.035 C 
HETATM   22  C   UNL     1     181.280 120.647  31.557  1.00  0.00     0.016 C 
HETATM   23  C   UNL     1     182.686 122.357  30.446  1.00  0.00     0.016 C 
HETATM   24  C   UNL     1     181.163 123.020  32.261  1.00  0.00     0.016 C 
ENDBRANCH  20  21
ENDBRANCH  19  20
ENDBRANCH   9  10
ENDBRANCH   8   9
BRANCH   3  25
HETATM   25  C   UNL     1     186.304 128.684  28.630  1.00  0.00     0.079 A 
HETATM   26  C   UNL     1     185.823 129.710  29.426  1.00  0.00     0.042 A 
HETATM   27  N   UNL     1     185.087 130.534  28.664  1.00  0.00    -0.300 N 
HETATM   28  C   UNL     1     185.970 129.969  30.886  1.00  0.00     0.071 C 
HETATM   29  C   UNL     1     184.378 131.754  29.033  1.00  0.00     0.177 C 
HETATM   30  N   UNL     1     185.032 130.089  27.377  1.00  0.00    -0.302 N 
HETATM   31  C   UNL     1     185.752 128.984  27.346  1.00  0.00     0.040 A 
ATOM     32  HN  UNL     1     184.536 130.522  26.598  1.00  0.00     0.186 HD
HETATM   33  C   UNL     1     185.906 128.259  26.051  1.00  0.00     0.071 C 
ENDBRANCH   3  25
TORSDOF 5
ENDMDL
MODEL 17
REMARK VINA RESULT:    -8.112      2.096      2.793
REMARK INTER + INTRA:         -11.224
REMARK INTER:                 -11.063
REMARK INTRA:                  -0.160
REMARK UNBOUND:                -0.741
REMARK  5 active torsions:
REMARK  status: ('A' for Active; 'I' for Inactive)
REMARK    1  A    between atoms: C_6  and  C_7 
REMARK    2  A    between atoms: C_6  and  N_30 
REMARK    3  A    between atoms: C_14  and  C_16 
REMARK    4  A    between atoms: C_14  and  N_33 
REMARK    5  A    between atoms: C_15  and  C_23 
REMARK       I    between atoms: C_23  and  N_29 
ROOT
HETATM    1  O   UNL     1     183.858 127.102  25.884  1.00  0.00    -0.267 OA
HETATM    2  C   UNL     1     183.357 126.572  29.454  1.00  0.00     0.156 C 
HETATM    3  C   UNL     1     183.845 127.345  27.086  1.00  0.00     0.257 C 
HETATM    4  C   UNL     1     182.765 125.207  27.561  1.00  0.00     0.156 C 
HETATM    5  C   UNL     1     183.569 124.050  28.110  1.00  0.00     0.292 C 
HETATM    6  C   UNL     1     184.148 125.421  30.056  1.00  0.00     0.292 C 
HETATM    7  N   UNL     1     183.373 126.468  27.990  1.00  0.00    -0.344 N 
HETATM    8  N   UNL     1     183.534 124.137  29.599  1.00  0.00     0.098 N 
ENDROOT
BRANCH   8   9
HETATM    9  C   UNL     1     184.202 122.958  30.232  1.00  0.00     0.348 C 
BRANCH   9  10
HETATM   10  C   UNL     1     183.269 121.790  30.084  1.00  0.00     0.113 A 
HETATM   11  N   UNL     1     182.369 121.739  29.125  1.00  0.00    -0.342 N 
HETATM   12  C   UNL     1     181.620 120.593  29.401  1.00  0.00     0.060 A 
ATOM     13  HN  UNL     1     182.246 122.391  28.350  1.00  0.00     0.167 HD
HETATM   14  C   UNL     1     180.502 120.079  28.748  1.00  0.00     0.032 A 
HETATM   15  C   UNL     1     182.107 119.960  30.537  1.00  0.00     0.062 A 
HETATM   16  C   UNL     1     179.897 118.941  29.264  1.00  0.00     0.002 A 
HETATM   17  C   UNL     1     180.397 118.321  30.406  1.00  0.00     0.002 A 
HETATM   18  C   UNL     1     181.517 118.820  31.053  1.00  0.00     0.032 A 
HETATM   19  N   UNL     1     183.174 120.745  30.967  1.00  0.00    -0.333 N 
BRANCH  19  20
HETATM   20  C   UNL     1     183.950 120.521  32.202  1.00  0.00     0.139 C 
BRANCH  20  21
HETATM   21  C   UNL     1     185.077 119.464  32.142  1.00  0.00    -0.035 C 
HETATM   22  C   UNL     1     185.687 119.397  30.749  1.00  0.00     0.016 C 
HETATM   23  C   UNL     1     184.465 118.104  32.472  1.00  0.00     0.016 C 
HETATM   24  C   UNL     1     186.187 119.723  33.154  1.00  0.00     0.016 C 
ENDBRANCH  20  21
ENDBRANCH  19  20
ENDBRANCH   9  10
ENDBRANCH   8   9
BRANCH   3  25
HETATM   25  C   UNL     1     184.293 128.707  27.557  1.00  0.00     0.079 A 
HETATM   26  C   UNL     1     185.594 129.179  27.520  1.00  0.00     0.042 A 
HETATM   27  N   UNL     1     185.593 130.467  27.900  1.00  0.00    -0.300 N 
HETATM   28  C   UNL     1     186.875 128.497  27.184  1.00  0.00     0.071 C 
HETATM   29  C   UNL     1     186.707 131.401  28.018  1.00  0.00     0.177 C 
HETATM   30  N   UNL     1     184.334 130.880  28.217  1.00  0.00    -0.302 N 
HETATM   31  C   UNL     1     183.551 129.837  28.020  1.00  0.00     0.040 A 
ATOM     32  HN  UNL     1     184.055 131.807  28.541  1.00  0.00     0.186 HD
HETATM   33  C   UNL     1     182.085 129.979  28.262  1.00  0.00     0.071 C 
ENDBRANCH   3  25
TORSDOF 5
ENDMDL
MODEL 18
REMARK VINA RESULT:    -8.085      2.223      8.270
REMARK INTER + INTRA:         -11.189
REMARK INTER:                 -10.330
REMARK INTRA:                  -0.860
REMARK UNBOUND:                -0.741
REMARK  5 active torsions:
REMARK  status: ('A' for Active; 'I' for Inactive)
REMARK    1  A    between atoms: C_6  and  C_7 
REMARK    2  A    between atoms: C_6  and  N_30 
REMARK    3  A    between atoms: C_14  and  C_16 
REMARK    4  A    between atoms: C_14  and  N_33 
REMARK    5  A    between atoms: C_15  and  C_23 
REMARK       I    between atoms: C_23  and  N_29 
ROOT
HETATM    1  O   UNL     1     181.515 121.674  33.080  1.00  0.00    -0.267 OA
HETATM    2  C   UNL     1     182.077 122.701  29.630  1.00  0.00     0.156 C 
HETATM    3  C   UNL     1     181.849 121.595  31.903  1.00  0.00     0.257 C 
HETATM    4  C   UNL     1     180.974 123.829  31.448  1.00  0.00     0.156 C 
HETATM    5  C   UNL     1     181.913 125.007  31.324  1.00  0.00     0.292 C 
HETATM    6  C   UNL     1     183.020 123.881  29.450  1.00  0.00     0.292 C 
HETATM    7  N   UNL     1     181.668 122.608  31.036  1.00  0.00    -0.344 N 
HETATM    8  N   UNL     1     182.311 125.122  29.890  1.00  0.00     0.098 N 
ENDROOT
BRANCH   8   9
HETATM    9  C   UNL     1     183.145 126.340  29.650  1.00  0.00     0.348 C 
BRANCH   9  10
HETATM   10  C   UNL     1     183.411 126.963  30.991  1.00  0.00     0.113 A 
HETATM   11  N   UNL     1     182.512 127.704  31.602  1.00  0.00    -0.342 N 
HETATM   12  C   UNL     1     183.169 128.207  32.727  1.00  0.00     0.060 A 
ATOM     13  HN  UNL     1     181.547 127.875  31.317  1.00  0.00     0.167 HD
HETATM   14  C   UNL     1     182.717 129.093  33.702  1.00  0.00     0.032 A 
HETATM   15  C   UNL     1     184.473 127.733  32.775  1.00  0.00     0.062 A 
HETATM   16  C   UNL     1     183.599 129.487  34.700  1.00  0.00     0.002 A 
HETATM   17  C   UNL     1     184.905 129.004  34.732  1.00  0.00     0.002 A 
HETATM   18  C   UNL     1     185.356 128.112  33.771  1.00  0.00     0.032 A 
HETATM   19  N   UNL     1     184.616 126.930  31.647  1.00  0.00    -0.333 N 
BRANCH  19  20
HETATM   20  C   UNL     1     185.870 126.280  31.219  1.00  0.00     0.139 C 
BRANCH  20  21
HETATM   21  C   UNL     1     186.231 124.937  31.894  1.00  0.00    -0.035 C 
HETATM   22  C   UNL     1     187.272 125.139  32.988  1.00  0.00     0.016 C 
HETATM   23  C   UNL     1     186.819 124.016  30.827  1.00  0.00     0.016 C 
HETATM   24  C   UNL     1     185.021 124.229  32.492  1.00  0.00     0.016 C 
ENDBRANCH  20  21
ENDBRANCH  19  20
ENDBRANCH   9  10
ENDBRANCH   8   9
BRANCH   3  25
HETATM   25  C   UNL     1     182.402 120.288  31.390  1.00  0.00     0.079 A 
HETATM   26  C   UNL     1     183.746 119.970  31.291  1.00  0.00     0.042 A 
HETATM   27  N   UNL     1     183.856 118.686  30.916  1.00  0.00    -0.300 N 
HETATM   28  C   UNL     1     184.966 120.802  31.487  1.00  0.00     0.071 C 
HETATM   29  C   UNL     1     185.053 117.887  30.683  1.00  0.00     0.177 C 
HETATM   30  N   UNL     1     182.628 118.124  30.735  1.00  0.00    -0.302 N 
HETATM   31  C   UNL     1     181.753 119.072  31.011  1.00  0.00     0.040 A 
ATOM     32  HN  UNL     1     182.427 117.167  30.445  1.00  0.00     0.186 HD
HETATM   33  C   UNL     1     180.296 118.756  30.926  1.00  0.00     0.071 C 
ENDBRANCH   3  25
TORSDOF 5
ENDMDL
MODEL 19
REMARK VINA RESULT:    -8.074      3.475      7.162
REMARK INTER + INTRA:         -11.175
REMARK INTER:                 -10.176
REMARK INTRA:                  -0.999
REMARK UNBOUND:                -0.741
REMARK  5 active torsions:
REMARK  status: ('A' for Active; 'I' for Inactive)
REMARK    1  A    between atoms: C_6  and  C_7 
REMARK    2  A    between atoms: C_6  and  N_30 
REMARK    3  A    between atoms: C_14  and  C_16 
REMARK    4  A    between atoms: C_14  and  N_33 
REMARK    5  A    between atoms: C_15  and  C_23 
REMARK       I    between atoms: C_23  and  N_29 
ROOT
HETATM    1  O   UNL     1     187.651 124.006  30.037  1.00  0.00    -0.267 OA
HETATM    2  C   UNL     1     185.790 125.576  32.747  1.00  0.00     0.156 C 
HETATM    3  C   UNL     1     187.194 124.177  31.162  1.00  0.00     0.257 C 
HETATM    4  C   UNL     1     186.259 126.338  30.512  1.00  0.00     0.156 C 
HETATM    5  C   UNL     1     184.782 126.474  30.219  1.00  0.00     0.292 C 
HETATM    6  C   UNL     1     184.297 125.732  32.504  1.00  0.00     0.292 C 
HETATM    7  N   UNL     1     186.464 125.261  31.483  1.00  0.00    -0.344 N 
HETATM    8  N   UNL     1     184.095 126.820  31.498  1.00  0.00     0.098 N 
ENDROOT
BRANCH   8   9
HETATM    9  C   UNL     1     182.641 127.097  31.280  1.00  0.00     0.348 C 
BRANCH   9  10
HETATM   10  C   UNL     1     182.327 126.710  29.863  1.00  0.00     0.113 A 
HETATM   11  N   UNL     1     182.523 127.537  28.858  1.00  0.00    -0.342 N 
HETATM   12  C   UNL     1     181.989 126.880  27.747  1.00  0.00     0.060 A 
ATOM     13  HN  UNL     1     182.967 128.455  28.885  1.00  0.00     0.167 HD
HETATM   14  C   UNL     1     181.871 127.311  26.428  1.00  0.00     0.032 A 
HETATM   15  C   UNL     1     181.487 125.639  28.115  1.00  0.00     0.062 A 
HETATM   16  C   UNL     1     181.239 126.480  25.512  1.00  0.00     0.002 A 
HETATM   17  C   UNL     1     180.738 125.239  25.899  1.00  0.00     0.002 A 
HETATM   18  C   UNL     1     180.864 124.799  27.208  1.00  0.00     0.032 A 
HETATM   19  N   UNL     1     181.712 125.542  29.486  1.00  0.00    -0.333 N 
BRANCH  19  20
HETATM   20  C   UNL     1     181.260 124.431  30.346  1.00  0.00     0.139 C 
BRANCH  20  21
HETATM   21  C   UNL     1     182.105 123.136  30.324  1.00  0.00    -0.035 C 
HETATM   22  C   UNL     1     181.432 122.061  29.482  1.00  0.00     0.016 C 
HETATM   23  C   UNL     1     182.226 122.628  31.758  1.00  0.00     0.016 C 
HETATM   24  C   UNL     1     183.518 123.360  29.797  1.00  0.00     0.016 C 
ENDBRANCH  20  21
ENDBRANCH  19  20
ENDBRANCH   9  10
ENDBRANCH   8   9
BRANCH   3  25
HETATM   25  C   UNL     1     187.536 123.183  32.244  1.00  0.00     0.079 A 
HETATM   26  C   UNL     1     186.912 121.962  32.436  1.00  0.00     0.042 A 
HETATM   27  N   UNL     1     187.559 121.297  33.406  1.00  0.00    -0.300 N 
HETATM   28  C   UNL     1     185.705 121.367  31.795  1.00  0.00     0.071 C 
HETATM   29  C   UNL     1     187.293 119.977  33.964  1.00  0.00     0.177 C 
HETATM   30  N   UNL     1     188.593 122.037  33.897  1.00  0.00    -0.302 N 
HETATM   31  C   UNL     1     188.586 123.166  33.214  1.00  0.00     0.040 A 
ATOM     32  HN  UNL     1     189.239 121.772  34.641  1.00  0.00     0.186 HD
HETATM   33  C   UNL     1     189.628 124.193  33.507  1.00  0.00     0.071 C 
ENDBRANCH   3  25
TORSDOF 5
ENDMDL
MODEL 20
REMARK VINA RESULT:    -8.068      2.724      8.736
REMARK INTER + INTRA:         -11.167
REMARK INTER:                 -10.400
REMARK INTRA:                  -0.767
REMARK UNBOUND:                -0.741
REMARK  5 active torsions:
REMARK  status: ('A' for Active; 'I' for Inactive)
REMARK    1  A    between atoms: C_6  and  C_7 
REMARK    2  A    between atoms: C_6  and  N_30 
REMARK    3  A    between atoms: C_14  and  C_16 
REMARK    4  A    between atoms: C_14  and  N_33 
REMARK    5  A    between atoms: C_15  and  C_23 
REMARK       I    between atoms: C_23  and  N_29 
ROOT
HETATM    1  O   UNL     1     185.200 120.900  29.756  1.00  0.00    -0.267 OA
HETATM    2  C   UNL     1     182.932 122.717  31.953  1.00  0.00     0.156 C 
HETATM    3  C   UNL     1     184.214 121.125  30.449  1.00  0.00     0.257 C 
HETATM    4  C   UNL     1     185.144 123.262  31.176  1.00  0.00     0.156 C 
HETATM    5  C   UNL     1     184.644 124.557  30.576  1.00  0.00     0.292 C 
HETATM    6  C   UNL     1     182.396 124.026  31.394  1.00  0.00     0.292 C 
HETATM    7  N   UNL     1     184.071 122.267  31.146  1.00  0.00    -0.344 N 
HETATM    8  N   UNL     1     183.501 125.032  31.410  1.00  0.00     0.098 N 
ENDROOT
BRANCH   8   9
HETATM    9  C   UNL     1     183.020 126.376  30.962  1.00  0.00     0.348 C 
BRANCH   9  10
HETATM   10  C   UNL     1     183.886 126.792  29.807  1.00  0.00     0.113 A 
HETATM   11  N   UNL     1     185.087 127.299  29.987  1.00  0.00    -0.342 N 
HETATM   12  C   UNL     1     185.506 127.682  28.712  1.00  0.00     0.060 A 
ATOM     13  HN  UNL     1     185.599 127.391  30.864  1.00  0.00     0.167 HD
HETATM   14  C   UNL     1     186.676 128.326  28.313  1.00  0.00     0.032 A 
HETATM   15  C   UNL     1     184.532 127.377  27.771  1.00  0.00     0.062 A 
HETATM   16  C   UNL     1     186.829 128.654  26.972  1.00  0.00     0.002 A 
HETATM   17  C   UNL     1     185.840 128.343  26.043  1.00  0.00     0.002 A 
HETATM   18  C   UNL     1     184.680 127.690  26.431  1.00  0.00     0.032 A 
HETATM   19  N   UNL     1     183.490 126.801  28.493  1.00  0.00    -0.333 N 
BRANCH  19  20
HETATM   20  C   UNL     1     182.187 126.398  27.930  1.00  0.00     0.139 C 
BRANCH  20  21
HETATM   21  C   UNL     1     182.135 125.052  27.171  1.00  0.00    -0.035 C 
HETATM   22  C   UNL     1     182.104 125.277  25.665  1.00  0.00     0.016 C 
HETATM   23  C   UNL     1     180.855 124.328  27.582  1.00  0.00     0.016 C 
HETATM   24  C   UNL     1     183.306 124.136  27.507  1.00  0.00     0.016 C 
ENDBRANCH  20  21
ENDBRANCH  19  20
ENDBRANCH   9  10
ENDBRANCH   8   9
BRANCH   3  25
HETATM   25  C   UNL     1     183.167 120.047  30.594  1.00  0.00     0.079 A 
HETATM   26  C   UNL     1     181.948 120.022  29.937  1.00  0.00     0.042 A 
HETATM   27  N   UNL     1     181.338 118.858  30.212  1.00  0.00    -0.300 N 
HETATM   28  C   UNL     1     181.275 121.038  29.080  1.00  0.00     0.071 C 
HETATM   29  C   UNL     1     180.046 118.357  29.757  1.00  0.00     0.177 C 
HETATM   30  N   UNL     1     182.093 118.099  31.055  1.00  0.00    -0.302 N 
HETATM   31  C   UNL     1     183.185 118.801  31.292  1.00  0.00     0.040 A 
ATOM     32  HN  UNL     1     181.861 117.178  31.426  1.00  0.00     0.186 HD
HETATM   33  C   UNL     1     184.237 118.220  32.178  1.00  0.00     0.071 C 
ENDBRANCH   3  25
TORSDOF 5
ENDMDL
