REMARK  8 active torsions:
REMARK  status: ('A' for Active; 'I' for Inactive)
REMARK    1  A    between atoms: C_1  and  C_18 
REMARK    2  A    between atoms: C_4  and  C_5 
REMARK    3  A    between atoms: C_5  and  C_23 
REMARK    4  A    between atoms: C_5  and  N_25 
REMARK    5  A    between atoms: C_6  and  C_23 
REMARK    6  A    between atoms: C_7  and  C_16 
REMARK    7  A    between atoms: C_21  and  N_31 
REMARK    8  A    between atoms: N_28  and  O_36 
ROOT
HETATM    1  C   UNL     1      31.756   7.016  -5.948  1.00  0.00    -0.003 A 
HETATM    2  C   UNL     1      32.675   6.191  -6.598  1.00  0.00     0.016 A 
HETATM    3  C   UNL     1      32.745   4.829  -6.294  1.00  0.00     0.031 A 
HETATM    4  C   UNL     1      31.882   4.313  -5.335  1.00  0.00     0.064 A 
HETATM    5  C   UNL     1      30.925   6.426  -5.004  1.00  0.00     0.135 A 
HETATM    6  N   UNL     1      31.004   5.116  -4.716  1.00  0.00    -0.237 N 
ENDROOT
BRANCH   4   7
HETATM    7  C   UNL     1      31.848   2.874  -4.928  1.00  0.00     0.160 C 
BRANCH   7   8
HETATM    8  C   UNL     1      32.311   1.946  -6.025  1.00  0.00     0.038 C 
BRANCH   8   9
HETATM    9  C   UNL     1      32.284   0.546  -5.529  1.00  0.00    -0.012 A 
HETATM   10  C   UNL     1      31.947  -0.554  -6.503  1.00  0.00     0.005 A 
HETATM   11  C   UNL     1      30.964  -0.170  -5.430  1.00  0.00     0.005 A 
ENDBRANCH   8   9
ENDBRANCH   7   8
BRANCH   7  12
HETATM   12  N   UNL     1      32.575   2.604  -3.707  1.00  0.00    -0.292 N 
HETATM   13  N   UNL     1      33.892   2.843  -3.621  1.00  0.00    -0.308 N 
HETATM   14  C   UNL     1      34.177   2.466  -2.369  1.00  0.00     0.121 A 
ATOM     15  HN  UNL     1      34.520   3.218  -4.332  1.00  0.00     0.186 HD
HETATM   16  C   UNL     1      33.045   1.997  -1.674  1.00  0.00     0.016 A 
HETATM   17  C   UNL     1      32.005   2.104  -2.576  1.00  0.00     0.125 A 
BRANCH  16  18
HETATM   18  C   UNL     1      32.917   1.532  -0.298  1.00  0.00     0.034 A 
HETATM   19  S   UNL     1      34.034   1.920   0.950  1.00  0.00    -0.083 SA
HETATM   20  C   UNL     1      33.073   1.026   2.058  1.00  0.00     0.138 A 
HETATM   21  N   UNL     1      31.994   0.461   1.563  1.00  0.00    -0.368 N 
HETATM   22  C   UNL     1      31.900   0.757   0.218  1.00  0.00     0.107 A 
ATOM     23  HN  UNL     1      31.331  -0.107   2.090  1.00  0.00     0.165 HD
ENDBRANCH  16  18
ENDBRANCH   7  12
ENDBRANCH   4   7
BRANCH   6  24
HETATM   24  O   UNL     1      30.222   4.631  -3.862  1.00  0.00    -0.283 OA
ATOM     25  HO  UNL     1      29.600   5.200  -3.424  1.00  0.00     0.245 HD
ENDBRANCH   6  24
BRANCH   1  26
HETATM   26  C   UNL     1      31.624   8.442  -6.242  1.00  0.00     0.044 A 
HETATM   27  C   UNL     1      32.577   9.405  -5.894  1.00  0.00     0.069 A 
HETATM   28  C   UNL     1      32.392  10.758  -6.202  1.00  0.00     0.034 A 
HETATM   29  C   UNL     1      31.237  11.173  -6.870  1.00  0.00     0.029 A 
HETATM   30  C   UNL     1      30.288  10.213  -7.225  1.00  0.00     0.073 A 
HETATM   31 CL   UNL     1      28.865  10.719  -8.057  1.00  0.00    -0.081 Cl
HETATM   32  C   UNL     1      30.481   8.865  -6.918  1.00  0.00     0.151 A 
HETATM   33  F   UNL     1      29.561   7.944  -7.256  1.00  0.00    -0.203 F 
BRANCH  27  34
HETATM   34  N   UNL     1      33.772   9.055  -5.268  1.00  0.00    -0.235 N 
HETATM   35  C   UNL     1      35.028   9.322  -5.709  1.00  0.00     0.218 A 
HETATM   36  N   UNL     1      35.884   8.811  -4.851  1.00  0.00    -0.280 N 
HETATM   37  N   UNL     1      35.115   8.225  -3.873  1.00  0.00    -0.007 NA
ATOM     38  HN  UNL     1      36.902   8.843  -4.901  1.00  0.00     0.184 HD
HETATM   39  N   UNL     1      33.818   8.366  -4.123  1.00  0.00    -0.000 NA
ENDBRANCH  27  34
ENDBRANCH   1  26
TORSDOF 8
