MODEL 1
REMARK VINA RESULT:    -7.212      0.000      0.000
REMARK INTER + INTRA:          -7.885
REMARK INTER:                  -7.845
REMARK INTRA:                  -0.040
REMARK UNBOUND:                -0.040
REMARK  2 active torsions:
REMARK  status: ('A' for Active; 'I' for Inactive)
REMARK    1  A    between atoms: C_1  and  C_4 
REMARK    2  A    between atoms: C_7  and  O_10 
ROOT
HETATM    1  C   UNL     1      22.164  14.068  61.235  1.00  0.00     0.041 A 
HETATM    2  C   UNL     1      22.692  15.055  62.057  1.00  0.00     0.021 A 
HETATM    3  C   UNL     1      23.225  16.214  61.525  1.00  0.00     0.037 A 
HETATM    4  C   UNL     1      23.241  16.401  60.151  1.00  0.00     0.065 A 
HETATM    5  C   UNL     1      22.704  15.426  59.323  1.00  0.00     0.037 A 
HETATM    6  C   UNL     1      22.178  14.268  59.864  1.00  0.00     0.021 A 
ENDROOT
BRANCH   1   7
HETATM    7  C   UNL     1      21.612  12.799  61.826  1.00  0.00     0.209 C 
HETATM    8  O   UNL     1      21.469  11.833  61.058  1.00  0.00    -0.644 OA
HETATM    9  O   UNL     1      21.291  12.784  63.040  1.00  0.00    -0.644 OA
ENDBRANCH   1   7
BRANCH   4  10
HETATM   10  O   UNL     1      23.779  17.540  59.624  1.00  0.00    -0.361 OA
ATOM     11  HO  UNL     1      24.650  17.817  59.881  1.00  0.00     0.217 HD
ENDBRANCH   4  10
TORSDOF 2
ENDMDL
MODEL 2
REMARK VINA RESULT:    -7.199      0.092      1.515
REMARK INTER + INTRA:          -7.871
REMARK INTER:                  -7.831
REMARK INTRA:                  -0.040
REMARK UNBOUND:                -0.040
REMARK  2 active torsions:
REMARK  status: ('A' for Active; 'I' for Inactive)
REMARK    1  A    between atoms: C_1  and  C_4 
REMARK    2  A    between atoms: C_7  and  O_10 
ROOT
HETATM    1  C   UNL     1      22.157  13.980  61.223  1.00  0.00     0.041 A 
HETATM    2  C   UNL     1      22.161  14.187  59.850  1.00  0.00     0.021 A 
HETATM    3  C   UNL     1      22.675  15.351  59.307  1.00  0.00     0.037 A 
HETATM    4  C   UNL     1      23.193  16.332  60.139  1.00  0.00     0.065 A 
HETATM    5  C   UNL     1      23.204  16.128  61.511  1.00  0.00     0.037 A 
HETATM    6  C   UNL     1      22.683  14.964  62.044  1.00  0.00     0.021 A 
ENDROOT
BRANCH   1   7
HETATM    7  C   UNL     1      21.569  12.722  61.801  1.00  0.00     0.209 C 
HETATM    8  O   UNL     1      21.419  11.760  61.028  1.00  0.00    -0.644 OA
HETATM    9  O   UNL     1      21.225  12.711  63.009  1.00  0.00    -0.644 OA
ENDBRANCH   1   7
BRANCH   4  10
HETATM   10  O   UNL     1      23.690  17.486  59.605  1.00  0.00    -0.361 OA
ATOM     11  HO  UNL     1      23.643  17.634  58.668  1.00  0.00     0.217 HD
ENDBRANCH   4  10
TORSDOF 2
ENDMDL
MODEL 3
REMARK VINA RESULT:    -7.189      2.167      3.291
REMARK INTER + INTRA:          -7.859
REMARK INTER:                  -7.821
REMARK INTRA:                  -0.039
REMARK UNBOUND:                -0.040
REMARK  2 active torsions:
REMARK  status: ('A' for Active; 'I' for Inactive)
REMARK    1  A    between atoms: C_1  and  C_4 
REMARK    2  A    between atoms: C_7  and  O_10 
ROOT
HETATM    1  C   UNL     1      21.843  14.149  61.963  1.00  0.00     0.041 A 
HETATM    2  C   UNL     1      22.671  15.263  62.015  1.00  0.00     0.021 A 
HETATM    3  C   UNL     1      22.631  16.129  63.093  1.00  0.00     0.037 A 
HETATM    4  C   UNL     1      21.752  15.893  64.139  1.00  0.00     0.065 A 
HETATM    5  C   UNL     1      20.930  14.776  64.100  1.00  0.00     0.037 A 
HETATM    6  C   UNL     1      20.973  13.918  63.016  1.00  0.00     0.021 A 
ENDROOT
BRANCH   1   7
HETATM    7  C   UNL     1      21.876  13.231  60.772  1.00  0.00     0.209 C 
HETATM    8  O   UNL     1      22.213  13.728  59.684  1.00  0.00    -0.644 OA
HETATM    9  O   UNL     1      21.532  12.033  60.919  1.00  0.00    -0.644 OA
ENDBRANCH   1   7
BRANCH   4  10
HETATM   10  O   UNL     1      21.703  16.754  65.197  1.00  0.00    -0.361 OA
ATOM     11  HO  UNL     1      22.459  16.853  65.763  1.00  0.00     0.217 HD
ENDBRANCH   4  10
TORSDOF 2
ENDMDL
MODEL 4
REMARK VINA RESULT:    -7.178      2.145      3.265
REMARK INTER + INTRA:          -7.847
REMARK INTER:                  -7.809
REMARK INTRA:                  -0.038
REMARK UNBOUND:                -0.040
REMARK  2 active torsions:
REMARK  status: ('A' for Active; 'I' for Inactive)
REMARK    1  A    between atoms: C_1  and  C_4 
REMARK    2  A    between atoms: C_7  and  O_10 
ROOT
HETATM    1  C   UNL     1      21.799  14.126  61.934  1.00  0.00     0.041 A 
HETATM    2  C   UNL     1      20.896  13.931  62.971  1.00  0.00     0.021 A 
HETATM    3  C   UNL     1      20.868  14.786  64.059  1.00  0.00     0.037 A 
HETATM    4  C   UNL     1      21.752  15.852  64.124  1.00  0.00     0.065 A 
HETATM    5  C   UNL     1      22.648  16.061  63.086  1.00  0.00     0.037 A 
HETATM    6  C   UNL     1      22.672  15.199  62.006  1.00  0.00     0.021 A 
ENDROOT
BRANCH   1   7
HETATM    7  C   UNL     1      21.838  13.172  60.770  1.00  0.00     0.209 C 
HETATM    8  O   UNL     1      22.186  13.636  59.671  1.00  0.00    -0.644 OA
HETATM    9  O   UNL     1      21.486  11.981  60.949  1.00  0.00    -0.644 OA
ENDBRANCH   1   7
BRANCH   4  10
HETATM   10  O   UNL     1      21.732  16.689  65.203  1.00  0.00    -0.361 OA
ATOM     11  HO  UNL     1      22.448  16.675  65.828  1.00  0.00     0.217 HD
ENDBRANCH   4  10
TORSDOF 2
ENDMDL
MODEL 5
REMARK VINA RESULT:    -6.809      2.236      3.080
REMARK INTER + INTRA:          -7.446
REMARK INTER:                  -7.406
REMARK INTRA:                  -0.040
REMARK UNBOUND:                -0.040
REMARK  2 active torsions:
REMARK  status: ('A' for Active; 'I' for Inactive)
REMARK    1  A    between atoms: C_1  and  C_4 
REMARK    2  A    between atoms: C_7  and  O_10 
ROOT
HETATM    1  C   UNL     1      21.650  13.977  62.641  1.00  0.00     0.041 A 
HETATM    2  C   UNL     1      22.637  14.811  62.132  1.00  0.00     0.021 A 
HETATM    3  C   UNL     1      22.883  16.048  62.697  1.00  0.00     0.037 A 
HETATM    4  C   UNL     1      22.137  16.474  63.786  1.00  0.00     0.065 A 
HETATM    5  C   UNL     1      21.157  15.642  64.308  1.00  0.00     0.037 A 
HETATM    6  C   UNL     1      20.914  14.408  63.734  1.00  0.00     0.021 A 
ENDROOT
BRANCH   1   7
HETATM    7  C   UNL     1      21.373  12.644  62.000  1.00  0.00     0.209 C 
HETATM    8  O   UNL     1      20.801  11.789  62.697  1.00  0.00    -0.644 OA
HETATM    9  O   UNL     1      21.759  12.445  60.822  1.00  0.00    -0.644 OA
ENDBRANCH   1   7
BRANCH   4  10
HETATM   10  O   UNL     1      22.371  17.701  64.336  1.00  0.00    -0.361 OA
ATOM     11  HO  UNL     1      23.244  18.076  64.306  1.00  0.00     0.217 HD
ENDBRANCH   4  10
TORSDOF 2
ENDMDL
MODEL 6
REMARK VINA RESULT:    -6.493      2.142      4.300
REMARK INTER + INTRA:          -7.103
REMARK INTER:                  -7.061
REMARK INTRA:                  -0.041
REMARK UNBOUND:                -0.040
REMARK  2 active torsions:
REMARK  status: ('A' for Active; 'I' for Inactive)
REMARK    1  A    between atoms: C_1  and  C_4 
REMARK    2  A    between atoms: C_7  and  O_10 
ROOT
HETATM    1  C   UNL     1      21.629  14.765  63.014  1.00  0.00     0.041 A 
HETATM    2  C   UNL     1      22.326  14.538  61.834  1.00  0.00     0.021 A 
HETATM    3  C   UNL     1      22.154  13.366  61.120  1.00  0.00     0.037 A 
HETATM    4  C   UNL     1      21.277  12.396  61.583  1.00  0.00     0.065 A 
HETATM    5  C   UNL     1      20.568  12.620  62.754  1.00  0.00     0.037 A 
HETATM    6  C   UNL     1      20.751  13.793  63.463  1.00  0.00     0.021 A 
ENDROOT
BRANCH   1   7
HETATM    7  C   UNL     1      21.847  16.032  63.795  1.00  0.00     0.209 C 
HETATM    8  O   UNL     1      22.727  16.806  63.382  1.00  0.00    -0.644 OA
HETATM    9  O   UNL     1      21.169  16.231  64.832  1.00  0.00    -0.644 OA
ENDBRANCH   1   7
BRANCH   4  10
HETATM   10  O   UNL     1      21.116  11.233  60.886  1.00  0.00    -0.361 OA
ATOM     11  HO  UNL     1      20.332  10.711  61.008  1.00  0.00     0.217 HD
ENDBRANCH   4  10
TORSDOF 2
ENDMDL
MODEL 7
REMARK VINA RESULT:    -6.457      2.164      4.220
REMARK INTER + INTRA:          -7.063
REMARK INTER:                  -7.022
REMARK INTRA:                  -0.041
REMARK UNBOUND:                -0.040
REMARK  2 active torsions:
REMARK  status: ('A' for Active; 'I' for Inactive)
REMARK    1  A    between atoms: C_1  and  C_4 
REMARK    2  A    between atoms: C_7  and  O_10 
ROOT
HETATM    1  C   UNL     1      21.630  14.764  63.050  1.00  0.00     0.041 A 
HETATM    2  C   UNL     1      20.703  13.817  63.466  1.00  0.00     0.021 A 
HETATM    3  C   UNL     1      20.523  12.641  62.761  1.00  0.00     0.037 A 
HETATM    4  C   UNL     1      21.271  12.397  61.618  1.00  0.00     0.065 A 
HETATM    5  C   UNL     1      22.208  13.333  61.204  1.00  0.00     0.037 A 
HETATM    6  C   UNL     1      22.378  14.507  61.912  1.00  0.00     0.021 A 
ENDROOT
BRANCH   1   7
HETATM    7  C   UNL     1      21.797  16.052  63.811  1.00  0.00     0.209 C 
HETATM    8  O   UNL     1      22.673  16.836  63.410  1.00  0.00    -0.644 OA
HETATM    9  O   UNL     1      21.082  16.256  64.823  1.00  0.00    -0.644 OA
ENDBRANCH   1   7
BRANCH   4  10
HETATM   10  O   UNL     1      21.084  11.242  60.915  1.00  0.00    -0.361 OA
ATOM     11  HO  UNL     1      21.834  10.748  60.606  1.00  0.00     0.217 HD
ENDBRANCH   4  10
TORSDOF 2
ENDMDL
MODEL 8
REMARK VINA RESULT:    -6.415      1.925      4.473
REMARK INTER + INTRA:          -7.017
REMARK INTER:                  -6.977
REMARK INTRA:                  -0.040
REMARK UNBOUND:                -0.040
REMARK  2 active torsions:
REMARK  status: ('A' for Active; 'I' for Inactive)
REMARK    1  A    between atoms: C_1  and  C_4 
REMARK    2  A    between atoms: C_7  and  O_10 
ROOT
HETATM    1  C   UNL     1      22.651  15.968  62.019  1.00  0.00     0.041 A 
HETATM    2  C   UNL     1      22.368  16.454  63.289  1.00  0.00     0.021 A 
HETATM    3  C   UNL     1      21.704  15.674  64.218  1.00  0.00     0.037 A 
HETATM    4  C   UNL     1      21.307  14.387  63.883  1.00  0.00     0.065 A 
HETATM    5  C   UNL     1      21.596  13.890  62.621  1.00  0.00     0.037 A 
HETATM    6  C   UNL     1      22.256  14.680  61.698  1.00  0.00     0.021 A 
ENDROOT
BRANCH   1   7
HETATM    7  C   UNL     1      23.349  16.838  61.009  1.00  0.00     0.209 C 
HETATM    8  O   UNL     1      23.279  18.067  61.177  1.00  0.00    -0.644 OA
HETATM    9  O   UNL     1      23.929  16.295  60.037  1.00  0.00    -0.644 OA
ENDBRANCH   1   7
BRANCH   4  10
HETATM   10  O   UNL     1      20.640  13.621  64.795  1.00  0.00    -0.361 OA
ATOM     11  HO  UNL     1      20.078  14.032  65.441  1.00  0.00     0.217 HD
ENDBRANCH   4  10
TORSDOF 2
ENDMDL
MODEL 9
REMARK VINA RESULT:    -6.220      1.912      4.604
REMARK INTER + INTRA:          -6.806
REMARK INTER:                  -6.767
REMARK INTRA:                  -0.039
REMARK UNBOUND:                -0.040
REMARK  2 active torsions:
REMARK  status: ('A' for Active; 'I' for Inactive)
REMARK    1  A    between atoms: C_1  and  C_4 
REMARK    2  A    between atoms: C_7  and  O_10 
ROOT
HETATM    1  C   UNL     1      22.595  16.001  61.996  1.00  0.00     0.041 A 
HETATM    2  C   UNL     1      22.167  14.724  61.655  1.00  0.00     0.021 A 
HETATM    3  C   UNL     1      21.530  13.917  62.579  1.00  0.00     0.037 A 
HETATM    4  C   UNL     1      21.313  14.379  63.869  1.00  0.00     0.065 A 
HETATM    5  C   UNL     1      21.726  15.658  64.214  1.00  0.00     0.037 A 
HETATM    6  C   UNL     1      22.367  16.455  63.285  1.00  0.00     0.021 A 
ENDROOT
BRANCH   1   7
HETATM    7  C   UNL     1      23.312  16.858  60.989  1.00  0.00     0.209 C 
HETATM    8  O   UNL     1      23.904  16.272  60.067  1.00  0.00    -0.644 OA
HETATM    9  O   UNL     1      23.313  18.104  61.143  1.00  0.00    -0.644 OA
ENDBRANCH   1   7
BRANCH   4  10
HETATM   10  O   UNL     1      20.695  13.577  64.785  1.00  0.00    -0.361 OA
ATOM     11  HO  UNL     1      20.172  13.964  65.477  1.00  0.00     0.217 HD
ENDBRANCH   4  10
TORSDOF 2
ENDMDL
MODEL 10
REMARK VINA RESULT:    -6.136      2.277      2.841
REMARK INTER + INTRA:          -6.714
REMARK INTER:                  -6.680
REMARK INTRA:                  -0.034
REMARK UNBOUND:                -0.040
REMARK  2 active torsions:
REMARK  status: ('A' for Active; 'I' for Inactive)
REMARK    1  A    between atoms: C_1  and  C_4 
REMARK    2  A    between atoms: C_7  and  O_10 
ROOT
HETATM    1  C   UNL     1      21.409  12.722  62.428  1.00  0.00     0.041 A 
HETATM    2  C   UNL     1      20.669  13.379  63.402  1.00  0.00     0.021 A 
HETATM    3  C   UNL     1      20.952  14.688  63.750  1.00  0.00     0.037 A 
HETATM    4  C   UNL     1      21.992  15.360  63.125  1.00  0.00     0.065 A 
HETATM    5  C   UNL     1      22.729  14.715  62.142  1.00  0.00     0.037 A 
HETATM    6  C   UNL     1      22.441  13.405  61.805  1.00  0.00     0.021 A 
ENDROOT
BRANCH   1   7
HETATM    7  C   UNL     1      21.108  11.290  62.080  1.00  0.00     0.209 C 
HETATM    8  O   UNL     1      19.916  10.994  61.885  1.00  0.00    -0.644 OA
HETATM    9  O   UNL     1      22.051  10.463  62.040  1.00  0.00    -0.644 OA
ENDBRANCH   1   7
BRANCH   4  10
HETATM   10  O   UNL     1      22.281  16.647  63.476  1.00  0.00    -0.361 OA
ATOM     11  HO  UNL     1      22.829  16.821  64.232  1.00  0.00     0.217 HD
ENDBRANCH   4  10
TORSDOF 2
ENDMDL
MODEL 11
REMARK VINA RESULT:    -5.857      1.687      2.161
REMARK INTER + INTRA:          -6.410
REMARK INTER:                  -6.373
REMARK INTRA:                  -0.038
REMARK UNBOUND:                -0.040
REMARK  2 active torsions:
REMARK  status: ('A' for Active; 'I' for Inactive)
REMARK    1  A    between atoms: C_1  and  C_4 
REMARK    2  A    between atoms: C_7  and  O_10 
ROOT
HETATM    1  C   UNL     1      21.721  15.103  62.967  1.00  0.00     0.041 A 
HETATM    2  C   UNL     1      22.421  16.290  63.142  1.00  0.00     0.021 A 
HETATM    3  C   UNL     1      23.199  16.814  62.125  1.00  0.00     0.037 A 
HETATM    4  C   UNL     1      23.289  16.150  60.911  1.00  0.00     0.065 A 
HETATM    5  C   UNL     1      22.583  14.970  60.724  1.00  0.00     0.037 A 
HETATM    6  C   UNL     1      21.813  14.452  61.748  1.00  0.00     0.021 A 
ENDROOT
BRANCH   1   7
HETATM    7  C   UNL     1      20.901  14.530  64.091  1.00  0.00     0.209 C 
HETATM    8  O   UNL     1      20.792  13.293  64.137  1.00  0.00    -0.644 OA
HETATM    9  O   UNL     1      20.342  15.314  64.896  1.00  0.00    -0.644 OA
ENDBRANCH   1   7
BRANCH   4  10
HETATM   10  O   UNL     1      24.067  16.660  59.911  1.00  0.00    -0.361 OA
ATOM     11  HO  UNL     1      25.007  16.528  59.927  1.00  0.00     0.217 HD
ENDBRANCH   4  10
TORSDOF 2
ENDMDL
MODEL 12
REMARK VINA RESULT:    -5.850      1.713      4.051
REMARK INTER + INTRA:          -6.403
REMARK INTER:                  -6.368
REMARK INTRA:                  -0.035
REMARK UNBOUND:                -0.040
REMARK  2 active torsions:
REMARK  status: ('A' for Active; 'I' for Inactive)
REMARK    1  A    between atoms: C_1  and  C_4 
REMARK    2  A    between atoms: C_7  and  O_10 
ROOT
HETATM    1  C   UNL     1      22.015  14.499  60.957  1.00  0.00     0.041 A 
HETATM    2  C   UNL     1      21.159  13.439  61.224  1.00  0.00     0.021 A 
HETATM    3  C   UNL     1      20.713  13.190  62.509  1.00  0.00     0.037 A 
HETATM    4  C   UNL     1      21.125  14.004  63.554  1.00  0.00     0.065 A 
HETATM    5  C   UNL     1      21.970  15.073  63.294  1.00  0.00     0.037 A 
HETATM    6  C   UNL     1      22.414  15.311  62.007  1.00  0.00     0.021 A 
ENDROOT
BRANCH   1   7
HETATM    7  C   UNL     1      22.514  14.742  59.559  1.00  0.00     0.209 C 
HETATM    8  O   UNL     1      22.936  13.756  58.930  1.00  0.00    -0.644 OA
HETATM    9  O   UNL     1      22.518  15.914  59.110  1.00  0.00    -0.644 OA
ENDBRANCH   1   7
BRANCH   4  10
HETATM   10  O   UNL     1      20.695  13.751  64.825  1.00  0.00    -0.361 OA
ATOM     11  HO  UNL     1      20.428  14.469  65.387  1.00  0.00     0.217 HD
ENDBRANCH   4  10
TORSDOF 2
ENDMDL
MODEL 13
REMARK VINA RESULT:    -5.706      0.976      4.405
REMARK INTER + INTRA:          -6.247
REMARK INTER:                  -6.206
REMARK INTRA:                  -0.041
REMARK UNBOUND:                -0.040
REMARK  2 active torsions:
REMARK  status: ('A' for Active; 'I' for Inactive)
REMARK    1  A    between atoms: C_1  and  C_4 
REMARK    2  A    between atoms: C_7  and  O_10 
ROOT
HETATM    1  C   UNL     1      22.791  15.833  60.867  1.00  0.00     0.041 A 
HETATM    2  C   UNL     1      22.555  15.094  59.715  1.00  0.00     0.021 A 
HETATM    3  C   UNL     1      22.125  13.782  59.788  1.00  0.00     0.037 A 
HETATM    4  C   UNL     1      21.929  13.185  61.024  1.00  0.00     0.065 A 
HETATM    5  C   UNL     1      22.151  13.920  62.180  1.00  0.00     0.037 A 
HETATM    6  C   UNL     1      22.585  15.230  62.097  1.00  0.00     0.021 A 
ENDROOT
BRANCH   1   7
HETATM    7  C   UNL     1      23.285  17.251  60.774  1.00  0.00     0.209 C 
HETATM    8  O   UNL     1      23.280  17.922  61.821  1.00  0.00    -0.644 OA
HETATM    9  O   UNL     1      23.638  17.699  59.656  1.00  0.00    -0.644 OA
ENDBRANCH   1   7
BRANCH   4  10
HETATM   10  O   UNL     1      21.516  11.885  61.096  1.00  0.00    -0.361 OA
ATOM     11  HO  UNL     1      21.804  11.259  60.443  1.00  0.00     0.217 HD
ENDBRANCH   4  10
TORSDOF 2
ENDMDL
MODEL 14
REMARK VINA RESULT:    -5.224      2.719      3.715
REMARK INTER + INTRA:          -5.723
REMARK INTER:                  -5.686
REMARK INTRA:                  -0.037
REMARK UNBOUND:                -0.040
REMARK  2 active torsions:
REMARK  status: ('A' for Active; 'I' for Inactive)
REMARK    1  A    between atoms: C_1  and  C_4 
REMARK    2  A    between atoms: C_7  and  O_10 
ROOT
HETATM    1  C   UNL     1      22.392  16.408  63.071  1.00  0.00     0.041 A 
HETATM    2  C   UNL     1      21.962  15.119  62.782  1.00  0.00     0.021 A 
HETATM    3  C   UNL     1      22.180  14.559  61.536  1.00  0.00     0.037 A 
HETATM    4  C   UNL     1      22.831  15.289  60.553  1.00  0.00     0.065 A 
HETATM    5  C   UNL     1      23.275  16.573  60.837  1.00  0.00     0.037 A 
HETATM    6  C   UNL     1      23.049  17.126  62.084  1.00  0.00     0.021 A 
ENDROOT
BRANCH   1   7
HETATM    7  C   UNL     1      22.125  17.015  64.421  1.00  0.00     0.209 C 
HETATM    8  O   UNL     1      23.016  17.733  64.905  1.00  0.00    -0.644 OA
HETATM    9  O   UNL     1      21.048  16.744  65.006  1.00  0.00    -0.644 OA
ENDBRANCH   1   7
BRANCH   4  10
HETATM   10  O   UNL     1      23.035  14.741  59.319  1.00  0.00    -0.361 OA
ATOM     11  HO  UNL     1      23.343  15.285  58.603  1.00  0.00     0.217 HD
ENDBRANCH   4  10
TORSDOF 2
ENDMDL
