REMARK  10 active torsions:
REMARK  status: ('A' for Active; 'I' for Inactive)
REMARK    1  A    between atoms: C_1  and  O_7 
REMARK    2  A    between atoms: C_4  and  S_12 
REMARK    3  A    between atoms: O_7  and  C_8 
REMARK    4  A    between atoms: S_12  and  N_13 
REMARK    5  A    between atoms: N_13  and  C_14 
REMARK    6  A    between atoms: C_14  and  C_15 
REMARK    7  A    between atoms: C_15  and  O_16 
REMARK    8  A    between atoms: O_16  and  P_17 
REMARK    9  A    between atoms: P_17  and  O_18 
REMARK   10  A    between atoms: P_17  and  O_20 
ROOT
HETATM    1  S   UNL     1      -0.936  -1.594   1.508  1.00  0.00     0.241 S 
HETATM    2  O   UNL     1      -1.897  -1.325   2.632  1.00  0.00    -0.206 OA
HETATM    3  O   UNL     1      -0.488  -3.026   1.599  1.00  0.00    -0.206 OA
ENDROOT
BRANCH   1   4
HETATM    4  C   UNL     1       0.449  -0.515   1.666  1.00  0.00     0.074 A 
HETATM    5  C   UNL     1       0.250   0.833   1.988  1.00  0.00     0.027 A 
HETATM    6  C   UNL     1       1.340   1.701   2.097  1.00  0.00     0.038 A 
HETATM    7  C   UNL     1       2.649   1.228   1.879  1.00  0.00     0.078 A 
HETATM    8  C   UNL     1       2.840  -0.120   1.551  1.00  0.00     0.038 A 
HETATM    9  C   UNL     1       1.748  -0.987   1.442  1.00  0.00     0.027 A 
BRANCH   7  10
HETATM   10  O   UNL     1       3.781   2.053   1.974  1.00  0.00    -0.255 OA
BRANCH  10  11
HETATM   11  C   UNL     1       3.763   3.442   2.296  1.00  0.00     0.530 C 
HETATM   12  F   UNL     1       3.216   3.633   3.552  1.00  0.00    -0.144 F 
HETATM   13  F   UNL     1       5.060   3.918   2.299  1.00  0.00    -0.144 F 
HETATM   14  F   UNL     1       3.034   4.141   1.352  1.00  0.00    -0.144 F 
ENDBRANCH  10  11
ENDBRANCH   7  10
ENDBRANCH   1   4
BRANCH   1  15
HETATM   15  N   UNL     1      -1.742  -1.328  -0.008  1.00  0.00    -0.214 NA
HETATM   16  H   UNL     1      -2.029  -0.322  -0.025  1.00  0.00     0.140 HD
BRANCH  15  17
HETATM   17  C   UNL     1      -0.807  -1.555  -1.113  1.00  0.00     0.131 C 
BRANCH  17  18
HETATM   18  C   UNL     1      -1.539  -1.465  -2.450  1.00  0.00     0.195 C 
BRANCH  18  19
HETATM   19  O   UNL     1      -2.535  -2.460  -2.504  1.00  0.00    -0.296 OA
BRANCH  19  20
HETATM   20  P   UNL     1      -3.329  -2.344  -4.008  1.00  0.00     0.390 P 
HETATM   21  O   UNL     1      -2.362  -2.651  -5.130  1.00  0.00    -0.632 OA
BRANCH  20  22
HETATM   22  O   UNL     1      -3.965  -0.788  -4.217  1.00  0.00    -0.307 OA
HETATM   23  H   UNL     1      -4.466  -0.832  -5.070  1.00  0.00     0.222 HD
ENDBRANCH  20  22
BRANCH  20  24
HETATM   24  O   UNL     1      -4.593  -3.468  -4.049  1.00  0.00    -0.307 OA
HETATM   25  H   UNL     1      -5.181  -3.212  -3.294  1.00  0.00     0.222 HD
ENDBRANCH  20  24
ENDBRANCH  19  20
ENDBRANCH  18  19
ENDBRANCH  17  18
ENDBRANCH  15  17
ENDBRANCH   1  15
TORSDOF 10
