MODEL 1
REMARK VINA RESULT:   -11.769      0.000      0.000
REMARK INTER + INTRA:         -20.346
REMARK INTER:                 -18.994
REMARK INTRA:                  -1.352
REMARK UNBOUND:                -1.352
REMARK  11 active torsions:
REMARK  status: ('A' for Active; 'I' for Inactive)
REMARK    1  A    between atoms: C_1  and  C_4 
REMARK    2  A    between atoms: C_1  and  N_27 
REMARK    3  A    between atoms: C_1  and  C_2 
REMARK       I    between atoms: C_2  and  N_41 
REMARK    4  A    between atoms: C_11  and  N_41 
REMARK    5  A    between atoms: C_12  and  C_52 
REMARK    6  A    between atoms: C_17  and  C_30 
REMARK    7  A    between atoms: C_18  and  C_34 
REMARK    8  A    between atoms: C_28  and  C_33 
REMARK    9  A    between atoms: C_35  and  C_38 
REMARK   10  A    between atoms: C_38  and  N_51 
REMARK   11  A    between atoms: C_52  and  O_53 
ROOT
HETATM    1  C   UNL     1      -2.471 -10.983  21.021  1.00  0.00    -0.014 A 
HETATM    2  C   UNL     1      -2.747 -12.169  20.086  1.00  0.00     0.052 C 
HETATM    3  C   UNL     1      -3.545 -10.344  21.589  1.00  0.00     0.068 A 
HETATM    4  C   UNL     1      -3.377  -9.237  22.473  1.00  0.00     0.021 A 
HETATM    5  C   UNL     1      -4.658  -8.800  22.796  1.00  0.00     0.126 A 
HETATM    6  C   UNL     1      -2.050  -8.787  22.820  1.00  0.00     0.021 A 
HETATM    7  N   UNL     1      -5.488  -9.614  22.105  1.00  0.00    -0.282 N 
HETATM    8  C   UNL     1      -1.213 -10.567  21.400  1.00  0.00     0.027 A 
HETATM    9  C   UNL     1      -1.014  -9.505  22.259  1.00  0.00     0.035 A 
HETATM   10  N   UNL     1      -4.861 -10.573  21.384  1.00  0.00    -0.296 N 
ATOM     11  HN  UNL     1      -5.285 -11.305  20.814  1.00  0.00     0.187 HD
ENDROOT
BRANCH   7  12
HETATM   12  C   UNL     1      -6.968  -9.661  22.191  1.00  0.00     0.251 C 
BRANCH  12  13
HETATM   13  C   UNL     1      -7.526  -8.280  22.192  1.00  0.00     0.067 A 
HETATM   14  C   UNL     1      -8.215  -7.669  23.147  1.00  0.00     0.038 A 
HETATM   15  C   UNL     1      -8.830  -7.810  24.553  1.00  0.00     0.062 C 
HETATM   16  N   UNL     1      -8.540  -6.410  22.688  1.00  0.00    -0.335 N 
HETATM   17  C   UNL     1      -9.354  -6.415  24.880  1.00  0.00     0.037 C 
HETATM   18  C   UNL     1      -9.334  -5.650  23.568  1.00  0.00     0.038 A 
HETATM   19  C   UNL     1      -9.362  -4.120  23.506  1.00  0.00     0.034 A 
HETATM   20  C   UNL     1     -10.585  -4.952  23.032  1.00  0.00     0.034 A 
HETATM   21  C   UNL     1      -8.028  -6.325  21.457  1.00  0.00     0.184 A 
HETATM   22  N   UNL     1      -7.389  -7.436  21.116  1.00  0.00    -0.352 N 
ATOM     23  HN  UNL     1      -6.900  -7.625  20.241  1.00  0.00     0.166 HD
ENDBRANCH  12  13
BRANCH  12  24
HETATM   24  C   UNL     1      -7.342 -10.431  23.405  1.00  0.00     0.254 C 
HETATM   25  O   UNL     1      -6.732 -10.334  24.475  1.00  0.00    -0.270 OA
HETATM   26  N   UNL     1      -8.426 -11.245  23.301  1.00  0.00    -0.305 N 
ATOM     27  HN  UNL     1      -8.884 -11.329  22.393  1.00  0.00     0.171 HD
BRANCH  26  28
HETATM   28  C   UNL     1      -8.930 -11.953  24.349  1.00  0.00     0.150 A 
HETATM   29  S   UNL     1     -10.199 -13.101  24.267  1.00  0.00    -0.064 SA
HETATM   30  C   UNL     1     -10.099 -13.336  25.994  1.00  0.00     0.070 A 
HETATM   31  C   UNL     1      -9.132 -12.541  26.494  1.00  0.00     0.097 A 
HETATM   32  N   UNL     1      -8.487 -11.758  25.555  1.00  0.00    -0.346 N 
ATOM     33  HN  UNL     1      -7.743 -11.097  25.784  1.00  0.00     0.167 HD
ENDBRANCH  26  28
ENDBRANCH  12  24
ENDBRANCH   7  12
BRANCH   6  34
HETATM   34  C   UNL     1      -1.794  -7.731  23.802  1.00  0.00     0.387 C 
HETATM   35  F   UNL     1      -2.241  -8.085  25.040  1.00  0.00    -0.209 F 
HETATM   36  F   UNL     1      -2.581  -6.618  23.519  1.00  0.00    -0.209 F 
ENDBRANCH   6  34
BRANCH   8  37
HETATM   37  C   UNL     1      -0.015 -11.245  20.885  1.00  0.00    -0.061 C 
HETATM   38  C   UNL     1       0.957 -11.779  20.490  1.00  0.00    -0.061 C 
BRANCH  38  39
HETATM   39  C   UNL     1       2.154 -12.484  20.033  1.00  0.00     0.018 A 
HETATM   40  C   UNL     1       3.300 -11.761  19.762  1.00  0.00     0.021 A 
HETATM   41  C   UNL     1       4.422 -12.447  19.262  1.00  0.00     0.010 A 
HETATM   42  C   UNL     1       4.292 -13.815  19.023  1.00  0.00    -0.030 A 
HETATM   43  C   UNL     1       3.160 -14.528  19.259  1.00  0.00     0.010 A 
HETATM   44  C   UNL     1       2.015 -13.821  19.753  1.00  0.00     0.021 A 
BRANCH  42  45
HETATM   45  C   UNL     1       5.517 -14.607  18.523  1.00  0.00     0.311 C 
BRANCH  45  46
HETATM   46  N   UNL     1       5.069 -15.375  17.345  1.00  0.00     0.092 N 
HETATM   47  C   UNL     1       5.543 -16.773  17.324  1.00  0.00     0.273 C 
HETATM   48  C   UNL     1       4.816 -17.511  16.188  1.00  0.00     0.037 C 
HETATM   49  C   UNL     1       4.954 -16.743  14.864  1.00  0.00     0.012 C 
HETATM   50  C   UNL     1       4.435 -15.298  14.989  1.00  0.00     0.037 C 
HETATM   51  C   UNL     1       5.246 -14.610  16.095  1.00  0.00     0.273 C 
BRANCH  49  52
HETATM   52  C   UNL     1       6.430 -16.724  14.462  1.00  0.00     0.168 C 
BRANCH  52  53
HETATM   53  O   UNL     1       6.849 -18.069  14.262  1.00  0.00    -0.400 OA
ATOM     54  HO  UNL     1       7.669 -18.194  14.726  1.00  0.00     0.209 HD
ENDBRANCH  52  53
ENDBRANCH  49  52
ENDBRANCH  45  46
ENDBRANCH  42  45
ENDBRANCH  38  39
ENDBRANCH   8  37
TORSDOF 11
ENDMDL
MODEL 2
REMARK VINA RESULT:   -10.770      4.061     13.875
REMARK INTER + INTRA:         -18.733
REMARK INTER:                 -16.793
REMARK INTRA:                  -1.940
REMARK UNBOUND:                -1.352
REMARK  11 active torsions:
REMARK  status: ('A' for Active; 'I' for Inactive)
REMARK    1  A    between atoms: C_1  and  C_4 
REMARK    2  A    between atoms: C_1  and  N_27 
REMARK    3  A    between atoms: C_1  and  C_2 
REMARK       I    between atoms: C_2  and  N_41 
REMARK    4  A    between atoms: C_11  and  N_41 
REMARK    5  A    between atoms: C_12  and  C_52 
REMARK    6  A    between atoms: C_17  and  C_30 
REMARK    7  A    between atoms: C_18  and  C_34 
REMARK    8  A    between atoms: C_28  and  C_33 
REMARK    9  A    between atoms: C_35  and  C_38 
REMARK   10  A    between atoms: C_38  and  N_51 
REMARK   11  A    between atoms: C_52  and  O_53 
ROOT
HETATM    1  C   UNL     1       0.397 -11.121  20.118  1.00  0.00    -0.014 A 
HETATM    2  C   UNL     1      -0.563 -12.318  20.104  1.00  0.00     0.052 C 
HETATM    3  C   UNL     1       1.594 -11.244  19.458  1.00  0.00     0.068 A 
HETATM    4  C   UNL     1       2.541 -10.178  19.418  1.00  0.00     0.021 A 
HETATM    5  C   UNL     1       3.650 -10.669  18.736  1.00  0.00     0.126 A 
HETATM    6  C   UNL     1       2.235  -8.917  20.050  1.00  0.00     0.021 A 
HETATM    7  N   UNL     1       3.336 -11.950  18.436  1.00  0.00    -0.282 N 
HETATM    8  C   UNL     1       0.104  -9.895  20.676  1.00  0.00     0.027 A 
HETATM    9  C   UNL     1       0.995  -8.839  20.649  1.00  0.00     0.035 A 
HETATM   10  N   UNL     1       2.097 -12.330  18.831  1.00  0.00    -0.296 N 
ATOM     11  HN  UNL     1       1.645 -13.233  18.688  1.00  0.00     0.187 HD
ENDROOT
BRANCH   7  12
HETATM   12  C   UNL     1       4.120 -12.891  17.600  1.00  0.00     0.251 C 
BRANCH  12  13
HETATM   13  C   UNL     1       3.216 -13.893  16.969  1.00  0.00     0.067 A 
HETATM   14  C   UNL     1       2.691 -14.986  17.510  1.00  0.00     0.038 A 
HETATM   15  C   UNL     1       2.609 -15.857  18.778  1.00  0.00     0.062 C 
HETATM   16  N   UNL     1       1.940 -15.613  16.539  1.00  0.00    -0.335 N 
HETATM   17  C   UNL     1       1.568 -16.921  18.441  1.00  0.00     0.037 C 
HETATM   18  C   UNL     1       1.362 -16.833  16.938  1.00  0.00     0.038 A 
HETATM   19  C   UNL     1       0.122 -17.400  16.242  1.00  0.00     0.034 A 
HETATM   20  C   UNL     1       1.512 -18.061  16.038  1.00  0.00     0.034 A 
HETATM   21  C   UNL     1       2.055 -14.859  15.442  1.00  0.00     0.184 A 
HETATM   22  N   UNL     1       2.813 -13.793  15.660  1.00  0.00    -0.352 N 
ATOM     23  HN  UNL     1       3.047 -13.054  14.996  1.00  0.00     0.166 HD
ENDBRANCH  12  13
BRANCH  12  24
HETATM   24  C   UNL     1       5.164 -13.516  18.451  1.00  0.00     0.254 C 
HETATM   25  O   UNL     1       5.141 -13.466  19.685  1.00  0.00    -0.270 OA
HETATM   26  N   UNL     1       6.155 -14.187  17.807  1.00  0.00    -0.305 N 
ATOM     27  HN  UNL     1       6.163 -14.177  16.787  1.00  0.00     0.171 HD
BRANCH  26  28
HETATM   28  C   UNL     1       7.136 -14.871  18.456  1.00  0.00     0.150 A 
HETATM   29  S   UNL     1       7.205 -16.570  18.668  1.00  0.00    -0.064 SA
HETATM   30  C   UNL     1       8.680 -16.397  19.587  1.00  0.00     0.070 A 
HETATM   31  C   UNL     1       9.002 -15.090  19.664  1.00  0.00     0.097 A 
HETATM   32  N   UNL     1       8.116 -14.239  19.030  1.00  0.00    -0.346 N 
ATOM     33  HN  UNL     1       8.221 -13.224  19.014  1.00  0.00     0.167 HD
ENDBRANCH  26  28
ENDBRANCH  12  24
ENDBRANCH   7  12
BRANCH   6  34
HETATM   34  C   UNL     1       3.106  -7.744  19.959  1.00  0.00     0.387 C 
HETATM   35  F   UNL     1       2.449  -6.607  20.324  1.00  0.00    -0.209 F 
HETATM   36  F   UNL     1       3.415  -7.482  18.627  1.00  0.00    -0.209 F 
ENDBRANCH   6  34
BRANCH   8  37
HETATM   37  C   UNL     1      -1.185  -9.666  21.343  1.00  0.00    -0.061 C 
HETATM   38  C   UNL     1      -2.215  -9.459  21.873  1.00  0.00    -0.061 C 
BRANCH  38  39
HETATM   39  C   UNL     1      -3.521  -9.206  22.483  1.00  0.00     0.018 A 
HETATM   40  C   UNL     1      -3.612  -8.312  23.532  1.00  0.00     0.021 A 
HETATM   41  C   UNL     1      -4.864  -8.128  24.148  1.00  0.00     0.010 A 
HETATM   42  C   UNL     1      -5.931  -8.901  23.691  1.00  0.00    -0.030 A 
HETATM   43  C   UNL     1      -5.842  -9.804  22.680  1.00  0.00     0.010 A 
HETATM   44  C   UNL     1      -4.562  -9.998  22.067  1.00  0.00     0.021 A 
BRANCH  42  45
HETATM   45  C   UNL     1      -7.327  -8.690  24.310  1.00  0.00     0.311 C 
BRANCH  45  46
HETATM   46  N   UNL     1      -7.818  -7.392  23.809  1.00  0.00     0.092 N 
HETATM   47  C   UNL     1      -8.635  -6.642  24.784  1.00  0.00     0.273 C 
HETATM   48  C   UNL     1      -8.873  -5.229  24.228  1.00  0.00     0.037 C 
HETATM   49  C   UNL     1      -9.436  -5.294  22.799  1.00  0.00     0.012 C 
HETATM   50  C   UNL     1      -8.514  -6.097  21.861  1.00  0.00     0.037 C 
HETATM   51  C   UNL     1      -8.375  -7.507  22.447  1.00  0.00     0.273 C 
BRANCH  49  52
HETATM   52  C   UNL     1     -10.816  -5.953  22.849  1.00  0.00     0.168 C 
BRANCH  52  53
HETATM   53  O   UNL     1     -11.796  -4.922  22.850  1.00  0.00    -0.400 OA
ATOM     54  HO  UNL     1     -11.568  -4.299  23.530  1.00  0.00     0.209 HD
ENDBRANCH  52  53
ENDBRANCH  49  52
ENDBRANCH  45  46
ENDBRANCH  42  45
ENDBRANCH  38  39
ENDBRANCH   8  37
TORSDOF 11
ENDMDL
MODEL 3
REMARK VINA RESULT:   -10.698      3.920     14.082
REMARK INTER + INTRA:         -18.617
REMARK INTER:                 -16.136
REMARK INTRA:                  -2.482
REMARK UNBOUND:                -1.352
REMARK  11 active torsions:
REMARK  status: ('A' for Active; 'I' for Inactive)
REMARK    1  A    between atoms: C_1  and  C_4 
REMARK    2  A    between atoms: C_1  and  N_27 
REMARK    3  A    between atoms: C_1  and  C_2 
REMARK       I    between atoms: C_2  and  N_41 
REMARK    4  A    between atoms: C_11  and  N_41 
REMARK    5  A    between atoms: C_12  and  C_52 
REMARK    6  A    between atoms: C_17  and  C_30 
REMARK    7  A    between atoms: C_18  and  C_34 
REMARK    8  A    between atoms: C_28  and  C_33 
REMARK    9  A    between atoms: C_35  and  C_38 
REMARK   10  A    between atoms: C_38  and  N_51 
REMARK   11  A    between atoms: C_52  and  O_53 
ROOT
HETATM    1  C   UNL     1      -0.026 -11.602  20.131  1.00  0.00    -0.014 A 
HETATM    2  C   UNL     1      -1.099 -12.699  20.124  1.00  0.00     0.052 C 
HETATM    3  C   UNL     1       1.174 -11.868  19.520  1.00  0.00     0.068 A 
HETATM    4  C   UNL     1       2.223 -10.903  19.477  1.00  0.00     0.021 A 
HETATM    5  C   UNL     1       3.300 -11.527  18.854  1.00  0.00     0.126 A 
HETATM    6  C   UNL     1       2.023  -9.594  20.051  1.00  0.00     0.021 A 
HETATM    7  N   UNL     1       2.870 -12.781  18.589  1.00  0.00    -0.282 N 
HETATM    8  C   UNL     1      -0.214 -10.332  20.634  1.00  0.00     0.027 A 
HETATM    9  C   UNL     1       0.778  -9.371  20.601  1.00  0.00     0.035 A 
HETATM   10  N   UNL     1       1.587 -13.022  18.952  1.00  0.00    -0.296 N 
ATOM     11  HN  UNL     1       1.052 -13.881  18.825  1.00  0.00     0.187 HD
ENDROOT
BRANCH   7  12
HETATM   12  C   UNL     1       3.584 -13.826  17.816  1.00  0.00     0.251 C 
BRANCH  12  13
HETATM   13  C   UNL     1       4.919 -13.325  17.388  1.00  0.00     0.067 A 
HETATM   14  C   UNL     1       6.105 -13.567  17.932  1.00  0.00     0.038 A 
HETATM   15  C   UNL     1       6.852 -14.288  19.070  1.00  0.00     0.062 C 
HETATM   16  N   UNL     1       7.048 -12.869  17.207  1.00  0.00    -0.335 N 
HETATM   17  C   UNL     1       8.329 -14.060  18.760  1.00  0.00     0.037 C 
HETATM   18  C   UNL     1       8.363 -12.971  17.701  1.00  0.00     0.038 A 
HETATM   19  C   UNL     1       9.579 -12.735  16.800  1.00  0.00     0.034 A 
HETATM   20  C   UNL     1       9.191 -11.699  17.890  1.00  0.00     0.034 A 
HETATM   21  C   UNL     1       6.374 -12.226  16.250  1.00  0.00     0.184 A 
HETATM   22  N   UNL     1       5.074 -12.484  16.312  1.00  0.00    -0.352 N 
ATOM     23  HN  UNL     1       4.343 -12.132  15.693  1.00  0.00     0.166 HD
ENDBRANCH  12  13
BRANCH  12  24
HETATM   24  C   UNL     1       2.728 -14.228  16.670  1.00  0.00     0.254 C 
HETATM   25  O   UNL     1       2.136 -13.412  15.956  1.00  0.00    -0.270 OA
HETATM   26  N   UNL     1       2.642 -15.560  16.411  1.00  0.00    -0.305 N 
ATOM     27  HN  UNL     1       3.114 -16.208  17.042  1.00  0.00     0.171 HD
BRANCH  26  28
HETATM   28  C   UNL     1       1.957 -16.070  15.352  1.00  0.00     0.150 A 
HETATM   29  S   UNL     1       2.639 -16.566  13.860  1.00  0.00    -0.064 SA
HETATM   30  C   UNL     1       1.047 -16.959  13.261  1.00  0.00     0.070 A 
HETATM   31  C   UNL     1       0.135 -16.689  14.217  1.00  0.00     0.097 A 
HETATM   32  N   UNL     1       0.663 -16.178  15.389  1.00  0.00    -0.346 N 
ATOM     33  HN  UNL     1       0.096 -15.914  16.196  1.00  0.00     0.167 HD
ENDBRANCH  26  28
ENDBRANCH  12  24
ENDBRANCH   7  12
BRANCH   6  34
HETATM   34  C   UNL     1       3.009  -8.516  19.951  1.00  0.00     0.387 C 
HETATM   35  F   UNL     1       4.153  -8.825  20.624  1.00  0.00    -0.209 F 
HETATM   36  F   UNL     1       2.561  -7.395  20.643  1.00  0.00    -0.209 F 
ENDBRANCH   6  34
BRANCH   8  37
HETATM   37  C   UNL     1      -1.495  -9.952  21.243  1.00  0.00    -0.061 C 
HETATM   38  C   UNL     1      -2.531  -9.668  21.725  1.00  0.00    -0.061 C 
BRANCH  38  39
HETATM   39  C   UNL     1      -3.803  -9.340  22.370  1.00  0.00     0.018 A 
HETATM   40  C   UNL     1      -3.820  -8.412  23.394  1.00  0.00     0.021 A 
HETATM   41  C   UNL     1      -5.040  -8.157  24.045  1.00  0.00     0.010 A 
HETATM   42  C   UNL     1      -6.154  -8.897  23.649  1.00  0.00    -0.030 A 
HETATM   43  C   UNL     1      -6.139  -9.833  22.664  1.00  0.00     0.010 A 
HETATM   44  C   UNL     1      -4.890 -10.099  22.014  1.00  0.00     0.021 A 
BRANCH  42  45
HETATM   45  C   UNL     1      -7.517  -8.609  24.308  1.00  0.00     0.311 C 
BRANCH  45  46
HETATM   46  N   UNL     1      -7.964  -7.299  23.796  1.00  0.00     0.092 N 
HETATM   47  C   UNL     1      -8.783  -6.527  24.752  1.00  0.00     0.273 C 
HETATM   48  C   UNL     1      -8.972  -5.109  24.190  1.00  0.00     0.037 C 
HETATM   49  C   UNL     1      -9.505  -5.160  22.749  1.00  0.00     0.012 C 
HETATM   50  C   UNL     1      -8.584  -5.988  21.832  1.00  0.00     0.037 C 
HETATM   51  C   UNL     1      -8.493  -7.401  22.422  1.00  0.00     0.273 C 
BRANCH  49  52
HETATM   52  C   UNL     1     -10.902  -5.784  22.769  1.00  0.00     0.168 C 
BRANCH  52  53
HETATM   53  O   UNL     1     -11.855  -4.728  22.789  1.00  0.00    -0.400 OA
ATOM     54  HO  UNL     1     -12.709  -5.105  22.965  1.00  0.00     0.209 HD
ENDBRANCH  52  53
ENDBRANCH  49  52
ENDBRANCH  45  46
ENDBRANCH  42  45
ENDBRANCH  38  39
ENDBRANCH   8  37
TORSDOF 11
ENDMDL
MODEL 4
REMARK VINA RESULT:   -10.605      4.178     14.114
REMARK INTER + INTRA:         -18.467
REMARK INTER:                 -16.278
REMARK INTRA:                  -2.188
REMARK UNBOUND:                -1.352
REMARK  11 active torsions:
REMARK  status: ('A' for Active; 'I' for Inactive)
REMARK    1  A    between atoms: C_1  and  C_4 
REMARK    2  A    between atoms: C_1  and  N_27 
REMARK    3  A    between atoms: C_1  and  C_2 
REMARK       I    between atoms: C_2  and  N_41 
REMARK    4  A    between atoms: C_11  and  N_41 
REMARK    5  A    between atoms: C_12  and  C_52 
REMARK    6  A    between atoms: C_17  and  C_30 
REMARK    7  A    between atoms: C_18  and  C_34 
REMARK    8  A    between atoms: C_28  and  C_33 
REMARK    9  A    between atoms: C_35  and  C_38 
REMARK   10  A    between atoms: C_38  and  N_51 
REMARK   11  A    between atoms: C_52  and  O_53 
ROOT
HETATM    1  C   UNL     1       0.065 -11.530  19.908  1.00  0.00    -0.014 A 
HETATM    2  C   UNL     1      -0.921 -12.701  19.803  1.00  0.00     0.052 C 
HETATM    3  C   UNL     1       1.279 -11.648  19.278  1.00  0.00     0.068 A 
HETATM    4  C   UNL     1       2.251 -10.605  19.321  1.00  0.00     0.021 A 
HETATM    5  C   UNL     1       3.369 -11.087  18.647  1.00  0.00     0.126 A 
HETATM    6  C   UNL     1       1.954  -9.371  20.010  1.00  0.00     0.021 A 
HETATM    7  N   UNL     1       3.034 -12.343  18.271  1.00  0.00    -0.282 N 
HETATM    8  C   UNL     1      -0.216 -10.328  20.521  1.00  0.00     0.027 A 
HETATM    9  C   UNL     1       0.699  -9.294  20.575  1.00  0.00     0.035 A 
HETATM   10  N   UNL     1       1.776 -12.712  18.610  1.00  0.00    -0.296 N 
ATOM     11  HN  UNL     1       1.308 -13.596  18.407  1.00  0.00     0.187 HD
ENDROOT
BRANCH   7  12
HETATM   12  C   UNL     1       3.822 -13.257  17.411  1.00  0.00     0.251 C 
BRANCH  12  13
HETATM   13  C   UNL     1       3.146 -14.581  17.314  1.00  0.00     0.067 A 
HETATM   14  C   UNL     1       2.338 -15.027  16.360  1.00  0.00     0.038 A 
HETATM   15  C   UNL     1       1.639 -14.685  15.030  1.00  0.00     0.062 C 
HETATM   16  N   UNL     1       1.938 -16.299  16.712  1.00  0.00    -0.335 N 
HETATM   17  C   UNL     1       0.973 -15.990  14.605  1.00  0.00     0.037 C 
HETATM   18  C   UNL     1       1.019 -16.893  15.826  1.00  0.00     0.038 A 
HETATM   19  C   UNL     1       0.861 -18.413  15.733  1.00  0.00     0.034 A 
HETATM   20  C   UNL     1      -0.247 -17.543  16.387  1.00  0.00     0.034 A 
HETATM   21  C   UNL     1       2.528 -16.559  17.882  1.00  0.00     0.184 A 
HETATM   22  N   UNL     1       3.285 -15.546  18.282  1.00  0.00    -0.352 N 
ATOM     23  HN  UNL     1       3.851 -15.493  19.130  1.00  0.00     0.166 HD
ENDBRANCH  12  13
BRANCH  12  24
HETATM   24  C   UNL     1       5.197 -13.356  17.966  1.00  0.00     0.254 C 
HETATM   25  O   UNL     1       5.448 -13.916  19.038  1.00  0.00    -0.270 OA
HETATM   26  N   UNL     1       6.196 -12.819  17.219  1.00  0.00    -0.305 N 
ATOM     27  HN  UNL     1       5.949 -12.331  16.357  1.00  0.00     0.171 HD
BRANCH  26  28
HETATM   28  C   UNL     1       7.510 -12.899  17.563  1.00  0.00     0.150 A 
HETATM   29  S   UNL     1       8.553 -11.573  17.863  1.00  0.00    -0.064 SA
HETATM   30  C   UNL     1       9.880 -12.675  18.134  1.00  0.00     0.070 A 
HETATM   31  C   UNL     1       9.442 -13.940  17.978  1.00  0.00     0.097 A 
HETATM   32  N   UNL     1       8.105 -14.052  17.646  1.00  0.00    -0.346 N 
ATOM     33  HN  UNL     1       7.635 -14.943  17.483  1.00  0.00     0.167 HD
ENDBRANCH  26  28
ENDBRANCH  12  24
ENDBRANCH   7  12
BRANCH   6  34
HETATM   34  C   UNL     1       2.855  -8.216  20.006  1.00  0.00     0.387 C 
HETATM   35  F   UNL     1       4.071  -8.533  20.533  1.00  0.00    -0.209 F 
HETATM   36  F   UNL     1       2.396  -7.252  20.899  1.00  0.00    -0.209 F 
ENDBRANCH   6  34
BRANCH   8  37
HETATM   37  C   UNL     1      -1.519 -10.102  21.161  1.00  0.00    -0.061 C 
HETATM   38  C   UNL     1      -2.556  -9.932  21.692  1.00  0.00    -0.061 C 
BRANCH  38  39
HETATM   39  C   UNL     1      -3.824  -9.673  22.373  1.00  0.00     0.018 A 
HETATM   40  C   UNL     1      -4.944 -10.398  22.012  1.00  0.00     0.021 A 
HETATM   41  C   UNL     1      -6.169 -10.091  22.632  1.00  0.00     0.010 A 
HETATM   42  C   UNL     1      -6.188  -9.033  23.542  1.00  0.00    -0.030 A 
HETATM   43  C   UNL     1      -5.098  -8.296  23.879  1.00  0.00     0.010 A 
HETATM   44  C   UNL     1      -3.857  -8.603  23.233  1.00  0.00     0.021 A 
BRANCH  42  45
HETATM   45  C   UNL     1      -7.503  -8.702  24.275  1.00  0.00     0.311 C 
BRANCH  45  46
HETATM   46  N   UNL     1      -7.946  -7.387  23.773  1.00  0.00     0.092 N 
HETATM   47  C   UNL     1      -8.756  -6.617  24.738  1.00  0.00     0.273 C 
HETATM   48  C   UNL     1      -8.941  -5.194  24.185  1.00  0.00     0.037 C 
HETATM   49  C   UNL     1      -9.481  -5.235  22.746  1.00  0.00     0.012 C 
HETATM   50  C   UNL     1      -8.568  -6.062  21.820  1.00  0.00     0.037 C 
HETATM   51  C   UNL     1      -8.482  -7.479  22.401  1.00  0.00     0.273 C 
BRANCH  49  52
HETATM   52  C   UNL     1     -10.881  -5.852  22.769  1.00  0.00     0.168 C 
BRANCH  52  53
HETATM   53  O   UNL     1     -11.830  -4.792  22.761  1.00  0.00    -0.400 OA
ATOM     54  HO  UNL     1     -11.353  -3.971  22.729  1.00  0.00     0.209 HD
ENDBRANCH  52  53
ENDBRANCH  49  52
ENDBRANCH  45  46
ENDBRANCH  42  45
ENDBRANCH  38  39
ENDBRANCH   8  37
TORSDOF 11
ENDMDL
MODEL 5
REMARK VINA RESULT:   -10.433      1.673      2.281
REMARK INTER + INTRA:         -18.189
REMARK INTER:                 -17.628
REMARK INTRA:                  -0.561
REMARK UNBOUND:                -1.352
REMARK  11 active torsions:
REMARK  status: ('A' for Active; 'I' for Inactive)
REMARK    1  A    between atoms: C_1  and  C_4 
REMARK    2  A    between atoms: C_1  and  N_27 
REMARK    3  A    between atoms: C_1  and  C_2 
REMARK       I    between atoms: C_2  and  N_41 
REMARK    4  A    between atoms: C_11  and  N_41 
REMARK    5  A    between atoms: C_12  and  C_52 
REMARK    6  A    between atoms: C_17  and  C_30 
REMARK    7  A    between atoms: C_18  and  C_34 
REMARK    8  A    between atoms: C_28  and  C_33 
REMARK    9  A    between atoms: C_35  and  C_38 
REMARK   10  A    between atoms: C_38  and  N_51 
REMARK   11  A    between atoms: C_52  and  O_53 
ROOT
HETATM    1  C   UNL     1      -2.916 -11.430  20.669  1.00  0.00    -0.014 A 
HETATM    2  C   UNL     1      -3.364 -12.619  19.809  1.00  0.00     0.052 C 
HETATM    3  C   UNL     1      -3.882 -10.693  21.307  1.00  0.00     0.068 A 
HETATM    4  C   UNL     1      -3.551  -9.575  22.130  1.00  0.00     0.021 A 
HETATM    5  C   UNL     1      -4.761  -9.032  22.551  1.00  0.00     0.126 A 
HETATM    6  C   UNL     1      -2.168  -9.218  22.338  1.00  0.00     0.021 A 
HETATM    7  N   UNL     1      -5.710  -9.800  21.970  1.00  0.00    -0.282 N 
HETATM    8  C   UNL     1      -1.600 -11.100  20.916  1.00  0.00     0.027 A 
HETATM    9  C   UNL     1      -1.245 -10.030  21.713  1.00  0.00     0.035 A 
HETATM   10  N   UNL     1      -5.224 -10.827  21.231  1.00  0.00    -0.296 N 
ATOM     11  HN  UNL     1      -5.753 -11.541  20.730  1.00  0.00     0.187 HD
ENDROOT
BRANCH   7  12
HETATM   12  C   UNL     1      -7.174  -9.731  22.191  1.00  0.00     0.251 C 
BRANCH  12  13
HETATM   13  C   UNL     1      -7.618  -8.311  22.250  1.00  0.00     0.067 A 
HETATM   14  C   UNL     1      -8.317  -7.704  23.201  1.00  0.00     0.038 A 
HETATM   15  C   UNL     1      -9.033  -7.879  24.554  1.00  0.00     0.062 C 
HETATM   16  N   UNL     1      -8.508  -6.396  22.809  1.00  0.00    -0.335 N 
HETATM   17  C   UNL     1      -9.463  -6.468  24.942  1.00  0.00     0.037 C 
HETATM   18  C   UNL     1      -9.294  -5.627  23.688  1.00  0.00     0.038 A 
HETATM   19  C   UNL     1      -9.195  -4.099  23.727  1.00  0.00     0.034 A 
HETATM   20  C   UNL     1     -10.447  -4.793  23.124  1.00  0.00     0.034 A 
HETATM   21  C   UNL     1      -7.910  -6.278  21.620  1.00  0.00     0.184 A 
HETATM   22  N   UNL     1      -7.342  -7.416  21.245  1.00  0.00    -0.352 N 
ATOM     23  HN  UNL     1      -6.812  -7.591  20.390  1.00  0.00     0.166 HD
ENDBRANCH  12  13
BRANCH  12  24
HETATM   24  C   UNL     1      -7.497 -10.484  23.430  1.00  0.00     0.254 C 
HETATM   25  O   UNL     1      -6.850 -10.364  24.475  1.00  0.00    -0.270 OA
HETATM   26  N   UNL     1      -8.575 -11.311  23.378  1.00  0.00    -0.305 N 
ATOM     27  HN  UNL     1      -9.064 -11.415  22.488  1.00  0.00     0.171 HD
BRANCH  26  28
HETATM   28  C   UNL     1      -9.033 -12.006  24.454  1.00  0.00     0.150 A 
HETATM   29  S   UNL     1     -10.276 -13.186  24.433  1.00  0.00    -0.064 SA
HETATM   30  C   UNL     1     -10.125 -13.379  26.161  1.00  0.00     0.070 A 
HETATM   31  C   UNL     1      -9.164 -12.550  26.617  1.00  0.00     0.097 A 
HETATM   32  N   UNL     1      -8.563 -11.774  25.643  1.00  0.00    -0.346 N 
ATOM     33  HN  UNL     1      -7.829 -11.091  25.837  1.00  0.00     0.167 HD
ENDBRANCH  26  28
ENDBRANCH  12  24
ENDBRANCH   7  12
BRANCH   6  34
HETATM   34  C   UNL     1      -1.746  -8.155  23.252  1.00  0.00     0.387 C 
HETATM   35  F   UNL     1      -0.408  -7.916  23.152  1.00  0.00    -0.209 F 
HETATM   36  F   UNL     1      -1.863  -8.586  24.570  1.00  0.00    -0.209 F 
ENDBRANCH   6  34
BRANCH   8  37
HETATM   37  C   UNL     1      -0.509 -11.884  20.321  1.00  0.00    -0.061 C 
HETATM   38  C   UNL     1       0.354 -12.531  19.851  1.00  0.00    -0.061 C 
BRANCH  38  39
HETATM   39  C   UNL     1       1.398 -13.339  19.220  1.00  0.00     0.018 A 
HETATM   40  C   UNL     1       1.771 -14.534  19.805  1.00  0.00     0.021 A 
HETATM   41  C   UNL     1       2.820 -15.267  19.220  1.00  0.00     0.010 A 
HETATM   42  C   UNL     1       3.457 -14.713  18.109  1.00  0.00    -0.030 A 
HETATM   43  C   UNL     1       3.116 -13.524  17.547  1.00  0.00     0.010 A 
HETATM   44  C   UNL     1       2.057 -12.775  18.156  1.00  0.00     0.021 A 
BRANCH  42  45
HETATM   45  C   UNL     1       4.578 -15.511  17.415  1.00  0.00     0.311 C 
BRANCH  45  46
HETATM   46  N   UNL     1       5.799 -14.688  17.504  1.00  0.00     0.092 N 
HETATM   47  C   UNL     1       6.125 -14.244  18.875  1.00  0.00     0.273 C 
HETATM   48  C   UNL     1       7.526 -13.612  18.855  1.00  0.00     0.037 C 
HETATM   49  C   UNL     1       7.621 -12.531  17.766  1.00  0.00     0.012 C 
HETATM   50  C   UNL     1       7.262 -13.092  16.377  1.00  0.00     0.037 C 
HETATM   51  C   UNL     1       5.834 -13.647  16.458  1.00  0.00     0.273 C 
BRANCH  49  52
HETATM   52  C   UNL     1       6.662 -11.394  18.123  1.00  0.00     0.168 C 
BRANCH  52  53
HETATM   53  O   UNL     1       6.891 -10.323  17.214  1.00  0.00    -0.400 OA
ATOM     54  HO  UNL     1       6.246  -9.647  17.388  1.00  0.00     0.209 HD
ENDBRANCH  52  53
ENDBRANCH  49  52
ENDBRANCH  45  46
ENDBRANCH  42  45
ENDBRANCH  38  39
ENDBRANCH   8  37
TORSDOF 11
ENDMDL
MODEL 6
REMARK VINA RESULT:   -10.248      4.109     13.432
REMARK INTER + INTRA:         -17.890
REMARK INTER:                 -15.522
REMARK INTRA:                  -2.369
REMARK UNBOUND:                -1.352
REMARK  11 active torsions:
REMARK  status: ('A' for Active; 'I' for Inactive)
REMARK    1  A    between atoms: C_1  and  C_4 
REMARK    2  A    between atoms: C_1  and  N_27 
REMARK    3  A    between atoms: C_1  and  C_2 
REMARK       I    between atoms: C_2  and  N_41 
REMARK    4  A    between atoms: C_11  and  N_41 
REMARK    5  A    between atoms: C_12  and  C_52 
REMARK    6  A    between atoms: C_17  and  C_30 
REMARK    7  A    between atoms: C_18  and  C_34 
REMARK    8  A    between atoms: C_28  and  C_33 
REMARK    9  A    between atoms: C_35  and  C_38 
REMARK   10  A    between atoms: C_38  and  N_51 
REMARK   11  A    between atoms: C_52  and  O_53 
ROOT
HETATM    1  C   UNL     1       0.120 -11.441  20.104  1.00  0.00    -0.014 A 
HETATM    2  C   UNL     1      -0.906 -12.579  20.026  1.00  0.00     0.052 C 
HETATM    3  C   UNL     1       1.331 -11.618  19.482  1.00  0.00     0.068 A 
HETATM    4  C   UNL     1       2.339 -10.609  19.502  1.00  0.00     0.021 A 
HETATM    5  C   UNL     1       3.441 -11.147  18.845  1.00  0.00     0.126 A 
HETATM    6  C   UNL     1       2.083  -9.348  20.156  1.00  0.00     0.021 A 
HETATM    7  N   UNL     1       3.064 -12.400  18.501  1.00  0.00    -0.282 N 
HETATM    8  C   UNL     1      -0.120 -10.214  20.684  1.00  0.00     0.027 A 
HETATM    9  C   UNL     1       0.830  -9.212  20.715  1.00  0.00     0.035 A 
HETATM   10  N   UNL     1       1.792 -12.716  18.845  1.00  0.00    -0.296 N 
ATOM     11  HN  UNL     1       1.294 -13.588  18.663  1.00  0.00     0.187 HD
ENDROOT
BRANCH   7  12
HETATM   12  C   UNL     1       3.821 -13.364  17.667  1.00  0.00     0.251 C 
BRANCH  12  13
HETATM   13  C   UNL     1       4.037 -12.805  16.304  1.00  0.00     0.067 A 
HETATM   14  C   UNL     1       3.160 -12.202  15.510  1.00  0.00     0.038 A 
HETATM   15  C   UNL     1       1.696 -11.748  15.356  1.00  0.00     0.062 C 
HETATM   16  N   UNL     1       3.810 -11.878  14.339  1.00  0.00    -0.335 N 
HETATM   17  C   UNL     1       1.677 -10.964  14.048  1.00  0.00     0.037 C 
HETATM   18  C   UNL     1       2.993 -11.283  13.358  1.00  0.00     0.038 A 
HETATM   19  C   UNL     1       3.579 -10.401  12.252  1.00  0.00     0.034 A 
HETATM   20  C   UNL     1       3.035 -11.819  11.926  1.00  0.00     0.034 A 
HETATM   21  C   UNL     1       5.065 -12.312  14.483  1.00  0.00     0.184 A 
HETATM   22  N   UNL     1       5.254 -12.872  15.670  1.00  0.00    -0.352 N 
ATOM     23  HN  UNL     1       6.120 -13.269  16.036  1.00  0.00     0.166 HD
ENDBRANCH  12  13
BRANCH  12  24
HETATM   24  C   UNL     1       3.080 -14.651  17.648  1.00  0.00     0.254 C 
HETATM   25  O   UNL     1       2.811 -15.285  18.673  1.00  0.00    -0.270 OA
HETATM   26  N   UNL     1       2.673 -15.102  16.432  1.00  0.00    -0.305 N 
ATOM     27  HN  UNL     1       2.944 -14.572  15.603  1.00  0.00     0.171 HD
BRANCH  26  28
HETATM   28  C   UNL     1       1.922 -16.225  16.266  1.00  0.00     0.150 A 
HETATM   29  S   UNL     1       2.397 -17.635  15.416  1.00  0.00    -0.064 SA
HETATM   30  C   UNL     1       0.838 -18.353  15.733  1.00  0.00     0.070 A 
HETATM   31  C   UNL     1       0.088 -17.487  16.444  1.00  0.00     0.097 A 
HETATM   32  N   UNL     1       0.709 -16.285  16.729  1.00  0.00    -0.346 N 
ATOM     33  HN  UNL     1       0.263 -15.527  17.248  1.00  0.00     0.167 HD
ENDBRANCH  26  28
ENDBRANCH  12  24
ENDBRANCH   7  12
BRANCH   6  34
HETATM   34  C   UNL     1       3.024  -8.225  20.126  1.00  0.00     0.387 C 
HETATM   35  F   UNL     1       3.276  -7.823  18.848  1.00  0.00    -0.209 F 
HETATM   36  F   UNL     1       4.281  -8.647  20.548  1.00  0.00    -0.209 F 
ENDBRANCH   6  34
BRANCH   8  37
HETATM   37  C   UNL     1      -1.417  -9.926  21.313  1.00  0.00    -0.061 C 
HETATM   38  C   UNL     1      -2.466  -9.711  21.802  1.00  0.00    -0.061 C 
BRANCH  38  39
HETATM   39  C   UNL     1      -3.760  -9.486  22.446  1.00  0.00     0.018 A 
HETATM   40  C   UNL     1      -4.866 -10.182  21.997  1.00  0.00     0.021 A 
HETATM   41  C   UNL     1      -6.114  -9.906  22.585  1.00  0.00     0.010 A 
HETATM   42  C   UNL     1      -6.167  -8.905  23.555  1.00  0.00    -0.030 A 
HETATM   43  C   UNL     1      -5.089  -8.195  23.980  1.00  0.00     0.010 A 
HETATM   44  C   UNL     1      -3.824  -8.470  23.367  1.00  0.00     0.021 A 
BRANCH  42  45
HETATM   45  C   UNL     1      -7.509  -8.610  24.254  1.00  0.00     0.311 C 
BRANCH  45  46
HETATM   46  N   UNL     1      -7.958  -7.292  23.766  1.00  0.00     0.092 N 
HETATM   47  C   UNL     1      -8.777  -6.539  24.738  1.00  0.00     0.273 C 
HETATM   48  C   UNL     1      -8.968  -5.111  24.201  1.00  0.00     0.037 C 
HETATM   49  C   UNL     1      -9.503  -5.137  22.760  1.00  0.00     0.012 C 
HETATM   50  C   UNL     1      -8.582  -5.946  21.828  1.00  0.00     0.037 C 
HETATM   51  C   UNL     1      -8.489  -7.370  22.391  1.00  0.00     0.273 C 
BRANCH  49  52
HETATM   52  C   UNL     1     -10.899  -5.762  22.771  1.00  0.00     0.168 C 
BRANCH  52  53
HETATM   53  O   UNL     1     -11.854  -4.708  22.779  1.00  0.00    -0.400 OA
ATOM     54  HO  UNL     1     -12.162  -4.583  21.889  1.00  0.00     0.209 HD
ENDBRANCH  52  53
ENDBRANCH  49  52
ENDBRANCH  45  46
ENDBRANCH  42  45
ENDBRANCH  38  39
ENDBRANCH   8  37
TORSDOF 11
ENDMDL
MODEL 7
REMARK VINA RESULT:   -10.236      2.755      4.727
REMARK INTER + INTRA:         -17.872
REMARK INTER:                 -16.209
REMARK INTRA:                  -1.663
REMARK UNBOUND:                -1.352
REMARK  11 active torsions:
REMARK  status: ('A' for Active; 'I' for Inactive)
REMARK    1  A    between atoms: C_1  and  C_4 
REMARK    2  A    between atoms: C_1  and  N_27 
REMARK    3  A    between atoms: C_1  and  C_2 
REMARK       I    between atoms: C_2  and  N_41 
REMARK    4  A    between atoms: C_11  and  N_41 
REMARK    5  A    between atoms: C_12  and  C_52 
REMARK    6  A    between atoms: C_17  and  C_30 
REMARK    7  A    between atoms: C_18  and  C_34 
REMARK    8  A    between atoms: C_28  and  C_33 
REMARK    9  A    between atoms: C_35  and  C_38 
REMARK   10  A    between atoms: C_38  and  N_51 
REMARK   11  A    between atoms: C_52  and  O_53 
ROOT
HETATM    1  C   UNL     1      -3.745 -10.783  21.502  1.00  0.00    -0.014 A 
HETATM    2  C   UNL     1      -4.501 -11.948  20.848  1.00  0.00     0.052 C 
HETATM    3  C   UNL     1      -4.428  -9.986  22.386  1.00  0.00     0.068 A 
HETATM    4  C   UNL     1      -3.800  -8.886  23.042  1.00  0.00     0.021 A 
HETATM    5  C   UNL     1      -4.791  -8.268  23.799  1.00  0.00     0.126 A 
HETATM    6  C   UNL     1      -2.402  -8.611  22.810  1.00  0.00     0.021 A 
HETATM    7  N   UNL     1      -5.913  -8.981  23.553  1.00  0.00    -0.282 N 
HETATM    8  C   UNL     1      -2.401 -10.532  21.328  1.00  0.00     0.027 A 
HETATM    9  C   UNL     1      -1.760  -9.480  21.953  1.00  0.00     0.035 A 
HETATM   10  N   UNL     1      -5.734 -10.039  22.726  1.00  0.00    -0.296 N 
ATOM     11  HN  UNL     1      -6.430 -10.723  22.427  1.00  0.00     0.187 HD
ENDROOT
BRANCH   7  12
HETATM   12  C   UNL     1      -7.234  -8.823  24.208  1.00  0.00     0.251 C 
BRANCH  12  13
HETATM   13  C   UNL     1      -7.899 -10.149  24.349  1.00  0.00     0.067 A 
HETATM   14  C   UNL     1      -9.195 -10.431  24.305  1.00  0.00     0.038 A 
HETATM   15  C   UNL     1     -10.613  -9.848  24.153  1.00  0.00     0.062 C 
HETATM   16  N   UNL     1      -9.334 -11.787  24.508  1.00  0.00    -0.335 N 
HETATM   17  C   UNL     1     -11.522 -11.071  24.098  1.00  0.00     0.037 C 
HETATM   18  C   UNL     1     -10.666 -12.241  24.554  1.00  0.00     0.038 A 
HETATM   19  C   UNL     1     -11.030 -13.697  24.248  1.00  0.00     0.034 A 
HETATM   20  C   UNL     1     -11.106 -13.153  25.701  1.00  0.00     0.034 A 
HETATM   21  C   UNL     1      -8.097 -12.263  24.672  1.00  0.00     0.184 A 
HETATM   22  N   UNL     1      -7.188 -11.303  24.570  1.00  0.00    -0.352 N 
ATOM     23  HN  UNL     1      -6.174 -11.401  24.641  1.00  0.00     0.166 HD
ENDBRANCH  12  13
BRANCH  12  24
HETATM   24  C   UNL     1      -8.039  -7.860  23.414  1.00  0.00     0.254 C 
HETATM   25  O   UNL     1      -8.255  -8.003  22.206  1.00  0.00    -0.270 OA
HETATM   26  N   UNL     1      -8.566  -6.805  24.088  1.00  0.00    -0.305 N 
ATOM     27  HN  UNL     1      -8.338  -6.697  25.077  1.00  0.00     0.171 HD
BRANCH  26  28
HETATM   28  C   UNL     1      -9.384  -5.884  23.509  1.00  0.00     0.150 A 
HETATM   29  S   UNL     1      -9.240  -4.182  23.650  1.00  0.00    -0.064 SA
HETATM   30  C   UNL     1     -10.674  -3.978  22.675  1.00  0.00     0.070 A 
HETATM   31  C   UNL     1     -11.146  -5.191  22.324  1.00  0.00     0.097 A 
HETATM   32  N   UNL     1     -10.414  -6.259  22.811  1.00  0.00    -0.346 N 
ATOM     33  HN  UNL     1     -10.657  -7.235  22.640  1.00  0.00     0.167 HD
ENDBRANCH  26  28
ENDBRANCH  12  24
ENDBRANCH   7  12
BRANCH   6  34
HETATM   34  C   UNL     1      -1.662  -7.570  23.527  1.00  0.00     0.387 C 
HETATM   35  F   UNL     1      -0.341  -7.580  23.192  1.00  0.00    -0.209 F 
HETATM   36  F   UNL     1      -1.617  -7.868  24.885  1.00  0.00    -0.209 F 
ENDBRANCH   6  34
BRANCH   8  37
HETATM   37  C   UNL     1      -1.589 -11.383  20.448  1.00  0.00    -0.061 C 
HETATM   38  C   UNL     1      -0.950 -12.084  19.751  1.00  0.00    -0.061 C 
BRANCH  38  39
HETATM   39  C   UNL     1      -0.195 -12.952  18.847  1.00  0.00     0.018 A 
HETATM   40  C   UNL     1      -0.167 -14.313  19.088  1.00  0.00     0.021 A 
HETATM   41  C   UNL     1       0.616 -15.125  18.247  1.00  0.00     0.010 A 
HETATM   42  C   UNL     1       1.358 -14.497  17.247  1.00  0.00    -0.030 A 
HETATM   43  C   UNL     1       1.359 -13.157  17.023  1.00  0.00     0.010 A 
HETATM   44  C   UNL     1       0.573 -12.334  17.893  1.00  0.00     0.021 A 
BRANCH  42  45
HETATM   45  C   UNL     1       2.188 -15.362  16.277  1.00  0.00     0.311 C 
BRANCH  45  46
HETATM   46  N   UNL     1       1.438 -15.407  15.007  1.00  0.00     0.092 N 
HETATM   47  C   UNL     1       0.658 -16.646  14.813  1.00  0.00     0.273 C 
HETATM   48  C   UNL     1      -0.248 -16.458  13.586  1.00  0.00     0.037 C 
HETATM   49  C   UNL     1       0.570 -15.991  12.371  1.00  0.00     0.012 C 
HETATM   50  C   UNL     1       1.347 -14.696  12.673  1.00  0.00     0.037 C 
HETATM   51  C   UNL     1       2.270 -14.978  13.866  1.00  0.00     0.273 C 
BRANCH  49  52
HETATM   52  C   UNL     1       1.552 -17.101  11.990  1.00  0.00     0.168 C 
BRANCH  52  53
HETATM   53  O   UNL     1       0.810 -18.299  11.798  1.00  0.00    -0.400 OA
ATOM     54  HO  UNL     1       0.368 -18.506  12.613  1.00  0.00     0.209 HD
ENDBRANCH  52  53
ENDBRANCH  49  52
ENDBRANCH  45  46
ENDBRANCH  42  45
ENDBRANCH  38  39
ENDBRANCH   8  37
TORSDOF 11
ENDMDL
MODEL 8
REMARK VINA RESULT:   -10.220      1.477      2.005
REMARK INTER + INTRA:         -17.846
REMARK INTER:                 -17.436
REMARK INTRA:                  -0.411
REMARK UNBOUND:                -1.352
REMARK  11 active torsions:
REMARK  status: ('A' for Active; 'I' for Inactive)
REMARK    1  A    between atoms: C_1  and  C_4 
REMARK    2  A    between atoms: C_1  and  N_27 
REMARK    3  A    between atoms: C_1  and  C_2 
REMARK       I    between atoms: C_2  and  N_41 
REMARK    4  A    between atoms: C_11  and  N_41 
REMARK    5  A    between atoms: C_12  and  C_52 
REMARK    6  A    between atoms: C_17  and  C_30 
REMARK    7  A    between atoms: C_18  and  C_34 
REMARK    8  A    between atoms: C_28  and  C_33 
REMARK    9  A    between atoms: C_35  and  C_38 
REMARK   10  A    between atoms: C_38  and  N_51 
REMARK   11  A    between atoms: C_52  and  O_53 
ROOT
HETATM    1  C   UNL     1      -2.561 -10.761  20.597  1.00  0.00    -0.014 A 
HETATM    2  C   UNL     1      -2.869 -11.727  19.445  1.00  0.00     0.052 C 
HETATM    3  C   UNL     1      -3.614 -10.259  21.320  1.00  0.00     0.068 A 
HETATM    4  C   UNL     1      -3.416  -9.360  22.409  1.00  0.00     0.021 A 
HETATM    5  C   UNL     1      -4.684  -9.007  22.858  1.00  0.00     0.126 A 
HETATM    6  C   UNL     1      -2.077  -8.985  22.799  1.00  0.00     0.021 A 
HETATM    7  N   UNL     1      -5.539  -9.663  22.040  1.00  0.00    -0.282 N 
HETATM    8  C   UNL     1      -1.290 -10.426  21.013  1.00  0.00     0.027 A 
HETATM    9  C   UNL     1      -1.061  -9.565  22.068  1.00  0.00     0.035 A 
HETATM   10  N   UNL     1      -4.936 -10.448  21.114  1.00  0.00    -0.296 N 
ATOM     11  HN  UNL     1      -5.380 -11.047  20.419  1.00  0.00     0.187 HD
ENDROOT
BRANCH   7  12
HETATM   12  C   UNL     1      -7.014  -9.736  22.162  1.00  0.00     0.251 C 
BRANCH  12  13
HETATM   13  C   UNL     1      -7.597  -8.365  22.162  1.00  0.00     0.067 A 
HETATM   14  C   UNL     1      -8.359  -7.792  23.085  1.00  0.00     0.038 A 
HETATM   15  C   UNL     1      -9.062  -7.982  24.443  1.00  0.00     0.062 C 
HETATM   16  N   UNL     1      -8.676  -6.527  22.639  1.00  0.00    -0.335 N 
HETATM   17  C   UNL     1      -9.632  -6.606  24.771  1.00  0.00     0.037 C 
HETATM   18  C   UNL     1      -9.540  -5.804  23.484  1.00  0.00     0.038 A 
HETATM   19  C   UNL     1      -9.592  -4.274  23.461  1.00  0.00     0.034 A 
HETATM   20  C   UNL     1     -10.766  -5.112  22.884  1.00  0.00     0.034 A 
HETATM   21  C   UNL     1      -8.085  -6.398  21.448  1.00  0.00     0.184 A 
HETATM   22  N   UNL     1      -7.405  -7.489  21.121  1.00  0.00    -0.352 N 
ATOM     23  HN  UNL     1      -6.855  -7.645  20.275  1.00  0.00     0.166 HD
ENDBRANCH  12  13
BRANCH  12  24
HETATM   24  C   UNL     1      -7.346 -10.499  23.392  1.00  0.00     0.254 C 
HETATM   25  O   UNL     1      -6.651 -10.461  24.412  1.00  0.00    -0.270 OA
HETATM   26  N   UNL     1      -8.487 -11.237  23.363  1.00  0.00    -0.305 N 
ATOM     27  HN  UNL     1      -9.018 -11.275  22.492  1.00  0.00     0.171 HD
BRANCH  26  28
HETATM   28  C   UNL     1      -8.957 -11.927  24.438  1.00  0.00     0.150 A 
HETATM   29  S   UNL     1      -8.508 -11.669  26.071  1.00  0.00    -0.064 SA
HETATM   30  C   UNL     1      -9.540 -12.988  26.565  1.00  0.00     0.070 A 
HETATM   31  C   UNL     1     -10.134 -13.516  25.476  1.00  0.00     0.097 A 
HETATM   32  N   UNL     1      -9.788 -12.913  24.281  1.00  0.00    -0.346 N 
ATOM     33  HN  UNL     1     -10.146 -13.212  23.373  1.00  0.00     0.167 HD
ENDBRANCH  26  28
ENDBRANCH  12  24
ENDBRANCH   7  12
BRANCH   6  34
HETATM   34  C   UNL     1      -1.788  -8.156  23.971  1.00  0.00     0.387 C 
HETATM   35  F   UNL     1      -2.711  -7.163  24.116  1.00  0.00    -0.209 F 
HETATM   36  F   UNL     1      -0.617  -7.433  23.765  1.00  0.00    -0.209 F 
ENDBRANCH   6  34
BRANCH   8  37
HETATM   37  C   UNL     1      -0.111 -10.976  20.330  1.00  0.00    -0.061 C 
HETATM   38  C   UNL     1       0.829 -11.403  19.764  1.00  0.00    -0.061 C 
BRANCH  38  39
HETATM   39  C   UNL     1       2.026 -11.891  19.080  1.00  0.00     0.018 A 
HETATM   40  C   UNL     1       1.935 -12.279  17.756  1.00  0.00     0.021 A 
HETATM   41  C   UNL     1       3.081 -12.805  17.133  1.00  0.00     0.010 A 
HETATM   42  C   UNL     1       4.232 -12.951  17.908  1.00  0.00    -0.030 A 
HETATM   43  C   UNL     1       4.320 -12.600  19.217  1.00  0.00     0.010 A 
HETATM   44  C   UNL     1       3.146 -12.079  19.851  1.00  0.00     0.021 A 
BRANCH  42  45
HETATM   45  C   UNL     1       5.519 -13.479  17.244  1.00  0.00     0.311 C 
BRANCH  45  46
HETATM   46  N   UNL     1       6.115 -14.443  18.189  1.00  0.00     0.092 N 
HETATM   47  C   UNL     1       7.517 -14.147  18.545  1.00  0.00     0.273 C 
HETATM   48  C   UNL     1       7.927 -15.074  19.701  1.00  0.00     0.037 C 
HETATM   49  C   UNL     1       7.625 -16.541  19.355  1.00  0.00     0.012 C 
HETATM   50  C   UNL     1       6.140 -16.746  18.997  1.00  0.00     0.037 C 
HETATM   51  C   UNL     1       5.823 -15.838  17.802  1.00  0.00     0.273 C 
BRANCH  49  52
HETATM   52  C   UNL     1       8.499 -16.953  18.169  1.00  0.00     0.168 C 
BRANCH  52  53
HETATM   53  O   UNL     1       9.794 -16.396  18.363  1.00  0.00    -0.400 OA
ATOM     54  HO  UNL     1       9.738 -15.758  19.064  1.00  0.00     0.209 HD
ENDBRANCH  52  53
ENDBRANCH  49  52
ENDBRANCH  45  46
ENDBRANCH  42  45
ENDBRANCH  38  39
ENDBRANCH   8  37
TORSDOF 11
ENDMDL
MODEL 9
REMARK VINA RESULT:   -10.095      3.804     14.343
REMARK INTER + INTRA:         -17.645
REMARK INTER:                 -15.726
REMARK INTRA:                  -1.919
REMARK UNBOUND:                -1.352
REMARK  11 active torsions:
REMARK  status: ('A' for Active; 'I' for Inactive)
REMARK    1  A    between atoms: C_1  and  C_4 
REMARK    2  A    between atoms: C_1  and  N_27 
REMARK    3  A    between atoms: C_1  and  C_2 
REMARK       I    between atoms: C_2  and  N_41 
REMARK    4  A    between atoms: C_11  and  N_41 
REMARK    5  A    between atoms: C_12  and  C_52 
REMARK    6  A    between atoms: C_17  and  C_30 
REMARK    7  A    between atoms: C_18  and  C_34 
REMARK    8  A    between atoms: C_28  and  C_33 
REMARK    9  A    between atoms: C_35  and  C_38 
REMARK   10  A    between atoms: C_38  and  N_51 
REMARK   11  A    between atoms: C_52  and  O_53 
ROOT
HETATM    1  C   UNL     1      -0.134 -11.663  19.754  1.00  0.00    -0.014 A 
HETATM    2  C   UNL     1      -1.228 -12.731  19.627  1.00  0.00     0.052 C 
HETATM    3  C   UNL     1       1.044 -11.860  19.078  1.00  0.00     0.068 A 
HETATM    4  C   UNL     1       2.111 -10.914  19.138  1.00  0.00     0.021 A 
HETATM    5  C   UNL     1       3.158 -11.462  18.403  1.00  0.00     0.126 A 
HETATM    6  C   UNL     1       1.950  -9.695  19.894  1.00  0.00     0.021 A 
HETATM    7  N   UNL     1       2.696 -12.660  17.979  1.00  0.00    -0.282 N 
HETATM    8  C   UNL     1      -0.283 -10.473  20.433  1.00  0.00     0.027 A 
HETATM    9  C   UNL     1       0.725  -9.532  20.506  1.00  0.00     0.035 A 
HETATM   10  N   UNL     1       1.420 -12.930  18.343  1.00  0.00    -0.296 N 
ATOM     11  HN  UNL     1       0.865 -13.754  18.113  1.00  0.00     0.187 HD
ENDROOT
BRANCH   7  12
HETATM   12  C   UNL     1       3.369 -13.598  17.049  1.00  0.00     0.251 C 
BRANCH  12  13
HETATM   13  C   UNL     1       4.785 -13.804  17.463  1.00  0.00     0.067 A 
HETATM   14  C   UNL     1       5.335 -14.875  18.021  1.00  0.00     0.038 A 
HETATM   15  C   UNL     1       5.078 -16.298  18.552  1.00  0.00     0.062 C 
HETATM   16  N   UNL     1       6.665 -14.593  18.245  1.00  0.00    -0.335 N 
HETATM   17  C   UNL     1       6.464 -16.827  18.908  1.00  0.00     0.037 C 
HETATM   18  C   UNL     1       7.381 -15.616  18.898  1.00  0.00     0.038 A 
HETATM   19  C   UNL     1       8.903 -15.735  18.774  1.00  0.00     0.034 A 
HETATM   20  C   UNL     1       8.254 -15.264  20.104  1.00  0.00     0.034 A 
HETATM   21  C   UNL     1       6.855 -13.345  17.810  1.00  0.00     0.184 A 
HETATM   22  N   UNL     1       5.740 -12.828  17.312  1.00  0.00    -0.352 N 
ATOM     23  HN  UNL     1       5.617 -11.901  16.903  1.00  0.00     0.166 HD
ENDBRANCH  12  13
BRANCH  12  24
HETATM   24  C   UNL     1       3.248 -13.058  15.670  1.00  0.00     0.254 C 
HETATM   25  O   UNL     1       3.644 -11.931  15.354  1.00  0.00    -0.270 OA
HETATM   26  N   UNL     1       2.698 -13.881  14.739  1.00  0.00    -0.305 N 
ATOM     27  HN  UNL     1       2.348 -14.790  15.042  1.00  0.00     0.171 HD
BRANCH  26  28
HETATM   28  C   UNL     1       2.591 -13.551  13.423  1.00  0.00     0.150 A 
HETATM   29  S   UNL     1       1.157 -13.060  12.624  1.00  0.00    -0.064 SA
HETATM   30  C   UNL     1       2.031 -12.953  11.117  1.00  0.00     0.070 A 
HETATM   31  C   UNL     1       3.319 -13.292  11.327  1.00  0.00     0.097 A 
HETATM   32  N   UNL     1       3.618 -13.638  12.632  1.00  0.00    -0.346 N 
ATOM     33  HN  UNL     1       4.546 -13.929  12.941  1.00  0.00     0.167 HD
ENDBRANCH  26  28
ENDBRANCH  12  24
ENDBRANCH   7  12
BRANCH   6  34
HETATM   34  C   UNL     1       2.955  -8.629  19.915  1.00  0.00     0.387 C 
HETATM   35  F   UNL     1       4.066  -9.006  20.608  1.00  0.00    -0.209 F 
HETATM   36  F   UNL     1       2.494  -7.556  20.672  1.00  0.00    -0.209 F 
ENDBRANCH   6  34
BRANCH   8  37
HETATM   37  C   UNL     1      -1.540 -10.161  21.127  1.00  0.00    -0.061 C 
HETATM   38  C   UNL     1      -2.539  -9.891  21.689  1.00  0.00    -0.061 C 
BRANCH  38  39
HETATM   39  C   UNL     1      -3.799  -9.532  22.339  1.00  0.00     0.018 A 
HETATM   40  C   UNL     1      -3.802  -8.543  23.304  1.00  0.00     0.021 A 
HETATM   41  C   UNL     1      -5.010  -8.256  23.965  1.00  0.00     0.010 A 
HETATM   42  C   UNL     1      -6.127  -9.026  23.638  1.00  0.00    -0.030 A 
HETATM   43  C   UNL     1      -6.125 -10.020  22.713  1.00  0.00     0.010 A 
HETATM   44  C   UNL     1      -4.888 -10.318  22.054  1.00  0.00     0.021 A 
BRANCH  42  45
HETATM   45  C   UNL     1      -7.478  -8.705  24.307  1.00  0.00     0.311 C 
BRANCH  45  46
HETATM   46  N   UNL     1      -7.901  -7.388  23.793  1.00  0.00     0.092 N 
HETATM   47  C   UNL     1      -8.704  -6.600  24.750  1.00  0.00     0.273 C 
HETATM   48  C   UNL     1      -8.867  -5.179  24.185  1.00  0.00     0.037 C 
HETATM   49  C   UNL     1      -9.403  -5.223  22.744  1.00  0.00     0.012 C 
HETATM   50  C   UNL     1      -8.498  -6.069  21.828  1.00  0.00     0.037 C 
HETATM   51  C   UNL     1      -8.434  -7.483  22.420  1.00  0.00     0.273 C 
BRANCH  49  52
HETATM   52  C   UNL     1     -10.811  -5.820  22.767  1.00  0.00     0.168 C 
BRANCH  52  53
HETATM   53  O   UNL     1     -11.739  -4.771  22.516  1.00  0.00    -0.400 OA
ATOM     54  HO  UNL     1     -11.963  -4.371  23.349  1.00  0.00     0.209 HD
ENDBRANCH  52  53
ENDBRANCH  49  52
ENDBRANCH  45  46
ENDBRANCH  42  45
ENDBRANCH  38  39
ENDBRANCH   8  37
TORSDOF 11
ENDMDL
MODEL 10
REMARK VINA RESULT:   -10.085      4.728     14.484
REMARK INTER + INTRA:         -17.628
REMARK INTER:                 -15.062
REMARK INTRA:                  -2.565
REMARK UNBOUND:                -1.352
REMARK  11 active torsions:
REMARK  status: ('A' for Active; 'I' for Inactive)
REMARK    1  A    between atoms: C_1  and  C_4 
REMARK    2  A    between atoms: C_1  and  N_27 
REMARK    3  A    between atoms: C_1  and  C_2 
REMARK       I    between atoms: C_2  and  N_41 
REMARK    4  A    between atoms: C_11  and  N_41 
REMARK    5  A    between atoms: C_12  and  C_52 
REMARK    6  A    between atoms: C_17  and  C_30 
REMARK    7  A    between atoms: C_18  and  C_34 
REMARK    8  A    between atoms: C_28  and  C_33 
REMARK    9  A    between atoms: C_35  and  C_38 
REMARK   10  A    between atoms: C_38  and  N_51 
REMARK   11  A    between atoms: C_52  and  O_53 
ROOT
HETATM    1  C   UNL     1      -0.118 -10.994  19.495  1.00  0.00    -0.014 A 
HETATM    2  C   UNL     1      -0.062  -9.473  19.691  1.00  0.00     0.052 C 
HETATM    3  C   UNL     1       0.949 -11.608  18.888  1.00  0.00     0.068 A 
HETATM    4  C   UNL     1       0.980 -13.017  18.671  1.00  0.00     0.021 A 
HETATM    5  C   UNL     1       2.159 -13.279  17.980  1.00  0.00     0.126 A 
HETATM    6  C   UNL     1      -0.114 -13.840  19.129  1.00  0.00     0.021 A 
HETATM    7  N   UNL     1       2.737 -12.068  17.806  1.00  0.00    -0.282 N 
HETATM    8  C   UNL     1      -1.131 -11.802  19.964  1.00  0.00     0.027 A 
HETATM    9  C   UNL     1      -1.129 -13.171  19.779  1.00  0.00     0.035 A 
HETATM   10  N   UNL     1       2.053 -11.037  18.358  1.00  0.00    -0.296 N 
ATOM     11  HN  UNL     1       2.314 -10.051  18.371  1.00  0.00     0.187 HD
ENDROOT
BRANCH   7  12
HETATM   12  C   UNL     1       4.078 -11.791  17.238  1.00  0.00     0.251 C 
BRANCH  12  13
HETATM   13  C   UNL     1       5.068 -12.777  17.755  1.00  0.00     0.067 A 
HETATM   14  C   UNL     1       5.508 -13.886  17.175  1.00  0.00     0.038 A 
HETATM   15  C   UNL     1       5.402 -14.795  15.935  1.00  0.00     0.062 C 
HETATM   16  N   UNL     1       6.398 -14.486  18.041  1.00  0.00    -0.335 N 
HETATM   17  C   UNL     1       6.484 -15.851  16.144  1.00  0.00     0.037 C 
HETATM   18  C   UNL     1       6.912 -15.719  17.596  1.00  0.00     0.038 A 
HETATM   19  C   UNL     1       8.244 -16.268  18.115  1.00  0.00     0.034 A 
HETATM   20  C   UNL     1       6.900 -16.920  18.544  1.00  0.00     0.034 A 
HETATM   21  C   UNL     1       6.446 -13.701  19.120  1.00  0.00     0.184 A 
HETATM   22  N   UNL     1       5.662 -12.639  18.986  1.00  0.00    -0.352 N 
ATOM     23  HN  UNL     1       5.528 -11.881  19.656  1.00  0.00     0.166 HD
ENDBRANCH  12  13
BRANCH  12  24
HETATM   24  C   UNL     1       4.444 -10.389  17.562  1.00  0.00     0.254 C 
HETATM   25  O   UNL     1       4.739 -10.019  18.703  1.00  0.00    -0.270 OA
HETATM   26  N   UNL     1       4.471  -9.510  16.525  1.00  0.00    -0.305 N 
ATOM     27  HN  UNL     1       4.186  -9.840  15.603  1.00  0.00     0.171 HD
BRANCH  26  28
HETATM   28  C   UNL     1       4.859  -8.213  16.657  1.00  0.00     0.150 A 
HETATM   29  S   UNL     1       6.207  -7.484  15.890  1.00  0.00    -0.064 SA
HETATM   30  C   UNL     1       5.861  -5.980  16.707  1.00  0.00     0.070 A 
HETATM   31  C   UNL     1       4.772  -6.140  17.485  1.00  0.00     0.097 A 
HETATM   32  N   UNL     1       4.223  -7.409  17.456  1.00  0.00    -0.346 N 
ATOM     33  HN  UNL     1       3.406  -7.683  18.002  1.00  0.00     0.167 HD
ENDBRANCH  26  28
ENDBRANCH  12  24
ENDBRANCH   7  12
BRANCH   6  34
HETATM   34  C   UNL     1      -0.106 -15.302  19.042  1.00  0.00     0.387 C 
HETATM   35  F   UNL     1       0.961 -15.834  19.703  1.00  0.00    -0.209 F 
HETATM   36  F   UNL     1       0.141 -15.699  17.731  1.00  0.00    -0.209 F 
ENDBRANCH   6  34
BRANCH   8  37
HETATM   37  C   UNL     1      -2.275 -11.225  20.682  1.00  0.00    -0.061 C 
HETATM   38  C   UNL     1      -3.207 -10.778  21.247  1.00  0.00    -0.061 C 
BRANCH  38  39
HETATM   39  C   UNL     1      -4.357 -10.260  21.988  1.00  0.00     0.018 A 
HETATM   40  C   UNL     1      -4.213  -9.106  22.734  1.00  0.00     0.021 A 
HETATM   41  C   UNL     1      -5.311  -8.658  23.492  1.00  0.00     0.010 A 
HETATM   42  C   UNL     1      -6.467  -9.439  23.482  1.00  0.00    -0.030 A 
HETATM   43  C   UNL     1      -6.605 -10.591  22.775  1.00  0.00     0.010 A 
HETATM   44  C   UNL     1      -5.479 -11.050  22.018  1.00  0.00     0.021 A 
BRANCH  42  45
HETATM   45  C   UNL     1      -7.705  -8.953  24.262  1.00  0.00     0.311 C 
BRANCH  45  46
HETATM   46  N   UNL     1      -8.019  -7.603  23.754  1.00  0.00     0.092 N 
HETATM   47  C   UNL     1      -8.793  -6.771  24.698  1.00  0.00     0.273 C 
HETATM   48  C   UNL     1      -8.839  -5.336  24.149  1.00  0.00     0.037 C 
HETATM   49  C   UNL     1      -9.333  -5.325  22.693  1.00  0.00     0.012 C 
HETATM   50  C   UNL     1      -8.463  -6.221  21.792  1.00  0.00     0.037 C 
HETATM   51  C   UNL     1      -8.515  -7.643  22.365  1.00  0.00     0.273 C 
BRANCH  49  52
HETATM   52  C   UNL     1     -10.780  -5.821  22.666  1.00  0.00     0.168 C 
BRANCH  52  53
HETATM   53  O   UNL     1     -11.635  -4.685  22.668  1.00  0.00    -0.400 OA
ATOM     54  HO  UNL     1     -12.226  -4.759  21.928  1.00  0.00     0.209 HD
ENDBRANCH  52  53
ENDBRANCH  49  52
ENDBRANCH  45  46
ENDBRANCH  42  45
ENDBRANCH  38  39
ENDBRANCH   8  37
TORSDOF 11
ENDMDL
MODEL 11
REMARK VINA RESULT:    -9.923      2.641      4.870
REMARK INTER + INTRA:         -17.366
REMARK INTER:                 -15.576
REMARK INTRA:                  -1.790
REMARK UNBOUND:                -1.352
REMARK  11 active torsions:
REMARK  status: ('A' for Active; 'I' for Inactive)
REMARK    1  A    between atoms: C_1  and  C_4 
REMARK    2  A    between atoms: C_1  and  N_27 
REMARK    3  A    between atoms: C_1  and  C_2 
REMARK       I    between atoms: C_2  and  N_41 
REMARK    4  A    between atoms: C_11  and  N_41 
REMARK    5  A    between atoms: C_12  and  C_52 
REMARK    6  A    between atoms: C_17  and  C_30 
REMARK    7  A    between atoms: C_18  and  C_34 
REMARK    8  A    between atoms: C_28  and  C_33 
REMARK    9  A    between atoms: C_35  and  C_38 
REMARK   10  A    between atoms: C_38  and  N_51 
REMARK   11  A    between atoms: C_52  and  O_53 
ROOT
HETATM    1  C   UNL     1      -3.056  -9.953  22.169  1.00  0.00    -0.014 A 
HETATM    2  C   UNL     1      -2.127  -9.272  23.183  1.00  0.00     0.052 C 
HETATM    3  C   UNL     1      -4.409  -9.891  22.388  1.00  0.00     0.068 A 
HETATM    4  C   UNL     1      -5.342 -10.493  21.492  1.00  0.00     0.021 A 
HETATM    5  C   UNL     1      -6.601 -10.298  22.053  1.00  0.00     0.126 A 
HETATM    6  C   UNL     1      -4.871 -11.157  20.301  1.00  0.00     0.021 A 
HETATM    7  N   UNL     1      -6.368  -9.640  23.212  1.00  0.00    -0.282 N 
HETATM    8  C   UNL     1      -2.629 -10.553  21.003  1.00  0.00     0.027 A 
HETATM    9  C   UNL     1      -3.505 -11.139  20.111  1.00  0.00     0.035 A 
HETATM   10  N   UNL     1      -5.064  -9.354  23.441  1.00  0.00    -0.296 N 
ATOM     11  HN  UNL     1      -4.665  -8.846  24.231  1.00  0.00     0.187 HD
ENDROOT
BRANCH   7  12
HETATM   12  C   UNL     1      -7.379  -9.076  24.138  1.00  0.00     0.251 C 
BRANCH  12  13
HETATM   13  C   UNL     1      -8.601  -9.928  24.144  1.00  0.00     0.067 A 
HETATM   14  C   UNL     1      -8.823 -11.046  24.823  1.00  0.00     0.038 A 
HETATM   15  C   UNL     1      -8.227 -12.069  25.809  1.00  0.00     0.062 C 
HETATM   16  N   UNL     1     -10.086 -11.491  24.493  1.00  0.00    -0.335 N 
HETATM   17  C   UNL     1      -9.384 -13.011  26.125  1.00  0.00     0.037 C 
HETATM   18  C   UNL     1     -10.452 -12.714  25.086  1.00  0.00     0.038 A 
HETATM   19  C   UNL     1     -11.920 -13.105  25.279  1.00  0.00     0.034 A 
HETATM   20  C   UNL     1     -11.046 -13.821  24.212  1.00  0.00     0.034 A 
HETATM   21  C   UNL     1     -10.568 -10.609  23.613  1.00  0.00     0.184 A 
HETATM   22  N   UNL     1      -9.703  -9.631  23.379  1.00  0.00    -0.352 N 
ATOM     23  HN  UNL     1      -9.829  -8.828  22.762  1.00  0.00     0.166 HD
ENDBRANCH  12  13
BRANCH  12  24
HETATM   24  C   UNL     1      -7.660  -7.675  23.728  1.00  0.00     0.254 C 
HETATM   25  O   UNL     1      -6.960  -7.061  22.917  1.00  0.00    -0.270 OA
HETATM   26  N   UNL     1      -8.759  -7.090  24.272  1.00  0.00    -0.305 N 
ATOM     27  HN  UNL     1      -9.294  -7.613  24.966  1.00  0.00     0.171 HD
BRANCH  26  28
HETATM   28  C   UNL     1      -9.182  -5.841  23.935  1.00  0.00     0.150 A 
HETATM   29  S   UNL     1     -10.152  -5.440  22.581  1.00  0.00    -0.064 SA
HETATM   30  C   UNL     1     -10.062  -3.751  23.015  1.00  0.00     0.070 A 
HETATM   31  C   UNL     1      -9.317  -3.620  24.131  1.00  0.00     0.097 A 
HETATM   32  N   UNL     1      -8.818  -4.807  24.634  1.00  0.00    -0.346 N 
ATOM     33  HN  UNL     1      -8.228  -4.866  25.465  1.00  0.00     0.167 HD
ENDBRANCH  26  28
ENDBRANCH  12  24
ENDBRANCH   7  12
BRANCH   6  34
HETATM   34  C   UNL     1      -5.770 -11.703  19.281  1.00  0.00     0.387 C 
HETATM   35  F   UNL     1      -5.256 -11.541  18.029  1.00  0.00    -0.209 F 
HETATM   36  F   UNL     1      -6.933 -10.942  19.215  1.00  0.00    -0.209 F 
ENDBRANCH   6  34
BRANCH   8  37
HETATM   37  C   UNL     1      -1.200 -10.601  20.668  1.00  0.00    -0.061 C 
HETATM   38  C   UNL     1      -0.049 -10.643  20.421  1.00  0.00    -0.061 C 
BRANCH  38  39
HETATM   39  C   UNL     1       1.376 -10.751  20.108  1.00  0.00     0.018 A 
HETATM   40  C   UNL     1       2.062  -9.626  19.693  1.00  0.00     0.021 A 
HETATM   41  C   UNL     1       3.415  -9.761  19.335  1.00  0.00     0.010 A 
HETATM   42  C   UNL     1       3.972 -11.040  19.373  1.00  0.00    -0.030 A 
HETATM   43  C   UNL     1       3.295 -12.156  19.751  1.00  0.00     0.010 A 
HETATM   44  C   UNL     1       1.913 -12.015  20.100  1.00  0.00     0.021 A 
BRANCH  42  45
HETATM   45  C   UNL     1       5.465 -11.216  19.034  1.00  0.00     0.311 C 
BRANCH  45  46
HETATM   46  N   UNL     1       5.592 -12.523  18.359  1.00  0.00     0.092 N 
HETATM   47  C   UNL     1       6.582 -13.426  18.980  1.00  0.00     0.273 C 
HETATM   48  C   UNL     1       6.439 -14.814  18.334  1.00  0.00     0.037 C 
HETATM   49  C   UNL     1       6.502 -14.711  16.802  1.00  0.00     0.012 C 
HETATM   50  C   UNL     1       5.433 -13.746  16.253  1.00  0.00     0.037 C 
HETATM   51  C   UNL     1       5.678 -12.374  16.893  1.00  0.00     0.273 C 
BRANCH  49  52
HETATM   52  C   UNL     1       7.893 -14.215  16.404  1.00  0.00     0.168 C 
BRANCH  52  53
HETATM   53  O   UNL     1       8.779 -15.327  16.421  1.00  0.00    -0.400 OA
ATOM     54  HO  UNL     1       8.256 -16.121  16.399  1.00  0.00     0.209 HD
ENDBRANCH  52  53
ENDBRANCH  49  52
ENDBRANCH  45  46
ENDBRANCH  42  45
ENDBRANCH  38  39
ENDBRANCH   8  37
TORSDOF 11
ENDMDL
MODEL 12
REMARK VINA RESULT:    -9.878      4.056     14.474
REMARK INTER + INTRA:         -17.294
REMARK INTER:                 -14.632
REMARK INTRA:                  -2.662
REMARK UNBOUND:                -1.352
REMARK  11 active torsions:
REMARK  status: ('A' for Active; 'I' for Inactive)
REMARK    1  A    between atoms: C_1  and  C_4 
REMARK    2  A    between atoms: C_1  and  N_27 
REMARK    3  A    between atoms: C_1  and  C_2 
REMARK       I    between atoms: C_2  and  N_41 
REMARK    4  A    between atoms: C_11  and  N_41 
REMARK    5  A    between atoms: C_12  and  C_52 
REMARK    6  A    between atoms: C_17  and  C_30 
REMARK    7  A    between atoms: C_18  and  C_34 
REMARK    8  A    between atoms: C_28  and  C_33 
REMARK    9  A    between atoms: C_35  and  C_38 
REMARK   10  A    between atoms: C_38  and  N_51 
REMARK   11  A    between atoms: C_52  and  O_53 
ROOT
HETATM    1  C   UNL     1       1.202 -13.595  19.402  1.00  0.00    -0.014 A 
HETATM    2  C   UNL     1      -0.232 -14.127  19.277  1.00  0.00     0.052 C 
HETATM    3  C   UNL     1       2.201 -14.266  18.742  1.00  0.00     0.068 A 
HETATM    4  C   UNL     1       3.559 -13.836  18.801  1.00  0.00     0.021 A 
HETATM    5  C   UNL     1       4.296 -14.774  18.085  1.00  0.00     0.126 A 
HETATM    6  C   UNL     1       3.907 -12.645  19.540  1.00  0.00     0.021 A 
HETATM    7  N   UNL     1       3.388 -15.688  17.671  1.00  0.00    -0.282 N 
HETATM    8  C   UNL     1       1.548 -12.437  20.065  1.00  0.00     0.027 A 
HETATM    9  C   UNL     1       2.852 -11.987  20.136  1.00  0.00     0.035 A 
HETATM   10  N   UNL     1       2.111 -15.407  18.024  1.00  0.00    -0.296 N 
ATOM     11  HN  UNL     1       1.269 -15.938  17.799  1.00  0.00     0.187 HD
ENDROOT
BRANCH   7  12
HETATM   12  C   UNL     1       3.624 -16.833  16.760  1.00  0.00     0.251 C 
BRANCH  12  13
HETATM   13  C   UNL     1       5.043 -16.842  16.304  1.00  0.00     0.067 A 
HETATM   14  C   UNL     1       6.123 -17.215  16.978  1.00  0.00     0.038 A 
HETATM   15  C   UNL     1       6.657 -17.744  18.323  1.00  0.00     0.062 C 
HETATM   16  N   UNL     1       7.214 -17.028  16.155  1.00  0.00    -0.335 N 
HETATM   17  C   UNL     1       8.138 -18.007  18.067  1.00  0.00     0.037 C 
HETATM   18  C   UNL     1       8.456 -17.320  16.750  1.00  0.00     0.038 A 
HETATM   19  C   UNL     1       9.684 -17.680  15.909  1.00  0.00     0.034 A 
HETATM   20  C   UNL     1       9.598 -16.308  16.633  1.00  0.00     0.034 A 
HETATM   21  C   UNL     1       6.731 -16.537  15.011  1.00  0.00     0.184 A 
HETATM   22  N   UNL     1       5.410 -16.419  15.050  1.00  0.00    -0.352 N 
ATOM     23  HN  UNL     1       4.796 -16.085  14.306  1.00  0.00     0.166 HD
ENDBRANCH  12  13
BRANCH  12  24
HETATM   24  C   UNL     1       2.661 -16.742  15.632  1.00  0.00     0.254 C 
HETATM   25  O   UNL     1       2.482 -15.704  14.986  1.00  0.00    -0.270 OA
HETATM   26  N   UNL     1       1.988 -17.878  15.312  1.00  0.00    -0.305 N 
ATOM     27  HN  UNL     1       2.133 -18.707  15.889  1.00  0.00     0.171 HD
BRANCH  26  28
HETATM   28  C   UNL     1       1.131 -17.964  14.258  1.00  0.00     0.150 A 
HETATM   29  S   UNL     1       1.291 -19.020  12.918  1.00  0.00    -0.064 SA
HETATM   30  C   UNL     1      -0.154 -18.342  12.209  1.00  0.00     0.070 A 
HETATM   31  C   UNL     1      -0.638 -17.384  13.025  1.00  0.00     0.097 A 
HETATM   32  N   UNL     1       0.103 -17.174  14.173  1.00  0.00    -0.346 N 
ATOM     33  HN  UNL     1      -0.132 -16.475  14.878  1.00  0.00     0.167 HD
ENDBRANCH  26  28
ENDBRANCH  12  24
ENDBRANCH   7  12
BRANCH   6  34
HETATM   34  C   UNL     1       5.258 -12.081  19.558  1.00  0.00     0.387 C 
HETATM   35  F   UNL     1       5.326 -10.981  20.359  1.00  0.00    -0.209 F 
HETATM   36  F   UNL     1       5.568 -11.548  18.310  1.00  0.00    -0.209 F 
ENDBRANCH   6  34
BRANCH   8  37
HETATM   37  C   UNL     1       0.523 -11.629  20.741  1.00  0.00    -0.061 C 
HETATM   38  C   UNL     1      -0.297 -10.967  21.265  1.00  0.00    -0.061 C 
BRANCH  38  39
HETATM   39  C   UNL     1      -1.356 -10.172  21.889  1.00  0.00     0.018 A 
HETATM   40  C   UNL     1      -2.662 -10.348  21.474  1.00  0.00     0.021 A 
HETATM   41  C   UNL     1      -3.659  -9.531  22.039  1.00  0.00     0.010 A 
HETATM   42  C   UNL     1      -3.257  -8.554  22.950  1.00  0.00    -0.030 A 
HETATM   43  C   UNL     1      -1.970  -8.355  23.339  1.00  0.00     0.010 A 
HETATM   44  C   UNL     1      -0.958  -9.180  22.749  1.00  0.00     0.021 A 
BRANCH  42  45
HETATM   45  C   UNL     1      -4.328  -7.674  23.624  1.00  0.00     0.311 C 
BRANCH  45  46
HETATM   46  N   UNL     1      -5.621  -8.357  23.426  1.00  0.00     0.092 N 
HETATM   47  C   UNL     1      -6.636  -7.534  22.738  1.00  0.00     0.273 C 
HETATM   48  C   UNL     1      -7.830  -8.436  22.387  1.00  0.00     0.037 C 
HETATM   49  C   UNL     1      -8.321  -9.197  23.629  1.00  0.00     0.012 C 
HETATM   50  C   UNL     1      -7.191 -10.022  24.273  1.00  0.00     0.037 C 
HETATM   51  C   UNL     1      -6.066  -9.050  24.651  1.00  0.00     0.273 C 
BRANCH  49  52
HETATM   52  C   UNL     1      -8.857  -8.183  24.642  1.00  0.00     0.168 C 
BRANCH  52  53
HETATM   53  O   UNL     1     -10.182  -7.835  24.259  1.00  0.00    -0.400 OA
ATOM     54  HO  UNL     1     -10.590  -8.604  23.878  1.00  0.00     0.209 HD
ENDBRANCH  52  53
ENDBRANCH  49  52
ENDBRANCH  45  46
ENDBRANCH  42  45
ENDBRANCH  38  39
ENDBRANCH   8  37
TORSDOF 11
ENDMDL
MODEL 13
REMARK VINA RESULT:    -9.804      2.207      4.381
REMARK INTER + INTRA:         -17.175
REMARK INTER:                 -15.908
REMARK INTRA:                  -1.266
REMARK UNBOUND:                -1.352
REMARK  11 active torsions:
REMARK  status: ('A' for Active; 'I' for Inactive)
REMARK    1  A    between atoms: C_1  and  C_4 
REMARK    2  A    between atoms: C_1  and  N_27 
REMARK    3  A    between atoms: C_1  and  C_2 
REMARK       I    between atoms: C_2  and  N_41 
REMARK    4  A    between atoms: C_11  and  N_41 
REMARK    5  A    between atoms: C_12  and  C_52 
REMARK    6  A    between atoms: C_17  and  C_30 
REMARK    7  A    between atoms: C_18  and  C_34 
REMARK    8  A    between atoms: C_28  and  C_33 
REMARK    9  A    between atoms: C_35  and  C_38 
REMARK   10  A    between atoms: C_38  and  N_51 
REMARK   11  A    between atoms: C_52  and  O_53 
ROOT
HETATM    1  C   UNL     1      -3.691 -10.803  21.574  1.00  0.00    -0.014 A 
HETATM    2  C   UNL     1      -4.410 -11.994  20.927  1.00  0.00     0.052 C 
HETATM    3  C   UNL     1      -4.407 -10.000  22.426  1.00  0.00     0.068 A 
HETATM    4  C   UNL     1      -3.815  -8.875  23.073  1.00  0.00     0.021 A 
HETATM    5  C   UNL     1      -4.833  -8.260  23.794  1.00  0.00     0.126 A 
HETATM    6  C   UNL     1      -2.417  -8.580  22.867  1.00  0.00     0.021 A 
HETATM    7  N   UNL     1      -5.937  -8.999  23.538  1.00  0.00    -0.282 N 
HETATM    8  C   UNL     1      -2.348 -10.530  21.425  1.00  0.00     0.027 A 
HETATM    9  C   UNL     1      -1.740  -9.454  22.043  1.00  0.00     0.035 A 
HETATM   10  N   UNL     1      -5.720 -10.070  22.737  1.00  0.00    -0.296 N 
ATOM     11  HN  UNL     1      -6.396 -10.773  22.437  1.00  0.00     0.187 HD
ENDROOT
BRANCH   7  12
HETATM   12  C   UNL     1      -7.275  -8.852  24.160  1.00  0.00     0.251 C 
BRANCH  12  13
HETATM   13  C   UNL     1      -7.947 -10.179  24.251  1.00  0.00     0.067 A 
HETATM   14  C   UNL     1      -9.247 -10.447  24.254  1.00  0.00     0.038 A 
HETATM   15  C   UNL     1     -10.664  -9.844  24.207  1.00  0.00     0.062 C 
HETATM   16  N   UNL     1      -9.391 -11.812  24.378  1.00  0.00    -0.335 N 
HETATM   17  C   UNL     1     -11.589 -11.054  24.122  1.00  0.00     0.037 C 
HETATM   18  C   UNL     1     -10.725 -12.257  24.462  1.00  0.00     0.038 A 
HETATM   19  C   UNL     1     -11.119 -13.687  24.084  1.00  0.00     0.034 A 
HETATM   20  C   UNL     1     -11.118 -13.236  25.570  1.00  0.00     0.034 A 
HETATM   21  C   UNL     1      -8.153 -12.308  24.451  1.00  0.00     0.184 A 
HETATM   22  N   UNL     1      -7.239 -11.351  24.364  1.00  0.00    -0.352 N 
ATOM     23  HN  UNL     1      -6.225 -11.461  24.379  1.00  0.00     0.166 HD
ENDBRANCH  12  13
BRANCH  12  24
HETATM   24  C   UNL     1      -8.055  -7.868  23.367  1.00  0.00     0.254 C 
HETATM   25  O   UNL     1      -8.240  -7.983  22.151  1.00  0.00    -0.270 OA
HETATM   26  N   UNL     1      -8.596  -6.825  24.050  1.00  0.00    -0.305 N 
ATOM     27  HN  UNL     1      -8.392  -6.741  25.047  1.00  0.00     0.171 HD
BRANCH  26  28
HETATM   28  C   UNL     1      -9.394  -5.888  23.471  1.00  0.00     0.150 A 
HETATM   29  S   UNL     1      -9.261  -4.192  23.671  1.00  0.00    -0.064 SA
HETATM   30  C   UNL     1     -10.658  -3.959  22.650  1.00  0.00     0.070 A 
HETATM   31  C   UNL     1     -11.113  -5.162  22.243  1.00  0.00     0.097 A 
HETATM   32  N   UNL     1     -10.396  -6.242  22.723  1.00  0.00    -0.346 N 
ATOM     33  HN  UNL     1     -10.629  -7.213  22.512  1.00  0.00     0.167 HD
ENDBRANCH  26  28
ENDBRANCH  12  24
ENDBRANCH   7  12
BRANCH   6  34
HETATM   34  C   UNL     1      -1.712  -7.511  23.578  1.00  0.00     0.387 C 
HETATM   35  F   UNL     1      -0.402  -7.447  23.206  1.00  0.00    -0.209 F 
HETATM   36  F   UNL     1      -1.612  -7.824  24.930  1.00  0.00    -0.209 F 
ENDBRANCH   6  34
BRANCH   8  37
HETATM   37  C   UNL     1      -1.501 -11.384  20.581  1.00  0.00    -0.061 C 
HETATM   38  C   UNL     1      -0.841 -12.081  19.900  1.00  0.00    -0.061 C 
BRANCH  38  39
HETATM   39  C   UNL     1      -0.035 -12.916  19.009  1.00  0.00     0.018 A 
HETATM   40  C   UNL     1       0.645 -12.322  17.962  1.00  0.00     0.021 A 
HETATM   41  C   UNL     1       1.363 -13.148  17.078  1.00  0.00     0.010 A 
HETATM   42  C   UNL     1       1.304 -14.526  17.284  1.00  0.00    -0.030 A 
HETATM   43  C   UNL     1       0.614 -15.118  18.293  1.00  0.00     0.010 A 
HETATM   44  C   UNL     1      -0.129 -14.274  19.181  1.00  0.00     0.021 A 
BRANCH  42  45
HETATM   45  C   UNL     1       2.119 -15.456  16.364  1.00  0.00     0.311 C 
BRANCH  45  46
HETATM   46  N   UNL     1       3.538 -15.258  16.715  1.00  0.00     0.092 N 
HETATM   47  C   UNL     1       4.485 -15.840  15.742  1.00  0.00     0.273 C 
HETATM   48  C   UNL     1       5.900 -15.358  16.099  1.00  0.00     0.037 C 
HETATM   49  C   UNL     1       6.213 -15.635  17.578  1.00  0.00     0.012 C 
HETATM   50  C   UNL     1       5.170 -14.989  18.510  1.00  0.00     0.037 C 
HETATM   51  C   UNL     1       3.798 -15.562  18.136  1.00  0.00     0.273 C 
BRANCH  49  52
HETATM   52  C   UNL     1       6.228 -17.149  17.798  1.00  0.00     0.168 C 
BRANCH  52  53
HETATM   53  O   UNL     1       6.676 -17.398  19.124  1.00  0.00    -0.400 OA
ATOM     54  HO  UNL     1       7.551 -17.036  19.212  1.00  0.00     0.209 HD
ENDBRANCH  52  53
ENDBRANCH  49  52
ENDBRANCH  45  46
ENDBRANCH  42  45
ENDBRANCH  38  39
ENDBRANCH   8  37
TORSDOF 11
ENDMDL
MODEL 14
REMARK VINA RESULT:    -9.793      4.716     13.870
REMARK INTER + INTRA:         -17.156
REMARK INTER:                 -15.058
REMARK INTRA:                  -2.098
REMARK UNBOUND:                -1.352
REMARK  11 active torsions:
REMARK  status: ('A' for Active; 'I' for Inactive)
REMARK    1  A    between atoms: C_1  and  C_4 
REMARK    2  A    between atoms: C_1  and  N_27 
REMARK    3  A    between atoms: C_1  and  C_2 
REMARK       I    between atoms: C_2  and  N_41 
REMARK    4  A    between atoms: C_11  and  N_41 
REMARK    5  A    between atoms: C_12  and  C_52 
REMARK    6  A    between atoms: C_17  and  C_30 
REMARK    7  A    between atoms: C_18  and  C_34 
REMARK    8  A    between atoms: C_28  and  C_33 
REMARK    9  A    between atoms: C_35  and  C_38 
REMARK   10  A    between atoms: C_38  and  N_51 
REMARK   11  A    between atoms: C_52  and  O_53 
ROOT
HETATM    1  C   UNL     1       0.142 -10.730  20.185  1.00  0.00    -0.014 A 
HETATM    2  C   UNL     1       0.256  -9.275  20.661  1.00  0.00     0.052 C 
HETATM    3  C   UNL     1       1.250 -11.317  19.627  1.00  0.00     0.068 A 
HETATM    4  C   UNL     1       1.231 -12.666  19.164  1.00  0.00     0.021 A 
HETATM    5  C   UNL     1       2.482 -12.902  18.604  1.00  0.00     0.126 A 
HETATM    6  C   UNL     1       0.035 -13.461  19.311  1.00  0.00     0.021 A 
HETATM    7  N   UNL     1       3.149 -11.732  18.733  1.00  0.00    -0.282 N 
HETATM    8  C   UNL     1      -0.975 -11.519  20.357  1.00  0.00     0.027 A 
HETATM    9  C   UNL     1      -1.025 -12.831  19.927  1.00  0.00     0.035 A 
HETATM   10  N   UNL     1       2.452 -10.758  19.365  1.00  0.00    -0.296 N 
ATOM     11  HN  UNL     1       2.764  -9.814  19.593  1.00  0.00     0.187 HD
ENDROOT
BRANCH   7  12
HETATM   12  C   UNL     1       4.573 -11.475  18.413  1.00  0.00     0.251 C 
BRANCH  12  13
HETATM   13  C   UNL     1       4.680 -10.466  17.322  1.00  0.00     0.067 A 
HETATM   14  C   UNL     1       3.827 -10.224  16.335  1.00  0.00     0.038 A 
HETATM   15  C   UNL     1       2.492 -10.638  15.685  1.00  0.00     0.062 C 
HETATM   16  N   UNL     1       4.360  -9.218  15.558  1.00  0.00    -0.335 N 
HETATM   17  C   UNL     1       2.271  -9.607  14.583  1.00  0.00     0.037 C 
HETATM   18  C   UNL     1       3.598  -8.885  14.422  1.00  0.00     0.038 A 
HETATM   19  C   UNL     1       3.714  -7.513  13.751  1.00  0.00     0.034 A 
HETATM   20  C   UNL     1       4.291  -8.780  13.062  1.00  0.00     0.034 A 
HETATM   21  C   UNL     1       5.530  -8.901  16.120  1.00  0.00     0.184 A 
HETATM   22  N   UNL     1       5.761  -9.627  17.206  1.00  0.00    -0.352 N 
ATOM     23  HN  UNL     1       6.571  -9.573  17.825  1.00  0.00     0.166 HD
ENDBRANCH  12  13
BRANCH  12  24
HETATM   24  C   UNL     1       5.215 -12.768  18.061  1.00  0.00     0.254 C 
HETATM   25  O   UNL     1       5.277 -13.193  16.903  1.00  0.00    -0.270 OA
HETATM   26  N   UNL     1       5.771 -13.470  19.083  1.00  0.00    -0.305 N 
ATOM     27  HN  UNL     1       5.670 -13.109  20.032  1.00  0.00     0.171 HD
BRANCH  26  28
HETATM   28  C   UNL     1       6.456 -14.632  18.903  1.00  0.00     0.150 A 
HETATM   29  S   UNL     1       8.146 -14.841  19.092  1.00  0.00    -0.064 SA
HETATM   30  C   UNL     1       7.995 -16.514  18.614  1.00  0.00     0.070 A 
HETATM   31  C   UNL     1       6.700 -16.783  18.352  1.00  0.00     0.097 A 
HETATM   32  N   UNL     1       5.844 -15.709  18.509  1.00  0.00    -0.346 N 
ATOM     33  HN  UNL     1       4.839 -15.756  18.334  1.00  0.00     0.167 HD
ENDBRANCH  26  28
ENDBRANCH  12  24
ENDBRANCH   7  12
BRANCH   6  34
HETATM   34  C   UNL     1      -0.029 -14.882  18.960  1.00  0.00     0.387 C 
HETATM   35  F   UNL     1       0.788 -15.627  19.757  1.00  0.00    -0.209 F 
HETATM   36  F   UNL     1       0.530 -15.087  17.703  1.00  0.00    -0.209 F 
ENDBRANCH   6  34
BRANCH   8  37
HETATM   37  C   UNL     1      -2.178 -10.981  21.006  1.00  0.00    -0.061 C 
HETATM   38  C   UNL     1      -3.155 -10.557  21.508  1.00  0.00    -0.061 C 
BRANCH  38  39
HETATM   39  C   UNL     1      -4.376 -10.080  22.158  1.00  0.00     0.018 A 
HETATM   40  C   UNL     1      -4.327  -8.931  22.924  1.00  0.00     0.021 A 
HETATM   41  C   UNL     1      -5.495  -8.523  23.594  1.00  0.00     0.010 A 
HETATM   42  C   UNL     1      -6.624  -9.335  23.482  1.00  0.00    -0.030 A 
HETATM   43  C   UNL     1      -6.671 -10.481  22.754  1.00  0.00     0.010 A 
HETATM   44  C   UNL     1      -5.474 -10.900  22.088  1.00  0.00     0.021 A 
BRANCH  42  45
HETATM   45  C   UNL     1      -7.934  -8.891  24.162  1.00  0.00     0.311 C 
BRANCH  45  46
HETATM   46  N   UNL     1      -8.187  -7.505  23.725  1.00  0.00     0.092 N 
HETATM   47  C   UNL     1      -8.915  -6.687  24.716  1.00  0.00     0.273 C 
HETATM   48  C   UNL     1      -8.897  -5.224  24.240  1.00  0.00     0.037 C 
HETATM   49  C   UNL     1      -9.399  -5.117  22.791  1.00  0.00     0.012 C 
HETATM   50  C   UNL     1      -8.578  -6.007  21.838  1.00  0.00     0.037 C 
HETATM   51  C   UNL     1      -8.694  -7.452  22.340  1.00  0.00     0.273 C 
BRANCH  49  52
HETATM   52  C   UNL     1     -10.868  -5.543  22.752  1.00  0.00     0.168 C 
BRANCH  52  53
HETATM   53  O   UNL     1     -11.510  -4.816  21.712  1.00  0.00    -0.400 OA
ATOM     54  HO  UNL     1     -12.251  -5.327  21.408  1.00  0.00     0.209 HD
ENDBRANCH  52  53
ENDBRANCH  49  52
ENDBRANCH  45  46
ENDBRANCH  42  45
ENDBRANCH  38  39
ENDBRANCH   8  37
TORSDOF 11
ENDMDL
MODEL 15
REMARK VINA RESULT:    -9.594      4.585     14.402
REMARK INTER + INTRA:         -16.835
REMARK INTER:                 -14.113
REMARK INTRA:                  -2.722
REMARK UNBOUND:                -1.352
REMARK  11 active torsions:
REMARK  status: ('A' for Active; 'I' for Inactive)
REMARK    1  A    between atoms: C_1  and  C_4 
REMARK    2  A    between atoms: C_1  and  N_27 
REMARK    3  A    between atoms: C_1  and  C_2 
REMARK       I    between atoms: C_2  and  N_41 
REMARK    4  A    between atoms: C_11  and  N_41 
REMARK    5  A    between atoms: C_12  and  C_52 
REMARK    6  A    between atoms: C_17  and  C_30 
REMARK    7  A    between atoms: C_18  and  C_34 
REMARK    8  A    between atoms: C_28  and  C_33 
REMARK    9  A    between atoms: C_35  and  C_38 
REMARK   10  A    between atoms: C_38  and  N_51 
REMARK   11  A    between atoms: C_52  and  O_53 
ROOT
HETATM    1  C   UNL     1       0.498 -12.385  17.968  1.00  0.00    -0.014 A 
HETATM    2  C   UNL     1       0.446 -10.914  17.534  1.00  0.00     0.052 C 
HETATM    3  C   UNL     1       1.354 -13.226  17.302  1.00  0.00     0.068 A 
HETATM    4  C   UNL     1       1.468 -14.606  17.644  1.00  0.00     0.021 A 
HETATM    5  C   UNL     1       2.360 -15.160  16.732  1.00  0.00     0.126 A 
HETATM    6  C   UNL     1       0.697 -15.141  18.741  1.00  0.00     0.021 A 
HETATM    7  N   UNL     1       2.703 -14.139  15.915  1.00  0.00    -0.282 N 
HETATM    8  C   UNL     1      -0.195 -12.905  19.039  1.00  0.00     0.027 A 
HETATM    9  C   UNL     1      -0.103 -14.234  19.404  1.00  0.00     0.035 A 
HETATM   10  N   UNL     1       2.138 -12.950  16.236  1.00  0.00    -0.296 N 
ATOM     11  HN  UNL     1       2.275 -12.050  15.778  1.00  0.00     0.187 HD
ENDROOT
BRANCH   7  12
HETATM   12  C   UNL     1       3.728 -14.157  14.844  1.00  0.00     0.251 C 
BRANCH  12  13
HETATM   13  C   UNL     1       4.980 -13.506  15.321  1.00  0.00     0.067 A 
HETATM   14  C   UNL     1       5.623 -13.692  16.467  1.00  0.00     0.038 A 
HETATM   15  C   UNL     1       5.622 -14.446  17.811  1.00  0.00     0.062 C 
HETATM   16  N   UNL     1       6.717 -12.854  16.474  1.00  0.00    -0.335 N 
HETATM   17  C   UNL     1       6.948 -14.064  18.461  1.00  0.00     0.037 C 
HETATM   18  C   UNL     1       7.475 -12.886  17.660  1.00  0.00     0.038 A 
HETATM   19  C   UNL     1       8.947 -12.465  17.683  1.00  0.00     0.034 A 
HETATM   20  C   UNL     1       7.860 -11.568  18.336  1.00  0.00     0.034 A 
HETATM   21  C   UNL     1       6.677 -12.188  15.316  1.00  0.00     0.184 A 
HETATM   22  N   UNL     1       5.643 -12.562  14.574  1.00  0.00    -0.352 N 
ATOM     23  HN  UNL     1       5.392 -12.221  13.646  1.00  0.00     0.166 HD
ENDBRANCH  12  13
BRANCH  12  24
HETATM   24  C   UNL     1       3.161 -13.496  13.641  1.00  0.00     0.254 C 
HETATM   25  O   UNL     1       3.059 -12.269  13.536  1.00  0.00    -0.270 OA
HETATM   26  N   UNL     1       2.775 -14.309  12.622  1.00  0.00    -0.305 N 
ATOM     27  HN  UNL     1       2.840 -15.319  12.757  1.00  0.00     0.171 HD
BRANCH  26  28
HETATM   28  C   UNL     1       2.308 -13.843  11.432  1.00  0.00     0.150 A 
HETATM   29  S   UNL     1       0.724 -14.066  10.818  1.00  0.00    -0.064 SA
HETATM   30  C   UNL     1       1.167 -13.211   9.361  1.00  0.00     0.070 A 
HETATM   31  C   UNL     1       2.457 -12.829   9.447  1.00  0.00     0.097 A 
HETATM   32  N   UNL     1       3.092 -13.202  10.618  1.00  0.00    -0.346 N 
ATOM     33  HN  UNL     1       4.071 -12.995  10.820  1.00  0.00     0.167 HD
ENDBRANCH  26  28
ENDBRANCH  12  24
ENDBRANCH   7  12
BRANCH   6  34
HETATM   34  C   UNL     1       0.839 -16.518  19.222  1.00  0.00     0.387 C 
HETATM   35  F   UNL     1       2.116 -16.775  19.621  1.00  0.00    -0.209 F 
HETATM   36  F   UNL     1       0.683 -17.409  18.165  1.00  0.00    -0.209 F 
ENDBRANCH   6  34
BRANCH   8  37
HETATM   37  C   UNL     1      -1.082 -12.051  19.842  1.00  0.00    -0.061 C 
HETATM   38  C   UNL     1      -1.788 -11.381  20.503  1.00  0.00    -0.061 C 
BRANCH  38  39
HETATM   39  C   UNL     1      -2.621 -10.517  21.340  1.00  0.00     0.018 A 
HETATM   40  C   UNL     1      -3.995 -10.659  21.295  1.00  0.00     0.021 A 
HETATM   41  C   UNL     1      -4.784  -9.778  22.058  1.00  0.00     0.010 A 
HETATM   42  C   UNL     1      -4.128  -8.778  22.777  1.00  0.00    -0.030 A 
HETATM   43  C   UNL     1      -2.780  -8.614  22.802  1.00  0.00     0.010 A 
HETATM   44  C   UNL     1      -1.983  -9.504  22.011  1.00  0.00     0.021 A 
BRANCH  42  45
HETATM   45  C   UNL     1      -4.958  -7.826  23.662  1.00  0.00     0.311 C 
BRANCH  45  46
HETATM   46  N   UNL     1      -6.371  -8.215  23.488  1.00  0.00     0.092 N 
HETATM   47  C   UNL     1      -7.197  -7.190  22.818  1.00  0.00     0.273 C 
HETATM   48  C   UNL     1      -8.564  -7.813  22.491  1.00  0.00     0.037 C 
HETATM   49  C   UNL     1      -9.185  -8.453  23.743  1.00  0.00     0.012 C 
HETATM   50  C   UNL     1      -8.248  -9.504  24.368  1.00  0.00     0.037 C 
HETATM   51  C   UNL     1      -6.933  -8.798  24.722  1.00  0.00     0.273 C 
BRANCH  49  52
HETATM   52  C   UNL     1      -9.470  -7.350  24.764  1.00  0.00     0.168 C 
BRANCH  52  53
HETATM   53  O   UNL     1     -10.432  -6.466  24.200  1.00  0.00    -0.400 OA
ATOM     54  HO  UNL     1     -10.056  -5.594  24.181  1.00  0.00     0.209 HD
ENDBRANCH  52  53
ENDBRANCH  49  52
ENDBRANCH  45  46
ENDBRANCH  42  45
ENDBRANCH  38  39
ENDBRANCH   8  37
TORSDOF 11
ENDMDL
MODEL 16
REMARK VINA RESULT:    -9.512      8.980     10.775
REMARK INTER + INTRA:         -16.703
REMARK INTER:                 -15.057
REMARK INTRA:                  -1.646
REMARK UNBOUND:                -1.352
REMARK  11 active torsions:
REMARK  status: ('A' for Active; 'I' for Inactive)
REMARK    1  A    between atoms: C_1  and  C_4 
REMARK    2  A    between atoms: C_1  and  N_27 
REMARK    3  A    between atoms: C_1  and  C_2 
REMARK       I    between atoms: C_2  and  N_41 
REMARK    4  A    between atoms: C_11  and  N_41 
REMARK    5  A    between atoms: C_12  and  C_52 
REMARK    6  A    between atoms: C_17  and  C_30 
REMARK    7  A    between atoms: C_18  and  C_34 
REMARK    8  A    between atoms: C_28  and  C_33 
REMARK    9  A    between atoms: C_35  and  C_38 
REMARK   10  A    between atoms: C_38  and  N_51 
REMARK   11  A    between atoms: C_52  and  O_53 
ROOT
HETATM    1  C   UNL     1      -9.109 -15.001  13.728  1.00  0.00    -0.014 A 
HETATM    2  C   UNL     1      -9.255 -16.164  12.739  1.00  0.00     0.052 C 
HETATM    3  C   UNL     1     -10.056 -14.865  14.712  1.00  0.00     0.068 A 
HETATM    4  C   UNL     1      -9.992 -13.815  15.675  1.00  0.00     0.021 A 
HETATM    5  C   UNL     1     -11.133 -13.939  16.462  1.00  0.00     0.126 A 
HETATM    6  C   UNL     1      -8.890 -12.883  15.652  1.00  0.00     0.021 A 
HETATM    7  N   UNL     1     -11.802 -14.993  15.942  1.00  0.00    -0.282 N 
HETATM    8  C   UNL     1      -8.041 -14.129  13.752  1.00  0.00     0.027 A 
HETATM    9  C   UNL     1      -7.944 -13.105  14.674  1.00  0.00     0.035 A 
HETATM   10  N   UNL     1     -11.177 -15.595  14.901  1.00  0.00    -0.296 N 
ATOM     11  HN  UNL     1     -11.484 -16.415  14.379  1.00  0.00     0.187 HD
ENDROOT
BRANCH   7  12
HETATM   12  C   UNL     1     -13.024 -15.632  16.486  1.00  0.00     0.251 C 
BRANCH  12  13
HETATM   13  C   UNL     1     -13.270 -15.166  17.879  1.00  0.00     0.067 A 
HETATM   14  C   UNL     1     -13.342 -15.887  18.990  1.00  0.00     0.038 A 
HETATM   15  C   UNL     1     -13.279 -17.307  19.584  1.00  0.00     0.062 C 
HETATM   16  N   UNL     1     -13.609 -15.024  20.032  1.00  0.00    -0.335 N 
HETATM   17  C   UNL     1     -13.347 -17.092  21.093  1.00  0.00     0.037 C 
HETATM   18  C   UNL     1     -13.779 -15.648  21.283  1.00  0.00     0.038 A 
HETATM   19  C   UNL     1     -13.562 -14.888  22.595  1.00  0.00     0.034 A 
HETATM   20  C   UNL     1     -14.993 -15.284  22.140  1.00  0.00     0.034 A 
HETATM   21  C   UNL     1     -13.692 -13.807  19.489  1.00  0.00     0.184 A 
HETATM   22  N   UNL     1     -13.480 -13.841  18.180  1.00  0.00    -0.352 N 
ATOM     23  HN  UNL     1     -13.473 -13.052  17.533  1.00  0.00     0.166 HD
ENDBRANCH  12  13
BRANCH  12  24
HETATM   24  C   UNL     1     -12.862 -17.106  16.396  1.00  0.00     0.254 C 
HETATM   25  O   UNL     1     -11.789 -17.677  16.618  1.00  0.00    -0.270 OA
HETATM   26  N   UNL     1     -13.972 -17.824  16.081  1.00  0.00    -0.305 N 
ATOM     27  HN  UNL     1     -14.832 -17.318  15.868  1.00  0.00     0.171 HD
BRANCH  26  28
HETATM   28  C   UNL     1     -13.992 -19.184  16.035  1.00  0.00     0.150 A 
HETATM   29  S   UNL     1     -14.792 -20.137  14.857  1.00  0.00    -0.064 SA
HETATM   30  C   UNL     1     -14.282 -21.589  15.683  1.00  0.00     0.070 A 
HETATM   31  C   UNL     1     -13.559 -21.248  16.769  1.00  0.00     0.097 A 
HETATM   32  N   UNL     1     -13.412 -19.887  16.961  1.00  0.00    -0.346 N 
ATOM     33  HN  UNL     1     -12.903 -19.478  17.746  1.00  0.00     0.167 HD
ENDBRANCH  26  28
ENDBRANCH  12  24
ENDBRANCH   7  12
BRANCH   6  34
HETATM   34  C   UNL     1      -8.697 -11.847  16.670  1.00  0.00     0.387 C 
HETATM   35  F   UNL     1      -8.102 -10.739  16.145  1.00  0.00    -0.209 F 
HETATM   36  F   UNL     1      -7.753 -12.266  17.603  1.00  0.00    -0.209 F 
ENDBRANCH   6  34
BRANCH   8  37
HETATM   37  C   UNL     1      -6.954 -14.252  12.771  1.00  0.00    -0.061 C 
HETATM   38  C   UNL     1      -6.075 -14.330  11.992  1.00  0.00    -0.061 C 
BRANCH  38  39
HETATM   39  C   UNL     1      -4.950 -14.450  11.064  1.00  0.00     0.018 A 
HETATM   40  C   UNL     1      -4.860 -15.569  10.257  1.00  0.00     0.021 A 
HETATM   41  C   UNL     1      -3.739 -15.699   9.417  1.00  0.00     0.010 A 
HETATM   42  C   UNL     1      -2.757 -14.710   9.488  1.00  0.00    -0.030 A 
HETATM   43  C   UNL     1      -2.825 -13.623  10.300  1.00  0.00     0.010 A 
HETATM   44  C   UNL     1      -3.961 -13.504  11.165  1.00  0.00     0.021 A 
BRANCH  42  45
HETATM   45  C   UNL     1      -1.540 -14.795   8.546  1.00  0.00     0.311 C 
BRANCH  45  46
HETATM   46  N   UNL     1      -0.340 -14.691   9.399  1.00  0.00     0.092 N 
HETATM   47  C   UNL     1       0.571 -13.592   9.020  1.00  0.00     0.273 C 
HETATM   48  C   UNL     1       1.637 -13.450  10.120  1.00  0.00     0.037 C 
HETATM   49  C   UNL     1       2.309 -14.803  10.406  1.00  0.00     0.012 C 
HETATM   50  C   UNL     1       1.276 -15.880  10.788  1.00  0.00     0.037 C 
HETATM   51  C   UNL     1       0.288 -16.008   9.622  1.00  0.00     0.273 C 
BRANCH  49  52
HETATM   52  C   UNL     1       3.068 -15.243   9.153  1.00  0.00     0.168 C 
BRANCH  52  53
HETATM   53  O   UNL     1       4.054 -14.258   8.866  1.00  0.00    -0.400 OA
ATOM     54  HO  UNL     1       3.687 -13.406   9.071  1.00  0.00     0.209 HD
ENDBRANCH  52  53
ENDBRANCH  49  52
ENDBRANCH  45  46
ENDBRANCH  42  45
ENDBRANCH  38  39
ENDBRANCH   8  37
TORSDOF 11
ENDMDL
MODEL 17
REMARK VINA RESULT:    -9.467      4.012     13.711
REMARK INTER + INTRA:         -16.630
REMARK INTER:                 -15.058
REMARK INTRA:                  -1.572
REMARK UNBOUND:                -1.352
REMARK  11 active torsions:
REMARK  status: ('A' for Active; 'I' for Inactive)
REMARK    1  A    between atoms: C_1  and  C_4 
REMARK    2  A    between atoms: C_1  and  N_27 
REMARK    3  A    between atoms: C_1  and  C_2 
REMARK       I    between atoms: C_2  and  N_41 
REMARK    4  A    between atoms: C_11  and  N_41 
REMARK    5  A    between atoms: C_12  and  C_52 
REMARK    6  A    between atoms: C_17  and  C_30 
REMARK    7  A    between atoms: C_18  and  C_34 
REMARK    8  A    between atoms: C_28  and  C_33 
REMARK    9  A    between atoms: C_35  and  C_38 
REMARK   10  A    between atoms: C_38  and  N_51 
REMARK   11  A    between atoms: C_52  and  O_53 
ROOT
HETATM    1  C   UNL     1       0.850 -11.480  19.787  1.00  0.00    -0.014 A 
HETATM    2  C   UNL     1      -0.122 -12.667  19.770  1.00  0.00     0.052 C 
HETATM    3  C   UNL     1       2.061 -11.626  19.158  1.00  0.00     0.068 A 
HETATM    4  C   UNL     1       3.020 -10.571  19.122  1.00  0.00     0.021 A 
HETATM    5  C   UNL     1       4.139 -11.084  18.474  1.00  0.00     0.126 A 
HETATM    6  C   UNL     1       2.711  -9.296  19.726  1.00  0.00     0.021 A 
HETATM    7  N   UNL     1       3.818 -12.366  18.187  1.00  0.00    -0.282 N 
HETATM    8  C   UNL     1       0.557 -10.242  20.319  1.00  0.00     0.027 A 
HETATM    9  C   UNL     1       1.459  -9.196  20.295  1.00  0.00     0.035 A 
HETATM   10  N   UNL     1       2.567 -12.727  18.560  1.00  0.00    -0.296 N 
ATOM     11  HN  UNL     1       2.109 -13.628  18.421  1.00  0.00     0.187 HD
ENDROOT
BRANCH   7  12
HETATM   12  C   UNL     1       4.612 -13.327  17.385  1.00  0.00     0.251 C 
BRANCH  12  13
HETATM   13  C   UNL     1       3.706 -14.261  16.660  1.00  0.00     0.067 A 
HETATM   14  C   UNL     1       3.037 -15.302  17.140  1.00  0.00     0.038 A 
HETATM   15  C   UNL     1       2.742 -16.149  18.393  1.00  0.00     0.062 C 
HETATM   16  N   UNL     1       2.350 -15.877  16.092  1.00  0.00    -0.335 N 
HETATM   17  C   UNL     1       1.663 -17.129  17.944  1.00  0.00     0.037 C 
HETATM   18  C   UNL     1       1.634 -17.042  16.427  1.00  0.00     0.038 A 
HETATM   19  C   UNL     1       0.437 -17.516  15.597  1.00  0.00     0.034 A 
HETATM   20  C   UNL     1       1.784 -18.289  15.552  1.00  0.00     0.034 A 
HETATM   21  C   UNL     1       2.648 -15.148  15.013  1.00  0.00     0.184 A 
HETATM   22  N   UNL     1       3.461 -14.144  15.313  1.00  0.00    -0.352 N 
ATOM     23  HN  UNL     1       3.828 -13.434  14.678  1.00  0.00     0.166 HD
ENDBRANCH  12  13
BRANCH  12  24
HETATM   24  C   UNL     1       5.552 -14.032  18.294  1.00  0.00     0.254 C 
HETATM   25  O   UNL     1       5.378 -14.103  19.515  1.00  0.00    -0.270 OA
HETATM   26  N   UNL     1       6.623 -14.636  17.714  1.00  0.00    -0.305 N 
ATOM     27  HN  UNL     1       6.756 -14.526  16.708  1.00  0.00     0.171 HD
BRANCH  26  28
HETATM   28  C   UNL     1       7.527 -15.379  18.409  1.00  0.00     0.150 A 
HETATM   29  S   UNL     1       7.853 -17.044  18.172  1.00  0.00    -0.064 SA
HETATM   30  C   UNL     1       9.004 -17.008  19.484  1.00  0.00     0.070 A 
HETATM   31  C   UNL     1       9.053 -15.761  19.995  1.00  0.00     0.097 A 
HETATM   32  N   UNL     1       8.206 -14.854  19.385  1.00  0.00    -0.346 N 
ATOM     33  HN  UNL     1       8.124 -13.877  19.670  1.00  0.00     0.167 HD
ENDBRANCH  26  28
ENDBRANCH  12  24
ENDBRANCH   7  12
BRANCH   6  34
HETATM   34  C   UNL     1       3.597  -8.133  19.637  1.00  0.00     0.387 C 
HETATM   35  F   UNL     1       3.020  -7.026  20.184  1.00  0.00    -0.209 F 
HETATM   36  F   UNL     1       3.749  -7.752  18.307  1.00  0.00    -0.209 F 
ENDBRANCH   6  34
BRANCH   8  37
HETATM   37  C   UNL     1      -0.745  -9.990  20.951  1.00  0.00    -0.061 C 
HETATM   38  C   UNL     1      -1.777  -9.779  21.477  1.00  0.00    -0.061 C 
BRANCH  38  39
HETATM   39  C   UNL     1      -3.058  -9.465  22.109  1.00  0.00     0.018 A 
HETATM   40  C   UNL     1      -4.213 -10.040  21.612  1.00  0.00     0.021 A 
HETATM   41  C   UNL     1      -5.443  -9.678  22.190  1.00  0.00     0.010 A 
HETATM   42  C   UNL     1      -5.426  -8.717  23.202  1.00  0.00    -0.030 A 
HETATM   43  C   UNL     1      -4.298  -8.126  23.675  1.00  0.00     0.010 A 
HETATM   44  C   UNL     1      -3.050  -8.487  23.072  1.00  0.00     0.021 A 
BRANCH  42  45
HETATM   45  C   UNL     1      -6.750  -8.333  23.891  1.00  0.00     0.311 C 
BRANCH  45  46
HETATM   46  N   UNL     1      -7.553  -9.568  23.978  1.00  0.00     0.092 N 
HETATM   47  C   UNL     1      -8.926  -9.358  24.481  1.00  0.00     0.273 C 
HETATM   48  C   UNL     1      -9.713 -10.665  24.293  1.00  0.00     0.037 C 
HETATM   49  C   UNL     1      -8.954 -11.851  24.910  1.00  0.00     0.012 C 
HETATM   50  C   UNL     1      -7.536 -11.985  24.323  1.00  0.00     0.037 C 
HETATM   51  C   UNL     1      -6.795 -10.671  24.602  1.00  0.00     0.273 C 
BRANCH  49  52
HETATM   52  C   UNL     1      -8.865 -11.639  26.423  1.00  0.00     0.168 C 
BRANCH  52  53
HETATM   53  O   UNL     1      -9.539 -12.717  27.059  1.00  0.00    -0.400 OA
ATOM     54  HO  UNL     1      -9.267 -13.525  26.639  1.00  0.00     0.209 HD
ENDBRANCH  52  53
ENDBRANCH  49  52
ENDBRANCH  45  46
ENDBRANCH  42  45
ENDBRANCH  38  39
ENDBRANCH   8  37
TORSDOF 11
ENDMDL
MODEL 18
REMARK VINA RESULT:    -9.371      4.788     15.367
REMARK INTER + INTRA:         -16.475
REMARK INTER:                 -13.827
REMARK INTRA:                  -2.648
REMARK UNBOUND:                -1.352
REMARK  11 active torsions:
REMARK  status: ('A' for Active; 'I' for Inactive)
REMARK    1  A    between atoms: C_1  and  C_4 
REMARK    2  A    between atoms: C_1  and  N_27 
REMARK    3  A    between atoms: C_1  and  C_2 
REMARK       I    between atoms: C_2  and  N_41 
REMARK    4  A    between atoms: C_11  and  N_41 
REMARK    5  A    between atoms: C_12  and  C_52 
REMARK    6  A    between atoms: C_17  and  C_30 
REMARK    7  A    between atoms: C_18  and  C_34 
REMARK    8  A    between atoms: C_28  and  C_33 
REMARK    9  A    between atoms: C_35  and  C_38 
REMARK   10  A    between atoms: C_38  and  N_51 
REMARK   11  A    between atoms: C_52  and  O_53 
ROOT
HETATM    1  C   UNL     1       2.745 -12.190  19.320  1.00  0.00    -0.014 A 
HETATM    2  C   UNL     1       3.231 -10.743  19.480  1.00  0.00     0.052 C 
HETATM    3  C   UNL     1       3.602 -13.102  18.758  1.00  0.00     0.068 A 
HETATM    4  C   UNL     1       3.232 -14.468  18.578  1.00  0.00     0.021 A 
HETATM    5  C   UNL     1       4.299 -15.078  17.926  1.00  0.00     0.126 A 
HETATM    6  C   UNL     1       1.939 -14.929  19.027  1.00  0.00     0.021 A 
HETATM    7  N   UNL     1       5.202 -14.089  17.737  1.00  0.00    -0.282 N 
HETATM    8  C   UNL     1       1.534 -12.660  19.783  1.00  0.00     0.027 A 
HETATM    9  C   UNL     1       1.146 -13.977  19.632  1.00  0.00     0.035 A 
HETATM   10  N   UNL     1       4.833 -12.888  18.244  1.00  0.00    -0.296 N 
ATOM     11  HN  UNL     1       5.365 -12.018  18.239  1.00  0.00     0.187 HD
ENDROOT
BRANCH   7  12
HETATM   12  C   UNL     1       6.577 -14.226  17.198  1.00  0.00     0.251 C 
BRANCH  12  13
HETATM   13  C   UNL     1       7.309 -15.298  17.927  1.00  0.00     0.067 A 
HETATM   14  C   UNL     1       7.722 -16.474  17.471  1.00  0.00     0.038 A 
HETATM   15  C   UNL     1       7.765 -17.414  16.250  1.00  0.00     0.062 C 
HETATM   16  N   UNL     1       8.332 -17.137  18.514  1.00  0.00    -0.335 N 
HETATM   17  C   UNL     1       8.642 -18.579  16.699  1.00  0.00     0.037 C 
HETATM   18  C   UNL     1       8.773 -18.439  18.206  1.00  0.00     0.038 A 
HETATM   19  C   UNL     1       9.890 -19.117  19.003  1.00  0.00     0.034 A 
HETATM   20  C   UNL     1       8.418 -19.590  19.149  1.00  0.00     0.034 A 
HETATM   21  C   UNL     1       8.251 -16.319  19.567  1.00  0.00     0.184 A 
HETATM   22  N   UNL     1       7.648 -15.180  19.254  1.00  0.00    -0.352 N 
ATOM     23  HN  UNL     1       7.471 -14.384  19.868  1.00  0.00     0.166 HD
ENDBRANCH  12  13
BRANCH  12  24
HETATM   24  C   UNL     1       7.251 -12.906  17.292  1.00  0.00     0.254 C 
HETATM   25  O   UNL     1       7.518 -12.365  18.370  1.00  0.00    -0.270 OA
HETATM   26  N   UNL     1       7.597 -12.312  16.119  1.00  0.00    -0.305 N 
ATOM     27  HN  UNL     1       7.328 -12.769  15.247  1.00  0.00     0.171 HD
BRANCH  26  28
HETATM   28  C   UNL     1       8.284 -11.140  16.051  1.00  0.00     0.150 A 
HETATM   29  S   UNL     1       9.885 -10.946  15.471  1.00  0.00    -0.064 SA
HETATM   30  C   UNL     1       9.814  -9.241  15.841  1.00  0.00     0.070 A 
HETATM   31  C   UNL     1       8.607  -8.952  16.368  1.00  0.00     0.097 A 
HETATM   32  N   UNL     1       7.756 -10.036  16.490  1.00  0.00    -0.346 N 
ATOM     33  HN  UNL     1       6.816  -9.975  16.882  1.00  0.00     0.167 HD
ENDBRANCH  26  28
ENDBRANCH  12  24
ENDBRANCH   7  12
BRANCH   6  34
HETATM   34  C   UNL     1       1.529 -16.334  18.976  1.00  0.00     0.387 C 
HETATM   35  F   UNL     1       0.172 -16.455  18.945  1.00  0.00    -0.209 F 
HETATM   36  F   UNL     1       1.846 -16.966  20.175  1.00  0.00    -0.209 F 
ENDBRANCH   6  34
BRANCH   8  37
HETATM   37  C   UNL     1       0.590 -11.757  20.455  1.00  0.00    -0.061 C 
HETATM   38  C   UNL     1      -0.167 -11.020  20.975  1.00  0.00    -0.061 C 
BRANCH  38  39
HETATM   39  C   UNL     1      -1.149 -10.133  21.599  1.00  0.00     0.018 A 
HETATM   40  C   UNL     1      -0.717  -9.172  22.493  1.00  0.00     0.021 A 
HETATM   41  C   UNL     1      -1.681  -8.371  23.132  1.00  0.00     0.010 A 
HETATM   42  C   UNL     1      -3.024  -8.631  22.859  1.00  0.00    -0.030 A 
HETATM   43  C   UNL     1      -3.458  -9.593  22.004  1.00  0.00     0.010 A 
HETATM   44  C   UNL     1      -2.472 -10.417  21.368  1.00  0.00     0.021 A 
BRANCH  42  45
HETATM   45  C   UNL     1      -4.105  -7.740  23.504  1.00  0.00     0.311 C 
BRANCH  45  46
HETATM   46  N   UNL     1      -5.386  -8.456  23.354  1.00  0.00     0.092 N 
HETATM   47  C   UNL     1      -6.405  -7.710  22.589  1.00  0.00     0.273 C 
HETATM   48  C   UNL     1      -7.584  -8.656  22.306  1.00  0.00     0.037 C 
HETATM   49  C   UNL     1      -8.077  -9.314  23.605  1.00  0.00     0.012 C 
HETATM   50  C   UNL     1      -6.943 -10.064  24.328  1.00  0.00     0.037 C 
HETATM   51  C   UNL     1      -5.835  -9.047  24.630  1.00  0.00     0.273 C 
BRANCH  49  52
HETATM   52  C   UNL     1      -8.636  -8.224  24.522  1.00  0.00     0.168 C 
BRANCH  52  53
HETATM   53  O   UNL     1      -9.698  -7.572  23.835  1.00  0.00    -0.400 OA
ATOM     54  HO  UNL     1     -10.494  -7.694  24.339  1.00  0.00     0.209 HD
ENDBRANCH  52  53
ENDBRANCH  49  52
ENDBRANCH  45  46
ENDBRANCH  42  45
ENDBRANCH  38  39
ENDBRANCH   8  37
TORSDOF 11
ENDMDL
MODEL 19
REMARK VINA RESULT:    -9.278      4.915     14.279
REMARK INTER + INTRA:         -16.325
REMARK INTER:                 -14.257
REMARK INTRA:                  -2.068
REMARK UNBOUND:                -1.352
REMARK  11 active torsions:
REMARK  status: ('A' for Active; 'I' for Inactive)
REMARK    1  A    between atoms: C_1  and  C_4 
REMARK    2  A    between atoms: C_1  and  N_27 
REMARK    3  A    between atoms: C_1  and  C_2 
REMARK       I    between atoms: C_2  and  N_41 
REMARK    4  A    between atoms: C_11  and  N_41 
REMARK    5  A    between atoms: C_12  and  C_52 
REMARK    6  A    between atoms: C_17  and  C_30 
REMARK    7  A    between atoms: C_18  and  C_34 
REMARK    8  A    between atoms: C_28  and  C_33 
REMARK    9  A    between atoms: C_35  and  C_38 
REMARK   10  A    between atoms: C_38  and  N_51 
REMARK   11  A    between atoms: C_52  and  O_53 
ROOT
HETATM    1  C   UNL     1       0.513 -12.594  17.828  1.00  0.00    -0.014 A 
HETATM    2  C   UNL     1       0.331 -11.196  17.223  1.00  0.00     0.052 C 
HETATM    3  C   UNL     1       1.295 -13.496  17.150  1.00  0.00     0.068 A 
HETATM    4  C   UNL     1       1.520 -14.815  17.645  1.00  0.00     0.021 A 
HETATM    5  C   UNL     1       2.287 -15.465  16.684  1.00  0.00     0.126 A 
HETATM    6  C   UNL     1       0.950 -15.216  18.909  1.00  0.00     0.021 A 
HETATM    7  N   UNL     1       2.456 -14.555  15.698  1.00  0.00    -0.282 N 
HETATM    8  C   UNL     1       0.016 -12.983  19.054  1.00  0.00     0.027 A 
HETATM    9  C   UNL     1       0.221 -14.248  19.567  1.00  0.00     0.035 A 
HETATM   10  N   UNL     1       1.895 -13.348  15.949  1.00  0.00    -0.296 N 
ATOM     11  HN  UNL     1       1.920 -12.513  15.362  1.00  0.00     0.187 HD
ENDROOT
BRANCH   7  12
HETATM   12  C   UNL     1       3.306 -14.692  14.491  1.00  0.00     0.251 C 
BRANCH  12  13
HETATM   13  C   UNL     1       2.463 -14.654  13.263  1.00  0.00     0.067 A 
HETATM   14  C   UNL     1       1.279 -15.215  13.057  1.00  0.00     0.038 A 
HETATM   15  C   UNL     1       0.168 -16.090  13.670  1.00  0.00     0.062 C 
HETATM   16  N   UNL     1       0.899 -14.927  11.763  1.00  0.00    -0.335 N 
HETATM   17  C   UNL     1      -0.945 -16.077  12.627  1.00  0.00     0.037 C 
HETATM   18  C   UNL     1      -0.319 -15.511  11.364  1.00  0.00     0.038 A 
HETATM   19  C   UNL     1      -1.153 -14.925  10.222  1.00  0.00     0.034 A 
HETATM   20  C   UNL     1      -0.387 -16.262  10.033  1.00  0.00     0.034 A 
HETATM   21  C   UNL     1       1.891 -14.200  11.243  1.00  0.00     0.184 A 
HETATM   22  N   UNL     1       2.861 -13.996  12.124  1.00  0.00    -0.352 N 
ATOM     23  HN  UNL     1       3.720 -13.464  11.986  1.00  0.00     0.166 HD
ENDBRANCH  12  13
BRANCH  12  24
HETATM   24  C   UNL     1       4.088 -15.949  14.609  1.00  0.00     0.254 C 
HETATM   25  O   UNL     1       3.716 -17.019  14.117  1.00  0.00    -0.270 OA
HETATM   26  N   UNL     1       5.272 -15.870  15.272  1.00  0.00    -0.305 N 
ATOM     27  HN  UNL     1       5.532 -14.980  15.697  1.00  0.00     0.171 HD
BRANCH  26  28
HETATM   28  C   UNL     1       6.129 -16.920  15.395  1.00  0.00     0.150 A 
HETATM   29  S   UNL     1       7.767 -16.945  14.891  1.00  0.00    -0.064 SA
HETATM   30  C   UNL     1       7.902 -18.607  15.407  1.00  0.00     0.070 A 
HETATM   31  C   UNL     1       6.719 -19.012  15.911  1.00  0.00     0.097 A 
HETATM   32  N   UNL     1       5.724 -18.052  15.889  1.00  0.00    -0.346 N 
ATOM     33  HN  UNL     1       4.774 -18.215  16.224  1.00  0.00     0.167 HD
ENDBRANCH  26  28
ENDBRANCH  12  24
ENDBRANCH   7  12
BRANCH   6  34
HETATM   34  C   UNL     1       1.225 -16.512  19.535  1.00  0.00     0.387 C 
HETATM   35  F   UNL     1       2.555 -16.670  19.787  1.00  0.00    -0.209 F 
HETATM   36  F   UNL     1       0.980 -17.540  18.628  1.00  0.00    -0.209 F 
ENDBRANCH   6  34
BRANCH   8  37
HETATM   37  C   UNL     1      -0.775 -12.050  19.868  1.00  0.00    -0.061 C 
HETATM   38  C   UNL     1      -1.406 -11.286  20.504  1.00  0.00    -0.061 C 
BRANCH  38  39
HETATM   39  C   UNL     1      -2.237 -10.355  21.268  1.00  0.00     0.018 A 
HETATM   40  C   UNL     1      -1.625  -9.414  22.075  1.00  0.00     0.021 A 
HETATM   41  C   UNL     1      -2.439  -8.569  22.852  1.00  0.00     0.010 A 
HETATM   42  C   UNL     1      -3.819  -8.767  22.797  1.00  0.00    -0.030 A 
HETATM   43  C   UNL     1      -4.425  -9.709  22.029  1.00  0.00     0.010 A 
HETATM   44  C   UNL     1      -3.591 -10.578  21.252  1.00  0.00     0.021 A 
BRANCH  42  45
HETATM   45  C   UNL     1      -4.742  -7.827  23.597  1.00  0.00     0.311 C 
BRANCH  45  46
HETATM   46  N   UNL     1      -6.120  -8.309  23.384  1.00  0.00     0.092 N 
HETATM   47  C   UNL     1      -6.992  -7.345  22.682  1.00  0.00     0.273 C 
HETATM   48  C   UNL     1      -8.305  -8.059  22.319  1.00  0.00     0.037 C 
HETATM   49  C   UNL     1      -8.919  -8.732  23.557  1.00  0.00     0.012 C 
HETATM   50  C   UNL     1      -7.933  -9.715  24.217  1.00  0.00     0.037 C 
HETATM   51  C   UNL     1      -6.680  -8.921  24.605  1.00  0.00     0.273 C 
BRANCH  49  52
HETATM   52  C   UNL     1      -9.307  -7.644  24.561  1.00  0.00     0.168 C 
BRANCH  52  53
HETATM   53  O   UNL     1     -10.484  -7.004  24.083  1.00  0.00    -0.400 OA
ATOM     54  HO  UNL     1     -10.416  -6.077  24.279  1.00  0.00     0.209 HD
ENDBRANCH  52  53
ENDBRANCH  49  52
ENDBRANCH  45  46
ENDBRANCH  42  45
ENDBRANCH  38  39
ENDBRANCH   8  37
TORSDOF 11
ENDMDL
MODEL 20
REMARK VINA RESULT:    -9.274      4.427     14.529
REMARK INTER + INTRA:         -16.320
REMARK INTER:                 -14.293
REMARK INTRA:                  -2.026
REMARK UNBOUND:                -1.352
REMARK  11 active torsions:
REMARK  status: ('A' for Active; 'I' for Inactive)
REMARK    1  A    between atoms: C_1  and  C_4 
REMARK    2  A    between atoms: C_1  and  N_27 
REMARK    3  A    between atoms: C_1  and  C_2 
REMARK       I    between atoms: C_2  and  N_41 
REMARK    4  A    between atoms: C_11  and  N_41 
REMARK    5  A    between atoms: C_12  and  C_52 
REMARK    6  A    between atoms: C_17  and  C_30 
REMARK    7  A    between atoms: C_18  and  C_34 
REMARK    8  A    between atoms: C_28  and  C_33 
REMARK    9  A    between atoms: C_35  and  C_38 
REMARK   10  A    between atoms: C_38  and  N_51 
REMARK   11  A    between atoms: C_52  and  O_53 
ROOT
HETATM    1  C   UNL     1       0.455 -12.457  17.959  1.00  0.00    -0.014 A 
HETATM    2  C   UNL     1       0.372 -11.000  17.486  1.00  0.00     0.052 C 
HETATM    3  C   UNL     1       1.310 -13.304  17.299  1.00  0.00     0.068 A 
HETATM    4  C   UNL     1       1.452 -14.671  17.677  1.00  0.00     0.021 A 
HETATM    5  C   UNL     1       2.333 -15.239  16.762  1.00  0.00     0.126 A 
HETATM    6  C   UNL     1       0.713 -15.187  18.805  1.00  0.00     0.021 A 
HETATM    7  N   UNL     1       2.643 -14.235  15.909  1.00  0.00    -0.282 N 
HETATM    8  C   UNL     1      -0.207 -12.957  19.060  1.00  0.00     0.027 A 
HETATM    9  C   UNL     1      -0.087 -14.274  19.459  1.00  0.00     0.035 A 
HETATM   10  N   UNL     1       2.067 -13.047  16.210  1.00  0.00    -0.296 N 
ATOM     11  HN  UNL     1       2.180 -12.157  15.723  1.00  0.00     0.187 HD
ENDROOT
BRANCH   7  12
HETATM   12  C   UNL     1       3.646 -14.269  14.817  1.00  0.00     0.251 C 
BRANCH  12  13
HETATM   13  C   UNL     1       3.458 -15.490  13.985  1.00  0.00     0.067 A 
HETATM   14  C   UNL     1       2.354 -15.919  13.386  1.00  0.00     0.038 A 
HETATM   15  C   UNL     1       0.859 -15.644  13.140  1.00  0.00     0.062 C 
HETATM   16  N   UNL     1       2.658 -17.104  12.751  1.00  0.00    -0.335 N 
HETATM   17  C   UNL     1       0.436 -16.712  12.136  1.00  0.00     0.037 C 
HETATM   18  C   UNL     1       1.566 -17.727  12.115  1.00  0.00     0.038 A 
HETATM   19  C   UNL     1       1.765 -18.714  10.961  1.00  0.00     0.034 A 
HETATM   20  C   UNL     1       1.308 -19.215  12.359  1.00  0.00     0.034 A 
HETATM   21  C   UNL     1       3.947 -17.339  13.007  1.00  0.00     0.184 A 
HETATM   22  N   UNL     1       4.481 -16.375  13.745  1.00  0.00    -0.352 N 
ATOM     23  HN  UNL     1       5.447 -16.305  14.067  1.00  0.00     0.166 HD
ENDBRANCH  12  13
BRANCH  12  24
HETATM   24  C   UNL     1       5.000 -14.191  15.422  1.00  0.00     0.254 C 
HETATM   25  O   UNL     1       6.001 -13.848  14.784  1.00  0.00    -0.270 OA
HETATM   26  N   UNL     1       5.096 -14.491  16.744  1.00  0.00    -0.305 N 
ATOM     27  HN  UNL     1       4.257 -14.805  17.232  1.00  0.00     0.171 HD
BRANCH  26  28
HETATM   28  C   UNL     1       6.256 -14.392  17.449  1.00  0.00     0.150 A 
HETATM   29  S   UNL     1       6.907 -15.591  18.486  1.00  0.00    -0.064 SA
HETATM   30  C   UNL     1       8.236 -14.529  18.881  1.00  0.00     0.070 A 
HETATM   31  C   UNL     1       8.088 -13.368  18.213  1.00  0.00     0.097 A 
HETATM   32  N   UNL     1       6.960 -13.300  17.416  1.00  0.00    -0.346 N 
ATOM     33  HN  UNL     1       6.709 -12.481  16.861  1.00  0.00     0.167 HD
ENDBRANCH  26  28
ENDBRANCH  12  24
ENDBRANCH   7  12
BRANCH   6  34
HETATM   34  C   UNL     1       0.886 -16.548  19.320  1.00  0.00     0.387 C 
HETATM   35  F   UNL     1       2.146 -16.739  19.804  1.00  0.00    -0.209 F 
HETATM   36  F   UNL     1       0.838 -17.463  18.273  1.00  0.00    -0.209 F 
ENDBRANCH   6  34
BRANCH   8  37
HETATM   37  C   UNL     1      -1.089 -12.094  19.857  1.00  0.00    -0.061 C 
HETATM   38  C   UNL     1      -1.789 -11.414  20.515  1.00  0.00    -0.061 C 
BRANCH  38  39
HETATM   39  C   UNL     1      -2.616 -10.533  21.340  1.00  0.00     0.018 A 
HETATM   40  C   UNL     1      -3.992 -10.650  21.281  1.00  0.00     0.021 A 
HETATM   41  C   UNL     1      -4.773  -9.753  22.032  1.00  0.00     0.010 A 
HETATM   42  C   UNL     1      -4.108  -8.762  22.754  1.00  0.00    -0.030 A 
HETATM   43  C   UNL     1      -2.758  -8.622  22.793  1.00  0.00     0.010 A 
HETATM   44  C   UNL     1      -1.968  -9.529  22.014  1.00  0.00     0.021 A 
BRANCH  42  45
HETATM   45  C   UNL     1      -4.931  -7.793  23.626  1.00  0.00     0.311 C 
BRANCH  45  46
HETATM   46  N   UNL     1      -6.350  -8.139  23.417  1.00  0.00     0.092 N 
HETATM   47  C   UNL     1      -7.135  -7.077  22.756  1.00  0.00     0.273 C 
HETATM   48  C   UNL     1      -8.512  -7.654  22.388  1.00  0.00     0.037 C 
HETATM   49  C   UNL     1      -9.174  -8.307  23.612  1.00  0.00     0.012 C 
HETATM   50  C   UNL     1      -8.277  -9.397  24.229  1.00  0.00     0.037 C 
HETATM   51  C   UNL     1      -6.951  -8.735  24.625  1.00  0.00     0.273 C 
BRANCH  49  52
HETATM   52  C   UNL     1      -9.450  -7.220  24.653  1.00  0.00     0.168 C 
BRANCH  52  53
HETATM   53  O   UNL     1     -10.413  -6.325  24.111  1.00  0.00    -0.400 OA
ATOM     54  HO  UNL     1     -11.207  -6.398  24.629  1.00  0.00     0.209 HD
ENDBRANCH  52  53
ENDBRANCH  49  52
ENDBRANCH  45  46
ENDBRANCH  42  45
ENDBRANCH  38  39
ENDBRANCH   8  37
TORSDOF 11
ENDMDL
