MODEL 1
REMARK VINA RESULT:    -9.117      0.000      0.000
REMARK INTER + INTRA:         -11.436
REMARK INTER:                 -10.983
REMARK INTRA:                  -0.453
REMARK UNBOUND:                -0.453
REMARK  5 active torsions:
REMARK  status: ('A' for Active; 'I' for Inactive)
REMARK    1  A    between atoms: O_1  and  C_3 
REMARK    2  A    between atoms: C_3  and  CA_4 
REMARK    3  A    between atoms: C_8  and  O_9 
REMARK    4  A    between atoms: C_11  and  O_12 
REMARK    5  A    between atoms: C_14  and  C_15 
ROOT
HETATM    1  CA  UNL     1     -13.227  -6.986  -1.990  1.00  0.00     0.241 C 
HETATM    2  N   UNL     1     -13.556  -8.165  -2.816  1.00  0.00    -0.055 N 
ATOM      3  HN1 UNL     1     -12.788  -8.431  -3.433  1.00  0.00     0.278 HD
ATOM      4  HN2 UNL     1     -14.252  -7.954  -3.532  1.00  0.00     0.278 HD
HETATM    5  C   UNL     1     -14.251  -7.081  -0.860  1.00  0.00     0.182 C 
HETATM    6  C   UNL     1     -14.569  -8.581  -0.700  1.00  0.00     0.184 C 
HETATM    7  C   UNL     1     -13.973  -9.266  -1.946  1.00  0.00     0.254 C 
ENDROOT
BRANCH   7   8
HETATM    8  C   UNL     1     -12.806 -10.166  -1.693  1.00  0.00     0.019 A 
HETATM    9  C   UNL     1     -12.078 -10.316  -0.548  1.00  0.00     0.100 A 
HETATM   10  N   UNL     1     -11.002 -11.130  -0.775  1.00  0.00    -0.359 N 
HETATM   11  C   UNL     1     -11.020 -11.529  -2.090  1.00  0.00     0.128 A 
ATOM     12  HN  UNL     1     -10.303 -11.397  -0.083  1.00  0.00     0.165 HD
HETATM   13  C   UNL     1     -10.225 -12.328  -2.927  1.00  0.00     0.275 A 
HETATM   14  C   UNL     1     -12.152 -10.964  -2.703  1.00  0.00     0.075 A 
HETATM   15  O   UNL     1      -9.119 -12.810  -2.454  1.00  0.00    -0.266 OA
HETATM   16  N   UNL     1     -10.569 -12.578  -4.216  1.00  0.00    -0.318 N 
HETATM   17  C   UNL     1     -11.702 -12.022  -4.710  1.00  0.00     0.184 A 
ATOM     18  HN  UNL     1      -9.985 -13.175  -4.803  1.00  0.00     0.169 HD
HETATM   19  N   UNL     1     -12.507 -11.202  -3.991  1.00  0.00    -0.350 N 
ATOM     20  HN  UNL     1     -13.342 -10.783  -4.399  1.00  0.00     0.166 HD
ENDBRANCH   7   8
BRANCH   6  21
HETATM   21  O   UNL     1     -15.971  -8.824  -0.658  1.00  0.00    -0.390 OA
ATOM     22  HO  UNL     1     -16.179  -9.729  -0.855  1.00  0.00     0.210 HD
ENDBRANCH   6  21
BRANCH   1  23
HETATM   23  C   UNL     1     -11.773  -6.928  -1.541  1.00  0.00     0.199 C 
BRANCH  23  24
HETATM   24  O   UNL     1     -10.913  -7.183  -2.649  1.00  0.00    -0.399 OA
ATOM     25  HO  UNL     1     -11.122  -6.591  -3.363  1.00  0.00     0.209 HD
ENDBRANCH  23  24
ENDBRANCH   1  23
BRANCH   5  26
HETATM   26  O   UNL     1     -15.426  -6.328  -1.142  1.00  0.00    -0.391 OA
ATOM     27  HO  UNL     1     -15.810  -5.962  -0.354  1.00  0.00     0.210 HD
ENDBRANCH   5  26
TORSDOF 5
ENDMDL
MODEL 2
REMARK VINA RESULT:    -7.843      1.081      2.062
REMARK INTER + INTRA:          -9.902
REMARK INTER:                  -9.651
REMARK INTRA:                  -0.251
REMARK UNBOUND:                -0.453
REMARK  5 active torsions:
REMARK  status: ('A' for Active; 'I' for Inactive)
REMARK    1  A    between atoms: O_1  and  C_3 
REMARK    2  A    between atoms: C_3  and  CA_4 
REMARK    3  A    between atoms: C_8  and  O_9 
REMARK    4  A    between atoms: C_11  and  O_12 
REMARK    5  A    between atoms: C_14  and  C_15 
ROOT
HETATM    1  CA  UNL     1     -13.281  -7.241  -2.213  1.00  0.00     0.241 C 
HETATM    2  N   UNL     1     -14.020  -8.155  -3.108  1.00  0.00    -0.055 N 
ATOM      3  HN1 UNL     1     -13.625  -8.177  -4.048  1.00  0.00     0.278 HD
ATOM      4  HN2 UNL     1     -14.945  -7.797  -3.347  1.00  0.00     0.278 HD
HETATM    5  C   UNL     1     -13.702  -7.729  -0.827  1.00  0.00     0.182 C 
HETATM    6  C   UNL     1     -14.016  -9.230  -0.982  1.00  0.00     0.184 C 
HETATM    7  C   UNL     1     -14.080  -9.485  -2.501  1.00  0.00     0.254 C 
ENDROOT
BRANCH   7   8
HETATM    8  C   UNL     1     -12.985 -10.335  -3.062  1.00  0.00     0.019 A 
HETATM    9  C   UNL     1     -12.885 -10.883  -4.308  1.00  0.00     0.100 A 
HETATM   10  N   UNL     1     -11.800 -11.715  -4.373  1.00  0.00    -0.359 N 
HETATM   11  C   UNL     1     -11.169 -11.713  -3.152  1.00  0.00     0.128 A 
ATOM     12  HN  UNL     1     -11.507 -12.247  -5.191  1.00  0.00     0.165 HD
HETATM   13  C   UNL     1     -10.050 -12.338  -2.578  1.00  0.00     0.275 A 
HETATM   14  C   UNL     1     -11.868 -10.840  -2.300  1.00  0.00     0.075 A 
HETATM   15  O   UNL     1      -9.409 -13.222  -3.277  1.00  0.00    -0.266 OA
HETATM   16  N   UNL     1      -9.646 -12.062  -1.312  1.00  0.00    -0.318 N 
HETATM   17  C   UNL     1     -10.360 -11.175  -0.578  1.00  0.00     0.184 A 
ATOM     18  HN  UNL     1      -8.820 -12.516  -0.920  1.00  0.00     0.169 HD
HETATM   19  N   UNL     1     -11.479 -10.557  -1.031  1.00  0.00    -0.350 N 
ATOM     20  HN  UNL     1     -12.005  -9.910  -0.445  1.00  0.00     0.166 HD
ENDBRANCH   7   8
BRANCH   6  21
HETATM   21  O   UNL     1     -15.266  -9.574  -0.396  1.00  0.00    -0.390 OA
ATOM     22  HO  UNL     1     -15.418 -10.511  -0.412  1.00  0.00     0.210 HD
ENDBRANCH   6  21
BRANCH   1  23
HETATM   23  C   UNL     1     -11.778  -7.212  -2.458  1.00  0.00     0.199 C 
BRANCH  23  24
HETATM   24  O   UNL     1     -11.085  -7.545  -1.258  1.00  0.00    -0.399 OA
ATOM     25  HO  UNL     1     -11.636  -7.364  -0.505  1.00  0.00     0.209 HD
ENDBRANCH  23  24
ENDBRANCH   1  23
BRANCH   5  26
HETATM   26  O   UNL     1     -14.827  -7.013  -0.329  1.00  0.00    -0.391 OA
ATOM     27  HO  UNL     1     -15.173  -6.405  -0.972  1.00  0.00     0.210 HD
ENDBRANCH   5  26
TORSDOF 5
ENDMDL
MODEL 3
REMARK VINA RESULT:    -7.516      7.847      9.096
REMARK INTER + INTRA:          -9.508
REMARK INTER:                  -9.143
REMARK INTRA:                  -0.364
REMARK UNBOUND:                -0.453
REMARK  5 active torsions:
REMARK  status: ('A' for Active; 'I' for Inactive)
REMARK    1  A    between atoms: O_1  and  C_3 
REMARK    2  A    between atoms: C_3  and  CA_4 
REMARK    3  A    between atoms: C_8  and  O_9 
REMARK    4  A    between atoms: C_11  and  O_12 
REMARK    5  A    between atoms: C_14  and  C_15 
ROOT
HETATM    1  CA  UNL     1     -13.195 -13.649  -9.326  1.00  0.00     0.241 C 
HETATM    2  N   UNL     1     -12.133 -13.286  -8.365  1.00  0.00    -0.055 N 
ATOM      3  HN1 UNL     1     -11.679 -14.107  -7.964  1.00  0.00     0.278 HD
ATOM      4  HN2 UNL     1     -12.511 -12.893  -7.502  1.00  0.00     0.278 HD
HETATM    5  C   UNL     1     -13.369 -12.358 -10.125  1.00  0.00     0.182 C 
HETATM    6  C   UNL     1     -11.999 -11.651 -10.092  1.00  0.00     0.184 C 
HETATM    7  C   UNL     1     -11.179 -12.386  -9.013  1.00  0.00     0.254 C 
ENDROOT
BRANCH   7   8
HETATM    8  C   UNL     1     -10.014 -13.177  -9.514  1.00  0.00     0.019 A 
HETATM    9  C   UNL     1      -9.669 -13.463 -10.804  1.00  0.00     0.100 A 
HETATM   10  N   UNL     1      -8.617 -14.338 -10.828  1.00  0.00    -0.359 N 
HETATM   11  C   UNL     1      -8.257 -14.632  -9.536  1.00  0.00     0.128 A 
ATOM     12  HN  UNL     1      -8.173 -14.709 -11.668  1.00  0.00     0.165 HD
HETATM   13  C   UNL     1      -7.300 -15.439  -8.899  1.00  0.00     0.275 A 
HETATM   14  C   UNL     1      -9.095 -13.906  -8.672  1.00  0.00     0.075 A 
HETATM   15  O   UNL     1      -6.550 -16.203  -9.630  1.00  0.00    -0.266 OA
HETATM   16  N   UNL     1      -7.164 -15.459  -7.549  1.00  0.00    -0.318 N 
HETATM   17  C   UNL     1      -7.992 -14.694  -6.797  1.00  0.00     0.184 A 
ATOM     18  HN  UNL     1      -6.450 -16.041  -7.107  1.00  0.00     0.169 HD
HETATM   19  N   UNL     1      -8.974 -13.919  -7.321  1.00  0.00    -0.350 N 
ATOM     20  HN  UNL     1      -9.594 -13.370  -6.725  1.00  0.00     0.166 HD
ENDBRANCH   7   8
BRANCH   6  21
HETATM   21  O   UNL     1     -12.121 -10.279  -9.734  1.00  0.00    -0.390 OA
ATOM     22  HO  UNL     1     -11.295  -9.917  -9.435  1.00  0.00     0.210 HD
ENDBRANCH   6  21
BRANCH   1  23
HETATM   23  C   UNL     1     -12.884 -14.887 -10.156  1.00  0.00     0.199 C 
BRANCH  23  24
HETATM   24  O   UNL     1     -13.912 -15.859  -9.981  1.00  0.00    -0.399 OA
ATOM     25  HO  UNL     1     -13.569 -16.611  -9.511  1.00  0.00     0.209 HD
ENDBRANCH  23  24
ENDBRANCH   1  23
BRANCH   5  26
HETATM   26  O   UNL     1     -14.393 -11.531  -9.585  1.00  0.00    -0.391 OA
ATOM     27  HO  UNL     1     -14.062 -10.681  -9.322  1.00  0.00     0.210 HD
ENDBRANCH   5  26
TORSDOF 5
ENDMDL
MODEL 4
REMARK VINA RESULT:    -7.291      6.633      8.064
REMARK INTER + INTRA:          -9.237
REMARK INTER:                  -9.054
REMARK INTRA:                  -0.183
REMARK UNBOUND:                -0.453
REMARK  5 active torsions:
REMARK  status: ('A' for Active; 'I' for Inactive)
REMARK    1  A    between atoms: O_1  and  C_3 
REMARK    2  A    between atoms: C_3  and  CA_4 
REMARK    3  A    between atoms: C_8  and  O_9 
REMARK    4  A    between atoms: C_11  and  O_12 
REMARK    5  A    between atoms: C_14  and  C_15 
ROOT
HETATM    1  CA  UNL     1     -13.795 -12.886  -8.988  1.00  0.00     0.241 C 
HETATM    2  N   UNL     1     -13.288 -12.169  -7.800  1.00  0.00    -0.055 N 
ATOM      3  HN1 UNL     1     -13.248 -12.769  -6.976  1.00  0.00     0.278 HD
ATOM      4  HN2 UNL     1     -13.958 -11.484  -7.448  1.00  0.00     0.278 HD
HETATM    5  C   UNL     1     -13.314 -11.998 -10.136  1.00  0.00     0.182 C 
HETATM    6  C   UNL     1     -12.030 -11.310  -9.631  1.00  0.00     0.184 C 
HETATM    7  C   UNL     1     -11.991 -11.568  -8.112  1.00  0.00     0.254 C 
ENDROOT
BRANCH   7   8
HETATM    8  C   UNL     1     -10.900 -12.473  -7.636  1.00  0.00     0.019 A 
HETATM    9  C   UNL     1     -10.438 -12.657  -6.365  1.00  0.00     0.100 A 
HETATM   10  N   UNL     1      -9.331 -13.461  -6.376  1.00  0.00    -0.359 N 
HETATM   11  C   UNL     1      -9.058 -13.819  -7.674  1.00  0.00     0.128 A 
ATOM     12  HN  UNL     1      -8.797 -13.748  -5.556  1.00  0.00     0.165 HD
HETATM   13  C   UNL     1      -8.092 -14.589  -8.340  1.00  0.00     0.275 A 
HETATM   14  C   UNL     1     -10.034 -13.238  -8.502  1.00  0.00     0.075 A 
HETATM   15  O   UNL     1      -7.111 -15.083  -7.651  1.00  0.00    -0.266 OA
HETATM   16  N   UNL     1      -8.143 -14.800  -9.680  1.00  0.00    -0.318 N 
HETATM   17  C   UNL     1      -9.146 -14.232 -10.393  1.00  0.00     0.184 A 
ATOM     18  HN  UNL     1      -7.439 -15.377 -10.143  1.00  0.00     0.169 HD
HETATM   19  N   UNL     1     -10.097 -13.437  -9.843  1.00  0.00    -0.350 N 
ATOM     20  HN  UNL     1     -10.826 -13.007 -10.412  1.00  0.00     0.166 HD
ENDBRANCH   7   8
BRANCH   6  21
HETATM   21  O   UNL     1     -12.052  -9.907  -9.867  1.00  0.00    -0.390 OA
ATOM     22  HO  UNL     1     -12.247  -9.418  -9.077  1.00  0.00     0.210 HD
ENDBRANCH   6  21
BRANCH   1  23
HETATM   23  C   UNL     1     -13.355 -14.341  -9.070  1.00  0.00     0.199 C 
BRANCH  23  24
HETATM   24  O   UNL     1     -12.750 -14.594 -10.336  1.00  0.00    -0.399 OA
ATOM     25  HO  UNL     1     -11.982 -14.045 -10.443  1.00  0.00     0.209 HD
ENDBRANCH  23  24
ENDBRANCH   1  23
BRANCH   5  26
HETATM   26  O   UNL     1     -14.298 -11.043 -10.518  1.00  0.00    -0.391 OA
ATOM     27  HO  UNL     1     -14.050 -10.160 -10.271  1.00  0.00     0.210 HD
ENDBRANCH   5  26
TORSDOF 5
ENDMDL
MODEL 5
REMARK VINA RESULT:    -7.160      1.986      5.499
REMARK INTER + INTRA:          -9.078
REMARK INTER:                  -9.050
REMARK INTRA:                  -0.029
REMARK UNBOUND:                -0.453
REMARK  5 active torsions:
REMARK  status: ('A' for Active; 'I' for Inactive)
REMARK    1  A    between atoms: O_1  and  C_3 
REMARK    2  A    between atoms: C_3  and  CA_4 
REMARK    3  A    between atoms: C_8  and  O_9 
REMARK    4  A    between atoms: C_11  and  O_12 
REMARK    5  A    between atoms: C_14  and  C_15 
ROOT
HETATM    1  CA  UNL     1      -9.576 -12.377  -2.039  1.00  0.00     0.241 C 
HETATM    2  N   UNL     1     -10.955 -12.881  -1.876  1.00  0.00    -0.055 N 
ATOM      3  HN1 UNL     1     -11.246 -12.897  -0.898  1.00  0.00     0.278 HD
ATOM      4  HN2 UNL     1     -11.025 -13.881  -2.065  1.00  0.00     0.278 HD
HETATM    5  C   UNL     1      -9.543 -11.983  -3.516  1.00  0.00     0.182 C 
HETATM    6  C   UNL     1     -10.991 -11.600  -3.884  1.00  0.00     0.184 C 
HETATM    7  C   UNL     1     -11.861 -12.093  -2.711  1.00  0.00     0.254 C 
ENDROOT
BRANCH   7   8
HETATM    8  C   UNL     1     -12.494 -11.022  -1.881  1.00  0.00     0.019 A 
HETATM    9  C   UNL     1     -12.388 -10.812  -0.536  1.00  0.00     0.100 A 
HETATM   10  N   UNL     1     -13.240  -9.815  -0.145  1.00  0.00    -0.359 N 
HETATM   11  C   UNL     1     -13.917  -9.355  -1.248  1.00  0.00     0.128 A 
ATOM     12  HN  UNL     1     -13.353  -9.471   0.808  1.00  0.00     0.165 HD
HETATM   13  C   UNL     1     -14.900  -8.388  -1.515  1.00  0.00     0.275 A 
HETATM   14  C   UNL     1     -13.463 -10.070  -2.370  1.00  0.00     0.075 A 
HETATM   15  O   UNL     1     -15.428  -7.751  -0.517  1.00  0.00    -0.266 OA
HETATM   16  N   UNL     1     -15.328  -8.131  -2.777  1.00  0.00    -0.318 N 
HETATM   17  C   UNL     1     -14.803  -8.844  -3.803  1.00  0.00     0.184 A 
ATOM     18  HN  UNL     1     -16.032  -7.413  -2.951  1.00  0.00     0.169 HD
HETATM   19  N   UNL     1     -13.884  -9.827  -3.637  1.00  0.00    -0.350 N 
ATOM     20  HN  UNL     1     -13.524 -10.360  -4.429  1.00  0.00     0.166 HD
ENDBRANCH   7   8
BRANCH   6  21
HETATM   21  O   UNL     1     -11.418 -12.236  -5.083  1.00  0.00    -0.390 OA
ATOM     22  HO  UNL     1     -11.064 -13.114  -5.164  1.00  0.00     0.210 HD
ENDBRANCH   6  21
BRANCH   1  23
HETATM   23  C   UNL     1      -9.200 -11.268  -1.066  1.00  0.00     0.199 C 
BRANCH  23  24
HETATM   24  O   UNL     1      -7.781 -11.141  -1.000  1.00  0.00    -0.399 OA
ATOM     25  HO  UNL     1      -7.546 -10.467  -0.373  1.00  0.00     0.209 HD
ENDBRANCH  23  24
ENDBRANCH   1  23
BRANCH   5  26
HETATM   26  O   UNL     1      -9.061 -13.040  -4.339  1.00  0.00    -0.391 OA
ATOM     27  HO  UNL     1      -9.580 -13.829  -4.244  1.00  0.00     0.210 HD
ENDBRANCH   5  26
TORSDOF 5
ENDMDL
MODEL 6
REMARK VINA RESULT:    -7.119      4.955      7.604
REMARK INTER + INTRA:          -9.029
REMARK INTER:                  -8.807
REMARK INTRA:                  -0.223
REMARK UNBOUND:                -0.453
REMARK  5 active torsions:
REMARK  status: ('A' for Active; 'I' for Inactive)
REMARK    1  A    between atoms: O_1  and  C_3 
REMARK    2  A    between atoms: C_3  and  CA_4 
REMARK    3  A    between atoms: C_8  and  O_9 
REMARK    4  A    between atoms: C_11  and  O_12 
REMARK    5  A    between atoms: C_14  and  C_15 
ROOT
HETATM    1  CA  UNL     1     -13.583 -13.224  -9.695  1.00  0.00     0.241 C 
HETATM    2  N   UNL     1     -13.621 -12.522  -8.396  1.00  0.00    -0.055 N 
ATOM      3  HN1 UNL     1     -13.613 -13.168  -7.607  1.00  0.00     0.278 HD
ATOM      4  HN2 UNL     1     -14.527 -12.088  -8.218  1.00  0.00     0.278 HD
HETATM    5  C   UNL     1     -13.115 -12.125 -10.648  1.00  0.00     0.182 C 
HETATM    6  C   UNL     1     -12.257 -11.165  -9.801  1.00  0.00     0.184 C 
HETATM    7  C   UNL     1     -12.523 -11.557  -8.333  1.00  0.00     0.254 C 
ENDROOT
BRANCH   7   8
HETATM    8  C   UNL     1     -11.367 -12.169  -7.608  1.00  0.00     0.019 A 
HETATM    9  C   UNL     1     -10.288 -12.826  -8.124  1.00  0.00     0.100 A 
HETATM   10  N   UNL     1      -9.534 -13.361  -7.116  1.00  0.00    -0.359 N 
HETATM   11  C   UNL     1     -10.120 -13.050  -5.912  1.00  0.00     0.128 A 
ATOM     12  HN  UNL     1      -8.678 -13.901  -7.237  1.00  0.00     0.165 HD
HETATM   13  C   UNL     1      -9.862 -13.297  -4.555  1.00  0.00     0.275 A 
HETATM   14  C   UNL     1     -11.267 -12.279  -6.172  1.00  0.00     0.075 A 
HETATM   15  O   UNL     1      -8.871 -14.073  -4.245  1.00  0.00    -0.266 OA
HETATM   16  N   UNL     1     -10.637 -12.774  -3.571  1.00  0.00    -0.318 N 
HETATM   17  C   UNL     1     -11.701 -12.008  -3.916  1.00  0.00     0.184 A 
ATOM     18  HN  UNL     1     -10.423 -12.954  -2.590  1.00  0.00     0.169 HD
HETATM   19  N   UNL     1     -12.054 -11.752  -5.200  1.00  0.00    -0.350 N 
ATOM     20  HN  UNL     1     -12.873 -11.189  -5.425  1.00  0.00     0.166 HD
ENDBRANCH   7   8
BRANCH   6  21
HETATM   21  O   UNL     1     -12.630  -9.806  -9.998  1.00  0.00    -0.390 OA
ATOM     22  HO  UNL     1     -12.187  -9.226  -9.389  1.00  0.00     0.210 HD
ENDBRANCH   6  21
BRANCH   1  23
HETATM   23  C   UNL     1     -12.730 -14.485  -9.694  1.00  0.00     0.199 C 
BRANCH  23  24
HETATM   24  O   UNL     1     -13.549 -15.625  -9.945  1.00  0.00    -0.399 OA
ATOM     25  HO  UNL     1     -14.091 -15.472 -10.710  1.00  0.00     0.209 HD
ENDBRANCH  23  24
ENDBRANCH   1  23
BRANCH   5  26
HETATM   26  O   UNL     1     -14.208 -11.445 -11.255  1.00  0.00    -0.391 OA
ATOM     27  HO  UNL     1     -14.505 -11.882 -12.044  1.00  0.00     0.210 HD
ENDBRANCH   5  26
TORSDOF 5
ENDMDL
MODEL 7
REMARK VINA RESULT:    -7.050      2.812      3.572
REMARK INTER + INTRA:          -8.946
REMARK INTER:                  -8.669
REMARK INTRA:                  -0.277
REMARK UNBOUND:                -0.453
REMARK  5 active torsions:
REMARK  status: ('A' for Active; 'I' for Inactive)
REMARK    1  A    between atoms: O_1  and  C_3 
REMARK    2  A    between atoms: C_3  and  CA_4 
REMARK    3  A    between atoms: C_8  and  O_9 
REMARK    4  A    between atoms: C_11  and  O_12 
REMARK    5  A    between atoms: C_14  and  C_15 
ROOT
HETATM    1  CA  UNL     1     -12.819  -7.219  -1.652  1.00  0.00     0.241 C 
HETATM    2  N   UNL     1     -13.871  -7.160  -2.688  1.00  0.00    -0.055 N 
ATOM      3  HN1 UNL     1     -13.482  -7.139  -3.631  1.00  0.00     0.278 HD
ATOM      4  HN2 UNL     1     -14.345  -6.257  -2.705  1.00  0.00     0.278 HD
HETATM    5  C   UNL     1     -13.588  -7.729  -0.433  1.00  0.00     0.182 C 
HETATM    6  C   UNL     1     -14.746  -8.581  -0.988  1.00  0.00     0.184 C 
HETATM    7  C   UNL     1     -14.802  -8.273  -2.498  1.00  0.00     0.254 C 
ENDROOT
BRANCH   7   8
HETATM    8  C   UNL     1     -14.418  -9.399  -3.403  1.00  0.00     0.019 A 
HETATM    9  C   UNL     1     -13.581 -10.448  -3.151  1.00  0.00     0.100 A 
HETATM   10  N   UNL     1     -13.382 -11.177  -4.291  1.00  0.00    -0.359 N 
HETATM   11  C   UNL     1     -14.101 -10.606  -5.313  1.00  0.00     0.128 A 
ATOM     12  HN  UNL     1     -12.796 -12.008  -4.370  1.00  0.00     0.165 HD
HETATM   13  C   UNL     1     -14.309 -10.852  -6.679  1.00  0.00     0.275 A 
HETATM   14  C   UNL     1     -14.789  -9.495  -4.795  1.00  0.00     0.075 A 
HETATM   15  O   UNL     1     -13.639 -11.808  -7.245  1.00  0.00    -0.266 OA
HETATM   16  N   UNL     1     -15.163 -10.102  -7.421  1.00  0.00    -0.318 N 
HETATM   17  C   UNL     1     -15.814  -9.074  -6.825  1.00  0.00     0.184 A 
ATOM     18  HN  UNL     1     -15.312 -10.308  -8.409  1.00  0.00     0.169 HD
HETATM   19  N   UNL     1     -15.643  -8.733  -5.524  1.00  0.00    -0.350 N 
ATOM     20  HN  UNL     1     -16.133  -7.940  -5.112  1.00  0.00     0.166 HD
ENDBRANCH   7   8
BRANCH   6  21
HETATM   21  O   UNL     1     -15.992  -8.236  -0.393  1.00  0.00    -0.390 OA
ATOM     22  HO  UNL     1     -16.442  -8.997  -0.048  1.00  0.00     0.210 HD
ENDBRANCH   6  21
BRANCH   1  23
HETATM   23  C   UNL     1     -11.606  -8.051  -2.044  1.00  0.00     0.199 C 
BRANCH  23  24
HETATM   24  O   UNL     1     -11.263  -7.796  -3.404  1.00  0.00    -0.399 OA
ATOM     25  HO  UNL     1     -10.402  -8.151  -3.593  1.00  0.00     0.209 HD
ENDBRANCH  23  24
ENDBRANCH   1  23
BRANCH   5  26
HETATM   26  O   UNL     1     -14.071  -6.662   0.376  1.00  0.00    -0.391 OA
ATOM     27  HO  UNL     1     -13.364  -6.145   0.742  1.00  0.00     0.210 HD
ENDBRANCH   5  26
TORSDOF 5
ENDMDL
MODEL 8
REMARK VINA RESULT:    -6.945      1.384      1.578
REMARK INTER + INTRA:          -8.820
REMARK INTER:                  -8.480
REMARK INTRA:                  -0.339
REMARK UNBOUND:                -0.453
REMARK  5 active torsions:
REMARK  status: ('A' for Active; 'I' for Inactive)
REMARK    1  A    between atoms: O_1  and  C_3 
REMARK    2  A    between atoms: C_3  and  CA_4 
REMARK    3  A    between atoms: C_8  and  O_9 
REMARK    4  A    between atoms: C_11  and  O_12 
REMARK    5  A    between atoms: C_14  and  C_15 
ROOT
HETATM    1  CA  UNL     1     -13.191  -7.314  -2.096  1.00  0.00     0.241 C 
HETATM    2  N   UNL     1     -13.869  -8.241  -3.025  1.00  0.00    -0.055 N 
ATOM      3  HN1 UNL     1     -13.357  -8.354  -3.899  1.00  0.00     0.278 HD
ATOM      4  HN2 UNL     1     -14.727  -7.845  -3.408  1.00  0.00     0.278 HD
HETATM    5  C   UNL     1     -13.823  -7.675  -0.752  1.00  0.00     0.182 C 
HETATM    6  C   UNL     1     -14.219  -9.161  -0.855  1.00  0.00     0.184 C 
HETATM    7  C   UNL     1     -14.102  -9.519  -2.350  1.00  0.00     0.254 C 
ENDROOT
BRANCH   7   8
HETATM    8  C   UNL     1     -13.005 -10.472  -2.703  1.00  0.00     0.019 A 
HETATM    9  C   UNL     1     -11.929 -10.849  -1.952  1.00  0.00     0.100 A 
HETATM   10  N   UNL     1     -11.083 -11.625  -2.695  1.00  0.00    -0.359 N 
HETATM   11  C   UNL     1     -11.608 -11.769  -3.957  1.00  0.00     0.128 A 
ATOM     12  HN  UNL     1     -10.207 -12.031  -2.368  1.00  0.00     0.165 HD
HETATM   13  C   UNL     1     -11.241 -12.409  -5.151  1.00  0.00     0.275 A 
HETATM   14  C   UNL     1     -12.831 -11.077  -4.002  1.00  0.00     0.075 A 
HETATM   15  O   UNL     1     -10.085 -12.993  -5.210  1.00  0.00    -0.266 OA
HETATM   16  N   UNL     1     -12.047 -12.405  -6.244  1.00  0.00    -0.318 N 
HETATM   17  C   UNL     1     -13.228 -11.745  -6.181  1.00  0.00     0.184 A 
ATOM     18  HN  UNL     1     -11.767 -12.891  -7.097  1.00  0.00     0.169 HD
HETATM   19  N   UNL     1     -13.646 -11.061  -5.087  1.00  0.00    -0.350 N 
ATOM     20  HN  UNL     1     -14.532 -10.557  -5.080  1.00  0.00     0.166 HD
ENDBRANCH   7   8
BRANCH   6  21
HETATM   21  O   UNL     1     -15.556  -9.385  -0.423  1.00  0.00    -0.390 OA
ATOM     22  HO  UNL     1     -15.682  -9.131   0.483  1.00  0.00     0.210 HD
ENDBRANCH   6  21
BRANCH   1  23
HETATM   23  C   UNL     1     -11.671  -7.394  -2.137  1.00  0.00     0.199 C 
BRANCH  23  24
HETATM   24  O   UNL     1     -11.108  -6.290  -1.432  1.00  0.00    -0.399 OA
ATOM     25  HO  UNL     1     -11.763  -5.610  -1.321  1.00  0.00     0.209 HD
ENDBRANCH  23  24
ENDBRANCH   1  23
BRANCH   5  26
HETATM   26  O   UNL     1     -14.951  -6.857  -0.457  1.00  0.00    -0.391 OA
ATOM     27  HO  UNL     1     -15.473  -7.214   0.251  1.00  0.00     0.210 HD
ENDBRANCH   5  26
TORSDOF 5
ENDMDL
MODEL 9
REMARK VINA RESULT:    -6.681      8.117      9.909
REMARK INTER + INTRA:          -8.501
REMARK INTER:                  -8.139
REMARK INTRA:                  -0.362
REMARK UNBOUND:                -0.453
REMARK  5 active torsions:
REMARK  status: ('A' for Active; 'I' for Inactive)
REMARK    1  A    between atoms: O_1  and  C_3 
REMARK    2  A    between atoms: C_3  and  CA_4 
REMARK    3  A    between atoms: C_8  and  O_9 
REMARK    4  A    between atoms: C_11  and  O_12 
REMARK    5  A    between atoms: C_14  and  C_15 
ROOT
HETATM    1  CA  UNL     1     -13.318 -11.643  -9.903  1.00  0.00     0.241 C 
HETATM    2  N   UNL     1     -13.239 -12.670 -10.962  1.00  0.00    -0.055 N 
ATOM      3  HN1 UNL     1     -12.799 -12.316 -11.811  1.00  0.00     0.278 HD
ATOM      4  HN2 UNL     1     -14.155 -12.891 -11.354  1.00  0.00     0.278 HD
HETATM    5  C   UNL     1     -13.526 -12.485  -8.645  1.00  0.00     0.182 C 
HETATM    6  C   UNL     1     -12.849 -13.842  -8.925  1.00  0.00     0.184 C 
HETATM    7  C   UNL     1     -12.560 -13.856 -10.439  1.00  0.00     0.254 C 
ENDROOT
BRANCH   7   8
HETATM    8  C   UNL     1     -11.115 -13.808 -10.821  1.00  0.00     0.019 A 
HETATM    9  C   UNL     1     -10.027 -13.614 -10.019  1.00  0.00     0.100 A 
HETATM   10  N   UNL     1      -8.896 -13.490 -10.780  1.00  0.00    -0.359 N 
HETATM   11  C   UNL     1      -9.239 -13.609 -12.105  1.00  0.00     0.128 A 
ATOM     12  HN  UNL     1      -7.954 -13.336 -10.422  1.00  0.00     0.165 HD
HETATM   13  C   UNL     1      -8.575 -13.567 -13.341  1.00  0.00     0.275 A 
HETATM   14  C   UNL     1     -10.625 -13.833 -12.179  1.00  0.00     0.075 A 
HETATM   15  O   UNL     1      -7.311 -13.278 -13.355  1.00  0.00    -0.266 OA
HETATM   16  N   UNL     1      -9.224 -13.790 -14.512  1.00  0.00    -0.318 N 
HETATM   17  C   UNL     1     -10.556 -14.038 -14.482  1.00  0.00     0.184 A 
ATOM     18  HN  UNL     1      -8.719 -13.771 -15.398  1.00  0.00     0.169 HD
HETATM   19  N   UNL     1     -11.289 -14.053 -13.341  1.00  0.00    -0.350 N 
ATOM     20  HN  UNL     1     -12.295 -14.223 -13.356  1.00  0.00     0.166 HD
ENDBRANCH   7   8
BRANCH   6  21
HETATM   21  O   UNL     1     -13.700 -14.935  -8.600  1.00  0.00    -0.390 OA
ATOM     22  HO  UNL     1     -14.618 -14.697  -8.653  1.00  0.00     0.210 HD
ENDBRANCH   6  21
BRANCH   1  23
HETATM   23  C   UNL     1     -12.121 -10.703  -9.860  1.00  0.00     0.199 C 
BRANCH  23  24
HETATM   24  O   UNL     1     -12.527  -9.385 -10.222  1.00  0.00    -0.399 OA
ATOM     25  HO  UNL     1     -12.433  -9.263 -11.159  1.00  0.00     0.209 HD
ENDBRANCH  23  24
ENDBRANCH   1  23
BRANCH   5  26
HETATM   26  O   UNL     1     -14.906 -12.648  -8.336  1.00  0.00    -0.391 OA
ATOM     27  HO  UNL     1     -15.035 -13.016  -7.470  1.00  0.00     0.210 HD
ENDBRANCH   5  26
TORSDOF 5
ENDMDL
MODEL 10
REMARK VINA RESULT:    -6.679      3.031      6.255
REMARK INTER + INTRA:          -8.499
REMARK INTER:                  -8.943
REMARK INTRA:                   0.443
REMARK UNBOUND:                -0.453
REMARK  5 active torsions:
REMARK  status: ('A' for Active; 'I' for Inactive)
REMARK    1  A    between atoms: O_1  and  C_3 
REMARK    2  A    between atoms: C_3  and  CA_4 
REMARK    3  A    between atoms: C_8  and  O_9 
REMARK    4  A    between atoms: C_11  and  O_12 
REMARK    5  A    between atoms: C_14  and  C_15 
ROOT
HETATM    1  CA  UNL     1     -10.790 -11.979  -6.750  1.00  0.00     0.241 C 
HETATM    2  N   UNL     1     -10.072 -11.228  -5.700  1.00  0.00    -0.055 N 
ATOM      3  HN1 UNL     1     -10.525 -10.341  -5.482  1.00  0.00     0.278 HD
ATOM      4  HN2 UNL     1      -9.181 -10.858  -6.032  1.00  0.00     0.278 HD
HETATM    5  C   UNL     1     -10.259 -13.400  -6.558  1.00  0.00     0.182 C 
HETATM    6  C   UNL     1      -9.891 -13.517  -5.065  1.00  0.00     0.184 C 
HETATM    7  C   UNL     1      -9.914 -12.076  -4.518  1.00  0.00     0.254 C 
ENDROOT
BRANCH   7   8
HETATM    8  C   UNL     1     -11.005 -11.771  -3.542  1.00  0.00     0.019 A 
HETATM    9  C   UNL     1     -12.293 -11.392  -3.794  1.00  0.00     0.100 A 
HETATM   10  N   UNL     1     -12.926 -11.068  -2.625  1.00  0.00    -0.359 N 
HETATM   11  C   UNL     1     -12.047 -11.239  -1.583  1.00  0.00     0.128 A 
ATOM     12  HN  UNL     1     -13.892 -10.751  -2.542  1.00  0.00     0.165 HD
HETATM   13  C   UNL     1     -12.069 -11.075  -0.190  1.00  0.00     0.275 A 
HETATM   14  C   UNL     1     -10.830 -11.703  -2.111  1.00  0.00     0.075 A 
HETATM   15  O   UNL     1     -13.130 -10.567   0.357  1.00  0.00    -0.266 OA
HETATM   16  N   UNL     1     -11.006 -11.403   0.588  1.00  0.00    -0.318 N 
HETATM   17  C   UNL     1      -9.887 -11.883  -0.006  1.00  0.00     0.184 A 
ATOM     18  HN  UNL     1     -11.049 -11.291   1.602  1.00  0.00     0.169 HD
HETATM   19  N   UNL     1      -9.757 -12.032  -1.348  1.00  0.00    -0.350 N 
ATOM     20  HN  UNL     1      -8.892 -12.377  -1.764  1.00  0.00     0.166 HD
ENDBRANCH   7   8
BRANCH   6  21
HETATM   21  O   UNL     1      -8.592 -14.067  -4.881  1.00  0.00    -0.390 OA
ATOM     22  HO  UNL     1      -8.201 -14.333  -5.705  1.00  0.00     0.210 HD
ENDBRANCH   6  21
BRANCH   1  23
HETATM   23  C   UNL     1     -12.305 -11.842  -6.685  1.00  0.00     0.199 C 
BRANCH  23  24
HETATM   24  O   UNL     1     -12.840 -11.752  -8.004  1.00  0.00    -0.399 OA
ATOM     25  HO  UNL     1     -13.350 -12.530  -8.199  1.00  0.00     0.209 HD
ENDBRANCH  23  24
ENDBRANCH   1  23
BRANCH   5  26
HETATM   26  O   UNL     1      -9.137 -13.666  -7.391  1.00  0.00    -0.391 OA
ATOM     27  HO  UNL     1      -8.502 -12.960  -7.367  1.00  0.00     0.210 HD
ENDBRANCH   5  26
TORSDOF 5
ENDMDL
MODEL 11
REMARK VINA RESULT:    -6.606      1.723      2.845
REMARK INTER + INTRA:          -8.411
REMARK INTER:                  -8.707
REMARK INTRA:                   0.296
REMARK UNBOUND:                -0.453
REMARK  5 active torsions:
REMARK  status: ('A' for Active; 'I' for Inactive)
REMARK    1  A    between atoms: O_1  and  C_3 
REMARK    2  A    between atoms: C_3  and  CA_4 
REMARK    3  A    between atoms: C_8  and  O_9 
REMARK    4  A    between atoms: C_11  and  O_12 
REMARK    5  A    between atoms: C_14  and  C_15 
ROOT
HETATM    1  CA  UNL     1     -15.314  -8.327  -2.646  1.00  0.00     0.241 C 
HETATM    2  N   UNL     1     -15.011  -9.455  -1.742  1.00  0.00    -0.055 N 
ATOM      3  HN1 UNL     1     -15.180 -10.359  -2.182  1.00  0.00     0.278 HD
ATOM      4  HN2 UNL     1     -15.689  -9.533  -0.983  1.00  0.00     0.278 HD
HETATM    5  C   UNL     1     -14.550  -7.172  -1.998  1.00  0.00     0.182 C 
HETATM    6  C   UNL     1     -13.351  -7.812  -1.270  1.00  0.00     0.184 C 
HETATM    7  C   UNL     1     -13.640  -9.326  -1.248  1.00  0.00     0.254 C 
ENDROOT
BRANCH   7   8
HETATM    8  C   UNL     1     -12.732 -10.170  -2.085  1.00  0.00     0.019 A 
HETATM    9  C   UNL     1     -12.931 -10.639  -3.351  1.00  0.00     0.100 A 
HETATM   10  N   UNL     1     -11.924 -11.496  -3.702  1.00  0.00    -0.359 N 
HETATM   11  C   UNL     1     -11.041 -11.593  -2.653  1.00  0.00     0.128 A 
ATOM     12  HN  UNL     1     -11.842 -11.983  -4.594  1.00  0.00     0.165 HD
HETATM   13  C   UNL     1      -9.852 -12.286  -2.378  1.00  0.00     0.275 A 
HETATM   14  C   UNL     1     -11.497 -10.756  -1.620  1.00  0.00     0.075 A 
HETATM   15  O   UNL     1      -9.418 -13.141  -3.251  1.00  0.00    -0.266 OA
HETATM   16  N   UNL     1      -9.168 -12.105  -1.220  1.00  0.00    -0.318 N 
HETATM   17  C   UNL     1      -9.664 -11.246  -0.296  1.00  0.00     0.184 A 
ATOM     18  HN  UNL     1      -8.297 -12.607  -1.047  1.00  0.00     0.169 HD
HETATM   19  N   UNL     1     -10.828 -10.568  -0.455  1.00  0.00    -0.350 N 
ATOM     20  HN  UNL     1     -11.183  -9.944   0.270  1.00  0.00     0.166 HD
ENDBRANCH   7   8
BRANCH   6  21
HETATM   21  O   UNL     1     -13.229  -7.339   0.066  1.00  0.00    -0.390 OA
ATOM     22  HO  UNL     1     -12.552  -7.803   0.545  1.00  0.00     0.210 HD
ENDBRANCH   6  21
BRANCH   1  23
HETATM   23  C   UNL     1     -14.967  -8.591  -4.105  1.00  0.00     0.199 C 
BRANCH  23  24
HETATM   24  O   UNL     1     -16.101  -9.129  -4.783  1.00  0.00    -0.399 OA
ATOM     25  HO  UNL     1     -16.873  -8.613  -4.582  1.00  0.00     0.209 HD
ENDBRANCH  23  24
ENDBRANCH   1  23
BRANCH   5  26
HETATM   26  O   UNL     1     -15.368  -6.432  -1.098  1.00  0.00    -0.391 OA
ATOM     27  HO  UNL     1     -15.620  -6.947  -0.341  1.00  0.00     0.210 HD
ENDBRANCH   5  26
TORSDOF 5
ENDMDL
MODEL 12
REMARK VINA RESULT:    -6.584      6.863      9.939
REMARK INTER + INTRA:          -8.384
REMARK INTER:                  -8.120
REMARK INTRA:                  -0.264
REMARK UNBOUND:                -0.453
REMARK  5 active torsions:
REMARK  status: ('A' for Active; 'I' for Inactive)
REMARK    1  A    between atoms: O_1  and  C_3 
REMARK    2  A    between atoms: C_3  and  CA_4 
REMARK    3  A    between atoms: C_8  and  O_9 
REMARK    4  A    between atoms: C_11  and  O_12 
REMARK    5  A    between atoms: C_14  and  C_15 
ROOT
HETATM    1  CA  UNL     1      -9.775 -15.320 -10.515  1.00  0.00     0.241 C 
HETATM    2  N   UNL     1      -9.565 -13.859 -10.569  1.00  0.00    -0.055 N 
ATOM      3  HN1 UNL     1     -10.328 -13.377 -11.043  1.00  0.00     0.278 HD
ATOM      4  HN2 UNL     1      -8.812 -13.601 -11.207  1.00  0.00     0.278 HD
HETATM    5  C   UNL     1      -8.831 -15.746  -9.391  1.00  0.00     0.182 C 
HETATM    6  C   UNL     1      -8.724 -14.534  -8.444  1.00  0.00     0.184 C 
HETATM    7  C   UNL     1      -9.343 -13.351  -9.215  1.00  0.00     0.254 C 
ENDROOT
BRANCH   7   8
HETATM    8  C   UNL     1     -10.631 -12.824  -8.667  1.00  0.00     0.019 A 
HETATM    9  C   UNL     1     -11.075 -12.834  -7.376  1.00  0.00     0.100 A 
HETATM   10  N   UNL     1     -12.367 -12.389  -7.318  1.00  0.00    -0.359 N 
HETATM   11  C   UNL     1     -12.784 -12.075  -8.589  1.00  0.00     0.128 A 
ATOM     12  HN  UNL     1     -12.929 -12.304  -6.471  1.00  0.00     0.165 HD
HETATM   13  C   UNL     1     -13.958 -11.594  -9.191  1.00  0.00     0.275 A 
HETATM   14  C   UNL     1     -11.715 -12.311  -9.471  1.00  0.00     0.075 A 
HETATM   15  O   UNL     1     -15.012 -11.436  -8.453  1.00  0.00    -0.266 OA
HETATM   16  N   UNL     1     -14.023 -11.324 -10.520  1.00  0.00    -0.318 N 
HETATM   17  C   UNL     1     -12.927 -11.545 -11.286  1.00  0.00     0.184 A 
ATOM     18  HN  UNL     1     -14.882 -10.960 -10.934  1.00  0.00     0.169 HD
HETATM   19  N   UNL     1     -11.766 -12.049 -10.801  1.00  0.00    -0.350 N 
ATOM     20  HN  UNL     1     -10.966 -12.224 -11.409  1.00  0.00     0.166 HD
ENDBRANCH   7   8
BRANCH   6  21
HETATM   21  O   UNL     1      -7.372 -14.229  -8.125  1.00  0.00    -0.390 OA
ATOM     22  HO  UNL     1      -7.160 -13.322  -8.314  1.00  0.00     0.210 HD
ENDBRANCH   6  21
BRANCH   1  23
HETATM   23  C   UNL     1     -11.229 -15.732 -10.328  1.00  0.00     0.199 C 
BRANCH  23  24
HETATM   24  O   UNL     1     -12.024 -15.194 -11.382  1.00  0.00    -0.399 OA
ATOM     25  HO  UNL     1     -11.983 -15.765 -12.141  1.00  0.00     0.209 HD
ENDBRANCH  23  24
ENDBRANCH   1  23
BRANCH   5  26
HETATM   26  O   UNL     1      -7.553 -16.132  -9.886  1.00  0.00    -0.391 OA
ATOM     27  HO  UNL     1      -6.883 -16.081  -9.216  1.00  0.00     0.210 HD
ENDBRANCH   5  26
TORSDOF 5
ENDMDL
MODEL 13
REMARK VINA RESULT:    -6.520      1.840      5.619
REMARK INTER + INTRA:          -8.308
REMARK INTER:                  -7.965
REMARK INTRA:                  -0.343
REMARK UNBOUND:                -0.453
REMARK  5 active torsions:
REMARK  status: ('A' for Active; 'I' for Inactive)
REMARK    1  A    between atoms: O_1  and  C_3 
REMARK    2  A    between atoms: C_3  and  CA_4 
REMARK    3  A    between atoms: C_8  and  O_9 
REMARK    4  A    between atoms: C_11  and  O_12 
REMARK    5  A    between atoms: C_14  and  C_15 
ROOT
HETATM    1  CA  UNL     1     -11.308 -12.099  -3.733  1.00  0.00     0.241 C 
HETATM    2  N   UNL     1     -11.021 -10.690  -3.395  1.00  0.00    -0.055 N 
ATOM      3  HN1 UNL     1     -11.782 -10.067  -3.663  1.00  0.00     0.278 HD
ATOM      4  HN2 UNL     1     -10.291 -10.292  -3.987  1.00  0.00     0.278 HD
HETATM    5  C   UNL     1     -10.327 -12.858  -2.839  1.00  0.00     0.182 C 
HETATM    6  C   UNL     1     -10.101 -11.964  -1.604  1.00  0.00     0.184 C 
HETATM    7  C   UNL     1     -10.696 -10.590  -1.972  1.00  0.00     0.254 C 
ENDROOT
BRANCH   7   8
HETATM    8  C   UNL     1     -11.920 -10.190  -1.212  1.00  0.00     0.019 A 
HETATM    9  C   UNL     1     -12.492 -10.802  -0.135  1.00  0.00     0.100 A 
HETATM   10  N   UNL     1     -13.684 -10.204   0.171  1.00  0.00    -0.359 N 
HETATM   11  C   UNL     1     -13.902  -9.176  -0.714  1.00  0.00     0.128 A 
ATOM     12  HN  UNL     1     -14.307 -10.475   0.931  1.00  0.00     0.165 HD
HETATM   13  C   UNL     1     -14.902  -8.217  -0.942  1.00  0.00     0.275 A 
HETATM   14  C   UNL     1     -12.805  -9.114  -1.591  1.00  0.00     0.075 A 
HETATM   15  O   UNL     1     -15.983  -8.269  -0.228  1.00  0.00    -0.266 OA
HETATM   16  N   UNL     1     -14.778  -7.266  -1.903  1.00  0.00    -0.318 N 
HETATM   17  C   UNL     1     -13.665  -7.260  -2.675  1.00  0.00     0.184 A 
ATOM     18  HN  UNL     1     -15.510  -6.569  -2.041  1.00  0.00     0.169 HD
HETATM   19  N   UNL     1     -12.669  -8.173  -2.559  1.00  0.00    -0.350 N 
ATOM     20  HN  UNL     1     -11.853  -8.152  -3.171  1.00  0.00     0.166 HD
ENDBRANCH   7   8
BRANCH   6  21
HETATM   21  O   UNL     1      -8.718 -11.811  -1.306  1.00  0.00    -0.390 OA
ATOM     22  HO  UNL     1      -8.308 -12.642  -1.098  1.00  0.00     0.210 HD
ENDBRANCH   6  21
BRANCH   1  23
HETATM   23  C   UNL     1     -12.769 -12.492  -3.568  1.00  0.00     0.199 C 
BRANCH  23  24
HETATM   24  O   UNL     1     -13.609 -11.390  -3.906  1.00  0.00    -0.399 OA
ATOM     25  HO  UNL     1     -13.447 -11.124  -4.803  1.00  0.00     0.209 HD
ENDBRANCH  23  24
ENDBRANCH   1  23
BRANCH   5  26
HETATM   26  O   UNL     1      -9.103 -13.137  -3.508  1.00  0.00    -0.391 OA
ATOM     27  HO  UNL     1      -8.378 -13.227  -2.901  1.00  0.00     0.210 HD
ENDBRANCH   5  26
TORSDOF 5
ENDMDL
MODEL 14
REMARK VINA RESULT:    -6.430      6.968      9.162
REMARK INTER + INTRA:          -8.199
REMARK INTER:                  -7.765
REMARK INTRA:                  -0.434
REMARK UNBOUND:                -0.453
REMARK  5 active torsions:
REMARK  status: ('A' for Active; 'I' for Inactive)
REMARK    1  A    between atoms: O_1  and  C_3 
REMARK    2  A    between atoms: C_3  and  CA_4 
REMARK    3  A    between atoms: C_8  and  O_9 
REMARK    4  A    between atoms: C_11  and  O_12 
REMARK    5  A    between atoms: C_14  and  C_15 
ROOT
HETATM    1  CA  UNL     1     -13.815 -11.771  -9.452  1.00  0.00     0.241 C 
HETATM    2  N   UNL     1     -13.528 -13.219  -9.390  1.00  0.00    -0.055 N 
ATOM      3  HN1 UNL     1     -13.579 -13.662 -10.307  1.00  0.00     0.278 HD
ATOM      4  HN2 UNL     1     -14.276 -13.741  -8.934  1.00  0.00     0.278 HD
HETATM    5  C   UNL     1     -13.217 -11.261  -8.141  1.00  0.00     0.182 C 
HETATM    6  C   UNL     1     -12.059 -12.221  -7.802  1.00  0.00     0.184 C 
HETATM    7  C   UNL     1     -12.232 -13.429  -8.744  1.00  0.00     0.254 C 
ENDROOT
BRANCH   7   8
HETATM    8  C   UNL     1     -11.177 -13.588  -9.791  1.00  0.00     0.019 A 
HETATM    9  C   UNL     1     -10.142 -12.750 -10.094  1.00  0.00     0.100 A 
HETATM   10  N   UNL     1      -9.492 -13.188 -11.215  1.00  0.00    -0.359 N 
HETATM   11  C   UNL     1     -10.103 -14.336 -11.660  1.00  0.00     0.128 A 
ATOM     12  HN  UNL     1      -8.688 -12.737 -11.649  1.00  0.00     0.165 HD
HETATM   13  C   UNL     1      -9.935 -15.236 -12.724  1.00  0.00     0.275 A 
HETATM   14  C   UNL     1     -11.157 -14.639 -10.781  1.00  0.00     0.075 A 
HETATM   15  O   UNL     1      -9.040 -14.973 -13.623  1.00  0.00    -0.266 OA
HETATM   16  N   UNL     1     -10.703 -16.350 -12.848  1.00  0.00    -0.318 N 
HETATM   17  C   UNL     1     -11.670 -16.582 -11.928  1.00  0.00     0.184 A 
ATOM     18  HN  UNL     1     -10.553 -17.000 -13.620  1.00  0.00     0.169 HD
HETATM   19  N   UNL     1     -11.934 -15.746 -10.893  1.00  0.00    -0.350 N 
ATOM     20  HN  UNL     1     -12.684 -15.940 -10.230  1.00  0.00     0.166 HD
ENDBRANCH   7   8
BRANCH   6  21
HETATM   21  O   UNL     1     -12.119 -12.667  -6.452  1.00  0.00    -0.390 OA
ATOM     22  HO  UNL     1     -11.322 -13.114  -6.192  1.00  0.00     0.210 HD
ENDBRANCH   6  21
BRANCH   1  23
HETATM   23  C   UNL     1     -13.294 -11.088 -10.708  1.00  0.00     0.199 C 
BRANCH  23  24
HETATM   24  O   UNL     1     -12.933  -9.740 -10.413  1.00  0.00    -0.399 OA
ATOM     25  HO  UNL     1     -12.009  -9.606 -10.592  1.00  0.00     0.209 HD
ENDBRANCH  23  24
ENDBRANCH   1  23
BRANCH   5  26
HETATM   26  O   UNL     1     -14.182 -11.222  -7.095  1.00  0.00    -0.391 OA
ATOM     27  HO  UNL     1     -15.039 -11.505  -7.391  1.00  0.00     0.210 HD
ENDBRANCH   5  26
TORSDOF 5
ENDMDL
MODEL 15
REMARK VINA RESULT:    -6.381      8.289     10.884
REMARK INTER + INTRA:          -8.140
REMARK INTER:                  -7.933
REMARK INTRA:                  -0.207
REMARK UNBOUND:                -0.453
REMARK  5 active torsions:
REMARK  status: ('A' for Active; 'I' for Inactive)
REMARK    1  A    between atoms: O_1  and  C_3 
REMARK    2  A    between atoms: C_3  and  CA_4 
REMARK    3  A    between atoms: C_8  and  O_9 
REMARK    4  A    between atoms: C_11  and  O_12 
REMARK    5  A    between atoms: C_14  and  C_15 
ROOT
HETATM    1  CA  UNL     1      -8.140 -15.465  -9.011  1.00  0.00     0.241 C 
HETATM    2  N   UNL     1      -9.246 -15.836  -9.917  1.00  0.00    -0.055 N 
ATOM      3  HN1 UNL     1     -10.156 -15.773  -9.461  1.00  0.00     0.278 HD
ATOM      4  HN2 UNL     1      -9.256 -16.835 -10.125  1.00  0.00     0.278 HD
HETATM    5  C   UNL     1      -7.005 -15.156  -9.988  1.00  0.00     0.182 C 
HETATM    6  C   UNL     1      -7.683 -14.669 -11.285  1.00  0.00     0.184 C 
HETATM    7  C   UNL     1      -9.176 -15.018 -11.129  1.00  0.00     0.254 C 
ENDROOT
BRANCH   7   8
HETATM    8  C   UNL     1     -10.103 -13.853 -10.993  1.00  0.00     0.019 A 
HETATM    9  C   UNL     1      -9.863 -12.537 -11.266  1.00  0.00     0.100 A 
HETATM   10  N   UNL     1     -10.923 -11.770 -10.867  1.00  0.00    -0.359 N 
HETATM   11  C   UNL     1     -11.883 -12.591 -10.325  1.00  0.00     0.128 A 
ATOM     12  HN  UNL     1     -10.991 -10.757 -10.957  1.00  0.00     0.165 HD
HETATM   13  C   UNL     1     -13.152 -12.437  -9.746  1.00  0.00     0.275 A 
HETATM   14  C   UNL     1     -11.419 -13.916 -10.404  1.00  0.00     0.075 A 
HETATM   15  O   UNL     1     -13.606 -11.237  -9.561  1.00  0.00    -0.266 OA
HETATM   16  N   UNL     1     -13.894 -13.503  -9.350  1.00  0.00    -0.318 N 
HETATM   17  C   UNL     1     -13.381 -14.748  -9.502  1.00  0.00     0.184 A 
ATOM     18  HN  UNL     1     -14.821 -13.369  -8.946  1.00  0.00     0.169 HD
HETATM   19  N   UNL     1     -12.147 -14.991 -10.009  1.00  0.00    -0.350 N 
ATOM     20  HN  UNL     1     -11.782 -15.940 -10.091  1.00  0.00     0.166 HD
ENDBRANCH   7   8
BRANCH   6  21
HETATM   21  O   UNL     1      -7.165 -15.329 -12.434  1.00  0.00    -0.390 OA
ATOM     22  HO  UNL     1      -6.229 -15.477 -12.365  1.00  0.00     0.210 HD
ENDBRANCH   6  21
BRANCH   1  23
HETATM   23  C   UNL     1      -8.481 -14.341  -8.042  1.00  0.00     0.199 C 
BRANCH  23  24
HETATM   24  O   UNL     1      -7.530 -14.311  -6.981  1.00  0.00    -0.399 OA
ATOM     25  HO  UNL     1      -7.776 -13.649  -6.345  1.00  0.00     0.209 HD
ENDBRANCH  23  24
ENDBRANCH   1  23
BRANCH   5  26
HETATM   26  O   UNL     1      -6.185 -16.294 -10.228  1.00  0.00    -0.391 OA
ATOM     27  HO  UNL     1      -5.269 -16.115 -10.053  1.00  0.00     0.210 HD
ENDBRANCH   5  26
TORSDOF 5
ENDMDL
MODEL 16
REMARK VINA RESULT:    -6.337      6.934      8.899
REMARK INTER + INTRA:          -8.087
REMARK INTER:                  -8.064
REMARK INTRA:                  -0.023
REMARK UNBOUND:                -0.453
REMARK  5 active torsions:
REMARK  status: ('A' for Active; 'I' for Inactive)
REMARK    1  A    between atoms: O_1  and  C_3 
REMARK    2  A    between atoms: C_3  and  CA_4 
REMARK    3  A    between atoms: C_8  and  O_9 
REMARK    4  A    between atoms: C_11  and  O_12 
REMARK    5  A    between atoms: C_14  and  C_15 
ROOT
HETATM    1  CA  UNL     1     -13.726 -11.753  -9.515  1.00  0.00     0.241 C 
HETATM    2  N   UNL     1     -13.548 -13.219  -9.551  1.00  0.00    -0.055 N 
ATOM      3  HN1 UNL     1     -13.661 -13.598 -10.491  1.00  0.00     0.278 HD
ATOM      4  HN2 UNL     1     -14.318 -13.712  -9.101  1.00  0.00     0.278 HD
HETATM    5  C   UNL     1     -13.048 -11.373  -8.198  1.00  0.00     0.182 C 
HETATM    6  C   UNL     1     -11.956 -12.435  -7.961  1.00  0.00     0.184 C 
HETATM    7  C   UNL     1     -12.251 -13.565  -8.968  1.00  0.00     0.254 C 
ENDROOT
BRANCH   7   8
HETATM    8  C   UNL     1     -11.246 -13.735 -10.061  1.00  0.00     0.019 A 
HETATM    9  C   UNL     1     -11.421 -13.598 -11.408  1.00  0.00     0.100 A 
HETATM   10  N   UNL     1     -10.289 -13.985 -12.073  1.00  0.00    -0.359 N 
HETATM   11  C   UNL     1      -9.348 -14.379 -11.152  1.00  0.00     0.128 A 
ATOM     12  HN  UNL     1     -10.164 -13.981 -13.085  1.00  0.00     0.165 HD
HETATM   13  C   UNL     1      -8.036 -14.875 -11.180  1.00  0.00     0.275 A 
HETATM   14  C   UNL     1      -9.899 -14.218  -9.869  1.00  0.00     0.075 A 
HETATM   15  O   UNL     1      -7.495 -15.132 -12.330  1.00  0.00    -0.266 OA
HETATM   16  N   UNL     1      -7.337 -15.119 -10.041  1.00  0.00    -0.318 N 
HETATM   17  C   UNL     1      -7.937 -14.895  -8.847  1.00  0.00     0.184 A 
ATOM     18  HN  UNL     1      -6.378 -15.464 -10.084  1.00  0.00     0.169 HD
HETATM   19  N   UNL     1      -9.215 -14.460  -8.722  1.00  0.00    -0.350 N 
ATOM     20  HN  UNL     1      -9.644 -14.322  -7.807  1.00  0.00     0.166 HD
ENDBRANCH   7   8
BRANCH   6  21
HETATM   21  O   UNL     1     -12.006 -12.960  -6.639  1.00  0.00    -0.390 OA
ATOM     22  HO  UNL     1     -12.881 -12.911  -6.272  1.00  0.00     0.210 HD
ENDBRANCH   6  21
BRANCH   1  23
HETATM   23  C   UNL     1     -13.194 -11.032 -10.746  1.00  0.00     0.199 C 
BRANCH  23  24
HETATM   24  O   UNL     1     -12.876  -9.681 -10.417  1.00  0.00    -0.399 OA
ATOM     25  HO  UNL     1     -11.946  -9.604 -10.234  1.00  0.00     0.209 HD
ENDBRANCH  23  24
ENDBRANCH   1  23
BRANCH   5  26
HETATM   26  O   UNL     1     -13.973 -11.329  -7.117  1.00  0.00    -0.391 OA
ATOM     27  HO  UNL     1     -13.562 -11.047  -6.309  1.00  0.00     0.210 HD
ENDBRANCH   5  26
TORSDOF 5
ENDMDL
MODEL 17
REMARK VINA RESULT:    -6.309      6.250     10.272
REMARK INTER + INTRA:          -8.053
REMARK INTER:                  -7.939
REMARK INTRA:                  -0.115
REMARK UNBOUND:                -0.453
REMARK  5 active torsions:
REMARK  status: ('A' for Active; 'I' for Inactive)
REMARK    1  A    between atoms: O_1  and  C_3 
REMARK    2  A    between atoms: C_3  and  CA_4 
REMARK    3  A    between atoms: C_8  and  O_9 
REMARK    4  A    between atoms: C_11  and  O_12 
REMARK    5  A    between atoms: C_14  and  C_15 
ROOT
HETATM    1  CA  UNL     1      -9.292 -15.989 -10.696  1.00  0.00     0.241 C 
HETATM    2  N   UNL     1      -9.260 -14.578 -11.132  1.00  0.00    -0.055 N 
ATOM      3  HN1 UNL     1      -9.898 -14.399 -11.907  1.00  0.00     0.278 HD
ATOM      4  HN2 UNL     1      -8.387 -14.339 -11.604  1.00  0.00     0.278 HD
HETATM    5  C   UNL     1      -8.688 -15.912  -9.293  1.00  0.00     0.182 C 
HETATM    6  C   UNL     1      -9.027 -14.505  -8.762  1.00  0.00     0.184 C 
HETATM    7  C   UNL     1      -9.526 -13.709  -9.985  1.00  0.00     0.254 C 
ENDROOT
BRANCH   7   8
HETATM    8  C   UNL     1     -10.974 -13.339  -9.969  1.00  0.00     0.019 A 
HETATM    9  C   UNL     1     -11.865 -13.337 -11.004  1.00  0.00     0.100 A 
HETATM   10  N   UNL     1     -13.054 -12.792 -10.603  1.00  0.00    -0.359 N 
HETATM   11  C   UNL     1     -12.951 -12.432  -9.281  1.00  0.00     0.128 A 
ATOM     12  HN  UNL     1     -13.880 -12.672 -11.188  1.00  0.00     0.165 HD
HETATM   13  C   UNL     1     -13.779 -11.837  -8.316  1.00  0.00     0.275 A 
HETATM   14  C   UNL     1     -11.665 -12.779  -8.832  1.00  0.00     0.075 A 
HETATM   15  O   UNL     1     -14.948 -11.411  -8.681  1.00  0.00    -0.266 OA
HETATM   16  N   UNL     1     -13.376 -11.670  -7.030  1.00  0.00    -0.318 N 
HETATM   17  C   UNL     1     -12.131 -12.072  -6.679  1.00  0.00     0.184 A 
ATOM     18  HN  UNL     1     -14.000 -11.249  -6.341  1.00  0.00     0.169 HD
HETATM   19  N   UNL     1     -11.246 -12.616  -7.551  1.00  0.00    -0.350 N 
ATOM     20  HN  UNL     1     -10.309 -12.889  -7.258  1.00  0.00     0.166 HD
ENDBRANCH   7   8
BRANCH   6  21
HETATM   21  O   UNL     1      -7.885 -13.856  -8.215  1.00  0.00    -0.390 OA
ATOM     22  HO  UNL     1      -7.674 -13.057  -8.683  1.00  0.00     0.210 HD
ENDBRANCH   6  21
BRANCH   1  23
HETATM   23  C   UNL     1     -10.670 -16.632 -10.771  1.00  0.00     0.199 C 
BRANCH  23  24
HETATM   24  O   UNL     1     -10.595 -17.990 -10.345  1.00  0.00    -0.399 OA
ATOM     25  HO  UNL     1     -10.213 -18.524 -11.033  1.00  0.00     0.209 HD
ENDBRANCH  23  24
ENDBRANCH   1  23
BRANCH   5  26
HETATM   26  O   UNL     1      -7.283 -16.138  -9.306  1.00  0.00    -0.391 OA
ATOM     27  HO  UNL     1      -6.796 -15.335  -9.447  1.00  0.00     0.210 HD
ENDBRANCH   5  26
TORSDOF 5
ENDMDL
MODEL 18
REMARK VINA RESULT:    -6.206      7.417     10.269
REMARK INTER + INTRA:          -7.929
REMARK INTER:                  -7.989
REMARK INTRA:                   0.060
REMARK UNBOUND:                -0.453
REMARK  5 active torsions:
REMARK  status: ('A' for Active; 'I' for Inactive)
REMARK    1  A    between atoms: O_1  and  C_3 
REMARK    2  A    between atoms: C_3  and  CA_4 
REMARK    3  A    between atoms: C_8  and  O_9 
REMARK    4  A    between atoms: C_11  and  O_12 
REMARK    5  A    between atoms: C_14  and  C_15 
ROOT
HETATM    1  CA  UNL     1      -8.979 -14.789 -10.012  1.00  0.00     0.241 C 
HETATM    2  N   UNL     1     -10.180 -15.515 -10.474  1.00  0.00    -0.055 N 
ATOM      3  HN1 UNL     1     -10.660 -15.992  -9.711  1.00  0.00     0.278 HD
ATOM      4  HN2 UNL     1      -9.945 -16.335 -11.033  1.00  0.00     0.278 HD
HETATM    5  C   UNL     1      -8.736 -13.800 -11.152  1.00  0.00     0.182 C 
HETATM    6  C   UNL     1     -10.119 -13.518 -11.772  1.00  0.00     0.184 C 
HETATM    7  C   UNL     1     -11.061 -14.590 -11.189  1.00  0.00     0.254 C 
ENDROOT
BRANCH   7   8
HETATM    8  C   UNL     1     -12.114 -14.087 -10.255  1.00  0.00     0.019 A 
HETATM    9  C   UNL     1     -13.100 -14.790  -9.624  1.00  0.00     0.100 A 
HETATM   10  N   UNL     1     -13.947 -13.936  -8.973  1.00  0.00    -0.359 N 
HETATM   11  C   UNL     1     -13.513 -12.647  -9.171  1.00  0.00     0.128 A 
ATOM     12  HN  UNL     1     -14.765 -14.210  -8.429  1.00  0.00     0.165 HD
HETATM   13  C   UNL     1     -13.928 -11.360  -8.797  1.00  0.00     0.275 A 
HETATM   14  C   UNL     1     -12.347 -12.694  -9.955  1.00  0.00     0.075 A 
HETATM   15  O   UNL     1     -15.043 -11.233  -8.147  1.00  0.00    -0.266 OA
HETATM   16  N   UNL     1     -13.213 -10.253  -9.122  1.00  0.00    -0.318 N 
HETATM   17  C   UNL     1     -12.077 -10.399  -9.847  1.00  0.00     0.184 A 
ATOM     18  HN  UNL     1     -13.524  -9.327  -8.826  1.00  0.00     0.169 HD
HETATM   19  N   UNL     1     -11.623 -11.597 -10.292  1.00  0.00    -0.350 N 
ATOM     20  HN  UNL     1     -10.775 -11.670 -10.854  1.00  0.00     0.166 HD
ENDBRANCH   7   8
BRANCH   6  21
HETATM   21  O   UNL     1     -10.098 -13.634 -13.190  1.00  0.00    -0.390 OA
ATOM     22  HO  UNL     1      -9.428 -13.084 -13.579  1.00  0.00     0.210 HD
ENDBRANCH   6  21
BRANCH   1  23
HETATM   23  C   UNL     1      -9.125 -14.162  -8.632  1.00  0.00     0.199 C 
BRANCH  23  24
HETATM   24  O   UNL     1      -7.837 -13.954  -8.056  1.00  0.00    -0.399 OA
ATOM     25  HO  UNL     1      -7.727 -13.038  -7.832  1.00  0.00     0.209 HD
ENDBRANCH  23  24
ENDBRANCH   1  23
BRANCH   5  26
HETATM   26  O   UNL     1      -7.829 -14.316 -12.120  1.00  0.00    -0.391 OA
ATOM     27  HO  UNL     1      -6.933 -14.055 -11.942  1.00  0.00     0.210 HD
ENDBRANCH   5  26
TORSDOF 5
ENDMDL
MODEL 19
REMARK VINA RESULT:    -6.147      6.801     10.449
REMARK INTER + INTRA:          -7.858
REMARK INTER:                  -7.607
REMARK INTRA:                  -0.251
REMARK UNBOUND:                -0.453
REMARK  5 active torsions:
REMARK  status: ('A' for Active; 'I' for Inactive)
REMARK    1  A    between atoms: O_1  and  C_3 
REMARK    2  A    between atoms: C_3  and  CA_4 
REMARK    3  A    between atoms: C_8  and  O_9 
REMARK    4  A    between atoms: C_11  and  O_12 
REMARK    5  A    between atoms: C_14  and  C_15 
ROOT
HETATM    1  CA  UNL     1     -10.681 -15.435 -12.139  1.00  0.00     0.241 C 
HETATM    2  N   UNL     1     -11.314 -14.104 -12.233  1.00  0.00    -0.055 N 
ATOM      3  HN1 UNL     1     -12.251 -14.093 -11.830  1.00  0.00     0.278 HD
ATOM      4  HN2 UNL     1     -11.565 -13.863 -13.192  1.00  0.00     0.278 HD
HETATM    5  C   UNL     1      -9.199 -15.108 -12.323  1.00  0.00     0.182 C 
HETATM    6  C   UNL     1      -9.013 -13.672 -11.793  1.00  0.00     0.184 C 
HETATM    7  C   UNL     1     -10.437 -13.105 -11.623  1.00  0.00     0.254 C 
ENDROOT
BRANCH   7   8
HETATM    8  C   UNL     1     -10.872 -12.859 -10.214  1.00  0.00     0.019 A 
HETATM    9  C   UNL     1     -11.965 -12.175  -9.766  1.00  0.00     0.100 A 
HETATM   10  N   UNL     1     -11.921 -12.054  -8.404  1.00  0.00    -0.359 N 
HETATM   11  C   UNL     1     -10.784 -12.671  -7.942  1.00  0.00     0.128 A 
ATOM     12  HN  UNL     1     -12.618 -11.584  -7.827  1.00  0.00     0.165 HD
HETATM   13  C   UNL     1     -10.171 -12.886  -6.697  1.00  0.00     0.275 A 
HETATM   14  C   UNL     1     -10.102 -13.213  -9.045  1.00  0.00     0.075 A 
HETATM   15  O   UNL     1     -10.698 -12.340  -5.646  1.00  0.00    -0.266 OA
HETATM   16  N   UNL     1      -9.035 -13.618  -6.574  1.00  0.00    -0.318 N 
HETATM   17  C   UNL     1      -8.469 -14.136  -7.691  1.00  0.00     0.184 A 
ATOM     18  HN  UNL     1      -8.614 -13.775  -5.658  1.00  0.00     0.169 HD
HETATM   19  N   UNL     1      -8.964 -13.944  -8.939  1.00  0.00    -0.350 N 
ATOM     20  HN  UNL     1      -8.501 -14.331  -9.761  1.00  0.00     0.166 HD
ENDBRANCH   7   8
BRANCH   6  21
HETATM   21  O   UNL     1      -8.291 -12.858 -12.709  1.00  0.00    -0.390 OA
ATOM     22  HO  UNL     1      -7.821 -12.160 -12.268  1.00  0.00     0.210 HD
ENDBRANCH   6  21
BRANCH   1  23
HETATM   23  C   UNL     1     -11.020 -16.195 -10.864  1.00  0.00     0.199 C 
BRANCH  23  24
HETATM   24  O   UNL     1      -9.821 -16.592 -10.202  1.00  0.00    -0.399 OA
ATOM     25  HO  UNL     1      -9.516 -17.420 -10.554  1.00  0.00     0.209 HD
ENDBRANCH  23  24
ENDBRANCH   1  23
BRANCH   5  26
HETATM   26  O   UNL     1      -8.796 -15.214 -13.684  1.00  0.00    -0.391 OA
ATOM     27  HO  UNL     1      -8.923 -14.400 -14.157  1.00  0.00     0.210 HD
ENDBRANCH   5  26
TORSDOF 5
ENDMDL
