MODEL 1
REMARK VINA RESULT:    -9.237      0.000      0.000
REMARK INTER + INTRA:         -10.754
REMARK INTER:                 -10.317
REMARK INTRA:                  -0.436
REMARK UNBOUND:                -0.436
REMARK  2 active torsions:
REMARK  status: ('A' for Active; 'I' for Inactive)
REMARK    1  A    between atoms: C_4  and  C_20 
REMARK    2  A    between atoms: C_11  and  N_12 
ROOT
HETATM    1  C   UNL     1      18.729  -5.228   9.661  1.00  0.00     0.089 A 
HETATM    2  C   UNL     1      16.750  -6.626   9.368  1.00  0.00     0.065 A 
HETATM    3  O   UNL     1      20.566  -4.735  11.032  1.00  0.00    -0.287 OA
HETATM    4  C   UNL     1      19.913  -4.511   9.996  1.00  0.00     0.196 C 
HETATM    5  C   UNL     1      20.340  -3.516   9.034  1.00  0.00     0.112 C 
HETATM    6  C   UNL     1      19.710  -3.399   7.861  1.00  0.00     0.150 C 
HETATM    7  O   UNL     1      18.553  -4.068   7.605  1.00  0.00    -0.291 OA
HETATM    8  C   UNL     1      18.086  -5.003   8.490  1.00  0.00     0.110 A 
HETATM    9  S   UNL     1      17.958  -6.437  10.581  1.00  0.00    -0.094 SA
HETATM   10  C   UNL     1      16.884  -5.813   8.279  1.00  0.00     0.016 A 
ENDROOT
BRANCH  10  11
HETATM   11  C   UNL     1      16.035  -5.774   7.094  1.00  0.00    -0.020 A 
HETATM   12  C   UNL     1      15.334  -6.921   6.639  1.00  0.00     0.015 A 
HETATM   13  C   UNL     1      14.481  -6.914   5.526  1.00  0.00     0.040 A 
HETATM   14  C   UNL     1      14.258  -5.728   4.824  1.00  0.00     0.102 A 
HETATM   15  O   UNL     1      13.416  -5.739   3.740  1.00  0.00    -0.346 OA
HETATM   16  C   UNL     1      14.913  -4.564   5.248  1.00  0.00     0.102 A 
HETATM   17  C   UNL     1      12.930  -4.473   3.311  1.00  0.00     0.202 C 
HETATM   18  C   UNL     1      14.012  -3.404   3.345  1.00  0.00     0.202 C 
HETATM   19  O   UNL     1      14.730  -3.390   4.584  1.00  0.00    -0.346 OA
HETATM   20  C   UNL     1      15.773  -4.603   6.369  1.00  0.00     0.052 A 
ENDBRANCH  10  11
BRANCH   6  21
HETATM   21  N   UNL     1      19.907  -2.376   6.896  1.00  0.00    -0.357 N 
HETATM   22  C   UNL     1      20.454  -1.042   7.147  1.00  0.00     0.151 C 
HETATM   23  C   UNL     1      21.805  -0.890   6.433  1.00  0.00     0.187 C 
HETATM   24  O   UNL     1      21.716  -1.216   5.047  1.00  0.00    -0.388 OA
HETATM   25  C   UNL     1      21.077  -2.461   4.769  1.00  0.00     0.187 C 
HETATM   26  C   UNL     1      19.728  -2.560   5.448  1.00  0.00     0.151 C 
ENDBRANCH   6  21
TORSDOF 2
ENDMDL
MODEL 2
REMARK VINA RESULT:    -8.674      1.253      1.549
REMARK INTER + INTRA:         -10.125
REMARK INTER:                  -9.521
REMARK INTRA:                  -0.604
REMARK UNBOUND:                -0.436
REMARK  2 active torsions:
REMARK  status: ('A' for Active; 'I' for Inactive)
REMARK    1  A    between atoms: C_4  and  C_20 
REMARK    2  A    between atoms: C_11  and  N_12 
ROOT
HETATM    1  C   UNL     1      19.685  -3.800   9.433  1.00  0.00     0.089 A 
HETATM    2  C   UNL     1      17.485  -4.804   9.764  1.00  0.00     0.065 A 
HETATM    3  O   UNL     1      21.682  -3.129  10.461  1.00  0.00    -0.287 OA
HETATM    4  C   UNL     1      20.994  -3.240   9.429  1.00  0.00     0.196 C 
HETATM    5  C   UNL     1      21.500  -2.830   8.135  1.00  0.00     0.112 C 
HETATM    6  C   UNL     1      20.807  -3.098   7.024  1.00  0.00     0.150 C 
HETATM    7  O   UNL     1      19.539  -3.588   7.079  1.00  0.00    -0.291 OA
HETATM    8  C   UNL     1      18.996  -3.968   8.278  1.00  0.00     0.110 A 
HETATM    9  S   UNL     1      18.801  -4.354  10.779  1.00  0.00    -0.094 SA
HETATM   10  C   UNL     1      17.664  -4.557   8.433  1.00  0.00     0.016 A 
ENDROOT
BRANCH  10  11
HETATM   11  C   UNL     1      16.740  -4.857   7.345  1.00  0.00    -0.020 A 
HETATM   12  C   UNL     1      16.213  -6.162   7.152  1.00  0.00     0.015 A 
HETATM   13  C   UNL     1      15.296  -6.482   6.140  1.00  0.00     0.040 A 
HETATM   14  C   UNL     1      14.829  -5.487   5.280  1.00  0.00     0.102 A 
HETATM   15  O   UNL     1      13.928  -5.818   4.298  1.00  0.00    -0.346 OA
HETATM   16  C   UNL     1      15.306  -4.179   5.444  1.00  0.00     0.102 A 
HETATM   17  C   UNL     1      13.207  -4.737   3.718  1.00  0.00     0.202 C 
HETATM   18  C   UNL     1      14.094  -3.525   3.475  1.00  0.00     0.202 C 
HETATM   19  O   UNL     1      14.883  -3.182   4.619  1.00  0.00    -0.346 OA
HETATM   20  C   UNL     1      16.236  -3.888   6.468  1.00  0.00     0.052 A 
ENDBRANCH  10  11
BRANCH   6  21
HETATM   21  N   UNL     1      21.092  -2.623   5.717  1.00  0.00    -0.357 N 
HETATM   22  C   UNL     1      20.257  -1.722   4.922  1.00  0.00     0.151 C 
HETATM   23  C   UNL     1      20.983  -0.385   4.716  1.00  0.00     0.187 C 
HETATM   24  O   UNL     1      22.294  -0.565   4.182  1.00  0.00    -0.388 OA
HETATM   25  C   UNL     1      23.088  -1.529   4.870  1.00  0.00     0.187 C 
HETATM   26  C   UNL     1      22.363  -2.850   5.014  1.00  0.00     0.151 C 
ENDBRANCH   6  21
TORSDOF 2
ENDMDL
MODEL 3
REMARK VINA RESULT:    -8.591      1.278      1.474
REMARK INTER + INTRA:         -10.031
REMARK INTER:                  -9.510
REMARK INTRA:                  -0.521
REMARK UNBOUND:                -0.436
REMARK  2 active torsions:
REMARK  status: ('A' for Active; 'I' for Inactive)
REMARK    1  A    between atoms: C_4  and  C_20 
REMARK    2  A    between atoms: C_11  and  N_12 
ROOT
HETATM    1  C   UNL     1      18.588  -6.692  10.401  1.00  0.00     0.089 A 
HETATM    2  C   UNL     1      16.674  -8.027   9.683  1.00  0.00     0.065 A 
HETATM    3  O   UNL     1      20.285  -6.443  11.999  1.00  0.00    -0.287 OA
HETATM    4  C   UNL     1      19.720  -6.039  10.965  1.00  0.00     0.196 C 
HETATM    5  C   UNL     1      20.206  -4.882  10.241  1.00  0.00     0.112 C 
HETATM    6  C   UNL     1      19.679  -4.558   9.056  1.00  0.00     0.150 C 
HETATM    7  O   UNL     1      18.565  -5.178   8.581  1.00  0.00    -0.291 OA
HETATM    8  C   UNL     1      18.044  -6.262   9.236  1.00  0.00     0.110 A 
HETATM    9  S   UNL     1      17.767  -8.053  11.013  1.00  0.00    -0.094 SA
HETATM   10  C   UNL     1      16.885  -7.029   8.775  1.00  0.00     0.016 A 
ENDROOT
BRANCH  10  11
HETATM   11  C   UNL     1      16.142  -6.780   7.545  1.00  0.00    -0.020 A 
HETATM   12  C   UNL     1      15.599  -7.841   6.772  1.00  0.00     0.015 A 
HETATM   13  C   UNL     1      14.850  -7.641   5.604  1.00  0.00     0.040 A 
HETATM   14  C   UNL     1      14.573  -6.345   5.165  1.00  0.00     0.102 A 
HETATM   15  O   UNL     1      13.833  -6.169   4.022  1.00  0.00    -0.346 OA
HETATM   16  C   UNL     1      15.070  -5.264   5.906  1.00  0.00     0.102 A 
HETATM   17  C   UNL     1      13.263  -4.878   3.837  1.00  0.00     0.202 C 
HETATM   18  C   UNL     1      14.228  -3.767   4.225  1.00  0.00     0.202 C 
HETATM   19  O   UNL     1      14.831  -3.986   5.506  1.00  0.00    -0.346 OA
HETATM   20  C   UNL     1      15.830  -5.497   7.075  1.00  0.00     0.052 A 
ENDBRANCH  10  11
BRANCH   6  21
HETATM   21  N   UNL     1      19.936  -3.376   8.314  1.00  0.00    -0.357 N 
HETATM   22  C   UNL     1      21.172  -2.594   8.331  1.00  0.00     0.151 C 
HETATM   23  C   UNL     1      21.852  -2.665   6.956  1.00  0.00     0.187 C 
HETATM   24  O   UNL     1      20.964  -2.301   5.901  1.00  0.00    -0.388 OA
HETATM   25  C   UNL     1      19.701  -2.963   5.932  1.00  0.00     0.187 C 
HETATM   26  C   UNL     1      19.035  -2.833   7.285  1.00  0.00     0.151 C 
ENDBRANCH   6  21
TORSDOF 2
ENDMDL
MODEL 4
REMARK VINA RESULT:    -8.338      1.433      2.143
REMARK INTER + INTRA:          -9.749
REMARK INTER:                  -9.018
REMARK INTRA:                  -0.731
REMARK UNBOUND:                -0.436
REMARK  2 active torsions:
REMARK  status: ('A' for Active; 'I' for Inactive)
REMARK    1  A    between atoms: C_4  and  C_20 
REMARK    2  A    between atoms: C_11  and  N_12 
ROOT
HETATM    1  C   UNL     1      20.418  -3.977  10.324  1.00  0.00     0.089 A 
HETATM    2  C   UNL     1      18.376  -5.293  10.561  1.00  0.00     0.065 A 
HETATM    3  O   UNL     1      22.304  -3.114  11.418  1.00  0.00    -0.287 OA
HETATM    4  C   UNL     1      21.638  -3.244  10.373  1.00  0.00     0.196 C 
HETATM    5  C   UNL     1      22.084  -2.678   9.116  1.00  0.00     0.112 C 
HETATM    6  C   UNL     1      21.434  -2.958   7.983  1.00  0.00     0.150 C 
HETATM    7  O   UNL     1      20.245  -3.619   7.990  1.00  0.00    -0.291 OA
HETATM    8  C   UNL     1      19.759  -4.155   9.153  1.00  0.00     0.110 A 
HETATM    9  S   UNL     1      19.618  -4.741  11.619  1.00  0.00    -0.094 SA
HETATM   10  C   UNL     1      18.520  -4.929   9.253  1.00  0.00     0.016 A 
ENDROOT
BRANCH  10  11
HETATM   11  C   UNL     1      17.647  -5.275   8.137  1.00  0.00    -0.020 A 
HETATM   12  C   UNL     1      17.536  -6.608   7.660  1.00  0.00     0.015 A 
HETATM   13  C   UNL     1      16.682  -6.985   6.614  1.00  0.00     0.040 A 
HETATM   14  C   UNL     1      15.858  -6.035   6.007  1.00  0.00     0.102 A 
HETATM   15  O   UNL     1      15.025  -6.425   4.988  1.00  0.00    -0.346 OA
HETATM   16  C   UNL     1      15.917  -4.709   6.457  1.00  0.00     0.102 A 
HETATM   17  C   UNL     1      13.957  -5.536   4.677  1.00  0.00     0.202 C 
HETATM   18  C   UNL     1      14.400  -4.081   4.702  1.00  0.00     0.202 C 
HETATM   19  O   UNL     1      15.138  -3.752   5.885  1.00  0.00    -0.346 OA
HETATM   20  C   UNL     1      16.794  -4.357   7.508  1.00  0.00     0.052 A 
ENDBRANCH  10  11
BRANCH   6  21
HETATM   21  N   UNL     1      21.652  -2.357   6.716  1.00  0.00    -0.357 N 
HETATM   22  C   UNL     1      21.292  -2.922   5.415  1.00  0.00     0.151 C 
HETATM   23  C   UNL     1      20.201  -2.065   4.758  1.00  0.00     0.187 C 
HETATM   24  O   UNL     1      20.568  -0.687   4.697  1.00  0.00    -0.388 OA
HETATM   25  C   UNL     1      21.038  -0.142   5.928  1.00  0.00     0.187 C 
HETATM   26  C   UNL     1      22.145  -0.984   6.526  1.00  0.00     0.151 C 
ENDBRANCH   6  21
TORSDOF 2
ENDMDL
MODEL 5
REMARK VINA RESULT:    -8.309      1.389      2.152
REMARK INTER + INTRA:          -9.717
REMARK INTER:                  -9.401
REMARK INTRA:                  -0.316
REMARK UNBOUND:                -0.436
REMARK  2 active torsions:
REMARK  status: ('A' for Active; 'I' for Inactive)
REMARK    1  A    between atoms: C_4  and  C_20 
REMARK    2  A    between atoms: C_11  and  N_12 
ROOT
HETATM    1  C   UNL     1      18.079  -6.788   9.757  1.00  0.00     0.089 A 
HETATM    2  C   UNL     1      15.990  -7.363   8.632  1.00  0.00     0.065 A 
HETATM    3  O   UNL     1      19.665  -7.450  11.351  1.00  0.00    -0.287 OA
HETATM    4  C   UNL     1      19.276  -6.620  10.508  1.00  0.00     0.196 C 
HETATM    5  C   UNL     1      20.045  -5.429  10.210  1.00  0.00     0.112 C 
HETATM    6  C   UNL     1      19.688  -4.632   9.198  1.00  0.00     0.150 C 
HETATM    7  O   UNL     1      18.509  -4.803   8.541  1.00  0.00    -0.291 OA
HETATM    8  C   UNL     1      17.727  -5.897   8.799  1.00  0.00     0.110 A 
HETATM    9  S   UNL     1      16.950  -8.058   9.882  1.00  0.00    -0.094 SA
HETATM   10  C   UNL     1      16.471  -6.198   8.107  1.00  0.00     0.016 A 
ENDROOT
BRANCH  10  11
HETATM   11  C   UNL     1      15.891  -5.408   7.027  1.00  0.00    -0.020 A 
HETATM   12  C   UNL     1      16.227  -4.042   6.836  1.00  0.00     0.015 A 
HETATM   13  C   UNL     1      15.718  -3.260   5.789  1.00  0.00     0.040 A 
HETATM   14  C   UNL     1      14.860  -3.828   4.846  1.00  0.00     0.102 A 
HETATM   15  O   UNL     1      14.376  -3.048   3.826  1.00  0.00    -0.346 OA
HETATM   16  C   UNL     1      14.514  -5.179   4.981  1.00  0.00     0.102 A 
HETATM   17  C   UNL     1      13.839  -3.743   2.706  1.00  0.00     0.202 C 
HETATM   18  C   UNL     1      13.004  -4.943   3.127  1.00  0.00     0.202 C 
HETATM   19  O   UNL     1      13.673  -5.768   4.088  1.00  0.00    -0.346 OA
HETATM   20  C   UNL     1      15.037  -5.941   6.051  1.00  0.00     0.052 A 
ENDBRANCH  10  11
BRANCH   6  21
HETATM   21  N   UNL     1      20.240  -3.361   8.890  1.00  0.00    -0.357 N 
HETATM   22  C   UNL     1      21.600  -2.912   9.188  1.00  0.00     0.151 C 
HETATM   23  C   UNL     1      22.374  -2.692   7.880  1.00  0.00     0.187 C 
HETATM   24  O   UNL     1      21.674  -1.829   6.984  1.00  0.00    -0.388 OA
HETATM   25  C   UNL     1      20.308  -2.177   6.771  1.00  0.00     0.187 C 
HETATM   26  C   UNL     1      19.561  -2.340   8.077  1.00  0.00     0.151 C 
ENDBRANCH   6  21
TORSDOF 2
ENDMDL
MODEL 6
REMARK VINA RESULT:    -8.179      1.450      2.206
REMARK INTER + INTRA:          -9.572
REMARK INTER:                  -9.213
REMARK INTRA:                  -0.359
REMARK UNBOUND:                -0.436
REMARK  2 active torsions:
REMARK  status: ('A' for Active; 'I' for Inactive)
REMARK    1  A    between atoms: C_4  and  C_20 
REMARK    2  A    between atoms: C_11  and  N_12 
ROOT
HETATM    1  C   UNL     1      20.250  -3.995   9.555  1.00  0.00     0.089 A 
HETATM    2  C   UNL     1      18.302  -5.453   9.755  1.00  0.00     0.065 A 
HETATM    3  O   UNL     1      22.343  -3.429  10.445  1.00  0.00    -0.287 OA
HETATM    4  C   UNL     1      21.456  -3.239   9.592  1.00  0.00     0.196 C 
HETATM    5  C   UNL     1      21.610  -2.248   8.547  1.00  0.00     0.112 C 
HETATM    6  C   UNL     1      20.716  -2.167   7.557  1.00  0.00     0.150 C 
HETATM    7  O   UNL     1      19.553  -2.873   7.590  1.00  0.00    -0.291 OA
HETATM    8  C   UNL     1      19.340  -3.807   8.569  1.00  0.00     0.110 A 
HETATM    9  S   UNL     1      19.757  -5.210  10.642  1.00  0.00    -0.094 SA
HETATM   10  C   UNL     1      18.148  -4.654   8.658  1.00  0.00     0.016 A 
ENDROOT
BRANCH  10  11
HETATM   11  C   UNL     1      17.040  -4.657   7.710  1.00  0.00    -0.020 A 
HETATM   12  C   UNL     1      16.569  -3.460   7.107  1.00  0.00     0.015 A 
HETATM   13  C   UNL     1      15.531  -3.427   6.165  1.00  0.00     0.040 A 
HETATM   14  C   UNL     1      14.927  -4.614   5.748  1.00  0.00     0.102 A 
HETATM   15  O   UNL     1      13.916  -4.562   4.821  1.00  0.00    -0.346 OA
HETATM   16  C   UNL     1      15.372  -5.823   6.299  1.00  0.00     0.102 A 
HETATM   17  C   UNL     1      13.610  -5.783   4.157  1.00  0.00     0.202 C 
HETATM   18  C   UNL     1      13.627  -6.969   5.109  1.00  0.00     0.202 C 
HETATM   19  O   UNL     1      14.802  -7.002   5.926  1.00  0.00    -0.346 OA
HETATM   20  C   UNL     1      16.415  -5.825   7.253  1.00  0.00     0.052 A 
ENDBRANCH  10  11
BRANCH   6  21
HETATM   21  N   UNL     1      20.646  -1.154   6.565  1.00  0.00    -0.357 N 
HETATM   22  C   UNL     1      20.766   0.287   6.787  1.00  0.00     0.151 C 
HETATM   23  C   UNL     1      22.043   0.812   6.115  1.00  0.00     0.187 C 
HETATM   24  O   UNL     1      22.113   0.442   4.739  1.00  0.00    -0.388 OA
HETATM   25  C   UNL     1      21.878  -0.941   4.483  1.00  0.00     0.187 C 
HETATM   26  C   UNL     1      20.589  -1.416   5.119  1.00  0.00     0.151 C 
ENDBRANCH   6  21
TORSDOF 2
ENDMDL
MODEL 7
REMARK VINA RESULT:    -7.923      2.765      7.150
REMARK INTER + INTRA:          -9.285
REMARK INTER:                  -8.641
REMARK INTRA:                  -0.645
REMARK UNBOUND:                -0.436
REMARK  2 active torsions:
REMARK  status: ('A' for Active; 'I' for Inactive)
REMARK    1  A    between atoms: C_4  and  C_20 
REMARK    2  A    between atoms: C_11  and  N_12 
ROOT
HETATM    1  C   UNL     1      15.521  -5.314   6.315  1.00  0.00     0.089 A 
HETATM    2  C   UNL     1      16.356  -3.144   5.571  1.00  0.00     0.065 A 
HETATM    3  O   UNL     1      13.747  -6.843   6.214  1.00  0.00    -0.287 OA
HETATM    4  C   UNL     1      14.877  -6.541   6.643  1.00  0.00     0.196 C 
HETATM    5  C   UNL     1      15.633  -7.444   7.486  1.00  0.00     0.112 C 
HETATM    6  C   UNL     1      16.899  -7.164   7.807  1.00  0.00     0.150 C 
HETATM    7  O   UNL     1      17.457  -5.958   7.516  1.00  0.00    -0.291 OA
HETATM    8  C   UNL     1      16.779  -5.052   6.743  1.00  0.00     0.110 A 
HETATM    9  S   UNL     1      14.899  -4.040   5.370  1.00  0.00    -0.094 SA
HETATM   10  C   UNL     1      17.315  -3.753   6.330  1.00  0.00     0.016 A 
ENDROOT
BRANCH  10  11
HETATM   11  C   UNL     1      18.648  -3.250   6.643  1.00  0.00    -0.020 A 
HETATM   12  C   UNL     1      19.020  -2.894   7.966  1.00  0.00     0.015 A 
HETATM   13  C   UNL     1      20.301  -2.440   8.312  1.00  0.00     0.040 A 
HETATM   14  C   UNL     1      21.298  -2.352   7.339  1.00  0.00     0.102 A 
HETATM   15  O   UNL     1      22.547  -1.911   7.698  1.00  0.00    -0.346 OA
HETATM   16  C   UNL     1      20.984  -2.712   6.021  1.00  0.00     0.102 A 
HETATM   17  C   UNL     1      23.601  -2.202   6.786  1.00  0.00     0.202 C 
HETATM   18  C   UNL     1      23.175  -2.000   5.339  1.00  0.00     0.202 C 
HETATM   19  O   UNL     1      21.925  -2.631   5.042  1.00  0.00    -0.346 OA
HETATM   20  C   UNL     1      19.681  -3.158   5.700  1.00  0.00     0.052 A 
ENDBRANCH  10  11
BRANCH   6  21
HETATM   21  N   UNL     1      17.705  -7.862   8.745  1.00  0.00    -0.357 N 
HETATM   22  C   UNL     1      18.870  -7.329   9.451  1.00  0.00     0.151 C 
HETATM   23  C   UNL     1      18.573  -7.243  10.955  1.00  0.00     0.187 C 
HETATM   24  O   UNL     1      18.109  -8.485  11.481  1.00  0.00    -0.388 OA
HETATM   25  C   UNL     1      17.050  -9.086  10.738  1.00  0.00     0.187 C 
HETATM   26  C   UNL     1      17.393  -9.201   9.268  1.00  0.00     0.151 C 
ENDBRANCH   6  21
TORSDOF 2
ENDMDL
MODEL 8
REMARK VINA RESULT:    -7.899      1.846      6.455
REMARK INTER + INTRA:          -9.259
REMARK INTER:                  -8.906
REMARK INTRA:                  -0.352
REMARK UNBOUND:                -0.436
REMARK  2 active torsions:
REMARK  status: ('A' for Active; 'I' for Inactive)
REMARK    1  A    between atoms: C_4  and  C_20 
REMARK    2  A    between atoms: C_11  and  N_12 
ROOT
HETATM    1  C   UNL     1      18.182  -5.565   9.578  1.00  0.00     0.089 A 
HETATM    2  C   UNL     1      20.089  -4.074   9.899  1.00  0.00     0.065 A 
HETATM    3  O   UNL     1      16.836  -7.222  10.545  1.00  0.00    -0.287 OA
HETATM    4  C   UNL     1      17.104  -6.494   9.571  1.00  0.00     0.196 C 
HETATM    5  C   UNL     1      16.304  -6.522   8.363  1.00  0.00     0.112 C 
HETATM    6  C   UNL     1      16.517  -5.629   7.393  1.00  0.00     0.150 C 
HETATM    7  O   UNL     1      17.591  -4.793   7.419  1.00  0.00    -0.291 OA
HETATM    8  C   UNL     1      18.398  -4.740   8.524  1.00  0.00     0.110 A 
HETATM    9  S   UNL     1      19.314  -5.303  10.824  1.00  0.00    -0.094 SA
HETATM   10  C   UNL     1      19.542  -3.837   8.670  1.00  0.00     0.016 A 
ENDROOT
BRANCH  10  11
HETATM   11  C   UNL     1      19.966  -2.845   7.689  1.00  0.00    -0.020 A 
HETATM   12  C   UNL     1      19.871  -3.086   6.293  1.00  0.00     0.015 A 
HETATM   13  C   UNL     1      20.235  -2.143   5.320  1.00  0.00     0.040 A 
HETATM   14  C   UNL     1      20.687  -0.880   5.705  1.00  0.00     0.102 A 
HETATM   15  O   UNL     1      21.034   0.031   4.739  1.00  0.00    -0.346 OA
HETATM   16  C   UNL     1      20.779  -0.588   7.073  1.00  0.00     0.102 A 
HETATM   17  C   UNL     1      21.110   1.389   5.156  1.00  0.00     0.202 C 
HETATM   18  C   UNL     1      21.769   1.531   6.520  1.00  0.00     0.202 C 
HETATM   19  O   UNL     1      21.224   0.629   7.490  1.00  0.00    -0.346 OA
HETATM   20  C   UNL     1      20.412  -1.561   8.031  1.00  0.00     0.052 A 
ENDBRANCH  10  11
BRANCH   6  21
HETATM   21  N   UNL     1      15.931  -5.632   6.100  1.00  0.00    -0.357 N 
HETATM   22  C   UNL     1      15.542  -6.812   5.328  1.00  0.00     0.151 C 
HETATM   23  C   UNL     1      14.016  -6.846   5.161  1.00  0.00     0.187 C 
HETATM   24  O   UNL     1      13.510  -5.624   4.625  1.00  0.00    -0.388 OA
HETATM   25  C   UNL     1      13.972  -4.448   5.287  1.00  0.00     0.187 C 
HETATM   26  C   UNL     1      15.482  -4.423   5.392  1.00  0.00     0.151 C 
ENDBRANCH   6  21
TORSDOF 2
ENDMDL
MODEL 9
REMARK VINA RESULT:    -7.870      1.958      6.721
REMARK INTER + INTRA:          -9.227
REMARK INTER:                  -8.617
REMARK INTRA:                  -0.610
REMARK UNBOUND:                -0.436
REMARK  2 active torsions:
REMARK  status: ('A' for Active; 'I' for Inactive)
REMARK    1  A    between atoms: C_4  and  C_20 
REMARK    2  A    between atoms: C_11  and  N_12 
ROOT
HETATM    1  C   UNL     1      19.201  -4.956  10.210  1.00  0.00     0.089 A 
HETATM    2  C   UNL     1      21.170  -3.513  10.228  1.00  0.00     0.065 A 
HETATM    3  O   UNL     1      17.856  -6.412  11.462  1.00  0.00    -0.287 OA
HETATM    4  C   UNL     1      18.094  -5.834  10.385  1.00  0.00     0.196 C 
HETATM    5  C   UNL     1      17.229  -5.994   9.234  1.00  0.00     0.112 C 
HETATM    6  C   UNL     1      17.417  -5.248   8.141  1.00  0.00     0.150 C 
HETATM    7  O   UNL     1      18.517  -4.460   7.998  1.00  0.00    -0.291 OA
HETATM    8  C   UNL     1      19.385  -4.291   9.044  1.00  0.00     0.110 A 
HETATM    9  S   UNL     1      20.407  -4.573  11.350  1.00  0.00    -0.094 SA
HETATM   10  C   UNL     1      20.564  -3.422   9.007  1.00  0.00     0.016 A 
ENDROOT
BRANCH  10  11
HETATM   11  C   UNL     1      20.965  -2.589   7.880  1.00  0.00    -0.020 A 
HETATM   12  C   UNL     1      20.357  -1.331   7.627  1.00  0.00     0.015 A 
HETATM   13  C   UNL     1      20.739  -0.486   6.575  1.00  0.00     0.040 A 
HETATM   14  C   UNL     1      21.790  -0.850   5.732  1.00  0.00     0.102 A 
HETATM   15  O   UNL     1      22.153  -0.008   4.711  1.00  0.00    -0.346 OA
HETATM   16  C   UNL     1      22.436  -2.074   5.955  1.00  0.00     0.102 A 
HETATM   17  C   UNL     1      23.439  -0.229   4.143  1.00  0.00     0.202 C 
HETATM   18  C   UNL     1      23.738  -1.711   3.968  1.00  0.00     0.202 C 
HETATM   19  O   UNL     1      23.459  -2.471   5.150  1.00  0.00    -0.346 OA
HETATM   20  C   UNL     1      22.023  -2.910   7.018  1.00  0.00     0.052 A 
ENDBRANCH  10  11
BRANCH   6  21
HETATM   21  N   UNL     1      16.761  -5.403   6.891  1.00  0.00    -0.357 N 
HETATM   22  C   UNL     1      16.654  -6.639   6.116  1.00  0.00     0.151 C 
HETATM   23  C   UNL     1      15.188  -7.091   6.053  1.00  0.00     0.187 C 
HETATM   24  O   UNL     1      14.329  -6.052   5.586  1.00  0.00    -0.388 OA
HETATM   25  C   UNL     1      14.498  -4.799   6.247  1.00  0.00     0.187 C 
HETATM   26  C   UNL     1      15.946  -4.360   6.250  1.00  0.00     0.151 C 
ENDBRANCH   6  21
TORSDOF 2
ENDMDL
MODEL 10
REMARK VINA RESULT:    -7.648      2.790      7.430
REMARK INTER + INTRA:          -8.979
REMARK INTER:                  -8.352
REMARK INTRA:                  -0.627
REMARK UNBOUND:                -0.436
REMARK  2 active torsions:
REMARK  status: ('A' for Active; 'I' for Inactive)
REMARK    1  A    between atoms: C_4  and  C_20 
REMARK    2  A    between atoms: C_11  and  N_12 
ROOT
HETATM    1  C   UNL     1      15.705  -5.301   6.537  1.00  0.00     0.089 A 
HETATM    2  C   UNL     1      16.706  -3.167   5.901  1.00  0.00     0.065 A 
HETATM    3  O   UNL     1      13.815  -6.679   6.371  1.00  0.00    -0.287 OA
HETATM    4  C   UNL     1      14.967  -6.489   6.805  1.00  0.00     0.196 C 
HETATM    5  C   UNL     1      15.653  -7.492   7.594  1.00  0.00     0.112 C 
HETATM    6  C   UNL     1      16.939  -7.330   7.919  1.00  0.00     0.150 C 
HETATM    7  O   UNL     1      17.589  -6.157   7.686  1.00  0.00    -0.291 OA
HETATM    8  C   UNL     1      16.982  -5.162   6.968  1.00  0.00     0.110 A 
HETATM    9  S   UNL     1      15.182  -3.934   5.666  1.00  0.00    -0.094 SA
HETATM   10  C   UNL     1      17.617  -3.889   6.619  1.00  0.00     0.016 A 
ENDROOT
BRANCH  10  11
HETATM   11  C   UNL     1      18.986  -3.509   6.946  1.00  0.00    -0.020 A 
HETATM   12  C   UNL     1      19.885  -3.027   5.958  1.00  0.00     0.015 A 
HETATM   13  C   UNL     1      21.196  -2.619   6.240  1.00  0.00     0.040 A 
HETATM   14  C   UNL     1      21.669  -2.643   7.554  1.00  0.00     0.102 A 
HETATM   15  O   UNL     1      22.954  -2.235   7.811  1.00  0.00    -0.346 OA
HETATM   16  C   UNL     1      20.811  -3.092   8.568  1.00  0.00     0.102 A 
HETATM   17  C   UNL     1      23.251  -1.914   9.165  1.00  0.00     0.202 C 
HETATM   18  C   UNL     1      22.621  -2.903  10.136  1.00  0.00     0.202 C 
HETATM   19  O   UNL     1      21.237  -3.140   9.859  1.00  0.00    -0.346 OA
HETATM   20  C   UNL     1      19.497  -3.505   8.252  1.00  0.00     0.052 A 
ENDBRANCH  10  11
BRANCH   6  21
HETATM   21  N   UNL     1      17.691  -8.138   8.812  1.00  0.00    -0.357 N 
HETATM   22  C   UNL     1      18.914  -7.746   9.513  1.00  0.00     0.151 C 
HETATM   23  C   UNL     1      18.653  -7.692  11.025  1.00  0.00     0.187 C 
HETATM   24  O   UNL     1      18.082  -8.905  11.513  1.00  0.00    -0.388 OA
HETATM   25  C   UNL     1      16.958  -9.373  10.771  1.00  0.00     0.187 C 
HETATM   26  C   UNL     1      17.263  -9.461   9.291  1.00  0.00     0.151 C 
ENDBRANCH   6  21
TORSDOF 2
ENDMDL
MODEL 11
REMARK VINA RESULT:    -7.594      2.573      4.867
REMARK INTER + INTRA:          -8.918
REMARK INTER:                  -8.177
REMARK INTRA:                  -0.741
REMARK UNBOUND:                -0.436
REMARK  2 active torsions:
REMARK  status: ('A' for Active; 'I' for Inactive)
REMARK    1  A    between atoms: C_4  and  C_20 
REMARK    2  A    between atoms: C_11  and  N_12 
ROOT
HETATM    1  C   UNL     1      20.884  -2.890   8.020  1.00  0.00     0.089 A 
HETATM    2  C   UNL     1      19.740  -2.809   5.865  1.00  0.00     0.065 A 
HETATM    3  O   UNL     1      22.740  -2.168   9.255  1.00  0.00    -0.287 OA
HETATM    4  C   UNL     1      21.682  -2.822   9.197  1.00  0.00     0.196 C 
HETATM    5  C   UNL     1      21.170  -3.537  10.348  1.00  0.00     0.112 C 
HETATM    6  C   UNL     1      19.961  -4.103  10.307  1.00  0.00     0.150 C 
HETATM    7  O   UNL     1      19.255  -4.189   9.146  1.00  0.00    -0.291 OA
HETATM    8  C   UNL     1      19.702  -3.554   8.018  1.00  0.00     0.110 A 
HETATM    9  S   UNL     1      21.212  -2.186   6.505  1.00  0.00    -0.094 SA
HETATM   10  C   UNL     1      18.989  -3.541   6.739  1.00  0.00     0.016 A 
ENDROOT
BRANCH  10  11
HETATM   11  C   UNL     1      17.693  -4.162   6.487  1.00  0.00    -0.020 A 
HETATM   12  C   UNL     1      16.526  -3.387   6.252  1.00  0.00     0.015 A 
HETATM   13  C   UNL     1      15.271  -3.946   5.972  1.00  0.00     0.040 A 
HETATM   14  C   UNL     1      15.129  -5.332   5.878  1.00  0.00     0.102 A 
HETATM   15  O   UNL     1      13.893  -5.860   5.598  1.00  0.00    -0.346 OA
HETATM   16  C   UNL     1      16.257  -6.138   6.083  1.00  0.00     0.102 A 
HETATM   17  C   UNL     1      13.877  -7.207   5.139  1.00  0.00     0.202 C 
HETATM   18  C   UNL     1      14.856  -8.083   5.907  1.00  0.00     0.202 C 
HETATM   19  O   UNL     1      16.157  -7.493   6.009  1.00  0.00    -0.346 OA
HETATM   20  C   UNL     1      17.507  -5.546   6.372  1.00  0.00     0.052 A 
ENDBRANCH  10  11
BRANCH   6  21
HETATM   21  N   UNL     1      19.398  -4.964  11.286  1.00  0.00    -0.357 N 
HETATM   22  C   UNL     1      17.979  -5.090  11.617  1.00  0.00     0.151 C 
HETATM   23  C   UNL     1      17.476  -6.488  11.232  1.00  0.00     0.187 C 
HETATM   24  O   UNL     1      18.284  -7.520  11.795  1.00  0.00    -0.388 OA
HETATM   25  C   UNL     1      19.686  -7.357  11.589  1.00  0.00     0.187 C 
HETATM   26  C   UNL     1      20.158  -5.985  12.023  1.00  0.00     0.151 C 
ENDBRANCH   6  21
TORSDOF 2
ENDMDL
MODEL 12
REMARK VINA RESULT:    -7.422      3.209      6.423
REMARK INTER + INTRA:          -8.726
REMARK INTER:                  -8.294
REMARK INTRA:                  -0.432
REMARK UNBOUND:                -0.436
REMARK  2 active torsions:
REMARK  status: ('A' for Active; 'I' for Inactive)
REMARK    1  A    between atoms: C_4  and  C_20 
REMARK    2  A    between atoms: C_11  and  N_12 
ROOT
HETATM    1  C   UNL     1      15.780  -5.702   6.434  1.00  0.00     0.089 A 
HETATM    2  C   UNL     1      15.639  -8.101   6.864  1.00  0.00     0.065 A 
HETATM    3  O   UNL     1      14.883  -3.893   5.244  1.00  0.00    -0.287 OA
HETATM    4  C   UNL     1      15.714  -4.329   6.063  1.00  0.00     0.196 C 
HETATM    5  C   UNL     1      16.657  -3.451   6.725  1.00  0.00     0.112 C 
HETATM    6  C   UNL     1      17.434  -3.915   7.708  1.00  0.00     0.150 C 
HETATM    7  O   UNL     1      17.501  -5.244   7.994  1.00  0.00    -0.291 OA
HETATM    8  C   UNL     1      16.652  -6.126   7.381  1.00  0.00     0.110 A 
HETATM    9  S   UNL     1      14.835  -6.984   5.830  1.00  0.00    -0.094 SA
HETATM   10  C   UNL     1      16.609  -7.563   7.661  1.00  0.00     0.016 A 
ENDROOT
BRANCH  10  11
HETATM   11  C   UNL     1      17.428  -8.257   8.649  1.00  0.00    -0.020 A 
HETATM   12  C   UNL     1      18.776  -7.884   8.897  1.00  0.00     0.015 A 
HETATM   13  C   UNL     1      19.583  -8.502   9.862  1.00  0.00     0.040 A 
HETATM   14  C   UNL     1      19.061  -9.519  10.663  1.00  0.00     0.102 A 
HETATM   15  O   UNL     1      19.865 -10.110  11.606  1.00  0.00    -0.346 OA
HETATM   16  C   UNL     1      17.728  -9.909  10.469  1.00  0.00     0.102 A 
HETATM   17  C   UNL     1      19.199 -10.842  12.628  1.00  0.00     0.202 C 
HETATM   18  C   UNL     1      18.042 -11.664  12.080  1.00  0.00     0.202 C 
HETATM   19  O   UNL     1      17.184 -10.903  11.223  1.00  0.00    -0.346 OA
HETATM   20  C   UNL     1      16.941  -9.272   9.483  1.00  0.00     0.052 A 
ENDBRANCH  10  11
BRANCH   6  21
HETATM   21  N   UNL     1      18.506  -3.225   8.332  1.00  0.00    -0.357 N 
HETATM   22  C   UNL     1      18.921  -3.351   9.729  1.00  0.00     0.151 C 
HETATM   23  C   UNL     1      20.319  -3.982   9.803  1.00  0.00     0.187 C 
HETATM   24  O   UNL     1      21.263  -3.285   8.991  1.00  0.00    -0.388 OA
HETATM   25  C   UNL     1      20.831  -3.043   7.654  1.00  0.00     0.187 C 
HETATM   26  C   UNL     1      19.472  -2.378   7.616  1.00  0.00     0.151 C 
ENDBRANCH   6  21
TORSDOF 2
ENDMDL
MODEL 13
REMARK VINA RESULT:    -7.377      2.794      7.098
REMARK INTER + INTRA:          -8.675
REMARK INTER:                  -8.077
REMARK INTRA:                  -0.598
REMARK UNBOUND:                -0.436
REMARK  2 active torsions:
REMARK  status: ('A' for Active; 'I' for Inactive)
REMARK    1  A    between atoms: C_4  and  C_20 
REMARK    2  A    between atoms: C_11  and  N_12 
ROOT
HETATM    1  C   UNL     1      20.081  -3.022   7.015  1.00  0.00     0.089 A 
HETATM    2  C   UNL     1      21.317  -2.986   9.120  1.00  0.00     0.065 A 
HETATM    3  O   UNL     1      20.123  -2.479   4.735  1.00  0.00    -0.287 OA
HETATM    4  C   UNL     1      19.516  -2.961   5.710  1.00  0.00     0.196 C 
HETATM    5  C   UNL     1      18.191  -3.529   5.570  1.00  0.00     0.112 C 
HETATM    6  C   UNL     1      17.623  -4.175   6.592  1.00  0.00     0.150 C 
HETATM    7  O   UNL     1      18.176  -4.164   7.835  1.00  0.00    -0.291 OA
HETATM    8  C   UNL     1      19.416  -3.618   8.035  1.00  0.00     0.110 A 
HETATM    9  S   UNL     1      21.598  -2.429   7.515  1.00  0.00    -0.094 SA
HETATM   10  C   UNL     1      20.118  -3.607   9.320  1.00  0.00     0.016 A 
ENDROOT
BRANCH  10  11
HETATM   11  C   UNL     1      19.625  -4.201  10.558  1.00  0.00    -0.020 A 
HETATM   12  C   UNL     1      20.340  -5.226  11.231  1.00  0.00     0.015 A 
HETATM   13  C   UNL     1      19.917  -5.797  12.440  1.00  0.00     0.040 A 
HETATM   14  C   UNL     1      18.754  -5.336  13.062  1.00  0.00     0.102 A 
HETATM   15  O   UNL     1      18.359  -5.904  14.247  1.00  0.00    -0.346 OA
HETATM   16  C   UNL     1      18.025  -4.311  12.445  1.00  0.00     0.102 A 
HETATM   17  C   UNL     1      17.419  -5.161  15.015  1.00  0.00     0.202 C 
HETATM   18  C   UNL     1      16.340  -4.533  14.144  1.00  0.00     0.202 C 
HETATM   19  O   UNL     1      16.881  -3.841  13.013  1.00  0.00    -0.346 OA
HETATM   20  C   UNL     1      18.472  -3.761  11.222  1.00  0.00     0.052 A 
ENDBRANCH  10  11
BRANCH   6  21
HETATM   21  N   UNL     1      16.282  -4.637   6.657  1.00  0.00    -0.357 N 
HETATM   22  C   UNL     1      15.087  -3.888   6.266  1.00  0.00     0.151 C 
HETATM   23  C   UNL     1      14.430  -4.555   5.049  1.00  0.00     0.187 C 
HETATM   24  O   UNL     1      14.184  -5.943   5.268  1.00  0.00    -0.388 OA
HETATM   25  C   UNL     1      15.303  -6.673   5.766  1.00  0.00     0.187 C 
HETATM   26  C   UNL     1      15.899  -6.017   6.993  1.00  0.00     0.151 C 
ENDBRANCH   6  21
TORSDOF 2
ENDMDL
MODEL 14
REMARK VINA RESULT:    -7.366      3.151      4.828
REMARK INTER + INTRA:          -8.663
REMARK INTER:                  -8.373
REMARK INTRA:                  -0.291
REMARK UNBOUND:                -0.436
REMARK  2 active torsions:
REMARK  status: ('A' for Active; 'I' for Inactive)
REMARK    1  A    between atoms: C_4  and  C_20 
REMARK    2  A    between atoms: C_11  and  N_12 
ROOT
HETATM    1  C   UNL     1      17.439  -8.437  10.196  1.00  0.00     0.089 A 
HETATM    2  C   UNL     1      16.369  -8.670   8.014  1.00  0.00     0.065 A 
HETATM    3  O   UNL     1      18.383  -9.568  12.020  1.00  0.00    -0.287 OA
HETATM    4  C   UNL     1      18.073  -8.495  11.470  1.00  0.00     0.196 C 
HETATM    5  C   UNL     1      18.371  -7.217  12.083  1.00  0.00     0.112 C 
HETATM    6  C   UNL     1      18.168  -6.081  11.409  1.00  0.00     0.150 C 
HETATM    7  O   UNL     1      17.513  -6.071  10.216  1.00  0.00    -0.291 OA
HETATM    8  C   UNL     1      17.182  -7.248   9.599  1.00  0.00     0.110 A 
HETATM    9  S   UNL     1      16.940  -9.748   9.229  1.00  0.00    -0.094 SA
HETATM   10  C   UNL     1      16.528  -7.342   8.292  1.00  0.00     0.016 A 
ENDROOT
BRANCH  10  11
HETATM   11  C   UNL     1      16.168  -6.211   7.444  1.00  0.00    -0.020 A 
HETATM   12  C   UNL     1      16.896  -4.992   7.475  1.00  0.00     0.015 A 
HETATM   13  C   UNL     1      16.603  -3.896   6.651  1.00  0.00     0.040 A 
HETATM   14  C   UNL     1      15.571  -3.982   5.715  1.00  0.00     0.102 A 
HETATM   15  O   UNL     1      15.303  -2.901   4.913  1.00  0.00    -0.346 OA
HETATM   16  C   UNL     1      14.837  -5.173   5.632  1.00  0.00     0.102 A 
HETATM   17  C   UNL     1      14.530  -3.162   3.747  1.00  0.00     0.202 C 
HETATM   18  C   UNL     1      13.389  -4.130   4.023  1.00  0.00     0.202 C 
HETATM   19  O   UNL     1      13.817  -5.293   4.739  1.00  0.00    -0.346 OA
HETATM   20  C   UNL     1      15.150  -6.258   6.482  1.00  0.00     0.052 A 
ENDBRANCH  10  11
BRANCH   6  21
HETATM   21  N   UNL     1      18.258  -4.764  11.929  1.00  0.00    -0.357 N 
HETATM   22  C   UNL     1      17.139  -3.913  12.334  1.00  0.00     0.151 C 
HETATM   23  C   UNL     1      17.190  -3.673  13.850  1.00  0.00     0.187 C 
HETATM   24  O   UNL     1      18.461  -3.177  14.269  1.00  0.00    -0.388 OA
HETATM   25  C   UNL     1      19.578  -3.921  13.786  1.00  0.00     0.187 C 
HETATM   26  C   UNL     1      19.522  -4.100  12.284  1.00  0.00     0.151 C 
ENDBRANCH   6  21
TORSDOF 2
ENDMDL
MODEL 15
REMARK VINA RESULT:    -7.354      2.371      6.339
REMARK INTER + INTRA:          -8.650
REMARK INTER:                  -7.999
REMARK INTRA:                  -0.651
REMARK UNBOUND:                -0.436
REMARK  2 active torsions:
REMARK  status: ('A' for Active; 'I' for Inactive)
REMARK    1  A    between atoms: C_4  and  C_20 
REMARK    2  A    between atoms: C_11  and  N_12 
ROOT
HETATM    1  C   UNL     1      16.225  -5.559   7.079  1.00  0.00     0.089 A 
HETATM    2  C   UNL     1      16.380  -7.596   8.416  1.00  0.00     0.065 A 
HETATM    3  O   UNL     1      14.875  -4.274   5.658  1.00  0.00    -0.287 OA
HETATM    4  C   UNL     1      15.957  -4.430   6.255  1.00  0.00     0.196 C 
HETATM    5  C   UNL     1      17.013  -3.442   6.177  1.00  0.00     0.112 C 
HETATM    6  C   UNL     1      18.100  -3.555   6.945  1.00  0.00     0.150 C 
HETATM    7  O   UNL     1      18.339  -4.677   7.678  1.00  0.00    -0.291 OA
HETATM    8  C   UNL     1      17.387  -5.657   7.769  1.00  0.00     0.110 A 
HETATM    9  S   UNL     1      15.210  -6.897   7.363  1.00  0.00    -0.094 SA
HETATM   10  C   UNL     1      17.527  -6.872   8.575  1.00  0.00     0.016 A 
ENDROOT
BRANCH  10  11
HETATM   11  C   UNL     1      18.669  -7.199   9.421  1.00  0.00    -0.020 A 
HETATM   12  C   UNL     1      19.367  -8.429   9.292  1.00  0.00     0.015 A 
HETATM   13  C   UNL     1      20.490  -8.765  10.061  1.00  0.00     0.040 A 
HETATM   14  C   UNL     1      20.998  -7.855  10.990  1.00  0.00     0.102 A 
HETATM   15  O   UNL     1      22.101  -8.199  11.731  1.00  0.00    -0.346 OA
HETATM   16  C   UNL     1      20.355  -6.618  11.140  1.00  0.00     0.102 A 
HETATM   17  C   UNL     1      22.794  -7.126  12.360  1.00  0.00     0.202 C 
HETATM   18  C   UNL     1      21.839  -6.104  12.958  1.00  0.00     0.202 C 
HETATM   19  O   UNL     1      20.813  -5.708  12.041  1.00  0.00    -0.346 OA
HETATM   20  C   UNL     1      19.219  -6.311  10.356  1.00  0.00     0.052 A 
ENDBRANCH  10  11
BRANCH   6  21
HETATM   21  N   UNL     1      19.277  -2.765   6.863  1.00  0.00    -0.357 N 
HETATM   22  C   UNL     1      20.043  -2.232   7.990  1.00  0.00     0.151 C 
HETATM   23  C   UNL     1      21.430  -2.888   8.034  1.00  0.00     0.187 C 
HETATM   24  O   UNL     1      22.111  -2.782   6.785  1.00  0.00    -0.388 OA
HETATM   25  C   UNL     1      21.341  -3.184   5.653  1.00  0.00     0.187 C 
HETATM   26  C   UNL     1      19.999  -2.484   5.613  1.00  0.00     0.151 C 
ENDBRANCH   6  21
TORSDOF 2
ENDMDL
MODEL 16
REMARK VINA RESULT:    -7.165      3.380      5.152
REMARK INTER + INTRA:          -8.439
REMARK INTER:                  -8.034
REMARK INTRA:                  -0.405
REMARK UNBOUND:                -0.436
REMARK  2 active torsions:
REMARK  status: ('A' for Active; 'I' for Inactive)
REMARK    1  A    between atoms: C_4  and  C_20 
REMARK    2  A    between atoms: C_11  and  N_12 
ROOT
HETATM    1  C   UNL     1      18.198  -9.409  11.623  1.00  0.00     0.089 A 
HETATM    2  C   UNL     1      17.159 -10.234   9.573  1.00  0.00     0.065 A 
HETATM    3  O   UNL     1      19.246  -9.999  13.635  1.00  0.00    -0.287 OA
HETATM    4  C   UNL     1      18.832  -9.114  12.862  1.00  0.00     0.196 C 
HETATM    5  C   UNL     1      19.003  -7.707  13.164  1.00  0.00     0.112 C 
HETATM    6  C   UNL     1      18.689  -6.780  12.253  1.00  0.00     0.150 C 
HETATM    7  O   UNL     1      18.038  -7.105  11.103  1.00  0.00    -0.291 OA
HETATM    8  C   UNL     1      17.826  -8.418  10.777  1.00  0.00     0.110 A 
HETATM    9  S   UNL     1      17.832 -10.947  10.989  1.00  0.00    -0.094 SA
HETATM   10  C   UNL     1      17.186  -8.869   9.539  1.00  0.00     0.016 A 
ENDROOT
BRANCH  10  11
HETATM   11  C   UNL     1      16.718  -8.002   8.464  1.00  0.00    -0.020 A 
HETATM   12  C   UNL     1      15.986  -8.510   7.359  1.00  0.00     0.015 A 
HETATM   13  C   UNL     1      15.489  -7.703   6.325  1.00  0.00     0.040 A 
HETATM   14  C   UNL     1      15.676  -6.320   6.366  1.00  0.00     0.102 A 
HETATM   15  O   UNL     1      15.179  -5.547   5.347  1.00  0.00    -0.346 OA
HETATM   16  C   UNL     1      16.376  -5.769   7.448  1.00  0.00     0.102 A 
HETATM   17  C   UNL     1      15.054  -4.156   5.620  1.00  0.00     0.202 C 
HETATM   18  C   UNL     1      16.251  -3.616   6.389  1.00  0.00     0.202 C 
HETATM   19  O   UNL     1      16.588  -4.427   7.520  1.00  0.00    -0.346 OA
HETATM   20  C   UNL     1      16.872  -6.608   8.472  1.00  0.00     0.052 A 
ENDBRANCH  10  11
BRANCH   6  21
HETATM   21  N   UNL     1      18.649  -5.376  12.459  1.00  0.00    -0.357 N 
HETATM   22  C   UNL     1      18.882  -4.345  11.447  1.00  0.00     0.151 C 
HETATM   23  C   UNL     1      17.589  -3.556  11.200  1.00  0.00     0.187 C 
HETATM   24  O   UNL     1      17.034  -3.047  12.412  1.00  0.00    -0.388 OA
HETATM   25  C   UNL     1      16.908  -4.009  13.458  1.00  0.00     0.187 C 
HETATM   26  C   UNL     1      18.211  -4.736  13.709  1.00  0.00     0.151 C 
ENDBRANCH   6  21
TORSDOF 2
ENDMDL
MODEL 17
REMARK VINA RESULT:    -7.048      2.991      6.551
REMARK INTER + INTRA:          -8.308
REMARK INTER:                  -7.727
REMARK INTRA:                  -0.581
REMARK UNBOUND:                -0.436
REMARK  2 active torsions:
REMARK  status: ('A' for Active; 'I' for Inactive)
REMARK    1  A    between atoms: C_4  and  C_20 
REMARK    2  A    between atoms: C_11  and  N_12 
ROOT
HETATM    1  C   UNL     1      17.090  -6.650   8.010  1.00  0.00     0.089 A 
HETATM    2  C   UNL     1      16.814  -7.407  10.314  1.00  0.00     0.065 A 
HETATM    3  O   UNL     1      16.620  -7.094   5.756  1.00  0.00    -0.287 OA
HETATM    4  C   UNL     1      17.148  -6.364   6.616  1.00  0.00     0.196 C 
HETATM    5  C   UNL     1      17.836  -5.142   6.252  1.00  0.00     0.112 C 
HETATM    6  C   UNL     1      18.260  -4.300   7.198  1.00  0.00     0.150 C 
HETATM    7  O   UNL     1      18.231  -4.638   8.516  1.00  0.00    -0.291 OA
HETATM    8  C   UNL     1      17.616  -5.793   8.919  1.00  0.00     0.110 A 
HETATM    9  S   UNL     1      16.381  -8.005   8.759  1.00  0.00    -0.094 SA
HETATM   10  C   UNL     1      17.484  -6.216  10.315  1.00  0.00     0.016 A 
ENDROOT
BRANCH  10  11
HETATM   11  C   UNL     1      17.946  -5.462  11.474  1.00  0.00    -0.020 A 
HETATM   12  C   UNL     1      19.300  -5.055  11.609  1.00  0.00     0.015 A 
HETATM   13  C   UNL     1      19.775  -4.300  12.691  1.00  0.00     0.040 A 
HETATM   14  C   UNL     1      18.895  -3.878  13.689  1.00  0.00     0.102 A 
HETATM   15  O   UNL     1      19.378  -3.134  14.737  1.00  0.00    -0.346 OA
HETATM   16  C   UNL     1      17.544  -4.237  13.589  1.00  0.00     0.102 A 
HETATM   17  C   UNL     1      18.410  -2.419  15.497  1.00  0.00     0.202 C 
HETATM   18  C   UNL     1      17.155  -3.244  15.742  1.00  0.00     0.202 C 
HETATM   19  O   UNL     1      16.656  -3.854  14.546  1.00  0.00    -0.346 OA
HETATM   20  C   UNL     1      17.096  -5.007  12.491  1.00  0.00     0.052 A 
ENDBRANCH  10  11
BRANCH   6  21
HETATM   21  N   UNL     1      19.082  -3.158   7.004  1.00  0.00    -0.357 N 
HETATM   22  C   UNL     1      19.671  -2.327   8.053  1.00  0.00     0.151 C 
HETATM   23  C   UNL     1      21.201  -2.459   8.026  1.00  0.00     0.187 C 
HETATM   24  O   UNL     1      21.736  -2.202   6.729  1.00  0.00    -0.388 OA
HETATM   25  C   UNL     1      21.097  -2.912   5.671  1.00  0.00     0.187 C 
HETATM   26  C   UNL     1      19.596  -2.722   5.697  1.00  0.00     0.151 C 
ENDBRANCH   6  21
TORSDOF 2
ENDMDL
MODEL 18
REMARK VINA RESULT:    -7.039      3.539      6.997
REMARK INTER + INTRA:          -8.298
REMARK INTER:                  -7.735
REMARK INTRA:                  -0.563
REMARK UNBOUND:                -0.436
REMARK  2 active torsions:
REMARK  status: ('A' for Active; 'I' for Inactive)
REMARK    1  A    between atoms: C_4  and  C_20 
REMARK    2  A    between atoms: C_11  and  N_12 
ROOT
HETATM    1  C   UNL     1      19.326  -4.254   9.006  1.00  0.00     0.089 A 
HETATM    2  C   UNL     1      20.025  -5.550  10.953  1.00  0.00     0.065 A 
HETATM    3  O   UNL     1      19.571  -2.240   7.831  1.00  0.00    -0.287 OA
HETATM    4  C   UNL     1      19.040  -3.362   7.934  1.00  0.00     0.196 C 
HETATM    5  C   UNL     1      18.110  -3.852   6.937  1.00  0.00     0.112 C 
HETATM    6  C   UNL     1      17.672  -5.113   6.987  1.00  0.00     0.150 C 
HETATM    7  O   UNL     1      17.930  -5.914   8.056  1.00  0.00    -0.291 OA
HETATM    8  C   UNL     1      18.782  -5.494   9.043  1.00  0.00     0.110 A 
HETATM    9  S   UNL     1      20.350  -3.975  10.338  1.00  0.00    -0.094 SA
HETATM   10  C   UNL     1      19.165  -6.302  10.204  1.00  0.00     0.016 A 
ENDROOT
BRANCH  10  11
HETATM   11  C   UNL     1      18.733  -7.671  10.461  1.00  0.00    -0.020 A 
HETATM   12  C   UNL     1      17.361  -8.039  10.432  1.00  0.00     0.015 A 
HETATM   13  C   UNL     1      16.909  -9.351  10.638  1.00  0.00     0.040 A 
HETATM   14  C   UNL     1      17.827 -10.381  10.854  1.00  0.00     0.102 A 
HETATM   15  O   UNL     1      17.366 -11.659  11.049  1.00  0.00    -0.346 OA
HETATM   16  C   UNL     1      19.194 -10.070  10.871  1.00  0.00     0.102 A 
HETATM   17  C   UNL     1      18.319 -12.702  10.878  1.00  0.00     0.202 C 
HETATM   18  C   UNL     1      19.670 -12.345  11.480  1.00  0.00     0.202 C 
HETATM   19  O   UNL     1      20.119 -11.043  11.087  1.00  0.00    -0.346 OA
HETATM   20  C   UNL     1      19.619  -8.737  10.668  1.00  0.00     0.052 A 
ENDBRANCH  10  11
BRANCH   6  21
HETATM   21  N   UNL     1      16.647  -5.682   6.186  1.00  0.00    -0.357 N 
HETATM   22  C   UNL     1      16.625  -7.041   5.644  1.00  0.00     0.151 C 
HETATM   23  C   UNL     1      15.483  -7.840   6.287  1.00  0.00     0.187 C 
HETATM   24  O   UNL     1      14.231  -7.165   6.178  1.00  0.00    -0.388 OA
HETATM   25  C   UNL     1      14.255  -5.799   6.589  1.00  0.00     0.187 C 
HETATM   26  C   UNL     1      15.361  -5.028   5.901  1.00  0.00     0.151 C 
ENDBRANCH   6  21
TORSDOF 2
ENDMDL
MODEL 19
REMARK VINA RESULT:    -6.915      3.227      6.197
REMARK INTER + INTRA:          -8.160
REMARK INTER:                  -7.681
REMARK INTRA:                  -0.480
REMARK UNBOUND:                -0.436
REMARK  2 active torsions:
REMARK  status: ('A' for Active; 'I' for Inactive)
REMARK    1  A    between atoms: C_4  and  C_20 
REMARK    2  A    between atoms: C_11  and  N_12 
ROOT
HETATM    1  C   UNL     1      17.537  -5.650   8.973  1.00  0.00     0.089 A 
HETATM    2  C   UNL     1      17.284  -4.807   6.696  1.00  0.00     0.065 A 
HETATM    3  O   UNL     1      16.750  -7.173  10.572  1.00  0.00    -0.287 OA
HETATM    4  C   UNL     1      17.540  -6.262  10.258  1.00  0.00     0.196 C 
HETATM    5  C   UNL     1      18.549  -5.784  11.181  1.00  0.00     0.112 C 
HETATM    6  C   UNL     1      19.479  -4.916  10.773  1.00  0.00     0.150 C 
HETATM    7  O   UNL     1      19.407  -4.319   9.553  1.00  0.00    -0.291 OA
HETATM    8  C   UNL     1      18.458  -4.711   8.646  1.00  0.00     0.110 A 
HETATM    9  S   UNL     1      16.475  -5.966   7.679  1.00  0.00    -0.094 SA
HETATM   10  C   UNL     1      18.334  -4.169   7.291  1.00  0.00     0.016 A 
ENDROOT
BRANCH  10  11
HETATM   11  C   UNL     1      19.214  -3.169   6.697  1.00  0.00    -0.020 A 
HETATM   12  C   UNL     1      19.545  -3.191   5.316  1.00  0.00     0.015 A 
HETATM   13  C   UNL     1      20.359  -2.229   4.702  1.00  0.00     0.040 A 
HETATM   14  C   UNL     1      20.860  -1.159   5.446  1.00  0.00     0.102 A 
HETATM   15  O   UNL     1      21.651  -0.224   4.826  1.00  0.00    -0.346 OA
HETATM   16  C   UNL     1      20.544  -1.083   6.809  1.00  0.00     0.102 A 
HETATM   17  C   UNL     1      21.809   1.015   5.508  1.00  0.00     0.202 C 
HETATM   18  C   UNL     1      21.996   0.822   7.005  1.00  0.00     0.202 C 
HETATM   19  O   UNL     1      21.021  -0.062   7.571  1.00  0.00    -0.346 OA
HETATM   20  C   UNL     1      19.728  -2.073   7.403  1.00  0.00     0.052 A 
ENDBRANCH  10  11
BRANCH   6  21
HETATM   21  N   UNL     1      20.422  -4.242  11.593  1.00  0.00    -0.357 N 
HETATM   22  C   UNL     1      20.449  -4.235  13.055  1.00  0.00     0.151 C 
HETATM   23  C   UNL     1      21.708  -4.957  13.556  1.00  0.00     0.187 C 
HETATM   24  O   UNL     1      22.895  -4.434  12.964  1.00  0.00    -0.388 OA
HETATM   25  C   UNL     1      22.849  -4.318  11.543  1.00  0.00     0.187 C 
HETATM   26  C   UNL     1      21.622  -3.560  11.084  1.00  0.00     0.151 C 
ENDBRANCH   6  21
TORSDOF 2
ENDMDL
MODEL 20
REMARK VINA RESULT:    -6.910      3.490      5.640
REMARK INTER + INTRA:          -8.155
REMARK INTER:                  -7.534
REMARK INTRA:                  -0.621
REMARK UNBOUND:                -0.436
REMARK  2 active torsions:
REMARK  status: ('A' for Active; 'I' for Inactive)
REMARK    1  A    between atoms: C_4  and  C_20 
REMARK    2  A    between atoms: C_11  and  N_12 
ROOT
HETATM    1  C   UNL     1      20.637  -7.660  11.687  1.00  0.00     0.089 A 
HETATM    2  C   UNL     1      20.030  -8.700   9.564  1.00  0.00     0.065 A 
HETATM    3  O   UNL     1      22.123  -7.684  13.500  1.00  0.00    -0.287 OA
HETATM    4  C   UNL     1      21.135  -7.181  12.932  1.00  0.00     0.196 C 
HETATM    5  C   UNL     1      20.440  -6.041  13.493  1.00  0.00     0.112 C 
HETATM    6  C   UNL     1      19.481  -5.426  12.794  1.00  0.00     0.150 C 
HETATM    7  O   UNL     1      19.002  -5.948  11.633  1.00  0.00    -0.291 OA
HETATM    8  C   UNL     1      19.603  -7.041  11.067  1.00  0.00     0.110 A 
HETATM    9  S   UNL     1      21.211  -8.985  10.784  1.00  0.00    -0.094 SA
HETATM   10  C   UNL     1      19.197  -7.642   9.794  1.00  0.00     0.016 A 
ENDROOT
BRANCH  10  11
HETATM   11  C   UNL     1      18.131  -7.150   8.929  1.00  0.00    -0.020 A 
HETATM   12  C   UNL     1      17.014  -7.958   8.587  1.00  0.00     0.015 A 
HETATM   13  C   UNL     1      15.953  -7.510   7.788  1.00  0.00     0.040 A 
HETATM   14  C   UNL     1      15.941  -6.197   7.313  1.00  0.00     0.102 A 
HETATM   15  O   UNL     1      14.891  -5.775   6.536  1.00  0.00    -0.346 OA
HETATM   16  C   UNL     1      17.012  -5.355   7.641  1.00  0.00     0.102 A 
HETATM   17  C   UNL     1      14.733  -4.367   6.408  1.00  0.00     0.202 C 
HETATM   18  C   UNL     1      16.067  -3.657   6.228  1.00  0.00     0.202 C 
HETATM   19  O   UNL     1      17.044  -4.072   7.190  1.00  0.00    -0.346 OA
HETATM   20  C   UNL     1      18.073  -5.837   8.442  1.00  0.00     0.052 A 
ENDBRANCH  10  11
BRANCH   6  21
HETATM   21  N   UNL     1      18.611  -4.410  13.270  1.00  0.00    -0.357 N 
HETATM   22  C   UNL     1      17.232  -4.179  12.839  1.00  0.00     0.151 C 
HETATM   23  C   UNL     1      16.269  -4.456  14.002  1.00  0.00     0.187 C 
HETATM   24  O   UNL     1      16.626  -3.729  15.176  1.00  0.00    -0.388 OA
HETATM   25  C   UNL     1      17.998  -3.842  15.550  1.00  0.00     0.187 C 
HETATM   26  C   UNL     1      18.921  -3.516  14.396  1.00  0.00     0.151 C 
ENDBRANCH   6  21
TORSDOF 2
ENDMDL
