REMARK  11 active torsions:
REMARK  status: ('A' for Active; 'I' for Inactive)
REMARK    1  A    between atoms: C_1  and  C_2 
REMARK    2  A    between atoms: C_1  and  O_8 
REMARK    3  A    between atoms: C_2  and  C_3 
REMARK    4  A    between atoms: C_2  and  O_9 
REMARK    5  A    between atoms: C_3  and  C_4 
REMARK    6  A    between atoms: C_3  and  O_10 
REMARK    7  A    between atoms: C_4  and  C_5 
REMARK    8  A    between atoms: C_4  and  O_11 
REMARK    9  A    between atoms: C_5  and  C_6 
REMARK   10  A    between atoms: C_5  and  O_12 
REMARK   11  A    between atoms: C_6  and  O_13 
ROOT
HETATM    1  C   UNL     1       0.717   0.582   0.596  1.00  0.00     0.188 C 
ENDROOT
BRANCH   1   2
HETATM    2  C   UNL     1       0.075  -0.383   1.634  1.00  0.00     0.246 C 
BRANCH   2   3
HETATM    3  C   UNL     1       0.753  -1.723   1.663  1.00  0.00     0.172 C 
HETATM    4  O   UNL     1       1.832  -1.868   2.298  1.00  0.00    -0.648 OA
BRANCH   3   5
HETATM    5  O   UNL     1       0.215  -2.798   0.960  1.00  0.00    -0.774 OA
HETATM    6  H   UNL     1       0.675  -3.701   0.960  1.00  0.00     0.167 HD
ENDBRANCH   3   5
ENDBRANCH   2   3
BRANCH   2   7
HETATM    7  O   UNL     1      -1.299  -0.549   1.398  1.00  0.00    -0.382 OA
HETATM    8  H   UNL     1      -1.743   0.296   1.670  1.00  0.00     0.210 HD
ENDBRANCH   2   7
ENDBRANCH   1   2
BRANCH   1   9
HETATM    9  C   UNL     1       0.880   0.005  -0.842  1.00  0.00     0.180 C 
BRANCH   9  10
HETATM   10  C   UNL     1      -0.442  -0.423  -1.536  1.00  0.00     0.173 C 
BRANCH  10  11
HETATM   11  C   UNL     1      -1.433   0.741  -1.747  1.00  0.00     0.198 C 
BRANCH  11  12
HETATM   12  O   UNL     1      -2.552   0.305  -2.470  1.00  0.00    -0.398 OA
HETATM   13  H   UNL     1      -3.102  -0.236  -1.844  1.00  0.00     0.209 HD
ENDBRANCH  11  12
ENDBRANCH  10  11
BRANCH  10  14
HETATM   14  O   UNL     1      -0.155  -1.049  -2.764  1.00  0.00    -0.391 OA
HETATM   15  H   UNL     1       0.213  -0.361  -3.379  1.00  0.00     0.210 HD
ENDBRANCH  10  14
ENDBRANCH   9  10
BRANCH   9  16
HETATM   16  O   UNL     1       1.527   0.960  -1.648  1.00  0.00    -0.390 OA
HETATM   17  H   UNL     1       2.504   0.861  -1.499  1.00  0.00     0.210 HD
ENDBRANCH   9  16
ENDBRANCH   1   9
BRANCH   1  18
HETATM   18  O   UNL     1       1.988   0.963   1.063  1.00  0.00    -0.390 OA
HETATM   19  H   UNL     1       1.849   1.635   1.780  1.00  0.00     0.210 HD
ENDBRANCH   1  18
TORSDOF 11
