REMARK  2 active torsions:
REMARK  status: ('A' for Active; 'I' for Inactive)
REMARK    1  A    between atoms: C_6  and  N_9 
REMARK    2  A    between atoms: N_14  and  C_17 
ROOT
HETATM    1  C   UNL     1     -54.168 -12.297  27.072  1.00  0.00     0.030 A 
HETATM    2  C   UNL     1     -53.429 -12.243  25.887  1.00  0.00     0.003 A 
HETATM    3  C   UNL     1     -53.832 -12.979  24.753  1.00  0.00     0.018 A 
HETATM    4  C   UNL     1     -54.983 -13.746  24.870  1.00  0.00     0.050 A 
HETATM    5  C   UNL     1     -55.670 -14.570  23.985  1.00  0.00     0.262 A 
HETATM    6  N   UNL     1     -56.755 -15.130  24.506  1.00  0.00    -0.266 N 
HETATM    7  C   UNL     1     -55.319 -13.079  27.163  1.00  0.00     0.042 A 
HETATM    8  O   UNL     1     -55.288 -14.788  22.778  1.00  0.00    -0.267 OA
HETATM    9  C   UNL     1     -56.778 -14.636  25.744  1.00  0.00     0.264 A 
HETATM   10  C   UNL     1     -55.719 -13.790  26.050  1.00  0.00     0.074 A 
HETATM   11  O   UNL     1     -57.711 -14.935  26.554  1.00  0.00    -0.267 OA
ENDROOT
BRANCH   6  12
HETATM   12  C   UNL     1     -57.736 -16.044  23.896  1.00  0.00     0.189 C 
HETATM   13  C   UNL     1     -58.154 -15.448  22.579  1.00  0.00     0.247 C 
HETATM   14  N   UNL     1     -58.250 -16.234  21.508  1.00  0.00    -0.296 N 
HETATM   15  O   UNL     1     -58.393 -14.248  22.498  1.00  0.00    -0.271 OA
HETATM   16  C   UNL     1     -58.229 -17.568  21.549  1.00  0.00     0.224 C 
ATOM     17  HN  UNL     1     -58.346 -15.787  20.596  1.00  0.00     0.171 HD
HETATM   18  O   UNL     1     -58.343 -18.234  20.528  1.00  0.00    -0.273 OA
HETATM   19  C   UNL     1     -58.051 -18.247  22.892  1.00  0.00     0.106 C 
HETATM   20  C   UNL     1     -57.093 -17.407  23.719  1.00  0.00     0.045 C 
ENDBRANCH   6  12
BRANCH   7  21
HETATM   21  N   UNL     1     -56.078 -13.130  28.309  1.00  0.00    -0.398 N 
ATOM     22  HN2 UNL     1     -56.920 -13.702  28.376  1.00  0.00     0.156 HD
ATOM     23  HN1 UNL     1     -55.782 -12.604  29.132  1.00  0.00     0.156 HD
ENDBRANCH   7  21
TORSDOF 2
