MODEL 1
REMARK VINA RESULT:    -6.467      0.000      0.000
REMARK INTER + INTRA:          -7.672
REMARK INTER:                  -7.601
REMARK INTRA:                  -0.071
REMARK UNBOUND:                -0.071
REMARK  3 active torsions:
REMARK  status: ('A' for Active; 'I' for Inactive)
REMARK    1  A    between atoms: C_2  and  C_4 
REMARK    2  A    between atoms: C_4  and  C_5 
REMARK    3  A    between atoms: C_5  and  C_6 
ROOT
HETATM    1  C   UNL     1     -11.086 -53.910  -6.039  1.00  0.00     0.026 A 
HETATM    2  C   UNL     1     -11.544 -54.570  -4.928  1.00  0.00     0.114 A 
HETATM    3  N   UNL     1     -11.396 -55.873  -5.180  1.00  0.00    -0.360 N 
ATOM      4  HN  UNL     1     -11.653 -56.629  -4.546  1.00  0.00     0.166 HD
HETATM    5  C   UNL     1     -10.863 -56.030  -6.384  1.00  0.00     0.180 A 
HETATM    6  N   UNL     1     -10.688 -54.832  -6.907  1.00  0.00    -0.355 N 
ATOM      7  HN  UNL     1     -10.305 -54.643  -7.833  1.00  0.00     0.166 HD
ENDROOT
BRANCH   1   8
HETATM    8  C   UNL     1     -11.044 -52.404  -6.273  1.00  0.00     0.069 C 
BRANCH   8   9
HETATM    9  C   UNL     1     -12.431 -51.887  -6.673  1.00  0.00     0.119 C 
BRANCH   9  10
HETATM   10  C   UNL     1     -12.406 -50.776  -7.703  1.00  0.00     0.172 C 
HETATM   11  O   UNL     1     -12.028 -49.624  -7.344  1.00  0.00    -0.648 OA
HETATM   12  O   UNL     1     -12.782 -51.011  -8.891  1.00  0.00    -0.648 OA
ENDBRANCH   9  10
ENDBRANCH   8   9
ENDBRANCH   1   8
TORSDOF 3
ENDMDL
MODEL 2
REMARK VINA RESULT:    -5.982      0.702      1.052
REMARK INTER + INTRA:          -7.102
REMARK INTER:                  -7.028
REMARK INTRA:                  -0.074
REMARK UNBOUND:                -0.071
REMARK  3 active torsions:
REMARK  status: ('A' for Active; 'I' for Inactive)
REMARK    1  A    between atoms: C_2  and  C_4 
REMARK    2  A    between atoms: C_4  and  C_5 
REMARK    3  A    between atoms: C_5  and  C_6 
ROOT
HETATM    1  C   UNL     1     -11.316 -53.870  -6.067  1.00  0.00     0.026 A 
HETATM    2  C   UNL     1     -11.758 -54.301  -4.843  1.00  0.00     0.114 A 
HETATM    3  N   UNL     1     -11.752 -55.636  -4.892  1.00  0.00    -0.360 N 
ATOM      4  HN  UNL     1     -12.035 -56.255  -4.134  1.00  0.00     0.166 HD
HETATM    5  C   UNL     1     -11.319 -56.029  -6.082  1.00  0.00     0.180 A 
HETATM    6  N   UNL     1     -11.066 -54.950  -6.797  1.00  0.00    -0.355 N 
ATOM      7  HN  UNL     1     -10.732 -54.946  -7.760  1.00  0.00     0.166 HD
ENDROOT
BRANCH   1   8
HETATM    8  C   UNL     1     -11.149 -52.431  -6.539  1.00  0.00     0.069 C 
BRANCH   8   9
HETATM    9  C   UNL     1     -12.467 -51.661  -6.386  1.00  0.00     0.119 C 
BRANCH   9  10
HETATM   10  C   UNL     1     -12.479 -50.310  -7.071  1.00  0.00     0.172 C 
HETATM   11  O   UNL     1     -11.823 -50.165  -8.141  1.00  0.00    -0.648 OA
HETATM   12  O   UNL     1     -13.123 -49.348  -6.553  1.00  0.00    -0.648 OA
ENDBRANCH   9  10
ENDBRANCH   8   9
ENDBRANCH   1   8
TORSDOF 3
ENDMDL
MODEL 3
REMARK VINA RESULT:    -5.282      3.667      5.006
REMARK INTER + INTRA:          -6.280
REMARK INTER:                  -6.162
REMARK INTRA:                  -0.118
REMARK UNBOUND:                -0.071
REMARK  3 active torsions:
REMARK  status: ('A' for Active; 'I' for Inactive)
REMARK    1  A    between atoms: C_2  and  C_4 
REMARK    2  A    between atoms: C_4  and  C_5 
REMARK    3  A    between atoms: C_5  and  C_6 
ROOT
HETATM    1  C   UNL     1     -12.336 -51.702  -6.705  1.00  0.00     0.026 A 
HETATM    2  C   UNL     1     -12.099 -50.610  -7.499  1.00  0.00     0.114 A 
HETATM    3  N   UNL     1     -12.819 -49.610  -6.983  1.00  0.00    -0.360 N 
ATOM      4  HN  UNL     1     -12.861 -48.661  -7.354  1.00  0.00     0.166 HD
HETATM    5  C   UNL     1     -13.469 -50.044  -5.913  1.00  0.00     0.180 A 
HETATM    6  N   UNL     1     -13.181 -51.321  -5.755  1.00  0.00    -0.355 N 
ATOM      7  HN  UNL     1     -13.550 -51.922  -5.019  1.00  0.00     0.166 HD
ENDROOT
BRANCH   1   8
HETATM    8  C   UNL     1     -11.767 -53.107  -6.865  1.00  0.00     0.069 C 
BRANCH   8   9
HETATM    9  C   UNL     1     -11.090 -53.560  -5.566  1.00  0.00     0.119 C 
BRANCH   9  10
HETATM   10  C   UNL     1     -11.641 -54.852  -4.998  1.00  0.00     0.172 C 
HETATM   11  O   UNL     1     -11.338 -55.942  -5.563  1.00  0.00    -0.648 OA
HETATM   12  O   UNL     1     -12.406 -54.820  -3.988  1.00  0.00    -0.648 OA
ENDBRANCH   9  10
ENDBRANCH   8   9
ENDBRANCH   1   8
TORSDOF 3
ENDMDL
MODEL 4
REMARK VINA RESULT:    -4.950     11.273     12.256
REMARK INTER + INTRA:          -5.889
REMARK INTER:                  -5.739
REMARK INTRA:                  -0.150
REMARK UNBOUND:                -0.071
REMARK  3 active torsions:
REMARK  status: ('A' for Active; 'I' for Inactive)
REMARK    1  A    between atoms: C_2  and  C_4 
REMARK    2  A    between atoms: C_4  and  C_5 
REMARK    3  A    between atoms: C_5  and  C_6 
ROOT
HETATM    1  C   UNL     1     -21.639 -57.882  -2.096  1.00  0.00     0.026 A 
HETATM    2  C   UNL     1     -22.878 -58.425  -2.314  1.00  0.00     0.114 A 
HETATM    3  N   UNL     1     -23.709 -57.398  -2.509  1.00  0.00    -0.360 N 
ATOM      4  HN  UNL     1     -24.709 -57.474  -2.691  1.00  0.00     0.166 HD
HETATM    5  C   UNL     1     -23.029 -56.263  -2.428  1.00  0.00     0.180 A 
HETATM    6  N   UNL     1     -21.772 -56.563  -2.165  1.00  0.00    -0.355 N 
ATOM      7  HN  UNL     1     -21.020 -55.887  -2.034  1.00  0.00     0.166 HD
ENDROOT
BRANCH   1   8
HETATM    8  C   UNL     1     -20.338 -58.621  -1.808  1.00  0.00     0.069 C 
BRANCH   8   9
HETATM    9  C   UNL     1     -20.245 -59.891  -2.663  1.00  0.00     0.119 C 
BRANCH   9  10
HETATM   10  C   UNL     1     -19.685 -59.663  -4.052  1.00  0.00     0.172 C 
HETATM   11  O   UNL     1     -19.994 -60.474  -4.972  1.00  0.00    -0.648 OA
HETATM   12  O   UNL     1     -18.905 -58.686  -4.265  1.00  0.00    -0.648 OA
ENDBRANCH   9  10
ENDBRANCH   8   9
ENDBRANCH   1   8
TORSDOF 3
ENDMDL
MODEL 5
REMARK VINA RESULT:    -4.580      1.951      2.643
REMARK INTER + INTRA:          -5.454
REMARK INTER:                  -5.370
REMARK INTRA:                  -0.085
REMARK UNBOUND:                -0.071
REMARK  3 active torsions:
REMARK  status: ('A' for Active; 'I' for Inactive)
REMARK    1  A    between atoms: C_2  and  C_4 
REMARK    2  A    between atoms: C_4  and  C_5 
REMARK    3  A    between atoms: C_5  and  C_6 
ROOT
HETATM    1  C   UNL     1     -11.816 -52.065  -6.887  1.00  0.00     0.026 A 
HETATM    2  C   UNL     1     -12.082 -53.388  -7.127  1.00  0.00     0.114 A 
HETATM    3  N   UNL     1     -11.030 -54.070  -6.668  1.00  0.00    -0.360 N 
ATOM      4  HN  UNL     1     -10.922 -55.084  -6.705  1.00  0.00     0.166 HD
HETATM    5  C   UNL     1     -10.148 -53.224  -6.155  1.00  0.00     0.180 A 
HETATM    6  N   UNL     1     -10.626 -52.004  -6.303  1.00  0.00    -0.355 N 
ATOM      7  HN  UNL     1     -10.155 -51.147  -6.012  1.00  0.00     0.166 HD
ENDROOT
BRANCH   1   8
HETATM    8  C   UNL     1     -12.690 -50.865  -7.231  1.00  0.00     0.069 C 
BRANCH   8   9
HETATM    9  C   UNL     1     -12.542 -49.773  -6.164  1.00  0.00     0.119 C 
BRANCH   9  10
HETATM   10  C   UNL     1     -13.199 -48.457  -6.528  1.00  0.00     0.172 C 
HETATM   11  O   UNL     1     -13.110 -47.490  -5.719  1.00  0.00    -0.648 OA
HETATM   12  O   UNL     1     -13.841 -48.354  -7.616  1.00  0.00    -0.648 OA
ENDBRANCH   9  10
ENDBRANCH   8   9
ENDBRANCH   1   8
TORSDOF 3
ENDMDL
MODEL 6
REMARK VINA RESULT:    -4.487     11.400     12.360
REMARK INTER + INTRA:          -5.345
REMARK INTER:                  -5.196
REMARK INTRA:                  -0.149
REMARK UNBOUND:                -0.071
REMARK  3 active torsions:
REMARK  status: ('A' for Active; 'I' for Inactive)
REMARK    1  A    between atoms: C_2  and  C_4 
REMARK    2  A    between atoms: C_4  and  C_5 
REMARK    3  A    between atoms: C_5  and  C_6 
ROOT
HETATM    1  C   UNL     1     -22.242 -58.093  -2.184  1.00  0.00     0.026 A 
HETATM    2  C   UNL     1     -21.590 -56.932  -1.861  1.00  0.00     0.114 A 
HETATM    3  N   UNL     1     -22.470 -55.945  -2.045  1.00  0.00    -0.360 N 
ATOM      4  HN  UNL     1     -22.285 -54.953  -1.895  1.00  0.00     0.166 HD
HETATM    5  C   UNL     1     -23.623 -56.456  -2.455  1.00  0.00     0.180 A 
HETATM    6  N   UNL     1     -23.474 -57.763  -2.549  1.00  0.00    -0.355 N 
ATOM      7  HN  UNL     1     -24.194 -58.417  -2.855  1.00  0.00     0.166 HD
ENDROOT
BRANCH   1   8
HETATM    8  C   UNL     1     -21.682 -59.511  -2.158  1.00  0.00     0.069 C 
BRANCH   8   9
HETATM    9  C   UNL     1     -20.167 -59.491  -2.396  1.00  0.00     0.119 C 
BRANCH   9  10
HETATM   10  C   UNL     1     -19.771 -59.371  -3.853  1.00  0.00     0.172 C 
HETATM   11  O   UNL     1     -18.887 -58.526  -4.175  1.00  0.00    -0.648 OA
HETATM   12  O   UNL     1     -20.340 -60.097  -4.723  1.00  0.00    -0.648 OA
ENDBRANCH   9  10
ENDBRANCH   8   9
ENDBRANCH   1   8
TORSDOF 3
ENDMDL
MODEL 7
REMARK VINA RESULT:    -4.452     12.077     12.981
REMARK INTER + INTRA:          -5.304
REMARK INTER:                  -5.024
REMARK INTRA:                  -0.280
REMARK UNBOUND:                -0.071
REMARK  3 active torsions:
REMARK  status: ('A' for Active; 'I' for Inactive)
REMARK    1  A    between atoms: C_2  and  C_4 
REMARK    2  A    between atoms: C_4  and  C_5 
REMARK    3  A    between atoms: C_5  and  C_6 
ROOT
HETATM    1  C   UNL     1     -19.942 -60.156  -3.244  1.00  0.00     0.026 A 
HETATM    2  C   UNL     1     -19.980 -58.787  -3.290  1.00  0.00     0.114 A 
HETATM    3  N   UNL     1     -20.471 -58.386  -2.116  1.00  0.00    -0.360 N 
ATOM      4  HN  UNL     1     -20.629 -57.416  -1.842  1.00  0.00     0.166 HD
HETATM    5  C   UNL     1     -20.722 -59.445  -1.360  1.00  0.00     0.180 A 
HETATM    6  N   UNL     1     -20.410 -60.521  -2.056  1.00  0.00    -0.355 N 
ATOM      7  HN  UNL     1     -20.511 -61.483  -1.732  1.00  0.00     0.166 HD
ENDROOT
BRANCH   1   8
HETATM    8  C   UNL     1     -19.475 -61.110  -4.336  1.00  0.00     0.069 C 
BRANCH   8   9
HETATM    9  C   UNL     1     -18.877 -62.380  -3.717  1.00  0.00     0.119 C 
BRANCH   9  10
HETATM   10  C   UNL     1     -19.801 -63.579  -3.747  1.00  0.00     0.172 C 
HETATM   11  O   UNL     1     -20.980 -63.449  -3.307  1.00  0.00    -0.648 OA
HETATM   12  O   UNL     1     -19.378 -64.690  -4.188  1.00  0.00    -0.648 OA
ENDBRANCH   9  10
ENDBRANCH   8   9
ENDBRANCH   1   8
TORSDOF 3
ENDMDL
MODEL 8
REMARK VINA RESULT:    -4.387     11.756     12.839
REMARK INTER + INTRA:          -5.228
REMARK INTER:                  -4.934
REMARK INTRA:                  -0.294
REMARK UNBOUND:                -0.071
REMARK  3 active torsions:
REMARK  status: ('A' for Active; 'I' for Inactive)
REMARK    1  A    between atoms: C_2  and  C_4 
REMARK    2  A    between atoms: C_4  and  C_5 
REMARK    3  A    between atoms: C_5  and  C_6 
ROOT
HETATM    1  C   UNL     1      -1.772 -57.798  -5.989  1.00  0.00     0.026 A 
HETATM    2  C   UNL     1      -2.027 -56.951  -7.036  1.00  0.00     0.114 A 
HETATM    3  N   UNL     1      -1.590 -55.747  -6.658  1.00  0.00    -0.360 N 
ATOM      4  HN  UNL     1      -1.643 -54.897  -7.219  1.00  0.00     0.166 HD
HETATM    5  C   UNL     1      -1.076 -55.829  -5.439  1.00  0.00     0.180 A 
HETATM    6  N   UNL     1      -1.200 -57.077  -5.032  1.00  0.00    -0.355 N 
ATOM      7  HN  UNL     1      -0.903 -57.433  -4.124  1.00  0.00     0.166 HD
ENDROOT
BRANCH   1   8
HETATM    8  C   UNL     1      -2.088 -59.286  -5.900  1.00  0.00     0.069 C 
BRANCH   8   9
HETATM    9  C   UNL     1      -0.819 -60.116  -6.129  1.00  0.00     0.119 C 
BRANCH   9  10
HETATM   10  C   UNL     1      -0.057 -60.447  -4.862  1.00  0.00     0.172 C 
HETATM   11  O   UNL     1      -0.194 -61.596  -4.353  1.00  0.00    -0.648 OA
HETATM   12  O   UNL     1       0.682 -59.568  -4.324  1.00  0.00    -0.648 OA
ENDBRANCH   9  10
ENDBRANCH   8   9
ENDBRANCH   1   8
TORSDOF 3
ENDMDL
MODEL 9
REMARK VINA RESULT:    -4.336     10.117     10.866
REMARK INTER + INTRA:          -5.167
REMARK INTER:                  -5.092
REMARK INTRA:                  -0.076
REMARK UNBOUND:                -0.071
REMARK  3 active torsions:
REMARK  status: ('A' for Active; 'I' for Inactive)
REMARK    1  A    between atoms: C_2  and  C_4 
REMARK    2  A    between atoms: C_4  and  C_5 
REMARK    3  A    between atoms: C_5  and  C_6 
ROOT
HETATM    1  C   UNL     1      -1.854 -56.670  -6.304  1.00  0.00     0.026 A 
HETATM    2  C   UNL     1      -1.278 -57.158  -7.448  1.00  0.00     0.114 A 
HETATM    3  N   UNL     1      -1.328 -58.489  -7.353  1.00  0.00    -0.360 N 
ATOM      4  HN  UNL     1      -0.971 -59.144  -8.048  1.00  0.00     0.166 HD
HETATM    5  C   UNL     1      -1.913 -58.826  -6.212  1.00  0.00     0.180 A 
HETATM    6  N   UNL     1      -2.220 -57.715  -5.572  1.00  0.00    -0.355 N 
ATOM      7  HN  UNL     1      -2.670 -57.666  -4.658  1.00  0.00     0.166 HD
ENDROOT
BRANCH   1   8
HETATM    8  C   UNL     1      -2.037 -55.210  -5.906  1.00  0.00     0.069 C 
BRANCH   8   9
HETATM    9  C   UNL     1      -0.700 -54.463  -5.984  1.00  0.00     0.119 C 
BRANCH   9  10
HETATM   10  C   UNL     1      -0.725 -53.080  -5.365  1.00  0.00     0.172 C 
HETATM   11  O   UNL     1      -1.792 -52.680  -4.816  1.00  0.00    -0.648 OA
HETATM   12  O   UNL     1       0.306 -52.345  -5.425  1.00  0.00    -0.648 OA
ENDBRANCH   9  10
ENDBRANCH   8   9
ENDBRANCH   1   8
TORSDOF 3
ENDMDL
MODEL 10
REMARK VINA RESULT:    -4.313     11.532     12.414
REMARK INTER + INTRA:          -5.140
REMARK INTER:                  -5.002
REMARK INTRA:                  -0.138
REMARK UNBOUND:                -0.071
REMARK  3 active torsions:
REMARK  status: ('A' for Active; 'I' for Inactive)
REMARK    1  A    between atoms: C_2  and  C_4 
REMARK    2  A    between atoms: C_4  and  C_5 
REMARK    3  A    between atoms: C_5  and  C_6 
ROOT
HETATM    1  C   UNL     1     -21.861 -59.752  -2.040  1.00  0.00     0.026 A 
HETATM    2  C   UNL     1     -23.140 -60.218  -2.206  1.00  0.00     0.114 A 
HETATM    3  N   UNL     1     -23.122 -61.501  -1.839  1.00  0.00    -0.360 N 
ATOM      4  HN  UNL     1     -23.924 -62.131  -1.855  1.00  0.00     0.166 HD
HETATM    5  C   UNL     1     -21.898 -61.830  -1.452  1.00  0.00     0.180 A 
HETATM    6  N   UNL     1     -21.132 -60.765  -1.588  1.00  0.00    -0.355 N 
ATOM      7  HN  UNL     1     -20.134 -60.725  -1.378  1.00  0.00     0.166 HD
ENDROOT
BRANCH   1   8
HETATM    8  C   UNL     1     -21.338 -58.350  -2.328  1.00  0.00     0.069 C 
BRANCH   8   9
HETATM    9  C   UNL     1     -19.810 -58.364  -2.448  1.00  0.00     0.119 C 
BRANCH   9  10
HETATM   10  C   UNL     1     -19.300 -58.717  -3.831  1.00  0.00     0.172 C 
HETATM   11  O   UNL     1     -19.716 -59.778  -4.379  1.00  0.00    -0.648 OA
HETATM   12  O   UNL     1     -18.457 -57.963  -4.403  1.00  0.00    -0.648 OA
ENDBRANCH   9  10
ENDBRANCH   8   9
ENDBRANCH   1   8
TORSDOF 3
ENDMDL
MODEL 11
REMARK VINA RESULT:    -4.286     11.685     12.618
REMARK INTER + INTRA:          -5.109
REMARK INTER:                  -4.797
REMARK INTRA:                  -0.313
REMARK UNBOUND:                -0.071
REMARK  3 active torsions:
REMARK  status: ('A' for Active; 'I' for Inactive)
REMARK    1  A    between atoms: C_2  and  C_4 
REMARK    2  A    between atoms: C_4  and  C_5 
REMARK    3  A    between atoms: C_5  and  C_6 
ROOT
HETATM    1  C   UNL     1     -20.300 -62.340  -2.822  1.00  0.00     0.026 A 
HETATM    2  C   UNL     1     -20.706 -63.649  -2.840  1.00  0.00     0.114 A 
HETATM    3  N   UNL     1     -21.671 -63.754  -1.923  1.00  0.00    -0.360 N 
ATOM      4  HN  UNL     1     -22.175 -64.610  -1.691  1.00  0.00     0.166 HD
HETATM    5  C   UNL     1     -21.872 -62.571  -1.361  1.00  0.00     0.180 A 
HETATM    6  N   UNL     1     -21.027 -61.717  -1.903  1.00  0.00    -0.355 N 
ATOM      7  HN  UNL     1     -20.944 -60.731  -1.655  1.00  0.00     0.166 HD
ENDROOT
BRANCH   1   8
HETATM    8  C   UNL     1     -19.210 -61.694  -3.670  1.00  0.00     0.069 C 
BRANCH   8   9
HETATM    9  C   UNL     1     -19.763 -60.467  -4.405  1.00  0.00     0.119 C 
BRANCH   9  10
HETATM   10  C   UNL     1     -19.425 -59.145  -3.746  1.00  0.00     0.172 C 
HETATM   11  O   UNL     1     -18.648 -58.349  -4.346  1.00  0.00    -0.648 OA
HETATM   12  O   UNL     1     -19.905 -58.870  -2.606  1.00  0.00    -0.648 OA
ENDBRANCH   9  10
ENDBRANCH   8   9
ENDBRANCH   1   8
TORSDOF 3
ENDMDL
MODEL 12
REMARK VINA RESULT:    -4.277     11.470     11.986
REMARK INTER + INTRA:          -5.098
REMARK INTER:                  -4.945
REMARK INTRA:                  -0.153
REMARK UNBOUND:                -0.071
REMARK  3 active torsions:
REMARK  status: ('A' for Active; 'I' for Inactive)
REMARK    1  A    between atoms: C_2  and  C_4 
REMARK    2  A    between atoms: C_4  and  C_5 
REMARK    3  A    between atoms: C_5  and  C_6 
ROOT
HETATM    1  C   UNL     1     -20.139 -60.444  -2.807  1.00  0.00     0.026 A 
HETATM    2  C   UNL     1     -19.936 -60.135  -4.127  1.00  0.00     0.114 A 
HETATM    3  N   UNL     1     -19.671 -61.288  -4.745  1.00  0.00    -0.360 N 
ATOM      4  HN  UNL     1     -19.467 -61.392  -5.739  1.00  0.00     0.166 HD
HETATM    5  C   UNL     1     -19.712 -62.278  -3.864  1.00  0.00     0.180 A 
HETATM    6  N   UNL     1     -19.985 -61.757  -2.684  1.00  0.00    -0.355 N 
ATOM      7  HN  UNL     1     -20.066 -62.281  -1.813  1.00  0.00     0.166 HD
ENDROOT
BRANCH   1   8
HETATM    8  C   UNL     1     -20.462 -59.486  -1.667  1.00  0.00     0.069 C 
BRANCH   8   9
HETATM    9  C   UNL     1     -20.584 -58.051  -2.194  1.00  0.00     0.119 C 
BRANCH   9  10
HETATM   10  C   UNL     1     -22.008 -57.541  -2.281  1.00  0.00     0.172 C 
HETATM   11  O   UNL     1     -22.270 -56.391  -1.827  1.00  0.00    -0.648 OA
HETATM   12  O   UNL     1     -22.910 -58.277  -2.784  1.00  0.00    -0.648 OA
ENDBRANCH   9  10
ENDBRANCH   8   9
ENDBRANCH   1   8
TORSDOF 3
ENDMDL
MODEL 13
REMARK VINA RESULT:    -4.237     10.350     11.087
REMARK INTER + INTRA:          -5.051
REMARK INTER:                  -4.743
REMARK INTRA:                  -0.308
REMARK UNBOUND:                -0.071
REMARK  3 active torsions:
REMARK  status: ('A' for Active; 'I' for Inactive)
REMARK    1  A    between atoms: C_2  and  C_4 
REMARK    2  A    between atoms: C_4  and  C_5 
REMARK    3  A    between atoms: C_5  and  C_6 
ROOT
HETATM    1  C   UNL     1      -1.551 -57.842  -6.311  1.00  0.00     0.026 A 
HETATM    2  C   UNL     1      -1.998 -58.830  -7.149  1.00  0.00     0.114 A 
HETATM    3  N   UNL     1      -1.997 -59.957  -6.432  1.00  0.00    -0.360 N 
ATOM      4  HN  UNL     1      -2.273 -60.876  -6.777  1.00  0.00     0.166 HD
HETATM    5  C   UNL     1      -1.581 -59.694  -5.202  1.00  0.00     0.180 A 
HETATM    6  N   UNL     1      -1.300 -58.407  -5.137  1.00  0.00    -0.355 N 
ATOM      7  HN  UNL     1      -0.945 -57.922  -4.313  1.00  0.00     0.166 HD
ENDROOT
BRANCH   1   8
HETATM    8  C   UNL     1      -1.352 -56.366  -6.638  1.00  0.00     0.069 C 
BRANCH   8   9
HETATM    9  C   UNL     1      -2.236 -55.495  -5.737  1.00  0.00     0.119 C 
BRANCH   9  10
HETATM   10  C   UNL     1      -1.487 -54.801  -4.618  1.00  0.00     0.172 C 
HETATM   11  O   UNL     1      -0.780 -55.499  -3.836  1.00  0.00    -0.648 OA
HETATM   12  O   UNL     1      -1.595 -53.546  -4.471  1.00  0.00    -0.648 OA
ENDBRANCH   9  10
ENDBRANCH   8   9
ENDBRANCH   1   8
TORSDOF 3
ENDMDL
MODEL 14
REMARK VINA RESULT:    -4.076     11.243     12.047
REMARK INTER + INTRA:          -4.862
REMARK INTER:                  -4.741
REMARK INTRA:                  -0.121
REMARK UNBOUND:                -0.071
REMARK  3 active torsions:
REMARK  status: ('A' for Active; 'I' for Inactive)
REMARK    1  A    between atoms: C_2  and  C_4 
REMARK    2  A    between atoms: C_4  and  C_5 
REMARK    3  A    between atoms: C_5  and  C_6 
ROOT
HETATM    1  C   UNL     1     -19.700 -61.703  -4.033  1.00  0.00     0.026 A 
HETATM    2  C   UNL     1     -20.228 -62.310  -2.923  1.00  0.00     0.114 A 
HETATM    3  N   UNL     1     -20.004 -63.618  -3.069  1.00  0.00    -0.360 N 
ATOM      4  HN  UNL     1     -20.285 -64.342  -2.409  1.00  0.00     0.166 HD
HETATM    5  C   UNL     1     -19.359 -63.828  -4.208  1.00  0.00     0.180 A 
HETATM    6  N   UNL     1     -19.187 -62.661  -4.796  1.00  0.00    -0.355 N 
ATOM      7  HN  UNL     1     -18.731 -62.516  -5.697  1.00  0.00     0.166 HD
ENDROOT
BRANCH   1   8
HETATM    8  C   UNL     1     -19.700 -60.216  -4.368  1.00  0.00     0.069 C 
BRANCH   8   9
HETATM    9  C   UNL     1     -20.889 -59.518  -3.698  1.00  0.00     0.119 C 
BRANCH   9  10
HETATM   10  C   UNL     1     -20.504 -58.579  -2.573  1.00  0.00     0.172 C 
HETATM   11  O   UNL     1     -21.273 -58.480  -1.574  1.00  0.00    -0.648 OA
HETATM   12  O   UNL     1     -19.438 -57.898  -2.659  1.00  0.00    -0.648 OA
ENDBRANCH   9  10
ENDBRANCH   8   9
ENDBRANCH   1   8
TORSDOF 3
ENDMDL
MODEL 15
REMARK VINA RESULT:    -4.044     12.852     13.656
REMARK INTER + INTRA:          -4.825
REMARK INTER:                  -4.689
REMARK INTRA:                  -0.136
REMARK UNBOUND:                -0.071
REMARK  3 active torsions:
REMARK  status: ('A' for Active; 'I' for Inactive)
REMARK    1  A    between atoms: C_2  and  C_4 
REMARK    2  A    between atoms: C_4  and  C_5 
REMARK    3  A    between atoms: C_5  and  C_6 
ROOT
HETATM    1  C   UNL     1     -21.729 -58.294  -2.066  1.00  0.00     0.026 A 
HETATM    2  C   UNL     1     -23.056 -58.456  -2.367  1.00  0.00     0.114 A 
HETATM    3  N   UNL     1     -23.557 -57.229  -2.525  1.00  0.00    -0.360 N 
ATOM      4  HN  UNL     1     -24.528 -57.012  -2.750  1.00  0.00     0.166 HD
HETATM    5  C   UNL     1     -22.595 -56.335  -2.343  1.00  0.00     0.180 A 
HETATM    6  N   UNL     1     -21.487 -56.989  -2.052  1.00  0.00    -0.355 N 
ATOM      7  HN  UNL     1     -20.585 -56.559  -1.848  1.00  0.00     0.166 HD
ENDROOT
BRANCH   1   8
HETATM    8  C   UNL     1     -20.702 -59.382  -1.778  1.00  0.00     0.069 C 
BRANCH   8   9
HETATM    9  C   UNL     1     -20.865 -60.546  -2.764  1.00  0.00     0.119 C 
BRANCH   9  10
HETATM   10  C   UNL     1     -21.538 -61.768  -2.175  1.00  0.00     0.172 C 
HETATM   11  O   UNL     1     -21.703 -62.784  -2.909  1.00  0.00    -0.648 OA
HETATM   12  O   UNL     1     -21.942 -61.747  -0.973  1.00  0.00    -0.648 OA
ENDBRANCH   9  10
ENDBRANCH   8   9
ENDBRANCH   1   8
TORSDOF 3
ENDMDL
MODEL 16
REMARK VINA RESULT:    -4.021     12.216     13.230
REMARK INTER + INTRA:          -4.798
REMARK INTER:                  -4.531
REMARK INTRA:                  -0.266
REMARK UNBOUND:                -0.071
REMARK  3 active torsions:
REMARK  status: ('A' for Active; 'I' for Inactive)
REMARK    1  A    between atoms: C_2  and  C_4 
REMARK    2  A    between atoms: C_4  and  C_5 
REMARK    3  A    between atoms: C_5  and  C_6 
ROOT
HETATM    1  C   UNL     1     -20.450 -59.419  -2.243  1.00  0.00     0.026 A 
HETATM    2  C   UNL     1     -20.025 -58.122  -2.371  1.00  0.00     0.114 A 
HETATM    3  N   UNL     1     -19.255 -58.087  -3.461  1.00  0.00    -0.360 N 
ATOM      4  HN  UNL     1     -18.781 -57.260  -3.822  1.00  0.00     0.166 HD
HETATM    5  C   UNL     1     -19.204 -59.296  -4.002  1.00  0.00     0.180 A 
HETATM    6  N   UNL     1     -19.924 -60.106  -3.249  1.00  0.00    -0.355 N 
ATOM      7  HN  UNL     1     -20.055 -61.103  -3.414  1.00  0.00     0.166 HD
ENDROOT
BRANCH   1   8
HETATM    8  C   UNL     1     -21.344 -60.000  -1.153  1.00  0.00     0.069 C 
BRANCH   8   9
HETATM    9  C   UNL     1     -22.460 -60.849  -1.774  1.00  0.00     0.119 C 
BRANCH   9  10
HETATM   10  C   UNL     1     -22.140 -62.327  -1.859  1.00  0.00     0.172 C 
HETATM   11  O   UNL     1     -21.644 -62.780  -2.931  1.00  0.00    -0.648 OA
HETATM   12  O   UNL     1     -22.391 -63.084  -0.873  1.00  0.00    -0.648 OA
ENDBRANCH   9  10
ENDBRANCH   8   9
ENDBRANCH   1   8
TORSDOF 3
ENDMDL
MODEL 17
REMARK VINA RESULT:    -3.981     11.873     13.036
REMARK INTER + INTRA:          -4.750
REMARK INTER:                  -4.542
REMARK INTRA:                  -0.208
REMARK UNBOUND:                -0.071
REMARK  3 active torsions:
REMARK  status: ('A' for Active; 'I' for Inactive)
REMARK    1  A    between atoms: C_2  and  C_4 
REMARK    2  A    between atoms: C_4  and  C_5 
REMARK    3  A    between atoms: C_5  and  C_6 
ROOT
HETATM    1  C   UNL     1     -21.150 -60.457  -2.614  1.00  0.00     0.026 A 
HETATM    2  C   UNL     1     -21.241 -59.517  -3.607  1.00  0.00     0.114 A 
HETATM    3  N   UNL     1     -20.682 -58.405  -3.122  1.00  0.00    -0.360 N 
ATOM      4  HN  UNL     1     -20.599 -57.520  -3.621  1.00  0.00     0.166 HD
HETATM    5  C   UNL     1     -20.250 -58.633  -1.890  1.00  0.00     0.180 A 
HETATM    6  N   UNL     1     -20.548 -59.880  -1.581  1.00  0.00    -0.355 N 
ATOM      7  HN  UNL     1     -20.348 -60.331  -0.689  1.00  0.00     0.166 HD
ENDROOT
BRANCH   1   8
HETATM    8  C   UNL     1     -21.650 -61.897  -2.650  1.00  0.00     0.069 C 
BRANCH   8   9
HETATM    9  C   UNL     1     -20.480 -62.873  -2.486  1.00  0.00     0.119 C 
BRANCH   9  10
HETATM   10  C   UNL     1     -19.448 -62.795  -3.593  1.00  0.00     0.172 C 
HETATM   11  O   UNL     1     -18.334 -62.249  -3.347  1.00  0.00    -0.648 OA
HETATM   12  O   UNL     1     -19.721 -63.255  -4.742  1.00  0.00    -0.648 OA
ENDBRANCH   9  10
ENDBRANCH   8   9
ENDBRANCH   1   8
TORSDOF 3
ENDMDL
MODEL 18
REMARK VINA RESULT:    -3.901     11.131     11.954
REMARK INTER + INTRA:          -4.656
REMARK INTER:                  -4.360
REMARK INTRA:                  -0.296
REMARK UNBOUND:                -0.071
REMARK  3 active torsions:
REMARK  status: ('A' for Active; 'I' for Inactive)
REMARK    1  A    between atoms: C_2  and  C_4 
REMARK    2  A    between atoms: C_4  and  C_5 
REMARK    3  A    between atoms: C_5  and  C_6 
ROOT
HETATM    1  C   UNL     1      -1.595 -56.183  -5.902  1.00  0.00     0.026 A 
HETATM    2  C   UNL     1      -1.684 -54.817  -5.974  1.00  0.00     0.114 A 
HETATM    3  N   UNL     1      -1.183 -54.348  -4.828  1.00  0.00    -0.360 N 
ATOM      4  HN  UNL     1      -1.115 -53.363  -4.573  1.00  0.00     0.166 HD
HETATM    5  C   UNL     1      -0.788 -55.364  -4.074  1.00  0.00     0.180 A 
HETATM    6  N   UNL     1      -1.052 -56.478  -4.727  1.00  0.00    -0.355 N 
ATOM      7  HN  UNL     1      -0.868 -57.421  -4.383  1.00  0.00     0.166 HD
ENDROOT
BRANCH   1   8
HETATM    8  C   UNL     1      -2.041 -57.199  -6.946  1.00  0.00     0.069 C 
BRANCH   8   9
HETATM    9  C   UNL     1      -1.013 -58.331  -7.063  1.00  0.00     0.119 C 
BRANCH   9  10
HETATM   10  C   UNL     1      -1.419 -59.613  -6.366  1.00  0.00     0.172 C 
HETATM   11  O   UNL     1      -1.420 -60.690  -7.027  1.00  0.00    -0.648 OA
HETATM   12  O   UNL     1      -1.770 -59.583  -5.148  1.00  0.00    -0.648 OA
ENDBRANCH   9  10
ENDBRANCH   8   9
ENDBRANCH   1   8
TORSDOF 3
ENDMDL
MODEL 19
REMARK VINA RESULT:    -3.813     12.411     13.174
REMARK INTER + INTRA:          -4.553
REMARK INTER:                  -4.279
REMARK INTRA:                  -0.273
REMARK UNBOUND:                -0.071
REMARK  3 active torsions:
REMARK  status: ('A' for Active; 'I' for Inactive)
REMARK    1  A    between atoms: C_2  and  C_4 
REMARK    2  A    between atoms: C_4  and  C_5 
REMARK    3  A    between atoms: C_5  and  C_6 
ROOT
HETATM    1  C   UNL     1     -21.490 -60.573  -1.882  1.00  0.00     0.026 A 
HETATM    2  C   UNL     1     -20.986 -61.710  -2.457  1.00  0.00     0.114 A 
HETATM    3  N   UNL     1     -22.033 -62.508  -2.686  1.00  0.00    -0.360 N 
ATOM      4  HN  UNL     1     -21.986 -63.438  -3.103  1.00  0.00     0.166 HD
HETATM    5  C   UNL     1     -23.142 -61.903  -2.285  1.00  0.00     0.180 A 
HETATM    6  N   UNL     1     -22.804 -60.730  -1.785  1.00  0.00    -0.355 N 
ATOM      7  HN  UNL     1     -23.452 -60.051  -1.387  1.00  0.00     0.166 HD
ENDROOT
BRANCH   1   8
HETATM    8  C   UNL     1     -20.714 -59.347  -1.413  1.00  0.00     0.069 C 
BRANCH   8   9
HETATM    9  C   UNL     1     -20.960 -58.165  -2.358  1.00  0.00     0.119 C 
BRANCH   9  10
HETATM   10  C   UNL     1     -22.181 -57.338  -2.010  1.00  0.00     0.172 C 
HETATM   11  O   UNL     1     -22.038 -56.330  -1.261  1.00  0.00    -0.648 OA
HETATM   12  O   UNL     1     -23.319 -57.678  -2.454  1.00  0.00    -0.648 OA
ENDBRANCH   9  10
ENDBRANCH   8   9
ENDBRANCH   1   8
TORSDOF 3
ENDMDL
