REMARK  4 active torsions:
REMARK  status: ('A' for Active; 'I' for Inactive)
REMARK    1  A    between atoms: C_2  and  C_4 
REMARK    2  A    between atoms: C_4  and  C_9 
REMARK    3  A    between atoms: C_4  and  N_5 
REMARK    4  A    between atoms: C_9  and  C_10 
ROOT
HETATM    1  C   UNL     1      30.533  43.614  90.884  1.00  0.00     0.103 C 
ENDROOT
BRANCH   1   2
HETATM    2  C   UNL     1      29.161  43.103  90.374  1.00  0.00     0.029 A 
HETATM    3  C   UNL     1      28.637  43.125  89.082  1.00  0.00     0.115 A 
HETATM    4  N   UNL     1      27.439  42.567  89.123  1.00  0.00    -0.341 N 
HETATM    5  C   UNL     1      27.171  42.182  90.375  1.00  0.00     0.176 A 
ATOM      6  HN  UNL     1      26.816  42.449  88.324  1.00  0.00     0.167 HD
HETATM    7  S   UNL     1      25.799  41.437  90.844  1.00  0.00    -0.041 SA
HETATM    8  N   UNL     1      28.228  42.511  91.132  1.00  0.00    -0.335 N 
ATOM      9  HN  UNL     1      28.309  42.337  92.134  1.00  0.00     0.168 HD
ENDBRANCH   1   2
BRANCH   1  10
HETATM   10  C   UNL     1      31.233  44.728  90.073  1.00  0.00     0.294 C 
BRANCH  10  11
HETATM   11  N   UNL     1      32.492  45.193  90.676  1.00  0.00    -0.064 N 
HETATM   12  C   UNL     1      33.054  46.278  89.850  1.00  0.00     0.272 C 
HETATM   13  C   UNL     1      33.478  44.112  90.688  1.00  0.00     0.272 C 
HETATM   14  C   UNL     1      32.379  45.679  92.038  1.00  0.00     0.272 C 
ENDBRANCH  10  11
BRANCH  10  15
HETATM   15  C   UNL     1      30.239  45.892  89.882  1.00  0.00     0.205 C 
HETATM   16  O   UNL     1      29.609  46.264  90.893  1.00  0.00    -0.646 OA
HETATM   17  O   UNL     1      30.008  46.446  88.764  1.00  0.00    -0.646 OA
ENDBRANCH  10  15
ENDBRANCH   1  10
TORSDOF 4
