MODEL 1
REMARK VINA RESULT:   -11.014      0.000      0.000
REMARK INTER + INTRA:         -16.715
REMARK INTER:                 -16.165
REMARK INTRA:                  -0.550
REMARK UNBOUND:                -0.550
REMARK  8 active torsions:
REMARK  status: ('A' for Active; 'I' for Inactive)
REMARK    1  A    between atoms: C_4  and  N_38 
REMARK    2  A    between atoms: C_6  and  C_18 
REMARK    3  A    between atoms: C_9  and  N_33 
REMARK    4  A    between atoms: C_9  and  C_10 
REMARK    5  A    between atoms: C_12  and  C_13 
REMARK    6  A    between atoms: C_16  and  N_38 
REMARK    7  A    between atoms: C_27  and  S_47 
REMARK    8  A    between atoms: N_31  and  S_47 
ROOT
HETATM    1  C   UNL     1      12.936 -13.205   6.441  1.00  0.00     0.160 C 
HETATM    2  C   UNL     1      13.376 -14.194   7.481  1.00  0.00     0.061 C 
HETATM    3  N   UNL     1      13.761 -15.020   8.157  1.00  0.00    -0.197 NA
ENDROOT
BRANCH   1   4
HETATM    4  C   UNL     1      12.920 -13.732   4.977  1.00  0.00     0.098 A 
HETATM    5  C   UNL     1      14.217 -14.222   4.589  1.00  0.00     0.171 A 
HETATM    6  N   UNL     1      14.259 -13.016   3.695  1.00  0.00    -0.306 N 
HETATM    7  C   UNL     1      12.946 -12.557   4.191  1.00  0.00     0.171 A 
BRANCH   6   8
HETATM    8  S   UNL     1      14.829 -12.869   2.111  1.00  0.00     0.228 S 
HETATM    9  O   UNL     1      13.773 -12.294   1.327  1.00  0.00    -0.206 OA
HETATM   10  O   UNL     1      15.192 -14.174   1.613  1.00  0.00    -0.206 OA
BRANCH   8  11
HETATM   11  C   UNL     1      16.268 -11.738   2.046  1.00  0.00     0.159 C 
HETATM   12  C   UNL     1      17.518 -12.578   1.980  1.00  0.00     0.023 C 
ENDBRANCH   8  11
ENDBRANCH   6   8
BRANCH   4  13
HETATM   13  N   UNL     1      11.837 -14.609   4.904  1.00  0.00    -0.289 N 
HETATM   14  C   UNL     1      11.768 -15.856   5.328  1.00  0.00     0.126 A 
HETATM   15  C   UNL     1      10.480 -16.296   5.045  1.00  0.00     0.026 A 
HETATM   16  C   UNL     1       9.756 -15.260   4.490  1.00  0.00     0.122 A 
HETATM   17  N   UNL     1      10.643 -14.225   4.390  1.00  0.00    -0.308 N 
ATOM     18  HN  UNL     1      10.439 -13.308   3.992  1.00  0.00     0.186 HD
BRANCH  15  19
HETATM   19  C   UNL     1       9.798 -17.598   5.444  1.00  0.00     0.076 A 
HETATM   20  N   UNL     1       8.487 -17.524   5.651  1.00  0.00    -0.190 N 
HETATM   21  C   UNL     1       7.833 -18.581   6.054  1.00  0.00     0.684 A 
ATOM     22  HN  UNL     1       7.993 -16.645   5.496  1.00  0.00     0.184 HD
HETATM   23  N   UNL     1       8.390 -19.737   6.333  1.00  0.00    -0.175 N 
HETATM   24  C   UNL     1       9.709 -19.861   6.160  1.00  0.00     0.133 A 
ATOM     25  HN  UNL     1       7.831 -20.520   6.673  1.00  0.00     0.186 HD
HETATM   26  N   UNL     1      10.505 -20.927   6.365  1.00  0.00    -0.351 N 
HETATM   27  C   UNL     1      10.478 -18.801   5.712  1.00  0.00     0.038 A 
HETATM   28  C   UNL     1      11.769 -20.584   6.032  1.00  0.00     0.090 A 
ATOM     29  HN  UNL     1      10.206 -21.838   6.712  1.00  0.00     0.166 HD
HETATM   30  C   UNL     1      11.816 -19.285   5.627  1.00  0.00     0.034 A 
BRANCH  21  31
HETATM   31  N   UNL     1       6.430 -18.518   6.273  1.00  0.00    -0.191 N 
ATOM     32  HN  UNL     1       5.990 -19.341   6.684  1.00  0.00     0.184 HD
BRANCH  31  33
HETATM   33  C   UNL     1       5.576 -17.412   5.974  1.00  0.00     0.055 A 
HETATM   34  C   UNL     1       4.248 -17.696   6.185  1.00  0.00     0.073 A 
HETATM   35  C   UNL     1       3.303 -16.730   5.941  1.00  0.00     0.132 A 
HETATM   36  C   UNL     1       3.646 -15.490   5.474  1.00  0.00     0.047 A 
HETATM   37  F   UNL     1       2.008 -17.036   6.175  1.00  0.00    -0.205 F 
HETATM   38  C   UNL     1       4.972 -15.210   5.264  1.00  0.00     0.132 A 
HETATM   39  C   UNL     1       5.964 -16.162   5.500  1.00  0.00     0.073 A 
HETATM   40  F   UNL     1       5.414 -14.005   4.794  1.00  0.00    -0.205 F 
BRANCH  36  41
HETATM   41  C   UNL     1       2.554 -14.435   5.238  1.00  0.00    -0.042 C 
HETATM   42  C   UNL     1       2.310 -13.533   6.216  1.00  0.00     0.011 C 
HETATM   43  C   UNL     1       1.105 -12.425   5.875  1.00  0.00     0.300 C 
HETATM   44  N   UNL     1       0.200 -12.925   5.166  1.00  0.00     0.087 N 
HETATM   45  C   UNL     1      -0.693 -12.062   4.956  1.00  0.00     0.310 C 
HETATM   46  C   UNL     1       0.688 -13.561   3.825  1.00  0.00     0.277 C 
HETATM   47  C   UNL     1       1.666 -14.607   4.044  1.00  0.00     0.069 C 
ENDBRANCH  36  41
ENDBRANCH  31  33
ENDBRANCH  21  31
ENDBRANCH  15  19
ENDBRANCH   4  13
ENDBRANCH   1   4
TORSDOF 8
ENDMDL
MODEL 2
REMARK VINA RESULT:   -10.690      1.069      1.594
REMARK INTER + INTRA:         -16.239
REMARK INTER:                 -14.994
REMARK INTRA:                  -1.245
REMARK UNBOUND:                -0.550
REMARK  8 active torsions:
REMARK  status: ('A' for Active; 'I' for Inactive)
REMARK    1  A    between atoms: C_4  and  N_38 
REMARK    2  A    between atoms: C_6  and  C_18 
REMARK    3  A    between atoms: C_9  and  N_33 
REMARK    4  A    between atoms: C_9  and  C_10 
REMARK    5  A    between atoms: C_12  and  C_13 
REMARK    6  A    between atoms: C_16  and  N_38 
REMARK    7  A    between atoms: C_27  and  S_47 
REMARK    8  A    between atoms: N_31  and  S_47 
ROOT
HETATM    1  C   UNL     1      12.161 -12.747   6.688  1.00  0.00     0.160 C 
HETATM    2  C   UNL     1      10.779 -12.186   6.512  1.00  0.00     0.061 C 
HETATM    3  N   UNL     1       9.724 -11.850   6.263  1.00  0.00    -0.197 NA
ENDROOT
BRANCH   1   4
HETATM    4  C   UNL     1      12.738 -13.508   5.460  1.00  0.00     0.098 A 
HETATM    5  C   UNL     1      14.105 -13.897   5.688  1.00  0.00     0.171 A 
HETATM    6  N   UNL     1      14.434 -12.860   4.651  1.00  0.00    -0.306 N 
HETATM    7  C   UNL     1      13.011 -12.486   4.522  1.00  0.00     0.171 A 
BRANCH   6   8
HETATM    8  S   UNL     1      15.565 -12.911   3.398  1.00  0.00     0.228 S 
HETATM    9  O   UNL     1      15.396 -14.164   2.718  1.00  0.00    -0.206 OA
HETATM   10  O   UNL     1      16.893 -12.797   3.951  1.00  0.00    -0.206 OA
BRANCH   8  11
HETATM   11  C   UNL     1      15.258 -11.565   2.196  1.00  0.00     0.159 C 
HETATM   12  C   UNL     1      15.676 -10.265   2.834  1.00  0.00     0.023 C 
ENDBRANCH   8  11
ENDBRANCH   6   8
BRANCH   4  13
HETATM   13  N   UNL     1      11.811 -14.509   5.166  1.00  0.00    -0.289 N 
HETATM   14  C   UNL     1      11.636 -15.664   5.779  1.00  0.00     0.126 A 
HETATM   15  C   UNL     1      10.583 -16.297   5.129  1.00  0.00     0.026 A 
HETATM   16  C   UNL     1      10.090 -15.466   4.144  1.00  0.00     0.122 A 
HETATM   17  N   UNL     1      10.898 -14.365   4.175  1.00  0.00    -0.308 N 
ATOM     18  HN  UNL     1      10.826 -13.561   3.551  1.00  0.00     0.186 HD
BRANCH  15  19
HETATM   19  C   UNL     1       9.857 -17.584   5.500  1.00  0.00     0.076 A 
HETATM   20  N   UNL     1       8.549 -17.470   5.708  1.00  0.00    -0.190 N 
HETATM   21  C   UNL     1       7.859 -18.513   6.088  1.00  0.00     0.684 A 
ATOM     22  HN  UNL     1       8.085 -16.572   5.572  1.00  0.00     0.184 HD
HETATM   23  N   UNL     1       8.377 -19.693   6.343  1.00  0.00    -0.175 N 
HETATM   24  C   UNL     1       9.692 -19.857   6.168  1.00  0.00     0.133 A 
ATOM     25  HN  UNL     1       7.791 -20.463   6.665  1.00  0.00     0.186 HD
HETATM   26  N   UNL     1      10.451 -20.953   6.350  1.00  0.00    -0.351 N 
HETATM   27  C   UNL     1      10.496 -18.814   5.743  1.00  0.00     0.038 A 
HETATM   28  C   UNL     1      11.727 -20.645   6.026  1.00  0.00     0.090 A 
ATOM     29  HN  UNL     1      10.121 -21.861   6.678  1.00  0.00     0.166 HD
HETATM   30  C   UNL     1      11.817 -19.341   5.648  1.00  0.00     0.034 A 
BRANCH  21  31
HETATM   31  N   UNL     1       6.459 -18.408   6.308  1.00  0.00    -0.191 N 
ATOM     32  HN  UNL     1       6.006 -19.192   6.776  1.00  0.00     0.184 HD
BRANCH  31  33
HETATM   33  C   UNL     1       5.625 -17.308   5.936  1.00  0.00     0.055 A 
HETATM   34  C   UNL     1       4.287 -17.620   5.984  1.00  0.00     0.073 A 
HETATM   35  C   UNL     1       3.359 -16.663   5.653  1.00  0.00     0.132 A 
HETATM   36  C   UNL     1       3.730 -15.407   5.258  1.00  0.00     0.047 A 
HETATM   37  F   UNL     1       2.051 -16.996   5.727  1.00  0.00    -0.205 F 
HETATM   38  C   UNL     1       5.066 -15.100   5.211  1.00  0.00     0.132 A 
HETATM   39  C   UNL     1       6.042 -16.041   5.539  1.00  0.00     0.073 A 
HETATM   40  F   UNL     1       5.536 -13.876   4.823  1.00  0.00    -0.205 F 
BRANCH  36  41
HETATM   41  C   UNL     1       2.653 -14.364   4.920  1.00  0.00    -0.042 C 
HETATM   42  C   UNL     1       2.395 -14.105   3.617  1.00  0.00     0.011 C 
HETATM   43  C   UNL     1       1.210 -12.957   3.344  1.00  0.00     0.300 C 
HETATM   44  N   UNL     1       1.208 -12.070   4.230  1.00  0.00     0.087 N 
HETATM   45  C   UNL     1       0.317 -11.219   3.967  1.00  0.00     0.310 C 
HETATM   46  C   UNL     1       1.062 -12.599   5.692  1.00  0.00     0.277 C 
HETATM   47  C   UNL     1       2.117 -13.529   6.042  1.00  0.00     0.069 C 
ENDBRANCH  36  41
ENDBRANCH  31  33
ENDBRANCH  21  31
ENDBRANCH  15  19
ENDBRANCH   4  13
ENDBRANCH   1   4
TORSDOF 8
ENDMDL
MODEL 3
REMARK VINA RESULT:   -10.619      4.695     11.008
REMARK INTER + INTRA:         -16.135
REMARK INTER:                 -15.081
REMARK INTRA:                  -1.054
REMARK UNBOUND:                -0.550
REMARK  8 active torsions:
REMARK  status: ('A' for Active; 'I' for Inactive)
REMARK    1  A    between atoms: C_4  and  N_38 
REMARK    2  A    between atoms: C_6  and  C_18 
REMARK    3  A    between atoms: C_9  and  N_33 
REMARK    4  A    between atoms: C_9  and  C_10 
REMARK    5  A    between atoms: C_12  and  C_13 
REMARK    6  A    between atoms: C_16  and  N_38 
REMARK    7  A    between atoms: C_27  and  S_47 
REMARK    8  A    between atoms: N_31  and  S_47 
ROOT
HETATM    1  C   UNL     1       2.668 -15.522   4.417  1.00  0.00     0.160 C 
HETATM    2  C   UNL     1       2.853 -14.562   3.278  1.00  0.00     0.061 C 
HETATM    3  N   UNL     1       3.104 -13.781   2.493  1.00  0.00    -0.197 NA
ENDROOT
BRANCH   1   4
HETATM    4  C   UNL     1       3.395 -15.143   5.740  1.00  0.00     0.098 A 
HETATM    5  C   UNL     1       2.547 -15.371   6.880  1.00  0.00     0.171 A 
HETATM    6  N   UNL     1       2.506 -13.873   6.983  1.00  0.00    -0.306 N 
HETATM    7  C   UNL     1       3.336 -13.731   5.769  1.00  0.00     0.171 A 
BRANCH   6   8
HETATM    8  S   UNL     1       2.571 -12.885   8.351  1.00  0.00     0.228 S 
HETATM    9  O   UNL     1       2.328 -11.538   7.919  1.00  0.00    -0.206 OA
HETATM   10  O   UNL     1       3.871 -13.007   8.965  1.00  0.00    -0.206 OA
BRANCH   8  11
HETATM   11  C   UNL     1       1.258 -13.346   9.542  1.00  0.00     0.159 C 
HETATM   12  C   UNL     1       1.459 -12.531  10.795  1.00  0.00     0.023 C 
ENDBRANCH   8  11
ENDBRANCH   6   8
BRANCH   4  13
HETATM   13  N   UNL     1       4.626 -15.799   5.694  1.00  0.00    -0.289 N 
HETATM   14  C   UNL     1       5.830 -15.268   5.604  1.00  0.00     0.126 A 
HETATM   15  C   UNL     1       6.729 -16.329   5.613  1.00  0.00     0.026 A 
HETATM   16  C   UNL     1       6.035 -17.512   5.770  1.00  0.00     0.122 A 
HETATM   17  N   UNL     1       4.718 -17.148   5.791  1.00  0.00    -0.308 N 
ATOM     18  HN  UNL     1       3.929 -17.790   5.867  1.00  0.00     0.186 HD
BRANCH  15  19
HETATM   19  C   UNL     1       8.250 -16.301   5.681  1.00  0.00     0.076 A 
HETATM   20  N   UNL     1       8.809 -15.095   5.636  1.00  0.00    -0.190 N 
HETATM   21  C   UNL     1      10.111 -14.983   5.630  1.00  0.00     0.684 A 
ATOM     22  HN  UNL     1       8.223 -14.261   5.608  1.00  0.00     0.184 HD
HETATM   23  N   UNL     1      10.943 -15.999   5.608  1.00  0.00    -0.175 N 
HETATM   24  C   UNL     1      10.433 -17.235   5.633  1.00  0.00     0.133 A 
ATOM     25  HN  UNL     1      11.952 -15.850   5.574  1.00  0.00     0.186 HD
HETATM   26  N   UNL     1      11.064 -18.423   5.625  1.00  0.00    -0.351 N 
HETATM   27  C   UNL     1       9.066 -17.447   5.666  1.00  0.00     0.038 A 
HETATM   28  C   UNL     1      10.132 -19.400   5.681  1.00  0.00     0.090 A 
ATOM     29  HN  UNL     1      12.074 -18.564   5.585  1.00  0.00     0.166 HD
HETATM   30  C   UNL     1       8.883 -18.860   5.704  1.00  0.00     0.034 A 
BRANCH  21  31
HETATM   31  N   UNL     1      10.722 -13.701   5.589  1.00  0.00    -0.191 N 
ATOM     32  HN  UNL     1      10.271 -12.959   6.124  1.00  0.00     0.184 HD
BRANCH  31  33
HETATM   33  C   UNL     1      11.908 -13.352   4.872  1.00  0.00     0.055 A 
HETATM   34  C   UNL     1      12.794 -12.631   5.636  1.00  0.00     0.073 A 
HETATM   35  C   UNL     1      13.984 -12.222   5.083  1.00  0.00     0.132 A 
HETATM   36  C   UNL     1      14.306 -12.499   3.782  1.00  0.00     0.047 A 
HETATM   37  F   UNL     1      14.841 -11.529   5.866  1.00  0.00    -0.205 F 
HETATM   38  C   UNL     1      13.419 -13.218   3.024  1.00  0.00     0.132 A 
HETATM   39  C   UNL     1      12.200 -13.653   3.545  1.00  0.00     0.073 A 
HETATM   40  F   UNL     1      13.646 -13.539   1.714  1.00  0.00    -0.205 F 
BRANCH  36  41
HETATM   41  C   UNL     1      15.660 -12.039   3.218  1.00  0.00    -0.042 C 
HETATM   42  C   UNL     1      15.667 -11.062   2.282  1.00  0.00     0.011 C 
HETATM   43  C   UNL     1      17.182 -10.627   1.724  1.00  0.00     0.300 C 
HETATM   44  N   UNL     1      17.967 -11.605   1.697  1.00  0.00     0.087 N 
HETATM   45  C   UNL     1      19.084 -11.232   1.249  1.00  0.00     0.310 C 
HETATM   46  C   UNL     1      18.133 -12.354   3.057  1.00  0.00     0.277 C 
HETATM   47  C   UNL     1      16.869 -12.854   3.561  1.00  0.00     0.069 C 
ENDBRANCH  36  41
ENDBRANCH  31  33
ENDBRANCH  21  31
ENDBRANCH  15  19
ENDBRANCH   4  13
ENDBRANCH   1   4
TORSDOF 8
ENDMDL
MODEL 4
REMARK VINA RESULT:   -10.496      1.752      2.774
REMARK INTER + INTRA:         -15.955
REMARK INTER:                 -15.009
REMARK INTRA:                  -0.946
REMARK UNBOUND:                -0.550
REMARK  8 active torsions:
REMARK  status: ('A' for Active; 'I' for Inactive)
REMARK    1  A    between atoms: C_4  and  N_38 
REMARK    2  A    between atoms: C_6  and  C_18 
REMARK    3  A    between atoms: C_9  and  N_33 
REMARK    4  A    between atoms: C_9  and  C_10 
REMARK    5  A    between atoms: C_12  and  C_13 
REMARK    6  A    between atoms: C_16  and  N_38 
REMARK    7  A    between atoms: C_27  and  S_47 
REMARK    8  A    between atoms: N_31  and  S_47 
ROOT
HETATM    1  C   UNL     1      14.072 -14.459   4.787  1.00  0.00     0.160 C 
HETATM    2  C   UNL     1      15.001 -14.151   3.649  1.00  0.00     0.061 C 
HETATM    3  N   UNL     1      15.633 -13.790   2.778  1.00  0.00    -0.197 NA
ENDROOT
BRANCH   1   4
HETATM    4  C   UNL     1      12.818 -13.545   4.898  1.00  0.00     0.098 A 
HETATM    5  C   UNL     1      12.848 -12.503   3.905  1.00  0.00     0.171 A 
HETATM    6  N   UNL     1      13.085 -11.583   5.069  1.00  0.00    -0.306 N 
HETATM    7  C   UNL     1      13.094 -12.720   6.012  1.00  0.00     0.171 A 
BRANCH   6   8
HETATM    8  S   UNL     1      12.453 -10.046   5.373  1.00  0.00     0.228 S 
HETATM    9  O   UNL     1      12.643  -9.262   4.185  1.00  0.00    -0.206 OA
HETATM   10  O   UNL     1      13.145  -9.461   6.496  1.00  0.00    -0.206 OA
BRANCH   8  11
HETATM   11  C   UNL     1      10.656 -10.142   5.710  1.00  0.00     0.159 C 
HETATM   12  C   UNL     1      10.435  -9.801   7.162  1.00  0.00     0.023 C 
ENDBRANCH   8  11
ENDBRANCH   6   8
BRANCH   4  13
HETATM   13  N   UNL     1      11.721 -14.408   4.912  1.00  0.00    -0.289 N 
HETATM   14  C   UNL     1      11.702 -15.698   5.189  1.00  0.00     0.126 A 
HETATM   15  C   UNL     1      10.376 -16.101   5.086  1.00  0.00     0.026 A 
HETATM   16  C   UNL     1       9.588 -15.006   4.796  1.00  0.00     0.122 A 
HETATM   17  N   UNL     1      10.464 -13.966   4.666  1.00  0.00    -0.308 N 
ATOM     18  HN  UNL     1      10.212 -13.008   4.423  1.00  0.00     0.186 HD
BRANCH  15  19
HETATM   19  C   UNL     1       9.748 -17.443   5.440  1.00  0.00     0.076 A 
HETATM   20  N   UNL     1       8.432 -17.434   5.626  1.00  0.00    -0.190 N 
HETATM   21  C   UNL     1       7.821 -18.530   5.990  1.00  0.00     0.684 A 
ATOM     22  HN  UNL     1       7.901 -16.575   5.484  1.00  0.00     0.184 HD
HETATM   23  N   UNL     1       8.426 -19.667   6.250  1.00  0.00    -0.175 N 
HETATM   24  C   UNL     1       9.752 -19.725   6.097  1.00  0.00     0.133 A 
ATOM     25  HN  UNL     1       7.898 -20.483   6.560  1.00  0.00     0.186 HD
HETATM   26  N   UNL     1      10.593 -20.759   6.289  1.00  0.00    -0.351 N 
HETATM   27  C   UNL     1      10.478 -18.620   5.690  1.00  0.00     0.038 A 
HETATM   28  C   UNL     1      11.845 -20.350   5.988  1.00  0.00     0.090 A 
ATOM     29  HN  UNL     1      10.330 -21.692   6.608  1.00  0.00     0.166 HD
HETATM   30  C   UNL     1      11.838 -19.040   5.616  1.00  0.00     0.034 A 
BRANCH  21  31
HETATM   31  N   UNL     1       6.413 -18.537   6.186  1.00  0.00    -0.191 N 
ATOM     32  HN  UNL     1       5.999 -19.406   6.524  1.00  0.00     0.184 HD
BRANCH  31  33
HETATM   33  C   UNL     1       5.522 -17.444   5.955  1.00  0.00     0.055 A 
HETATM   34  C   UNL     1       4.213 -17.761   6.231  1.00  0.00     0.073 A 
HETATM   35  C   UNL     1       3.237 -16.811   6.057  1.00  0.00     0.132 A 
HETATM   36  C   UNL     1       3.529 -15.555   5.599  1.00  0.00     0.047 A 
HETATM   37  F   UNL     1       1.963 -17.150   6.352  1.00  0.00    -0.205 F 
HETATM   38  C   UNL     1       4.836 -15.242   5.326  1.00  0.00     0.132 A 
HETATM   39  C   UNL     1       5.858 -16.177   5.488  1.00  0.00     0.073 A 
HETATM   40  F   UNL     1       5.227 -14.018   4.858  1.00  0.00    -0.205 F 
BRANCH  36  41
HETATM   41  C   UNL     1       2.404 -14.519   5.444  1.00  0.00    -0.042 C 
HETATM   42  C   UNL     1       1.834 -14.367   4.226  1.00  0.00     0.011 C 
HETATM   43  C   UNL     1       0.622 -13.218   4.150  1.00  0.00     0.300 C 
HETATM   44  N   UNL     1       0.839 -12.259   4.927  1.00  0.00     0.087 N 
HETATM   45  C   UNL     1      -0.087 -11.412   4.816  1.00  0.00     0.310 C 
HETATM   46  C   UNL     1       1.055 -12.657   6.421  1.00  0.00     0.277 C 
HETATM   47  C   UNL     1       2.162 -13.579   6.584  1.00  0.00     0.069 C 
ENDBRANCH  36  41
ENDBRANCH  31  33
ENDBRANCH  21  31
ENDBRANCH  15  19
ENDBRANCH   4  13
ENDBRANCH   1   4
TORSDOF 8
ENDMDL
MODEL 5
REMARK VINA RESULT:   -10.493      2.881      3.548
REMARK INTER + INTRA:         -15.950
REMARK INTER:                 -14.531
REMARK INTRA:                  -1.420
REMARK UNBOUND:                -0.550
REMARK  8 active torsions:
REMARK  status: ('A' for Active; 'I' for Inactive)
REMARK    1  A    between atoms: C_4  and  N_38 
REMARK    2  A    between atoms: C_6  and  C_18 
REMARK    3  A    between atoms: C_9  and  N_33 
REMARK    4  A    between atoms: C_9  and  C_10 
REMARK    5  A    between atoms: C_12  and  C_13 
REMARK    6  A    between atoms: C_16  and  N_38 
REMARK    7  A    between atoms: C_27  and  S_47 
REMARK    8  A    between atoms: N_31  and  S_47 
ROOT
HETATM    1  C   UNL     1      13.489 -15.140   5.679  1.00  0.00     0.160 C 
HETATM    2  C   UNL     1      13.476 -15.194   7.179  1.00  0.00     0.061 C 
HETATM    3  N   UNL     1      13.355 -15.140   8.306  1.00  0.00    -0.197 NA
ENDROOT
BRANCH   1   4
HETATM    4  C   UNL     1      12.705 -13.956   5.042  1.00  0.00     0.098 A 
HETATM    5  C   UNL     1      13.032 -13.808   3.648  1.00  0.00     0.171 A 
HETATM    6  N   UNL     1      13.726 -12.548   4.080  1.00  0.00    -0.306 N 
HETATM    7  C   UNL     1      13.394 -12.807   5.496  1.00  0.00     0.171 A 
BRANCH   6   8
HETATM    8  S   UNL     1      13.774 -11.034   3.333  1.00  0.00     0.228 S 
HETATM    9  O   UNL     1      12.428 -10.538   3.281  1.00  0.00    -0.206 OA
HETATM   10  O   UNL     1      14.325 -11.176   2.006  1.00  0.00    -0.206 OA
BRANCH   8  11
HETATM   11  C   UNL     1      14.776  -9.859   4.317  1.00  0.00     0.159 C 
HETATM   12  C   UNL     1      15.817  -9.258   3.408  1.00  0.00     0.023 C 
ENDBRANCH   8  11
ENDBRANCH   6   8
BRANCH   4  13
HETATM   13  N   UNL     1      11.368 -14.160   5.386  1.00  0.00    -0.289 N 
HETATM   14  C   UNL     1      10.547 -15.094   4.945  1.00  0.00     0.126 A 
HETATM   15  C   UNL     1       9.336 -14.890   5.596  1.00  0.00     0.026 A 
HETATM   16  C   UNL     1       9.466 -13.842   6.484  1.00  0.00     0.122 A 
HETATM   17  N   UNL     1      10.744 -13.389   6.309  1.00  0.00    -0.308 N 
ATOM     18  HN  UNL     1      11.162 -12.596   6.795  1.00  0.00     0.186 HD
BRANCH  15  19
HETATM   19  C   UNL     1       8.081 -15.753   5.587  1.00  0.00     0.076 A 
HETATM   20  N   UNL     1       6.937 -15.109   5.371  1.00  0.00    -0.190 N 
HETATM   21  C   UNL     1       5.807 -15.764   5.406  1.00  0.00     0.684 A 
ATOM     22  HN  UNL     1       6.943 -14.107   5.179  1.00  0.00     0.184 HD
HETATM   23  N   UNL     1       5.697 -17.039   5.699  1.00  0.00    -0.175 N 
HETATM   24  C   UNL     1       6.815 -17.730   5.943  1.00  0.00     0.133 A 
ATOM     25  HN  UNL     1       4.783 -17.490   5.739  1.00  0.00     0.186 HD
HETATM   26  N   UNL     1       6.968 -19.031   6.255  1.00  0.00    -0.351 N 
HETATM   27  C   UNL     1       8.058 -17.124   5.904  1.00  0.00     0.038 A 
HETATM   28  C   UNL     1       8.289 -19.282   6.391  1.00  0.00     0.090 A 
ATOM     29  HN  UNL     1       6.216 -19.711   6.370  1.00  0.00     0.166 HD
HETATM   30  C   UNL     1       9.010 -18.145   6.190  1.00  0.00     0.034 A 
BRANCH  21  31
HETATM   31  N   UNL     1       4.579 -15.090   5.170  1.00  0.00    -0.191 N 
ATOM     32  HN  UNL     1       4.451 -14.672   4.249  1.00  0.00     0.184 HD
BRANCH  31  33
HETATM   33  C   UNL     1       3.504 -14.942   6.101  1.00  0.00     0.055 A 
HETATM   34  C   UNL     1       2.585 -15.961   6.013  1.00  0.00     0.073 A 
HETATM   35  C   UNL     1       1.492 -15.959   6.846  1.00  0.00     0.132 A 
HETATM   36  C   UNL     1       1.282 -14.956   7.753  1.00  0.00     0.047 A 
HETATM   37  F   UNL     1       0.617 -16.983   6.746  1.00  0.00    -0.205 F 
HETATM   38  C   UNL     1       2.201 -13.941   7.838  1.00  0.00     0.132 A 
HETATM   39  C   UNL     1       3.324 -13.905   7.012  1.00  0.00     0.073 A 
HETATM   40  F   UNL     1       2.075 -12.893   8.706  1.00  0.00    -0.205 F 
BRANCH  36  41
HETATM   41  C   UNL     1       0.056 -15.011   8.679  1.00  0.00    -0.042 C 
HETATM   42  C   UNL     1       0.238 -15.387   9.965  1.00  0.00     0.011 C 
HETATM   43  C   UNL     1      -1.149 -15.419  10.898  1.00  0.00     0.300 C 
HETATM   44  N   UNL     1      -2.155 -15.750  10.226  1.00  0.00     0.087 N 
HETATM   45  C   UNL     1      -3.166 -15.783  10.975  1.00  0.00     0.310 C 
HETATM   46  C   UNL     1      -2.422 -14.869   8.964  1.00  0.00     0.277 C 
HETATM   47  C   UNL     1      -1.297 -14.871   8.050  1.00  0.00     0.069 C 
ENDBRANCH  36  41
ENDBRANCH  31  33
ENDBRANCH  21  31
ENDBRANCH  15  19
ENDBRANCH   4  13
ENDBRANCH   1   4
TORSDOF 8
ENDMDL
MODEL 6
REMARK VINA RESULT:   -10.392      4.322     10.539
REMARK INTER + INTRA:         -15.803
REMARK INTER:                 -14.547
REMARK INTRA:                  -1.255
REMARK UNBOUND:                -0.550
REMARK  8 active torsions:
REMARK  status: ('A' for Active; 'I' for Inactive)
REMARK    1  A    between atoms: C_4  and  N_38 
REMARK    2  A    between atoms: C_6  and  C_18 
REMARK    3  A    between atoms: C_9  and  N_33 
REMARK    4  A    between atoms: C_9  and  C_10 
REMARK    5  A    between atoms: C_12  and  C_13 
REMARK    6  A    between atoms: C_16  and  N_38 
REMARK    7  A    between atoms: C_27  and  S_47 
REMARK    8  A    between atoms: N_31  and  S_47 
ROOT
HETATM    1  C   UNL     1       3.621 -16.454   5.538  1.00  0.00     0.160 C 
HETATM    2  C   UNL     1       2.602 -16.339   6.634  1.00  0.00     0.061 C 
HETATM    3  N   UNL     1       1.877 -16.115   7.478  1.00  0.00    -0.197 NA
ENDROOT
BRANCH   1   4
HETATM    4  C   UNL     1       4.702 -15.335   5.506  1.00  0.00     0.098 A 
HETATM    5  C   UNL     1       4.417 -14.312   6.477  1.00  0.00     0.171 A 
HETATM    6  N   UNL     1       4.112 -13.450   5.285  1.00  0.00    -0.306 N 
HETATM    7  C   UNL     1       4.371 -14.573   4.362  1.00  0.00     0.171 A 
BRANCH   6   8
HETATM    8  S   UNL     1       4.488 -11.827   5.005  1.00  0.00     0.228 S 
HETATM    9  O   UNL     1       3.634 -11.038   5.847  1.00  0.00    -0.206 OA
HETATM   10  O   UNL     1       4.268 -11.522   3.612  1.00  0.00    -0.206 OA
BRANCH   8  11
HETATM   11  C   UNL     1       6.224 -11.477   5.469  1.00  0.00     0.159 C 
HETATM   12  C   UNL     1       6.648 -10.211   4.770  1.00  0.00     0.023 C 
ENDBRANCH   8  11
ENDBRANCH   6   8
BRANCH   4  13
HETATM   13  N   UNL     1       5.930 -15.994   5.586  1.00  0.00    -0.289 N 
HETATM   14  C   UNL     1       7.138 -15.492   5.414  1.00  0.00     0.126 A 
HETATM   15  C   UNL     1       8.030 -16.538   5.615  1.00  0.00     0.026 A 
HETATM   16  C   UNL     1       7.329 -17.673   5.971  1.00  0.00     0.122 A 
HETATM   17  N   UNL     1       6.014 -17.306   5.917  1.00  0.00    -0.308 N 
ATOM     18  HN  UNL     1       5.221 -17.921   6.097  1.00  0.00     0.186 HD
BRANCH  15  19
HETATM   19  C   UNL     1       9.551 -16.505   5.690  1.00  0.00     0.076 A 
HETATM   20  N   UNL     1      10.102 -15.295   5.718  1.00  0.00    -0.190 N 
HETATM   21  C   UNL     1      11.404 -15.175   5.723  1.00  0.00     0.684 A 
ATOM     22  HN  UNL     1       9.512 -14.464   5.737  1.00  0.00     0.184 HD
HETATM   23  N   UNL     1      12.242 -16.183   5.644  1.00  0.00    -0.175 N 
HETATM   24  C   UNL     1      11.740 -17.421   5.594  1.00  0.00     0.133 A 
ATOM     25  HN  UNL     1      13.250 -16.026   5.622  1.00  0.00     0.186 HD
HETATM   26  N   UNL     1      12.379 -18.603   5.519  1.00  0.00    -0.351 N 
HETATM   27  C   UNL     1      10.374 -17.643   5.610  1.00  0.00     0.038 A 
HETATM   28  C   UNL     1      11.452 -19.587   5.513  1.00  0.00     0.090 A 
ATOM     29  HN  UNL     1      13.390 -18.735   5.473  1.00  0.00     0.166 HD
HETATM   30  C   UNL     1      10.199 -19.057   5.563  1.00  0.00     0.034 A 
BRANCH  21  31
HETATM   31  N   UNL     1      12.007 -13.889   5.760  1.00  0.00    -0.191 N 
ATOM     32  HN  UNL     1      11.704 -13.260   6.503  1.00  0.00     0.184 HD
BRANCH  31  33
HETATM   33  C   UNL     1      12.997 -13.394   4.857  1.00  0.00     0.055 A 
HETATM   34  C   UNL     1      14.180 -13.085   5.487  1.00  0.00     0.073 A 
HETATM   35  C   UNL     1      15.230 -12.596   4.749  1.00  0.00     0.132 A 
HETATM   36  C   UNL     1      15.127 -12.390   3.400  1.00  0.00     0.047 A 
HETATM   37  F   UNL     1      16.384 -12.318   5.395  1.00  0.00    -0.205 F 
HETATM   38  C   UNL     1      13.946 -12.700   2.775  1.00  0.00     0.132 A 
HETATM   39  C   UNL     1      12.855 -13.198   3.486  1.00  0.00     0.073 A 
HETATM   40  F   UNL     1      13.744 -12.523   1.435  1.00  0.00    -0.205 F 
BRANCH  36  41
HETATM   41  C   UNL     1      16.339 -11.863   2.614  1.00  0.00    -0.042 C 
HETATM   42  C   UNL     1      17.287 -12.747   2.227  1.00  0.00     0.011 C 
HETATM   43  C   UNL     1      18.569 -12.085   1.380  1.00  0.00     0.300 C 
HETATM   44  N   UNL     1      18.836 -10.925   1.772  1.00  0.00     0.087 N 
HETATM   45  C   UNL     1      19.819 -10.480   1.122  1.00  0.00     0.310 C 
HETATM   46  C   UNL     1      17.638  -9.923   1.727  1.00  0.00     0.277 C 
HETATM   47  C   UNL     1      16.517 -10.379   2.525  1.00  0.00     0.069 C 
ENDBRANCH  36  41
ENDBRANCH  31  33
ENDBRANCH  21  31
ENDBRANCH  15  19
ENDBRANCH   4  13
ENDBRANCH   1   4
TORSDOF 8
ENDMDL
MODEL 7
REMARK VINA RESULT:   -10.326      1.964      2.544
REMARK INTER + INTRA:         -15.705
REMARK INTER:                 -14.291
REMARK INTRA:                  -1.414
REMARK UNBOUND:                -0.550
REMARK  8 active torsions:
REMARK  status: ('A' for Active; 'I' for Inactive)
REMARK    1  A    between atoms: C_4  and  N_38 
REMARK    2  A    between atoms: C_6  and  C_18 
REMARK    3  A    between atoms: C_9  and  N_33 
REMARK    4  A    between atoms: C_9  and  C_10 
REMARK    5  A    between atoms: C_12  and  C_13 
REMARK    6  A    between atoms: C_16  and  N_38 
REMARK    7  A    between atoms: C_27  and  S_47 
REMARK    8  A    between atoms: N_31  and  S_47 
ROOT
HETATM    1  C   UNL     1      11.161 -10.095   5.767  1.00  0.00     0.160 C 
HETATM    2  C   UNL     1       9.876  -9.977   4.999  1.00  0.00     0.061 C 
HETATM    3  N   UNL     1       8.931 -10.024   4.373  1.00  0.00    -0.197 NA
ENDROOT
BRANCH   1   4
HETATM    4  C   UNL     1      12.090 -11.270   5.346  1.00  0.00     0.098 A 
HETATM    5  C   UNL     1      13.436 -11.057   5.808  1.00  0.00     0.171 A 
HETATM    6  N   UNL     1      13.761 -10.853   4.356  1.00  0.00    -0.306 N 
HETATM    7  C   UNL     1      12.345 -11.030   3.977  1.00  0.00     0.171 A 
BRANCH   6   8
HETATM    8  S   UNL     1      15.100 -11.376   3.468  1.00  0.00     0.228 S 
HETATM    9  O   UNL     1      16.274 -11.021   4.214  1.00  0.00    -0.206 OA
HETATM   10  O   UNL     1      15.093 -10.735   2.175  1.00  0.00    -0.206 OA
BRANCH   8  11
HETATM   11  C   UNL     1      15.076 -13.197   3.277  1.00  0.00     0.159 C 
HETATM   12  C   UNL     1      14.861 -13.510   1.818  1.00  0.00     0.023 C 
ENDBRANCH   8  11
ENDBRANCH   6   8
BRANCH   4  13
HETATM   13  N   UNL     1      11.433 -12.433   5.751  1.00  0.00    -0.289 N 
HETATM   14  C   UNL     1      11.287 -13.562   5.083  1.00  0.00     0.126 A 
HETATM   15  C   UNL     1      10.578 -14.420   5.914  1.00  0.00     0.026 A 
HETATM   16  C   UNL     1      10.349 -13.798   7.125  1.00  0.00     0.122 A 
HETATM   17  N   UNL     1      10.874 -12.544   6.981  1.00  0.00    -0.308 N 
ATOM     18  HN  UNL     1      10.849 -11.808   7.686  1.00  0.00     0.186 HD
BRANCH  15  19
HETATM   19  C   UNL     1      10.255 -15.896   5.723  1.00  0.00     0.076 A 
HETATM   20  N   UNL     1       8.963 -16.211   5.727  1.00  0.00    -0.190 N 
HETATM   21  C   UNL     1       8.599 -17.462   5.628  1.00  0.00     0.684 A 
ATOM     22  HN  UNL     1       8.258 -15.478   5.808  1.00  0.00     0.184 HD
HETATM   23  N   UNL     1       9.433 -18.476   5.577  1.00  0.00    -0.175 N 
HETATM   24  C   UNL     1      10.744 -18.216   5.588  1.00  0.00     0.133 A 
ATOM     25  HN  UNL     1       9.089 -19.435   5.530  1.00  0.00     0.186 HD
HETATM   26  N   UNL     1      11.787 -19.066   5.539  1.00  0.00    -0.351 N 
HETATM   27  C   UNL     1      11.219 -16.919   5.666  1.00  0.00     0.038 A 
HETATM   28  C   UNL     1      12.927 -18.341   5.555  1.00  0.00     0.090 A 
ATOM     29  HN  UNL     1      11.727 -20.084   5.496  1.00  0.00     0.166 HD
HETATM   30  C   UNL     1      12.641 -17.012   5.636  1.00  0.00     0.034 A 
BRANCH  21  31
HETATM   31  N   UNL     1       7.222 -17.812   5.625  1.00  0.00    -0.191 N 
ATOM     32  HN  UNL     1       6.999 -18.807   5.610  1.00  0.00     0.184 HD
BRANCH  31  33
HETATM   33  C   UNL     1       6.119 -16.904   5.642  1.00  0.00     0.055 A 
HETATM   34  C   UNL     1       4.939 -17.511   6.002  1.00  0.00     0.073 A 
HETATM   35  C   UNL     1       3.787 -16.766   6.063  1.00  0.00     0.132 A 
HETATM   36  C   UNL     1       3.776 -15.432   5.758  1.00  0.00     0.047 A 
HETATM   37  F   UNL     1       2.648 -17.389   6.437  1.00  0.00    -0.205 F 
HETATM   38  C   UNL     1       4.955 -14.829   5.400  1.00  0.00     0.132 A 
HETATM   39  C   UNL     1       6.147 -15.549   5.325  1.00  0.00     0.073 A 
HETATM   40  F   UNL     1       5.045 -13.506   5.070  1.00  0.00    -0.205 F 
BRANCH  36  41
HETATM   41  C   UNL     1       2.465 -14.636   5.865  1.00  0.00    -0.042 C 
HETATM   42  C   UNL     1       2.133 -14.103   7.063  1.00  0.00     0.011 C 
HETATM   43  C   UNL     1       0.691 -13.256   7.086  1.00  0.00     0.300 C 
HETATM   44  N   UNL     1      -0.152 -13.750   6.301  1.00  0.00     0.087 N 
HETATM   45  C   UNL     1      -1.225 -13.094   6.372  1.00  0.00     0.310 C 
HETATM   46  C   UNL     1       0.326 -13.881   4.820  1.00  0.00     0.277 C 
HETATM   47  C   UNL     1       1.522 -14.691   4.703  1.00  0.00     0.069 C 
ENDBRANCH  36  41
ENDBRANCH  31  33
ENDBRANCH  21  31
ENDBRANCH  15  19
ENDBRANCH   4  13
ENDBRANCH   1   4
TORSDOF 8
ENDMDL
MODEL 8
REMARK VINA RESULT:   -10.219      4.796     11.087
REMARK INTER + INTRA:         -15.547
REMARK INTER:                 -14.566
REMARK INTRA:                  -0.981
REMARK UNBOUND:                -0.550
REMARK  8 active torsions:
REMARK  status: ('A' for Active; 'I' for Inactive)
REMARK    1  A    between atoms: C_4  and  N_38 
REMARK    2  A    between atoms: C_6  and  C_18 
REMARK    3  A    between atoms: C_9  and  N_33 
REMARK    4  A    between atoms: C_9  and  C_10 
REMARK    5  A    between atoms: C_12  and  C_13 
REMARK    6  A    between atoms: C_16  and  N_38 
REMARK    7  A    between atoms: C_27  and  S_47 
REMARK    8  A    between atoms: N_31  and  S_47 
ROOT
HETATM    1  C   UNL     1       4.787 -13.313   6.382  1.00  0.00     0.160 C 
HETATM    2  C   UNL     1       4.008 -13.082   7.644  1.00  0.00     0.061 C 
HETATM    3  N   UNL     1       3.381 -13.048   8.589  1.00  0.00    -0.197 NA
ENDROOT
BRANCH   1   4
HETATM    4  C   UNL     1       4.439 -14.616   5.606  1.00  0.00     0.098 A 
HETATM    5  C   UNL     1       3.858 -14.316   4.324  1.00  0.00     0.171 A 
HETATM    6  N   UNL     1       2.588 -14.850   4.923  1.00  0.00    -0.306 N 
HETATM    7  C   UNL     1       3.252 -15.074   6.223  1.00  0.00     0.171 A 
BRANCH   6   8
HETATM    8  S   UNL     1       1.401 -15.833   4.231  1.00  0.00     0.228 S 
HETATM    9  O   UNL     1       1.890 -17.182   4.263  1.00  0.00    -0.206 OA
HETATM   10  O   UNL     1       1.157 -15.402   2.875  1.00  0.00    -0.206 OA
BRANCH   8  11
HETATM   11  C   UNL     1      -0.145 -15.764   5.210  1.00  0.00     0.159 C 
HETATM   12  C   UNL     1      -0.001 -16.711   6.375  1.00  0.00     0.023 C 
ENDBRANCH   8  11
ENDBRANCH   6   8
BRANCH   4  13
HETATM   13  N   UNL     1       5.597 -15.395   5.637  1.00  0.00    -0.289 N 
HETATM   14  C   UNL     1       6.850 -14.998   5.522  1.00  0.00     0.126 A 
HETATM   15  C   UNL     1       7.635 -16.139   5.635  1.00  0.00     0.026 A 
HETATM   16  C   UNL     1       6.824 -17.228   5.881  1.00  0.00     0.122 A 
HETATM   17  N   UNL     1       5.550 -16.733   5.849  1.00  0.00    -0.308 N 
ATOM     18  HN  UNL     1       4.699 -17.283   5.966  1.00  0.00     0.186 HD
BRANCH  15  19
HETATM   19  C   UNL     1       9.151 -16.259   5.726  1.00  0.00     0.076 A 
HETATM   20  N   UNL     1       9.819 -15.111   5.785  1.00  0.00    -0.190 N 
HETATM   21  C   UNL     1      11.126 -15.122   5.805  1.00  0.00     0.684 A 
ATOM     22  HN  UNL     1       9.314 -14.226   5.815  1.00  0.00     0.184 HD
HETATM   23  N   UNL     1      11.861 -16.207   5.714  1.00  0.00    -0.175 N 
HETATM   24  C   UNL     1      11.239 -17.387   5.633  1.00  0.00     0.133 A 
ATOM     25  HN  UNL     1      12.880 -16.150   5.705  1.00  0.00     0.186 HD
HETATM   26  N   UNL     1      11.757 -18.625   5.540  1.00  0.00    -0.351 N 
HETATM   27  C   UNL     1       9.858 -17.472   5.631  1.00  0.00     0.038 A 
HETATM   28  C   UNL     1      10.738 -19.512   5.505  1.00  0.00     0.090 A 
ATOM     29  HN  UNL     1      12.751 -18.856   5.502  1.00  0.00     0.166 HD
HETATM   30  C   UNL     1       9.544 -18.860   5.554  1.00  0.00     0.034 A 
BRANCH  21  31
HETATM   31  N   UNL     1      11.853 -13.903   5.874  1.00  0.00    -0.191 N 
ATOM     32  HN  UNL     1      11.648 -13.288   6.661  1.00  0.00     0.184 HD
BRANCH  31  33
HETATM   33  C   UNL     1      12.846 -13.457   4.947  1.00  0.00     0.055 A 
HETATM   34  C   UNL     1      13.990 -13.017   5.569  1.00  0.00     0.073 A 
HETATM   35  C   UNL     1      15.037 -12.555   4.809  1.00  0.00     0.132 A 
HETATM   36  C   UNL     1      14.967 -12.506   3.443  1.00  0.00     0.047 A 
HETATM   37  F   UNL     1      16.153 -12.145   5.450  1.00  0.00    -0.205 F 
HETATM   38  C   UNL     1      13.824 -12.947   2.826  1.00  0.00     0.132 A 
HETATM   39  C   UNL     1      12.738 -13.423   3.560  1.00  0.00     0.073 A 
HETATM   40  F   UNL     1      13.656 -12.931   1.470  1.00  0.00    -0.205 F 
BRANCH  36  41
HETATM   41  C   UNL     1      16.174 -12.003   2.635  1.00  0.00    -0.042 C 
HETATM   42  C   UNL     1      17.155 -12.884   2.330  1.00  0.00     0.011 C 
HETATM   43  C   UNL     1      18.429 -12.251   1.452  1.00  0.00     0.300 C 
HETATM   44  N   UNL     1      18.655 -11.055   1.756  1.00  0.00     0.087 N 
HETATM   45  C   UNL     1      19.635 -10.632   1.087  1.00  0.00     0.310 C 
HETATM   46  C   UNL     1      17.429 -10.097   1.619  1.00  0.00     0.277 C 
HETATM   47  C   UNL     1      16.310 -10.525   2.434  1.00  0.00     0.069 C 
ENDBRANCH  36  41
ENDBRANCH  31  33
ENDBRANCH  21  31
ENDBRANCH  15  19
ENDBRANCH   4  13
ENDBRANCH   1   4
TORSDOF 8
ENDMDL
MODEL 9
REMARK VINA RESULT:   -10.099      5.042     11.107
REMARK INTER + INTRA:         -15.372
REMARK INTER:                 -14.485
REMARK INTRA:                  -0.888
REMARK UNBOUND:                -0.550
REMARK  8 active torsions:
REMARK  status: ('A' for Active; 'I' for Inactive)
REMARK    1  A    between atoms: C_4  and  N_38 
REMARK    2  A    between atoms: C_6  and  C_18 
REMARK    3  A    between atoms: C_9  and  N_33 
REMARK    4  A    between atoms: C_9  and  C_10 
REMARK    5  A    between atoms: C_12  and  C_13 
REMARK    6  A    between atoms: C_16  and  N_38 
REMARK    7  A    between atoms: C_27  and  S_47 
REMARK    8  A    between atoms: N_31  and  S_47 
ROOT
HETATM    1  C   UNL     1       4.375 -13.278   6.210  1.00  0.00     0.160 C 
HETATM    2  C   UNL     1       4.012 -13.064   7.650  1.00  0.00     0.061 C 
HETATM    3  N   UNL     1       3.726 -13.047   8.749  1.00  0.00    -0.197 NA
ENDROOT
BRANCH   1   4
HETATM    4  C   UNL     1       4.055 -14.690   5.639  1.00  0.00     0.098 A 
HETATM    5  C   UNL     1       3.301 -14.595   4.417  1.00  0.00     0.171 A 
HETATM    6  N   UNL     1       2.164 -15.144   5.232  1.00  0.00    -0.306 N 
HETATM    7  C   UNL     1       2.996 -15.155   6.452  1.00  0.00     0.171 A 
BRANCH   6   8
HETATM    8  S   UNL     1       0.996 -16.291   4.816  1.00  0.00     0.228 S 
HETATM    9  O   UNL     1      -0.265 -15.610   4.735  1.00  0.00    -0.206 OA
HETATM   10  O   UNL     1       0.964 -17.324   5.823  1.00  0.00    -0.206 OA
BRANCH   8  11
HETATM   11  C   UNL     1       1.358 -17.014   3.173  1.00  0.00     0.159 C 
HETATM   12  C   UNL     1       0.721 -16.135   2.126  1.00  0.00     0.023 C 
ENDBRANCH   8  11
ENDBRANCH   6   8
BRANCH   4  13
HETATM   13  N   UNL     1       5.274 -15.370   5.608  1.00  0.00    -0.289 N 
HETATM   14  C   UNL     1       6.489 -14.861   5.543  1.00  0.00     0.126 A 
HETATM   15  C   UNL     1       7.367 -15.939   5.557  1.00  0.00     0.026 A 
HETATM   16  C   UNL     1       6.648 -17.110   5.690  1.00  0.00     0.122 A 
HETATM   17  N   UNL     1       5.338 -16.721   5.692  1.00  0.00    -0.308 N 
ATOM     18  HN  UNL     1       4.535 -17.347   5.748  1.00  0.00     0.186 HD
BRANCH  15  19
HETATM   19  C   UNL     1       8.887 -15.942   5.650  1.00  0.00     0.076 A 
HETATM   20  N   UNL     1       9.467 -14.746   5.673  1.00  0.00    -0.190 N 
HETATM   21  C   UNL     1      10.770 -14.658   5.694  1.00  0.00     0.684 A 
ATOM     22  HN  UNL     1       8.896 -13.901   5.676  1.00  0.00     0.184 HD
HETATM   23  N   UNL     1      11.585 -15.686   5.637  1.00  0.00    -0.175 N 
HETATM   24  C   UNL     1      11.054 -16.912   5.593  1.00  0.00     0.133 A 
ATOM     25  HN  UNL     1      12.597 -15.553   5.626  1.00  0.00     0.186 HD
HETATM   26  N   UNL     1      11.665 -18.110   5.539  1.00  0.00    -0.351 N 
HETATM   27  C   UNL     1       9.683 -17.101   5.594  1.00  0.00     0.038 A 
HETATM   28  C   UNL     1      10.715 -19.071   5.531  1.00  0.00     0.090 A 
ATOM     29  HN  UNL     1      12.673 -18.266   5.508  1.00  0.00     0.166 HD
HETATM   30  C   UNL     1       9.475 -18.510   5.560  1.00  0.00     0.034 A 
BRANCH  21  31
HETATM   31  N   UNL     1      11.404 -13.386   5.725  1.00  0.00    -0.191 N 
ATOM     32  HN  UNL     1      10.927 -12.646   6.238  1.00  0.00     0.184 HD
BRANCH  31  33
HETATM   33  C   UNL     1      12.647 -13.045   5.107  1.00  0.00     0.055 A 
HETATM   34  C   UNL     1      12.557 -12.988   3.736  1.00  0.00     0.073 A 
HETATM   35  C   UNL     1      13.673 -12.672   2.999  1.00  0.00     0.132 A 
HETATM   36  C   UNL     1      14.881 -12.427   3.593  1.00  0.00     0.047 A 
HETATM   37  F   UNL     1      13.547 -12.608   1.655  1.00  0.00    -0.205 F 
HETATM   38  C   UNL     1      14.967 -12.485   4.960  1.00  0.00     0.132 A 
HETATM   39  C   UNL     1      13.859 -12.802   5.746  1.00  0.00     0.073 A 
HETATM   40  F   UNL     1      16.129 -12.263   5.644  1.00  0.00    -0.205 F 
BRANCH  36  41
HETATM   41  C   UNL     1      16.095 -12.054   2.725  1.00  0.00    -0.042 C 
HETATM   42  C   UNL     1      17.039 -12.997   2.503  1.00  0.00     0.011 C 
HETATM   43  C   UNL     1      18.322 -12.503   1.551  1.00  0.00     0.300 C 
HETATM   44  N   UNL     1      18.595 -11.292   1.728  1.00  0.00     0.087 N 
HETATM   45  C   UNL     1      19.579 -10.975   1.010  1.00  0.00     0.310 C 
HETATM   46  C   UNL     1      17.401 -10.309   1.505  1.00  0.00     0.277 C 
HETATM   47  C   UNL     1      16.279 -10.611   2.371  1.00  0.00     0.069 C 
ENDBRANCH  36  41
ENDBRANCH  31  33
ENDBRANCH  21  31
ENDBRANCH  15  19
ENDBRANCH   4  13
ENDBRANCH   1   4
TORSDOF 8
ENDMDL
MODEL 10
REMARK VINA RESULT:   -10.063      2.347      2.992
REMARK INTER + INTRA:         -15.319
REMARK INTER:                 -13.994
REMARK INTRA:                  -1.325
REMARK UNBOUND:                -0.550
REMARK  8 active torsions:
REMARK  status: ('A' for Active; 'I' for Inactive)
REMARK    1  A    between atoms: C_4  and  N_38 
REMARK    2  A    between atoms: C_6  and  C_18 
REMARK    3  A    between atoms: C_9  and  N_33 
REMARK    4  A    between atoms: C_9  and  C_10 
REMARK    5  A    between atoms: C_12  and  C_13 
REMARK    6  A    between atoms: C_16  and  N_38 
REMARK    7  A    between atoms: C_27  and  S_47 
REMARK    8  A    between atoms: N_31  and  S_47 
ROOT
HETATM    1  C   UNL     1      11.705 -10.472   4.629  1.00  0.00     0.160 C 
HETATM    2  C   UNL     1      11.204  -9.784   5.865  1.00  0.00     0.061 C 
HETATM    3  N   UNL     1      10.951  -9.302   6.861  1.00  0.00    -0.197 NA
ENDROOT
BRANCH   1   4
HETATM    4  C   UNL     1      12.922 -11.420   4.834  1.00  0.00     0.098 A 
HETATM    5  C   UNL     1      13.985 -10.754   5.540  1.00  0.00     0.171 A 
HETATM    6  N   UNL     1      14.714 -10.813   4.228  1.00  0.00    -0.306 N 
HETATM    7  C   UNL     1      13.553 -11.446   3.570  1.00  0.00     0.171 A 
BRANCH   6   8
HETATM    8  S   UNL     1      16.339 -11.149   3.914  1.00  0.00     0.228 S 
HETATM    9  O   UNL     1      16.610 -12.466   4.418  1.00  0.00    -0.206 OA
HETATM   10  O   UNL     1      17.164 -10.163   4.569  1.00  0.00    -0.206 OA
BRANCH   8  11
HETATM   11  C   UNL     1      16.660 -11.153   2.111  1.00  0.00     0.159 C 
HETATM   12  C   UNL     1      17.086 -12.545   1.717  1.00  0.00     0.023 C 
ENDBRANCH   8  11
ENDBRANCH   6   8
BRANCH   4  13
HETATM   13  N   UNL     1      12.399 -12.591   5.388  1.00  0.00    -0.289 N 
HETATM   14  C   UNL     1      11.588 -13.467   4.826  1.00  0.00     0.126 A 
HETATM   15  C   UNL     1      11.371 -14.462   5.771  1.00  0.00     0.026 A 
HETATM   16  C   UNL     1      12.120 -14.192   6.898  1.00  0.00     0.122 A 
HETATM   17  N   UNL     1      12.731 -12.998   6.637  1.00  0.00    -0.308 N 
ATOM     18  HN  UNL     1      13.342 -12.493   7.279  1.00  0.00     0.186 HD
BRANCH  15  19
HETATM   19  C   UNL     1      10.641 -15.791   5.619  1.00  0.00     0.076 A 
HETATM   20  N   UNL     1       9.314 -15.721   5.591  1.00  0.00    -0.190 N 
HETATM   21  C   UNL     1       8.608 -16.818   5.523  1.00  0.00     0.684 A 
ATOM     22  HN  UNL     1       8.848 -14.814   5.623  1.00  0.00     0.184 HD
HETATM   23  N   UNL     1       9.115 -18.030   5.534  1.00  0.00    -0.175 N 
HETATM   24  C   UNL     1      10.445 -18.157   5.579  1.00  0.00     0.133 A 
ATOM     25  HN  UNL     1       8.511 -18.851   5.508  1.00  0.00     0.186 HD
HETATM   26  N   UNL     1      11.200 -19.271   5.593  1.00  0.00    -0.351 N 
HETATM   27  C   UNL     1      11.272 -17.049   5.628  1.00  0.00     0.038 A 
HETATM   28  C   UNL     1      12.500 -18.903   5.622  1.00  0.00     0.090 A 
ATOM     29  HN  UNL     1      10.851 -20.230   5.583  1.00  0.00     0.166 HD
HETATM   30  C   UNL     1      12.607 -17.547   5.649  1.00  0.00     0.034 A 
BRANCH  21  31
HETATM   31  N   UNL     1       7.188 -16.759   5.486  1.00  0.00    -0.191 N 
ATOM     32  HN  UNL     1       6.698 -17.611   5.217  1.00  0.00     0.184 HD
BRANCH  31  33
HETATM   33  C   UNL     1       6.382 -15.619   5.790  1.00  0.00     0.055 A 
HETATM   34  C   UNL     1       5.047 -15.835   5.544  1.00  0.00     0.073 A 
HETATM   35  C   UNL     1       4.143 -14.829   5.789  1.00  0.00     0.132 A 
HETATM   36  C   UNL     1       4.539 -13.605   6.257  1.00  0.00     0.047 A 
HETATM   37  F   UNL     1       2.837 -15.079   5.552  1.00  0.00    -0.205 F 
HETATM   38  C   UNL     1       5.872 -13.394   6.502  1.00  0.00     0.132 A 
HETATM   39  C   UNL     1       6.822 -14.387   6.267  1.00  0.00     0.073 A 
HETATM   40  F   UNL     1       6.365 -12.205   6.963  1.00  0.00    -0.205 F 
BRANCH  36  41
HETATM   41  C   UNL     1       3.487 -12.520   6.537  1.00  0.00    -0.042 C 
HETATM   42  C   UNL     1       3.362 -11.503   5.654  1.00  0.00     0.011 C 
HETATM   43  C   UNL     1       2.196 -10.369   6.040  1.00  0.00     0.300 C 
HETATM   44  N   UNL     1       2.089 -10.214   7.279  1.00  0.00     0.087 N 
HETATM   45  C   UNL     1       1.218  -9.336   7.517  1.00  0.00     0.310 C 
HETATM   46  C   UNL     1       1.798 -11.521   8.083  1.00  0.00     0.277 C 
HETATM   47  C   UNL     1       2.825 -12.524   7.881  1.00  0.00     0.069 C 
ENDBRANCH  36  41
ENDBRANCH  31  33
ENDBRANCH  21  31
ENDBRANCH  15  19
ENDBRANCH   4  13
ENDBRANCH   1   4
TORSDOF 8
ENDMDL
MODEL 11
REMARK VINA RESULT:    -9.975      4.845     11.024
REMARK INTER + INTRA:         -15.190
REMARK INTER:                 -13.575
REMARK INTRA:                  -1.616
REMARK UNBOUND:                -0.550
REMARK  8 active torsions:
REMARK  status: ('A' for Active; 'I' for Inactive)
REMARK    1  A    between atoms: C_4  and  N_38 
REMARK    2  A    between atoms: C_6  and  C_18 
REMARK    3  A    between atoms: C_9  and  N_33 
REMARK    4  A    between atoms: C_9  and  C_10 
REMARK    5  A    between atoms: C_12  and  C_13 
REMARK    6  A    between atoms: C_16  and  N_38 
REMARK    7  A    between atoms: C_27  and  S_47 
REMARK    8  A    between atoms: N_31  and  S_47 
ROOT
HETATM    1  C   UNL     1       4.085 -12.087   4.752  1.00  0.00     0.160 C 
HETATM    2  C   UNL     1       4.029 -11.813   3.277  1.00  0.00     0.061 C 
HETATM    3  N   UNL     1       3.967 -11.749   2.146  1.00  0.00    -0.197 NA
ENDROOT
BRANCH   1   4
HETATM    4  C   UNL     1       4.294 -13.577   5.151  1.00  0.00     0.098 A 
HETATM    5  C   UNL     1       3.795 -14.461   4.131  1.00  0.00     0.171 A 
HETATM    6  N   UNL     1       2.725 -14.796   5.131  1.00  0.00    -0.306 N 
HETATM    7  C   UNL     1       3.274 -13.823   6.097  1.00  0.00     0.171 A 
BRANCH   6   8
HETATM    8  S   UNL     1       2.034 -16.290   5.509  1.00  0.00     0.228 S 
HETATM    9  O   UNL     1       1.926 -17.034   4.286  1.00  0.00    -0.206 OA
HETATM   10  O   UNL     1       0.735 -16.077   6.101  1.00  0.00    -0.206 OA
BRANCH   8  11
HETATM   11  C   UNL     1       3.111 -17.228   6.654  1.00  0.00     0.159 C 
HETATM   12  C   UNL     1       4.389 -17.559   5.925  1.00  0.00     0.023 C 
ENDBRANCH   8  11
ENDBRANCH   6   8
BRANCH   4  13
HETATM   13  N   UNL     1       5.638 -13.685   5.514  1.00  0.00    -0.289 N 
HETATM   14  C   UNL     1       6.401 -14.761   5.506  1.00  0.00     0.126 A 
HETATM   15  C   UNL     1       7.659 -14.353   5.933  1.00  0.00     0.026 A 
HETATM   16  C   UNL     1       7.649 -12.989   6.143  1.00  0.00     0.122 A 
HETATM   17  N   UNL     1       6.361 -12.604   5.898  1.00  0.00    -0.308 N 
ATOM     18  HN  UNL     1       6.000 -11.655   5.989  1.00  0.00     0.186 HD
BRANCH  15  19
HETATM   19  C   UNL     1       8.962 -15.140   5.976  1.00  0.00     0.076 A 
HETATM   20  N   UNL     1      10.062 -14.424   6.192  1.00  0.00    -0.190 N 
HETATM   21  C   UNL     1      11.230 -15.011   6.186  1.00  0.00     0.684 A 
ATOM     22  HN  UNL     1       9.995 -13.421   6.363  1.00  0.00     0.184 HD
HETATM   23  N   UNL     1      11.419 -16.284   5.921  1.00  0.00    -0.175 N 
HETATM   24  C   UNL     1      10.348 -17.045   5.678  1.00  0.00     0.133 A 
ATOM     25  HN  UNL     1      12.359 -16.681   5.902  1.00  0.00     0.186 HD
HETATM   26  N   UNL     1      10.276 -18.359   5.393  1.00  0.00    -0.351 N 
HETATM   27  C   UNL     1       9.071 -16.513   5.689  1.00  0.00     0.038 A 
HETATM   28  C   UNL     1       8.974 -18.691   5.246  1.00  0.00     0.090 A 
ATOM     29  HN  UNL     1      11.069 -18.995   5.302  1.00  0.00     0.166 HD
HETATM   30  C   UNL     1       8.185 -17.595   5.413  1.00  0.00     0.034 A 
BRANCH  21  31
HETATM   31  N   UNL     1      12.413 -14.261   6.421  1.00  0.00    -0.191 N 
ATOM     32  HN  UNL     1      12.669 -14.097   7.395  1.00  0.00     0.184 HD
BRANCH  31  33
HETATM   33  C   UNL     1      13.280 -13.714   5.425  1.00  0.00     0.055 A 
HETATM   34  C   UNL     1      14.464 -13.253   5.950  1.00  0.00     0.073 A 
HETATM   35  C   UNL     1      15.402 -12.698   5.114  1.00  0.00     0.132 A 
HETATM   36  C   UNL     1      15.183 -12.574   3.769  1.00  0.00     0.047 A 
HETATM   37  F   UNL     1      16.562 -12.270   5.659  1.00  0.00    -0.205 F 
HETATM   38  C   UNL     1      14.001 -13.035   3.249  1.00  0.00     0.132 A 
HETATM   39  C   UNL     1      13.021 -13.605   4.061  1.00  0.00     0.073 A 
HETATM   40  F   UNL     1      13.687 -12.950   1.921  1.00  0.00    -0.205 F 
BRANCH  36  41
HETATM   41  C   UNL     1      16.274 -11.967   2.872  1.00  0.00    -0.042 C 
HETATM   42  C   UNL     1      17.239 -12.784   2.390  1.00  0.00     0.011 C 
HETATM   43  C   UNL     1      18.383 -12.038   1.426  1.00  0.00     0.300 C 
HETATM   44  N   UNL     1      18.607 -10.861   1.795  1.00  0.00     0.087 N 
HETATM   45  C   UNL     1      19.490 -10.352   1.055  1.00  0.00     0.310 C 
HETATM   46  C   UNL     1      17.346  -9.944   1.872  1.00  0.00     0.277 C 
HETATM   47  C   UNL     1      16.341 -10.474   2.772  1.00  0.00     0.069 C 
ENDBRANCH  36  41
ENDBRANCH  31  33
ENDBRANCH  21  31
ENDBRANCH  15  19
ENDBRANCH   4  13
ENDBRANCH   1   4
TORSDOF 8
ENDMDL
MODEL 12
REMARK VINA RESULT:    -9.929      5.254     11.107
REMARK INTER + INTRA:         -15.122
REMARK INTER:                 -13.715
REMARK INTRA:                  -1.407
REMARK UNBOUND:                -0.550
REMARK  8 active torsions:
REMARK  status: ('A' for Active; 'I' for Inactive)
REMARK    1  A    between atoms: C_4  and  N_38 
REMARK    2  A    between atoms: C_6  and  C_18 
REMARK    3  A    between atoms: C_9  and  N_33 
REMARK    4  A    between atoms: C_9  and  C_10 
REMARK    5  A    between atoms: C_12  and  C_13 
REMARK    6  A    between atoms: C_16  and  N_38 
REMARK    7  A    between atoms: C_27  and  S_47 
REMARK    8  A    between atoms: N_31  and  S_47 
ROOT
HETATM    1  C   UNL     1       2.526 -14.980   4.230  1.00  0.00     0.160 C 
HETATM    2  C   UNL     1       1.758 -16.236   3.935  1.00  0.00     0.061 C 
HETATM    3  N   UNL     1       1.147 -17.188   3.855  1.00  0.00    -0.197 NA
ENDROOT
BRANCH   1   4
HETATM    4  C   UNL     1       2.847 -14.726   5.732  1.00  0.00     0.098 A 
HETATM    5  C   UNL     1       2.133 -15.646   6.577  1.00  0.00     0.171 A 
HETATM    6  N   UNL     1       1.338 -14.440   6.992  1.00  0.00    -0.306 N 
HETATM    7  C   UNL     1       2.087 -13.579   6.055  1.00  0.00     0.171 A 
BRANCH   6   8
HETATM    8  S   UNL     1       0.780 -13.993   8.522  1.00  0.00     0.228 S 
HETATM    9  O   UNL     1       0.572 -15.199   9.273  1.00  0.00    -0.206 OA
HETATM   10  O   UNL     1      -0.450 -13.252   8.382  1.00  0.00    -0.206 OA
BRANCH   8  11
HETATM   11  C   UNL     1       2.035 -12.987   9.398  1.00  0.00     0.159 C 
HETATM   12  C   UNL     1       1.311 -11.940  10.206  1.00  0.00     0.023 C 
ENDBRANCH   8  11
ENDBRANCH   6   8
BRANCH   4  13
HETATM   13  N   UNL     1       4.241 -14.699   5.820  1.00  0.00    -0.289 N 
HETATM   14  C   UNL     1       5.086 -15.700   5.666  1.00  0.00     0.126 A 
HETATM   15  C   UNL     1       6.359 -15.166   5.831  1.00  0.00     0.026 A 
HETATM   16  C   UNL     1       6.260 -13.804   6.031  1.00  0.00     0.122 A 
HETATM   17  N   UNL     1       4.917 -13.547   6.046  1.00  0.00    -0.308 N 
ATOM     18  HN  UNL     1       4.492 -12.634   6.202  1.00  0.00     0.186 HD
BRANCH  15  19
HETATM   19  C   UNL     1       7.715 -15.826   5.617  1.00  0.00     0.076 A 
HETATM   20  N   UNL     1       8.597 -15.121   4.914  1.00  0.00    -0.190 N 
HETATM   21  C   UNL     1       9.764 -15.637   4.633  1.00  0.00     0.684 A 
ATOM     22  HN  UNL     1       8.363 -14.181   4.595  1.00  0.00     0.184 HD
HETATM   23  N   UNL     1      10.133 -16.857   4.952  1.00  0.00    -0.175 N 
HETATM   24  C   UNL     1       9.276 -17.615   5.643  1.00  0.00     0.133 A 
ATOM     25  HN  UNL     1      11.048 -17.215   4.679  1.00  0.00     0.186 HD
HETATM   26  N   UNL     1       9.416 -18.877   6.090  1.00  0.00    -0.351 N 
HETATM   27  C   UNL     1       8.027 -17.142   6.005  1.00  0.00     0.038 A 
HETATM   28  C   UNL     1       8.292 -19.219   6.757  1.00  0.00     0.090 A 
ATOM     29  HN  UNL     1      10.231 -19.475   5.948  1.00  0.00     0.166 HD
HETATM   30  C   UNL     1       7.399 -18.192   6.736  1.00  0.00     0.034 A 
BRANCH  21  31
HETATM   31  N   UNL     1      10.719 -14.893   3.889  1.00  0.00    -0.191 N 
ATOM     32  HN  UNL     1      10.636 -14.923   2.873  1.00  0.00     0.184 HD
BRANCH  31  33
HETATM   33  C   UNL     1      11.783 -14.105   4.428  1.00  0.00     0.055 A 
HETATM   34  C   UNL     1      12.368 -13.293   3.486  1.00  0.00     0.073 A 
HETATM   35  C   UNL     1      13.409 -12.474   3.853  1.00  0.00     0.132 A 
HETATM   36  C   UNL     1      13.893 -12.457   5.133  1.00  0.00     0.047 A 
HETATM   37  F   UNL     1      13.951 -11.676   2.907  1.00  0.00    -0.205 F 
HETATM   38  C   UNL     1      13.306 -13.268   6.069  1.00  0.00     0.132 A 
HETATM   39  C   UNL     1      12.248 -14.115   5.740  1.00  0.00     0.073 A 
HETATM   40  F   UNL     1      13.722 -13.327   7.370  1.00  0.00    -0.205 F 
BRANCH  36  41
HETATM   41  C   UNL     1      15.044 -11.506   5.499  1.00  0.00    -0.042 C 
HETATM   42  C   UNL     1      14.738 -10.246   5.885  1.00  0.00     0.011 C 
HETATM   43  C   UNL     1      16.050  -9.282   6.263  1.00  0.00     0.300 C 
HETATM   44  N   UNL     1      17.049  -9.556   5.555  1.00  0.00     0.087 N 
HETATM   45  C   UNL     1      18.001  -8.790   5.860  1.00  0.00     0.310 C 
HETATM   46  C   UNL     1      17.498 -11.051   5.602  1.00  0.00     0.277 C 
HETATM   47  C   UNL     1      16.439 -11.950   5.188  1.00  0.00     0.069 C 
ENDBRANCH  36  41
ENDBRANCH  31  33
ENDBRANCH  21  31
ENDBRANCH  15  19
ENDBRANCH   4  13
ENDBRANCH   1   4
TORSDOF 8
ENDMDL
MODEL 13
REMARK VINA RESULT:    -9.869      2.293      3.120
REMARK INTER + INTRA:         -15.035
REMARK INTER:                 -14.166
REMARK INTRA:                  -0.868
REMARK UNBOUND:                -0.550
REMARK  8 active torsions:
REMARK  status: ('A' for Active; 'I' for Inactive)
REMARK    1  A    between atoms: C_4  and  N_38 
REMARK    2  A    between atoms: C_6  and  C_18 
REMARK    3  A    between atoms: C_9  and  N_33 
REMARK    4  A    between atoms: C_9  and  C_10 
REMARK    5  A    between atoms: C_12  and  C_13 
REMARK    6  A    between atoms: C_16  and  N_38 
REMARK    7  A    between atoms: C_27  and  S_47 
REMARK    8  A    between atoms: N_31  and  S_47 
ROOT
HETATM    1  C   UNL     1      12.924 -14.786   6.466  1.00  0.00     0.160 C 
HETATM    2  C   UNL     1      13.668 -15.926   5.834  1.00  0.00     0.061 C 
HETATM    3  N   UNL     1      14.215 -16.716   5.231  1.00  0.00    -0.197 NA
ENDROOT
BRANCH   1   4
HETATM    4  C   UNL     1      12.150 -13.861   5.483  1.00  0.00     0.098 A 
HETATM    5  C   UNL     1      12.860 -13.718   4.239  1.00  0.00     0.171 A 
HETATM    6  N   UNL     1      13.101 -12.306   4.692  1.00  0.00    -0.306 N 
HETATM    7  C   UNL     1      12.402 -12.558   5.968  1.00  0.00     0.171 A 
BRANCH   6   8
HETATM    8  S   UNL     1      13.062 -10.870   3.804  1.00  0.00     0.228 S 
HETATM    9  O   UNL     1      11.688 -10.468   3.698  1.00  0.00    -0.206 OA
HETATM   10  O   UNL     1      13.637 -11.100   2.501  1.00  0.00    -0.206 OA
BRANCH   8  11
HETATM   11  C   UNL     1      13.975  -9.546   4.680  1.00  0.00     0.159 C 
HETATM   12  C   UNL     1      13.091  -9.020   5.781  1.00  0.00     0.023 C 
ENDBRANCH   8  11
ENDBRANCH   6   8
BRANCH   4  13
HETATM   13  N   UNL     1      10.847 -14.361   5.442  1.00  0.00    -0.289 N 
HETATM   14  C   UNL     1      10.455 -15.620   5.465  1.00  0.00     0.126 A 
HETATM   15  C   UNL     1       9.066 -15.600   5.422  1.00  0.00     0.026 A 
HETATM   16  C   UNL     1       8.629 -14.291   5.432  1.00  0.00     0.122 A 
HETATM   17  N   UNL     1       9.770 -13.539   5.417  1.00  0.00    -0.308 N 
ATOM     18  HN  UNL     1       9.805 -12.520   5.391  1.00  0.00     0.186 HD
BRANCH  15  19
HETATM   19  C   UNL     1       8.082 -16.753   5.573  1.00  0.00     0.076 A 
HETATM   20  N   UNL     1       6.794 -16.423   5.530  1.00  0.00    -0.190 N 
HETATM   21  C   UNL     1       5.883 -17.342   5.709  1.00  0.00     0.684 A 
ATOM     22  HN  UNL     1       6.519 -15.456   5.357  1.00  0.00     0.184 HD
HETATM   23  N   UNL     1       6.141 -18.598   5.992  1.00  0.00    -0.175 N 
HETATM   24  C   UNL     1       7.420 -18.979   6.066  1.00  0.00     0.133 A 
ATOM     25  HN  UNL     1       5.385 -19.265   6.151  1.00  0.00     0.186 HD
HETATM   26  N   UNL     1       7.939 -20.193   6.330  1.00  0.00    -0.351 N 
HETATM   27  C   UNL     1       8.451 -18.079   5.865  1.00  0.00     0.038 A 
HETATM   28  C   UNL     1       9.286 -20.099   6.276  1.00  0.00     0.090 A 
ATOM     29  HN  UNL     1       7.407 -21.039   6.535  1.00  0.00     0.166 HD
HETATM   30  C   UNL     1       9.661 -18.821   5.997  1.00  0.00     0.034 A 
BRANCH  21  31
HETATM   31  N   UNL     1       4.503 -17.005   5.660  1.00  0.00    -0.191 N 
ATOM     32  HN  UNL     1       3.882 -17.672   5.203  1.00  0.00     0.184 HD
BRANCH  31  33
HETATM   33  C   UNL     1       3.902 -15.821   6.189  1.00  0.00     0.055 A 
HETATM   34  C   UNL     1       2.760 -16.084   6.908  1.00  0.00     0.073 A 
HETATM   35  C   UNL     1       2.068 -15.045   7.481  1.00  0.00     0.132 A 
HETATM   36  C   UNL     1       2.477 -13.746   7.342  1.00  0.00     0.047 A 
HETATM   37  F   UNL     1       0.959 -15.338   8.194  1.00  0.00    -0.205 F 
HETATM   38  C   UNL     1       3.617 -13.488   6.625  1.00  0.00     0.132 A 
HETATM   39  C   UNL     1       4.349 -14.513   6.027  1.00  0.00     0.073 A 
HETATM   40  F   UNL     1       4.101 -12.225   6.425  1.00  0.00    -0.205 F 
BRANCH  36  41
HETATM   41  C   UNL     1       1.681 -12.620   8.022  1.00  0.00    -0.042 C 
HETATM   42  C   UNL     1       1.081 -11.694   7.239  1.00  0.00     0.011 C 
HETATM   43  C   UNL     1       0.240 -10.507   8.063  1.00  0.00     0.300 C 
HETATM   44  N   UNL     1       0.782 -10.227   9.159  1.00  0.00     0.087 N 
HETATM   45  C   UNL     1       0.127  -9.315   9.729  1.00  0.00     0.310 C 
HETATM   46  C   UNL     1       0.997 -11.443  10.116  1.00  0.00     0.277 C 
HETATM   47  C   UNL     1       1.808 -12.478   9.508  1.00  0.00     0.069 C 
ENDBRANCH  36  41
ENDBRANCH  31  33
ENDBRANCH  21  31
ENDBRANCH  15  19
ENDBRANCH   4  13
ENDBRANCH   1   4
TORSDOF 8
ENDMDL
MODEL 14
REMARK VINA RESULT:    -9.849      2.761      3.961
REMARK INTER + INTRA:         -15.005
REMARK INTER:                 -14.517
REMARK INTRA:                  -0.488
REMARK UNBOUND:                -0.550
REMARK  8 active torsions:
REMARK  status: ('A' for Active; 'I' for Inactive)
REMARK    1  A    between atoms: C_4  and  N_38 
REMARK    2  A    between atoms: C_6  and  C_18 
REMARK    3  A    between atoms: C_9  and  N_33 
REMARK    4  A    between atoms: C_9  and  C_10 
REMARK    5  A    between atoms: C_12  and  C_13 
REMARK    6  A    between atoms: C_16  and  N_38 
REMARK    7  A    between atoms: C_27  and  S_47 
REMARK    8  A    between atoms: N_31  and  S_47 
ROOT
HETATM    1  C   UNL     1      14.726 -11.923   2.509  1.00  0.00     0.160 C 
HETATM    2  C   UNL     1      15.172 -13.160   1.785  1.00  0.00     0.061 C 
HETATM    3  N   UNL     1      15.528 -14.154   1.369  1.00  0.00    -0.197 NA
ENDROOT
BRANCH   1   4
HETATM    4  C   UNL     1      15.092 -11.861   4.021  1.00  0.00     0.098 A 
HETATM    5  C   UNL     1      15.024 -10.511   4.515  1.00  0.00     0.171 A 
HETATM    6  N   UNL     1      16.521 -10.609   4.602  1.00  0.00    -0.306 N 
HETATM    7  C   UNL     1      16.501 -11.973   4.036  1.00  0.00     0.171 A 
BRANCH   6   8
HETATM    8  S   UNL     1      17.568 -10.047   5.803  1.00  0.00     0.228 S 
HETATM    9  O   UNL     1      17.937 -11.174   6.612  1.00  0.00    -0.206 OA
HETATM   10  O   UNL     1      16.895  -9.042   6.589  1.00  0.00    -0.206 OA
BRANCH   8  11
HETATM   11  C   UNL     1      19.093  -9.359   5.058  1.00  0.00     0.159 C 
HETATM   12  C   UNL     1      19.979 -10.512   4.660  1.00  0.00     0.023 C 
ENDBRANCH   8  11
ENDBRANCH   6   8
BRANCH   4  13
HETATM   13  N   UNL     1      14.298 -12.828   4.641  1.00  0.00    -0.289 N 
HETATM   14  C   UNL     1      13.045 -13.146   4.377  1.00  0.00     0.126 A 
HETATM   15  C   UNL     1      12.711 -14.176   5.249  1.00  0.00     0.026 A 
HETATM   16  C   UNL     1      13.815 -14.509   6.006  1.00  0.00     0.122 A 
HETATM   17  N   UNL     1      14.786 -13.628   5.620  1.00  0.00    -0.308 N 
ATOM     18  HN  UNL     1      15.728 -13.580   6.006  1.00  0.00     0.186 HD
BRANCH  15  19
HETATM   19  C   UNL     1      11.449 -15.027   5.293  1.00  0.00     0.076 A 
HETATM   20  N   UNL     1      10.301 -14.358   5.342  1.00  0.00    -0.190 N 
HETATM   21  C   UNL     1       9.173 -15.010   5.442  1.00  0.00     0.684 A 
ATOM     22  HN  UNL     1      10.301 -13.338   5.302  1.00  0.00     0.184 HD
HETATM   23  N   UNL     1       9.078 -16.315   5.555  1.00  0.00    -0.175 N 
HETATM   24  C   UNL     1      10.203 -17.035   5.530  1.00  0.00     0.133 A 
ATOM     25  HN  UNL     1       8.169 -16.767   5.660  1.00  0.00     0.186 HD
HETATM   26  N   UNL     1      10.371 -18.368   5.620  1.00  0.00    -0.351 N 
HETATM   27  C   UNL     1      11.441 -16.430   5.402  1.00  0.00     0.038 A 
HETATM   28  C   UNL     1      11.692 -18.637   5.525  1.00  0.00     0.090 A 
ATOM     29  HN  UNL     1       9.628 -19.057   5.739  1.00  0.00     0.166 HD
HETATM   30  C   UNL     1      12.401 -17.483   5.393  1.00  0.00     0.034 A 
BRANCH  21  31
HETATM   31  N   UNL     1       7.938 -14.308   5.489  1.00  0.00    -0.191 N 
ATOM     32  HN  UNL     1       7.987 -13.289   5.483  1.00  0.00     0.184 HD
BRANCH  31  33
HETATM   33  C   UNL     1       6.635 -14.892   5.544  1.00  0.00     0.055 A 
HETATM   34  C   UNL     1       5.636 -13.950   5.604  1.00  0.00     0.073 A 
HETATM   35  C   UNL     1       4.325 -14.359   5.661  1.00  0.00     0.132 A 
HETATM   36  C   UNL     1       3.985 -15.684   5.678  1.00  0.00     0.047 A 
HETATM   37  F   UNL     1       3.366 -13.408   5.703  1.00  0.00    -0.205 F 
HETATM   38  C   UNL     1       4.985 -16.621   5.617  1.00  0.00     0.132 A 
HETATM   39  C   UNL     1       6.328 -16.250   5.558  1.00  0.00     0.073 A 
HETATM   40  F   UNL     1       4.747 -17.967   5.634  1.00  0.00    -0.205 F 
BRANCH  36  41
HETATM   41  C   UNL     1       2.503 -16.091   5.719  1.00  0.00    -0.042 C 
HETATM   42  C   UNL     1       1.913 -16.245   6.926  1.00  0.00     0.011 C 
HETATM   43  C   UNL     1       0.302 -16.689   6.875  1.00  0.00     0.300 C 
HETATM   44  N   UNL     1       0.053 -17.429   5.894  1.00  0.00     0.087 N 
HETATM   45  C   UNL     1      -1.163 -17.755   5.913  1.00  0.00     0.310 C 
HETATM   46  C   UNL     1       0.451 -16.837   4.505  1.00  0.00     0.277 C 
HETATM   47  C   UNL     1       1.863 -16.518   4.434  1.00  0.00     0.069 C 
ENDBRANCH  36  41
ENDBRANCH  31  33
ENDBRANCH  21  31
ENDBRANCH  15  19
ENDBRANCH   4  13
ENDBRANCH   1   4
TORSDOF 8
ENDMDL
MODEL 15
REMARK VINA RESULT:    -9.800      2.062      2.832
REMARK INTER + INTRA:         -14.933
REMARK INTER:                 -13.809
REMARK INTRA:                  -1.124
REMARK UNBOUND:                -0.550
REMARK  8 active torsions:
REMARK  status: ('A' for Active; 'I' for Inactive)
REMARK    1  A    between atoms: C_4  and  N_38 
REMARK    2  A    between atoms: C_6  and  C_18 
REMARK    3  A    between atoms: C_9  and  N_33 
REMARK    4  A    between atoms: C_9  and  C_10 
REMARK    5  A    between atoms: C_12  and  C_13 
REMARK    6  A    between atoms: C_16  and  N_38 
REMARK    7  A    between atoms: C_27  and  S_47 
REMARK    8  A    between atoms: N_31  and  S_47 
ROOT
HETATM    1  C   UNL     1      13.388 -13.268   6.803  1.00  0.00     0.160 C 
HETATM    2  C   UNL     1      13.382 -14.357   7.836  1.00  0.00     0.061 C 
HETATM    3  N   UNL     1      13.394 -15.274   8.505  1.00  0.00    -0.197 NA
ENDROOT
BRANCH   1   4
HETATM    4  C   UNL     1      13.162 -13.732   5.335  1.00  0.00     0.098 A 
HETATM    5  C   UNL     1      14.410 -14.065   4.700  1.00  0.00     0.171 A 
HETATM    6  N   UNL     1      14.173 -12.825   3.885  1.00  0.00    -0.306 N 
HETATM    7  C   UNL     1      12.931 -12.531   4.628  1.00  0.00     0.171 A 
BRANCH   6   8
HETATM    8  S   UNL     1      14.434 -12.553   2.239  1.00  0.00     0.228 S 
HETATM    9  O   UNL     1      14.531 -11.133   2.049  1.00  0.00    -0.206 OA
HETATM   10  O   UNL     1      13.333 -13.102   1.485  1.00  0.00    -0.206 OA
BRANCH   8  11
HETATM   11  C   UNL     1      16.014 -13.307   1.702  1.00  0.00     0.159 C 
HETATM   12  C   UNL     1      17.070 -12.231   1.710  1.00  0.00     0.023 C 
ENDBRANCH   8  11
ENDBRANCH   6   8
BRANCH   4  13
HETATM   13  N   UNL     1      12.174 -14.717   5.399  1.00  0.00    -0.289 N 
HETATM   14  C   UNL     1      10.877 -14.560   5.574  1.00  0.00     0.126 A 
HETATM   15  C   UNL     1      10.320 -15.833   5.545  1.00  0.00     0.026 A 
HETATM   16  C   UNL     1      11.311 -16.758   5.290  1.00  0.00     0.122 A 
HETATM   17  N   UNL     1      12.466 -16.030   5.230  1.00  0.00    -0.308 N 
ATOM     18  HN  UNL     1      13.400 -16.413   5.083  1.00  0.00     0.186 HD
BRANCH  15  19
HETATM   19  C   UNL     1       8.853 -16.242   5.548  1.00  0.00     0.076 A 
HETATM   20  N   UNL     1       7.977 -15.256   5.376  1.00  0.00    -0.190 N 
HETATM   21  C   UNL     1       6.696 -15.510   5.424  1.00  0.00     0.684 A 
ATOM     22  HN  UNL     1       8.304 -14.305   5.208  1.00  0.00     0.184 HD
HETATM   23  N   UNL     1       6.183 -16.689   5.690  1.00  0.00    -0.175 N 
HETATM   24  C   UNL     1       7.019 -17.713   5.889  1.00  0.00     0.133 A 
ATOM     25  HN  UNL     1       5.172 -16.821   5.743  1.00  0.00     0.186 HD
HETATM   26  N   UNL     1       6.748 -19.001   6.165  1.00  0.00    -0.351 N 
HETATM   27  C   UNL     1       8.391 -17.540   5.832  1.00  0.00     0.038 A 
HETATM   28  C   UNL     1       7.917 -19.671   6.262  1.00  0.00     0.090 A 
ATOM     29  HN  UNL     1       5.817 -19.404   6.283  1.00  0.00     0.166 HD
HETATM   30  C   UNL     1       8.965 -18.823   6.070  1.00  0.00     0.034 A 
BRANCH  21  31
HETATM   31  N   UNL     1       5.749 -14.468   5.236  1.00  0.00    -0.191 N 
ATOM     32  HN  UNL     1       6.113 -13.562   4.941  1.00  0.00     0.184 HD
BRANCH  31  33
HETATM   33  C   UNL     1       4.335 -14.567   5.421  1.00  0.00     0.055 A 
HETATM   34  C   UNL     1       3.953 -14.321   6.718  1.00  0.00     0.073 A 
HETATM   35  C   UNL     1       2.621 -14.379   7.052  1.00  0.00     0.132 A 
HETATM   36  C   UNL     1       1.661 -14.693   6.129  1.00  0.00     0.047 A 
HETATM   37  F   UNL     1       2.277 -14.116   8.332  1.00  0.00    -0.205 F 
HETATM   38  C   UNL     1       2.047 -14.937   4.836  1.00  0.00     0.132 A 
HETATM   39  C   UNL     1       3.387 -14.889   4.454  1.00  0.00     0.073 A 
HETATM   40  F   UNL     1       1.164 -15.265   3.844  1.00  0.00    -0.205 F 
BRANCH  36  41
HETATM   41  C   UNL     1       0.182 -14.722   6.547  1.00  0.00    -0.042 C 
HETATM   42  C   UNL     1      -0.548 -13.593   6.404  1.00  0.00     0.011 C 
HETATM   43  C   UNL     1      -2.145 -13.716   6.886  1.00  0.00     0.300 C 
HETATM   44  N   UNL     1      -2.280 -14.498   7.856  1.00  0.00     0.087 N 
HETATM   45  C   UNL     1      -3.492 -14.538   8.195  1.00  0.00     0.310 C 
HETATM   46  C   UNL     1      -1.716 -15.936   7.625  1.00  0.00     0.277 C 
HETATM   47  C   UNL     1      -0.304 -15.922   7.301  1.00  0.00     0.069 C 
ENDBRANCH  36  41
ENDBRANCH  31  33
ENDBRANCH  21  31
ENDBRANCH  15  19
ENDBRANCH   4  13
ENDBRANCH   1   4
TORSDOF 8
ENDMDL
MODEL 16
REMARK VINA RESULT:    -9.750      4.831     10.114
REMARK INTER + INTRA:         -14.859
REMARK INTER:                 -13.616
REMARK INTRA:                  -1.243
REMARK UNBOUND:                -0.550
REMARK  8 active torsions:
REMARK  status: ('A' for Active; 'I' for Inactive)
REMARK    1  A    between atoms: C_4  and  N_38 
REMARK    2  A    between atoms: C_6  and  C_18 
REMARK    3  A    between atoms: C_9  and  N_33 
REMARK    4  A    between atoms: C_9  and  C_10 
REMARK    5  A    between atoms: C_12  and  C_13 
REMARK    6  A    between atoms: C_16  and  N_38 
REMARK    7  A    between atoms: C_27  and  S_47 
REMARK    8  A    between atoms: N_31  and  S_47 
ROOT
HETATM    1  C   UNL     1       4.671 -11.810   5.249  1.00  0.00     0.160 C 
HETATM    2  C   UNL     1       4.418 -11.267   3.873  1.00  0.00     0.061 C 
HETATM    3  N   UNL     1       4.167 -10.986   2.803  1.00  0.00    -0.197 NA
ENDROOT
BRANCH   1   4
HETATM    4  C   UNL     1       4.565 -13.356   5.391  1.00  0.00     0.098 A 
HETATM    5  C   UNL     1       3.874 -13.933   4.268  1.00  0.00     0.171 A 
HETATM    6  N   UNL     1       2.773 -14.203   5.254  1.00  0.00    -0.306 N 
HETATM    7  C   UNL     1       3.531 -13.542   6.336  1.00  0.00     0.171 A 
BRANCH   6   8
HETATM    8  S   UNL     1       1.786 -15.563   5.420  1.00  0.00     0.228 S 
HETATM    9  O   UNL     1       1.840 -16.287   4.181  1.00  0.00    -0.206 OA
HETATM   10  O   UNL     1       0.438 -15.140   5.714  1.00  0.00    -0.206 OA
BRANCH   8  11
HETATM   11  C   UNL     1       2.413 -16.658   6.747  1.00  0.00     0.159 C 
HETATM   12  C   UNL     1       3.635 -17.370   6.224  1.00  0.00     0.023 C 
ENDBRANCH   8  11
ENDBRANCH   6   8
BRANCH   4  13
HETATM   13  N   UNL     1       5.861 -13.800   5.663  1.00  0.00    -0.289 N 
HETATM   14  C   UNL     1       6.353 -15.015   5.521  1.00  0.00     0.126 A 
HETATM   15  C   UNL     1       7.687 -14.945   5.905  1.00  0.00     0.026 A 
HETATM   16  C   UNL     1       8.001 -13.640   6.228  1.00  0.00     0.122 A 
HETATM   17  N   UNL     1       6.828 -12.952   6.093  1.00  0.00    -0.308 N 
ATOM     18  HN  UNL     1       6.700 -11.959   6.284  1.00  0.00     0.186 HD
BRANCH  15  19
HETATM   19  C   UNL     1       8.775 -16.006   5.804  1.00  0.00     0.076 A 
HETATM   20  N   UNL     1      10.006 -15.554   5.586  1.00  0.00    -0.190 N 
HETATM   21  C   UNL     1      10.990 -16.400   5.428  1.00  0.00     0.684 A 
ATOM     22  HN  UNL     1      10.182 -14.550   5.543  1.00  0.00     0.184 HD
HETATM   23  N   UNL     1      10.850 -17.705   5.412  1.00  0.00    -0.175 N 
HETATM   24  C   UNL     1       9.630 -18.213   5.607  1.00  0.00     0.133 A 
ATOM     25  HN  UNL     1      11.653 -18.316   5.254  1.00  0.00     0.186 HD
HETATM   26  N   UNL     1       9.231 -19.498   5.643  1.00  0.00    -0.351 N 
HETATM   27  C   UNL     1       8.534 -17.393   5.808  1.00  0.00     0.038 A 
HETATM   28  C   UNL     1       7.903 -19.524   5.891  1.00  0.00     0.090 A 
ATOM     29  HN  UNL     1       9.829 -20.314   5.506  1.00  0.00     0.166 HD
HETATM   30  C   UNL     1       7.417 -18.257   5.998  1.00  0.00     0.034 A 
BRANCH  21  31
HETATM   31  N   UNL     1      12.312 -15.930   5.201  1.00  0.00    -0.191 N 
ATOM     32  HN  UNL     1      13.051 -16.632   5.174  1.00  0.00     0.184 HD
BRANCH  31  33
HETATM   33  C   UNL     1      12.704 -14.570   5.006  1.00  0.00     0.055 A 
HETATM   34  C   UNL     1      13.999 -14.332   5.401  1.00  0.00     0.073 A 
HETATM   35  C   UNL     1      14.522 -13.067   5.275  1.00  0.00     0.132 A 
HETATM   36  C   UNL     1      13.780 -12.029   4.782  1.00  0.00     0.047 A 
HETATM   37  F   UNL     1      15.803 -12.870   5.657  1.00  0.00    -0.205 F 
HETATM   38  C   UNL     1      12.489 -12.270   4.389  1.00  0.00     0.132 A 
HETATM   39  C   UNL     1      11.919 -13.538   4.499  1.00  0.00     0.073 A 
HETATM   40  F   UNL     1      11.667 -11.298   3.890  1.00  0.00    -0.205 F 
BRANCH  36  41
HETATM   41  C   UNL     1      14.418 -10.637   4.639  1.00  0.00    -0.042 C 
HETATM   42  C   UNL     1      14.386  -9.803   5.704  1.00  0.00     0.011 C 
HETATM   43  C   UNL     1      15.101  -8.312   5.458  1.00  0.00     0.300 C 
HETATM   44  N   UNL     1      14.959  -7.917   4.276  1.00  0.00     0.087 N 
HETATM   45  C   UNL     1      15.493  -6.783   4.148  1.00  0.00     0.310 C 
HETATM   46  C   UNL     1      15.479  -8.905   3.184  1.00  0.00     0.277 C 
HETATM   47  C   UNL     1      14.829 -10.198   3.267  1.00  0.00     0.069 C 
ENDBRANCH  36  41
ENDBRANCH  31  33
ENDBRANCH  21  31
ENDBRANCH  15  19
ENDBRANCH   4  13
ENDBRANCH   1   4
TORSDOF 8
ENDMDL
MODEL 17
REMARK VINA RESULT:    -9.741      2.946      4.518
REMARK INTER + INTRA:         -14.846
REMARK INTER:                 -13.437
REMARK INTRA:                  -1.409
REMARK UNBOUND:                -0.550
REMARK  8 active torsions:
REMARK  status: ('A' for Active; 'I' for Inactive)
REMARK    1  A    between atoms: C_4  and  N_38 
REMARK    2  A    between atoms: C_6  and  C_18 
REMARK    3  A    between atoms: C_9  and  N_33 
REMARK    4  A    between atoms: C_9  and  C_10 
REMARK    5  A    between atoms: C_12  and  C_13 
REMARK    6  A    between atoms: C_16  and  N_38 
REMARK    7  A    between atoms: C_27  and  S_47 
REMARK    8  A    between atoms: N_31  and  S_47 
ROOT
HETATM    1  C   UNL     1      15.977  -8.860   4.793  1.00  0.00     0.160 C 
HETATM    2  C   UNL     1      16.530  -8.981   6.183  1.00  0.00     0.061 C 
HETATM    3  N   UNL     1      17.021  -9.187   7.185  1.00  0.00    -0.197 NA
ENDROOT
BRANCH   1   4
HETATM    4  C   UNL     1      16.158 -10.113   3.887  1.00  0.00     0.098 A 
HETATM    5  C   UNL     1      17.380 -10.805   4.199  1.00  0.00     0.171 A 
HETATM    6  N   UNL     1      17.847 -10.308   2.860  1.00  0.00    -0.306 N 
HETATM    7  C   UNL     1      16.580  -9.580   2.648  1.00  0.00     0.171 A 
BRANCH   6   8
HETATM    8  S   UNL     1      18.749 -11.100   1.672  1.00  0.00     0.228 S 
HETATM    9  O   UNL     1      18.742 -10.268   0.502  1.00  0.00    -0.206 OA
HETATM   10  O   UNL     1      18.151 -12.384   1.398  1.00  0.00    -0.206 OA
BRANCH   8  11
HETATM   11  C   UNL     1      20.487 -11.307   2.212  1.00  0.00     0.159 C 
HETATM   12  C   UNL     1      20.581 -12.593   2.994  1.00  0.00     0.023 C 
ENDBRANCH   8  11
ENDBRANCH   6   8
BRANCH   4  13
HETATM   13  N   UNL     1      14.959 -10.822   3.981  1.00  0.00    -0.289 N 
HETATM   14  C   UNL     1      14.706 -11.905   4.690  1.00  0.00     0.126 A 
HETATM   15  C   UNL     1      13.370 -12.217   4.466  1.00  0.00     0.026 A 
HETATM   16  C   UNL     1      12.809 -11.258   3.647  1.00  0.00     0.122 A 
HETATM   17  N   UNL     1      13.838 -10.413   3.339  1.00  0.00    -0.308 N 
ATOM     18  HN  UNL     1      13.772  -9.602   2.723  1.00  0.00     0.186 HD
BRANCH  15  19
HETATM   19  C   UNL     1      12.502 -13.273   5.138  1.00  0.00     0.076 A 
HETATM   20  N   UNL     1      11.332 -12.849   5.605  1.00  0.00    -0.190 N 
HETATM   21  C   UNL     1      10.551 -13.677   6.247  1.00  0.00     0.684 A 
ATOM     22  HN  UNL     1      11.044 -11.881   5.461  1.00  0.00     0.184 HD
HETATM   23  N   UNL     1      10.860 -14.922   6.528  1.00  0.00    -0.175 N 
HETATM   24  C   UNL     1      12.034 -15.395   6.097  1.00  0.00     0.133 A 
ATOM     25  HN  UNL     1      10.220 -15.513   7.059  1.00  0.00     0.186 HD
HETATM   26  N   UNL     1      12.572 -16.619   6.246  1.00  0.00    -0.351 N 
HETATM   27  C   UNL     1      12.913 -14.596   5.387  1.00  0.00     0.038 A 
HETATM   28  C   UNL     1      13.771 -16.635   5.622  1.00  0.00     0.090 A 
ATOM     29  HN  UNL     1      12.148 -17.402   6.746  1.00  0.00     0.166 HD
HETATM   30  C   UNL     1      14.037 -15.416   5.078  1.00  0.00     0.034 A 
BRANCH  21  31
HETATM   31  N   UNL     1       9.294 -13.239   6.746  1.00  0.00    -0.191 N 
ATOM     32  HN  UNL     1       9.310 -12.518   7.467  1.00  0.00     0.184 HD
BRANCH  31  33
HETATM   33  C   UNL     1       8.010 -13.712   6.334  1.00  0.00     0.055 A 
HETATM   34  C   UNL     1       7.046 -12.734   6.382  1.00  0.00     0.073 A 
HETATM   35  C   UNL     1       5.757 -13.036   6.015  1.00  0.00     0.132 A 
HETATM   36  C   UNL     1       5.401 -14.295   5.615  1.00  0.00     0.047 A 
HETATM   37  F   UNL     1       4.837 -12.048   6.058  1.00  0.00    -0.205 F 
HETATM   38  C   UNL     1       6.365 -15.269   5.567  1.00  0.00     0.132 A 
HETATM   39  C   UNL     1       7.685 -15.004   5.931  1.00  0.00     0.073 A 
HETATM   40  F   UNL     1       6.107 -16.557   5.188  1.00  0.00    -0.205 F 
BRANCH  36  41
HETATM   41  C   UNL     1       3.950 -14.578   5.191  1.00  0.00    -0.042 C 
HETATM   42  C   UNL     1       3.577 -14.263   3.930  1.00  0.00     0.011 C 
HETATM   43  C   UNL     1       1.983 -14.603   3.557  1.00  0.00     0.300 C 
HETATM   44  N   UNL     1       1.230 -14.456   4.549  1.00  0.00     0.087 N 
HETATM   45  C   UNL     1       0.041 -14.700   4.213  1.00  0.00     0.310 C 
HETATM   46  C   UNL     1       1.635 -15.283   5.811  1.00  0.00     0.277 C 
HETATM   47  C   UNL     1       2.977 -14.968   6.260  1.00  0.00     0.069 C 
ENDBRANCH  36  41
ENDBRANCH  31  33
ENDBRANCH  21  31
ENDBRANCH  15  19
ENDBRANCH   4  13
ENDBRANCH   1   4
TORSDOF 8
ENDMDL
MODEL 18
REMARK VINA RESULT:    -9.700      5.085      9.772
REMARK INTER + INTRA:         -14.786
REMARK INTER:                 -12.913
REMARK INTRA:                  -1.873
REMARK UNBOUND:                -0.550
REMARK  8 active torsions:
REMARK  status: ('A' for Active; 'I' for Inactive)
REMARK    1  A    between atoms: C_4  and  N_38 
REMARK    2  A    between atoms: C_6  and  C_18 
REMARK    3  A    between atoms: C_9  and  N_33 
REMARK    4  A    between atoms: C_9  and  C_10 
REMARK    5  A    between atoms: C_12  and  C_13 
REMARK    6  A    between atoms: C_16  and  N_38 
REMARK    7  A    between atoms: C_27  and  S_47 
REMARK    8  A    between atoms: N_31  and  S_47 
ROOT
HETATM    1  C   UNL     1      10.755  -5.926   2.637  1.00  0.00     0.160 C 
HETATM    2  C   UNL     1       9.795  -6.124   1.500  1.00  0.00     0.061 C 
HETATM    3  N   UNL     1       9.012  -6.382   0.720  1.00  0.00    -0.197 NA
ENDROOT
BRANCH   1   4
HETATM    4  C   UNL     1      10.840  -7.098   3.657  1.00  0.00     0.098 A 
HETATM    5  C   UNL     1       9.930  -8.156   3.306  1.00  0.00     0.171 A 
HETATM    6  N   UNL     1       9.166  -7.724   4.526  1.00  0.00    -0.306 N 
HETATM    7  C   UNL     1      10.120  -6.626   4.779  1.00  0.00     0.171 A 
BRANCH   6   8
HETATM    8  S   UNL     1       8.395  -8.661   5.701  1.00  0.00     0.228 S 
HETATM    9  O   UNL     1       7.212  -9.212   5.102  1.00  0.00    -0.206 OA
HETATM   10  O   UNL     1       8.063  -7.827   6.831  1.00  0.00    -0.206 OA
BRANCH   8  11
HETATM   11  C   UNL     1       9.467 -10.050   6.226  1.00  0.00     0.159 C 
HETATM   12  C   UNL     1       9.987  -9.741   7.607  1.00  0.00     0.023 C 
ENDBRANCH   8  11
ENDBRANCH   6   8
BRANCH   4  13
HETATM   13  N   UNL     1      12.197  -7.406   3.765  1.00  0.00    -0.289 N 
HETATM   14  C   UNL     1      12.782  -8.219   4.623  1.00  0.00     0.126 A 
HETATM   15  C   UNL     1      14.137  -8.204   4.316  1.00  0.00     0.026 A 
HETATM   16  C   UNL     1      14.345  -7.404   3.211  1.00  0.00     0.122 A 
HETATM   17  N   UNL     1      13.113  -6.897   2.906  1.00  0.00    -0.308 N 
ATOM     18  HN  UNL     1      12.914  -6.240   2.152  1.00  0.00     0.186 HD
BRANCH  15  19
HETATM   19  C   UNL     1      15.262  -9.063   4.880  1.00  0.00     0.076 A 
HETATM   20  N   UNL     1      15.063 -10.377   4.836  1.00  0.00    -0.190 N 
HETATM   21  C   UNL     1      15.951 -11.185   5.352  1.00  0.00     0.684 A 
ATOM     22  HN  UNL     1      14.221 -10.753   4.401  1.00  0.00     0.184 HD
HETATM   23  N   UNL     1      17.036 -10.792   5.980  1.00  0.00    -0.175 N 
HETATM   24  C   UNL     1      17.275  -9.480   6.069  1.00  0.00     0.133 A 
ATOM     25  HN  UNL     1      17.679 -11.471   6.389  1.00  0.00     0.186 HD
HETATM   26  N   UNL     1      18.304  -8.833   6.646  1.00  0.00    -0.351 N 
HETATM   27  C   UNL     1      16.401  -8.553   5.529  1.00  0.00     0.038 A 
HETATM   28  C   UNL     1      18.126  -7.505   6.466  1.00  0.00     0.090 A 
ATOM     29  HN  UNL     1      19.085  -9.269   7.137  1.00  0.00     0.166 HD
HETATM   30  C   UNL     1      16.969  -7.271   5.788  1.00  0.00     0.034 A 
BRANCH  21  31
HETATM   31  N   UNL     1      15.756 -12.592   5.307  1.00  0.00    -0.191 N 
ATOM     32  HN  UNL     1      16.580 -13.167   5.137  1.00  0.00     0.184 HD
BRANCH  31  33
HETATM   33  C   UNL     1      14.514 -13.278   5.479  1.00  0.00     0.055 A 
HETATM   34  C   UNL     1      13.805 -13.390   4.306  1.00  0.00     0.073 A 
HETATM   35  C   UNL     1      12.588 -14.027   4.311  1.00  0.00     0.132 A 
HETATM   36  C   UNL     1      12.050 -14.542   5.459  1.00  0.00     0.047 A 
HETATM   37  F   UNL     1      11.924 -14.134   3.139  1.00  0.00    -0.205 F 
HETATM   38  C   UNL     1      12.760 -14.429   6.626  1.00  0.00     0.132 A 
HETATM   39  C   UNL     1      13.999 -13.790   6.667  1.00  0.00     0.073 A 
HETATM   40  F   UNL     1      12.305 -14.905   7.825  1.00  0.00    -0.205 F 
BRANCH  36  41
HETATM   41  C   UNL     1      10.695 -15.267   5.408  1.00  0.00    -0.042 C 
HETATM   42  C   UNL     1       9.572 -14.544   5.621  1.00  0.00     0.011 C 
HETATM   43  C   UNL     1       8.146 -15.414   5.548  1.00  0.00     0.300 C 
HETATM   44  N   UNL     1       8.293 -16.586   5.967  1.00  0.00     0.087 N 
HETATM   45  C   UNL     1       7.190 -17.191   5.914  1.00  0.00     0.310 C 
HETATM   46  C   UNL     1       9.414 -17.405   5.250  1.00  0.00     0.277 C 
HETATM   47  C   UNL     1      10.709 -16.764   5.357  1.00  0.00     0.069 C 
ENDBRANCH  36  41
ENDBRANCH  31  33
ENDBRANCH  21  31
ENDBRANCH  15  19
ENDBRANCH   4  13
ENDBRANCH   1   4
TORSDOF 8
ENDMDL
MODEL 19
REMARK VINA RESULT:    -9.694      3.586      7.519
REMARK INTER + INTRA:         -14.778
REMARK INTER:                 -13.719
REMARK INTRA:                  -1.059
REMARK UNBOUND:                -0.550
REMARK  8 active torsions:
REMARK  status: ('A' for Active; 'I' for Inactive)
REMARK    1  A    between atoms: C_4  and  N_38 
REMARK    2  A    between atoms: C_6  and  C_18 
REMARK    3  A    between atoms: C_9  and  N_33 
REMARK    4  A    between atoms: C_9  and  C_10 
REMARK    5  A    between atoms: C_12  and  C_13 
REMARK    6  A    between atoms: C_16  and  N_38 
REMARK    7  A    between atoms: C_27  and  S_47 
REMARK    8  A    between atoms: N_31  and  S_47 
ROOT
HETATM    1  C   UNL     1      13.921 -13.432   3.198  1.00  0.00     0.160 C 
HETATM    2  C   UNL     1      13.970 -14.197   4.489  1.00  0.00     0.061 C 
HETATM    3  N   UNL     1      14.042 -14.648   5.527  1.00  0.00    -0.197 NA
ENDROOT
BRANCH   1   4
HETATM    4  C   UNL     1      14.597 -12.030   3.222  1.00  0.00     0.098 A 
HETATM    5  C   UNL     1      14.902 -11.580   1.890  1.00  0.00     0.171 A 
HETATM    6  N   UNL     1      16.335 -11.797   2.287  1.00  0.00    -0.306 N 
HETATM    7  C   UNL     1      15.928 -12.299   3.615  1.00  0.00     0.171 A 
BRANCH   6   8
HETATM    8  S   UNL     1      17.699 -10.856   1.956  1.00  0.00     0.228 S 
HETATM    9  O   UNL     1      17.678  -9.739   2.858  1.00  0.00    -0.206 OA
HETATM   10  O   UNL     1      17.650 -10.415   0.583  1.00  0.00    -0.206 OA
BRANCH   8  11
HETATM   11  C   UNL     1      19.231 -11.810   2.266  1.00  0.00     0.159 C 
HETATM   12  C   UNL     1      19.925 -12.019   0.944  1.00  0.00     0.023 C 
ENDBRANCH   8  11
ENDBRANCH   6   8
BRANCH   4  13
HETATM   13  N   UNL     1      13.774 -11.228   4.014  1.00  0.00    -0.289 N 
HETATM   14  C   UNL     1      12.519 -10.884   3.798  1.00  0.00     0.126 A 
HETATM   15  C   UNL     1      12.137 -10.096   4.878  1.00  0.00     0.026 A 
HETATM   16  C   UNL     1      13.179 -10.022   5.780  1.00  0.00     0.122 A 
HETATM   17  N   UNL     1      14.200 -10.720   5.196  1.00  0.00    -0.308 N 
ATOM     18  HN  UNL     1      15.133 -10.839   5.588  1.00  0.00     0.186 HD
BRANCH  15  19
HETATM   19  C   UNL     1      10.760  -9.548   5.230  1.00  0.00     0.076 A 
HETATM   20  N   UNL     1       9.906 -10.423   5.753  1.00  0.00    -0.190 N 
HETATM   21  C   UNL     1       8.684 -10.051   6.030  1.00  0.00     0.684 A 
ATOM     22  HN  UNL     1      10.204 -11.381   5.937  1.00  0.00     0.184 HD
HETATM   23  N   UNL     1       8.196  -8.858   5.777  1.00  0.00    -0.175 N 
HETATM   24  C   UNL     1       9.008  -7.945   5.234  1.00  0.00     0.133 A 
ATOM     25  HN  UNL     1       7.224  -8.634   5.988  1.00  0.00     0.186 HD
HETATM   26  N   UNL     1       8.755  -6.669   4.890  1.00  0.00    -0.351 N 
HETATM   27  C   UNL     1      10.324  -8.244   4.931  1.00  0.00     0.038 A 
HETATM   28  C   UNL     1       9.890  -6.129   4.396  1.00  0.00     0.090 A 
ATOM     29  HN  UNL     1       7.858  -6.190   4.986  1.00  0.00     0.166 HD
HETATM   30  C   UNL     1      10.891  -7.052   4.392  1.00  0.00     0.034 A 
BRANCH  21  31
HETATM   31  N   UNL     1       7.763 -10.973   6.595  1.00  0.00    -0.191 N 
ATOM     32  HN  UNL     1       7.024 -10.586   7.181  1.00  0.00     0.184 HD
BRANCH  31  33
HETATM   33  C   UNL     1       7.771 -12.392   6.418  1.00  0.00     0.055 A 
HETATM   34  C   UNL     1       9.017 -12.941   6.608  1.00  0.00     0.073 A 
HETATM   35  C   UNL     1       9.185 -14.298   6.473  1.00  0.00     0.132 A 
HETATM   36  C   UNL     1       8.145 -15.121   6.136  1.00  0.00     0.047 A 
HETATM   37  F   UNL     1      10.418 -14.808   6.682  1.00  0.00    -0.205 F 
HETATM   38  C   UNL     1       6.903 -14.569   5.948  1.00  0.00     0.132 A 
HETATM   39  C   UNL     1       6.689 -13.197   6.076  1.00  0.00     0.073 A 
HETATM   40  F   UNL     1       5.805 -15.307   5.604  1.00  0.00    -0.205 F 
BRANCH  36  41
HETATM   41  C   UNL     1       8.378 -16.636   6.020  1.00  0.00    -0.042 C 
HETATM   42  C   UNL     1       7.711 -17.455   6.865  1.00  0.00     0.011 C 
HETATM   43  C   UNL     1       8.028 -19.085   6.668  1.00  0.00     0.300 C 
HETATM   44  N   UNL     1       9.212 -19.290   6.311  1.00  0.00     0.087 N 
HETATM   45  C   UNL     1       9.408 -20.529   6.199  1.00  0.00     0.310 C 
HETATM   46  C   UNL     1       9.648 -18.537   5.014  1.00  0.00     0.277 C 
HETATM   47  C   UNL     1       9.499 -17.101   5.142  1.00  0.00     0.069 C 
ENDBRANCH  36  41
ENDBRANCH  31  33
ENDBRANCH  21  31
ENDBRANCH  15  19
ENDBRANCH   4  13
ENDBRANCH   1   4
TORSDOF 8
ENDMDL
MODEL 20
REMARK VINA RESULT:    -9.686      4.806     10.302
REMARK INTER + INTRA:         -14.766
REMARK INTER:                 -13.909
REMARK INTRA:                  -0.857
REMARK UNBOUND:                -0.550
REMARK  8 active torsions:
REMARK  status: ('A' for Active; 'I' for Inactive)
REMARK    1  A    between atoms: C_4  and  N_38 
REMARK    2  A    between atoms: C_6  and  C_18 
REMARK    3  A    between atoms: C_9  and  N_33 
REMARK    4  A    between atoms: C_9  and  C_10 
REMARK    5  A    between atoms: C_12  and  C_13 
REMARK    6  A    between atoms: C_16  and  N_38 
REMARK    7  A    between atoms: C_27  and  S_47 
REMARK    8  A    between atoms: N_31  and  S_47 
ROOT
HETATM    1  C   UNL     1       4.034 -14.196   3.988  1.00  0.00     0.160 C 
HETATM    2  C   UNL     1       3.942 -12.902   3.233  1.00  0.00     0.061 C 
HETATM    3  N   UNL     1       3.935 -11.863   2.778  1.00  0.00    -0.197 NA
ENDROOT
BRANCH   1   4
HETATM    4  C   UNL     1       4.311 -14.065   5.514  1.00  0.00     0.098 A 
HETATM    5  C   UNL     1       3.348 -14.811   6.281  1.00  0.00     0.171 A 
HETATM    6  N   UNL     1       2.836 -13.462   6.700  1.00  0.00    -0.306 N 
HETATM    7  C   UNL     1       3.824 -12.779   5.841  1.00  0.00     0.171 A 
BRANCH   6   8
HETATM    8  S   UNL     1       2.304 -12.935   8.214  1.00  0.00     0.228 S 
HETATM    9  O   UNL     1       3.443 -12.918   9.087  1.00  0.00    -0.206 OA
HETATM   10  O   UNL     1       1.289 -13.837   8.703  1.00  0.00    -0.206 OA
BRANCH   8  11
HETATM   11  C   UNL     1       1.643 -11.230   8.108  1.00  0.00     0.159 C 
HETATM   12  C   UNL     1       0.320 -11.198   8.829  1.00  0.00     0.023 C 
ENDBRANCH   8  11
ENDBRANCH   6   8
BRANCH   4  13
HETATM   13  N   UNL     1       5.663 -14.373   5.679  1.00  0.00    -0.289 N 
HETATM   14  C   UNL     1       6.232 -15.563   5.702  1.00  0.00     0.126 A 
HETATM   15  C   UNL     1       7.593 -15.343   5.873  1.00  0.00     0.026 A 
HETATM   16  C   UNL     1       7.837 -13.985   5.895  1.00  0.00     0.122 A 
HETATM   17  N   UNL     1       6.604 -13.404   5.799  1.00  0.00    -0.308 N 
ATOM     18  HN  UNL     1       6.420 -12.401   5.814  1.00  0.00     0.186 HD
BRANCH  15  19
HETATM   19  C   UNL     1       8.743 -16.341   5.822  1.00  0.00     0.076 A 
HETATM   20  N   UNL     1       9.948 -15.824   5.602  1.00  0.00    -0.190 N 
HETATM   21  C   UNL     1      10.982 -16.615   5.485  1.00  0.00     0.684 A 
ATOM     22  HN  UNL     1      10.065 -14.814   5.524  1.00  0.00     0.184 HD
HETATM   23  N   UNL     1      10.920 -17.927   5.515  1.00  0.00    -0.175 N 
HETATM   24  C   UNL     1       9.729 -18.499   5.715  1.00  0.00     0.133 A 
ATOM     25  HN  UNL     1      11.759 -18.494   5.388  1.00  0.00     0.186 HD
HETATM   26  N   UNL     1       9.406 -19.804   5.793  1.00  0.00    -0.351 N 
HETATM   27  C   UNL     1       8.584 -17.738   5.874  1.00  0.00     0.038 A 
HETATM   28  C   UNL     1       8.078 -19.900   6.027  1.00  0.00     0.090 A 
ATOM     29  HN  UNL     1      10.053 -20.586   5.693  1.00  0.00     0.166 HD
HETATM   30  C   UNL     1       7.517 -18.661   6.083  1.00  0.00     0.034 A 
BRANCH  21  31
HETATM   31  N   UNL     1      12.277 -16.077   5.256  1.00  0.00    -0.191 N 
ATOM     32  HN  UNL     1      13.052 -16.739   5.222  1.00  0.00     0.184 HD
BRANCH  31  33
HETATM   33  C   UNL     1      12.597 -14.697   5.068  1.00  0.00     0.055 A 
HETATM   34  C   UNL     1      13.943 -14.445   5.191  1.00  0.00     0.073 A 
HETATM   35  C   UNL     1      14.407 -13.161   5.037  1.00  0.00     0.132 A 
HETATM   36  C   UNL     1      13.560 -12.117   4.778  1.00  0.00     0.047 A 
HETATM   37  F   UNL     1      15.737 -12.950   5.148  1.00  0.00    -0.205 F 
HETATM   38  C   UNL     1      12.219 -12.372   4.655  1.00  0.00     0.132 A 
HETATM   39  C   UNL     1      11.706 -13.660   4.805  1.00  0.00     0.073 A 
HETATM   40  F   UNL     1      11.294 -11.396   4.405  1.00  0.00    -0.205 F 
BRANCH  36  41
HETATM   41  C   UNL     1      14.131 -10.702   4.590  1.00  0.00    -0.042 C 
HETATM   42  C   UNL     1      14.456 -10.301   3.340  1.00  0.00     0.011 C 
HETATM   43  C   UNL     1      15.070  -8.750   3.230  1.00  0.00     0.300 C 
HETATM   44  N   UNL     1      15.744  -8.443   4.242  1.00  0.00     0.087 N 
HETATM   45  C   UNL     1      16.203  -7.279   4.101  1.00  0.00     0.310 C 
HETATM   46  C   UNL     1      14.990  -8.586   5.602  1.00  0.00     0.277 C 
HETATM   47  C   UNL     1      14.511  -9.936   5.820  1.00  0.00     0.069 C 
ENDBRANCH  36  41
ENDBRANCH  31  33
ENDBRANCH  21  31
ENDBRANCH  15  19
ENDBRANCH   4  13
ENDBRANCH   1   4
TORSDOF 8
ENDMDL
