MODEL 1
REMARK VINA RESULT:    -3.832      0.000      0.000
REMARK INTER + INTRA:          -4.802
REMARK INTER:                  -4.504
REMARK INTRA:                  -0.298
REMARK UNBOUND:                -0.298
REMARK  4 active torsions:
REMARK  status: ('A' for Active; 'I' for Inactive)
REMARK    1  A    between atoms: C_2  and  S_7 
REMARK    2  A    between atoms: C_6  and  S_13 
REMARK    3  A    between atoms: S_7  and  N_8 
REMARK    4  A    between atoms: S_13  and  N_14 
ROOT
HETATM    1  C   UNL     1      -1.338  17.549  -5.716  1.00  0.00     0.054 A 
HETATM    2  C   UNL     1      -1.937  17.670  -6.957  1.00  0.00     0.105 A 
HETATM    3  C   UNL     1      -1.655  18.719  -7.785  1.00  0.00     0.071 A 
HETATM    4  C   UNL     1      -0.780  19.695  -7.369  1.00  0.00     0.053 A 
HETATM    5  C   UNL     1      -0.172  19.583  -6.129  1.00  0.00     0.059 A 
HETATM    6  C   UNL     1      -0.442  18.534  -5.280  1.00  0.00     0.102 A 
HETATM    7  N   UNL     1      -2.266  18.822  -9.039  1.00  0.00    -0.101 NA
HETATM    8 CL   UNL     1       0.861  20.766  -5.715  1.00  0.00    -0.083 Cl
ENDROOT
BRANCH   2   9
HETATM    9  S   UNL     1      -3.065  16.384  -7.405  1.00  0.00     0.258 S 
HETATM   10  O   UNL     1      -2.873  15.184  -6.397  1.00  0.00    -0.201 OA
HETATM   11  O   UNL     1      -4.469  16.879  -7.229  1.00  0.00    -0.201 OA
BRANCH   9  12
HETATM   12  N   UNL     1      -2.800  15.979  -8.829  1.00  0.00    -0.324 N 
ATOM     13  HN2 UNL     1      -3.505  16.034  -9.564  1.00  0.00     0.169 HD
ATOM     14  HN1 UNL     1      -1.844  15.648  -8.964  1.00  0.00     0.169 HD
ENDBRANCH   9  12
ENDBRANCH   2   9
BRANCH   6  15
HETATM   15  S   UNL     1       0.331  18.347  -3.669  1.00  0.00     0.258 S 
HETATM   16  O   UNL     1      -0.021  19.505  -2.780  1.00  0.00    -0.201 OA
HETATM   17  O   UNL     1      -0.178  16.993  -3.125  1.00  0.00    -0.201 OA
BRANCH  15  18
HETATM   18  N   UNL     1       1.828  18.267  -3.879  1.00  0.00    -0.324 N 
ATOM     19  HN2 UNL     1       2.488  19.030  -3.721  1.00  0.00     0.169 HD
ATOM     20  HN1 UNL     1       2.049  17.325  -4.201  1.00  0.00     0.169 HD
ENDBRANCH  15  18
ENDBRANCH   6  15
TORSDOF 4
ENDMDL
MODEL 2
REMARK VINA RESULT:    -3.779      3.297      4.712
REMARK INTER + INTRA:          -4.740
REMARK INTER:                  -4.417
REMARK INTRA:                  -0.323
REMARK UNBOUND:                -0.298
REMARK  4 active torsions:
REMARK  status: ('A' for Active; 'I' for Inactive)
REMARK    1  A    between atoms: C_2  and  S_7 
REMARK    2  A    between atoms: C_6  and  S_13 
REMARK    3  A    between atoms: S_7  and  N_8 
REMARK    4  A    between atoms: S_13  and  N_14 
ROOT
HETATM    1  C   UNL     1      -1.479  18.175  -8.845  1.00  0.00     0.054 A 
HETATM    2  C   UNL     1      -0.651  19.265  -9.043  1.00  0.00     0.105 A 
HETATM    3  C   UNL     1      -0.115  19.953  -7.992  1.00  0.00     0.071 A 
HETATM    4  C   UNL     1      -0.427  19.577  -6.705  1.00  0.00     0.053 A 
HETATM    5  C   UNL     1      -1.254  18.485  -6.495  1.00  0.00     0.059 A 
HETATM    6  C   UNL     1      -1.803  17.778  -7.541  1.00  0.00     0.102 A 
HETATM    7  N   UNL     1       0.725  21.049  -8.210  1.00  0.00    -0.101 NA
HETATM    8 CL   UNL     1      -1.562  18.093  -4.949  1.00  0.00    -0.083 Cl
ENDROOT
BRANCH   2   9
HETATM    9  S   UNL     1      -0.319  19.694 -10.726  1.00  0.00     0.258 S 
HETATM   10  O   UNL     1       1.158  19.254 -11.067  1.00  0.00    -0.201 OA
HETATM   11  O   UNL     1      -1.225  18.905 -11.621  1.00  0.00    -0.201 OA
BRANCH   9  12
HETATM   12  N   UNL     1      -0.526  21.174 -10.900  1.00  0.00    -0.324 N 
ATOM     13  HN2 UNL     1      -0.961  21.762 -10.190  1.00  0.00     0.169 HD
ATOM     14  HN1 UNL     1      -0.182  21.508 -11.800  1.00  0.00     0.169 HD
ENDBRANCH   9  12
ENDBRANCH   2   9
BRANCH   6  15
HETATM   15  S   UNL     1      -2.872  16.353  -7.311  1.00  0.00     0.258 S 
HETATM   16  O   UNL     1      -4.007  16.691  -6.387  1.00  0.00    -0.201 OA
HETATM   17  O   UNL     1      -3.346  15.963  -8.729  1.00  0.00    -0.201 OA
BRANCH  15  18
HETATM   18  N   UNL     1      -2.032  15.229  -6.741  1.00  0.00    -0.324 N 
ATOM     19  HN2 UNL     1      -1.019  15.143  -6.836  1.00  0.00     0.169 HD
ATOM     20  HN1 UNL     1      -2.657  14.587  -6.255  1.00  0.00     0.169 HD
ENDBRANCH  15  18
ENDBRANCH   6  15
TORSDOF 4
ENDMDL
MODEL 3
REMARK VINA RESULT:    -3.768      3.404      4.790
REMARK INTER + INTRA:          -4.727
REMARK INTER:                  -4.408
REMARK INTRA:                  -0.319
REMARK UNBOUND:                -0.298
REMARK  4 active torsions:
REMARK  status: ('A' for Active; 'I' for Inactive)
REMARK    1  A    between atoms: C_2  and  S_7 
REMARK    2  A    between atoms: C_6  and  S_13 
REMARK    3  A    between atoms: S_7  and  N_8 
REMARK    4  A    between atoms: S_13  and  N_14 
ROOT
HETATM    1  C   UNL     1      -1.622  18.207  -9.151  1.00  0.00     0.054 A 
HETATM    2  C   UNL     1      -1.801  17.827  -7.833  1.00  0.00     0.105 A 
HETATM    3  C   UNL     1      -1.219  18.516  -6.807  1.00  0.00     0.071 A 
HETATM    4  C   UNL     1      -0.412  19.595  -7.086  1.00  0.00     0.053 A 
HETATM    5  C   UNL     1      -0.227  19.986  -8.403  1.00  0.00     0.059 A 
HETATM    6  C   UNL     1      -0.806  19.305  -9.451  1.00  0.00     0.102 A 
HETATM    7  N   UNL     1      -1.416  18.121  -5.480  1.00  0.00    -0.101 NA
HETATM    8 CL   UNL     1       0.726  21.278  -8.651  1.00  0.00    -0.083 Cl
ENDROOT
BRANCH   2   9
HETATM    9  S   UNL     1      -2.835  16.418  -7.563  1.00  0.00     0.258 S 
HETATM   10  O   UNL     1      -4.115  16.888  -6.768  1.00  0.00    -0.201 OA
HETATM   11  O   UNL     1      -3.311  15.898  -8.886  1.00  0.00    -0.201 OA
BRANCH   9  12
HETATM   12  N   UNL     1      -2.051  15.376  -6.813  1.00  0.00    -0.324 N 
ATOM     13  HN2 UNL     1      -1.411  14.726  -7.268  1.00  0.00     0.169 HD
ATOM     14  HN1 UNL     1      -2.237  15.401  -5.810  1.00  0.00     0.169 HD
ENDBRANCH   9  12
ENDBRANCH   2   9
BRANCH   6  15
HETATM   15  S   UNL     1      -0.598  19.785 -11.169  1.00  0.00     0.258 S 
HETATM   16  O   UNL     1      -0.967  21.229 -11.360  1.00  0.00    -0.201 OA
HETATM   17  O   UNL     1       0.882  19.492 -11.501  1.00  0.00    -0.201 OA
BRANCH  15  18
HETATM   18  N   UNL     1      -1.483  18.889 -12.011  1.00  0.00    -0.324 N 
ATOM     19  HN2 UNL     1      -2.283  18.358 -11.667  1.00  0.00     0.169 HD
ATOM     20  HN1 UNL     1      -1.134  18.917 -12.969  1.00  0.00     0.169 HD
ENDBRANCH  15  18
ENDBRANCH   6  15
TORSDOF 4
ENDMDL
MODEL 4
REMARK VINA RESULT:    -3.692      1.793      4.922
REMARK INTER + INTRA:          -4.637
REMARK INTER:                  -4.388
REMARK INTRA:                  -0.249
REMARK UNBOUND:                -0.298
REMARK  4 active torsions:
REMARK  status: ('A' for Active; 'I' for Inactive)
REMARK    1  A    between atoms: C_2  and  S_7 
REMARK    2  A    between atoms: C_6  and  S_13 
REMARK    3  A    between atoms: S_7  and  N_8 
REMARK    4  A    between atoms: S_13  and  N_14 
ROOT
HETATM    1  C   UNL     1      -0.857  17.745  -5.443  1.00  0.00     0.054 A 
HETATM    2  C   UNL     1      -0.160  18.727  -4.764  1.00  0.00     0.105 A 
HETATM    3  C   UNL     1       0.135  19.926  -5.349  1.00  0.00     0.071 A 
HETATM    4  C   UNL     1      -0.242  20.156  -6.652  1.00  0.00     0.053 A 
HETATM    5  C   UNL     1      -0.943  19.179  -7.342  1.00  0.00     0.059 A 
HETATM    6  C   UNL     1      -1.250  17.965  -6.770  1.00  0.00     0.102 A 
HETATM    7  N   UNL     1       0.835  20.911  -4.645  1.00  0.00    -0.101 NA
HETATM    8 CL   UNL     1      -1.367  19.530  -8.870  1.00  0.00    -0.083 Cl
ENDROOT
BRANCH   2   9
HETATM    9  S   UNL     1       0.305  18.344  -3.101  1.00  0.00     0.258 S 
HETATM   10  O   UNL     1      -0.445  19.341  -2.135  1.00  0.00    -0.201 OA
HETATM   11  O   UNL     1      -0.176  16.965  -2.763  1.00  0.00    -0.201 OA
BRANCH   9  12
HETATM   12  N   UNL     1       1.801  18.450  -2.978  1.00  0.00    -0.324 N 
ATOM     13  HN2 UNL     1       2.282  19.327  -2.782  1.00  0.00     0.169 HD
ATOM     14  HN1 UNL     1       2.264  17.551  -3.114  1.00  0.00     0.169 HD
ENDBRANCH   9  12
ENDBRANCH   2   9
BRANCH   6  15
HETATM   15  S   UNL     1      -2.164  16.677  -7.625  1.00  0.00     0.258 S 
HETATM   16  O   UNL     1      -3.596  17.088  -7.819  1.00  0.00    -0.201 OA
HETATM   17  O   UNL     1      -1.414  16.460  -8.959  1.00  0.00    -0.201 OA
BRANCH  15  18
HETATM   18  N   UNL     1      -2.075  15.414  -6.795  1.00  0.00    -0.324 N 
ATOM     19  HN2 UNL     1      -2.740  15.136  -6.071  1.00  0.00     0.169 HD
ATOM     20  HN1 UNL     1      -1.243  14.904  -7.088  1.00  0.00     0.169 HD
ENDBRANCH  15  18
ENDBRANCH   6  15
TORSDOF 4
ENDMDL
MODEL 5
REMARK VINA RESULT:    -3.677     16.761     18.543
REMARK INTER + INTRA:          -4.620
REMARK INTER:                  -4.508
REMARK INTRA:                  -0.112
REMARK UNBOUND:                -0.298
REMARK  4 active torsions:
REMARK  status: ('A' for Active; 'I' for Inactive)
REMARK    1  A    between atoms: C_2  and  S_7 
REMARK    2  A    between atoms: C_6  and  S_13 
REMARK    3  A    between atoms: S_7  and  N_8 
REMARK    4  A    between atoms: S_13  and  N_14 
ROOT
HETATM    1  C   UNL     1      -6.500   1.197  -9.832  1.00  0.00     0.054 A 
HETATM    2  C   UNL     1      -7.172   0.057  -9.429  1.00  0.00     0.105 A 
HETATM    3  C   UNL     1      -8.444   0.117  -8.936  1.00  0.00     0.071 A 
HETATM    4  C   UNL     1      -9.065   1.338  -8.806  1.00  0.00     0.053 A 
HETATM    5  C   UNL     1      -8.402   2.486  -9.209  1.00  0.00     0.059 A 
HETATM    6  C   UNL     1      -7.120   2.447  -9.709  1.00  0.00     0.102 A 
HETATM    7  N   UNL     1      -9.111  -1.047  -8.539  1.00  0.00    -0.101 NA
HETATM    8 CL   UNL     1      -9.206   3.888  -9.040  1.00  0.00    -0.083 Cl
ENDROOT
BRANCH   2   9
HETATM    9  S   UNL     1      -6.295  -1.468  -9.609  1.00  0.00     0.258 S 
HETATM   10  O   UNL     1      -5.035  -1.209 -10.524  1.00  0.00    -0.201 OA
HETATM   11  O   UNL     1      -5.778  -1.897  -8.269  1.00  0.00    -0.201 OA
BRANCH   9  12
HETATM   12  N   UNL     1      -7.223  -2.497 -10.196  1.00  0.00    -0.324 N 
ATOM     13  HN2 UNL     1      -6.951  -3.467 -10.351  1.00  0.00     0.169 HD
ATOM     14  HN1 UNL     1      -8.140  -2.108 -10.415  1.00  0.00     0.169 HD
ENDBRANCH   9  12
ENDBRANCH   2   9
BRANCH   6  15
HETATM   15  S   UNL     1      -6.230   3.910 -10.249  1.00  0.00     0.258 S 
HETATM   16  O   UNL     1      -6.594   5.092  -9.397  1.00  0.00    -0.201 OA
HETATM   17  O   UNL     1      -4.733   3.538 -10.155  1.00  0.00    -0.201 OA
BRANCH  15  18
HETATM   18  N   UNL     1      -6.588   4.164 -11.699  1.00  0.00    -0.324 N 
ATOM     19  HN2 UNL     1      -7.038   3.491 -12.321  1.00  0.00     0.169 HD
ATOM     20  HN1 UNL     1      -6.301   5.114 -11.931  1.00  0.00     0.169 HD
ENDBRANCH  15  18
ENDBRANCH   6  15
TORSDOF 4
ENDMDL
MODEL 6
REMARK VINA RESULT:    -3.670     14.367     16.250
REMARK INTER + INTRA:          -4.611
REMARK INTER:                  -4.254
REMARK INTRA:                  -0.357
REMARK UNBOUND:                -0.298
REMARK  4 active torsions:
REMARK  status: ('A' for Active; 'I' for Inactive)
REMARK    1  A    between atoms: C_2  and  S_7 
REMARK    2  A    between atoms: C_6  and  S_13 
REMARK    3  A    between atoms: S_7  and  N_8 
REMARK    4  A    between atoms: S_13  and  N_14 
ROOT
HETATM    1  C   UNL     1      -7.271   4.804 -10.444  1.00  0.00     0.054 A 
HETATM    2  C   UNL     1      -7.430   3.443 -10.251  1.00  0.00     0.105 A 
HETATM    3  C   UNL     1      -8.669   2.874 -10.178  1.00  0.00     0.071 A 
HETATM    4  C   UNL     1      -9.788   3.670 -10.270  1.00  0.00     0.053 A 
HETATM    5  C   UNL     1      -9.640   5.034 -10.465  1.00  0.00     0.059 A 
HETATM    6  C   UNL     1      -8.400   5.627 -10.542  1.00  0.00     0.102 A 
HETATM    7  N   UNL     1      -8.811   1.495  -9.989  1.00  0.00    -0.101 NA
HETATM    8 CL   UNL     1     -11.007   5.904 -10.579  1.00  0.00    -0.083 Cl
ENDROOT
BRANCH   2   9
HETATM    9  S   UNL     1      -5.942   2.497 -10.122  1.00  0.00     0.258 S 
HETATM   10  O   UNL     1      -5.721   1.734 -11.487  1.00  0.00    -0.201 OA
HETATM   11  O   UNL     1      -4.780   3.429  -9.952  1.00  0.00    -0.201 OA
BRANCH   9  12
HETATM   12  N   UNL     1      -6.065   1.553  -8.957  1.00  0.00    -0.324 N 
ATOM     13  HN2 UNL     1      -6.633   1.755  -8.135  1.00  0.00     0.169 HD
ATOM     14  HN1 UNL     1      -5.518   0.702  -9.091  1.00  0.00     0.169 HD
ENDBRANCH   9  12
ENDBRANCH   2   9
BRANCH   6  15
HETATM   15  S   UNL     1      -8.167   7.388 -10.803  1.00  0.00     0.258 S 
HETATM   16  O   UNL     1      -8.908   7.841 -12.029  1.00  0.00    -0.201 OA
HETATM   17  O   UNL     1      -8.672   8.066  -9.510  1.00  0.00    -0.201 OA
BRANCH  15  18
HETATM   18  N   UNL     1      -6.681   7.643 -10.950  1.00  0.00    -0.324 N 
ATOM     19  HN2 UNL     1      -6.257   8.543 -11.177  1.00  0.00     0.169 HD
ATOM     20  HN1 UNL     1      -6.194   6.763 -10.784  1.00  0.00     0.169 HD
ENDBRANCH  15  18
ENDBRANCH   6  15
TORSDOF 4
ENDMDL
MODEL 7
REMARK VINA RESULT:    -3.665      3.837      4.706
REMARK INTER + INTRA:          -4.606
REMARK INTER:                  -4.284
REMARK INTRA:                  -0.322
REMARK UNBOUND:                -0.298
REMARK  4 active torsions:
REMARK  status: ('A' for Active; 'I' for Inactive)
REMARK    1  A    between atoms: C_2  and  S_7 
REMARK    2  A    between atoms: C_6  and  S_13 
REMARK    3  A    between atoms: S_7  and  N_8 
REMARK    4  A    between atoms: S_13  and  N_14 
ROOT
HETATM    1  C   UNL     1      -1.265  18.257  -8.217  1.00  0.00     0.054 A 
HETATM    2  C   UNL     1      -2.242  17.297  -8.023  1.00  0.00     0.105 A 
HETATM    3  C   UNL     1      -3.014  16.847  -9.057  1.00  0.00     0.071 A 
HETATM    4  C   UNL     1      -2.841  17.379 -10.314  1.00  0.00     0.053 A 
HETATM    5  C   UNL     1      -1.864  18.340 -10.520  1.00  0.00     0.059 A 
HETATM    6  C   UNL     1      -1.075  18.806  -9.492  1.00  0.00     0.102 A 
HETATM    7  N   UNL     1      -3.993  15.871  -8.844  1.00  0.00    -0.101 NA
HETATM    8 CL   UNL     1      -1.710  18.908 -12.034  1.00  0.00    -0.083 Cl
ENDROOT
BRANCH   2   9
HETATM    9  S   UNL     1      -2.412  16.682  -6.374  1.00  0.00     0.258 S 
HETATM   10  O   UNL     1      -1.234  17.269  -5.503  1.00  0.00    -0.201 OA
HETATM   11  O   UNL     1      -3.689  17.202  -5.786  1.00  0.00    -0.201 OA
BRANCH   9  12
HETATM   12  N   UNL     1      -2.397  15.178  -6.412  1.00  0.00    -0.324 N 
ATOM     13  HN2 UNL     1      -1.561  14.625  -6.223  1.00  0.00     0.169 HD
ATOM     14  HN1 UNL     1      -3.310  14.789  -6.646  1.00  0.00     0.169 HD
ENDBRANCH   9  12
ENDBRANCH   2   9
BRANCH   6  15
HETATM   15  S   UNL     1       0.206  20.043  -9.719  1.00  0.00     0.258 S 
HETATM   16  O   UNL     1       1.314  19.502 -10.577  1.00  0.00    -0.201 OA
HETATM   17  O   UNL     1      -0.505  21.260 -10.351  1.00  0.00    -0.201 OA
BRANCH  15  18
HETATM   18  N   UNL     1       0.728  20.429  -8.350  1.00  0.00    -0.324 N 
ATOM     19  HN2 UNL     1       1.632  20.864  -8.165  1.00  0.00     0.169 HD
ATOM     20  HN1 UNL     1       0.019  20.175  -7.662  1.00  0.00     0.169 HD
ENDBRANCH  15  18
ENDBRANCH   6  15
TORSDOF 4
ENDMDL
MODEL 8
REMARK VINA RESULT:    -3.589     14.928     15.924
REMARK INTER + INTRA:          -4.517
REMARK INTER:                  -4.173
REMARK INTRA:                  -0.344
REMARK UNBOUND:                -0.298
REMARK  4 active torsions:
REMARK  status: ('A' for Active; 'I' for Inactive)
REMARK    1  A    between atoms: C_2  and  S_7 
REMARK    2  A    between atoms: C_6  and  S_13 
REMARK    3  A    between atoms: S_7  and  N_8 
REMARK    4  A    between atoms: S_13  and  N_14 
ROOT
HETATM    1  C   UNL     1      -7.999   4.020  -8.417  1.00  0.00     0.054 A 
HETATM    2  C   UNL     1      -8.928   4.967  -8.024  1.00  0.00     0.105 A 
HETATM    3  C   UNL     1      -9.223   6.044  -8.810  1.00  0.00     0.071 A 
HETATM    4  C   UNL     1      -8.566   6.212 -10.006  1.00  0.00     0.053 A 
HETATM    5  C   UNL     1      -7.635   5.269 -10.412  1.00  0.00     0.059 A 
HETATM    6  C   UNL     1      -7.323   4.176  -9.635  1.00  0.00     0.102 A 
HETATM    7  N   UNL     1     -10.169   6.989  -8.399  1.00  0.00    -0.101 NA
HETATM    8 CL   UNL     1      -6.913   5.527 -11.843  1.00  0.00    -0.083 Cl
ENDROOT
BRANCH   2   9
HETATM    9  S   UNL     1      -9.711   4.687  -6.463  1.00  0.00     0.258 S 
HETATM   10  O   UNL     1      -9.402   3.206  -6.013  1.00  0.00    -0.201 OA
HETATM   11  O   UNL     1      -9.097   5.591  -5.437  1.00  0.00    -0.201 OA
BRANCH   9  12
HETATM   12  N   UNL     1     -11.187   4.942  -6.607  1.00  0.00    -0.324 N 
ATOM     13  HN2 UNL     1     -11.568   5.815  -6.971  1.00  0.00     0.169 HD
ATOM     14  HN1 UNL     1     -11.747   4.146  -6.302  1.00  0.00     0.169 HD
ENDBRANCH   9  12
ENDBRANCH   2   9
BRANCH   6  15
HETATM   15  S   UNL     1      -6.131   2.926 -10.127  1.00  0.00     0.258 S 
HETATM   16  O   UNL     1      -6.467   2.386 -11.488  1.00  0.00    -0.201 OA
HETATM   17  O   UNL     1      -4.756   3.630 -10.082  1.00  0.00    -0.201 OA
BRANCH  15  18
HETATM   18  N   UNL     1      -6.159   1.823  -9.091  1.00  0.00    -0.324 N 
ATOM     19  HN2 UNL     1      -6.777   1.011  -9.110  1.00  0.00     0.169 HD
ATOM     20  HN1 UNL     1      -5.457   2.040  -8.383  1.00  0.00     0.169 HD
ENDBRANCH  15  18
ENDBRANCH   6  15
TORSDOF 4
ENDMDL
MODEL 9
REMARK VINA RESULT:    -3.589      2.636      3.258
REMARK INTER + INTRA:          -4.516
REMARK INTER:                  -4.347
REMARK INTRA:                  -0.169
REMARK UNBOUND:                -0.298
REMARK  4 active torsions:
REMARK  status: ('A' for Active; 'I' for Inactive)
REMARK    1  A    between atoms: C_2  and  S_7 
REMARK    2  A    between atoms: C_6  and  S_13 
REMARK    3  A    between atoms: S_7  and  N_8 
REMARK    4  A    between atoms: S_13  and  N_14 
ROOT
HETATM    1  C   UNL     1      -1.951  17.176  -6.198  1.00  0.00     0.054 A 
HETATM    2  C   UNL     1      -3.069  16.868  -6.952  1.00  0.00     0.105 A 
HETATM    3  C   UNL     1      -4.279  16.624  -6.366  1.00  0.00     0.071 A 
HETATM    4  C   UNL     1      -4.388  16.655  -4.995  1.00  0.00     0.053 A 
HETATM    5  C   UNL     1      -3.275  16.964  -4.229  1.00  0.00     0.059 A 
HETATM    6  C   UNL     1      -2.047  17.214  -4.800  1.00  0.00     0.102 A 
HETATM    7  N   UNL     1      -5.401  16.321  -7.145  1.00  0.00    -0.101 NA
HETATM    8 CL   UNL     1      -3.486  16.997  -2.619  1.00  0.00    -0.083 Cl
ENDROOT
BRANCH   2   9
HETATM    9  S   UNL     1      -2.838  16.829  -8.705  1.00  0.00     0.258 S 
HETATM   10  O   UNL     1      -3.394  18.178  -9.308  1.00  0.00    -0.201 OA
HETATM   11  O   UNL     1      -1.370  16.790  -9.005  1.00  0.00    -0.201 OA
BRANCH   9  12
HETATM   12  N   UNL     1      -3.545  15.623  -9.261  1.00  0.00    -0.324 N 
ATOM     13  HN2 UNL     1      -4.419  15.682  -9.784  1.00  0.00     0.169 HD
ATOM     14  HN1 UNL     1      -3.050  14.756  -9.054  1.00  0.00     0.169 HD
ENDBRANCH   9  12
ENDBRANCH   2   9
BRANCH   6  15
HETATM   15  S   UNL     1      -0.584  17.627  -3.845  1.00  0.00     0.258 S 
HETATM   16  O   UNL     1      -0.640  19.057  -3.388  1.00  0.00    -0.201 OA
HETATM   17  O   UNL     1      -0.562  16.621  -2.672  1.00  0.00    -0.201 OA
BRANCH  15  18
HETATM   18  N   UNL     1       0.627  17.391  -4.723  1.00  0.00    -0.324 N 
ATOM     19  HN2 UNL     1       0.690  17.624  -5.715  1.00  0.00     0.169 HD
ATOM     20  HN1 UNL     1       1.352  16.964  -4.148  1.00  0.00     0.169 HD
ENDBRANCH  15  18
ENDBRANCH   6  15
TORSDOF 4
ENDMDL
MODEL 10
REMARK VINA RESULT:    -3.509      3.954      5.091
REMARK INTER + INTRA:          -4.422
REMARK INTER:                  -4.211
REMARK INTRA:                  -0.211
REMARK UNBOUND:                -0.298
REMARK  4 active torsions:
REMARK  status: ('A' for Active; 'I' for Inactive)
REMARK    1  A    between atoms: C_2  and  S_7 
REMARK    2  A    between atoms: C_6  and  S_13 
REMARK    3  A    between atoms: S_7  and  N_8 
REMARK    4  A    between atoms: S_13  and  N_14 
ROOT
HETATM    1  C   UNL     1      -1.088  18.314  -8.481  1.00  0.00     0.054 A 
HETATM    2  C   UNL     1      -0.900  18.888  -9.726  1.00  0.00     0.105 A 
HETATM    3  C   UNL     1      -1.705  18.574 -10.784  1.00  0.00     0.071 A 
HETATM    4  C   UNL     1      -2.707  17.646 -10.622  1.00  0.00     0.053 A 
HETATM    5  C   UNL     1      -2.905  17.066  -9.379  1.00  0.00     0.059 A 
HETATM    6  C   UNL     1      -2.106  17.369  -8.300  1.00  0.00     0.102 A 
HETATM    7  N   UNL     1      -1.505  19.169 -12.034  1.00  0.00    -0.101 NA
HETATM    8 CL   UNL     1      -4.118  15.991  -9.263  1.00  0.00    -0.083 Cl
ENDROOT
BRANCH   2   9
HETATM    9  S   UNL     1       0.423  20.055  -9.853  1.00  0.00     0.258 S 
HETATM   10  O   UNL     1       0.904  20.419  -8.394  1.00  0.00    -0.201 OA
HETATM   11  O   UNL     1       1.583  19.407 -10.545  1.00  0.00    -0.201 OA
BRANCH   9  12
HETATM   12  N   UNL     1      -0.064  21.262 -10.609  1.00  0.00    -0.324 N 
ATOM     13  HN2 UNL     1      -0.226  21.260 -11.615  1.00  0.00     0.169 HD
ATOM     14  HN1 UNL     1      -0.210  22.066  -9.998  1.00  0.00     0.169 HD
ENDBRANCH   9  12
ENDBRANCH   2   9
BRANCH   6  15
HETATM   15  S   UNL     1      -2.335  16.647  -6.672  1.00  0.00     0.258 S 
HETATM   16  O   UNL     1      -1.391  17.270  -5.683  1.00  0.00    -0.201 OA
HETATM   17  O   UNL     1      -3.821  16.889  -6.321  1.00  0.00    -0.201 OA
BRANCH  15  18
HETATM   18  N   UNL     1      -2.088  15.157  -6.785  1.00  0.00    -0.324 N 
ATOM     19  HN2 UNL     1      -1.176  14.719  -6.915  1.00  0.00     0.169 HD
ATOM     20  HN1 UNL     1      -2.988  14.684  -6.709  1.00  0.00     0.169 HD
ENDBRANCH  15  18
ENDBRANCH   6  15
TORSDOF 4
ENDMDL
MODEL 11
REMARK VINA RESULT:    -3.495      1.658      1.828
REMARK INTER + INTRA:          -4.406
REMARK INTER:                  -4.091
REMARK INTRA:                  -0.316
REMARK UNBOUND:                -0.298
REMARK  4 active torsions:
REMARK  status: ('A' for Active; 'I' for Inactive)
REMARK    1  A    between atoms: C_2  and  S_7 
REMARK    2  A    between atoms: C_6  and  S_13 
REMARK    3  A    between atoms: S_7  and  N_8 
REMARK    4  A    between atoms: S_13  and  N_14 
ROOT
HETATM    1  C   UNL     1      -2.711  17.527  -6.636  1.00  0.00     0.054 A 
HETATM    2  C   UNL     1      -3.159  17.780  -7.920  1.00  0.00     0.105 A 
HETATM    3  C   UNL     1      -2.534  18.688  -8.726  1.00  0.00     0.071 A 
HETATM    4  C   UNL     1      -1.454  19.392  -8.246  1.00  0.00     0.053 A 
HETATM    5  C   UNL     1      -0.996  19.146  -6.962  1.00  0.00     0.059 A 
HETATM    6  C   UNL     1      -1.610  18.234  -6.133  1.00  0.00     0.102 A 
HETATM    7  N   UNL     1      -2.997  18.927 -10.025  1.00  0.00    -0.101 NA
HETATM    8 CL   UNL     1       0.293  20.005  -6.472  1.00  0.00    -0.083 Cl
ENDROOT
BRANCH   2   9
HETATM    9  S   UNL     1      -4.564  16.848  -8.451  1.00  0.00     0.258 S 
HETATM   10  O   UNL     1      -4.061  15.687  -9.395  1.00  0.00    -0.201 OA
HETATM   11  O   UNL     1      -5.199  16.195  -7.260  1.00  0.00    -0.201 OA
BRANCH   9  12
HETATM   12  N   UNL     1      -5.525  17.772  -9.148  1.00  0.00    -0.324 N 
ATOM     13  HN2 UNL     1      -5.275  18.715  -9.444  1.00  0.00     0.169 HD
ATOM     14  HN1 UNL     1      -6.441  17.344  -9.286  1.00  0.00     0.169 HD
ENDBRANCH   9  12
ENDBRANCH   2   9
BRANCH   6  15
HETATM   15  S   UNL     1      -1.042  17.880  -4.467  1.00  0.00     0.258 S 
HETATM   16  O   UNL     1      -0.933  19.147  -3.668  1.00  0.00    -0.201 OA
HETATM   17  O   UNL     1      -2.074  16.887  -3.884  1.00  0.00    -0.201 OA
BRANCH  15  18
HETATM   18  N   UNL     1       0.304  17.193  -4.571  1.00  0.00    -0.324 N 
ATOM     19  HN2 UNL     1       0.517  16.259  -4.221  1.00  0.00     0.169 HD
ATOM     20  HN1 UNL     1       0.943  17.828  -5.047  1.00  0.00     0.169 HD
ENDBRANCH  15  18
ENDBRANCH   6  15
TORSDOF 4
ENDMDL
MODEL 12
REMARK VINA RESULT:    -3.473      9.660     11.099
REMARK INTER + INTRA:          -4.380
REMARK INTER:                  -4.101
REMARK INTRA:                  -0.279
REMARK UNBOUND:                -0.298
REMARK  4 active torsions:
REMARK  status: ('A' for Active; 'I' for Inactive)
REMARK    1  A    between atoms: C_2  and  S_7 
REMARK    2  A    between atoms: C_6  and  S_13 
REMARK    3  A    between atoms: S_7  and  N_8 
REMARK    4  A    between atoms: S_13  and  N_14 
ROOT
HETATM    1  C   UNL     1      -6.783  10.084  -1.486  1.00  0.00     0.054 A 
HETATM    2  C   UNL     1      -5.465   9.983  -1.078  1.00  0.00     0.105 A 
HETATM    3  C   UNL     1      -4.598  11.032  -1.202  1.00  0.00     0.071 A 
HETATM    4  C   UNL     1      -5.032  12.207  -1.772  1.00  0.00     0.053 A 
HETATM    5  C   UNL     1      -6.351  12.320  -2.183  1.00  0.00     0.059 A 
HETATM    6  C   UNL     1      -7.240  11.275  -2.065  1.00  0.00     0.102 A 
HETATM    7  N   UNL     1      -3.271  10.914  -0.778  1.00  0.00    -0.101 NA
HETATM    8 CL   UNL     1      -6.791  13.742  -2.831  1.00  0.00    -0.083 Cl
ENDROOT
BRANCH   2   9
HETATM    9  S   UNL     1      -4.985   8.433  -0.376  1.00  0.00     0.258 S 
HETATM   10  O   UNL     1      -6.205   7.438  -0.490  1.00  0.00    -0.201 OA
HETATM   11  O   UNL     1      -3.870   7.850  -1.191  1.00  0.00    -0.201 OA
BRANCH   9  12
HETATM   12  N   UNL     1      -4.564   8.655   1.052  1.00  0.00    -0.324 N 
ATOM     13  HN2 UNL     1      -5.214   8.934   1.786  1.00  0.00     0.169 HD
ATOM     14  HN1 UNL     1      -3.566   8.494   1.189  1.00  0.00     0.169 HD
ENDBRANCH   9  12
ENDBRANCH   2   9
BRANCH   6  15
HETATM   15  S   UNL     1      -8.958  11.384  -2.577  1.00  0.00     0.258 S 
HETATM   16  O   UNL     1      -9.652  12.503  -1.855  1.00  0.00    -0.201 OA
HETATM   17  O   UNL     1      -8.918  11.589  -4.108  1.00  0.00    -0.201 OA
BRANCH  15  18
HETATM   18  N   UNL     1      -9.619  10.056  -2.270  1.00  0.00    -0.324 N 
ATOM     19  HN2 UNL     1      -9.302   9.388  -1.568  1.00  0.00     0.169 HD
ATOM     20  HN1 UNL     1     -10.425   9.959  -2.887  1.00  0.00     0.169 HD
ENDBRANCH  15  18
ENDBRANCH   6  15
TORSDOF 4
ENDMDL
MODEL 13
REMARK VINA RESULT:    -3.430     10.694     12.338
REMARK INTER + INTRA:          -4.330
REMARK INTER:                  -3.985
REMARK INTRA:                  -0.346
REMARK UNBOUND:                -0.298
REMARK  4 active torsions:
REMARK  status: ('A' for Active; 'I' for Inactive)
REMARK    1  A    between atoms: C_2  and  S_7 
REMARK    2  A    between atoms: C_6  and  S_13 
REMARK    3  A    between atoms: S_7  and  N_8 
REMARK    4  A    between atoms: S_13  and  N_14 
ROOT
HETATM    1  C   UNL     1      -6.935  10.488  -1.582  1.00  0.00     0.054 A 
HETATM    2  C   UNL     1      -5.977  10.528  -0.585  1.00  0.00     0.105 A 
HETATM    3  C   UNL     1      -6.122   9.814   0.571  1.00  0.00     0.071 A 
HETATM    4  C   UNL     1      -7.257   9.061   0.766  1.00  0.00     0.053 A 
HETATM    5  C   UNL     1      -8.222   9.012  -0.227  1.00  0.00     0.059 A 
HETATM    6  C   UNL     1      -8.095   9.723  -1.400  1.00  0.00     0.102 A 
HETATM    7  N   UNL     1      -5.141   9.862   1.567  1.00  0.00    -0.101 NA
HETATM    8 CL   UNL     1      -9.525   8.089   0.069  1.00  0.00    -0.083 Cl
ENDROOT
BRANCH   2   9
HETATM    9  S   UNL     1      -4.561  11.536  -0.906  1.00  0.00     0.258 S 
HETATM   10  O   UNL     1      -3.317  10.588  -1.122  1.00  0.00    -0.201 OA
HETATM   11  O   UNL     1      -4.769  12.280  -2.190  1.00  0.00    -0.201 OA
BRANCH   9  12
HETATM   12  N   UNL     1      -4.363  12.479   0.250  1.00  0.00    -0.324 N 
ATOM     13  HN2 UNL     1      -5.136  12.930   0.738  1.00  0.00     0.169 HD
ATOM     14  HN1 UNL     1      -3.377  12.608   0.478  1.00  0.00     0.169 HD
ENDBRANCH   9  12
ENDBRANCH   2   9
BRANCH   6  15
HETATM   15  S   UNL     1      -9.317   9.679  -2.714  1.00  0.00     0.258 S 
HETATM   16  O   UNL     1      -9.624   8.260  -3.100  1.00  0.00    -0.201 OA
HETATM   17  O   UNL     1     -10.547  10.431  -2.157  1.00  0.00    -0.201 OA
BRANCH  15  18
HETATM   18  N   UNL     1      -8.758  10.447  -3.894  1.00  0.00    -0.324 N 
ATOM     19  HN2 UNL     1      -8.642  11.460  -3.937  1.00  0.00     0.169 HD
ATOM     20  HN1 UNL     1      -8.526   9.774  -4.624  1.00  0.00     0.169 HD
ENDBRANCH  15  18
ENDBRANCH   6  15
TORSDOF 4
ENDMDL
MODEL 14
REMARK VINA RESULT:    -3.403      8.999     10.349
REMARK INTER + INTRA:          -4.298
REMARK INTER:                  -4.088
REMARK INTRA:                  -0.209
REMARK UNBOUND:                -0.298
REMARK  4 active torsions:
REMARK  status: ('A' for Active; 'I' for Inactive)
REMARK    1  A    between atoms: C_2  and  S_7 
REMARK    2  A    between atoms: C_6  and  S_13 
REMARK    3  A    between atoms: S_7  and  N_8 
REMARK    4  A    between atoms: S_13  and  N_14 
ROOT
HETATM    1  C   UNL     1      -5.615  11.790  -2.113  1.00  0.00     0.054 A 
HETATM    2  C   UNL     1      -5.755  10.611  -1.404  1.00  0.00     0.105 A 
HETATM    3  C   UNL     1      -6.927   9.909  -1.414  1.00  0.00     0.071 A 
HETATM    4  C   UNL     1      -8.004  10.396  -2.119  1.00  0.00     0.053 A 
HETATM    5  C   UNL     1      -7.874  11.575  -2.834  1.00  0.00     0.059 A 
HETATM    6  C   UNL     1      -6.702  12.297  -2.838  1.00  0.00     0.102 A 
HETATM    7  N   UNL     1      -7.050   8.715  -0.696  1.00  0.00    -0.101 NA
HETATM    8 CL   UNL     1      -9.183  12.077  -3.654  1.00  0.00    -0.083 Cl
ENDROOT
BRANCH   2   9
HETATM    9  S   UNL     1      -4.331  10.067  -0.509  1.00  0.00     0.258 S 
HETATM   10  O   UNL     1      -3.988   8.597  -0.970  1.00  0.00    -0.201 OA
HETATM   11  O   UNL     1      -3.160  10.924  -0.882  1.00  0.00    -0.201 OA
BRANCH   9  12
HETATM   12  N   UNL     1      -4.624  10.146   0.965  1.00  0.00    -0.324 N 
ATOM     13  HN2 UNL     1      -4.158   9.560   1.657  1.00  0.00     0.169 HD
ATOM     14  HN1 UNL     1      -5.333  10.847   1.180  1.00  0.00     0.169 HD
ENDBRANCH   9  12
ENDBRANCH   2   9
BRANCH   6  15
HETATM   15  S   UNL     1      -6.490  13.824  -3.758  1.00  0.00     0.258 S 
HETATM   16  O   UNL     1      -6.793  13.608  -5.214  1.00  0.00    -0.201 OA
HETATM   17  O   UNL     1      -7.441  14.842  -3.090  1.00  0.00    -0.201 OA
BRANCH  15  18
HETATM   18  N   UNL     1      -5.059  14.285  -3.572  1.00  0.00    -0.324 N 
ATOM     19  HN2 UNL     1      -4.321  14.216  -4.273  1.00  0.00     0.169 HD
ATOM     20  HN1 UNL     1      -4.974  14.669  -2.631  1.00  0.00     0.169 HD
ENDBRANCH  15  18
ENDBRANCH   6  15
TORSDOF 4
ENDMDL
MODEL 15
REMARK VINA RESULT:    -3.371     15.273     17.120
REMARK INTER + INTRA:          -4.261
REMARK INTER:                  -3.921
REMARK INTRA:                  -0.339
REMARK UNBOUND:                -0.298
REMARK  4 active torsions:
REMARK  status: ('A' for Active; 'I' for Inactive)
REMARK    1  A    between atoms: C_2  and  S_7 
REMARK    2  A    between atoms: C_6  and  S_13 
REMARK    3  A    between atoms: S_7  and  N_8 
REMARK    4  A    between atoms: S_13  and  N_14 
ROOT
HETATM    1  C   UNL     1      -7.977   2.972  -9.075  1.00  0.00     0.054 A 
HETATM    2  C   UNL     1      -7.741   4.314  -9.313  1.00  0.00     0.105 A 
HETATM    3  C   UNL     1      -6.838   4.724 -10.253  1.00  0.00     0.071 A 
HETATM    4  C   UNL     1      -6.124   3.785 -10.962  1.00  0.00     0.053 A 
HETATM    5  C   UNL     1      -6.354   2.438 -10.733  1.00  0.00     0.059 A 
HETATM    6  C   UNL     1      -7.260   2.005  -9.791  1.00  0.00     0.102 A 
HETATM    7  N   UNL     1      -6.617   6.085 -10.484  1.00  0.00    -0.101 NA
HETATM    8 CL   UNL     1      -5.485   1.391 -11.620  1.00  0.00    -0.083 Cl
ENDROOT
BRANCH   2   9
HETATM    9  S   UNL     1      -8.685   5.454  -8.344  1.00  0.00     0.258 S 
HETATM   10  O   UNL     1      -9.848   6.024  -9.245  1.00  0.00    -0.201 OA
HETATM   11  O   UNL     1      -9.333   4.716  -7.212  1.00  0.00    -0.201 OA
BRANCH   9  12
HETATM   12  N   UNL     1      -7.771   6.538  -7.842  1.00  0.00    -0.324 N 
ATOM     13  HN2 UNL     1      -7.103   6.396  -7.085  1.00  0.00     0.169 HD
ATOM     14  HN1 UNL     1      -7.902   7.416  -8.344  1.00  0.00     0.169 HD
ENDBRANCH   9  12
ENDBRANCH   2   9
BRANCH   6  15
HETATM   15  S   UNL     1      -7.593   0.269  -9.472  1.00  0.00     0.258 S 
HETATM   16  O   UNL     1      -8.190  -0.384 -10.686  1.00  0.00    -0.201 OA
HETATM   17  O   UNL     1      -6.233  -0.342  -9.066  1.00  0.00    -0.201 OA
BRANCH  15  18
HETATM   18  N   UNL     1      -8.545   0.187  -8.296  1.00  0.00    -0.324 N 
ATOM     19  HN2 UNL     1      -8.881  -0.676  -7.869  1.00  0.00     0.169 HD
ATOM     20  HN1 UNL     1      -8.781   1.139  -8.018  1.00  0.00     0.169 HD
ENDBRANCH  15  18
ENDBRANCH   6  15
TORSDOF 4
ENDMDL
MODEL 16
REMARK VINA RESULT:    -3.369      2.503      5.695
REMARK INTER + INTRA:          -4.258
REMARK INTER:                  -3.993
REMARK INTRA:                  -0.266
REMARK UNBOUND:                -0.298
REMARK  4 active torsions:
REMARK  status: ('A' for Active; 'I' for Inactive)
REMARK    1  A    between atoms: C_2  and  S_7 
REMARK    2  A    between atoms: C_6  and  S_13 
REMARK    3  A    between atoms: S_7  and  N_8 
REMARK    4  A    between atoms: S_13  and  N_14 
ROOT
HETATM    1  C   UNL     1      -0.276  18.478  -5.574  1.00  0.00     0.054 A 
HETATM    2  C   UNL     1       0.203  18.477  -4.276  1.00  0.00     0.105 A 
HETATM    3  C   UNL     1      -0.375  17.711  -3.303  1.00  0.00     0.071 A 
HETATM    4  C   UNL     1      -1.476  16.944  -3.608  1.00  0.00     0.053 A 
HETATM    5  C   UNL     1      -1.963  16.936  -4.906  1.00  0.00     0.059 A 
HETATM    6  C   UNL     1      -1.394  17.700  -5.900  1.00  0.00     0.102 A 
HETATM    7  N   UNL     1       0.126  17.718  -1.997  1.00  0.00    -0.101 NA
HETATM    8 CL   UNL     1      -3.255  15.993  -5.192  1.00  0.00    -0.083 Cl
ENDROOT
BRANCH   2   9
HETATM    9  S   UNL     1       1.606  19.506  -3.964  1.00  0.00     0.258 S 
HETATM   10  O   UNL     1       1.967  20.269  -5.298  1.00  0.00    -0.201 OA
HETATM   11  O   UNL     1       1.235  20.549  -2.953  1.00  0.00    -0.201 OA
BRANCH   9  12
HETATM   12  N   UNL     1       2.741  18.647  -3.475  1.00  0.00    -0.324 N 
ATOM     13  HN2 UNL     1       2.624  17.919  -2.770  1.00  0.00     0.169 HD
ATOM     14  HN1 UNL     1       3.624  18.879  -3.929  1.00  0.00     0.169 HD
ENDBRANCH   9  12
ENDBRANCH   2   9
BRANCH   6  15
HETATM   15  S   UNL     1      -1.989  17.710  -7.595  1.00  0.00     0.258 S 
HETATM   16  O   UNL     1      -3.446  18.074  -7.639  1.00  0.00    -0.201 OA
HETATM   17  O   UNL     1      -1.092  18.725  -8.338  1.00  0.00    -0.201 OA
BRANCH  15  18
HETATM   18  N   UNL     1      -1.764  16.329  -8.175  1.00  0.00    -0.324 N 
ATOM     19  HN2 UNL     1      -1.582  16.125  -9.158  1.00  0.00     0.169 HD
ATOM     20  HN1 UNL     1      -1.827  15.655  -7.412  1.00  0.00     0.169 HD
ENDBRANCH  15  18
ENDBRANCH   6  15
TORSDOF 4
ENDMDL
MODEL 17
REMARK VINA RESULT:    -3.340      3.965      5.318
REMARK INTER + INTRA:          -4.224
REMARK INTER:                  -3.871
REMARK INTRA:                  -0.353
REMARK UNBOUND:                -0.298
REMARK  4 active torsions:
REMARK  status: ('A' for Active; 'I' for Inactive)
REMARK    1  A    between atoms: C_2  and  S_7 
REMARK    2  A    between atoms: C_6  and  S_13 
REMARK    3  A    between atoms: S_7  and  N_8 
REMARK    4  A    between atoms: S_13  and  N_14 
ROOT
HETATM    1  C   UNL     1      -1.144  18.847  -8.220  1.00  0.00     0.054 A 
HETATM    2  C   UNL     1      -1.810  17.926  -7.431  1.00  0.00     0.105 A 
HETATM    3  C   UNL     1      -2.651  16.997  -7.976  1.00  0.00     0.071 A 
HETATM    4  C   UNL     1      -2.867  16.992  -9.335  1.00  0.00     0.053 A 
HETATM    5  C   UNL     1      -2.203  17.909 -10.135  1.00  0.00     0.059 A 
HETATM    6  C   UNL     1      -1.351  18.852  -9.606  1.00  0.00     0.102 A 
HETATM    7  N   UNL     1      -3.312  16.070  -7.164  1.00  0.00    -0.101 NA
HETATM    8 CL   UNL     1      -2.497  17.829 -11.730  1.00  0.00    -0.083 Cl
ENDROOT
BRANCH   2   9
HETATM    9  S   UNL     1      -1.493  18.015  -5.694  1.00  0.00     0.258 S 
HETATM   10  O   UNL     1      -0.233  18.939  -5.468  1.00  0.00    -0.201 OA
HETATM   11  O   UNL     1      -2.651  18.685  -5.018  1.00  0.00    -0.201 OA
BRANCH   9  12
HETATM   12  N   UNL     1      -1.279  16.622  -5.166  1.00  0.00    -0.324 N 
ATOM     13  HN2 UNL     1      -1.942  15.862  -5.318  1.00  0.00     0.169 HD
ATOM     14  HN1 UNL     1      -0.405  16.536  -4.648  1.00  0.00     0.169 HD
ENDBRANCH   9  12
ENDBRANCH   2   9
BRANCH   6  15
HETATM   15  S   UNL     1      -0.466  20.050 -10.607  1.00  0.00     0.258 S 
HETATM   16  O   UNL     1       0.382  19.354 -11.634  1.00  0.00    -0.201 OA
HETATM   17  O   UNL     1      -1.557  20.946 -11.236  1.00  0.00    -0.201 OA
BRANCH  15  18
HETATM   18  N   UNL     1       0.392  20.888  -9.682  1.00  0.00    -0.324 N 
ATOM     19  HN2 UNL     1       1.371  20.706  -9.459  1.00  0.00     0.169 HD
ATOM     20  HN1 UNL     1      -0.183  21.653  -9.329  1.00  0.00     0.169 HD
ENDBRANCH  15  18
ENDBRANCH   6  15
TORSDOF 4
ENDMDL
MODEL 18
REMARK VINA RESULT:    -3.326      9.004      9.884
REMARK INTER + INTRA:          -4.207
REMARK INTER:                  -3.856
REMARK INTRA:                  -0.351
REMARK UNBOUND:                -0.298
REMARK  4 active torsions:
REMARK  status: ('A' for Active; 'I' for Inactive)
REMARK    1  A    between atoms: C_2  and  S_7 
REMARK    2  A    between atoms: C_6  and  S_13 
REMARK    3  A    between atoms: S_7  and  N_8 
REMARK    4  A    between atoms: S_13  and  N_14 
ROOT
HETATM    1  C   UNL     1      -5.417  11.806  -1.844  1.00  0.00     0.054 A 
HETATM    2  C   UNL     1      -6.495  12.212  -2.611  1.00  0.00     0.105 A 
HETATM    3  C   UNL     1      -7.647  11.481  -2.664  1.00  0.00     0.071 A 
HETATM    4  C   UNL     1      -7.734  10.298  -1.966  1.00  0.00     0.053 A 
HETATM    5  C   UNL     1      -6.661   9.883  -1.193  1.00  0.00     0.059 A 
HETATM    6  C   UNL     1      -5.491  10.606  -1.125  1.00  0.00     0.102 A 
HETATM    7  N   UNL     1      -8.729  11.909  -3.440  1.00  0.00    -0.101 NA
HETATM    8 CL   UNL     1      -6.844   8.486  -0.385  1.00  0.00    -0.083 Cl
ENDROOT
BRANCH   2   9
HETATM    9  S   UNL     1      -6.293  13.731  -3.493  1.00  0.00     0.258 S 
HETATM   10  O   UNL     1      -5.011  14.462  -2.934  1.00  0.00    -0.201 OA
HETATM   11  O   UNL     1      -6.027  13.428  -4.936  1.00  0.00    -0.201 OA
BRANCH   9  12
HETATM   12  N   UNL     1      -7.539  14.559  -3.326  1.00  0.00    -0.324 N 
ATOM     13  HN2 UNL     1      -7.520  15.552  -3.094  1.00  0.00     0.169 HD
ATOM     14  HN1 UNL     1      -8.388  14.013  -3.473  1.00  0.00     0.169 HD
ENDBRANCH   9  12
ENDBRANCH   2   9
BRANCH   6  15
HETATM   15  S   UNL     1      -4.083  10.107  -0.128  1.00  0.00     0.258 S 
HETATM   16  O   UNL     1      -4.468  10.022   1.321  1.00  0.00    -0.201 OA
HETATM   17  O   UNL     1      -3.628   8.750  -0.711  1.00  0.00    -0.201 OA
BRANCH  15  18
HETATM   18  N   UNL     1      -2.984  11.129  -0.333  1.00  0.00    -0.324 N 
ATOM     19  HN2 UNL     1      -2.450  11.578   0.412  1.00  0.00     0.169 HD
ATOM     20  HN1 UNL     1      -2.880  11.281  -1.336  1.00  0.00     0.169 HD
ENDBRANCH  15  18
ENDBRANCH   6  15
TORSDOF 4
ENDMDL
MODEL 19
REMARK VINA RESULT:    -3.311     20.082     21.211
REMARK INTER + INTRA:          -4.190
REMARK INTER:                  -3.866
REMARK INTRA:                  -0.324
REMARK UNBOUND:                -0.298
REMARK  4 active torsions:
REMARK  status: ('A' for Active; 'I' for Inactive)
REMARK    1  A    between atoms: C_2  and  S_7 
REMARK    2  A    between atoms: C_6  and  S_13 
REMARK    3  A    between atoms: S_7  and  N_8 
REMARK    4  A    between atoms: S_13  and  N_14 
ROOT
HETATM    1  C   UNL     1       2.707   0.465   3.840  1.00  0.00     0.054 A 
HETATM    2  C   UNL     1       1.337   0.639   3.759  1.00  0.00     0.105 A 
HETATM    3  C   UNL     1       0.513  -0.371   3.352  1.00  0.00     0.071 A 
HETATM    4  C   UNL     1       1.054  -1.582   2.984  1.00  0.00     0.053 A 
HETATM    5  C   UNL     1       2.425  -1.768   3.062  1.00  0.00     0.059 A 
HETATM    6  C   UNL     1       3.273  -0.763   3.471  1.00  0.00     0.102 A 
HETATM    7  N   UNL     1      -0.871  -0.180   3.282  1.00  0.00    -0.101 NA
HETATM    8 CL   UNL     1       2.987  -3.228   2.626  1.00  0.00    -0.083 Cl
ENDROOT
BRANCH   2   9
HETATM    9  S   UNL     1       0.726   2.230   4.230  1.00  0.00     0.258 S 
HETATM   10  O   UNL     1       0.053   2.101   5.652  1.00  0.00    -0.201 OA
HETATM   11  O   UNL     1       1.880   3.175   4.379  1.00  0.00    -0.201 OA
BRANCH   9  12
HETATM   12  N   UNL     1      -0.244   2.708   3.183  1.00  0.00    -0.324 N 
ATOM     13  HN2 UNL     1      -0.030   3.458   2.527  1.00  0.00     0.169 HD
ATOM     14  HN1 UNL     1      -1.126   2.196   3.213  1.00  0.00     0.169 HD
ENDBRANCH   9  12
ENDBRANCH   2   9
BRANCH   6  15
HETATM   15  S   UNL     1       5.052  -0.966   3.595  1.00  0.00     0.258 S 
HETATM   16  O   UNL     1       5.396  -1.946   4.680  1.00  0.00    -0.201 OA
HETATM   17  O   UNL     1       5.511  -1.433   2.195  1.00  0.00    -0.201 OA
BRANCH  15  18
HETATM   18  N   UNL     1       5.656   0.392   3.888  1.00  0.00    -0.324 N 
ATOM     19  HN2 UNL     1       5.253   1.096   4.506  1.00  0.00     0.169 HD
ATOM     20  HN1 UNL     1       6.525   0.468   3.359  1.00  0.00     0.169 HD
ENDBRANCH  15  18
ENDBRANCH   6  15
TORSDOF 4
ENDMDL
MODEL 20
REMARK VINA RESULT:    -3.309      2.834      3.310
REMARK INTER + INTRA:          -4.187
REMARK INTER:                  -3.830
REMARK INTRA:                  -0.357
REMARK UNBOUND:                -0.298
REMARK  4 active torsions:
REMARK  status: ('A' for Active; 'I' for Inactive)
REMARK    1  A    between atoms: C_2  and  S_7 
REMARK    2  A    between atoms: C_6  and  S_13 
REMARK    3  A    between atoms: S_7  and  N_8 
REMARK    4  A    between atoms: S_13  and  N_14 
ROOT
HETATM    1  C   UNL     1      -3.176  16.781  -3.673  1.00  0.00     0.054 A 
HETATM    2  C   UNL     1      -3.671  16.304  -4.873  1.00  0.00     0.105 A 
HETATM    3  C   UNL     1      -2.933  16.363  -6.022  1.00  0.00     0.071 A 
HETATM    4  C   UNL     1      -1.682  16.934  -5.996  1.00  0.00     0.053 A 
HETATM    5  C   UNL     1      -1.175  17.414  -4.798  1.00  0.00     0.059 A 
HETATM    6  C   UNL     1      -1.902  17.363  -3.630  1.00  0.00     0.102 A 
HETATM    7  N   UNL     1      -3.447  15.871  -7.226  1.00  0.00    -0.101 NA
HETATM    8 CL   UNL     1       0.315  18.059  -4.845  1.00  0.00    -0.083 Cl
ENDROOT
BRANCH   2   9
HETATM    9  S   UNL     1      -5.294  15.605  -4.823  1.00  0.00     0.258 S 
HETATM   10  O   UNL     1      -5.156  14.033  -4.819  1.00  0.00    -0.201 OA
HETATM   11  O   UNL     1      -5.953  15.987  -3.532  1.00  0.00    -0.201 OA
BRANCH   9  12
HETATM   12  N   UNL     1      -6.076  16.105  -6.007  1.00  0.00    -0.324 N 
ATOM     13  HN2 UNL     1      -6.091  17.084  -6.291  1.00  0.00     0.169 HD
ATOM     14  HN1 UNL     1      -6.578  15.355  -6.482  1.00  0.00     0.169 HD
ENDBRANCH   9  12
ENDBRANCH   2   9
BRANCH   6  15
HETATM   15  S   UNL     1      -1.278  17.964  -2.057  1.00  0.00     0.258 S 
HETATM   16  O   UNL     1       0.020  17.291  -1.714  1.00  0.00    -0.201 OA
HETATM   17  O   UNL     1      -1.136  19.494  -2.229  1.00  0.00    -0.201 OA
BRANCH  15  18
HETATM   18  N   UNL     1      -2.326  17.679  -1.002  1.00  0.00    -0.324 N 
ATOM     19  HN2 UNL     1      -3.066  16.980  -1.079  1.00  0.00     0.169 HD
ATOM     20  HN1 UNL     1      -2.157  18.305  -0.215  1.00  0.00     0.169 HD
ENDBRANCH  15  18
ENDBRANCH   6  15
TORSDOF 4
ENDMDL
