MODEL 1
REMARK VINA RESULT:   -12.970      0.000      0.000
REMARK INTER + INTRA:         -17.870
REMARK INTER:                 -17.520
REMARK INTRA:                  -0.350
REMARK UNBOUND:                -0.350
REMARK  6 active torsions:
REMARK  status: ('A' for Active; 'I' for Inactive)
REMARK    1  A    between atoms: C_2  and  N_29 
REMARK    2  A    between atoms: C_4  and  N_33 
REMARK    3  A    between atoms: C_8  and  C_18 
REMARK    4  A    between atoms: C_8  and  N_31 
REMARK    5  A    between atoms: C_9  and  C_18 
REMARK       I    between atoms: C_17  and  N_31 
REMARK       I    between atoms: C_17  and  N_29 
REMARK    6  A    between atoms: C_23  and  N_33 
ROOT
HETATM    1  C   UNL     1       6.857   3.262 -22.515  1.00  0.00     0.143 A 
HETATM    2  C   UNL     1       6.530   2.661 -23.717  1.00  0.00     0.077 A 
HETATM    3  C   UNL     1       5.677   1.571 -23.696  1.00  0.00     0.062 A 
HETATM    4  C   UNL     1       5.134   1.131 -22.497  1.00  0.00     0.041 A 
HETATM    5  C   UNL     1       4.945   1.338 -19.955  1.00  0.00     0.050 C 
HETATM    6  C   UNL     1       5.471   1.762 -21.298  1.00  0.00    -0.032 A 
HETATM    7  C   UNL     1       6.332   2.827 -21.317  1.00  0.00     0.053 A 
HETATM    8  F   UNL     1       7.696   4.305 -22.521  1.00  0.00    -0.204 F 
ENDROOT
BRANCH   4   9
HETATM    9  N   UNL     1       4.299   0.013 -22.563  1.00  0.00    -0.353 N 
ATOM     10  HN  UNL     1       4.706  -0.831 -22.965  1.00  0.00     0.166 HD
BRANCH   9  11
HETATM   11  C   UNL     1       2.983  -0.081 -22.146  1.00  0.00     0.072 A 
HETATM   12  C   UNL     1       2.134   1.018 -22.083  1.00  0.00     0.035 A 
HETATM   13  C   UNL     1       0.834   0.848 -21.657  1.00  0.00     0.033 A 
HETATM   14  C   UNL     1       0.373  -0.421 -21.299  1.00  0.00     0.052 A 
HETATM   15  N   UNL     1      -0.905  -0.620 -20.881  1.00  0.00    -0.351 N 
HETATM   16  C   UNL     1       1.246  -1.530 -21.371  1.00  0.00     0.100 A 
HETATM   17  C   UNL     1      -1.352  -1.795 -20.560  1.00  0.00     0.186 A 
ATOM     18  HN  UNL     1      -1.533   0.181 -20.819  1.00  0.00     0.166 HD
HETATM   19  N   UNL     1      -0.582  -2.915 -20.601  1.00  0.00    -0.314 N 
HETATM   20  C   UNL     1      -1.131  -4.229 -20.211  1.00  0.00     0.160 C 
HETATM   21  C   UNL     1       0.705  -2.839 -20.989  1.00  0.00     0.263 A 
HETATM   22  O   UNL     1       1.384  -3.843 -21.005  1.00  0.00    -0.267 OA
HETATM   23  C   UNL     1       2.562  -1.345 -21.808  1.00  0.00     0.161 A 
HETATM   24  F   UNL     1       3.449  -2.361 -21.919  1.00  0.00    -0.203 F 
ENDBRANCH   9  11
ENDBRANCH   4   9
BRANCH   2  25
HETATM   25  N   UNL     1       7.141   3.154 -24.885  1.00  0.00    -0.306 N 
HETATM   26  C   UNL     1       6.595   3.241 -26.120  1.00  0.00     0.320 C 
HETATM   27  O   UNL     1       5.456   2.882 -26.335  1.00  0.00    -0.247 OA
HETATM   28  N   UNL     1       7.353   3.744 -27.120  1.00  0.00    -0.343 N 
ATOM     29  HN  UNL     1       8.306   4.036 -26.907  1.00  0.00     0.164 HD
ATOM     30  HN  UNL     1       8.102   3.483 -24.790  1.00  0.00     0.171 HD
BRANCH  28  31
HETATM   31  C   UNL     1       6.867   3.889 -28.501  1.00  0.00     0.125 C 
BRANCH  31  32
HETATM   32  C   UNL     1       7.280   5.278 -28.989  1.00  0.00     0.028 C 
BRANCH  32  33
HETATM   33  C   UNL     1       6.215   5.965 -29.848  1.00  0.00    -0.050 C 
HETATM   34  C   UNL     1       6.354   7.478 -29.707  1.00  0.00     0.014 C 
HETATM   35  C   UNL     1       6.325   5.584 -31.333  1.00  0.00     0.014 C 
HETATM   36  C   UNL     1       4.857   5.510 -29.326  1.00  0.00     0.014 C 
ENDBRANCH  32  33
ENDBRANCH  31  32
ENDBRANCH  28  31
ENDBRANCH   2  25
TORSDOF 6
ENDMDL
MODEL 2
REMARK VINA RESULT:   -11.899      1.365      1.791
REMARK INTER + INTRA:         -16.422
REMARK INTER:                 -16.101
REMARK INTRA:                  -0.321
REMARK UNBOUND:                -0.350
REMARK  6 active torsions:
REMARK  status: ('A' for Active; 'I' for Inactive)
REMARK    1  A    between atoms: C_2  and  N_29 
REMARK    2  A    between atoms: C_4  and  N_33 
REMARK    3  A    between atoms: C_8  and  C_18 
REMARK    4  A    between atoms: C_8  and  N_31 
REMARK    5  A    between atoms: C_9  and  C_18 
REMARK       I    between atoms: C_17  and  N_31 
REMARK       I    between atoms: C_17  and  N_29 
REMARK    6  A    between atoms: C_23  and  N_33 
ROOT
HETATM    1  C   UNL     1       7.156   3.014 -22.260  1.00  0.00     0.143 A 
HETATM    2  C   UNL     1       6.413   3.002 -23.427  1.00  0.00     0.077 A 
HETATM    3  C   UNL     1       5.131   2.481 -23.384  1.00  0.00     0.062 A 
HETATM    4  C   UNL     1       4.600   2.030 -22.184  1.00  0.00     0.041 A 
HETATM    5  C   UNL     1       4.876   1.577 -19.683  1.00  0.00     0.050 C 
HETATM    6  C   UNL     1       5.366   2.064 -21.018  1.00  0.00    -0.032 A 
HETATM    7  C   UNL     1       6.642   2.559 -21.065  1.00  0.00     0.053 A 
HETATM    8  F   UNL     1       8.404   3.498 -22.293  1.00  0.00    -0.204 F 
ENDROOT
BRANCH   4   9
HETATM    9  N   UNL     1       3.307   1.502 -22.233  1.00  0.00    -0.353 N 
ATOM     10  HN  UNL     1       2.554   2.169 -22.403  1.00  0.00     0.166 HD
BRANCH   9  11
HETATM   11  C   UNL     1       2.931   0.180 -22.079  1.00  0.00     0.072 A 
HETATM   12  C   UNL     1       3.790  -0.881 -22.340  1.00  0.00     0.035 A 
HETATM   13  C   UNL     1       3.345  -2.174 -22.163  1.00  0.00     0.033 A 
HETATM   14  C   UNL     1       2.043  -2.413 -21.718  1.00  0.00     0.052 A 
HETATM   15  N   UNL     1       1.579  -3.677 -21.528  1.00  0.00    -0.351 N 
HETATM   16  C   UNL     1       1.182  -1.325 -21.453  1.00  0.00     0.100 A 
HETATM   17  C   UNL     1       0.377  -3.915 -21.100  1.00  0.00     0.186 A 
ATOM     18  HN  UNL     1       2.196  -4.463 -21.730  1.00  0.00     0.166 HD
HETATM   19  N   UNL     1      -0.516  -2.929 -20.820  1.00  0.00    -0.314 N 
HETATM   20  C   UNL     1      -1.878  -3.248 -20.350  1.00  0.00     0.160 C 
HETATM   21  C   UNL     1      -0.172  -1.637 -20.980  1.00  0.00     0.263 A 
HETATM   22  O   UNL     1      -0.984  -0.769 -20.742  1.00  0.00    -0.267 OA
HETATM   23  C   UNL     1       1.646  -0.018 -21.632  1.00  0.00     0.161 A 
HETATM   24  F   UNL     1       0.885   1.073 -21.382  1.00  0.00    -0.203 F 
ENDBRANCH   9  11
ENDBRANCH   4   9
BRANCH   2  25
HETATM   25  N   UNL     1       7.034   3.458 -24.605  1.00  0.00    -0.306 N 
HETATM   26  C   UNL     1       6.608   3.278 -25.877  1.00  0.00     0.320 C 
HETATM   27  O   UNL     1       5.586   2.673 -26.122  1.00  0.00    -0.247 OA
HETATM   28  N   UNL     1       7.354   3.794 -26.880  1.00  0.00    -0.343 N 
ATOM     29  HN  UNL     1       8.208   4.296 -26.641  1.00  0.00     0.164 HD
ATOM     30  HN  UNL     1       7.900   3.982 -24.487  1.00  0.00     0.171 HD
BRANCH  28  31
HETATM   31  C   UNL     1       6.991   3.664 -28.299  1.00  0.00     0.125 C 
BRANCH  31  32
HETATM   32  C   UNL     1       7.315   4.994 -28.979  1.00  0.00     0.028 C 
BRANCH  32  33
HETATM   33  C   UNL     1       6.143   5.577 -29.772  1.00  0.00    -0.050 C 
HETATM   34  C   UNL     1       6.330   7.085 -29.912  1.00  0.00     0.014 C 
HETATM   35  C   UNL     1       6.013   4.952 -31.170  1.00  0.00     0.014 C 
HETATM   36  C   UNL     1       4.875   5.275 -28.983  1.00  0.00     0.014 C 
ENDBRANCH  32  33
ENDBRANCH  31  32
ENDBRANCH  28  31
ENDBRANCH   2  25
TORSDOF 6
ENDMDL
MODEL 3
REMARK VINA RESULT:   -11.006      2.323      9.869
REMARK INTER + INTRA:         -15.216
REMARK INTER:                 -14.705
REMARK INTRA:                  -0.511
REMARK UNBOUND:                -0.350
REMARK  6 active torsions:
REMARK  status: ('A' for Active; 'I' for Inactive)
REMARK    1  A    between atoms: C_2  and  N_29 
REMARK    2  A    between atoms: C_4  and  N_33 
REMARK    3  A    between atoms: C_8  and  C_18 
REMARK    4  A    between atoms: C_8  and  N_31 
REMARK    5  A    between atoms: C_9  and  C_18 
REMARK       I    between atoms: C_17  and  N_31 
REMARK       I    between atoms: C_17  and  N_29 
REMARK    6  A    between atoms: C_23  and  N_33 
ROOT
HETATM    1  C   UNL     1       5.718   2.100 -21.710  1.00  0.00     0.143 A 
HETATM    2  C   UNL     1       5.289   1.288 -22.744  1.00  0.00     0.077 A 
HETATM    3  C   UNL     1       5.744   1.560 -24.023  1.00  0.00     0.062 A 
HETATM    4  C   UNL     1       6.642   2.594 -24.241  1.00  0.00     0.041 A 
HETATM    5  C   UNL     1       8.022   4.544 -23.329  1.00  0.00     0.050 C 
HETATM    6  C   UNL     1       7.068   3.392 -23.178  1.00  0.00    -0.032 A 
HETATM    7  C   UNL     1       6.602   3.137 -21.916  1.00  0.00     0.053 A 
HETATM    8  F   UNL     1       5.271   1.859 -20.471  1.00  0.00    -0.204 F 
ENDROOT
BRANCH   4   9
HETATM    9  N   UNL     1       7.034   2.812 -25.564  1.00  0.00    -0.353 N 
ATOM     10  HN  UNL     1       7.962   2.475 -25.822  1.00  0.00     0.166 HD
BRANCH   9  11
HETATM   11  C   UNL     1       6.309   3.432 -26.566  1.00  0.00     0.072 A 
HETATM   12  C   UNL     1       5.039   3.958 -26.359  1.00  0.00     0.035 A 
HETATM   13  C   UNL     1       4.376   4.563 -27.406  1.00  0.00     0.033 A 
HETATM   14  C   UNL     1       4.980   4.651 -28.662  1.00  0.00     0.052 A 
HETATM   15  N   UNL     1       4.353   5.247 -29.710  1.00  0.00    -0.351 N 
HETATM   16  C   UNL     1       6.273   4.115 -28.857  1.00  0.00     0.100 A 
HETATM   17  C   UNL     1       4.907   5.351 -30.879  1.00  0.00     0.186 A 
ATOM     18  HN  UNL     1       3.416   5.624 -29.574  1.00  0.00     0.166 HD
HETATM   19  N   UNL     1       6.147   4.865 -31.154  1.00  0.00    -0.314 N 
HETATM   20  C   UNL     1       6.731   4.993 -32.504  1.00  0.00     0.160 C 
HETATM   21  C   UNL     1       6.860   4.244 -30.195  1.00  0.00     0.263 A 
HETATM   22  O   UNL     1       7.957   3.801 -30.460  1.00  0.00    -0.267 OA
HETATM   23  C   UNL     1       6.937   3.508 -27.787  1.00  0.00     0.161 A 
HETATM   24  F   UNL     1       8.182   2.988 -27.894  1.00  0.00    -0.203 F 
ENDBRANCH   9  11
ENDBRANCH   4   9
BRANCH   2  25
HETATM   25  N   UNL     1       4.361   0.274 -22.442  1.00  0.00    -0.306 N 
HETATM   26  C   UNL     1       3.093   0.431 -21.996  1.00  0.00     0.320 C 
HETATM   27  O   UNL     1       2.619   1.533 -21.814  1.00  0.00    -0.247 OA
HETATM   28  N   UNL     1       2.357  -0.677 -21.758  1.00  0.00    -0.343 N 
ATOM     29  HN  UNL     1       2.785  -1.588 -21.920  1.00  0.00     0.164 HD
ATOM     30  HN  UNL     1       4.680  -0.686 -22.573  1.00  0.00     0.171 HD
BRANCH  28  31
HETATM   31  C   UNL     1       0.969  -0.630 -21.275  1.00  0.00     0.125 C 
BRANCH  31  32
HETATM   32  C   UNL     1       0.767  -1.825 -20.342  1.00  0.00     0.028 C 
BRANCH  32  33
HETATM   33  C   UNL     1      -0.264  -2.833 -20.856  1.00  0.00    -0.050 C 
HETATM   34  C   UNL     1       0.203  -3.388 -22.199  1.00  0.00     0.014 C 
HETATM   35  C   UNL     1      -0.483  -3.997 -19.877  1.00  0.00     0.014 C 
HETATM   36  C   UNL     1      -1.579  -2.082 -21.025  1.00  0.00     0.014 C 
ENDBRANCH  32  33
ENDBRANCH  31  32
ENDBRANCH  28  31
ENDBRANCH   2  25
TORSDOF 6
ENDMDL
MODEL 4
REMARK VINA RESULT:   -10.353      3.999      7.446
REMARK INTER + INTRA:         -14.334
REMARK INTER:                 -13.949
REMARK INTRA:                  -0.385
REMARK UNBOUND:                -0.350
REMARK  6 active torsions:
REMARK  status: ('A' for Active; 'I' for Inactive)
REMARK    1  A    between atoms: C_2  and  N_29 
REMARK    2  A    between atoms: C_4  and  N_33 
REMARK    3  A    between atoms: C_8  and  C_18 
REMARK    4  A    between atoms: C_8  and  N_31 
REMARK    5  A    between atoms: C_9  and  C_18 
REMARK       I    between atoms: C_17  and  N_31 
REMARK       I    between atoms: C_17  and  N_29 
REMARK    6  A    between atoms: C_23  and  N_33 
ROOT
HETATM    1  C   UNL     1      -0.487  -0.853 -20.743  1.00  0.00     0.143 A 
HETATM    2  C   UNL     1       0.765  -1.155 -21.248  1.00  0.00     0.077 A 
HETATM    3  C   UNL     1       1.086  -2.485 -21.456  1.00  0.00     0.062 A 
HETATM    4  C   UNL     1       0.150  -3.478 -21.205  1.00  0.00     0.041 A 
HETATM    5  C   UNL     1      -2.175  -4.159 -20.387  1.00  0.00     0.050 C 
HETATM    6  C   UNL     1      -1.111  -3.146 -20.706  1.00  0.00    -0.032 A 
HETATM    7  C   UNL     1      -1.421  -1.831 -20.480  1.00  0.00     0.053 A 
HETATM    8  F   UNL     1      -0.802   0.429 -20.521  1.00  0.00    -0.204 F 
ENDROOT
BRANCH   4   9
HETATM    9  N   UNL     1       0.563  -4.795 -21.423  1.00  0.00    -0.353 N 
ATOM     10  HN  UNL     1       1.177  -5.198 -20.715  1.00  0.00     0.166 HD
BRANCH   9  11
HETATM   11  C   UNL     1       0.235  -5.615 -22.488  1.00  0.00     0.072 A 
HETATM   12  C   UNL     1       0.431  -5.241 -23.812  1.00  0.00     0.035 A 
HETATM   13  C   UNL     1       0.079  -6.112 -24.822  1.00  0.00     0.033 A 
HETATM   14  C   UNL     1      -0.462  -7.362 -24.513  1.00  0.00     0.052 A 
HETATM   15  N   UNL     1      -0.812  -8.243 -25.488  1.00  0.00    -0.351 N 
HETATM   16  C   UNL     1      -0.652  -7.730 -23.163  1.00  0.00     0.100 A 
HETATM   17  C   UNL     1      -1.301  -9.414 -25.218  1.00  0.00     0.186 A 
ATOM     18  HN  UNL     1      -0.685  -7.974 -26.463  1.00  0.00     0.166 HD
HETATM   19  N   UNL     1      -1.516  -9.849 -23.948  1.00  0.00    -0.314 N 
HETATM   20  C   UNL     1      -2.090 -11.184 -23.689  1.00  0.00     0.160 C 
HETATM   21  C   UNL     1      -1.218  -9.058 -22.900  1.00  0.00     0.263 A 
HETATM   22  O   UNL     1      -1.430  -9.453 -21.774  1.00  0.00    -0.267 OA
HETATM   23  C   UNL     1      -0.289  -6.840 -22.148  1.00  0.00     0.161 A 
HETATM   24  F   UNL     1      -0.425  -7.129 -20.833  1.00  0.00    -0.203 F 
ENDBRANCH   9  11
ENDBRANCH   4   9
BRANCH   2  25
HETATM   25  N   UNL     1       1.663  -0.091 -21.456  1.00  0.00    -0.306 N 
HETATM   26  C   UNL     1       2.911  -0.162 -21.973  1.00  0.00     0.320 C 
HETATM   27  O   UNL     1       3.389  -1.219 -22.329  1.00  0.00    -0.247 OA
HETATM   28  N   UNL     1       3.623   0.982 -22.087  1.00  0.00    -0.343 N 
ATOM     29  HN  UNL     1       3.194   1.853 -21.778  1.00  0.00     0.164 HD
ATOM     30  HN  UNL     1       1.336   0.837 -21.186  1.00  0.00     0.171 HD
BRANCH  28  31
HETATM   31  C   UNL     1       4.986   1.028 -22.636  1.00  0.00     0.125 C 
BRANCH  31  32
HETATM   32  C   UNL     1       5.584   2.386 -22.266  1.00  0.00     0.028 C 
BRANCH  32  33
HETATM   33  C   UNL     1       6.490   2.971 -23.353  1.00  0.00    -0.050 C 
HETATM   34  C   UNL     1       6.912   1.858 -24.309  1.00  0.00     0.014 C 
HETATM   35  C   UNL     1       5.800   4.088 -24.151  1.00  0.00     0.014 C 
HETATM   36  C   UNL     1       7.711   3.553 -22.652  1.00  0.00     0.014 C 
ENDBRANCH  32  33
ENDBRANCH  31  32
ENDBRANCH  28  31
ENDBRANCH   2  25
TORSDOF 6
ENDMDL
