MODEL 1
REMARK VINA RESULT:    -7.864      0.000      0.000
REMARK INTER + INTRA:         -11.104
REMARK INTER:                 -10.622
REMARK INTRA:                  -0.483
REMARK UNBOUND:                -0.483
REMARK  6 active torsions:
REMARK  status: ('A' for Active; 'I' for Inactive)
REMARK    1  A    between atoms: C_1  and  N_25 
REMARK    2  A    between atoms: C_8  and  N_27 
REMARK    3  A    between atoms: C_9  and  N_25 
REMARK    4  A    between atoms: C_9  and  C_10 
REMARK    5  A    between atoms: C_14  and  N_27 
REMARK    6  A    between atoms: C_17  and  N_29 
ROOT
HETATM    1  C   UNL     1      31.426  25.384  25.603  1.00  0.00     0.140 A 
HETATM    2  C   UNL     1      32.637  25.311  24.923  1.00  0.00     0.094 A 
HETATM    3  C   UNL     1      32.898  26.247  23.940  1.00  0.00     0.133 A 
HETATM    4  N   UNL     1      31.936  27.212  23.674  1.00  0.00    -0.200 N 
ATOM      5  HN  UNL     1      32.109  27.902  22.943  1.00  0.00     0.183 HD
HETATM    6  N   UNL     1      30.538  26.346  25.315  1.00  0.00    -0.175 N 
ATOM      7  HN  UNL     1      29.659  26.388  25.832  1.00  0.00     0.186 HD
HETATM    8  C   UNL     1      30.783  27.254  24.361  1.00  0.00     0.684 A 
HETATM    9 CL   UNL     1      33.821  24.101  25.267  1.00  0.00    -0.079 Cl
ENDROOT
BRANCH   8  10
HETATM   10  N   UNL     1      29.949  28.232  24.001  1.00  0.00    -0.192 N 
ATOM     11  HN  UNL     1      30.335  29.174  23.936  1.00  0.00     0.184 HD
BRANCH  10  12
HETATM   12  C   UNL     1      28.644  28.083  23.718  1.00  0.00     0.049 A 
HETATM   13  C   UNL     1      28.079  29.149  23.034  1.00  0.00     0.032 A 
HETATM   14  C   UNL     1      26.750  29.133  22.655  1.00  0.00     0.026 A 
HETATM   15  C   UNL     1      25.937  28.043  22.929  1.00  0.00     0.010 A 
HETATM   16  C   UNL     1      26.489  26.966  23.624  1.00  0.00     0.026 A 
HETATM   17  C   UNL     1      27.834  26.982  24.002  1.00  0.00     0.032 A 
BRANCH  15  18
HETATM   18  N   UNL     1      24.633  28.124  22.575  1.00  0.00    -0.280 NA
HETATM   19  C   UNL     1      24.222  29.430  22.018  1.00  0.00     0.126 C 
HETATM   20  C   UNL     1      22.818  29.336  21.477  1.00  0.00     0.286 C 
HETATM   21  N   UNL     1      21.898  28.992  22.561  1.00  0.00     0.086 N 
HETATM   22  C   UNL     1      22.262  27.700  23.162  1.00  0.00     0.286 C 
HETATM   23  C   UNL     1      20.528  28.917  22.029  1.00  0.00     0.310 C 
HETATM   24  C   UNL     1      23.694  27.635  23.578  1.00  0.00     0.126 C 
ENDBRANCH  15  18
ENDBRANCH  10  12
ENDBRANCH   8  10
BRANCH   1  25
HETATM   25  N   UNL     1      31.215  24.455  26.544  1.00  0.00    -0.372 N 
ATOM     26  HN  UNL     1      31.123  23.485  26.241  1.00  0.00     0.161 HD
BRANCH  25  27
HETATM   27  C   UNL     1      31.105  24.736  27.990  1.00  0.00     0.153 C 
BRANCH  27  28
HETATM   28  C   UNL     1      29.618  24.810  28.314  1.00  0.00     0.139 C 
HETATM   29  C   UNL     1      28.974  23.473  28.447  1.00  0.00     0.035 C 
HETATM   30  C   UNL     1      29.474  22.893  29.744  1.00  0.00     0.029 C 
HETATM   31  C   UNL     1      29.788  24.214  30.498  1.00  0.00     0.168 C 
HETATM   32  O   UNL     1      29.215  25.247  29.661  1.00  0.00    -0.384 OA
ENDBRANCH  27  28
ENDBRANCH  25  27
ENDBRANCH   1  25
TORSDOF 6
ENDMDL
MODEL 2
REMARK VINA RESULT:    -7.857      4.259      6.674
REMARK INTER + INTRA:         -11.096
REMARK INTER:                  -9.731
REMARK INTRA:                  -1.365
REMARK UNBOUND:                -0.483
REMARK  6 active torsions:
REMARK  status: ('A' for Active; 'I' for Inactive)
REMARK    1  A    between atoms: C_1  and  N_25 
REMARK    2  A    between atoms: C_8  and  N_27 
REMARK    3  A    between atoms: C_9  and  N_25 
REMARK    4  A    between atoms: C_9  and  C_10 
REMARK    5  A    between atoms: C_14  and  N_27 
REMARK    6  A    between atoms: C_17  and  N_29 
ROOT
HETATM    1  C   UNL     1      26.218  27.795  23.633  1.00  0.00     0.140 A 
HETATM    2  C   UNL     1      27.197  28.616  23.084  1.00  0.00     0.094 A 
HETATM    3  C   UNL     1      26.801  29.676  22.290  1.00  0.00     0.133 A 
HETATM    4  N   UNL     1      25.443  29.867  22.073  1.00  0.00    -0.200 N 
ATOM      5  HN  UNL     1      25.135  30.637  21.478  1.00  0.00     0.183 HD
HETATM    6  N   UNL     1      24.918  28.035  23.401  1.00  0.00    -0.175 N 
ATOM      7  HN  UNL     1      24.215  27.426  23.820  1.00  0.00     0.186 HD
HETATM    8  C   UNL     1      24.527  29.058  22.629  1.00  0.00     0.684 A 
HETATM    9 CL   UNL     1      28.883  28.361  23.364  1.00  0.00    -0.079 Cl
ENDROOT
BRANCH   8  10
HETATM   10  N   UNL     1      23.260  29.355  22.336  1.00  0.00    -0.192 N 
ATOM     11  HN  UNL     1      23.100  30.006  21.568  1.00  0.00     0.184 HD
BRANCH  10  12
HETATM   12  C   UNL     1      22.176  28.871  22.966  1.00  0.00     0.049 A 
HETATM   13  C   UNL     1      21.613  27.756  22.364  1.00  0.00     0.032 A 
HETATM   14  C   UNL     1      20.504  27.133  22.907  1.00  0.00     0.026 A 
HETATM   15  C   UNL     1      19.926  27.590  24.083  1.00  0.00     0.010 A 
HETATM   16  C   UNL     1      20.478  28.716  24.696  1.00  0.00     0.026 A 
HETATM   17  C   UNL     1      21.601  29.341  24.149  1.00  0.00     0.032 A 
BRANCH  15  18
HETATM   18  N   UNL     1      18.811  26.960  24.523  1.00  0.00    -0.280 NA
HETATM   19  C   UNL     1      19.038  25.975  25.600  1.00  0.00     0.126 C 
HETATM   20  C   UNL     1      17.716  25.495  26.141  1.00  0.00     0.286 C 
HETATM   21  N   UNL     1      16.960  24.839  25.075  1.00  0.00     0.086 N 
HETATM   22  C   UNL     1      16.708  25.773  23.966  1.00  0.00     0.286 C 
HETATM   23  C   UNL     1      15.677  24.360  25.614  1.00  0.00     0.310 C 
HETATM   24  C   UNL     1      17.950  26.435  23.470  1.00  0.00     0.126 C 
ENDBRANCH  15  18
ENDBRANCH  10  12
ENDBRANCH   8  10
BRANCH   1  25
HETATM   25  N   UNL     1      26.648  26.780  24.392  1.00  0.00    -0.372 N 
ATOM     26  HN  UNL     1      27.512  26.315  24.115  1.00  0.00     0.161 HD
BRANCH  25  27
HETATM   27  C   UNL     1      25.958  26.287  25.601  1.00  0.00     0.153 C 
BRANCH  27  28
HETATM   28  C   UNL     1      25.145  25.068  25.180  1.00  0.00     0.139 C 
HETATM   29  C   UNL     1      24.456  24.395  26.317  1.00  0.00     0.035 C 
HETATM   30  C   UNL     1      23.329  25.307  26.724  1.00  0.00     0.029 C 
HETATM   31  C   UNL     1      23.098  26.032  25.371  1.00  0.00     0.168 C 
HETATM   32  O   UNL     1      23.900  25.284  24.425  1.00  0.00    -0.384 OA
ENDBRANCH  27  28
ENDBRANCH  25  27
ENDBRANCH   1  25
TORSDOF 6
ENDMDL
MODEL 3
REMARK VINA RESULT:    -7.772      4.729      7.737
REMARK INTER + INTRA:         -10.981
REMARK INTER:                  -9.708
REMARK INTRA:                  -1.273
REMARK UNBOUND:                -0.483
REMARK  6 active torsions:
REMARK  status: ('A' for Active; 'I' for Inactive)
REMARK    1  A    between atoms: C_1  and  N_25 
REMARK    2  A    between atoms: C_8  and  N_27 
REMARK    3  A    between atoms: C_9  and  N_25 
REMARK    4  A    between atoms: C_9  and  C_10 
REMARK    5  A    between atoms: C_14  and  N_27 
REMARK    6  A    between atoms: C_17  and  N_29 
ROOT
HETATM    1  C   UNL     1      25.249  29.283  22.378  1.00  0.00     0.140 A 
HETATM    2  C   UNL     1      25.661  30.521  21.899  1.00  0.00     0.094 A 
HETATM    3  C   UNL     1      24.696  31.454  21.566  1.00  0.00     0.133 A 
HETATM    4  N   UNL     1      23.361  31.107  21.720  1.00  0.00    -0.200 N 
ATOM      5  HN  UNL     1      22.637  31.779  21.466  1.00  0.00     0.183 HD
HETATM    6  N   UNL     1      23.944  29.006  22.520  1.00  0.00    -0.175 N 
ATOM      7  HN  UNL     1      23.663  28.094  22.882  1.00  0.00     0.186 HD
HETATM    8  C   UNL     1      23.004  29.903  22.195  1.00  0.00     0.684 A 
HETATM    9 CL   UNL     1      27.328  30.934  21.713  1.00  0.00    -0.079 Cl
ENDROOT
BRANCH   8  10
HETATM   10  N   UNL     1      21.688  29.702  22.290  1.00  0.00    -0.192 N 
ATOM     11  HN  UNL     1      21.092  30.197  21.627  1.00  0.00     0.184 HD
BRANCH  10  12
HETATM   12  C   UNL     1      21.081  28.905  23.186  1.00  0.00     0.049 A 
HETATM   13  C   UNL     1      20.594  27.718  22.659  1.00  0.00     0.032 A 
HETATM   14  C   UNL     1      19.961  26.786  23.461  1.00  0.00     0.026 A 
HETATM   15  C   UNL     1      19.806  26.996  24.824  1.00  0.00     0.010 A 
HETATM   16  C   UNL     1      20.284  28.190  25.366  1.00  0.00     0.026 A 
HETATM   17  C   UNL     1      20.927  29.128  24.555  1.00  0.00     0.032 A 
BRANCH  15  18
HETATM   18  N   UNL     1      19.128  26.062  25.532  1.00  0.00    -0.280 NA
HETATM   19  C   UNL     1      19.973  25.026  26.161  1.00  0.00     0.126 C 
HETATM   20  C   UNL     1      19.137  24.172  27.079  1.00  0.00     0.286 C 
HETATM   21  N   UNL     1      18.092  23.502  26.306  1.00  0.00     0.086 N 
HETATM   22  C   UNL     1      17.218  24.487  25.648  1.00  0.00     0.286 C 
HETATM   23  C   UNL     1      17.288  22.659  27.207  1.00  0.00     0.310 C 
HETATM   24  C   UNL     1      17.977  25.490  24.845  1.00  0.00     0.126 C 
ENDBRANCH  15  18
ENDBRANCH  10  12
ENDBRANCH   8  10
BRANCH   1  25
HETATM   25  N   UNL     1      26.217  28.410  22.685  1.00  0.00    -0.372 N 
ATOM     26  HN  UNL     1      26.863  28.138  21.944  1.00  0.00     0.161 HD
BRANCH  25  27
HETATM   27  C   UNL     1      26.416  27.815  24.023  1.00  0.00     0.153 C 
BRANCH  27  28
HETATM   28  C   UNL     1      26.034  26.344  23.912  1.00  0.00     0.139 C 
HETATM   29  C   UNL     1      26.038  25.631  25.221  1.00  0.00     0.035 C 
HETATM   30  C   UNL     1      24.837  26.136  25.977  1.00  0.00     0.029 C 
HETATM   31  C   UNL     1      23.943  26.544  24.774  1.00  0.00     0.168 C 
HETATM   32  O   UNL     1      24.632  26.005  23.620  1.00  0.00    -0.384 OA
ENDBRANCH  27  28
ENDBRANCH  25  27
ENDBRANCH   1  25
TORSDOF 6
ENDMDL
MODEL 4
REMARK VINA RESULT:    -7.672      5.170      9.505
REMARK INTER + INTRA:         -10.846
REMARK INTER:                  -9.642
REMARK INTRA:                  -1.204
REMARK UNBOUND:                -0.483
REMARK  6 active torsions:
REMARK  status: ('A' for Active; 'I' for Inactive)
REMARK    1  A    between atoms: C_1  and  N_25 
REMARK    2  A    between atoms: C_8  and  N_27 
REMARK    3  A    between atoms: C_9  and  N_25 
REMARK    4  A    between atoms: C_9  and  C_10 
REMARK    5  A    between atoms: C_14  and  N_27 
REMARK    6  A    between atoms: C_17  and  N_29 
ROOT
HETATM    1  C   UNL     1      18.553  24.898  25.234  1.00  0.00     0.140 A 
HETATM    2  C   UNL     1      17.171  24.917  25.085  1.00  0.00     0.094 A 
HETATM    3  C   UNL     1      16.614  25.831  24.210  1.00  0.00     0.133 A 
HETATM    4  N   UNL     1      17.462  26.691  23.525  1.00  0.00    -0.200 N 
ATOM      5  HN  UNL     1      17.065  27.379  22.884  1.00  0.00     0.183 HD
HETATM    6  N   UNL     1      19.326  25.743  24.536  1.00  0.00    -0.175 N 
ATOM      7  HN  UNL     1      20.339  25.707  24.653  1.00  0.00     0.186 HD
HETATM    8  C   UNL     1      18.793  26.634  23.689  1.00  0.00     0.684 A 
HETATM    9 CL   UNL     1      16.131  23.840  25.948  1.00  0.00    -0.079 Cl
ENDROOT
BRANCH   8  10
HETATM   10  N   UNL     1      19.488  27.519  22.970  1.00  0.00    -0.192 N 
ATOM     11  HN  UNL     1      18.967  28.092  22.308  1.00  0.00     0.184 HD
BRANCH  10  12
HETATM   12  C   UNL     1      20.815  27.718  23.045  1.00  0.00     0.049 A 
HETATM   13  C   UNL     1      21.574  26.799  22.338  1.00  0.00     0.032 A 
HETATM   14  C   UNL     1      22.954  26.885  22.304  1.00  0.00     0.026 A 
HETATM   15  C   UNL     1      23.627  27.904  22.961  1.00  0.00     0.010 A 
HETATM   16  C   UNL     1      22.876  28.833  23.683  1.00  0.00     0.026 A 
HETATM   17  C   UNL     1      21.482  28.747  23.713  1.00  0.00     0.032 A 
BRANCH  15  18
HETATM   18  N   UNL     1      24.980  27.890  22.926  1.00  0.00    -0.280 NA
HETATM   19  C   UNL     1      25.621  27.120  24.012  1.00  0.00     0.126 C 
HETATM   20  C   UNL     1      27.102  27.008  23.755  1.00  0.00     0.286 C 
HETATM   21  N   UNL     1      27.696  28.344  23.730  1.00  0.00     0.086 N 
HETATM   22  C   UNL     1      27.091  29.163  22.668  1.00  0.00     0.286 C 
HETATM   23  C   UNL     1      29.144  28.225  23.493  1.00  0.00     0.310 C 
HETATM   24  C   UNL     1      25.601  29.196  22.738  1.00  0.00     0.126 C 
ENDBRANCH  15  18
ENDBRANCH  10  12
ENDBRANCH   8  10
BRANCH   1  25
HETATM   25  N   UNL     1      19.047  24.000  26.094  1.00  0.00    -0.372 N 
ATOM     26  HN  UNL     1      18.386  23.495  26.685  1.00  0.00     0.161 HD
BRANCH  25  27
HETATM   27  C   UNL     1      20.483  23.687  26.247  1.00  0.00     0.153 C 
BRANCH  27  28
HETATM   28  C   UNL     1      21.094  24.811  27.075  1.00  0.00     0.139 C 
HETATM   29  C   UNL     1      22.338  24.411  27.791  1.00  0.00     0.035 C 
HETATM   30  C   UNL     1      23.405  24.280  26.736  1.00  0.00     0.029 C 
HETATM   31  C   UNL     1      22.828  25.261  25.679  1.00  0.00     0.168 C 
HETATM   32  O   UNL     1      21.743  25.928  26.369  1.00  0.00    -0.384 OA
ENDBRANCH  27  28
ENDBRANCH  25  27
ENDBRANCH   1  25
TORSDOF 6
ENDMDL
MODEL 5
REMARK VINA RESULT:    -7.629      3.741      6.335
REMARK INTER + INTRA:         -10.788
REMARK INTER:                  -9.829
REMARK INTRA:                  -0.958
REMARK UNBOUND:                -0.483
REMARK  6 active torsions:
REMARK  status: ('A' for Active; 'I' for Inactive)
REMARK    1  A    between atoms: C_1  and  N_25 
REMARK    2  A    between atoms: C_8  and  N_27 
REMARK    3  A    between atoms: C_9  and  N_25 
REMARK    4  A    between atoms: C_9  and  C_10 
REMARK    5  A    between atoms: C_14  and  N_27 
REMARK    6  A    between atoms: C_17  and  N_29 
ROOT
HETATM    1  C   UNL     1      28.091  27.859  23.877  1.00  0.00     0.140 A 
HETATM    2  C   UNL     1      29.382  27.352  23.969  1.00  0.00     0.094 A 
HETATM    3  C   UNL     1      29.561  26.101  24.528  1.00  0.00     0.133 A 
HETATM    4  N   UNL     1      28.443  25.412  24.977  1.00  0.00    -0.200 N 
ATOM      5  HN  UNL     1      28.559  24.492  25.404  1.00  0.00     0.183 HD
HETATM    6  N   UNL     1      27.044  27.144  24.314  1.00  0.00    -0.175 N 
ATOM      7  HN  UNL     1      26.104  27.530  24.229  1.00  0.00     0.186 HD
HETATM    8  C   UNL     1      27.210  25.932  24.861  1.00  0.00     0.684 A 
HETATM    9 CL   UNL     1      30.763  28.226  23.406  1.00  0.00    -0.079 Cl
ENDROOT
BRANCH   8  10
HETATM   10  N   UNL     1      26.227  25.164  25.334  1.00  0.00    -0.192 N 
ATOM     11  HN  UNL     1      26.484  24.242  25.685  1.00  0.00     0.184 HD
BRANCH  10  12
HETATM   12  C   UNL     1      24.927  25.501  25.388  1.00  0.00     0.049 A 
HETATM   13  C   UNL     1      24.144  24.928  24.397  1.00  0.00     0.032 A 
HETATM   14  C   UNL     1      22.784  25.166  24.333  1.00  0.00     0.026 A 
HETATM   15  C   UNL     1      22.150  25.971  25.269  1.00  0.00     0.010 A 
HETATM   16  C   UNL     1      22.926  26.561  26.268  1.00  0.00     0.026 A 
HETATM   17  C   UNL     1      24.300  26.316  26.333  1.00  0.00     0.032 A 
BRANCH  15  18
HETATM   18  N   UNL     1      20.825  26.200  25.109  1.00  0.00    -0.280 NA
HETATM   19  C   UNL     1      19.946  25.103  25.565  1.00  0.00     0.126 C 
HETATM   20  C   UNL     1      18.507  25.550  25.525  1.00  0.00     0.286 C 
HETATM   21  N   UNL     1      18.138  25.889  24.152  1.00  0.00     0.086 N 
HETATM   22  C   UNL     1      18.987  26.976  23.638  1.00  0.00     0.286 C 
HETATM   23  C   UNL     1      16.728  26.311  24.118  1.00  0.00     0.310 C 
HETATM   24  C   UNL     1      20.445  26.696  23.792  1.00  0.00     0.126 C 
ENDBRANCH  15  18
ENDBRANCH  10  12
ENDBRANCH   8  10
BRANCH   1  25
HETATM   25  N   UNL     1      27.966  29.076  23.331  1.00  0.00    -0.372 N 
ATOM     26  HN  UNL     1      28.814  29.535  22.997  1.00  0.00     0.161 HD
BRANCH  25  27
HETATM   27  C   UNL     1      26.687  29.799  23.180  1.00  0.00     0.153 C 
BRANCH  27  28
HETATM   28  C   UNL     1      26.131  29.431  21.809  1.00  0.00     0.139 C 
HETATM   29  C   UNL     1      25.406  28.130  21.794  1.00  0.00     0.035 C 
HETATM   30  C   UNL     1      24.110  28.363  22.525  1.00  0.00     0.029 C 
HETATM   31  C   UNL     1      23.956  29.887  22.269  1.00  0.00     0.168 C 
HETATM   32  O   UNL     1      24.981  30.190  21.293  1.00  0.00    -0.384 OA
ENDBRANCH  27  28
ENDBRANCH  25  27
ENDBRANCH   1  25
TORSDOF 6
ENDMDL
MODEL 6
REMARK VINA RESULT:    -7.600      5.301      8.593
REMARK INTER + INTRA:         -10.748
REMARK INTER:                  -9.448
REMARK INTRA:                  -1.300
REMARK UNBOUND:                -0.483
REMARK  6 active torsions:
REMARK  status: ('A' for Active; 'I' for Inactive)
REMARK    1  A    between atoms: C_1  and  N_25 
REMARK    2  A    between atoms: C_8  and  N_27 
REMARK    3  A    between atoms: C_9  and  N_25 
REMARK    4  A    between atoms: C_9  and  C_10 
REMARK    5  A    between atoms: C_14  and  N_27 
REMARK    6  A    between atoms: C_17  and  N_29 
ROOT
HETATM    1  C   UNL     1      23.651  29.245  22.371  1.00  0.00     0.140 A 
HETATM    2  C   UNL     1      24.664  29.994  21.782  1.00  0.00     0.094 A 
HETATM    3  C   UNL     1      25.941  29.465  21.748  1.00  0.00     0.133 A 
HETATM    4  N   UNL     1      26.153  28.213  22.309  1.00  0.00    -0.200 N 
ATOM      5  HN  UNL     1      27.092  27.815  22.303  1.00  0.00     0.183 HD
HETATM    6  N   UNL     1      23.910  28.033  22.886  1.00  0.00    -0.175 N 
ATOM      7  HN  UNL     1      23.151  27.496  23.306  1.00  0.00     0.186 HD
HETATM    8  C   UNL     1      25.146  27.517  22.860  1.00  0.00     0.684 A 
HETATM    9 CL   UNL     1      24.381  31.551  21.090  1.00  0.00    -0.079 Cl
ENDROOT
BRANCH   8  10
HETATM   10  N   UNL     1      25.491  26.330  23.363  1.00  0.00    -0.192 N 
ATOM     11  HN  UNL     1      26.345  25.902  23.005  1.00  0.00     0.184 HD
BRANCH  10  12
HETATM   12  C   UNL     1      24.809  25.648  24.300  1.00  0.00     0.049 A 
HETATM   13  C   UNL     1      25.185  25.933  25.603  1.00  0.00     0.032 A 
HETATM   14  C   UNL     1      24.561  25.325  26.677  1.00  0.00     0.026 A 
HETATM   15  C   UNL     1      23.524  24.423  26.490  1.00  0.00     0.010 A 
HETATM   16  C   UNL     1      23.140  24.120  25.182  1.00  0.00     0.026 A 
HETATM   17  C   UNL     1      23.769  24.739  24.099  1.00  0.00     0.032 A 
BRANCH  15  18
HETATM   18  N   UNL     1      23.000  23.829  27.588  1.00  0.00    -0.280 NA
HETATM   19  C   UNL     1      22.545  22.438  27.383  1.00  0.00     0.126 C 
HETATM   20  C   UNL     1      22.174  21.821  28.707  1.00  0.00     0.286 C 
HETATM   21  N   UNL     1      21.077  22.577  29.309  1.00  0.00     0.086 N 
HETATM   22  C   UNL     1      21.469  23.977  29.532  1.00  0.00     0.286 C 
HETATM   23  C   UNL     1      20.711  21.960  30.595  1.00  0.00     0.310 C 
HETATM   24  C   UNL     1      22.015  24.629  28.306  1.00  0.00     0.126 C 
ENDBRANCH  15  18
ENDBRANCH  10  12
ENDBRANCH   8  10
BRANCH   1  25
HETATM   25  N   UNL     1      22.432  29.797  22.384  1.00  0.00    -0.372 N 
ATOM     26  HN  UNL     1      22.317  30.703  21.929  1.00  0.00     0.161 HD
BRANCH  25  27
HETATM   27  C   UNL     1      21.242  29.187  23.012  1.00  0.00     0.153 C 
BRANCH  27  28
HETATM   28  C   UNL     1      21.384  29.388  24.516  1.00  0.00     0.139 C 
HETATM   29  C   UNL     1      20.095  29.274  25.253  1.00  0.00     0.035 C 
HETATM   30  C   UNL     1      19.731  27.813  25.239  1.00  0.00     0.029 C 
HETATM   31  C   UNL     1      21.155  27.207  25.102  1.00  0.00     0.168 C 
HETATM   32  O   UNL     1      22.042  28.333  25.305  1.00  0.00    -0.384 OA
ENDBRANCH  27  28
ENDBRANCH  25  27
ENDBRANCH   1  25
TORSDOF 6
ENDMDL
MODEL 7
REMARK VINA RESULT:    -7.525      1.082      1.624
REMARK INTER + INTRA:         -10.647
REMARK INTER:                  -9.855
REMARK INTRA:                  -0.792
REMARK UNBOUND:                -0.483
REMARK  6 active torsions:
REMARK  status: ('A' for Active; 'I' for Inactive)
REMARK    1  A    between atoms: C_1  and  N_25 
REMARK    2  A    between atoms: C_8  and  N_27 
REMARK    3  A    between atoms: C_9  and  N_25 
REMARK    4  A    between atoms: C_9  and  C_10 
REMARK    5  A    between atoms: C_14  and  N_27 
REMARK    6  A    between atoms: C_17  and  N_29 
ROOT
HETATM    1  C   UNL     1      31.591  25.880  25.679  1.00  0.00     0.140 A 
HETATM    2  C   UNL     1      32.761  25.592  24.985  1.00  0.00     0.094 A 
HETATM    3  C   UNL     1      33.029  26.292  23.824  1.00  0.00     0.133 A 
HETATM    4  N   UNL     1      32.113  27.246  23.401  1.00  0.00    -0.200 N 
ATOM      5  HN  UNL     1      32.291  27.763  22.539  1.00  0.00     0.183 HD
HETATM    6  N   UNL     1      30.747  26.823  25.232  1.00  0.00    -0.175 N 
ATOM      7  HN  UNL     1      29.898  27.026  25.760  1.00  0.00     0.186 HD
HETATM    8  C   UNL     1      30.999  27.503  24.105  1.00  0.00     0.684 A 
HETATM    9 CL   UNL     1      33.888  24.399  25.526  1.00  0.00    -0.079 Cl
ENDROOT
BRANCH   8  10
HETATM   10  N   UNL     1      30.207  28.442  23.584  1.00  0.00    -0.192 N 
ATOM     11  HN  UNL     1      30.656  29.288  23.234  1.00  0.00     0.184 HD
BRANCH  10  12
HETATM   12  C   UNL     1      28.869  28.369  23.481  1.00  0.00     0.049 A 
HETATM   13  C   UNL     1      28.264  29.530  23.025  1.00  0.00     0.032 A 
HETATM   14  C   UNL     1      26.895  29.603  22.849  1.00  0.00     0.026 A 
HETATM   15  C   UNL     1      26.078  28.510  23.104  1.00  0.00     0.010 A 
HETATM   16  C   UNL     1      26.672  27.337  23.572  1.00  0.00     0.026 A 
HETATM   17  C   UNL     1      28.056  27.264  23.744  1.00  0.00     0.032 A 
BRANCH  15  18
HETATM   18  N   UNL     1      24.742  28.675  22.960  1.00  0.00    -0.280 NA
HETATM   19  C   UNL     1      23.967  27.420  22.884  1.00  0.00     0.126 C 
HETATM   20  C   UNL     1      22.492  27.726  22.930  1.00  0.00     0.286 C 
HETATM   21  N   UNL     1      22.129  28.557  21.783  1.00  0.00     0.086 N 
HETATM   22  C   UNL     1      22.877  29.824  21.800  1.00  0.00     0.286 C 
HETATM   23  C   UNL     1      20.685  28.840  21.826  1.00  0.00     0.310 C 
HETATM   24  C   UNL     1      24.351  29.626  21.927  1.00  0.00     0.126 C 
ENDBRANCH  15  18
ENDBRANCH  10  12
ENDBRANCH   8  10
BRANCH   1  25
HETATM   25  N   UNL     1      31.371  25.175  26.795  1.00  0.00    -0.372 N 
ATOM     26  HN  UNL     1      31.852  25.471  27.645  1.00  0.00     0.161 HD
BRANCH  25  27
HETATM   27  C   UNL     1      30.479  24.000  26.883  1.00  0.00     0.153 C 
BRANCH  27  28
HETATM   28  C   UNL     1      29.172  24.482  27.501  1.00  0.00     0.139 C 
HETATM   29  C   UNL     1      28.064  24.613  26.514  1.00  0.00     0.035 C 
HETATM   30  C   UNL     1      27.656  23.209  26.153  1.00  0.00     0.029 C 
HETATM   31  C   UNL     1      28.099  22.482  27.452  1.00  0.00     0.168 C 
HETATM   32  O   UNL     1      28.424  23.557  28.367  1.00  0.00    -0.384 OA
ENDBRANCH  27  28
ENDBRANCH  25  27
ENDBRANCH   1  25
TORSDOF 6
ENDMDL
MODEL 8
REMARK VINA RESULT:    -7.494      3.672      8.539
REMARK INTER + INTRA:         -10.605
REMARK INTER:                  -9.863
REMARK INTRA:                  -0.742
REMARK UNBOUND:                -0.483
REMARK  6 active torsions:
REMARK  status: ('A' for Active; 'I' for Inactive)
REMARK    1  A    between atoms: C_1  and  N_25 
REMARK    2  A    between atoms: C_8  and  N_27 
REMARK    3  A    between atoms: C_9  and  N_25 
REMARK    4  A    between atoms: C_9  and  C_10 
REMARK    5  A    between atoms: C_14  and  N_27 
REMARK    6  A    between atoms: C_17  and  N_29 
ROOT
HETATM    1  C   UNL     1      22.468  28.508  23.057  1.00  0.00     0.140 A 
HETATM    2  C   UNL     1      22.009  29.032  21.853  1.00  0.00     0.094 A 
HETATM    3  C   UNL     1      22.916  29.661  21.020  1.00  0.00     0.133 A 
HETATM    4  N   UNL     1      24.240  29.746  21.428  1.00  0.00    -0.200 N 
ATOM      5  HN  UNL     1      24.918  30.218  20.829  1.00  0.00     0.183 HD
HETATM    6  N   UNL     1      23.762  28.607  23.395  1.00  0.00    -0.175 N 
ATOM      7  HN  UNL     1      24.080  28.208  24.279  1.00  0.00     0.186 HD
HETATM    8  C   UNL     1      24.645  29.218  22.594  1.00  0.00     0.684 A 
HETATM    9 CL   UNL     1      20.356  28.918  21.363  1.00  0.00    -0.079 Cl
ENDROOT
BRANCH   8  10
HETATM   10  N   UNL     1      25.943  29.373  22.862  1.00  0.00    -0.192 N 
ATOM     11  HN  UNL     1      26.341  30.301  22.720  1.00  0.00     0.184 HD
BRANCH  10  12
HETATM   12  C   UNL     1      26.772  28.410  23.302  1.00  0.00     0.049 A 
HETATM   13  C   UNL     1      28.114  28.754  23.279  1.00  0.00     0.032 A 
HETATM   14  C   UNL     1      29.086  27.874  23.718  1.00  0.00     0.026 A 
HETATM   15  C   UNL     1      28.752  26.623  24.216  1.00  0.00     0.010 A 
HETATM   16  C   UNL     1      27.404  26.260  24.238  1.00  0.00     0.026 A 
HETATM   17  C   UNL     1      26.424  27.152  23.797  1.00  0.00     0.032 A 
BRANCH  15  18
HETATM   18  N   UNL     1      29.763  25.798  24.577  1.00  0.00    -0.280 NA
HETATM   19  C   UNL     1      29.464  24.916  25.725  1.00  0.00     0.126 C 
HETATM   20  C   UNL     1      30.575  23.914  25.902  1.00  0.00     0.286 C 
HETATM   21  N   UNL     1      31.827  24.616  26.179  1.00  0.00     0.086 N 
HETATM   22  C   UNL     1      32.175  25.518  25.070  1.00  0.00     0.286 C 
HETATM   23  C   UNL     1      32.905  23.630  26.365  1.00  0.00     0.310 C 
HETATM   24  C   UNL     1      31.064  26.443  24.703  1.00  0.00     0.126 C 
ENDBRANCH  15  18
ENDBRANCH  10  12
ENDBRANCH   8  10
BRANCH   1  25
HETATM   25  N   UNL     1      21.555  27.912  23.833  1.00  0.00    -0.372 N 
ATOM     26  HN  UNL     1      20.672  27.638  23.402  1.00  0.00     0.161 HD
BRANCH  25  27
HETATM   27  C   UNL     1      21.737  27.621  25.270  1.00  0.00     0.153 C 
BRANCH  27  28
HETATM   28  C   UNL     1      21.321  26.171  25.484  1.00  0.00     0.139 C 
HETATM   29  C   UNL     1      21.943  25.227  24.513  1.00  0.00     0.035 C 
HETATM   30  C   UNL     1      23.394  25.121  24.903  1.00  0.00     0.029 C 
HETATM   31  C   UNL     1      23.269  25.466  26.412  1.00  0.00     0.168 C 
HETATM   32  O   UNL     1      21.842  25.459  26.662  1.00  0.00    -0.384 OA
ENDBRANCH  27  28
ENDBRANCH  25  27
ENDBRANCH   1  25
TORSDOF 6
ENDMDL
MODEL 9
REMARK VINA RESULT:    -7.488      4.462      7.614
REMARK INTER + INTRA:         -10.597
REMARK INTER:                  -9.295
REMARK INTRA:                  -1.302
REMARK UNBOUND:                -0.483
REMARK  6 active torsions:
REMARK  status: ('A' for Active; 'I' for Inactive)
REMARK    1  A    between atoms: C_1  and  N_25 
REMARK    2  A    between atoms: C_8  and  N_27 
REMARK    3  A    between atoms: C_9  and  N_25 
REMARK    4  A    between atoms: C_9  and  C_10 
REMARK    5  A    between atoms: C_14  and  N_27 
REMARK    6  A    between atoms: C_17  and  N_29 
ROOT
HETATM    1  C   UNL     1      25.490  29.597  22.428  1.00  0.00     0.140 A 
HETATM    2  C   UNL     1      25.287  30.858  21.878  1.00  0.00     0.094 A 
HETATM    3  C   UNL     1      24.006  31.216  21.504  1.00  0.00     0.133 A 
HETATM    4  N   UNL     1      22.982  30.297  21.689  1.00  0.00    -0.200 N 
ATOM      5  HN  UNL     1      22.033  30.541  21.406  1.00  0.00     0.183 HD
HETATM    6  N   UNL     1      24.462  28.753  22.596  1.00  0.00    -0.175 N 
ATOM      7  HN  UNL     1      24.630  27.835  23.010  1.00  0.00     0.186 HD
HETATM    8  C   UNL     1      23.218  29.092  22.232  1.00  0.00     0.684 A 
HETATM    9 CL   UNL     1      26.575  31.988  21.654  1.00  0.00    -0.079 Cl
ENDROOT
BRANCH   8  10
HETATM   10  N   UNL     1      22.144  28.307  22.351  1.00  0.00    -0.192 N 
ATOM     11  HN  UNL     1      21.362  28.490  21.722  1.00  0.00     0.184 HD
BRANCH  10  12
HETATM   12  C   UNL     1      22.006  27.297  23.227  1.00  0.00     0.049 A 
HETATM   13  C   UNL     1      21.610  27.690  24.497  1.00  0.00     0.032 A 
HETATM   14  C   UNL     1      21.408  26.762  25.501  1.00  0.00     0.026 A 
HETATM   15  C   UNL     1      21.574  25.404  25.271  1.00  0.00     0.010 A 
HETATM   16  C   UNL     1      21.979  24.995  23.999  1.00  0.00     0.026 A 
HETATM   17  C   UNL     1      22.179  25.933  22.984  1.00  0.00     0.032 A 
BRANCH  15  18
HETATM   18  N   UNL     1      21.409  24.562  26.318  1.00  0.00    -0.280 NA
HETATM   19  C   UNL     1      20.048  24.545  26.893  1.00  0.00     0.126 C 
HETATM   20  C   UNL     1      19.934  23.436  27.907  1.00  0.00     0.286 C 
HETATM   21  N   UNL     1      20.885  23.667  28.993  1.00  0.00     0.086 N 
HETATM   22  C   UNL     1      22.264  23.701  28.479  1.00  0.00     0.286 C 
HETATM   23  C   UNL     1      20.759  22.587  29.986  1.00  0.00     0.310 C 
HETATM   24  C   UNL     1      22.438  24.656  27.346  1.00  0.00     0.126 C 
ENDBRANCH  15  18
ENDBRANCH  10  12
ENDBRANCH   8  10
BRANCH   1  25
HETATM   25  N   UNL     1      26.748  29.292  22.772  1.00  0.00    -0.372 N 
ATOM     26  HN  UNL     1      27.501  29.658  22.189  1.00  0.00     0.161 HD
BRANCH  25  27
HETATM   27  C   UNL     1      27.120  28.463  23.937  1.00  0.00     0.153 C 
BRANCH  27  28
HETATM   28  C   UNL     1      27.119  27.014  23.467  1.00  0.00     0.139 C 
HETATM   29  C   UNL     1      27.743  26.075  24.441  1.00  0.00     0.035 C 
HETATM   30  C   UNL     1      26.775  25.956  25.588  1.00  0.00     0.029 C 
HETATM   31  C   UNL     1      25.459  26.289  24.834  1.00  0.00     0.168 C 
HETATM   32  O   UNL     1      25.839  26.288  23.437  1.00  0.00    -0.384 OA
ENDBRANCH  27  28
ENDBRANCH  25  27
ENDBRANCH   1  25
TORSDOF 6
ENDMDL
MODEL 10
REMARK VINA RESULT:    -7.471      3.878      8.367
REMARK INTER + INTRA:         -10.573
REMARK INTER:                 -10.242
REMARK INTRA:                  -0.332
REMARK UNBOUND:                -0.483
REMARK  6 active torsions:
REMARK  status: ('A' for Active; 'I' for Inactive)
REMARK    1  A    between atoms: C_1  and  N_25 
REMARK    2  A    between atoms: C_8  and  N_27 
REMARK    3  A    between atoms: C_9  and  N_25 
REMARK    4  A    between atoms: C_9  and  C_10 
REMARK    5  A    between atoms: C_14  and  N_27 
REMARK    6  A    between atoms: C_17  and  N_29 
ROOT
HETATM    1  C   UNL     1      21.538  26.828  23.021  1.00  0.00     0.140 A 
HETATM    2  C   UNL     1      20.419  27.644  23.143  1.00  0.00     0.094 A 
HETATM    3  C   UNL     1      20.551  28.991  22.865  1.00  0.00     0.133 A 
HETATM    4  N   UNL     1      21.797  29.468  22.483  1.00  0.00    -0.200 N 
ATOM      5  HN  UNL     1      21.914  30.462  22.287  1.00  0.00     0.183 HD
HETATM    6  N   UNL     1      22.716  27.340  22.635  1.00  0.00    -0.175 N 
ATOM      7  HN  UNL     1      23.524  26.723  22.543  1.00  0.00     0.186 HD
HETATM    8  C   UNL     1      22.853  28.646  22.368  1.00  0.00     0.684 A 
HETATM    9 CL   UNL     1      18.875  27.032  23.621  1.00  0.00    -0.079 Cl
ENDROOT
BRANCH   8  10
HETATM   10  N   UNL     1      23.989  29.237  21.994  1.00  0.00    -0.192 N 
ATOM     11  HN  UNL     1      23.924  29.967  21.286  1.00  0.00     0.184 HD
BRANCH  10  12
HETATM   12  C   UNL     1      25.213  28.952  22.472  1.00  0.00     0.049 A 
HETATM   13  C   UNL     1      25.351  27.664  22.966  1.00  0.00     0.032 A 
HETATM   14  C   UNL     1      26.557  27.218  23.475  1.00  0.00     0.026 A 
HETATM   15  C   UNL     1      27.677  28.035  23.491  1.00  0.00     0.010 A 
HETATM   16  C   UNL     1      27.552  29.337  23.004  1.00  0.00     0.026 A 
HETATM   17  C   UNL     1      26.334  29.785  22.487  1.00  0.00     0.032 A 
BRANCH  15  18
HETATM   18  N   UNL     1      28.807  27.545  24.054  1.00  0.00    -0.280 NA
HETATM   19  C   UNL     1      30.060  27.955  23.387  1.00  0.00     0.126 C 
HETATM   20  C   UNL     1      31.244  27.521  24.212  1.00  0.00     0.286 C 
HETATM   21  N   UNL     1      31.247  26.064  24.335  1.00  0.00     0.086 N 
HETATM   22  C   UNL     1      30.015  25.593  24.988  1.00  0.00     0.286 C 
HETATM   23  C   UNL     1      32.414  25.646  25.130  1.00  0.00     0.310 C 
HETATM   24  C   UNL     1      28.778  26.115  24.339  1.00  0.00     0.126 C 
ENDBRANCH  15  18
ENDBRANCH  10  12
ENDBRANCH   8  10
BRANCH   1  25
HETATM   25  N   UNL     1      21.364  25.531  23.304  1.00  0.00    -0.372 N 
ATOM     26  HN  UNL     1      20.625  25.033  22.807  1.00  0.00     0.161 HD
BRANCH  25  27
HETATM   27  C   UNL     1      22.168  24.771  24.283  1.00  0.00     0.153 C 
BRANCH  27  28
HETATM   28  C   UNL     1      22.054  25.507  25.613  1.00  0.00     0.139 C 
HETATM   29  C   UNL     1      22.370  24.651  26.792  1.00  0.00     0.035 C 
HETATM   30  C   UNL     1      23.860  24.433  26.764  1.00  0.00     0.029 C 
HETATM   31  C   UNL     1      24.282  25.715  25.997  1.00  0.00     0.168 C 
HETATM   32  O   UNL     1      23.075  26.514  25.946  1.00  0.00    -0.384 OA
ENDBRANCH  27  28
ENDBRANCH  25  27
ENDBRANCH   1  25
TORSDOF 6
ENDMDL
MODEL 11
REMARK VINA RESULT:    -7.459      3.877      8.506
REMARK INTER + INTRA:         -10.558
REMARK INTER:                  -9.814
REMARK INTRA:                  -0.744
REMARK UNBOUND:                -0.483
REMARK  6 active torsions:
REMARK  status: ('A' for Active; 'I' for Inactive)
REMARK    1  A    between atoms: C_1  and  N_25 
REMARK    2  A    between atoms: C_8  and  N_27 
REMARK    3  A    between atoms: C_9  and  N_25 
REMARK    4  A    between atoms: C_9  and  C_10 
REMARK    5  A    between atoms: C_14  and  N_27 
REMARK    6  A    between atoms: C_17  and  N_29 
ROOT
HETATM    1  C   UNL     1      24.856  29.732  21.837  1.00  0.00     0.140 A 
HETATM    2  C   UNL     1      25.241  31.068  21.806  1.00  0.00     0.094 A 
HETATM    3  C   UNL     1      26.532  31.391  22.178  1.00  0.00     0.133 A 
HETATM    4  N   UNL     1      27.382  30.367  22.572  1.00  0.00    -0.200 N 
ATOM      5  HN  UNL     1      28.335  30.591  22.862  1.00  0.00     0.183 HD
HETATM    6  N   UNL     1      25.724  28.781  22.213  1.00  0.00    -0.175 N 
ATOM      7  HN  UNL     1      25.425  27.805  22.221  1.00  0.00     0.186 HD
HETATM    8  C   UNL     1      26.976  29.088  22.579  1.00  0.00     0.684 A 
HETATM    9 CL   UNL     1      24.167  32.329  21.314  1.00  0.00    -0.079 Cl
ENDROOT
BRANCH   8  10
HETATM   10  N   UNL     1      27.894  28.207  22.981  1.00  0.00    -0.192 N 
ATOM     11  HN  UNL     1      28.813  28.257  22.540  1.00  0.00     0.184 HD
BRANCH  10  12
HETATM   12  C   UNL     1      27.713  27.259  23.917  1.00  0.00     0.049 A 
HETATM   13  C   UNL     1      28.834  26.484  24.173  1.00  0.00     0.032 A 
HETATM   14  C   UNL     1      28.808  25.480  25.123  1.00  0.00     0.026 A 
HETATM   15  C   UNL     1      27.667  25.225  25.869  1.00  0.00     0.010 A 
HETATM   16  C   UNL     1      26.528  25.992  25.617  1.00  0.00     0.026 A 
HETATM   17  C   UNL     1      26.558  27.008  24.659  1.00  0.00     0.032 A 
BRANCH  15  18
HETATM   18  N   UNL     1      27.703  24.191  26.742  1.00  0.00    -0.280 NA
HETATM   19  C   UNL     1      28.788  24.261  27.743  1.00  0.00     0.126 C 
HETATM   20  C   UNL     1      28.605  23.177  28.773  1.00  0.00     0.286 C 
HETATM   21  N   UNL     1      28.667  21.869  28.123  1.00  0.00     0.086 N 
HETATM   22  C   UNL     1      27.610  21.741  27.107  1.00  0.00     0.286 C 
HETATM   23  C   UNL     1      28.502  20.815  29.137  1.00  0.00     0.310 C 
HETATM   24  C   UNL     1      27.602  22.871  26.132  1.00  0.00     0.126 C 
ENDBRANCH  15  18
ENDBRANCH  10  12
ENDBRANCH   8  10
BRANCH   1  25
HETATM   25  N   UNL     1      23.596  29.465  21.472  1.00  0.00    -0.372 N 
ATOM     26  HN  UNL     1      23.406  29.349  20.476  1.00  0.00     0.161 HD
BRANCH  25  27
HETATM   27  C   UNL     1      22.463  29.328  22.410  1.00  0.00     0.153 C 
BRANCH  27  28
HETATM   28  C   UNL     1      22.329  27.843  22.725  1.00  0.00     0.139 C 
HETATM   29  C   UNL     1      22.795  27.484  24.094  1.00  0.00     0.035 C 
HETATM   30  C   UNL     1      21.760  28.027  25.045  1.00  0.00     0.029 C 
HETATM   31  C   UNL     1      20.529  28.021  24.098  1.00  0.00     0.168 C 
HETATM   32  O   UNL     1      20.981  27.290  22.932  1.00  0.00    -0.384 OA
ENDBRANCH  27  28
ENDBRANCH  25  27
ENDBRANCH   1  25
TORSDOF 6
ENDMDL
MODEL 12
REMARK VINA RESULT:    -7.389      5.262      8.411
REMARK INTER + INTRA:         -10.463
REMARK INTER:                  -9.470
REMARK INTRA:                  -0.992
REMARK UNBOUND:                -0.483
REMARK  6 active torsions:
REMARK  status: ('A' for Active; 'I' for Inactive)
REMARK    1  A    between atoms: C_1  and  N_25 
REMARK    2  A    between atoms: C_8  and  N_27 
REMARK    3  A    between atoms: C_9  and  N_25 
REMARK    4  A    between atoms: C_9  and  C_10 
REMARK    5  A    between atoms: C_14  and  N_27 
REMARK    6  A    between atoms: C_17  and  N_29 
ROOT
HETATM    1  C   UNL     1      25.488  28.698  22.731  1.00  0.00     0.140 A 
HETATM    2  C   UNL     1      26.789  29.150  22.927  1.00  0.00     0.094 A 
HETATM    3  C   UNL     1      27.655  28.367  23.666  1.00  0.00     0.133 A 
HETATM    4  N   UNL     1      27.183  27.169  24.184  1.00  0.00    -0.200 N 
ATOM      5  HN  UNL     1      27.807  26.585  24.743  1.00  0.00     0.183 HD
HETATM    6  N   UNL     1      25.089  27.525  23.244  1.00  0.00    -0.175 N 
ATOM      7  HN  UNL     1      24.134  27.207  23.081  1.00  0.00     0.186 HD
HETATM    8  C   UNL     1      25.923  26.762  23.964  1.00  0.00     0.684 A 
HETATM    9 CL   UNL     1      27.357  30.646  22.275  1.00  0.00    -0.079 Cl
ENDROOT
BRANCH   8  10
HETATM   10  N   UNL     1      25.602  25.593  24.522  1.00  0.00    -0.192 N 
ATOM     11  HN  UNL     1      26.165  24.783  24.262  1.00  0.00     0.184 HD
BRANCH  10  12
HETATM   12  C   UNL     1      24.601  25.390  25.395  1.00  0.00     0.049 A 
HETATM   13  C   UNL     1      24.287  24.056  25.609  1.00  0.00     0.032 A 
HETATM   14  C   UNL     1      23.292  23.689  26.495  1.00  0.00     0.026 A 
HETATM   15  C   UNL     1      22.584  24.639  27.217  1.00  0.00     0.010 A 
HETATM   16  C   UNL     1      22.884  25.986  27.006  1.00  0.00     0.026 A 
HETATM   17  C   UNL     1      23.893  26.355  26.114  1.00  0.00     0.032 A 
BRANCH  15  18
HETATM   18  N   UNL     1      21.588  24.204  28.024  1.00  0.00    -0.280 NA
HETATM   19  C   UNL     1      22.040  23.567  29.279  1.00  0.00     0.126 C 
HETATM   20  C   UNL     1      20.857  23.311  30.177  1.00  0.00     0.286 C 
HETATM   21  N   UNL     1      19.926  22.401  29.513  1.00  0.00     0.086 N 
HETATM   22  C   UNL     1      19.445  22.980  28.248  1.00  0.00     0.286 C 
HETATM   23  C   UNL     1      18.781  22.144  30.402  1.00  0.00     0.310 C 
HETATM   24  C   UNL     1      20.554  23.425  27.354  1.00  0.00     0.126 C 
ENDBRANCH  15  18
ENDBRANCH  10  12
ENDBRANCH   8  10
BRANCH   1  25
HETATM   25  N   UNL     1      24.684  29.491  22.012  1.00  0.00    -0.372 N 
ATOM     26  HN  UNL     1      24.995  30.446  21.833  1.00  0.00     0.161 HD
BRANCH  25  27
HETATM   27  C   UNL     1      23.377  29.079  21.459  1.00  0.00     0.153 C 
BRANCH  27  28
HETATM   28  C   UNL     1      22.310  29.594  22.417  1.00  0.00     0.139 C 
HETATM   29  C   UNL     1      20.919  29.311  21.961  1.00  0.00     0.035 C 
HETATM   30  C   UNL     1      20.712  27.830  22.143  1.00  0.00     0.029 C 
HETATM   31  C   UNL     1      21.732  27.577  23.285  1.00  0.00     0.168 C 
HETATM   32  O   UNL     1      22.133  28.904  23.705  1.00  0.00    -0.384 OA
ENDBRANCH  27  28
ENDBRANCH  25  27
ENDBRANCH   1  25
TORSDOF 6
ENDMDL
MODEL 13
REMARK VINA RESULT:    -7.259      3.499      5.022
REMARK INTER + INTRA:         -10.287
REMARK INTER:                  -9.357
REMARK INTRA:                  -0.930
REMARK UNBOUND:                -0.483
REMARK  6 active torsions:
REMARK  status: ('A' for Active; 'I' for Inactive)
REMARK    1  A    between atoms: C_1  and  N_25 
REMARK    2  A    between atoms: C_8  and  N_27 
REMARK    3  A    between atoms: C_9  and  N_25 
REMARK    4  A    between atoms: C_9  and  C_10 
REMARK    5  A    between atoms: C_14  and  N_27 
REMARK    6  A    between atoms: C_17  and  N_29 
ROOT
HETATM    1  C   UNL     1      32.067  23.652  23.409  1.00  0.00     0.140 A 
HETATM    2  C   UNL     1      31.610  22.425  22.942  1.00  0.00     0.094 A 
HETATM    3  C   UNL     1      30.289  22.084  23.166  1.00  0.00     0.133 A 
HETATM    4  N   UNL     1      29.483  22.981  23.854  1.00  0.00    -0.200 N 
ATOM      5  HN  UNL     1      28.509  22.739  24.039  1.00  0.00     0.183 HD
HETATM    6  N   UNL     1      31.241  24.487  24.056  1.00  0.00    -0.175 N 
ATOM      7  HN  UNL     1      31.593  25.387  24.383  1.00  0.00     0.186 HD
HETATM    8  C   UNL     1      29.961  24.161  24.281  1.00  0.00     0.684 A 
HETATM    9 CL   UNL     1      32.628  21.321  22.089  1.00  0.00    -0.079 Cl
ENDROOT
BRANCH   8  10
HETATM   10  N   UNL     1      29.078  24.925  24.929  1.00  0.00    -0.192 N 
ATOM     11  HN  UNL     1      28.788  24.617  25.857  1.00  0.00     0.184 HD
BRANCH  10  12
HETATM   12  C   UNL     1      28.539  26.065  24.463  1.00  0.00     0.049 A 
HETATM   13  C   UNL     1      27.157  26.122  24.546  1.00  0.00     0.032 A 
HETATM   14  C   UNL     1      26.459  27.239  24.124  1.00  0.00     0.026 A 
HETATM   15  C   UNL     1      27.119  28.350  23.620  1.00  0.00     0.010 A 
HETATM   16  C   UNL     1      28.511  28.305  23.523  1.00  0.00     0.026 A 
HETATM   17  C   UNL     1      29.214  27.177  23.954  1.00  0.00     0.032 A 
BRANCH  15  18
HETATM   18  N   UNL     1      26.365  29.384  23.178  1.00  0.00    -0.280 NA
HETATM   19  C   UNL     1      25.204  28.995  22.350  1.00  0.00     0.126 C 
HETATM   20  C   UNL     1      24.336  30.199  22.089  1.00  0.00     0.286 C 
HETATM   21  N   UNL     1      25.102  31.206  21.357  1.00  0.00     0.086 N 
HETATM   22  C   UNL     1      26.279  31.629  22.131  1.00  0.00     0.286 C 
HETATM   23  C   UNL     1      24.243  32.372  21.093  1.00  0.00     0.310 C 
HETATM   24  C   UNL     1      27.119  30.482  22.586  1.00  0.00     0.126 C 
ENDBRANCH  15  18
ENDBRANCH  10  12
ENDBRANCH   8  10
BRANCH   1  25
HETATM   25  N   UNL     1      33.353  23.938  23.172  1.00  0.00    -0.372 N 
ATOM     26  HN  UNL     1      33.896  23.266  22.630  1.00  0.00     0.161 HD
BRANCH  25  27
HETATM   27  C   UNL     1      34.041  25.160  23.640  1.00  0.00     0.153 C 
BRANCH  27  28
HETATM   28  C   UNL     1      34.517  25.901  22.397  1.00  0.00     0.139 C 
HETATM   29  C   UNL     1      33.449  26.707  21.742  1.00  0.00     0.035 C 
HETATM   30  C   UNL     1      33.200  27.886  22.645  1.00  0.00     0.029 C 
HETATM   31  C   UNL     1      34.592  27.970  23.330  1.00  0.00     0.168 C 
HETATM   32  O   UNL     1      35.417  27.053  22.570  1.00  0.00    -0.384 OA
ENDBRANCH  27  28
ENDBRANCH  25  27
ENDBRANCH   1  25
TORSDOF 6
ENDMDL
MODEL 14
REMARK VINA RESULT:    -7.253      3.014      4.661
REMARK INTER + INTRA:         -10.279
REMARK INTER:                  -9.319
REMARK INTRA:                  -0.960
REMARK UNBOUND:                -0.483
REMARK  6 active torsions:
REMARK  status: ('A' for Active; 'I' for Inactive)
REMARK    1  A    between atoms: C_1  and  N_25 
REMARK    2  A    between atoms: C_8  and  N_27 
REMARK    3  A    between atoms: C_9  and  N_25 
REMARK    4  A    between atoms: C_9  and  C_10 
REMARK    5  A    between atoms: C_14  and  N_27 
REMARK    6  A    between atoms: C_17  and  N_29 
ROOT
HETATM    1  C   UNL     1      31.898  24.449  24.358  1.00  0.00     0.140 A 
HETATM    2  C   UNL     1      31.630  23.422  23.460  1.00  0.00     0.094 A 
HETATM    3  C   UNL     1      30.317  23.025  23.285  1.00  0.00     0.133 A 
HETATM    4  N   UNL     1      29.330  23.666  24.020  1.00  0.00    -0.200 N 
ATOM      5  HN  UNL     1      28.357  23.376  23.912  1.00  0.00     0.183 HD
HETATM    6  N   UNL     1      30.903  25.044  25.032  1.00  0.00    -0.175 N 
ATOM      7  HN  UNL     1      31.120  25.802  25.680  1.00  0.00     0.186 HD
HETATM    8  C   UNL     1      29.629  24.661  24.871  1.00  0.00     0.684 A 
HETATM    9 CL   UNL     1      32.873  22.634  22.556  1.00  0.00    -0.079 Cl
ENDROOT
BRANCH   8  10
HETATM   10  N   UNL     1      28.584  25.188  25.512  1.00  0.00    -0.192 N 
ATOM     11  HN  UNL     1      28.522  25.023  26.516  1.00  0.00     0.184 HD
BRANCH  10  12
HETATM   12  C   UNL     1      27.606  25.918  24.948  1.00  0.00     0.049 A 
HETATM   13  C   UNL     1      26.326  25.578  25.360  1.00  0.00     0.032 A 
HETATM   14  C   UNL     1      25.218  26.252  24.881  1.00  0.00     0.026 A 
HETATM   15  C   UNL     1      25.347  27.305  23.987  1.00  0.00     0.010 A 
HETATM   16  C   UNL     1      26.629  27.653  23.557  1.00  0.00     0.026 A 
HETATM   17  C   UNL     1      27.747  26.973  24.045  1.00  0.00     0.032 A 
BRANCH  15  18
HETATM   18  N   UNL     1      24.213  27.880  23.523  1.00  0.00    -0.280 NA
HETATM   19  C   UNL     1      22.962  27.231  23.966  1.00  0.00     0.126 C 
HETATM   20  C   UNL     1      21.778  28.070  23.559  1.00  0.00     0.286 C 
HETATM   21  N   UNL     1      21.740  28.187  22.102  1.00  0.00     0.086 N 
HETATM   22  C   UNL     1      22.967  28.822  21.598  1.00  0.00     0.286 C 
HETATM   23  C   UNL     1      20.573  28.995  21.710  1.00  0.00     0.310 C 
HETATM   24  C   UNL     1      24.210  28.159  22.092  1.00  0.00     0.126 C 
ENDBRANCH  15  18
ENDBRANCH  10  12
ENDBRANCH   8  10
BRANCH   1  25
HETATM   25  N   UNL     1      33.183  24.798  24.497  1.00  0.00    -0.372 N 
ATOM     26  HN  UNL     1      33.841  24.076  24.794  1.00  0.00     0.161 HD
BRANCH  25  27
HETATM   27  C   UNL     1      33.715  26.154  24.252  1.00  0.00     0.153 C 
BRANCH  27  28
HETATM   28  C   UNL     1      34.327  26.142  22.856  1.00  0.00     0.139 C 
HETATM   29  C   UNL     1      33.407  26.654  21.802  1.00  0.00     0.035 C 
HETATM   30  C   UNL     1      33.314  28.142  22.012  1.00  0.00     0.029 C 
HETATM   31  C   UNL     1      34.686  28.379  22.701  1.00  0.00     0.168 C 
HETATM   32  O   UNL     1      35.384  27.119  22.547  1.00  0.00    -0.384 OA
ENDBRANCH  27  28
ENDBRANCH  25  27
ENDBRANCH   1  25
TORSDOF 6
ENDMDL
MODEL 15
REMARK VINA RESULT:    -7.215      3.269      5.447
REMARK INTER + INTRA:         -10.228
REMARK INTER:                  -9.493
REMARK INTRA:                  -0.735
REMARK UNBOUND:                -0.483
REMARK  6 active torsions:
REMARK  status: ('A' for Active; 'I' for Inactive)
REMARK    1  A    between atoms: C_1  and  N_25 
REMARK    2  A    between atoms: C_8  and  N_27 
REMARK    3  A    between atoms: C_9  and  N_25 
REMARK    4  A    between atoms: C_9  and  C_10 
REMARK    5  A    between atoms: C_14  and  N_27 
REMARK    6  A    between atoms: C_17  and  N_29 
ROOT
HETATM    1  C   UNL     1      27.151  27.159  23.670  1.00  0.00     0.140 A 
HETATM    2  C   UNL     1      28.126  28.137  23.511  1.00  0.00     0.094 A 
HETATM    3  C   UNL     1      27.741  29.382  23.049  1.00  0.00     0.133 A 
HETATM    4  N   UNL     1      26.401  29.595  22.760  1.00  0.00    -0.200 N 
ATOM      5  HN  UNL     1      26.103  30.505  22.406  1.00  0.00     0.183 HD
HETATM    6  N   UNL     1      25.866  27.423  23.389  1.00  0.00    -0.175 N 
ATOM      7  HN  UNL     1      25.165  26.694  23.521  1.00  0.00     0.186 HD
HETATM    8  C   UNL     1      25.487  28.626  22.937  1.00  0.00     0.684 A 
HETATM    9 CL   UNL     1      29.791  27.853  23.874  1.00  0.00    -0.079 Cl
ENDROOT
BRANCH   8  10
HETATM   10  N   UNL     1      24.237  28.966  22.619  1.00  0.00    -0.192 N 
ATOM     11  HN  UNL     1      24.111  29.806  22.054  1.00  0.00     0.184 HD
BRANCH  10  12
HETATM   12  C   UNL     1      23.128  28.297  22.980  1.00  0.00     0.049 A 
HETATM   13  C   UNL     1      22.433  28.866  24.036  1.00  0.00     0.032 A 
HETATM   14  C   UNL     1      21.262  28.302  24.509  1.00  0.00     0.026 A 
HETATM   15  C   UNL     1      20.730  27.159  23.930  1.00  0.00     0.010 A 
HETATM   16  C   UNL     1      21.423  26.571  22.871  1.00  0.00     0.026 A 
HETATM   17  C   UNL     1      22.603  27.144  22.392  1.00  0.00     0.032 A 
BRANCH  15  18
HETATM   18  N   UNL     1      19.610  26.636  24.483  1.00  0.00    -0.280 NA
HETATM   19  C   UNL     1      19.809  25.360  25.200  1.00  0.00     0.126 C 
HETATM   20  C   UNL     1      18.549  24.985  25.936  1.00  0.00     0.286 C 
HETATM   21  N   UNL     1      17.458  24.805  24.979  1.00  0.00     0.086 N 
HETATM   22  C   UNL     1      17.216  26.047  24.227  1.00  0.00     0.286 C 
HETATM   23  C   UNL     1      16.234  24.425  25.704  1.00  0.00     0.310 C 
HETATM   24  C   UNL     1      18.453  26.594  23.596  1.00  0.00     0.126 C 
ENDBRANCH  15  18
ENDBRANCH  10  12
ENDBRANCH   8  10
BRANCH   1  25
HETATM   25  N   UNL     1      27.569  25.968  24.116  1.00  0.00    -0.372 N 
ATOM     26  HN  UNL     1      28.011  25.339  23.446  1.00  0.00     0.161 HD
BRANCH  25  27
HETATM   27  C   UNL     1      27.436  25.501  25.512  1.00  0.00     0.153 C 
BRANCH  27  28
HETATM   28  C   UNL     1      28.755  24.833  25.882  1.00  0.00     0.139 C 
HETATM   29  C   UNL     1      28.860  24.491  27.328  1.00  0.00     0.035 C 
HETATM   30  C   UNL     1      27.930  23.328  27.552  1.00  0.00     0.029 C 
HETATM   31  C   UNL     1      27.934  22.730  26.119  1.00  0.00     0.168 C 
HETATM   32  O   UNL     1      28.989  23.450  25.436  1.00  0.00    -0.384 OA
ENDBRANCH  27  28
ENDBRANCH  25  27
ENDBRANCH   1  25
TORSDOF 6
ENDMDL
MODEL 16
REMARK VINA RESULT:    -7.179      3.359      9.270
REMARK INTER + INTRA:         -10.180
REMARK INTER:                  -9.411
REMARK INTRA:                  -0.769
REMARK UNBOUND:                -0.483
REMARK  6 active torsions:
REMARK  status: ('A' for Active; 'I' for Inactive)
REMARK    1  A    between atoms: C_1  and  N_25 
REMARK    2  A    between atoms: C_8  and  N_27 
REMARK    3  A    between atoms: C_9  and  N_25 
REMARK    4  A    between atoms: C_9  and  C_10 
REMARK    5  A    between atoms: C_14  and  N_27 
REMARK    6  A    between atoms: C_17  and  N_29 
ROOT
HETATM    1  C   UNL     1      26.467  27.531  23.652  1.00  0.00     0.140 A 
HETATM    2  C   UNL     1      27.447  28.506  23.501  1.00  0.00     0.094 A 
HETATM    3  C   UNL     1      28.767  28.154  23.713  1.00  0.00     0.133 A 
HETATM    4  N   UNL     1      29.051  26.844  24.074  1.00  0.00    -0.200 N 
ATOM      5  HN  UNL     1      30.019  26.571  24.247  1.00  0.00     0.183 HD
HETATM    6  N   UNL     1      26.800  26.276  23.989  1.00  0.00    -0.175 N 
ATOM      7  HN  UNL     1      26.067  25.573  24.086  1.00  0.00     0.186 HD
HETATM    8  C   UNL     1      28.076  25.929  24.201  1.00  0.00     0.684 A 
HETATM    9 CL   UNL     1      27.074  30.133  23.053  1.00  0.00    -0.079 Cl
ENDROOT
BRANCH   8  10
HETATM   10  N   UNL     1      28.490  24.710  24.553  1.00  0.00    -0.192 N 
ATOM     11  HN  UNL     1      28.634  24.032  23.805  1.00  0.00     0.184 HD
BRANCH  10  12
HETATM   12  C   UNL     1      28.733  24.299  25.810  1.00  0.00     0.049 A 
HETATM   13  C   UNL     1      30.013  23.806  26.015  1.00  0.00     0.032 A 
HETATM   14  C   UNL     1      30.418  23.363  27.261  1.00  0.00     0.026 A 
HETATM   15  C   UNL     1      29.565  23.413  28.354  1.00  0.00     0.010 A 
HETATM   16  C   UNL     1      28.271  23.899  28.161  1.00  0.00     0.026 A 
HETATM   17  C   UNL     1      27.865  24.350  26.903  1.00  0.00     0.032 A 
BRANCH  15  18
HETATM   18  N   UNL     1      30.016  22.911  29.528  1.00  0.00    -0.280 NA
HETATM   19  C   UNL     1      29.202  21.810  30.085  1.00  0.00     0.126 C 
HETATM   20  C   UNL     1      29.907  21.204  31.272  1.00  0.00     0.286 C 
HETATM   21  N   UNL     1      30.075  22.219  32.311  1.00  0.00     0.086 N 
HETATM   22  C   UNL     1      30.875  23.348  31.811  1.00  0.00     0.286 C 
HETATM   23  C   UNL     1      30.751  21.616  33.472  1.00  0.00     0.310 C 
HETATM   24  C   UNL     1      30.349  23.912  30.534  1.00  0.00     0.126 C 
ENDBRANCH  15  18
ENDBRANCH  10  12
ENDBRANCH   8  10
BRANCH   1  25
HETATM   25  N   UNL     1      25.203  27.919  23.440  1.00  0.00    -0.372 N 
ATOM     26  HN  UNL     1      25.038  28.903  23.231  1.00  0.00     0.161 HD
BRANCH  25  27
HETATM   27  C   UNL     1      24.032  27.019  23.486  1.00  0.00     0.153 C 
BRANCH  27  28
HETATM   28  C   UNL     1      22.859  27.848  23.996  1.00  0.00     0.139 C 
HETATM   29  C   UNL     1      22.650  29.110  23.232  1.00  0.00     0.035 C 
HETATM   30  C   UNL     1      22.093  28.703  21.893  1.00  0.00     0.029 C 
HETATM   31  C   UNL     1      21.428  27.360  22.302  1.00  0.00     0.168 C 
HETATM   32  O   UNL     1      21.494  27.356  23.748  1.00  0.00    -0.384 OA
ENDBRANCH  27  28
ENDBRANCH  25  27
ENDBRANCH   1  25
TORSDOF 6
ENDMDL
MODEL 17
REMARK VINA RESULT:    -7.166      5.028      8.117
REMARK INTER + INTRA:         -10.162
REMARK INTER:                  -9.025
REMARK INTRA:                  -1.137
REMARK UNBOUND:                -0.483
REMARK  6 active torsions:
REMARK  status: ('A' for Active; 'I' for Inactive)
REMARK    1  A    between atoms: C_1  and  N_25 
REMARK    2  A    between atoms: C_8  and  N_27 
REMARK    3  A    between atoms: C_9  and  N_25 
REMARK    4  A    between atoms: C_9  and  C_10 
REMARK    5  A    between atoms: C_14  and  N_27 
REMARK    6  A    between atoms: C_17  and  N_29 
ROOT
HETATM    1  C   UNL     1      25.359  28.954  22.647  1.00  0.00     0.140 A 
HETATM    2  C   UNL     1      26.630  29.507  22.750  1.00  0.00     0.094 A 
HETATM    3  C   UNL     1      27.564  28.871  23.546  1.00  0.00     0.133 A 
HETATM    4  N   UNL     1      27.186  27.713  24.212  1.00  0.00    -0.200 N 
ATOM      5  HN  UNL     1      27.860  27.239  24.813  1.00  0.00     0.183 HD
HETATM    6  N   UNL     1      25.052  27.824  23.302  1.00  0.00    -0.175 N 
ATOM      7  HN  UNL     1      24.116  27.429  23.207  1.00  0.00     0.186 HD
HETATM    8  C   UNL     1      25.951  27.205  24.079  1.00  0.00     0.684 A 
HETATM    9 CL   UNL     1      27.082  30.951  21.915  1.00  0.00    -0.079 Cl
ENDROOT
BRANCH   8  10
HETATM   10  N   UNL     1      25.722  26.089  24.775  1.00  0.00    -0.192 N 
ATOM     11  HN  UNL     1      26.525  25.492  24.974  1.00  0.00     0.184 HD
BRANCH  10  12
HETATM   12  C   UNL     1      24.526  25.686  25.237  1.00  0.00     0.049 A 
HETATM   13  C   UNL     1      23.988  24.601  24.562  1.00  0.00     0.032 A 
HETATM   14  C   UNL     1      22.771  24.059  24.933  1.00  0.00     0.026 A 
HETATM   15  C   UNL     1      22.054  24.570  26.006  1.00  0.00     0.010 A 
HETATM   16  C   UNL     1      22.580  25.667  26.689  1.00  0.00     0.026 A 
HETATM   17  C   UNL     1      23.811  26.210  26.315  1.00  0.00     0.032 A 
BRANCH  15  18
HETATM   18  N   UNL     1      20.846  24.021  26.275  1.00  0.00    -0.280 NA
HETATM   19  C   UNL     1      20.515  22.825  25.472  1.00  0.00     0.126 C 
HETATM   20  C   UNL     1      19.252  22.190  25.996  1.00  0.00     0.286 C 
HETATM   21  N   UNL     1      18.145  23.138  25.880  1.00  0.00     0.086 N 
HETATM   22  C   UNL     1      18.420  24.358  26.656  1.00  0.00     0.286 C 
HETATM   23  C   UNL     1      16.912  22.507  26.380  1.00  0.00     0.310 C 
HETATM   24  C   UNL     1      19.741  24.970  26.327  1.00  0.00     0.126 C 
ENDBRANCH  15  18
ENDBRANCH  10  12
ENDBRANCH   8  10
BRANCH   1  25
HETATM   25  N   UNL     1      24.486  29.605  21.868  1.00  0.00    -0.372 N 
ATOM     26  HN  UNL     1      24.788  29.859  20.928  1.00  0.00     0.161 HD
BRANCH  25  27
HETATM   27  C   UNL     1      23.116  29.981  22.275  1.00  0.00     0.153 C 
BRANCH  27  28
HETATM   28  C   UNL     1      22.165  29.050  21.534  1.00  0.00     0.139 C 
HETATM   29  C   UNL     1      22.121  27.673  22.102  1.00  0.00     0.035 C 
HETATM   30  C   UNL     1      21.381  27.782  23.410  1.00  0.00     0.029 C 
HETATM   31  C   UNL     1      20.523  29.040  23.102  1.00  0.00     0.168 C 
HETATM   32  O   UNL     1      20.716  29.264  21.685  1.00  0.00    -0.384 OA
ENDBRANCH  27  28
ENDBRANCH  25  27
ENDBRANCH   1  25
TORSDOF 6
ENDMDL
MODEL 18
REMARK VINA RESULT:    -7.053      6.251     10.065
REMARK INTER + INTRA:         -10.009
REMARK INTER:                  -8.766
REMARK INTRA:                  -1.243
REMARK UNBOUND:                -0.483
REMARK  6 active torsions:
REMARK  status: ('A' for Active; 'I' for Inactive)
REMARK    1  A    between atoms: C_1  and  N_25 
REMARK    2  A    between atoms: C_8  and  N_27 
REMARK    3  A    between atoms: C_9  and  N_25 
REMARK    4  A    between atoms: C_9  and  C_10 
REMARK    5  A    between atoms: C_14  and  N_27 
REMARK    6  A    between atoms: C_17  and  N_29 
ROOT
HETATM    1  C   UNL     1      17.711  23.840  25.022  1.00  0.00     0.140 A 
HETATM    2  C   UNL     1      16.723  23.503  24.103  1.00  0.00     0.094 A 
HETATM    3  C   UNL     1      16.221  24.495  23.282  1.00  0.00     0.133 A 
HETATM    4  N   UNL     1      16.722  25.782  23.417  1.00  0.00    -0.200 N 
ATOM      5  HN  UNL     1      16.352  26.528  22.827  1.00  0.00     0.183 HD
HETATM    6  N   UNL     1      18.169  25.098  25.101  1.00  0.00    -0.175 N 
ATOM      7  HN  UNL     1      18.901  25.323  25.776  1.00  0.00     0.186 HD
HETATM    8  C   UNL     1      17.684  26.065  24.311  1.00  0.00     0.684 A 
HETATM    9 CL   UNL     1      16.110  21.895  23.950  1.00  0.00    -0.079 Cl
ENDROOT
BRANCH   8  10
HETATM   10  N   UNL     1      18.072  27.341  24.336  1.00  0.00    -0.192 N 
ATOM     11  HN  UNL     1      17.345  28.047  24.450  1.00  0.00     0.184 HD
BRANCH  10  12
HETATM   12  C   UNL     1      19.339  27.777  24.224  1.00  0.00     0.049 A 
HETATM   13  C   UNL     1      19.908  27.572  22.976  1.00  0.00     0.032 A 
HETATM   14  C   UNL     1      21.199  27.983  22.702  1.00  0.00     0.026 A 
HETATM   15  C   UNL     1      21.965  28.633  23.659  1.00  0.00     0.010 A 
HETATM   16  C   UNL     1      21.408  28.839  24.922  1.00  0.00     0.026 A 
HETATM   17  C   UNL     1      20.102  28.427  25.196  1.00  0.00     0.032 A 
BRANCH  15  18
HETATM   18  N   UNL     1      23.239  28.956  23.333  1.00  0.00    -0.280 NA
HETATM   19  C   UNL     1      23.395  29.610  22.017  1.00  0.00     0.126 C 
HETATM   20  C   UNL     1      24.811  30.102  21.855  1.00  0.00     0.286 C 
HETATM   21  N   UNL     1      25.732  28.968  21.914  1.00  0.00     0.086 N 
HETATM   22  C   UNL     1      25.617  28.270  23.205  1.00  0.00     0.286 C 
HETATM   23  C   UNL     1      27.111  29.454  21.741  1.00  0.00     0.310 C 
HETATM   24  C   UNL     1      24.212  27.890  23.536  1.00  0.00     0.126 C 
ENDBRANCH  15  18
ENDBRANCH  10  12
ENDBRANCH   8  10
BRANCH   1  25
HETATM   25  N   UNL     1      18.165  22.848  25.799  1.00  0.00    -0.372 N 
ATOM     26  HN  UNL     1      17.477  22.234  26.235  1.00  0.00     0.161 HD
BRANCH  25  27
HETATM   27  C   UNL     1      19.593  22.581  26.068  1.00  0.00     0.153 C 
BRANCH  27  28
HETATM   28  C   UNL     1      19.905  23.183  27.433  1.00  0.00     0.139 C 
HETATM   29  C   UNL     1      21.255  22.816  27.947  1.00  0.00     0.035 C 
HETATM   30  C   UNL     1      22.245  23.585  27.113  1.00  0.00     0.029 C 
HETATM   31  C   UNL     1      21.343  24.780  26.700  1.00  0.00     0.168 C 
HETATM   32  O   UNL     1      20.158  24.631  27.519  1.00  0.00    -0.384 OA
ENDBRANCH  27  28
ENDBRANCH  25  27
ENDBRANCH   1  25
TORSDOF 6
ENDMDL
MODEL 19
REMARK VINA RESULT:    -6.999      5.065      9.432
REMARK INTER + INTRA:          -9.936
REMARK INTER:                  -9.058
REMARK INTRA:                  -0.878
REMARK UNBOUND:                -0.483
REMARK  6 active torsions:
REMARK  status: ('A' for Active; 'I' for Inactive)
REMARK    1  A    between atoms: C_1  and  N_25 
REMARK    2  A    between atoms: C_8  and  N_27 
REMARK    3  A    between atoms: C_9  and  N_25 
REMARK    4  A    between atoms: C_9  and  C_10 
REMARK    5  A    between atoms: C_14  and  N_27 
REMARK    6  A    between atoms: C_17  and  N_29 
ROOT
HETATM    1  C   UNL     1      22.073  28.729  22.811  1.00  0.00     0.140 A 
HETATM    2  C   UNL     1      20.766  28.444  22.432  1.00  0.00     0.094 A 
HETATM    3  C   UNL     1      19.968  27.725  23.303  1.00  0.00     0.133 A 
HETATM    4  N   UNL     1      20.513  27.316  24.513  1.00  0.00    -0.200 N 
ATOM      5  HN  UNL     1      19.941  26.773  25.161  1.00  0.00     0.183 HD
HETATM    6  N   UNL     1      22.543  28.321  23.999  1.00  0.00    -0.175 N 
ATOM      7  HN  UNL     1      23.502  28.549  24.263  1.00  0.00     0.186 HD
HETATM    8  C   UNL     1      21.777  27.620  24.846  1.00  0.00     0.684 A 
HETATM    9 CL   UNL     1      20.106  28.960  20.921  1.00  0.00    -0.079 Cl
ENDROOT
BRANCH   8  10
HETATM   10  N   UNL     1      22.171  27.164  26.037  1.00  0.00    -0.192 N 
ATOM     11  HN  UNL     1      21.898  27.705  26.857  1.00  0.00     0.184 HD
BRANCH  10  12
HETATM   12  C   UNL     1      22.896  26.052  26.248  1.00  0.00     0.049 A 
HETATM   13  C   UNL     1      24.187  26.105  25.746  1.00  0.00     0.032 A 
HETATM   14  C   UNL     1      25.060  25.044  25.901  1.00  0.00     0.026 A 
HETATM   15  C   UNL     1      24.682  23.896  26.583  1.00  0.00     0.010 A 
HETATM   16  C   UNL     1      23.383  23.826  27.088  1.00  0.00     0.026 A 
HETATM   17  C   UNL     1      22.504  24.900  26.933  1.00  0.00     0.032 A 
BRANCH  15  18
HETATM   18  N   UNL     1      25.574  22.880  26.647  1.00  0.00    -0.280 NA
HETATM   19  C   UNL     1      26.991  23.298  26.662  1.00  0.00     0.126 C 
HETATM   20  C   UNL     1      27.873  22.107  26.938  1.00  0.00     0.286 C 
HETATM   21  N   UNL     1      27.701  21.115  25.878  1.00  0.00     0.086 N 
HETATM   22  C   UNL     1      26.302  20.663  25.810  1.00  0.00     0.286 C 
HETATM   23  C   UNL     1      28.575  19.961  26.147  1.00  0.00     0.310 C 
HETATM   24  C   UNL     1      25.331  21.793  25.707  1.00  0.00     0.126 C 
ENDBRANCH  15  18
ENDBRANCH  10  12
ENDBRANCH   8  10
BRANCH   1  25
HETATM   25  N   UNL     1      22.809  29.424  21.936  1.00  0.00    -0.372 N 
ATOM     26  HN  UNL     1      22.489  29.457  20.968  1.00  0.00     0.161 HD
BRANCH  25  27
HETATM   27  C   UNL     1      24.052  30.148  22.274  1.00  0.00     0.153 C 
BRANCH  27  28
HETATM   28  C   UNL     1      25.182  29.464  21.514  1.00  0.00     0.139 C 
HETATM   29  C   UNL     1      26.531  29.995  21.856  1.00  0.00     0.035 C 
HETATM   30  C   UNL     1      26.839  29.498  23.244  1.00  0.00     0.029 C 
HETATM   31  C   UNL     1      25.956  28.220  23.248  1.00  0.00     0.168 C 
HETATM   32  O   UNL     1      25.528  28.079  21.872  1.00  0.00    -0.384 OA
ENDBRANCH  27  28
ENDBRANCH  25  27
ENDBRANCH   1  25
TORSDOF 6
ENDMDL
MODEL 20
REMARK VINA RESULT:    -6.976      3.933      8.888
REMARK INTER + INTRA:          -9.906
REMARK INTER:                  -9.379
REMARK INTRA:                  -0.527
REMARK UNBOUND:                -0.483
REMARK  6 active torsions:
REMARK  status: ('A' for Active; 'I' for Inactive)
REMARK    1  A    between atoms: C_1  and  N_25 
REMARK    2  A    between atoms: C_8  and  N_27 
REMARK    3  A    between atoms: C_9  and  N_25 
REMARK    4  A    between atoms: C_9  and  C_10 
REMARK    5  A    between atoms: C_14  and  N_27 
REMARK    6  A    between atoms: C_17  and  N_29 
ROOT
HETATM    1  C   UNL     1      25.091  28.747  22.654  1.00  0.00     0.140 A 
HETATM    2  C   UNL     1      25.078  29.904  21.883  1.00  0.00     0.094 A 
HETATM    3  C   UNL     1      26.226  30.671  21.824  1.00  0.00     0.133 A 
HETATM    4  N   UNL     1      27.337  30.253  22.544  1.00  0.00    -0.200 N 
ATOM      5  HN  UNL     1      28.188  30.815  22.522  1.00  0.00     0.183 HD
HETATM    6  N   UNL     1      26.197  28.383  23.319  1.00  0.00    -0.175 N 
ATOM      7  HN  UNL     1      26.190  27.526  23.873  1.00  0.00     0.186 HD
HETATM    8  C   UNL     1      27.313  29.124  23.270  1.00  0.00     0.684 A 
HETATM    9 CL   UNL     1      23.684  30.409  20.995  1.00  0.00    -0.079 Cl
ENDROOT
BRANCH   8  10
HETATM   10  N   UNL     1      28.448  28.842  23.912  1.00  0.00    -0.192 N 
ATOM     11  HN  UNL     1      28.959  29.625  24.321  1.00  0.00     0.184 HD
BRANCH  10  12
HETATM   12  C   UNL     1      28.977  27.616  24.067  1.00  0.00     0.049 A 
HETATM   13  C   UNL     1      30.362  27.592  24.124  1.00  0.00     0.032 A 
HETATM   14  C   UNL     1      31.050  26.405  24.299  1.00  0.00     0.026 A 
HETATM   15  C   UNL     1      30.380  25.199  24.443  1.00  0.00     0.010 A 
HETATM   16  C   UNL     1      28.985  25.208  24.379  1.00  0.00     0.026 A 
HETATM   17  C   UNL     1      28.292  26.407  24.207  1.00  0.00     0.032 A 
BRANCH  15  18
HETATM   18  N   UNL     1      31.124  24.074  24.556  1.00  0.00    -0.280 NA
HETATM   19  C   UNL     1      32.527  24.211  24.111  1.00  0.00     0.126 C 
HETATM   20  C   UNL     1      33.301  22.969  24.471  1.00  0.00     0.286 C 
HETATM   21  N   UNL     1      32.716  21.814  23.791  1.00  0.00     0.086 N 
HETATM   22  C   UNL     1      31.312  21.630  24.190  1.00  0.00     0.286 C 
HETATM   23  C   UNL     1      33.486  20.607  24.136  1.00  0.00     0.310 C 
HETATM   24  C   UNL     1      30.495  22.869  24.030  1.00  0.00     0.126 C 
ENDBRANCH  15  18
ENDBRANCH  10  12
ENDBRANCH   8  10
BRANCH   1  25
HETATM   25  N   UNL     1      23.956  28.037  22.684  1.00  0.00    -0.372 N 
ATOM     26  HN  UNL     1      23.601  27.674  21.800  1.00  0.00     0.161 HD
BRANCH  25  27
HETATM   27  C   UNL     1      23.183  27.744  23.909  1.00  0.00     0.153 C 
BRANCH  27  28
HETATM   28  C   UNL     1      22.166  28.868  24.068  1.00  0.00     0.139 C 
HETATM   29  C   UNL     1      21.103  28.857  23.024  1.00  0.00     0.035 C 
HETATM   30  C   UNL     1      20.215  27.683  23.341  1.00  0.00     0.029 C 
HETATM   31  C   UNL     1      20.472  27.586  24.869  1.00  0.00     0.168 C 
HETATM   32  O   UNL     1      21.208  28.793  25.184  1.00  0.00    -0.384 OA
ENDBRANCH  27  28
ENDBRANCH  25  27
ENDBRANCH   1  25
TORSDOF 6
ENDMDL
