REMARK  11 active torsions:
REMARK  status: ('A' for Active; 'I' for Inactive)
REMARK    1  A    between atoms: C_1  and  C_12 
REMARK    2  A    between atoms: C_2  and  O_19 
REMARK    3  A    between atoms: C_3  and  C_16 
REMARK    4  A    between atoms: C_5  and  C_6 
REMARK    5  A    between atoms: C_6  and  C_7 
REMARK    6  A    between atoms: C_7  and  C_8 
REMARK    7  A    between atoms: C_8  and  C_9 
REMARK    8  A    between atoms: C_9  and  C_10 
REMARK    9  A    between atoms: C_10  and  C_11 
REMARK   10  A    between atoms: C_11  and  C_12 
REMARK   11  A    between atoms: C_14  and  O_17 
ROOT
HETATM    1  C   UNL     1       7.964   6.368  13.015  1.00  0.00    -0.036 A 
HETATM    2  C   UNL     1       8.322   4.710  11.338  1.00  0.00     0.085 A 
HETATM    3  C   UNL     1       8.648   5.243  12.571  1.00  0.00     0.080 A 
HETATM    4  C   UNL     1       7.000   6.942  12.216  1.00  0.00     0.044 A 
HETATM    5  C   UNL     1       6.697   6.393  10.991  1.00  0.00     0.068 A 
HETATM    6  C   UNL     1       7.354   5.276  10.545  1.00  0.00     0.074 A 
ENDROOT
BRANCH   1   7
HETATM    7  C   UNL     1       8.270   7.034  14.350  1.00  0.00     0.040 C 
BRANCH   7   8
HETATM    8  C   UNL     1       9.446   7.999  14.166  1.00  0.00     0.005 C 
BRANCH   8   9
HETATM    9  C   UNL     1      10.080   8.439  15.488  1.00  0.00     0.000 C 
BRANCH   9  10
HETATM   10  C   UNL     1      11.236   9.423  15.304  1.00  0.00     0.000 C 
BRANCH  10  11
HETATM   11  C   UNL     1      11.989   9.710  16.613  1.00  0.00     0.000 C 
BRANCH  11  12
HETATM   12  C   UNL     1      13.135  10.701  16.415  1.00  0.00     0.000 C 
BRANCH  12  13
HETATM   13  C   UNL     1      13.923  10.986  17.692  1.00  0.00    -0.000 C 
BRANCH  13  14
HETATM   14  C   UNL     1      15.054  11.949  17.341  1.00  0.00    -0.005 C 
HETATM   15  C   UNL     1      16.172  11.976  18.377  1.00  0.00     0.005 C 
ENDBRANCH  13  14
ENDBRANCH  12  13
ENDBRANCH  11  12
ENDBRANCH  10  11
ENDBRANCH   9  10
ENDBRANCH   8   9
ENDBRANCH   7   8
ENDBRANCH   1   7
BRANCH   3  16
HETATM   16  C   UNL     1       9.725   4.533  13.385  1.00  0.00     0.212 C 
HETATM   17  O   UNL     1      10.539   3.764  12.810  1.00  0.00    -0.644 OA
HETATM   18  O   UNL     1       9.765   4.665  14.634  1.00  0.00    -0.644 OA
ENDBRANCH   3  16
BRANCH   2  19
HETATM   19  O   UNL     1       8.973   3.586  10.855  1.00  0.00    -0.359 OA
ATOM     20  HO  UNL     1       8.749   3.220  10.008  1.00  0.00     0.217 HD
ENDBRANCH   2  19
BRANCH   5  21
HETATM   21  O   UNL     1       5.712   6.977  10.204  1.00  0.00    -0.361 OA
ATOM     22  HO  UNL     1       5.257   7.751  10.513  1.00  0.00     0.217 HD
ENDBRANCH   5  21
TORSDOF 11
