REMARK  10 active torsions:
REMARK  status: ('A' for Active; 'I' for Inactive)
REMARK    1  A    between atoms: P_1  and  C_5 
REMARK    2  A    between atoms: C_5  and  P_6 
REMARK    3  A    between atoms: P_6  and  O_9 
REMARK    4  A    between atoms: O_9  and  P_10 
REMARK    5  A    between atoms: P_10  and  O_13 
REMARK    6  A    between atoms: O_13  and  C_14 
REMARK    7  A    between atoms: C_14  and  C_15 
REMARK    8  A    between atoms: C_17  and  O_18 
REMARK    9  A    between atoms: C_20  and  O_21 
REMARK   10  A    between atoms: C_23  and  N_24 
ROOT
HETATM    1  C   UNL     1       5.802 -11.120  23.739  1.00  0.00     0.180 C 
HETATM    2  O   UNL     1       6.031 -11.447  22.461  1.00  0.00    -0.353 OA
HETATM    3  C   UNL     1       6.779  -9.988  24.078  1.00  0.00     0.182 C 
HETATM    4  C   UNL     1       7.937 -10.271  23.131  1.00  0.00     0.198 C 
HETATM    5  C   UNL     1       7.478 -10.823  22.042  1.00  0.00     0.262 C 
ENDROOT
BRANCH   1   6
HETATM    6  C   UNL     1       4.348 -10.666  23.994  1.00  0.00     0.216 C 
BRANCH   6   7
HETATM    7  O   UNL     1       4.180  -9.448  23.306  1.00  0.00    -0.287 OA
BRANCH   7   8
HETATM    8  P   UNL     1       2.721  -9.161  22.630  1.00  0.00     0.416 P 
HETATM    9  O   UNL     1       2.631  -7.713  22.191  1.00  0.00    -0.624 OA
HETATM   10  O   UNL     1       2.426 -10.203  21.567  1.00  0.00    -0.624 OA
BRANCH   8  11
HETATM   11  O   UNL     1       1.803  -9.389  23.911  1.00  0.00    -0.203 OA
BRANCH  11  12
HETATM   12  P   UNL     1       0.214  -9.184  24.121  1.00  0.00     0.272 P 
HETATM   13  O   UNL     1      -0.452  -8.821  22.842  1.00  0.00    -0.646 OA
HETATM   14  O   UNL     1      -0.235 -10.398  24.869  1.00  0.00    -0.646 OA
BRANCH  12  15
HETATM   15  C   UNL     1       0.294  -7.690  25.169  1.00  0.00     0.281 C 
BRANCH  15  16
HETATM   16  P   UNL     1      -1.087  -7.410  26.351  1.00  0.00     0.271 P 
HETATM   17  O   UNL     1      -0.842  -8.281  27.547  1.00  0.00    -0.639 OA
HETATM   18  O   UNL     1      -2.380  -7.593  25.647  1.00  0.00    -0.639 OA
HETATM   19  O   UNL     1      -1.024  -6.001  26.887  1.00  0.00    -0.639 OA
ENDBRANCH  15  16
ENDBRANCH  12  15
ENDBRANCH  11  12
ENDBRANCH   8  11
ENDBRANCH   7   8
ENDBRANCH   6   7
ENDBRANCH   1   6
BRANCH   3  20
HETATM   20  O   UNL     1       7.134 -10.072  25.393  1.00  0.00    -0.390 OA
ATOM     21  HO  UNL     1       7.739  -9.371  25.603  1.00  0.00     0.210 HD
ENDBRANCH   3  20
BRANCH   5  22
HETATM   22  N   UNL     1       7.115 -10.093  20.836  1.00  0.00    -0.297 N 
HETATM   23  C   UNL     1       6.189  -9.134  20.682  1.00  0.00     0.188 A 
HETATM   24  N   UNL     1       6.165  -8.759  19.379  1.00  0.00    -0.345 N 
HETATM   25  C   UNL     1       7.048  -9.552  18.707  1.00  0.00     0.146 A 
ATOM     26  HN  UNL     1       5.591  -8.019  18.975  1.00  0.00     0.167 HD
HETATM   27  C   UNL     1       7.434  -9.641  17.385  1.00  0.00     0.278 A 
HETATM   28  C   UNL     1       7.618 -10.359  19.626  1.00  0.00     0.146 A 
HETATM   29  N   UNL     1       8.346 -10.537  17.069  1.00  0.00    -0.295 N 
HETATM   30  O   UNL     1       6.972  -8.996  16.469  1.00  0.00    -0.265 OA
HETATM   31  C   UNL     1       8.905 -11.339  18.011  1.00  0.00     0.196 A 
ATOM     32  HN  UNL     1       8.638 -10.630  16.096  1.00  0.00     0.171 HD
HETATM   33  N   UNL     1       8.565 -11.281  19.307  1.00  0.00    -0.314 N 
HETATM   34  N   UNL     1       9.883 -12.262  17.526  1.00  0.00    -0.063 NA
ATOM     35  HN  UNL     1       8.989 -11.889  20.008  1.00  0.00     0.170 HD
ENDBRANCH   5  22
BRANCH   4  36
HETATM   36  O   UNL     1       8.798 -11.340  23.754  1.00  0.00    -0.388 OA
ATOM     37  HO  UNL     1       9.132 -10.938  24.547  1.00  0.00     0.210 HD
ENDBRANCH   4  36
TORSDOF 10
