REMARK  15 active torsions:
REMARK  status: ('A' for Active; 'I' for Inactive)
REMARK    1  A    between atoms: P_1  and  O_3 
REMARK    2  A    between atoms: P_1  and  O_4 
REMARK    3  A    between atoms: P_1  and  C_5 
REMARK    4  A    between atoms: C_5  and  P_6 
REMARK    5  A    between atoms: P_6  and  O_8 
REMARK    6  A    between atoms: P_6  and  O_9 
REMARK    7  A    between atoms: O_9  and  P_10 
REMARK    8  A    between atoms: P_10  and  O_12 
REMARK    9  A    between atoms: P_10  and  O_13 
REMARK   10  A    between atoms: O_13  and  C_14 
REMARK   11  A    between atoms: C_14  and  C_15 
REMARK   12  A    between atoms: C_17  and  O_18 
REMARK   13  A    between atoms: C_19  and  O_20 
REMARK   14  A    between atoms: C_21  and  N_22 
REMARK   15  A    between atoms: C_30  and  N_31 
ROOT
HETATM    1  C   UNL     1       1.940  -0.625  -1.609  1.00  0.00     0.180 C 
HETATM    2  O   UNL     1       2.966   0.295  -1.279  1.00  0.00    -0.353 OA
HETATM    3  C   UNL     1       1.783  -1.645  -0.466  1.00  0.00     0.182 C 
HETATM    4  C   UNL     1       2.460  -0.949   0.691  1.00  0.00     0.198 C 
HETATM    5  C   UNL     1       3.475  -0.049  -0.007  1.00  0.00     0.262 C 
ENDROOT
BRANCH   1   6
HETATM    6  C   UNL     1       0.642   0.151  -1.870  1.00  0.00     0.215 C 
BRANCH   6   7
HETATM    7  O   UNL     1      -0.355  -0.736  -2.319  1.00  0.00    -0.294 OA
BRANCH   7   8
HETATM    8  P   UNL     1      -1.730   0.170  -2.770  1.00  0.00     0.400 P 
HETATM    9  O   UNL     1      -1.566   0.600  -4.210  1.00  0.00    -0.631 OA
BRANCH   8  10
HETATM   10  O   UNL     1      -3.119  -0.809  -2.657  1.00  0.00    -0.218 OA
BRANCH  10  11
HETATM   11  P   UNL     1      -3.373  -1.211  -1.017  1.00  0.00     0.258 P 
HETATM   12  O   UNL     1      -2.072  -1.428  -0.276  1.00  0.00    -0.653 OA
BRANCH  11  13
HETATM   13  C   UNL     1      -4.344   0.090  -0.189  1.00  0.00     0.250 C 
BRANCH  13  14
HETATM   14  P   UNL     1      -4.752  -0.398   1.516  1.00  0.00     0.247 P 
HETATM   15  O   UNL     1      -3.481  -0.654   2.294  1.00  0.00    -0.653 OA
BRANCH  14  16
HETATM   16  O   UNL     1      -5.621   0.850   2.257  1.00  0.00    -0.329 OA
HETATM   17  H   UNL     1      -4.988   1.611   2.296  1.00  0.00     0.220 HD
ENDBRANCH  14  16
BRANCH  14  18
HETATM   18  O   UNL     1      -5.699  -1.801   1.498  1.00  0.00    -0.329 OA
HETATM   19  H   UNL     1      -5.916  -1.970   2.449  1.00  0.00     0.220 HD
ENDBRANCH  14  18
ENDBRANCH  13  14
ENDBRANCH  11  13
BRANCH  11  20
HETATM   20  O   UNL     1      -4.258  -2.652  -0.971  1.00  0.00    -0.328 OA
HETATM   21  H   UNL     1      -5.073  -2.465  -1.501  1.00  0.00     0.220 HD
ENDBRANCH  11  20
ENDBRANCH  10  11
ENDBRANCH   8  10
BRANCH   8  22
HETATM   22  O   UNL     1      -1.904   1.554  -1.808  1.00  0.00    -0.307 OA
HETATM   23  H   UNL     1      -2.674   2.038  -2.199  1.00  0.00     0.222 HD
ENDBRANCH   8  22
ENDBRANCH   7   8
ENDBRANCH   6   7
ENDBRANCH   1   6
BRANCH   3  24
HETATM   24  O   UNL     1       2.394  -2.874  -0.786  1.00  0.00    -0.390 OA
HETATM   25  H   UNL     1       3.324  -2.693  -1.087  1.00  0.00     0.210 HD
ENDBRANCH   3  24
BRANCH   5  26
HETATM   26  N   UNL     1       3.729   1.156   0.786  1.00  0.00    -0.297 N 
HETATM   27  C   UNL     1       4.658   1.308   1.765  1.00  0.00     0.188 A 
HETATM   28  N   UNL     1       4.577   2.508   2.405  1.00  0.00    -0.345 N 
HETATM   29  C   UNL     1       3.540   3.104   1.786  1.00  0.00     0.147 A 
ATOM     30  HN  UNL     1       5.157   2.866   3.164  1.00  0.00     0.167 HD
HETATM   31  C   UNL     1       2.967   4.344   2.026  1.00  0.00     0.290 A 
HETATM   32  C   UNL     1       3.030   2.299   0.830  1.00  0.00     0.159 A 
HETATM   33  O   UNL     1       3.419   5.111   2.919  1.00  0.00    -0.265 OA
HETATM   34  N   UNL     1       1.887   4.708   1.268  1.00  0.00    -0.154 N 
HETATM   35  C   UNL     1       1.379   3.867   0.304  1.00  0.00     0.680 A 
HETATM   36  H   UNL     1       1.439   5.638   1.429  1.00  0.00     0.187 HD
HETATM   37  N   UNL     1       1.954   2.645   0.083  1.00  0.00    -0.174 N 
ATOM     38  HN  UNL     1       1.582   2.012  -0.625  1.00  0.00     0.186 HD
BRANCH  35  39
HETATM   39  N   UNL     1       0.248   4.263  -0.472  1.00  0.00    -0.234 N 
HETATM   40  H   UNL     1      -0.203   5.192  -0.323  1.00  0.00     0.174 HD
HETATM   41  H   UNL     1      -0.137   3.625  -1.204  1.00  0.00     0.174 HD
ENDBRANCH  35  39
ENDBRANCH   5  26
BRANCH   4  42
HETATM   42  O   UNL     1       3.033  -1.835   1.625  1.00  0.00    -0.388 OA
HETATM   43  H   UNL     1       3.824  -2.268   1.212  1.00  0.00     0.210 HD
ENDBRANCH   4  42
TORSDOF 15
