REMARK  8 active torsions:
REMARK  status: ('A' for Active; 'I' for Inactive)
REMARK    1  A    between atoms: C_1  and  N_2 
REMARK    2  A    between atoms: C_1  and  C_6 
REMARK    3  A    between atoms: C_6  and  C_10 
REMARK    4  A    between atoms: N_7  and  C_10 
REMARK    5  A    between atoms: N_7  and  C_15 
REMARK    6  A    between atoms: N_11  and  C_17 
REMARK    7  A    between atoms: C_15  and  C_16 
REMARK    8  A    between atoms: C_16  and  C_17 
ROOT
HETATM    1  N   UNL     1      -2.002   6.249  32.560  1.00  0.00    -0.075 N 
ATOM      2  HN1 UNL     1      -1.965   5.231  32.616  1.00  0.00     0.277 HD
ATOM      3  HN2 UNL     1      -1.378   6.401  31.768  1.00  0.00     0.277 HD
ENDROOT
BRANCH   1   4
HETATM    4  C   UNL     1      -1.446   6.852  33.777  1.00  0.00     0.233 C 
BRANCH   4   5
HETATM    5  C   UNL     1      -0.014   6.405  33.983  1.00  0.00     0.055 C 
BRANCH   5   6
HETATM    6  C   UNL     1       0.583   6.809  35.320  1.00  0.00     0.231 C 
BRANCH   6   7
HETATM    7  N   UNL     1       2.038   6.504  35.329  1.00  0.00    -0.079 N 
ATOM      8  HN3 UNL     1       2.228   5.528  35.102  1.00  0.00     0.274 HD
ATOM      9  HN2 UNL     1       2.526   6.935  34.544  1.00  0.00     0.274 HD
ATOM     10  HN1 UNL     1       2.439   6.775  36.227  1.00  0.00     0.274 HD
ENDBRANCH   6   7
ENDBRANCH   5   6
ENDBRANCH   4   5
ENDBRANCH   1   4
BRANCH   1  11
HETATM   11  C   UNL     1      -3.358   6.696  32.238  1.00  0.00     0.233 C 
BRANCH  11  12
HETATM   12  C   UNL     1      -3.372   8.039  31.544  1.00  0.00     0.055 C 
BRANCH  12  13
HETATM   13  C   UNL     1      -4.771   8.363  31.046  1.00  0.00     0.231 C 
BRANCH  13  14
HETATM   14  N   UNL     1      -4.818   9.679  30.409  1.00  0.00    -0.079 N 
ATOM     15  HN3 UNL     1      -4.463  10.407  31.029  1.00  0.00     0.274 HD
ATOM     16  HN2 UNL     1      -4.127   9.758  29.662  1.00  0.00     0.274 HD
ATOM     17  HN1 UNL     1      -5.757   9.896  30.075  1.00  0.00     0.274 HD
ENDBRANCH  13  14
ENDBRANCH  12  13
ENDBRANCH  11  12
ENDBRANCH   1  11
TORSDOF 8
