MODEL 1
REMARK VINA RESULT:    -6.714      0.000      0.000
REMARK INTER + INTRA:          -6.714
REMARK INTER:                  -6.714
REMARK INTRA:                   0.000
REMARK UNBOUND:                 0.000
REMARK  0 active torsions:
REMARK  status: ('A' for Active; 'I' for Inactive)
ROOT
HETATM    1  C   UNL     1     -40.280  24.383  -6.875  1.00  0.00     0.048 C 
HETATM    2  C   UNL     1     -40.791  24.531  -8.272  1.00  0.00    -0.062 A 
HETATM    3  C   UNL     1     -39.995  25.025  -9.341  1.00  0.00     0.008 A 
HETATM    4  C   UNL     1     -40.437  25.180 -10.638  1.00  0.00     0.024 A 
HETATM    5  C   UNL     1     -41.737  24.893 -10.844  1.00  0.00     0.034 A 
HETATM    6 CL   UNL     1     -42.298  25.069 -12.499  1.00  0.00    -0.084 Cl
HETATM    7  C   UNL     1     -42.611  24.451  -9.871  1.00  0.00     0.024 A 
HETATM    8  C   UNL     1     -42.101  24.281  -8.573  1.00  0.00     0.008 A 
ENDROOT
TORSDOF 0
ENDMDL
MODEL 2
REMARK VINA RESULT:    -6.711      0.153      1.692
REMARK INTER + INTRA:          -6.711
REMARK INTER:                  -6.711
REMARK INTRA:                   0.000
REMARK UNBOUND:                 0.000
REMARK  0 active torsions:
REMARK  status: ('A' for Active; 'I' for Inactive)
ROOT
HETATM    1  C   UNL     1     -40.302  24.293  -6.777  1.00  0.00     0.048 C 
HETATM    2  C   UNL     1     -40.774  24.508  -8.180  1.00  0.00    -0.062 A 
HETATM    3  C   UNL     1     -42.072  24.143  -8.626  1.00  0.00     0.008 A 
HETATM    4  C   UNL     1     -42.536  24.321  -9.913  1.00  0.00     0.024 A 
HETATM    5  C   UNL     1     -41.638  24.818 -10.788  1.00  0.00     0.034 A 
HETATM    6 CL   UNL     1     -42.231  25.066 -12.421  1.00  0.00    -0.084 Cl
HETATM    7  C   UNL     1     -40.339  25.162 -10.473  1.00  0.00     0.024 A 
HETATM    8  C   UNL     1     -39.928  24.990  -9.140  1.00  0.00     0.008 A 
ENDROOT
TORSDOF 0
ENDMDL
MODEL 3
REMARK VINA RESULT:    -6.549      2.237      3.845
REMARK INTER + INTRA:          -6.549
REMARK INTER:                  -6.549
REMARK INTRA:                   0.000
REMARK UNBOUND:                 0.000
REMARK  0 active torsions:
REMARK  status: ('A' for Active; 'I' for Inactive)
ROOT
HETATM    1  C   UNL     1     -42.155  25.014 -12.475  1.00  0.00     0.048 C 
HETATM    2  C   UNL     1     -41.700  24.855 -11.059  1.00  0.00    -0.062 A 
HETATM    3  C   UNL     1     -42.582  24.527  -9.994  1.00  0.00     0.008 A 
HETATM    4  C   UNL     1     -42.197  24.381  -8.677  1.00  0.00     0.024 A 
HETATM    5  C   UNL     1     -40.899  24.641  -8.421  1.00  0.00     0.034 A 
HETATM    6 CL   UNL     1     -40.401  24.434  -6.751  1.00  0.00    -0.084 Cl
HETATM    7  C   UNL     1     -39.968  25.012  -9.371  1.00  0.00     0.024 A 
HETATM    8  C   UNL     1     -40.407  25.115 -10.702  1.00  0.00     0.008 A 
ENDROOT
TORSDOF 0
ENDMDL
MODEL 4
REMARK VINA RESULT:    -6.533      2.244      3.455
REMARK INTER + INTRA:          -6.533
REMARK INTER:                  -6.533
REMARK INTRA:                   0.000
REMARK UNBOUND:                 0.000
REMARK  0 active torsions:
REMARK  status: ('A' for Active; 'I' for Inactive)
ROOT
HETATM    1  C   UNL     1     -42.164  25.043 -12.438  1.00  0.00     0.048 C 
HETATM    2  C   UNL     1     -41.733  24.913 -11.012  1.00  0.00    -0.062 A 
HETATM    3  C   UNL     1     -40.393  25.120 -10.584  1.00  0.00     0.008 A 
HETATM    4  C   UNL     1     -39.961  25.001  -9.279  1.00  0.00     0.024 A 
HETATM    5  C   UNL     1     -40.895  24.593  -8.396  1.00  0.00     0.034 A 
HETATM    6 CL   UNL     1     -40.354  24.462  -6.732  1.00  0.00    -0.084 Cl
HETATM    7  C   UNL     1     -42.211  24.319  -8.711  1.00  0.00     0.024 A 
HETATM    8  C   UNL     1     -42.605  24.487 -10.049  1.00  0.00     0.008 A 
ENDROOT
TORSDOF 0
ENDMDL
MODEL 5
REMARK VINA RESULT:    -6.244     10.204     11.295
REMARK INTER + INTRA:          -6.244
REMARK INTER:                  -6.244
REMARK INTRA:                   0.000
REMARK UNBOUND:                 0.000
REMARK  0 active torsions:
REMARK  status: ('A' for Active; 'I' for Inactive)
ROOT
HETATM    1  C   UNL     1     -36.404  32.201 -12.838  1.00  0.00     0.048 C 
HETATM    2  C   UNL     1     -37.186  33.254 -13.555  1.00  0.00    -0.062 A 
HETATM    3  C   UNL     1     -38.575  33.465 -13.347  1.00  0.00     0.008 A 
HETATM    4  C   UNL     1     -39.327  34.422 -13.997  1.00  0.00     0.024 A 
HETATM    5  C   UNL     1     -38.670  35.137 -14.932  1.00  0.00     0.034 A 
HETATM    6 CL   UNL     1     -39.618  36.370 -15.746  1.00  0.00    -0.084 Cl
HETATM    7  C   UNL     1     -37.335  34.983 -15.248  1.00  0.00     0.024 A 
HETATM    8  C   UNL     1     -36.608  34.015 -14.533  1.00  0.00     0.008 A 
ENDROOT
TORSDOF 0
ENDMDL
MODEL 6
REMARK VINA RESULT:    -6.180     10.180     11.142
REMARK INTER + INTRA:          -6.180
REMARK INTER:                  -6.180
REMARK INTRA:                   0.000
REMARK UNBOUND:                 0.000
REMARK  0 active torsions:
REMARK  status: ('A' for Active; 'I' for Inactive)
ROOT
HETATM    1  C   UNL     1     -36.301  32.274 -12.762  1.00  0.00     0.048 C 
HETATM    2  C   UNL     1     -37.149  33.244 -13.520  1.00  0.00    -0.062 A 
HETATM    3  C   UNL     1     -36.627  34.127 -14.502  1.00  0.00     0.008 A 
HETATM    4  C   UNL     1     -37.380  35.039 -15.214  1.00  0.00     0.024 A 
HETATM    5  C   UNL     1     -38.682  35.106 -14.871  1.00  0.00     0.034 A 
HETATM    6 CL   UNL     1     -39.648  36.249 -15.789  1.00  0.00    -0.084 Cl
HETATM    7  C   UNL     1     -39.283  34.329 -13.901  1.00  0.00     0.024 A 
HETATM    8  C   UNL     1     -38.477  33.395 -13.229  1.00  0.00     0.008 A 
ENDROOT
TORSDOF 0
ENDMDL
MODEL 7
REMARK VINA RESULT:    -6.050     10.225     11.434
REMARK INTER + INTRA:          -6.050
REMARK INTER:                  -6.050
REMARK INTRA:                   0.000
REMARK UNBOUND:                 0.000
REMARK  0 active torsions:
REMARK  status: ('A' for Active; 'I' for Inactive)
ROOT
HETATM    1  C   UNL     1     -39.509  36.107 -15.692  1.00  0.00     0.048 C 
HETATM    2  C   UNL     1     -38.715  35.113 -14.906  1.00  0.00    -0.062 A 
HETATM    3  C   UNL     1     -37.343  34.842 -15.160  1.00  0.00     0.008 A 
HETATM    4  C   UNL     1     -36.583  33.927 -14.460  1.00  0.00     0.024 A 
HETATM    5  C   UNL     1     -37.248  33.218 -13.526  1.00  0.00     0.034 A 
HETATM    6 CL   UNL     1     -36.281  32.069 -12.618  1.00  0.00    -0.084 Cl
HETATM    7  C   UNL     1     -38.589  33.366 -13.230  1.00  0.00     0.024 A 
HETATM    8  C   UNL     1     -39.308  34.335 -13.951  1.00  0.00     0.008 A 
ENDROOT
TORSDOF 0
ENDMDL
MODEL 8
REMARK VINA RESULT:    -5.729      2.282      3.907
REMARK INTER + INTRA:          -5.729
REMARK INTER:                  -5.729
REMARK INTRA:                   0.000
REMARK UNBOUND:                 0.000
REMARK  0 active torsions:
REMARK  status: ('A' for Active; 'I' for Inactive)
ROOT
HETATM    1  C   UNL     1     -43.748  26.758 -12.104  1.00  0.00     0.048 C 
HETATM    2  C   UNL     1     -42.632  26.190 -11.286  1.00  0.00    -0.062 A 
HETATM    3  C   UNL     1     -42.832  25.575 -10.021  1.00  0.00     0.008 A 
HETATM    4  C   UNL     1     -41.825  25.049  -9.239  1.00  0.00     0.024 A 
HETATM    5  C   UNL     1     -40.575  25.212  -9.718  1.00  0.00     0.034 A 
HETATM    6 CL   UNL     1     -39.293  24.525  -8.736  1.00  0.00    -0.084 Cl
HETATM    7  C   UNL     1     -40.263  25.835 -10.910  1.00  0.00     0.024 A 
HETATM    8  C   UNL     1     -41.330  26.325 -11.683  1.00  0.00     0.008 A 
ENDROOT
TORSDOF 0
ENDMDL
MODEL 9
REMARK VINA RESULT:    -5.380     10.420     11.708
REMARK INTER + INTRA:          -5.380
REMARK INTER:                  -5.380
REMARK INTRA:                   0.000
REMARK UNBOUND:                 0.000
REMARK  0 active torsions:
REMARK  status: ('A' for Active; 'I' for Inactive)
ROOT
HETATM    1  C   UNL     1     -38.070  35.136 -15.190  1.00  0.00     0.048 C 
HETATM    2  C   UNL     1     -37.145  34.554 -14.170  1.00  0.00    -0.062 A 
HETATM    3  C   UNL     1     -37.307  33.249 -13.631  1.00  0.00     0.008 A 
HETATM    4  C   UNL     1     -36.477  32.686 -12.684  1.00  0.00     0.024 A 
HETATM    5  C   UNL     1     -35.499  33.490 -12.220  1.00  0.00     0.034 A 
HETATM    6 CL   UNL     1     -34.428  32.768 -11.030  1.00  0.00    -0.084 Cl
HETATM    7  C   UNL     1     -35.281  34.788 -12.638  1.00  0.00     0.024 A 
HETATM    8  C   UNL     1     -36.136  35.301 -13.627  1.00  0.00     0.008 A 
ENDROOT
TORSDOF 0
ENDMDL
MODEL 10
REMARK VINA RESULT:    -5.325     10.341     11.541
REMARK INTER + INTRA:          -5.325
REMARK INTER:                  -5.325
REMARK INTRA:                   0.000
REMARK UNBOUND:                 0.000
REMARK  0 active torsions:
REMARK  status: ('A' for Active; 'I' for Inactive)
ROOT
HETATM    1  C   UNL     1     -38.143  35.125 -15.132  1.00  0.00     0.048 C 
HETATM    2  C   UNL     1     -37.246  34.516 -14.102  1.00  0.00    -0.062 A 
HETATM    3  C   UNL     1     -36.129  35.197 -13.548  1.00  0.00     0.008 A 
HETATM    4  C   UNL     1     -35.278  34.662 -12.602  1.00  0.00     0.024 A 
HETATM    5  C   UNL     1     -35.523  33.382 -12.261  1.00  0.00     0.034 A 
HETATM    6 CL   UNL     1     -34.456  32.706 -11.043  1.00  0.00    -0.084 Cl
HETATM    7  C   UNL     1     -36.551  32.613 -12.771  1.00  0.00     0.024 A 
HETATM    8  C   UNL     1     -37.407  33.217 -13.708  1.00  0.00     0.008 A 
ENDROOT
TORSDOF 0
ENDMDL
MODEL 11
REMARK VINA RESULT:    -5.282     10.296     11.307
REMARK INTER + INTRA:          -5.282
REMARK INTER:                  -5.282
REMARK INTRA:                   0.000
REMARK UNBOUND:                 0.000
REMARK  0 active torsions:
REMARK  status: ('A' for Active; 'I' for Inactive)
ROOT
HETATM    1  C   UNL     1     -34.870  32.942 -11.329  1.00  0.00     0.048 C 
HETATM    2  C   UNL     1     -35.764  33.573 -12.349  1.00  0.00    -0.062 A 
HETATM    3  C   UNL     1     -36.911  32.925 -12.882  1.00  0.00     0.008 A 
HETATM    4  C   UNL     1     -37.751  33.475 -13.828  1.00  0.00     0.024 A 
HETATM    5  C   UNL     1     -37.382  34.683 -14.297  1.00  0.00     0.034 A 
HETATM    6 CL   UNL     1     -38.460  35.395 -15.485  1.00  0.00    -0.084 Cl
HETATM    7  C   UNL     1     -36.264  35.381 -13.884  1.00  0.00     0.024 A 
HETATM    8  C   UNL     1     -35.460  34.789 -12.896  1.00  0.00     0.008 A 
ENDROOT
TORSDOF 0
ENDMDL
MODEL 12
REMARK VINA RESULT:    -5.253     10.715     11.702
REMARK INTER + INTRA:          -5.253
REMARK INTER:                  -5.253
REMARK INTRA:                   0.000
REMARK UNBOUND:                 0.000
REMARK  0 active torsions:
REMARK  status: ('A' for Active; 'I' for Inactive)
ROOT
HETATM    1  C   UNL     1     -36.214  31.636 -12.214  1.00  0.00     0.048 C 
HETATM    2  C   UNL     1     -36.141  32.974 -12.877  1.00  0.00    -0.062 A 
HETATM    3  C   UNL     1     -35.396  34.062 -12.347  1.00  0.00     0.008 A 
HETATM    4  C   UNL     1     -35.314  35.311 -12.929  1.00  0.00     0.024 A 
HETATM    5  C   UNL     1     -36.062  35.482 -14.037  1.00  0.00     0.034 A 
HETATM    6 CL   UNL     1     -35.943  37.063 -14.792  1.00  0.00    -0.084 Cl
HETATM    7  C   UNL     1     -36.857  34.510 -14.611  1.00  0.00     0.024 A 
HETATM    8  C   UNL     1     -36.879  33.247 -13.995  1.00  0.00     0.008 A 
ENDROOT
TORSDOF 0
ENDMDL
MODEL 13
REMARK VINA RESULT:    -5.233     10.776     11.713
REMARK INTER + INTRA:          -5.233
REMARK INTER:                  -5.233
REMARK INTRA:                   0.000
REMARK UNBOUND:                 0.000
REMARK  0 active torsions:
REMARK  status: ('A' for Active; 'I' for Inactive)
ROOT
HETATM    1  C   UNL     1     -36.447  34.325 -14.016  1.00  0.00     0.048 C 
HETATM    2  C   UNL     1     -37.869  34.603 -14.384  1.00  0.00    -0.062 A 
HETATM    3  C   UNL     1     -38.241  35.497 -15.424  1.00  0.00     0.008 A 
HETATM    4  C   UNL     1     -39.542  35.782 -15.784  1.00  0.00     0.024 A 
HETATM    5  C   UNL     1     -40.492  35.199 -15.025  1.00  0.00     0.034 A 
HETATM    6 CL   UNL     1     -42.148  35.541 -15.494  1.00  0.00    -0.084 Cl
HETATM    7  C   UNL     1     -40.243  34.352 -13.964  1.00  0.00     0.024 A 
HETATM    8  C   UNL     1     -38.900  34.072 -13.660  1.00  0.00     0.008 A 
ENDROOT
TORSDOF 0
ENDMDL
MODEL 14
REMARK VINA RESULT:    -4.993     10.770     11.906
REMARK INTER + INTRA:          -4.993
REMARK INTER:                  -4.993
REMARK INTRA:                   0.000
REMARK UNBOUND:                 0.000
REMARK  0 active torsions:
REMARK  status: ('A' for Active; 'I' for Inactive)
ROOT
HETATM    1  C   UNL     1     -41.923  35.520 -15.553  1.00  0.00     0.048 C 
HETATM    2  C   UNL     1     -40.547  35.185 -15.075  1.00  0.00    -0.062 A 
HETATM    3  C   UNL     1     -39.368  35.604 -15.749  1.00  0.00     0.008 A 
HETATM    4  C   UNL     1     -38.085  35.306 -15.339  1.00  0.00     0.024 A 
HETATM    5  C   UNL     1     -37.994  34.504 -14.260  1.00  0.00     0.034 A 
HETATM    6 CL   UNL     1     -36.363  34.140 -13.723  1.00  0.00    -0.084 Cl
HETATM    7  C   UNL     1     -39.073  34.001 -13.558  1.00  0.00     0.024 A 
HETATM    8  C   UNL     1     -40.357  34.362 -14.000  1.00  0.00     0.008 A 
ENDROOT
TORSDOF 0
ENDMDL
MODEL 15
REMARK VINA RESULT:    -4.901     11.316     12.354
REMARK INTER + INTRA:          -4.901
REMARK INTER:                  -4.901
REMARK INTRA:                   0.000
REMARK UNBOUND:                 0.000
REMARK  0 active torsions:
REMARK  status: ('A' for Active; 'I' for Inactive)
ROOT
HETATM    1  C   UNL     1     -33.188  37.021 -12.134  1.00  0.00     0.048 C 
HETATM    2  C   UNL     1     -33.912  35.713 -12.132  1.00  0.00    -0.062 A 
HETATM    3  C   UNL     1     -35.117  35.493 -12.854  1.00  0.00     0.008 A 
HETATM    4  C   UNL     1     -35.814  34.302 -12.868  1.00  0.00     0.024 A 
HETATM    5  C   UNL     1     -35.316  33.332 -12.076  1.00  0.00     0.034 A 
HETATM    6 CL   UNL     1     -36.188  31.808 -12.108  1.00  0.00    -0.084 Cl
HETATM    7  C   UNL     1     -34.182  33.453 -11.297  1.00  0.00     0.024 A 
HETATM    8  C   UNL     1     -33.493  34.677 -11.345  1.00  0.00     0.008 A 
ENDROOT
TORSDOF 0
ENDMDL
MODEL 16
REMARK VINA RESULT:    -4.899     10.561     11.556
REMARK INTER + INTRA:          -4.899
REMARK INTER:                  -4.899
REMARK INTRA:                   0.000
REMARK UNBOUND:                 0.000
REMARK  0 active torsions:
REMARK  status: ('A' for Active; 'I' for Inactive)
ROOT
HETATM    1  C   UNL     1     -33.125  34.696 -11.434  1.00  0.00     0.048 C 
HETATM    2  C   UNL     1     -34.494  34.482 -11.996  1.00  0.00    -0.062 A 
HETATM    3  C   UNL     1     -35.256  33.307 -11.756  1.00  0.00     0.008 A 
HETATM    4  C   UNL     1     -36.518  33.075 -12.264  1.00  0.00     0.024 A 
HETATM    5  C   UNL     1     -36.990  34.026 -13.094  1.00  0.00     0.034 A 
HETATM    6 CL   UNL     1     -38.604  33.744 -13.726  1.00  0.00    -0.084 Cl
HETATM    7  C   UNL     1     -36.316  35.183 -13.433  1.00  0.00     0.024 A 
HETATM    8  C   UNL     1     -35.048  35.384 -12.862  1.00  0.00     0.008 A 
ENDROOT
TORSDOF 0
ENDMDL
MODEL 17
REMARK VINA RESULT:    -4.847     10.731     11.896
REMARK INTER + INTRA:          -4.847
REMARK INTER:                  -4.847
REMARK INTRA:                   0.000
REMARK UNBOUND:                 0.000
REMARK  0 active torsions:
REMARK  status: ('A' for Active; 'I' for Inactive)
ROOT
HETATM    1  C   UNL     1     -38.166  34.233 -13.700  1.00  0.00     0.048 C 
HETATM    2  C   UNL     1     -36.811  34.164 -13.072  1.00  0.00    -0.062 A 
HETATM    3  C   UNL     1     -36.407  33.108 -12.212  1.00  0.00     0.008 A 
HETATM    4  C   UNL     1     -35.168  33.018 -11.610  1.00  0.00     0.024 A 
HETATM    5  C   UNL     1     -34.343  34.061 -11.830  1.00  0.00     0.034 A 
HETATM    6 CL   UNL     1     -32.758  33.940 -11.084  1.00  0.00    -0.084 Cl
HETATM    7  C   UNL     1     -34.650  35.160 -12.608  1.00  0.00     0.024 A 
HETATM    8  C   UNL     1     -35.913  35.184 -13.223  1.00  0.00     0.008 A 
ENDROOT
TORSDOF 0
ENDMDL
MODEL 18
REMARK VINA RESULT:    -4.830     11.314     12.321
REMARK INTER + INTRA:          -4.830
REMARK INTER:                  -4.830
REMARK INTRA:                   0.000
REMARK UNBOUND:                 0.000
REMARK  0 active torsions:
REMARK  status: ('A' for Active; 'I' for Inactive)
ROOT
HETATM    1  C   UNL     1     -33.178  37.012 -12.154  1.00  0.00     0.048 C 
HETATM    2  C   UNL     1     -33.945  35.730 -12.098  1.00  0.00    -0.062 A 
HETATM    3  C   UNL     1     -33.518  34.603 -11.345  1.00  0.00     0.008 A 
HETATM    4  C   UNL     1     -34.197  33.404 -11.278  1.00  0.00     0.024 A 
HETATM    5  C   UNL     1     -35.299  33.320 -12.048  1.00  0.00     0.034 A 
HETATM    6 CL   UNL     1     -36.178  31.803 -11.948  1.00  0.00    -0.084 Cl
HETATM    7  C   UNL     1     -35.778  34.335 -12.853  1.00  0.00     0.024 A 
HETATM    8  C   UNL     1     -35.065  35.546 -12.859  1.00  0.00     0.008 A 
ENDROOT
TORSDOF 0
ENDMDL
MODEL 19
REMARK VINA RESULT:    -4.816     11.219     12.220
REMARK INTER + INTRA:          -4.816
REMARK INTER:                  -4.816
REMARK INTRA:                   0.000
REMARK UNBOUND:                 0.000
REMARK  0 active torsions:
REMARK  status: ('A' for Active; 'I' for Inactive)
ROOT
HETATM    1  C   UNL     1     -36.164  31.766 -12.119  1.00  0.00     0.048 C 
HETATM    2  C   UNL     1     -35.450  33.078 -12.073  1.00  0.00    -0.062 A 
HETATM    3  C   UNL     1     -35.842  34.202 -12.849  1.00  0.00     0.008 A 
HETATM    4  C   UNL     1     -35.201  35.424 -12.836  1.00  0.00     0.024 A 
HETATM    5  C   UNL     1     -34.095  35.488 -12.068  1.00  0.00     0.034 A 
HETATM    6 CL   UNL     1     -33.289  37.047 -12.031  1.00  0.00    -0.084 Cl
HETATM    7  C   UNL     1     -33.599  34.445 -11.310  1.00  0.00     0.024 A 
HETATM    8  C   UNL     1     -34.308  33.233 -11.337  1.00  0.00     0.008 A 
ENDROOT
TORSDOF 0
ENDMDL
MODEL 20
REMARK VINA RESULT:    -4.653     11.357     12.427
REMARK INTER + INTRA:          -4.653
REMARK INTER:                  -4.653
REMARK INTRA:                   0.000
REMARK UNBOUND:                 0.000
REMARK  0 active torsions:
REMARK  status: ('A' for Active; 'I' for Inactive)
ROOT
HETATM    1  C   UNL     1     -37.558  32.897 -13.250  1.00  0.00     0.048 C 
HETATM    2  C   UNL     1     -36.414  33.821 -12.981  1.00  0.00    -0.062 A 
HETATM    3  C   UNL     1     -35.427  33.567 -11.991  1.00  0.00     0.008 A 
HETATM    4  C   UNL     1     -34.364  34.401 -11.713  1.00  0.00     0.024 A 
HETATM    5  C   UNL     1     -34.339  35.556 -12.407  1.00  0.00     0.034 A 
HETATM    6 CL   UNL     1     -32.976  36.611 -12.071  1.00  0.00    -0.084 Cl
HETATM    7  C   UNL     1     -35.271  35.926 -13.357  1.00  0.00     0.024 A 
HETATM    8  C   UNL     1     -36.315  35.025 -13.623  1.00  0.00     0.008 A 
ENDROOT
TORSDOF 0
ENDMDL
