REMARK  9 active torsions:
REMARK  status: ('A' for Active; 'I' for Inactive)
REMARK    1  A    between atoms: C_2  and  N_17 
REMARK    2  A    between atoms: C_4  and  C_22 
REMARK    3  A    between atoms: C_5  and  N_19 
REMARK    4  A    between atoms: O_6  and  C_7 
REMARK    5  A    between atoms: O_6  and  C_26 
REMARK    6  A    between atoms: C_7  and  C_9 
REMARK    7  A    between atoms: C_22  and  O_23 
REMARK    8  A    between atoms: C_30  and  C_32 
REMARK       I    between atoms: C_32  and  N_34 
REMARK    9  A    between atoms: N_34  and  C_35 
ROOT
HETATM    1  C   UNL     1      -1.492   0.407   0.364  1.00  0.00     0.173 A 
HETATM    2  C   UNL     1      -1.130   0.115  -2.007  1.00  0.00     0.068 A 
HETATM    3  C   UNL     1      -1.953   0.523  -0.957  1.00  0.00     0.163 A 
HETATM    4  N   UNL     1      -0.233  -0.054   0.589  1.00  0.00    -0.318 N 
ATOM      5  HN  UNL     1       0.106  -0.100   1.550  1.00  0.00     0.169 HD
HETATM    6  C   UNL     1       0.594  -0.457  -0.416  1.00  0.00     0.160 A 
HETATM    7  C   UNL     1       0.148  -0.403  -1.750  1.00  0.00     0.086 A 
HETATM    8  F   UNL     1      -3.160   1.075  -1.237  1.00  0.00    -0.202 F 
ENDROOT
BRANCH   7   9
HETATM    9  C   UNL     1       1.006  -0.845  -2.872  1.00  0.00     0.260 C 
HETATM   10  O   UNL     1       0.914  -0.267  -3.990  1.00  0.00    -0.267 OA
HETATM   11  N   UNL     1       1.912  -1.946  -2.711  1.00  0.00    -0.320 N 
HETATM   12  H   UNL     1       1.707  -2.658  -1.975  1.00  0.00     0.169 HD
BRANCH  11  13
HETATM   13  C   UNL     1       2.957  -2.223  -3.656  1.00  0.00     0.080 A 
HETATM   14  C   UNL     1       3.005  -3.467  -4.320  1.00  0.00    -0.031 A 
HETATM   15  C   UNL     1       1.962  -4.520  -4.066  1.00  0.00     0.050 C 
HETATM   16  C   UNL     1       4.049  -3.724  -5.220  1.00  0.00     0.026 A 
HETATM   17  C   UNL     1       5.019  -2.749  -5.449  1.00  0.00     0.090 A 
HETATM   18  N   UNL     1       4.964  -1.564  -4.790  1.00  0.00    -0.355 N 
HETATM   19  C   UNL     1       3.971  -1.278  -3.907  1.00  0.00     0.131 A 
ATOM     20  HN  UNL     1       5.689  -0.868  -4.962  1.00  0.00     0.166 HD
HETATM   21 CL   UNL     1       4.036   0.252  -3.045  1.00  0.00    -0.062 Cl
ENDBRANCH  11  13
ENDBRANCH   7   9
BRANCH   6  22
HETATM   22  O   UNL     1       1.894  -0.892  -0.128  1.00  0.00    -0.321 OA
BRANCH  22  23
HETATM   23  C   UNL     1       2.413  -1.052   1.192  1.00  0.00     0.234 C 
HETATM   24  C   UNL     1       1.833  -2.320   1.831  1.00  0.00     0.049 C 
BRANCH  23  25
HETATM   25  C   UNL     1       3.942  -1.119   1.115  1.00  0.00     0.413 C 
HETATM   26  F   UNL     1       4.340  -2.193   0.339  1.00  0.00    -0.168 F 
HETATM   27  F   UNL     1       4.481  -1.248   2.383  1.00  0.00    -0.168 F 
HETATM   28  F   UNL     1       4.426   0.046   0.546  1.00  0.00    -0.168 F 
ENDBRANCH  23  25
ENDBRANCH  22  23
ENDBRANCH   6  22
BRANCH   1  29
HETATM   29  N   UNL     1      -2.293   0.816   1.484  1.00  0.00    -0.184 N 
HETATM   30  C   UNL     1      -3.613   0.634   1.688  1.00  0.00     0.351 A 
HETATM   31  N   UNL     1      -3.989   1.095   2.895  1.00  0.00    -0.285 N 
HETATM   32  O   UNL     1      -4.391   0.061   0.879  1.00  0.00    -0.244 OA
HETATM   33  C   UNL     1      -2.833   1.573   3.414  1.00  0.00     0.126 A 
HETATM   34  N   UNL     1      -1.793   1.382   2.572  1.00  0.00    -0.274 N 
ATOM     35  HN  UNL     1      -0.817   1.625   2.741  1.00  0.00     0.189 HD
BRANCH  31  36
HETATM   36  C   UNL     1      -5.338   1.121   3.463  1.00  0.00     0.131 C 
HETATM   37  C   UNL     1      -6.049   2.411   3.074  1.00  0.00     0.027 C 
ENDBRANCH  31  36
BRANCH  33  38
HETATM   38  C   UNL     1      -2.677   2.161   4.784  1.00  0.00     0.242 C 
BRANCH  38  39
HETATM   39  O   UNL     1      -2.365   1.154   5.707  1.00  0.00    -0.393 OA
HETATM   40  H   UNL     1      -3.212   0.675   5.903  1.00  0.00     0.209 HD
ENDBRANCH  38  39
ENDBRANCH  33  38
ENDBRANCH   1  29
TORSDOF 9
