REMARK  9 active torsions:
REMARK  status: ('A' for Active; 'I' for Inactive)
REMARK    1  A    between atoms: C_2  and  N_17 
REMARK    2  A    between atoms: C_4  and  C_22 
REMARK    3  A    between atoms: C_5  and  N_19 
REMARK    4  A    between atoms: O_6  and  C_7 
REMARK    5  A    between atoms: O_6  and  C_27 
REMARK    6  A    between atoms: C_7  and  C_9 
REMARK    7  A    between atoms: C_22  and  O_23 
REMARK    8  A    between atoms: C_31  and  C_33 
REMARK       I    between atoms: C_33  and  N_35 
REMARK    9  A    between atoms: N_35  and  C_37 
ROOT
HETATM    1  C   UNL     1      26.915 -21.310  21.926  1.00  0.00     0.173 A 
HETATM    2  C   UNL     1      28.380 -23.058  21.180  1.00  0.00     0.068 A 
HETATM    3  C   UNL     1      27.944 -21.757  21.086  1.00  0.00     0.163 A 
HETATM    4  N   UNL     1      26.355 -22.159  22.775  1.00  0.00    -0.318 N 
ATOM      5  HN  UNL     1      25.602 -21.817  23.372  1.00  0.00     0.169 HD
HETATM    6  C   UNL     1      26.721 -23.436  22.893  1.00  0.00     0.160 A 
HETATM    7  C   UNL     1      27.769 -23.958  22.076  1.00  0.00     0.086 A 
HETATM    8  F   UNL     1      28.550 -20.966  20.193  1.00  0.00    -0.202 F 
ENDROOT
BRANCH   7   9
HETATM    9  C   UNL     1      28.286 -25.347  22.167  1.00  0.00     0.260 C 
HETATM   10  O   UNL     1      29.119 -25.722  21.358  1.00  0.00    -0.267 OA
HETATM   11  N   UNL     1      27.914 -26.155  23.208  1.00  0.00    -0.320 N 
ATOM     12  HN  UNL     1      27.247 -25.778  23.881  1.00  0.00     0.169 HD
BRANCH  11  13
HETATM   13  C   UNL     1      28.378 -27.459  23.421  1.00  0.00     0.080 A 
HETATM   14  C   UNL     1      27.495 -28.547  23.342  1.00  0.00     0.131 A 
HETATM   15 CL   UNL     1      25.854 -28.269  22.923  1.00  0.00    -0.062 Cl
HETATM   16  N   UNL     1      27.890 -29.793  23.575  1.00  0.00    -0.355 N 
HETATM   17  C   UNL     1      29.149 -30.057  23.896  1.00  0.00     0.090 A 
ATOM     18  HN  UNL     1      27.217 -30.556  23.506  1.00  0.00     0.166 HD
HETATM   19  C   UNL     1      30.083 -29.035  24.010  1.00  0.00     0.026 A 
HETATM   20  C   UNL     1      29.719 -27.714  23.783  1.00  0.00    -0.031 A 
HETATM   21  C   UNL     1      30.764 -26.630  23.939  1.00  0.00     0.050 C 
ENDBRANCH  11  13
ENDBRANCH   7   9
BRANCH   6  22
HETATM   22  O   UNL     1      26.105 -24.260  23.791  1.00  0.00    -0.321 OA
BRANCH  22  23
HETATM   23  C   UNL     1      25.256 -23.751  24.818  1.00  0.00     0.234 C 
HETATM   24  C   UNL     1      23.791 -23.871  24.393  1.00  0.00     0.049 C 
BRANCH  23  25
HETATM   25  C   UNL     1      25.578 -24.572  26.062  1.00  0.00     0.413 C 
HETATM   26  F   UNL     1      26.928 -24.426  26.357  1.00  0.00    -0.168 F 
HETATM   27  F   UNL     1      24.830 -24.081  27.105  1.00  0.00    -0.168 F 
HETATM   28  F   UNL     1      25.300 -25.907  25.842  1.00  0.00    -0.168 F 
ENDBRANCH  23  25
ENDBRANCH  22  23
ENDBRANCH   6  22
BRANCH   1  29
HETATM   29  N   UNL     1      26.437 -20.013  21.917  1.00  0.00    -0.184 N 
HETATM   30  N   UNL     1      25.079 -19.715  21.911  1.00  0.00    -0.274 N 
HETATM   31  C   UNL     1      24.951 -18.447  21.910  1.00  0.00     0.126 A 
ATOM     32  HN  UNL     1      24.317 -20.393  21.908  1.00  0.00     0.189 HD
HETATM   33  N   UNL     1      26.200 -17.862  21.907  1.00  0.00    -0.285 N 
HETATM   34  C   UNL     1      27.124 -18.846  21.930  1.00  0.00     0.351 A 
HETATM   35  O   UNL     1      28.349 -18.704  21.941  1.00  0.00    -0.244 OA
BRANCH  31  36
HETATM   36  C   UNL     1      23.595 -17.796  21.923  1.00  0.00     0.242 C 
BRANCH  36  37
HETATM   37  O   UNL     1      23.391 -16.890  20.850  1.00  0.00    -0.393 OA
ATOM     38  HO  UNL     1      22.535 -16.479  20.858  1.00  0.00     0.209 HD
ENDBRANCH  36  37
ENDBRANCH  31  36
BRANCH  33  39
HETATM   39  C   UNL     1      26.474 -16.430  21.898  1.00  0.00     0.131 C 
HETATM   40  C   UNL     1      26.453 -15.893  20.472  1.00  0.00     0.027 C 
ENDBRANCH  33  39
ENDBRANCH   1  29
TORSDOF 9
