REMARK  5 active torsions:
REMARK  status: ('A' for Active; 'I' for Inactive)
REMARK    1  A    between atoms: C_1  and  C_7 
REMARK    2  A    between atoms: C_3  and  O_8 
REMARK    3  A    between atoms: C_4  and  O_9 
REMARK    4  A    between atoms: C_5  and  O_11 
REMARK    5  A    between atoms: O_8  and  P_15 
ROOT
HETATM    1  C   UNL     1      27.029  68.028   5.946  1.00  0.00     0.092 C 
HETATM    2  C   UNL     1      27.522  69.056   7.073  1.00  0.00     0.051 C 
HETATM    3  C   UNL     1      26.630  69.421   8.150  1.00  0.00     0.167 C 
HETATM    4  C   UNL     1      25.360  68.383   8.317  1.00  0.00     0.176 C 
HETATM    5  C   UNL     1      24.696  68.151   7.130  1.00  0.00     0.150 C 
HETATM    6  C   UNL     1      25.668  67.534   5.943  1.00  0.00     0.050 C 
ENDROOT
BRANCH   3   7
HETATM    7  O   UNL     1      26.137  70.709   7.895  1.00  0.00    -0.275 OA
BRANCH   7   8
HETATM    8  P   UNL     1      26.381  71.925   8.995  1.00  0.00     0.422 P 
HETATM    9  O   UNL     1      27.856  72.146   9.233  1.00  0.00    -0.617 OA
HETATM   10  O   UNL     1      25.723  71.506  10.291  1.00  0.00    -0.617 OA
HETATM   11  O   UNL     1      25.746  73.155   8.417  1.00  0.00    -0.617 OA
ENDBRANCH   7   8
ENDBRANCH   3   7
BRANCH   4  12
HETATM   12  O   UNL     1      24.453  68.995   9.244  1.00  0.00    -0.390 OA
ATOM     13  HO  UNL     1      24.910  69.155  10.061  1.00  0.00     0.210 HD
ENDBRANCH   4  12
BRANCH   1  14
HETATM   14  C   UNL     1      27.876  67.886   4.682  1.00  0.00     0.177 C 
HETATM   15  O   UNL     1      28.792  68.718   4.453  1.00  0.00    -0.648 OA
HETATM   16  O   UNL     1      27.658  66.942   3.878  1.00  0.00    -0.648 OA
ENDBRANCH   1  14
BRANCH   5  17
HETATM   17  O   UNL     1      23.634  67.205   7.347  1.00  0.00    -0.393 OA
ATOM     18  HO  UNL     1      23.076  67.559   8.029  1.00  0.00     0.210 HD
ENDBRANCH   5  17
TORSDOF 5
