MODEL 1
REMARK VINA RESULT:   -13.070      0.000      0.000
REMARK INTER + INTRA:         -23.830
REMARK INTER:                 -22.238
REMARK INTRA:                  -1.592
REMARK UNBOUND:                -1.592
REMARK  12 active torsions:
REMARK  status: ('A' for Active; 'I' for Inactive)
REMARK    1  A    between atoms: N_12  and  C_23 
REMARK       I    between atoms: N_12  and  C_34 
REMARK    2  A    between atoms: N_17  and  C_36 
REMARK       I    between atoms: N_17  and  C_33 
REMARK    3  A    between atoms: C_23  and  C_24 
REMARK    4  A    between atoms: C_24  and  N_39 
REMARK    5  A    between atoms: C_26  and  C_28 
REMARK    6  A    between atoms: C_26  and  N_39 
REMARK    7  A    between atoms: C_27  and  C_33 
REMARK    8  A    between atoms: C_29  and  C_35 
REMARK    9  A    between atoms: C_30  and  N_37 
REMARK   10  A    between atoms: C_31  and  S_46 
REMARK   11  A    between atoms: C_32  and  C_34 
REMARK       I    between atoms: C_35  and  N_39 
REMARK   12  A    between atoms: N_37  and  S_46 
ROOT
HETATM    1  C   UNL     1      45.581 -11.531 109.401  1.00  0.00     0.254 C 
HETATM    2  N   UNL     1      45.402 -12.385 110.435  1.00  0.00    -0.342 N 
HETATM    3  O   UNL     1      45.156 -10.389 109.431  1.00  0.00    -0.267 OA
ENDROOT
BRANCH   2   4
HETATM    4  C   UNL     1      45.923 -13.757 110.461  1.00  0.00     0.164 C 
BRANCH   4   5
HETATM    5  C   UNL     1      44.872 -14.833 110.617  1.00  0.00    -0.040 A 
HETATM    6  C   UNL     1      45.009 -15.806 111.602  1.00  0.00     0.009 A 
HETATM    7  C   UNL     1      44.079 -16.826 111.725  1.00  0.00     0.001 A 
HETATM    8  C   UNL     1      42.998 -16.886 110.867  1.00  0.00     0.000 A 
HETATM    9  C   UNL     1      42.845 -15.922 109.888  1.00  0.00     0.001 A 
HETATM   10  C   UNL     1      43.772 -14.899 109.765  1.00  0.00     0.009 A 
ENDBRANCH   4   5
ENDBRANCH   2   4
BRANCH   2  11
HETATM   11  C   UNL     1      44.692 -11.939 111.647  1.00  0.00     0.146 C 
BRANCH  11  12
HETATM   12  C   UNL     1      45.605 -11.775 112.863  1.00  0.00     0.143 C 
BRANCH  12  13
HETATM   13  N   UNL     1      46.015 -10.390 113.065  1.00  0.00    -0.355 N 
HETATM   14  C   UNL     1      45.194  -9.506 113.641  1.00  0.00     0.260 C 
HETATM   15  O   UNL     1      44.038  -9.792 113.933  1.00  0.00    -0.267 OA
ATOM     16  HN  UNL     1      46.942 -10.091 112.762  1.00  0.00     0.162 HD
BRANCH  14  17
HETATM   17  C   UNL     1      45.742  -8.182 114.007  1.00  0.00     0.091 A 
HETATM   18  C   UNL     1      46.925  -7.662 114.451  1.00  0.00     0.115 A 
HETATM   19  N   UNL     1      46.925  -6.323 114.800  1.00  0.00    -0.345 N 
HETATM   20  C   UNL     1      45.729  -5.820 114.625  1.00  0.00     0.151 A 
ATOM     21  HN  UNL     1      47.735  -5.806 115.143  1.00  0.00     0.167 HD
HETATM   22  S   UNL     1      44.551  -6.922 114.005  1.00  0.00    -0.047 SA
BRANCH  20  23
HETATM   23  N   UNL     1      45.429  -4.506 114.930  1.00  0.00    -0.307 N 
HETATM   24  C   UNL     1      44.342  -4.120 115.673  1.00  0.00     0.227 C 
HETATM   25  O   UNL     1      43.541  -4.919 116.156  1.00  0.00    -0.273 OA
ATOM     26  HN  UNL     1      46.053  -3.779 114.581  1.00  0.00     0.171 HD
BRANCH  24  27
HETATM   27  C   UNL     1      44.173  -2.613 115.840  1.00  0.00     0.070 C 
HETATM   28  C   UNL     1      42.684  -2.268 115.932  1.00  0.00     0.019 C 
HETATM   29  C   UNL     1      44.824  -1.898 114.666  1.00  0.00     0.019 C 
ENDBRANCH  24  27
ENDBRANCH  20  23
ENDBRANCH  14  17
ENDBRANCH  12  13
ENDBRANCH  11  12
ENDBRANCH   2  11
BRANCH   1  30
HETATM   30  C   UNL     1      46.339 -11.990 108.192  1.00  0.00     0.032 A 
HETATM   31  C   UNL     1      45.763 -12.801 107.216  1.00  0.00     0.018 A 
HETATM   32  C   UNL     1      46.461 -13.140 106.069  1.00  0.00     0.026 A 
HETATM   33  C   UNL     1      47.751 -12.667 105.894  1.00  0.00     0.079 A 
HETATM   34  C   UNL     1      48.351 -11.879 106.862  1.00  0.00     0.026 A 
HETATM   35  C   UNL     1      47.645 -11.544 108.002  1.00  0.00     0.018 A 
BRANCH  33  36
HETATM   36  S   UNL     1      48.615 -13.002 104.394  1.00  0.00     0.263 S 
HETATM   37  O   UNL     1      47.891 -13.998 103.666  1.00  0.00    -0.200 OA
HETATM   38  O   UNL     1      49.998 -13.211 104.707  1.00  0.00    -0.200 OA
BRANCH  36  39
HETATM   39  N   UNL     1      48.577 -11.611 103.541  1.00  0.00    -0.281 N 
ATOM     40  HN  UNL     1      49.411 -11.341 103.018  1.00  0.00     0.179 HD
BRANCH  39  41
HETATM   41  C   UNL     1      47.435 -10.748 103.488  1.00  0.00     0.042 A 
HETATM   42  C   UNL     1      46.357 -11.070 102.670  1.00  0.00     0.030 A 
HETATM   43  C   UNL     1      45.290 -10.193 102.559  1.00  0.00     0.002 A 
HETATM   44  C   UNL     1      45.286  -9.005 103.264  1.00  0.00     0.000 A 
HETATM   45  C   UNL     1      46.347  -8.695 104.092  1.00  0.00     0.002 A 
HETATM   46  C   UNL     1      47.419  -9.560 104.211  1.00  0.00     0.030 A 
ENDBRANCH  39  41
ENDBRANCH  36  39
ENDBRANCH  33  36
ENDBRANCH   1  30
TORSDOF 12
ENDMDL
