REMARK  6 active torsions:
REMARK  status: ('A' for Active; 'I' for Inactive)
REMARK    1  A    between atoms: C_1  and  C_7 
REMARK    2  A    between atoms: C_1  and  S_10 
REMARK    3  A    between atoms: C_2  and  O_14 
REMARK    4  A    between atoms: C_3  and  O_16 
REMARK    5  A    between atoms: C_4  and  O_18 
REMARK    6  A    between atoms: C_6  and  O_8 
ROOT
HETATM    1  C   UNL     1      11.059 -21.266 -20.172  1.00  0.00     0.179 C 
HETATM    2  C   UNL     1       9.675 -21.778 -20.544  1.00  0.00     0.183 C 
HETATM    3  C   UNL     1       8.701 -21.469 -19.409  1.00  0.00     0.204 C 
HETATM    4  C   UNL     1       9.214 -22.063 -18.098  1.00  0.00     0.290 C 
HETATM    5  C   UNL     1      11.483 -22.016 -18.919  1.00  0.00     0.172 C 
HETATM    6  O   UNL     1      10.562 -21.690 -17.865  1.00  0.00    -0.350 OA
ENDROOT
BRANCH   5   7
HETATM    7  C   UNL     1      12.856 -21.648 -18.396  1.00  0.00     0.200 C 
BRANCH   7   8
HETATM    8  S   UNL     1      13.758 -22.914 -17.528  1.00  0.00     0.104 S 
HETATM    9  O   UNL     1      13.106 -23.009 -16.255  1.00  0.00    -0.595 OA
HETATM   10  O   UNL     1      15.145 -22.404 -17.491  1.00  0.00    -0.595 OA
HETATM   11  O   UNL     1      13.551 -24.213 -18.298  1.00  0.00    -0.595 OA
ENDBRANCH   7   8
ENDBRANCH   5   7
BRANCH   1  12
HETATM   12  O   UNL     1      11.973 -21.485 -21.226  1.00  0.00    -0.390 OA
ATOM     13  HO  UNL     1      12.837 -21.165 -20.994  1.00  0.00     0.210 HD
ENDBRANCH   1  12
BRANCH   4  14
HETATM   14  O   UNL     1       9.079 -23.457 -18.202  1.00  0.00    -0.363 OA
HETATM   15  C   UNL     1       9.428 -24.201 -17.036  1.00  0.00     0.204 C 
ENDBRANCH   4  14
BRANCH   2  16
HETATM   16  O   UNL     1       9.214 -21.203 -21.766  1.00  0.00    -0.390 OA
ATOM     17  HO  UNL     1       9.820 -21.395 -22.472  1.00  0.00     0.210 HD
ENDBRANCH   2  16
BRANCH   3  18
HETATM   18  O   UNL     1       7.400 -22.002 -19.669  1.00  0.00    -0.388 OA
ATOM     19  HO  UNL     1       6.794 -21.810 -18.963  1.00  0.00     0.210 HD
ENDBRANCH   3  18
TORSDOF 6
