MODEL 1
REMARK VINA RESULT:   -10.408      0.000      0.000
REMARK INTER + INTRA:         -15.924
REMARK INTER:                 -15.276
REMARK INTRA:                  -0.648
REMARK UNBOUND:                -0.648
REMARK  10 active torsions:
REMARK  status: ('A' for Active; 'I' for Inactive)
REMARK       I    between atoms: N_1  and  C_6 
REMARK    1  A    between atoms: N_1  and  C_21 
REMARK    2  A    between atoms: C_3  and  O_25 
REMARK    3  A    between atoms: C_4  and  C_5 
REMARK    4  A    between atoms: C_5  and  O_23 
REMARK    5  A    between atoms: C_6  and  C_7 
REMARK    6  A    between atoms: C_7  and  C_17 
REMARK    7  A    between atoms: C_8  and  C_17 
REMARK    8  A    between atoms: C_9  and  N_13 
REMARK    9  A    between atoms: C_27  and  O_28 
REMARK   10  A    between atoms: C_30  and  O_31 
ROOT
HETATM    1  C   UNL     1      35.057  24.878  30.517  1.00  0.00     0.113 C 
HETATM    2  C   UNL     1      36.023  25.512  29.732  1.00  0.00     0.105 C 
HETATM    3  N   UNL     1      36.725  26.026  29.035  1.00  0.00    -0.191 NA
ENDROOT
BRANCH   1   4
HETATM    4  C   UNL     1      35.157  24.656  31.992  1.00  0.00     0.039 C 
BRANCH   4   5
HETATM    5  C   UNL     1      36.029  25.297  32.881  1.00  0.00    -0.035 A 
HETATM    6  C   UNL     1      35.537  25.462  34.171  1.00  0.00     0.013 A 
HETATM    7  C   UNL     1      36.277  26.110  35.158  1.00  0.00     0.030 A 
HETATM    8  C   UNL     1      37.552  26.616  34.863  1.00  0.00     0.029 A 
HETATM    9  C   UNL     1      38.049  26.431  33.555  1.00  0.00     0.030 A 
HETATM   10  C   UNL     1      37.309  25.775  32.568  1.00  0.00     0.013 A 
BRANCH   8  11
HETATM   11  N   UNL     1      38.274  27.293  35.828  1.00  0.00    -0.390 N 
HETATM   12  C   UNL     1      37.586  27.715  37.060  1.00  0.00     0.149 C 
HETATM   13  C   UNL     1      39.603  27.831  35.496  1.00  0.00     0.149 C 
ENDBRANCH   8  11
ENDBRANCH   4   5
ENDBRANCH   1   4
BRANCH   1  14
HETATM   14  C   UNL     1      33.925  24.155  29.773  1.00  0.00     0.264 C 
HETATM   15  O   UNL     1      32.785  24.149  30.220  1.00  0.00    -0.267 OA
HETATM   16  N   UNL     1      34.262  23.604  28.606  1.00  0.00    -0.327 N 
ATOM     17  HN  UNL     1      35.225  23.668  28.274  1.00  0.00     0.165 HD
BRANCH  16  18
HETATM   18  C   UNL     1      33.256  22.907  27.798  1.00  0.00     0.255 C 
HETATM   19  C   UNL     1      33.640  23.011  26.334  1.00  0.00     0.198 C 
HETATM   20  C   UNL     1      32.555  22.287  25.512  1.00  0.00     0.182 C 
HETATM   21  C   UNL     1      32.373  20.854  26.002  1.00  0.00     0.180 C 
HETATM   22  C   UNL     1      32.181  20.811  27.532  1.00  0.00     0.179 C 
HETATM   23  O   UNL     1      33.280  21.475  28.185  1.00  0.00    -0.354 OA
BRANCH  19  24
HETATM   24  O   UNL     1      33.694  24.398  25.987  1.00  0.00    -0.389 OA
ATOM     25  HO  UNL     1      33.027  24.608  25.344  1.00  0.00     0.210 HD
ENDBRANCH  19  24
BRANCH  20  26
HETATM   26  O   UNL     1      32.892  22.272  24.132  1.00  0.00    -0.390 OA
ATOM     27  HO  UNL     1      33.791  22.546  24.000  1.00  0.00     0.210 HD
ENDBRANCH  20  26
BRANCH  21  28
HETATM   28  O   UNL     1      31.222  20.297  25.359  1.00  0.00    -0.390 OA
ATOM     29  HO  UNL     1      30.837  19.649  25.937  1.00  0.00     0.210 HD
ENDBRANCH  21  28
BRANCH  22  30
HETATM   30  C   UNL     1      32.103  19.382  28.055  1.00  0.00     0.198 C 
BRANCH  30  31
HETATM   31  O   UNL     1      30.773  18.883  27.901  1.00  0.00    -0.398 OA
ATOM     32  HO  UNL     1      30.392  19.228  27.102  1.00  0.00     0.209 HD
ENDBRANCH  30  31
ENDBRANCH  22  30
ENDBRANCH  16  18
ENDBRANCH   1  14
TORSDOF 10
ENDMDL
MODEL 2
REMARK VINA RESULT:    -9.748      3.992      9.725
REMARK INTER + INTRA:         -14.955
REMARK INTER:                 -13.998
REMARK INTRA:                  -0.957
REMARK UNBOUND:                -0.648
REMARK  10 active torsions:
REMARK  status: ('A' for Active; 'I' for Inactive)
REMARK       I    between atoms: N_1  and  C_6 
REMARK    1  A    between atoms: N_1  and  C_21 
REMARK    2  A    between atoms: C_3  and  O_25 
REMARK    3  A    between atoms: C_4  and  C_5 
REMARK    4  A    between atoms: C_5  and  O_23 
REMARK    5  A    between atoms: C_6  and  C_7 
REMARK    6  A    between atoms: C_7  and  C_17 
REMARK    7  A    between atoms: C_8  and  C_17 
REMARK    8  A    between atoms: C_9  and  N_13 
REMARK    9  A    between atoms: C_27  and  O_28 
REMARK   10  A    between atoms: C_30  and  O_31 
ROOT
HETATM    1  C   UNL     1      35.343  25.213  30.599  1.00  0.00     0.113 C 
HETATM    2  C   UNL     1      36.194  25.723  29.616  1.00  0.00     0.105 C 
HETATM    3  N   UNL     1      36.950  26.106  28.889  1.00  0.00    -0.191 NA
ENDROOT
BRANCH   1   4
HETATM    4  C   UNL     1      33.898  24.887  30.401  1.00  0.00     0.039 C 
BRANCH   4   5
HETATM    5  C   UNL     1      33.346  24.103  29.380  1.00  0.00    -0.035 A 
HETATM    6  C   UNL     1      33.970  22.878  29.176  1.00  0.00     0.013 A 
HETATM    7  C   UNL     1      33.553  22.003  28.174  1.00  0.00     0.030 A 
HETATM    8  C   UNL     1      32.478  22.349  27.340  1.00  0.00     0.029 A 
HETATM    9  C   UNL     1      31.841  23.588  27.565  1.00  0.00     0.030 A 
HETATM   10  C   UNL     1      32.256  24.461  28.573  1.00  0.00     0.013 A 
BRANCH   8  11
HETATM   11  N   UNL     1      32.086  21.501  26.321  1.00  0.00    -0.390 N 
HETATM   12  C   UNL     1      30.678  21.078  26.256  1.00  0.00     0.149 C 
HETATM   13  C   UNL     1      33.109  20.815  25.514  1.00  0.00     0.149 C 
ENDBRANCH   8  11
ENDBRANCH   4   5
ENDBRANCH   1   4
BRANCH   1  14
HETATM   14  C   UNL     1      35.873  25.208  32.040  1.00  0.00     0.264 C 
HETATM   15  O   UNL     1      35.396  24.456  32.881  1.00  0.00    -0.267 OA
HETATM   16  N   UNL     1      36.905  26.019  32.276  1.00  0.00    -0.327 N 
ATOM     17  HN  UNL     1      37.277  26.600  31.525  1.00  0.00     0.165 HD
BRANCH  16  18
HETATM   18  C   UNL     1      37.509  26.080  33.612  1.00  0.00     0.255 C 
HETATM   19  C   UNL     1      38.836  26.809  33.522  1.00  0.00     0.198 C 
HETATM   20  C   UNL     1      39.452  26.838  34.935  1.00  0.00     0.182 C 
HETATM   21  C   UNL     1      38.478  27.451  35.936  1.00  0.00     0.180 C 
HETATM   22  C   UNL     1      37.088  26.789  35.835  1.00  0.00     0.179 C 
HETATM   23  O   UNL     1      36.602  26.869  34.481  1.00  0.00    -0.354 OA
BRANCH  19  24
HETATM   24  O   UNL     1      39.679  26.086  32.620  1.00  0.00    -0.389 OA
ATOM     25  HO  UNL     1      40.193  26.684  32.090  1.00  0.00     0.210 HD
ENDBRANCH  19  24
BRANCH  20  26
HETATM   26  O   UNL     1      40.663  27.580  34.944  1.00  0.00    -0.390 OA
ATOM     27  HO  UNL     1      41.388  27.048  34.638  1.00  0.00     0.210 HD
ENDBRANCH  20  26
BRANCH  21  28
HETATM   28  O   UNL     1      39.003  27.264  37.254  1.00  0.00    -0.390 OA
ATOM     29  HO  UNL     1      39.535  28.019  37.477  1.00  0.00     0.210 HD
ENDBRANCH  21  28
BRANCH  22  30
HETATM   30  C   UNL     1      36.072  27.459  36.751  1.00  0.00     0.198 C 
BRANCH  30  31
HETATM   31  O   UNL     1      35.891  26.671  37.930  1.00  0.00    -0.398 OA
ATOM     32  HO  UNL     1      36.311  27.097  38.668  1.00  0.00     0.209 HD
ENDBRANCH  30  31
ENDBRANCH  22  30
ENDBRANCH  16  18
ENDBRANCH   1  14
TORSDOF 10
ENDMDL
MODEL 3
REMARK VINA RESULT:    -9.733      1.453      1.751
REMARK INTER + INTRA:         -14.932
REMARK INTER:                 -13.932
REMARK INTRA:                  -1.000
REMARK UNBOUND:                -0.648
REMARK  10 active torsions:
REMARK  status: ('A' for Active; 'I' for Inactive)
REMARK       I    between atoms: N_1  and  C_6 
REMARK    1  A    between atoms: N_1  and  C_21 
REMARK    2  A    between atoms: C_3  and  O_25 
REMARK    3  A    between atoms: C_4  and  C_5 
REMARK    4  A    between atoms: C_5  and  O_23 
REMARK    5  A    between atoms: C_6  and  C_7 
REMARK    6  A    between atoms: C_7  and  C_17 
REMARK    7  A    between atoms: C_8  and  C_17 
REMARK    8  A    between atoms: C_9  and  N_13 
REMARK    9  A    between atoms: C_27  and  O_28 
REMARK   10  A    between atoms: C_30  and  O_31 
ROOT
HETATM    1  C   UNL     1      36.012  25.180  29.213  1.00  0.00     0.113 C 
HETATM    2  C   UNL     1      36.408  26.025  28.173  1.00  0.00     0.105 C 
HETATM    3  N   UNL     1      36.629  26.718  27.327  1.00  0.00    -0.191 NA
ENDROOT
BRANCH   1   4
HETATM    4  C   UNL     1      36.912  24.652  30.283  1.00  0.00     0.039 C 
BRANCH   4   5
HETATM    5  C   UNL     1      37.157  25.229  31.535  1.00  0.00    -0.035 A 
HETATM    6  C   UNL     1      36.139  25.066  32.468  1.00  0.00     0.013 A 
HETATM    7  C   UNL     1      36.225  25.612  33.747  1.00  0.00     0.030 A 
HETATM    8  C   UNL     1      37.359  26.347  34.123  1.00  0.00     0.029 A 
HETATM    9  C   UNL     1      38.395  26.494  33.176  1.00  0.00     0.030 A 
HETATM   10  C   UNL     1      38.311  25.941  31.896  1.00  0.00     0.013 A 
BRANCH   8  11
HETATM   11  N   UNL     1      37.432  26.922  35.378  1.00  0.00    -0.390 N 
HETATM   12  C   UNL     1      38.751  27.062  36.017  1.00  0.00     0.149 C 
HETATM   13  C   UNL     1      36.200  27.109  36.162  1.00  0.00     0.149 C 
ENDBRANCH   8  11
ENDBRANCH   4   5
ENDBRANCH   1   4
BRANCH   1  14
HETATM   14  C   UNL     1      34.607  24.569  29.112  1.00  0.00     0.264 C 
HETATM   15  O   UNL     1      33.881  24.502  30.096  1.00  0.00    -0.267 OA
HETATM   16  N   UNL     1      34.231  24.188  27.891  1.00  0.00    -0.327 N 
ATOM     17  HN  UNL     1      34.872  24.297  27.105  1.00  0.00     0.165 HD
BRANCH  16  18
HETATM   18  C   UNL     1      32.900  23.611  27.671  1.00  0.00     0.255 C 
HETATM   19  C   UNL     1      32.276  24.259  26.450  1.00  0.00     0.198 C 
HETATM   20  C   UNL     1      30.874  23.646  26.259  1.00  0.00     0.182 C 
HETATM   21  C   UNL     1      30.956  22.125  26.178  1.00  0.00     0.180 C 
HETATM   22  C   UNL     1      31.774  21.550  27.352  1.00  0.00     0.179 C 
HETATM   23  O   UNL     1      33.076  22.165  27.394  1.00  0.00    -0.354 OA
BRANCH  19  24
HETATM   24  O   UNL     1      32.183  25.666  26.692  1.00  0.00    -0.389 OA
ATOM     25  HO  UNL     1      33.046  26.041  26.822  1.00  0.00     0.210 HD
ENDBRANCH  19  24
BRANCH  20  26
HETATM   26  O   UNL     1      30.260  24.147  25.081  1.00  0.00    -0.390 OA
ATOM     27  HO  UNL     1      30.889  24.610  24.542  1.00  0.00     0.210 HD
ENDBRANCH  20  26
BRANCH  21  28
HETATM   28  O   UNL     1      29.626  21.597  26.214  1.00  0.00    -0.390 OA
ATOM     29  HO  UNL     1      29.556  20.911  25.560  1.00  0.00     0.210 HD
ENDBRANCH  21  28
BRANCH  22  30
HETATM   30  C   UNL     1      31.957  20.042  27.231  1.00  0.00     0.198 C 
BRANCH  30  31
HETATM   31  O   UNL     1      30.777  19.374  27.683  1.00  0.00    -0.398 OA
ATOM     32  HO  UNL     1      30.124  20.015  27.939  1.00  0.00     0.209 HD
ENDBRANCH  30  31
ENDBRANCH  22  30
ENDBRANCH  16  18
ENDBRANCH   1  14
TORSDOF 10
ENDMDL
MODEL 4
REMARK VINA RESULT:    -9.527      2.279      3.103
REMARK INTER + INTRA:         -14.631
REMARK INTER:                 -13.570
REMARK INTRA:                  -1.061
REMARK UNBOUND:                -0.648
REMARK  10 active torsions:
REMARK  status: ('A' for Active; 'I' for Inactive)
REMARK       I    between atoms: N_1  and  C_6 
REMARK    1  A    between atoms: N_1  and  C_21 
REMARK    2  A    between atoms: C_3  and  O_25 
REMARK    3  A    between atoms: C_4  and  C_5 
REMARK    4  A    between atoms: C_5  and  O_23 
REMARK    5  A    between atoms: C_6  and  C_7 
REMARK    6  A    between atoms: C_7  and  C_17 
REMARK    7  A    between atoms: C_8  and  C_17 
REMARK    8  A    between atoms: C_9  and  N_13 
REMARK    9  A    between atoms: C_27  and  O_28 
REMARK   10  A    between atoms: C_30  and  O_31 
ROOT
HETATM    1  C   UNL     1      34.349  24.803  31.047  1.00  0.00     0.113 C 
HETATM    2  C   UNL     1      33.953  24.957  32.378  1.00  0.00     0.105 C 
HETATM    3  N   UNL     1      33.576  25.004  33.427  1.00  0.00    -0.191 NA
ENDROOT
BRANCH   1   4
HETATM    4  C   UNL     1      35.562  25.423  30.433  1.00  0.00     0.039 C 
BRANCH   4   5
HETATM    5  C   UNL     1      36.897  25.188  30.787  1.00  0.00    -0.035 A 
HETATM    6  C   UNL     1      37.515  24.152  30.095  1.00  0.00     0.013 A 
HETATM    7  C   UNL     1      38.832  23.780  30.360  1.00  0.00     0.030 A 
HETATM    8  C   UNL     1      39.569  24.455  31.346  1.00  0.00     0.029 A 
HETATM    9  C   UNL     1      38.938  25.514  32.032  1.00  0.00     0.030 A 
HETATM   10  C   UNL     1      37.621  25.891  31.761  1.00  0.00     0.013 A 
BRANCH   8  11
HETATM   11  N   UNL     1      40.862  24.064  31.638  1.00  0.00    -0.390 N 
HETATM   12  C   UNL     1      41.391  24.319  32.988  1.00  0.00     0.149 C 
HETATM   13  C   UNL     1      41.768  23.679  30.543  1.00  0.00     0.149 C 
ENDBRANCH   8  11
ENDBRANCH   4   5
ENDBRANCH   1   4
BRANCH   1  14
HETATM   14  C   UNL     1      33.342  24.139  30.097  1.00  0.00     0.264 C 
HETATM   15  O   UNL     1      32.137  24.281  30.261  1.00  0.00    -0.267 OA
HETATM   16  N   UNL     1      33.873  23.467  29.074  1.00  0.00    -0.327 N 
ATOM     17  HN  UNL     1      34.887  23.409  28.976  1.00  0.00     0.165 HD
BRANCH  16  18
HETATM   18  C   UNL     1      33.006  22.810  28.090  1.00  0.00     0.255 C 
HETATM   19  C   UNL     1      33.579  23.031  26.702  1.00  0.00     0.198 C 
HETATM   20  C   UNL     1      32.636  22.347  25.692  1.00  0.00     0.182 C 
HETATM   21  C   UNL     1      32.435  20.878  26.050  1.00  0.00     0.180 C 
HETATM   22  C   UNL     1      32.042  20.717  27.533  1.00  0.00     0.179 C 
HETATM   23  O   UNL     1      33.023  21.355  28.375  1.00  0.00    -0.354 OA
BRANCH  19  24
HETATM   24  O   UNL     1      33.636  24.441  26.465  1.00  0.00    -0.389 OA
ATOM     25  HO  UNL     1      34.128  24.876  27.150  1.00  0.00     0.210 HD
ENDBRANCH  19  24
BRANCH  20  26
HETATM   26  O   UNL     1      33.155  22.442  24.373  1.00  0.00    -0.390 OA
ATOM     27  HO  UNL     1      33.672  23.232  24.268  1.00  0.00     0.210 HD
ENDBRANCH  20  26
BRANCH  21  28
HETATM   28  O   UNL     1      31.399  20.346  25.219  1.00  0.00    -0.390 OA
ATOM     29  HO  UNL     1      31.711  20.328  24.322  1.00  0.00     0.210 HD
ENDBRANCH  21  28
BRANCH  22  30
HETATM   30  C   UNL     1      31.940  19.252  27.938  1.00  0.00     0.198 C 
BRANCH  30  31
HETATM   31  O   UNL     1      30.582  18.818  27.842  1.00  0.00    -0.398 OA
ATOM     32  HO  UNL     1      30.052  19.505  27.457  1.00  0.00     0.209 HD
ENDBRANCH  30  31
ENDBRANCH  22  30
ENDBRANCH  16  18
ENDBRANCH   1  14
TORSDOF 10
ENDMDL
MODEL 5
REMARK VINA RESULT:    -9.483      4.224      9.805
REMARK INTER + INTRA:         -14.565
REMARK INTER:                 -13.680
REMARK INTRA:                  -0.885
REMARK UNBOUND:                -0.648
REMARK  10 active torsions:
REMARK  status: ('A' for Active; 'I' for Inactive)
REMARK       I    between atoms: N_1  and  C_6 
REMARK    1  A    between atoms: N_1  and  C_21 
REMARK    2  A    between atoms: C_3  and  O_25 
REMARK    3  A    between atoms: C_4  and  C_5 
REMARK    4  A    between atoms: C_5  and  O_23 
REMARK    5  A    between atoms: C_6  and  C_7 
REMARK    6  A    between atoms: C_7  and  C_17 
REMARK    7  A    between atoms: C_8  and  C_17 
REMARK    8  A    between atoms: C_9  and  N_13 
REMARK    9  A    between atoms: C_27  and  O_28 
REMARK   10  A    between atoms: C_30  and  O_31 
ROOT
HETATM    1  C   UNL     1      34.082  24.904  31.693  1.00  0.00     0.113 C 
HETATM    2  C   UNL     1      32.722  24.924  32.009  1.00  0.00     0.105 C 
HETATM    3  N   UNL     1      31.660  24.987  32.345  1.00  0.00    -0.191 NA
ENDROOT
BRANCH   1   4
HETATM    4  C   UNL     1      34.648  24.606  30.342  1.00  0.00     0.039 C 
BRANCH   4   5
HETATM    5  C   UNL     1      34.044  23.855  29.325  1.00  0.00    -0.035 A 
HETATM    6  C   UNL     1      33.261  24.588  28.439  1.00  0.00     0.013 A 
HETATM    7  C   UNL     1      32.571  23.975  27.395  1.00  0.00     0.030 A 
HETATM    8  C   UNL     1      32.657  22.586  27.215  1.00  0.00     0.029 A 
HETATM    9  C   UNL     1      33.466  21.853  28.109  1.00  0.00     0.030 A 
HETATM   10  C   UNL     1      34.162  22.469  29.152  1.00  0.00     0.013 A 
BRANCH   8  11
HETATM   11  N   UNL     1      31.944  21.969  26.204  1.00  0.00    -0.390 N 
HETATM   12  C   UNL     1      30.540  22.358  25.988  1.00  0.00     0.149 C 
HETATM   13  C   UNL     1      32.488  20.757  25.568  1.00  0.00     0.149 C 
ENDBRANCH   8  11
ENDBRANCH   4   5
ENDBRANCH   1   4
BRANCH   1  14
HETATM   14  C   UNL     1      35.068  24.964  32.869  1.00  0.00     0.264 C 
HETATM   15  O   UNL     1      34.966  24.190  33.813  1.00  0.00    -0.267 OA
HETATM   16  N   UNL     1      36.050  25.859  32.751  1.00  0.00    -0.327 N 
ATOM     17  HN  UNL     1      36.097  26.456  31.925  1.00  0.00     0.165 HD
BRANCH  16  18
HETATM   18  C   UNL     1      37.063  25.990  33.804  1.00  0.00     0.255 C 
HETATM   19  C   UNL     1      38.248  26.762  33.256  1.00  0.00     0.198 C 
HETATM   20  C   UNL     1      39.300  26.865  34.378  1.00  0.00     0.182 C 
HETATM   21  C   UNL     1      38.692  27.478  35.635  1.00  0.00     0.180 C 
HETATM   22  C   UNL     1      37.380  26.764  36.022  1.00  0.00     0.179 C 
HETATM   23  O   UNL     1      36.465  26.777  34.910  1.00  0.00    -0.354 OA
BRANCH  19  24
HETATM   24  O   UNL     1      38.772  26.038  32.139  1.00  0.00    -0.389 OA
ATOM     25  HO  UNL     1      38.094  25.885  31.492  1.00  0.00     0.210 HD
ENDBRANCH  19  24
BRANCH  20  26
HETATM   26  O   UNL     1      40.409  27.650  33.962  1.00  0.00    -0.390 OA
ATOM     27  HO  UNL     1      40.606  28.322  34.603  1.00  0.00     0.210 HD
ENDBRANCH  20  26
BRANCH  21  28
HETATM   28  O   UNL     1      39.637  27.359  36.703  1.00  0.00    -0.390 OA
ATOM     29  HO  UNL     1      40.435  27.808  36.451  1.00  0.00     0.210 HD
ENDBRANCH  21  28
BRANCH  22  30
HETATM   30  C   UNL     1      36.701  27.430  37.213  1.00  0.00     0.198 C 
BRANCH  30  31
HETATM   31  O   UNL     1      37.340  28.676  37.498  1.00  0.00    -0.398 OA
ATOM     32  HO  UNL     1      36.700  29.377  37.474  1.00  0.00     0.209 HD
ENDBRANCH  30  31
ENDBRANCH  22  30
ENDBRANCH  16  18
ENDBRANCH   1  14
TORSDOF 10
ENDMDL
MODEL 6
REMARK VINA RESULT:    -9.449      1.762      2.642
REMARK INTER + INTRA:         -14.516
REMARK INTER:                 -13.400
REMARK INTRA:                  -1.116
REMARK UNBOUND:                -0.648
REMARK  10 active torsions:
REMARK  status: ('A' for Active; 'I' for Inactive)
REMARK       I    between atoms: N_1  and  C_6 
REMARK    1  A    between atoms: N_1  and  C_21 
REMARK    2  A    between atoms: C_3  and  O_25 
REMARK    3  A    between atoms: C_4  and  C_5 
REMARK    4  A    between atoms: C_5  and  O_23 
REMARK    5  A    between atoms: C_6  and  C_7 
REMARK    6  A    between atoms: C_7  and  C_17 
REMARK    7  A    between atoms: C_8  and  C_17 
REMARK    8  A    between atoms: C_9  and  N_13 
REMARK    9  A    between atoms: C_27  and  O_28 
REMARK   10  A    between atoms: C_30  and  O_31 
ROOT
HETATM    1  C   UNL     1      36.934  25.461  29.687  1.00  0.00     0.113 C 
HETATM    2  C   UNL     1      37.262  26.420  28.725  1.00  0.00     0.105 C 
HETATM    3  N   UNL     1      37.429  27.186  27.932  1.00  0.00    -0.191 NA
ENDROOT
BRANCH   1   4
HETATM    4  C   UNL     1      37.805  25.058  30.833  1.00  0.00     0.039 C 
BRANCH   4   5
HETATM    5  C   UNL     1      37.810  25.611  32.120  1.00  0.00    -0.035 A 
HETATM    6  C   UNL     1      36.629  25.446  32.835  1.00  0.00     0.013 A 
HETATM    7  C   UNL     1      36.472  25.970  34.117  1.00  0.00     0.030 A 
HETATM    8  C   UNL     1      37.520  26.684  34.718  1.00  0.00     0.029 A 
HETATM    9  C   UNL     1      38.719  26.833  33.991  1.00  0.00     0.030 A 
HETATM   10  C   UNL     1      38.879  26.303  32.709  1.00  0.00     0.013 A 
BRANCH   8  11
HETATM   11  N   UNL     1      37.354  27.238  35.974  1.00  0.00    -0.390 N 
HETATM   12  C   UNL     1      38.552  27.597  36.752  1.00  0.00     0.149 C 
HETATM   13  C   UNL     1      36.033  27.187  36.621  1.00  0.00     0.149 C 
ENDBRANCH   8  11
ENDBRANCH   4   5
ENDBRANCH   1   4
BRANCH   1  14
HETATM   14  C   UNL     1      35.693  24.599  29.411  1.00  0.00     0.264 C 
HETATM   15  O   UNL     1      35.382  23.688  30.168  1.00  0.00    -0.267 OA
HETATM   16  N   UNL     1      34.971  24.955  28.347  1.00  0.00    -0.327 N 
ATOM     17  HN  UNL     1      35.268  25.743  27.772  1.00  0.00     0.165 HD
BRANCH  16  18
HETATM   18  C   UNL     1      33.752  24.217  28.000  1.00  0.00     0.255 C 
HETATM   19  C   UNL     1      32.630  25.206  27.750  1.00  0.00     0.198 C 
HETATM   20  C   UNL     1      31.361  24.400  27.408  1.00  0.00     0.182 C 
HETATM   21  C   UNL     1      31.621  23.453  26.241  1.00  0.00     0.180 C 
HETATM   22  C   UNL     1      32.893  22.613  26.481  1.00  0.00     0.179 C 
HETATM   23  O   UNL     1      34.014  23.480  26.740  1.00  0.00    -0.354 OA
BRANCH  19  24
HETATM   24  O   UNL     1      32.436  25.969  28.944  1.00  0.00    -0.389 OA
ATOM     25  HO  UNL     1      32.579  26.893  28.778  1.00  0.00     0.210 HD
ENDBRANCH  19  24
BRANCH  20  26
HETATM   26  O   UNL     1      30.284  25.266  27.078  1.00  0.00    -0.390 OA
ATOM     27  HO  UNL     1      30.111  25.875  27.786  1.00  0.00     0.210 HD
ENDBRANCH  20  26
BRANCH  21  28
HETATM   28  O   UNL     1      30.492  22.585  26.100  1.00  0.00    -0.390 OA
ATOM     29  HO  UNL     1      30.669  21.781  26.575  1.00  0.00     0.210 HD
ENDBRANCH  21  28
BRANCH  22  30
HETATM   30  C   UNL     1      33.229  21.737  25.280  1.00  0.00     0.198 C 
BRANCH  30  31
HETATM   31  O   UNL     1      32.924  22.436  24.072  1.00  0.00    -0.398 OA
ATOM     32  HO  UNL     1      33.709  22.850  23.733  1.00  0.00     0.209 HD
ENDBRANCH  30  31
ENDBRANCH  22  30
ENDBRANCH  16  18
ENDBRANCH   1  14
TORSDOF 10
ENDMDL
MODEL 7
REMARK VINA RESULT:    -9.422      4.636      9.989
REMARK INTER + INTRA:         -14.476
REMARK INTER:                 -13.820
REMARK INTRA:                  -0.656
REMARK UNBOUND:                -0.648
REMARK  10 active torsions:
REMARK  status: ('A' for Active; 'I' for Inactive)
REMARK       I    between atoms: N_1  and  C_6 
REMARK    1  A    between atoms: N_1  and  C_21 
REMARK    2  A    between atoms: C_3  and  O_25 
REMARK    3  A    between atoms: C_4  and  C_5 
REMARK    4  A    between atoms: C_5  and  O_23 
REMARK    5  A    between atoms: C_6  and  C_7 
REMARK    6  A    between atoms: C_7  and  C_17 
REMARK    7  A    between atoms: C_8  and  C_17 
REMARK    8  A    between atoms: C_9  and  N_13 
REMARK    9  A    between atoms: C_27  and  O_28 
REMARK   10  A    between atoms: C_30  and  O_31 
ROOT
HETATM    1  C   UNL     1      36.591  24.572  31.334  1.00  0.00     0.113 C 
HETATM    2  C   UNL     1      37.512  23.923  30.508  1.00  0.00     0.105 C 
HETATM    3  N   UNL     1      38.316  23.424  29.917  1.00  0.00    -0.191 NA
ENDROOT
BRANCH   1   4
HETATM    4  C   UNL     1      35.105  24.496  31.192  1.00  0.00     0.039 C 
BRANCH   4   5
HETATM    5  C   UNL     1      34.383  24.274  30.012  1.00  0.00    -0.035 A 
HETATM    6  C   UNL     1      34.372  22.956  29.568  1.00  0.00     0.013 A 
HETATM    7  C   UNL     1      33.723  22.587  28.391  1.00  0.00     0.030 A 
HETATM    8  C   UNL     1      33.058  23.554  27.622  1.00  0.00     0.029 A 
HETATM    9  C   UNL     1      33.062  24.886  28.088  1.00  0.00     0.030 A 
HETATM   10  C   UNL     1      33.707  25.254  29.270  1.00  0.00     0.013 A 
BRANCH   8  11
HETATM   11  N   UNL     1      32.445  23.198  26.435  1.00  0.00    -0.390 N 
HETATM   12  C   UNL     1      30.999  23.434  26.286  1.00  0.00     0.149 C 
HETATM   13  C   UNL     1      33.163  22.341  25.476  1.00  0.00     0.149 C 
ENDBRANCH   8  11
ENDBRANCH   4   5
ENDBRANCH   1   4
BRANCH   1  14
HETATM   14  C   UNL     1      37.151  25.618  32.308  1.00  0.00     0.264 C 
HETATM   15  O   UNL     1      38.014  26.409  31.951  1.00  0.00    -0.267 OA
HETATM   16  N   UNL     1      36.592  25.632  33.519  1.00  0.00    -0.327 N 
ATOM     17  HN  UNL     1      35.855  24.965  33.747  1.00  0.00     0.165 HD
BRANCH  16  18
HETATM   18  C   UNL     1      37.032  26.605  34.526  1.00  0.00     0.255 C 
HETATM   19  C   UNL     1      36.192  26.433  35.778  1.00  0.00     0.198 C 
HETATM   20  C   UNL     1      36.665  27.480  36.807  1.00  0.00     0.182 C 
HETATM   21  C   UNL     1      38.167  27.360  37.048  1.00  0.00     0.180 C 
HETATM   22  C   UNL     1      38.944  27.345  35.716  1.00  0.00     0.179 C 
HETATM   23  O   UNL     1      38.442  26.296  34.865  1.00  0.00    -0.354 OA
BRANCH  19  24
HETATM   24  O   UNL     1      34.823  26.654  35.428  1.00  0.00    -0.389 OA
ATOM     25  HO  UNL     1      34.657  27.579  35.291  1.00  0.00     0.210 HD
ENDBRANCH  19  24
BRANCH  20  26
HETATM   26  O   UNL     1      35.977  27.325  38.040  1.00  0.00    -0.390 OA
ATOM     27  HO  UNL     1      36.378  26.644  38.567  1.00  0.00     0.210 HD
ENDBRANCH  20  26
BRANCH  21  28
HETATM   28  O   UNL     1      38.590  28.475  37.839  1.00  0.00    -0.390 OA
ATOM     29  HO  UNL     1      38.491  28.250  38.756  1.00  0.00     0.210 HD
ENDBRANCH  21  28
BRANCH  22  30
HETATM   30  C   UNL     1      40.435  27.118  35.931  1.00  0.00     0.198 C 
BRANCH  30  31
HETATM   31  O   UNL     1      40.638  26.312  37.093  1.00  0.00    -0.398 OA
ATOM     32  HO  UNL     1      40.859  25.425  36.834  1.00  0.00     0.209 HD
ENDBRANCH  30  31
ENDBRANCH  22  30
ENDBRANCH  16  18
ENDBRANCH   1  14
TORSDOF 10
ENDMDL
MODEL 8
REMARK VINA RESULT:    -9.298      4.726      9.600
REMARK INTER + INTRA:         -14.295
REMARK INTER:                 -13.461
REMARK INTRA:                  -0.834
REMARK UNBOUND:                -0.648
REMARK  10 active torsions:
REMARK  status: ('A' for Active; 'I' for Inactive)
REMARK       I    between atoms: N_1  and  C_6 
REMARK    1  A    between atoms: N_1  and  C_21 
REMARK    2  A    between atoms: C_3  and  O_25 
REMARK    3  A    between atoms: C_4  and  C_5 
REMARK    4  A    between atoms: C_5  and  O_23 
REMARK    5  A    between atoms: C_6  and  C_7 
REMARK    6  A    between atoms: C_7  and  C_17 
REMARK    7  A    between atoms: C_8  and  C_17 
REMARK    8  A    between atoms: C_9  and  N_13 
REMARK    9  A    between atoms: C_27  and  O_28 
REMARK   10  A    between atoms: C_30  and  O_31 
ROOT
HETATM    1  C   UNL     1      37.065  25.042  30.596  1.00  0.00     0.113 C 
HETATM    2  C   UNL     1      37.418  25.991  29.633  1.00  0.00     0.105 C 
HETATM    3  N   UNL     1      37.784  26.761  28.914  1.00  0.00    -0.191 NA
ENDROOT
BRANCH   1   4
HETATM    4  C   UNL     1      35.955  24.050  30.459  1.00  0.00     0.039 C 
BRANCH   4   5
HETATM    5  C   UNL     1      34.689  24.276  29.904  1.00  0.00    -0.035 A 
HETATM    6  C   UNL     1      34.507  23.763  28.625  1.00  0.00     0.013 A 
HETATM    7  C   UNL     1      33.311  23.936  27.931  1.00  0.00     0.030 A 
HETATM    8  C   UNL     1      32.252  24.643  28.521  1.00  0.00     0.029 A 
HETATM    9  C   UNL     1      32.440  25.148  29.826  1.00  0.00     0.030 A 
HETATM   10  C   UNL     1      33.637  24.968  30.523  1.00  0.00     0.013 A 
BRANCH   8  11
HETATM   11  N   UNL     1      31.077  24.850  27.822  1.00  0.00    -0.390 N 
HETATM   12  C   UNL     1      30.819  24.043  26.618  1.00  0.00     0.149 C 
HETATM   13  C   UNL     1      30.264  26.043  28.108  1.00  0.00     0.149 C 
ENDBRANCH   8  11
ENDBRANCH   4   5
ENDBRANCH   1   4
BRANCH   1  14
HETATM   14  C   UNL     1      37.714  25.184  31.980  1.00  0.00     0.264 C 
HETATM   15  O   UNL     1      38.656  24.474  32.306  1.00  0.00    -0.267 OA
HETATM   16  N   UNL     1      37.221  26.156  32.749  1.00  0.00    -0.327 N 
ATOM     17  HN  UNL     1      36.453  26.734  32.408  1.00  0.00     0.165 HD
BRANCH  16  18
HETATM   18  C   UNL     1      37.779  26.399  34.084  1.00  0.00     0.255 C 
HETATM   19  C   UNL     1      38.673  27.623  34.031  1.00  0.00     0.198 C 
HETATM   20  C   UNL     1      39.257  27.838  35.441  1.00  0.00     0.182 C 
HETATM   21  C   UNL     1      38.143  27.931  36.479  1.00  0.00     0.180 C 
HETATM   22  C   UNL     1      37.159  26.751  36.345  1.00  0.00     0.179 C 
HETATM   23  O   UNL     1      36.648  26.686  35.000  1.00  0.00    -0.354 OA
BRANCH  19  24
HETATM   24  O   UNL     1      39.716  27.370  33.086  1.00  0.00    -0.389 OA
ATOM     25  HO  UNL     1      40.266  26.653  33.378  1.00  0.00     0.210 HD
ENDBRANCH  19  24
BRANCH  20  26
HETATM   26  O   UNL     1      40.043  29.021  35.488  1.00  0.00    -0.390 OA
ATOM     27  HO  UNL     1      40.469  29.177  34.654  1.00  0.00     0.210 HD
ENDBRANCH  20  26
BRANCH  21  28
HETATM   28  O   UNL     1      38.734  27.918  37.783  1.00  0.00    -0.390 OA
ATOM     29  HO  UNL     1      38.513  27.096  38.206  1.00  0.00     0.210 HD
ENDBRANCH  21  28
BRANCH  22  30
HETATM   30  C   UNL     1      35.981  26.882  37.302  1.00  0.00     0.198 C 
BRANCH  30  31
HETATM   31  O   UNL     1      35.206  28.033  36.959  1.00  0.00    -0.398 OA
ATOM     32  HO  UNL     1      34.814  27.912  36.103  1.00  0.00     0.209 HD
ENDBRANCH  30  31
ENDBRANCH  22  30
ENDBRANCH  16  18
ENDBRANCH   1  14
TORSDOF 10
ENDMDL
MODEL 9
REMARK VINA RESULT:    -9.294      1.485      2.306
REMARK INTER + INTRA:         -14.289
REMARK INTER:                 -13.776
REMARK INTRA:                  -0.513
REMARK UNBOUND:                -0.648
REMARK  10 active torsions:
REMARK  status: ('A' for Active; 'I' for Inactive)
REMARK       I    between atoms: N_1  and  C_6 
REMARK    1  A    between atoms: N_1  and  C_21 
REMARK    2  A    between atoms: C_3  and  O_25 
REMARK    3  A    between atoms: C_4  and  C_5 
REMARK    4  A    between atoms: C_5  and  O_23 
REMARK    5  A    between atoms: C_6  and  C_7 
REMARK    6  A    between atoms: C_7  and  C_17 
REMARK    7  A    between atoms: C_8  and  C_17 
REMARK    8  A    between atoms: C_9  and  N_13 
REMARK    9  A    between atoms: C_27  and  O_28 
REMARK   10  A    between atoms: C_30  and  O_31 
ROOT
HETATM    1  C   UNL     1      33.976  24.664  31.591  1.00  0.00     0.113 C 
HETATM    2  C   UNL     1      33.107  24.931  32.651  1.00  0.00     0.105 C 
HETATM    3  N   UNL     1      32.345  25.090  33.450  1.00  0.00    -0.191 NA
ENDROOT
BRANCH   1   4
HETATM    4  C   UNL     1      35.455  24.875  31.616  1.00  0.00     0.039 C 
BRANCH   4   5
HETATM    5  C   UNL     1      36.199  25.489  32.632  1.00  0.00    -0.035 A 
HETATM    6  C   UNL     1      37.434  25.991  32.235  1.00  0.00     0.013 A 
HETATM    7  C   UNL     1      38.300  26.601  33.141  1.00  0.00     0.030 A 
HETATM    8  C   UNL     1      37.935  26.723  34.490  1.00  0.00     0.029 A 
HETATM    9  C   UNL     1      36.673  26.225  34.880  1.00  0.00     0.030 A 
HETATM   10  C   UNL     1      35.803  25.619  33.971  1.00  0.00     0.013 A 
BRANCH   8  11
HETATM   11  N   UNL     1      38.807  27.294  35.399  1.00  0.00    -0.390 N 
HETATM   12  C   UNL     1      38.309  27.628  36.743  1.00  0.00     0.149 C 
HETATM   13  C   UNL     1      40.100  27.819  34.931  1.00  0.00     0.149 C 
ENDBRANCH   8  11
ENDBRANCH   4   5
ENDBRANCH   1   4
BRANCH   1  14
HETATM   14  C   UNL     1      33.335  24.351  30.231  1.00  0.00     0.264 C 
HETATM   15  O   UNL     1      32.118  24.365  30.093  1.00  0.00    -0.267 OA
HETATM   16  N   UNL     1      34.188  24.132  29.229  1.00  0.00    -0.327 N 
ATOM     17  HN  UNL     1      35.193  24.163  29.402  1.00  0.00     0.165 HD
BRANCH  16  18
HETATM   18  C   UNL     1      33.688  23.846  27.880  1.00  0.00     0.255 C 
HETATM   19  C   UNL     1      34.704  24.332  26.864  1.00  0.00     0.198 C 
HETATM   20  C   UNL     1      34.141  24.035  25.459  1.00  0.00     0.182 C 
HETATM   21  C   UNL     1      33.787  22.558  25.321  1.00  0.00     0.180 C 
HETATM   22  C   UNL     1      32.909  22.085  26.498  1.00  0.00     0.179 C 
HETATM   23  O   UNL     1      33.564  22.374  27.748  1.00  0.00    -0.354 OA
BRANCH  19  24
HETATM   24  O   UNL     1      34.879  25.740  27.049  1.00  0.00    -0.389 OA
ATOM     25  HO  UNL     1      35.112  26.159  26.230  1.00  0.00     0.210 HD
ENDBRANCH  19  24
BRANCH  20  26
HETATM   26  O   UNL     1      35.079  24.390  24.453  1.00  0.00    -0.390 OA
ATOM     27  HO  UNL     1      35.965  24.374  24.796  1.00  0.00     0.210 HD
ENDBRANCH  20  26
BRANCH  21  28
HETATM   28  O   UNL     1      33.080  22.374  24.090  1.00  0.00    -0.390 OA
ATOM     29  HO  UNL     1      33.169  21.466  23.824  1.00  0.00     0.210 HD
ENDBRANCH  21  28
BRANCH  22  30
HETATM   30  C   UNL     1      32.633  20.588  26.434  1.00  0.00     0.198 C 
BRANCH  30  31
HETATM   31  O   UNL     1      31.711  20.311  25.378  1.00  0.00    -0.398 OA
ATOM     32  HO  UNL     1      31.912  19.468  24.989  1.00  0.00     0.209 HD
ENDBRANCH  30  31
ENDBRANCH  22  30
ENDBRANCH  16  18
ENDBRANCH   1  14
TORSDOF 10
ENDMDL
MODEL 10
REMARK VINA RESULT:    -8.992      4.879      8.966
REMARK INTER + INTRA:         -13.845
REMARK INTER:                 -12.776
REMARK INTRA:                  -1.069
REMARK UNBOUND:                -0.648
REMARK  10 active torsions:
REMARK  status: ('A' for Active; 'I' for Inactive)
REMARK       I    between atoms: N_1  and  C_6 
REMARK    1  A    between atoms: N_1  and  C_21 
REMARK    2  A    between atoms: C_3  and  O_25 
REMARK    3  A    between atoms: C_4  and  C_5 
REMARK    4  A    between atoms: C_5  and  O_23 
REMARK    5  A    between atoms: C_6  and  C_7 
REMARK    6  A    between atoms: C_7  and  C_17 
REMARK    7  A    between atoms: C_8  and  C_17 
REMARK    8  A    between atoms: C_9  and  N_13 
REMARK    9  A    between atoms: C_27  and  O_28 
REMARK   10  A    between atoms: C_30  and  O_31 
ROOT
HETATM    1  C   UNL     1      33.951  24.804  31.810  1.00  0.00     0.113 C 
HETATM    2  C   UNL     1      32.579  24.785  32.074  1.00  0.00     0.105 C 
HETATM    3  N   UNL     1      31.504  24.816  32.371  1.00  0.00    -0.191 NA
ENDROOT
BRANCH   1   4
HETATM    4  C   UNL     1      34.574  24.547  30.476  1.00  0.00     0.039 C 
BRANCH   4   5
HETATM    5  C   UNL     1      35.063  25.504  29.578  1.00  0.00    -0.035 A 
HETATM    6  C   UNL     1      36.441  25.486  29.393  1.00  0.00     0.013 A 
HETATM    7  C   UNL     1      37.078  26.400  28.555  1.00  0.00     0.030 A 
HETATM    8  C   UNL     1      36.327  27.369  27.871  1.00  0.00     0.029 A 
HETATM    9  C   UNL     1      34.928  27.369  28.054  1.00  0.00     0.030 A 
HETATM   10  C   UNL     1      34.290  26.450  28.889  1.00  0.00     0.013 A 
BRANCH   8  11
HETATM   11  N   UNL     1      36.959  28.300  27.068  1.00  0.00    -0.390 N 
HETATM   12  C   UNL     1      36.996  29.705  27.509  1.00  0.00     0.149 C 
HETATM   13  C   UNL     1      37.314  27.943  25.685  1.00  0.00     0.149 C 
ENDBRANCH   8  11
ENDBRANCH   4   5
ENDBRANCH   1   4
BRANCH   1  14
HETATM   14  C   UNL     1      34.890  24.865  33.024  1.00  0.00     0.264 C 
HETATM   15  O   UNL     1      34.723  24.123  33.983  1.00  0.00    -0.267 OA
HETATM   16  N   UNL     1      35.906  25.722  32.922  1.00  0.00    -0.327 N 
ATOM     17  HN  UNL     1      36.007  26.293  32.083  1.00  0.00     0.165 HD
BRANCH  16  18
HETATM   18  C   UNL     1      36.880  25.849  34.012  1.00  0.00     0.255 C 
HETATM   19  C   UNL     1      38.100  26.592  33.500  1.00  0.00     0.198 C 
HETATM   20  C   UNL     1      39.110  26.690  34.662  1.00  0.00     0.182 C 
HETATM   21  C   UNL     1      38.464  27.332  35.886  1.00  0.00     0.180 C 
HETATM   22  C   UNL     1      37.125  26.647  36.230  1.00  0.00     0.179 C 
HETATM   23  O   UNL     1      36.254  26.662  35.083  1.00  0.00    -0.354 OA
BRANCH  19  24
HETATM   24  O   UNL     1      38.653  25.843  32.414  1.00  0.00    -0.389 OA
ATOM     25  HO  UNL     1      39.565  25.637  32.579  1.00  0.00     0.210 HD
ENDBRANCH  19  24
BRANCH  20  26
HETATM   26  O   UNL     1      40.248  27.449  34.279  1.00  0.00    -0.390 OA
ATOM     27  HO  UNL     1      40.124  28.369  34.478  1.00  0.00     0.210 HD
ENDBRANCH  20  26
BRANCH  21  28
HETATM   28  O   UNL     1      39.365  27.210  36.991  1.00  0.00    -0.390 OA
ATOM     29  HO  UNL     1      40.254  27.273  36.664  1.00  0.00     0.210 HD
ENDBRANCH  21  28
BRANCH  22  30
HETATM   30  C   UNL     1      36.413  27.342  37.384  1.00  0.00     0.198 C 
BRANCH  30  31
HETATM   31  O   UNL     1      36.862  28.695  37.484  1.00  0.00    -0.398 OA
ATOM     32  HO  UNL     1      36.153  29.246  37.796  1.00  0.00     0.209 HD
ENDBRANCH  30  31
ENDBRANCH  22  30
ENDBRANCH  16  18
ENDBRANCH   1  14
TORSDOF 10
ENDMDL
MODEL 11
REMARK VINA RESULT:    -8.887      2.007      3.031
REMARK INTER + INTRA:         -13.691
REMARK INTER:                 -12.954
REMARK INTRA:                  -0.737
REMARK UNBOUND:                -0.648
REMARK  10 active torsions:
REMARK  status: ('A' for Active; 'I' for Inactive)
REMARK       I    between atoms: N_1  and  C_6 
REMARK    1  A    between atoms: N_1  and  C_21 
REMARK    2  A    between atoms: C_3  and  O_25 
REMARK    3  A    between atoms: C_4  and  C_5 
REMARK    4  A    between atoms: C_5  and  O_23 
REMARK    5  A    between atoms: C_6  and  C_7 
REMARK    6  A    between atoms: C_7  and  C_17 
REMARK    7  A    between atoms: C_8  and  C_17 
REMARK    8  A    between atoms: C_9  and  N_13 
REMARK    9  A    between atoms: C_27  and  O_28 
REMARK   10  A    between atoms: C_30  and  O_31 
ROOT
HETATM    1  C   UNL     1      36.402  24.555  30.739  1.00  0.00     0.113 C 
HETATM    2  C   UNL     1      37.590  23.894  30.418  1.00  0.00     0.105 C 
HETATM    3  N   UNL     1      38.532  23.408  30.073  1.00  0.00    -0.191 NA
ENDROOT
BRANCH   1   4
HETATM    4  C   UNL     1      35.864  24.736  32.121  1.00  0.00     0.039 C 
BRANCH   4   5
HETATM    5  C   UNL     1      36.425  25.507  33.147  1.00  0.00    -0.035 A 
HETATM    6  C   UNL     1      37.603  26.165  32.812  1.00  0.00     0.013 A 
HETATM    7  C   UNL     1      38.295  26.944  33.737  1.00  0.00     0.030 A 
HETATM    8  C   UNL     1      37.806  27.081  35.045  1.00  0.00     0.029 A 
HETATM    9  C   UNL     1      36.601  26.423  35.372  1.00  0.00     0.030 A 
HETATM   10  C   UNL     1      35.905  25.648  34.442  1.00  0.00     0.013 A 
BRANCH   8  11
HETATM   11  N   UNL     1      38.509  27.822  35.977  1.00  0.00    -0.390 N 
HETATM   12  C   UNL     1      39.894  28.216  35.669  1.00  0.00     0.149 C 
HETATM   13  C   UNL     1      37.985  27.950  37.347  1.00  0.00     0.149 C 
ENDBRANCH   8  11
ENDBRANCH   4   5
ENDBRANCH   1   4
BRANCH   1  14
HETATM   14  C   UNL     1      35.472  24.916  29.571  1.00  0.00     0.264 C 
HETATM   15  O   UNL     1      35.551  26.008  29.021  1.00  0.00    -0.267 OA
HETATM   16  N   UNL     1      34.642  23.950  29.177  1.00  0.00    -0.327 N 
ATOM     17  HN  UNL     1      34.644  23.050  29.658  1.00  0.00     0.165 HD
BRANCH  16  18
HETATM   18  C   UNL     1      33.723  24.174  28.055  1.00  0.00     0.255 C 
HETATM   19  C   UNL     1      33.235  22.833  27.540  1.00  0.00     0.198 C 
HETATM   20  C   UNL     1      32.289  23.103  26.353  1.00  0.00     0.182 C 
HETATM   21  C   UNL     1      31.168  24.054  26.760  1.00  0.00     0.180 C 
HETATM   22  C   UNL     1      31.732  25.311  27.454  1.00  0.00     0.179 C 
HETATM   23  O   UNL     1      32.556  24.929  28.573  1.00  0.00    -0.354 OA
BRANCH  19  24
HETATM   24  O   UNL     1      34.374  22.079  27.117  1.00  0.00    -0.389 OA
ATOM     25  HO  UNL     1      34.269  21.790  26.219  1.00  0.00     0.210 HD
ENDBRANCH  19  24
BRANCH  20  26
HETATM   26  O   UNL     1      31.726  21.892  25.870  1.00  0.00    -0.390 OA
ATOM     27  HO  UNL     1      31.277  22.034  25.045  1.00  0.00     0.210 HD
ENDBRANCH  20  26
BRANCH  21  28
HETATM   28  O   UNL     1      30.449  24.438  25.584  1.00  0.00    -0.390 OA
ATOM     29  HO  UNL     1      30.278  23.659  25.067  1.00  0.00     0.210 HD
ENDBRANCH  21  28
BRANCH  22  30
HETATM   30  C   UNL     1      30.623  26.223  27.964  1.00  0.00     0.198 C 
BRANCH  30  31
HETATM   31  O   UNL     1      29.438  25.460  28.196  1.00  0.00    -0.398 OA
ATOM     32  HO  UNL     1      28.770  26.013  28.584  1.00  0.00     0.209 HD
ENDBRANCH  30  31
ENDBRANCH  22  30
ENDBRANCH  16  18
ENDBRANCH   1  14
TORSDOF 10
ENDMDL
MODEL 12
REMARK VINA RESULT:    -8.819      1.754      2.482
REMARK INTER + INTRA:         -13.590
REMARK INTER:                 -13.578
REMARK INTRA:                  -0.012
REMARK UNBOUND:                -0.648
REMARK  10 active torsions:
REMARK  status: ('A' for Active; 'I' for Inactive)
REMARK       I    between atoms: N_1  and  C_6 
REMARK    1  A    between atoms: N_1  and  C_21 
REMARK    2  A    between atoms: C_3  and  O_25 
REMARK    3  A    between atoms: C_4  and  C_5 
REMARK    4  A    between atoms: C_5  and  O_23 
REMARK    5  A    between atoms: C_6  and  C_7 
REMARK    6  A    between atoms: C_7  and  C_17 
REMARK    7  A    between atoms: C_8  and  C_17 
REMARK    8  A    between atoms: C_9  and  N_13 
REMARK    9  A    between atoms: C_27  and  O_28 
REMARK   10  A    between atoms: C_30  and  O_31 
ROOT
HETATM    1  C   UNL     1      36.146  24.396  30.612  1.00  0.00     0.113 C 
HETATM    2  C   UNL     1      37.400  23.834  30.361  1.00  0.00     0.105 C 
HETATM    3  N   UNL     1      38.383  23.398  30.065  1.00  0.00    -0.191 NA
ENDROOT
BRANCH   1   4
HETATM    4  C   UNL     1      35.676  24.893  31.941  1.00  0.00     0.039 C 
BRANCH   4   5
HETATM    5  C   UNL     1      36.443  25.548  32.913  1.00  0.00    -0.035 A 
HETATM    6  C   UNL     1      35.859  25.621  34.172  1.00  0.00     0.013 A 
HETATM    7  C   UNL     1      36.488  26.270  35.233  1.00  0.00     0.030 A 
HETATM    8  C   UNL     1      37.743  26.870  35.046  1.00  0.00     0.029 A 
HETATM    9  C   UNL     1      38.335  26.777  33.768  1.00  0.00     0.030 A 
HETATM   10  C   UNL     1      37.707  26.121  32.708  1.00  0.00     0.013 A 
BRANCH   8  11
HETATM   11  N   UNL     1      38.353  27.548  36.085  1.00  0.00    -0.390 N 
HETATM   12  C   UNL     1      37.564  27.853  37.291  1.00  0.00     0.149 C 
HETATM   13  C   UNL     1      39.654  28.198  35.862  1.00  0.00     0.149 C 
ENDBRANCH   8  11
ENDBRANCH   4   5
ENDBRANCH   1   4
BRANCH   1  14
HETATM   14  C   UNL     1      35.099  24.283  29.494  1.00  0.00     0.264 C 
HETATM   15  O   UNL     1      35.285  24.810  28.405  1.00  0.00    -0.267 OA
HETATM   16  N   UNL     1      34.033  23.533  29.779  1.00  0.00    -0.327 N 
ATOM     17  HN  UNL     1      33.950  23.096  30.697  1.00  0.00     0.165 HD
BRANCH  16  18
HETATM   18  C   UNL     1      32.978  23.336  28.779  1.00  0.00     0.255 C 
HETATM   19  C   UNL     1      32.332  24.673  28.471  1.00  0.00     0.198 C 
HETATM   20  C   UNL     1      31.218  24.428  27.434  1.00  0.00     0.182 C 
HETATM   21  C   UNL     1      31.771  23.712  26.206  1.00  0.00     0.180 C 
HETATM   22  C   UNL     1      32.584  22.464  26.610  1.00  0.00     0.179 C 
HETATM   23  O   UNL     1      33.620  22.832  27.541  1.00  0.00    -0.354 OA
BRANCH  19  24
HETATM   24  O   UNL     1      31.785  25.193  29.686  1.00  0.00    -0.389 OA
ATOM     25  HO  UNL     1      30.932  24.811  29.859  1.00  0.00     0.210 HD
ENDBRANCH  19  24
BRANCH  20  26
HETATM   26  O   UNL     1      30.622  25.654  27.033  1.00  0.00    -0.390 OA
ATOM     27  HO  UNL     1      29.703  25.531  26.828  1.00  0.00     0.210 HD
ENDBRANCH  20  26
BRANCH  21  28
HETATM   28  O   UNL     1      30.674  23.322  25.375  1.00  0.00    -0.390 OA
ATOM     29  HO  UNL     1      30.004  23.993  25.424  1.00  0.00     0.210 HD
ENDBRANCH  21  28
BRANCH  22  30
HETATM   30  C   UNL     1      33.233  21.795  25.405  1.00  0.00     0.198 C 
BRANCH  30  31
HETATM   31  O   UNL     1      33.095  22.632  24.255  1.00  0.00    -0.398 OA
ATOM     32  HO  UNL     1      33.470  22.200  23.497  1.00  0.00     0.209 HD
ENDBRANCH  30  31
ENDBRANCH  22  30
ENDBRANCH  16  18
ENDBRANCH   1  14
TORSDOF 10
ENDMDL
MODEL 13
REMARK VINA RESULT:    -8.817      4.054      9.158
REMARK INTER + INTRA:         -13.587
REMARK INTER:                 -12.480
REMARK INTRA:                  -1.108
REMARK UNBOUND:                -0.648
REMARK  10 active torsions:
REMARK  status: ('A' for Active; 'I' for Inactive)
REMARK       I    between atoms: N_1  and  C_6 
REMARK    1  A    between atoms: N_1  and  C_21 
REMARK    2  A    between atoms: C_3  and  O_25 
REMARK    3  A    between atoms: C_4  and  C_5 
REMARK    4  A    between atoms: C_5  and  O_23 
REMARK    5  A    between atoms: C_6  and  C_7 
REMARK    6  A    between atoms: C_7  and  C_17 
REMARK    7  A    between atoms: C_8  and  C_17 
REMARK    8  A    between atoms: C_9  and  N_13 
REMARK    9  A    between atoms: C_27  and  O_28 
REMARK   10  A    between atoms: C_30  and  O_31 
ROOT
HETATM    1  C   UNL     1      33.439  24.889  31.785  1.00  0.00     0.113 C 
HETATM    2  C   UNL     1      32.267  24.512  32.444  1.00  0.00     0.105 C 
HETATM    3  N   UNL     1      31.374  24.240  33.055  1.00  0.00    -0.191 NA
ENDROOT
BRANCH   1   4
HETATM    4  C   UNL     1      33.572  25.082  30.308  1.00  0.00     0.039 C 
BRANCH   4   5
HETATM    5  C   UNL     1      33.324  24.131  29.311  1.00  0.00    -0.035 A 
HETATM    6  C   UNL     1      32.264  24.430  28.463  1.00  0.00     0.013 A 
HETATM    7  C   UNL     1      31.877  23.564  27.442  1.00  0.00     0.030 A 
HETATM    8  C   UNL     1      32.563  22.355  27.248  1.00  0.00     0.029 A 
HETATM    9  C   UNL     1      33.647  22.067  28.104  1.00  0.00     0.030 A 
HETATM   10  C   UNL     1      34.038  22.938  29.122  1.00  0.00     0.013 A 
BRANCH   8  11
HETATM   11  N   UNL     1      32.158  21.475  26.261  1.00  0.00    -0.390 N 
HETATM   12  C   UNL     1      30.725  21.164  26.135  1.00  0.00     0.149 C 
HETATM   13  C   UNL     1      33.163  20.656  25.564  1.00  0.00     0.149 C 
ENDBRANCH   8  11
ENDBRANCH   4   5
ENDBRANCH   1   4
BRANCH   1  14
HETATM   14  C   UNL     1      34.733  24.877  32.611  1.00  0.00     0.264 C 
HETATM   15  O   UNL     1      34.703  24.694  33.821  1.00  0.00    -0.267 OA
HETATM   16  N   UNL     1      35.862  25.017  31.914  1.00  0.00    -0.327 N 
ATOM     17  HN  UNL     1      35.822  25.138  30.902  1.00  0.00     0.165 HD
BRANCH  16  18
HETATM   18  C   UNL     1      37.161  24.999  32.596  1.00  0.00     0.255 C 
HETATM   19  C   UNL     1      38.222  24.516  31.626  1.00  0.00     0.198 C 
HETATM   20  C   UNL     1      39.567  24.490  32.378  1.00  0.00     0.182 C 
HETATM   21  C   UNL     1      39.869  25.852  32.994  1.00  0.00     0.180 C 
HETATM   22  C   UNL     1      38.666  26.370  33.810  1.00  0.00     0.179 C 
HETATM   23  O   UNL     1      37.485  26.393  32.985  1.00  0.00    -0.354 OA
BRANCH  19  24
HETATM   24  O   UNL     1      37.861  23.201  31.192  1.00  0.00    -0.389 OA
ATOM     25  HO  UNL     1      37.817  22.605  31.930  1.00  0.00     0.210 HD
ENDBRANCH  19  24
BRANCH  20  26
HETATM   26  O   UNL     1      40.627  24.125  31.505  1.00  0.00    -0.390 OA
ATOM     27  HO  UNL     1      40.742  24.774  30.822  1.00  0.00     0.210 HD
ENDBRANCH  20  26
BRANCH  21  28
HETATM   28  O   UNL     1      41.009  25.722  33.849  1.00  0.00    -0.390 OA
ATOM     29  HO  UNL     1      41.677  26.330  33.555  1.00  0.00     0.210 HD
ENDBRANCH  21  28
BRANCH  22  30
HETATM   30  C   UNL     1      38.907  27.776  34.345  1.00  0.00     0.198 C 
BRANCH  30  31
HETATM   31  O   UNL     1      40.014  28.370  33.664  1.00  0.00    -0.398 OA
ATOM     32  HO  UNL     1      40.784  28.343  34.219  1.00  0.00     0.209 HD
ENDBRANCH  30  31
ENDBRANCH  22  30
ENDBRANCH  16  18
ENDBRANCH   1  14
TORSDOF 10
ENDMDL
MODEL 14
REMARK VINA RESULT:    -8.717      4.813      9.609
REMARK INTER + INTRA:         -13.442
REMARK INTER:                 -12.494
REMARK INTRA:                  -0.948
REMARK UNBOUND:                -0.648
REMARK  10 active torsions:
REMARK  status: ('A' for Active; 'I' for Inactive)
REMARK       I    between atoms: N_1  and  C_6 
REMARK    1  A    between atoms: N_1  and  C_21 
REMARK    2  A    between atoms: C_3  and  O_25 
REMARK    3  A    between atoms: C_4  and  C_5 
REMARK    4  A    between atoms: C_5  and  O_23 
REMARK    5  A    between atoms: C_6  and  C_7 
REMARK    6  A    between atoms: C_7  and  C_17 
REMARK    7  A    between atoms: C_8  and  C_17 
REMARK    8  A    between atoms: C_9  and  N_13 
REMARK    9  A    between atoms: C_27  and  O_28 
REMARK   10  A    between atoms: C_30  and  O_31 
ROOT
HETATM    1  C   UNL     1      37.063  24.141  31.304  1.00  0.00     0.113 C 
HETATM    2  C   UNL     1      38.024  23.741  30.373  1.00  0.00     0.105 C 
HETATM    3  N   UNL     1      38.860  23.460  29.689  1.00  0.00    -0.191 NA
ENDROOT
BRANCH   1   4
HETATM    4  C   UNL     1      35.647  23.663  31.340  1.00  0.00     0.039 C 
BRANCH   4   5
HETATM    5  C   UNL     1      34.563  24.195  30.631  1.00  0.00    -0.035 A 
HETATM    6  C   UNL     1      34.419  23.721  29.332  1.00  0.00     0.013 A 
HETATM    7  C   UNL     1      33.406  24.182  28.493  1.00  0.00     0.030 A 
HETATM    8  C   UNL     1      32.497  25.148  28.953  1.00  0.00     0.029 A 
HETATM    9  C   UNL     1      32.641  25.611  30.278  1.00  0.00     0.030 A 
HETATM   10  C   UNL     1      33.653  25.144  31.120  1.00  0.00     0.013 A 
BRANCH   8  11
HETATM   11  N   UNL     1      31.514  25.635  28.112  1.00  0.00    -0.390 N 
HETATM   12  C   UNL     1      30.790  26.856  28.504  1.00  0.00     0.149 C 
HETATM   13  C   UNL     1      31.012  24.789  27.017  1.00  0.00     0.149 C 
ENDBRANCH   8  11
ENDBRANCH   4   5
ENDBRANCH   1   4
BRANCH   1  14
HETATM   14  C   UNL     1      37.427  25.327  32.209  1.00  0.00     0.264 C 
HETATM   15  O   UNL     1      38.117  26.247  31.790  1.00  0.00    -0.267 OA
HETATM   16  N   UNL     1      36.893  25.302  33.432  1.00  0.00    -0.327 N 
ATOM     17  HN  UNL     1      36.302  24.520  33.712  1.00  0.00     0.165 HD
BRANCH  16  18
HETATM   18  C   UNL     1      37.154  26.395  34.375  1.00  0.00     0.255 C 
HETATM   19  C   UNL     1      36.201  26.272  35.549  1.00  0.00     0.198 C 
HETATM   20  C   UNL     1      36.487  27.443  36.510  1.00  0.00     0.182 C 
HETATM   21  C   UNL     1      37.959  27.467  36.909  1.00  0.00     0.180 C 
HETATM   22  C   UNL     1      38.872  27.393  35.668  1.00  0.00     0.179 C 
HETATM   23  O   UNL     1      38.539  26.234  34.880  1.00  0.00    -0.354 OA
BRANCH  19  24
HETATM   24  O   UNL     1      34.864  26.347  35.046  1.00  0.00    -0.389 OA
ATOM     25  HO  UNL     1      34.648  27.239  34.802  1.00  0.00     0.210 HD
ENDBRANCH  19  24
BRANCH  20  26
HETATM   26  O   UNL     1      35.685  27.346  37.679  1.00  0.00    -0.390 OA
ATOM     27  HO  UNL     1      36.075  26.751  38.308  1.00  0.00     0.210 HD
ENDBRANCH  20  26
BRANCH  21  28
HETATM   28  O   UNL     1      38.216  28.681  37.623  1.00  0.00    -0.390 OA
ATOM     29  HO  UNL     1      38.639  28.464  38.445  1.00  0.00     0.210 HD
ENDBRANCH  21  28
BRANCH  22  30
HETATM   30  C   UNL     1      40.344  27.309  36.051  1.00  0.00     0.198 C 
BRANCH  30  31
HETATM   31  O   UNL     1      40.508  26.407  37.147  1.00  0.00    -0.398 OA
ATOM     32  HO  UNL     1      40.863  25.584  36.835  1.00  0.00     0.209 HD
ENDBRANCH  30  31
ENDBRANCH  22  30
ENDBRANCH  16  18
ENDBRANCH   1  14
TORSDOF 10
ENDMDL
MODEL 15
REMARK VINA RESULT:    -8.588      3.906      9.207
REMARK INTER + INTRA:         -13.252
REMARK INTER:                 -12.201
REMARK INTRA:                  -1.052
REMARK UNBOUND:                -0.648
REMARK  10 active torsions:
REMARK  status: ('A' for Active; 'I' for Inactive)
REMARK       I    between atoms: N_1  and  C_6 
REMARK    1  A    between atoms: N_1  and  C_21 
REMARK    2  A    between atoms: C_3  and  O_25 
REMARK    3  A    between atoms: C_4  and  C_5 
REMARK    4  A    between atoms: C_5  and  O_23 
REMARK    5  A    between atoms: C_6  and  C_7 
REMARK    6  A    between atoms: C_7  and  C_17 
REMARK    7  A    between atoms: C_8  and  C_17 
REMARK    8  A    between atoms: C_9  and  N_13 
REMARK    9  A    between atoms: C_27  and  O_28 
REMARK   10  A    between atoms: C_30  and  O_31 
ROOT
HETATM    1  C   UNL     1      35.223  26.060  28.365  1.00  0.00     0.113 C 
HETATM    2  C   UNL     1      36.058  26.627  27.400  1.00  0.00     0.105 C 
HETATM    3  N   UNL     1      36.802  27.049  26.684  1.00  0.00    -0.191 NA
ENDROOT
BRANCH   1   4
HETATM    4  C   UNL     1      33.763  25.792  28.190  1.00  0.00     0.039 C 
BRANCH   4   5
HETATM    5  C   UNL     1      33.164  24.562  27.888  1.00  0.00    -0.035 A 
HETATM    6  C   UNL     1      33.751  23.457  28.496  1.00  0.00     0.013 A 
HETATM    7  C   UNL     1      33.286  22.164  28.267  1.00  0.00     0.030 A 
HETATM    8  C   UNL     1      32.200  21.949  27.404  1.00  0.00     0.029 A 
HETATM    9  C   UNL     1      31.601  23.078  26.804  1.00  0.00     0.030 A 
HETATM   10  C   UNL     1      32.064  24.374  27.040  1.00  0.00     0.013 A 
BRANCH   8  11
HETATM   11  N   UNL     1      31.760  20.665  27.144  1.00  0.00    -0.390 N 
HETATM   12  C   UNL     1      30.673  20.473  26.169  1.00  0.00     0.149 C 
HETATM   13  C   UNL     1      32.163  19.566  28.036  1.00  0.00     0.149 C 
ENDBRANCH   8  11
ENDBRANCH   4   5
ENDBRANCH   1   4
BRANCH   1  14
HETATM   14  C   UNL     1      35.798  25.916  29.782  1.00  0.00     0.264 C 
HETATM   15  O   UNL     1      35.058  25.831  30.753  1.00  0.00    -0.267 OA
HETATM   16  N   UNL     1      37.127  25.832  29.857  1.00  0.00    -0.327 N 
ATOM     17  HN  UNL     1      37.688  25.881  29.007  1.00  0.00     0.165 HD
BRANCH  16  18
HETATM   18  C   UNL     1      37.786  25.671  31.158  1.00  0.00     0.255 C 
HETATM   19  C   UNL     1      39.020  24.806  30.982  1.00  0.00     0.198 C 
HETATM   20  C   UNL     1      39.677  24.640  32.367  1.00  0.00     0.182 C 
HETATM   21  C   UNL     1      39.960  25.999  32.998  1.00  0.00     0.180 C 
HETATM   22  C   UNL     1      38.707  26.898  32.964  1.00  0.00     0.179 C 
HETATM   23  O   UNL     1      38.219  27.014  31.614  1.00  0.00    -0.354 OA
BRANCH  19  24
HETATM   24  O   UNL     1      38.605  23.538  30.466  1.00  0.00    -0.389 OA
ATOM     25  HO  UNL     1      38.140  23.043  31.129  1.00  0.00     0.210 HD
ENDBRANCH  19  24
BRANCH  20  26
HETATM   26  O   UNL     1      40.890  23.907  32.267  1.00  0.00    -0.390 OA
ATOM     27  HO  UNL     1      41.319  24.075  31.437  1.00  0.00     0.210 HD
ENDBRANCH  20  26
BRANCH  21  28
HETATM   28  O   UNL     1      40.369  25.795  34.354  1.00  0.00    -0.390 OA
ATOM     29  HO  UNL     1      40.697  26.618  34.697  1.00  0.00     0.210 HD
ENDBRANCH  21  28
BRANCH  22  30
HETATM   30  C   UNL     1      38.998  28.297  33.493  1.00  0.00     0.198 C 
BRANCH  30  31
HETATM   31  O   UNL     1      40.396  28.433  33.758  1.00  0.00    -0.398 OA
ATOM     32  HO  UNL     1      40.581  28.162  34.649  1.00  0.00     0.209 HD
ENDBRANCH  30  31
ENDBRANCH  22  30
ENDBRANCH  16  18
ENDBRANCH   1  14
TORSDOF 10
ENDMDL
MODEL 16
REMARK VINA RESULT:    -8.356      2.324      3.275
REMARK INTER + INTRA:         -12.911
REMARK INTER:                 -12.098
REMARK INTRA:                  -0.812
REMARK UNBOUND:                -0.648
REMARK  10 active torsions:
REMARK  status: ('A' for Active; 'I' for Inactive)
REMARK       I    between atoms: N_1  and  C_6 
REMARK    1  A    between atoms: N_1  and  C_21 
REMARK    2  A    between atoms: C_3  and  O_25 
REMARK    3  A    between atoms: C_4  and  C_5 
REMARK    4  A    between atoms: C_5  and  O_23 
REMARK    5  A    between atoms: C_6  and  C_7 
REMARK    6  A    between atoms: C_7  and  C_17 
REMARK    7  A    between atoms: C_8  and  C_17 
REMARK    8  A    between atoms: C_9  and  N_13 
REMARK    9  A    between atoms: C_27  and  O_28 
REMARK   10  A    between atoms: C_30  and  O_31 
ROOT
HETATM    1  C   UNL     1      33.324  24.992  31.530  1.00  0.00     0.113 C 
HETATM    2  C   UNL     1      32.349  24.543  32.425  1.00  0.00     0.105 C 
HETATM    3  N   UNL     1      31.536  24.127  33.066  1.00  0.00    -0.191 NA
ENDROOT
BRANCH   1   4
HETATM    4  C   UNL     1      34.572  25.720  31.912  1.00  0.00     0.039 C 
BRANCH   4   5
HETATM    5  C   UNL     1      35.885  25.237  31.829  1.00  0.00    -0.035 A 
HETATM    6  C   UNL     1      36.818  25.938  32.585  1.00  0.00     0.013 A 
HETATM    7  C   UNL     1      38.169  25.595  32.579  1.00  0.00     0.030 A 
HETATM    8  C   UNL     1      38.618  24.519  31.799  1.00  0.00     0.029 A 
HETATM    9  C   UNL     1      37.662  23.804  31.047  1.00  0.00     0.030 A 
HETATM   10  C   UNL     1      36.307  24.144  31.058  1.00  0.00     0.013 A 
BRANCH   8  11
HETATM   11  N   UNL     1      39.963  24.200  31.761  1.00  0.00    -0.390 N 
HETATM   12  C   UNL     1      40.779  24.430  32.964  1.00  0.00     0.149 C 
HETATM   13  C   UNL     1      40.606  23.922  30.466  1.00  0.00     0.149 C 
ENDBRANCH   8  11
ENDBRANCH   4   5
ENDBRANCH   1   4
BRANCH   1  14
HETATM   14  C   UNL     1      32.971  24.938  30.037  1.00  0.00     0.264 C 
HETATM   15  O   UNL     1      32.465  25.901  29.477  1.00  0.00    -0.267 OA
HETATM   16  N   UNL     1      33.309  23.811  29.407  1.00  0.00    -0.327 N 
ATOM     17  HN  UNL     1      33.756  23.054  29.924  1.00  0.00     0.165 HD
BRANCH  16  18
HETATM   18  C   UNL     1      33.041  23.656  27.973  1.00  0.00     0.255 C 
HETATM   19  C   UNL     1      34.305  23.975  27.197  1.00  0.00     0.198 C 
HETATM   20  C   UNL     1      33.984  23.822  25.696  1.00  0.00     0.182 C 
HETATM   21  C   UNL     1      33.413  22.438  25.404  1.00  0.00     0.180 C 
HETATM   22  C   UNL     1      32.253  22.103  26.365  1.00  0.00     0.179 C 
HETATM   23  O   UNL     1      32.691  22.235  27.731  1.00  0.00    -0.354 OA
BRANCH  19  24
HETATM   24  O   UNL     1      34.682  25.322  27.497  1.00  0.00    -0.389 OA
ATOM     25  HO  UNL     1      33.949  25.912  27.367  1.00  0.00     0.210 HD
ENDBRANCH  19  24
BRANCH  20  26
HETATM   26  O   UNL     1      35.148  24.025  24.908  1.00  0.00    -0.390 OA
ATOM     27  HO  UNL     1      35.600  23.204  24.754  1.00  0.00     0.210 HD
ENDBRANCH  20  26
BRANCH  21  28
HETATM   28  O   UNL     1      32.939  22.418  24.054  1.00  0.00    -0.390 OA
ATOM     29  HO  UNL     1      32.136  22.924  24.009  1.00  0.00     0.210 HD
ENDBRANCH  21  28
BRANCH  22  30
HETATM   30  C   UNL     1      31.739  20.683  26.160  1.00  0.00     0.198 C 
BRANCH  30  31
HETATM   31  O   UNL     1      32.814  19.753  26.309  1.00  0.00    -0.398 OA
ATOM     32  HO  UNL     1      33.590  20.088  25.874  1.00  0.00     0.209 HD
ENDBRANCH  30  31
ENDBRANCH  22  30
ENDBRANCH  16  18
ENDBRANCH   1  14
TORSDOF 10
ENDMDL
MODEL 17
REMARK VINA RESULT:    -8.320      2.187      3.439
REMARK INTER + INTRA:         -12.859
REMARK INTER:                 -12.372
REMARK INTRA:                  -0.486
REMARK UNBOUND:                -0.648
REMARK  10 active torsions:
REMARK  status: ('A' for Active; 'I' for Inactive)
REMARK       I    between atoms: N_1  and  C_6 
REMARK    1  A    between atoms: N_1  and  C_21 
REMARK    2  A    between atoms: C_3  and  O_25 
REMARK    3  A    between atoms: C_4  and  C_5 
REMARK    4  A    between atoms: C_5  and  O_23 
REMARK    5  A    between atoms: C_6  and  C_7 
REMARK    6  A    between atoms: C_7  and  C_17 
REMARK    7  A    between atoms: C_8  and  C_17 
REMARK    8  A    between atoms: C_9  and  N_13 
REMARK    9  A    between atoms: C_27  and  O_28 
REMARK   10  A    between atoms: C_30  and  O_31 
ROOT
HETATM    1  C   UNL     1      33.802  24.606  31.818  1.00  0.00     0.113 C 
HETATM    2  C   UNL     1      32.540  25.128  32.108  1.00  0.00     0.105 C 
HETATM    3  N   UNL     1      31.505  25.521  32.247  1.00  0.00    -0.191 NA
ENDROOT
BRANCH   1   4
HETATM    4  C   UNL     1      34.848  24.270  32.833  1.00  0.00     0.039 C 
BRANCH   4   5
HETATM    5  C   UNL     1      35.893  25.095  33.268  1.00  0.00    -0.035 A 
HETATM    6  C   UNL     1      35.783  25.541  34.580  1.00  0.00     0.013 A 
HETATM    7  C   UNL     1      36.729  26.394  35.144  1.00  0.00     0.030 A 
HETATM    8  C   UNL     1      37.828  26.826  34.385  1.00  0.00     0.029 A 
HETATM    9  C   UNL     1      37.939  26.356  33.059  1.00  0.00     0.030 A 
HETATM   10  C   UNL     1      36.994  25.495  32.497  1.00  0.00     0.013 A 
BRANCH   8  11
HETATM   11  N   UNL     1      38.749  27.702  34.928  1.00  0.00    -0.390 N 
HETATM   12  C   UNL     1      39.797  28.257  34.056  1.00  0.00     0.149 C 
HETATM   13  C   UNL     1      38.848  27.835  36.391  1.00  0.00     0.149 C 
ENDBRANCH   8  11
ENDBRANCH   4   5
ENDBRANCH   1   4
BRANCH   1  14
HETATM   14  C   UNL     1      34.227  24.596  30.343  1.00  0.00     0.264 C 
HETATM   15  O   UNL     1      35.171  23.912  29.967  1.00  0.00    -0.267 OA
HETATM   16  N   UNL     1      33.467  25.321  29.521  1.00  0.00    -0.327 N 
ATOM     17  HN  UNL     1      32.675  25.846  29.892  1.00  0.00     0.165 HD
BRANCH  16  18
HETATM   18  C   UNL     1      33.765  25.368  28.085  1.00  0.00     0.255 C 
HETATM   19  C   UNL     1      35.153  25.946  27.887  1.00  0.00     0.198 C 
HETATM   20  C   UNL     1      35.427  26.000  26.371  1.00  0.00     0.182 C 
HETATM   21  C   UNL     1      35.235  24.625  25.738  1.00  0.00     0.180 C 
HETATM   22  C   UNL     1      33.879  24.012  26.144  1.00  0.00     0.179 C 
HETATM   23  O   UNL     1      33.765  23.973  27.579  1.00  0.00    -0.354 OA
BRANCH  19  24
HETATM   24  O   UNL     1      35.170  27.262  28.449  1.00  0.00    -0.389 OA
ATOM     25  HO  UNL     1      35.905  27.760  28.113  1.00  0.00     0.210 HD
ENDBRANCH  19  24
BRANCH  20  26
HETATM   26  O   UNL     1      36.747  26.456  26.111  1.00  0.00    -0.390 OA
ATOM     27  HO  UNL     1      36.750  27.104  25.417  1.00  0.00     0.210 HD
ENDBRANCH  20  26
BRANCH  21  28
HETATM   28  O   UNL     1      35.292  24.768  24.316  1.00  0.00    -0.390 OA
ATOM     29  HO  UNL     1      35.544  23.933  23.939  1.00  0.00     0.210 HD
ENDBRANCH  21  28
BRANCH  22  30
HETATM   30  C   UNL     1      33.714  22.595  25.609  1.00  0.00     0.198 C 
BRANCH  30  31
HETATM   31  O   UNL     1      33.317  22.639  24.237  1.00  0.00    -0.398 OA
ATOM     32  HO  UNL     1      33.934  23.164  23.741  1.00  0.00     0.209 HD
ENDBRANCH  30  31
ENDBRANCH  22  30
ENDBRANCH  16  18
ENDBRANCH   1  14
TORSDOF 10
ENDMDL
MODEL 18
REMARK VINA RESULT:    -8.293      2.195      3.159
REMARK INTER + INTRA:         -12.818
REMARK INTER:                 -12.441
REMARK INTRA:                  -0.378
REMARK UNBOUND:                -0.648
REMARK  10 active torsions:
REMARK  status: ('A' for Active; 'I' for Inactive)
REMARK       I    between atoms: N_1  and  C_6 
REMARK    1  A    between atoms: N_1  and  C_21 
REMARK    2  A    between atoms: C_3  and  O_25 
REMARK    3  A    between atoms: C_4  and  C_5 
REMARK    4  A    between atoms: C_5  and  O_23 
REMARK    5  A    between atoms: C_6  and  C_7 
REMARK    6  A    between atoms: C_7  and  C_17 
REMARK    7  A    between atoms: C_8  and  C_17 
REMARK    8  A    between atoms: C_9  and  N_13 
REMARK    9  A    between atoms: C_27  and  O_28 
REMARK   10  A    between atoms: C_30  and  O_31 
ROOT
HETATM    1  C   UNL     1      36.840  26.054  29.110  1.00  0.00     0.113 C 
HETATM    2  C   UNL     1      37.438  26.942  28.212  1.00  0.00     0.105 C 
HETATM    3  N   UNL     1      37.824  27.677  27.467  1.00  0.00    -0.191 NA
ENDROOT
BRANCH   1   4
HETATM    4  C   UNL     1      37.535  25.387  30.253  1.00  0.00     0.039 C 
BRANCH   4   5
HETATM    5  C   UNL     1      37.443  25.731  31.608  1.00  0.00    -0.035 A 
HETATM    6  C   UNL     1      38.504  26.486  32.095  1.00  0.00     0.013 A 
HETATM    7  C   UNL     1      38.569  26.877  33.432  1.00  0.00     0.030 A 
HETATM    8  C   UNL     1      37.549  26.509  34.323  1.00  0.00     0.029 A 
HETATM    9  C   UNL     1      36.470  25.755  33.815  1.00  0.00     0.030 A 
HETATM   10  C   UNL     1      36.402  25.369  32.474  1.00  0.00     0.013 A 
BRANCH   8  11
HETATM   11  N   UNL     1      37.629  26.861  35.657  1.00  0.00    -0.390 N 
HETATM   12  C   UNL     1      36.383  27.130  36.394  1.00  0.00     0.149 C 
HETATM   13  C   UNL     1      38.930  27.243  36.229  1.00  0.00     0.149 C 
ENDBRANCH   8  11
ENDBRANCH   4   5
ENDBRANCH   1   4
BRANCH   1  14
HETATM   14  C   UNL     1      35.432  25.554  28.755  1.00  0.00     0.264 C 
HETATM   15  O   UNL     1      34.745  24.975  29.587  1.00  0.00    -0.267 OA
HETATM   16  N   UNL     1      35.010  25.847  27.525  1.00  0.00    -0.327 N 
ATOM     17  HN  UNL     1      35.620  26.358  26.887  1.00  0.00     0.165 HD
BRANCH  16  18
HETATM   18  C   UNL     1      33.672  25.439  27.083  1.00  0.00     0.255 C 
HETATM   19  C   UNL     1      33.661  23.937  26.865  1.00  0.00     0.198 C 
HETATM   20  C   UNL     1      32.250  23.544  26.384  1.00  0.00     0.182 C 
HETATM   21  C   UNL     1      31.189  24.033  27.365  1.00  0.00     0.180 C 
HETATM   22  C   UNL     1      31.383  25.529  27.691  1.00  0.00     0.179 C 
HETATM   23  O   UNL     1      32.720  25.758  28.175  1.00  0.00    -0.354 OA
BRANCH  19  24
HETATM   24  O   UNL     1      34.638  23.627  25.868  1.00  0.00    -0.389 OA
ATOM     25  HO  UNL     1      35.384  23.186  26.256  1.00  0.00     0.210 HD
ENDBRANCH  19  24
BRANCH  20  26
HETATM   26  O   UNL     1      32.140  22.135  26.238  1.00  0.00    -0.390 OA
ATOM     27  HO  UNL     1      31.499  21.914  25.573  1.00  0.00     0.210 HD
ENDBRANCH  20  26
BRANCH  21  28
HETATM   28  O   UNL     1      29.900  23.834  26.777  1.00  0.00    -0.390 OA
ATOM     29  HO  UNL     1      29.247  24.244  27.333  1.00  0.00     0.210 HD
ENDBRANCH  21  28
BRANCH  22  30
HETATM   30  C   UNL     1      30.399  26.010  28.750  1.00  0.00     0.198 C 
BRANCH  30  31
HETATM   31  O   UNL     1      29.066  25.946  28.237  1.00  0.00    -0.398 OA
ATOM     32  HO  UNL     1      28.507  26.541  28.721  1.00  0.00     0.209 HD
ENDBRANCH  30  31
ENDBRANCH  22  30
ENDBRANCH  16  18
ENDBRANCH   1  14
TORSDOF 10
ENDMDL
MODEL 19
REMARK VINA RESULT:    -8.273      3.830      9.801
REMARK INTER + INTRA:         -12.790
REMARK INTER:                 -12.131
REMARK INTRA:                  -0.659
REMARK UNBOUND:                -0.648
REMARK  10 active torsions:
REMARK  status: ('A' for Active; 'I' for Inactive)
REMARK       I    between atoms: N_1  and  C_6 
REMARK    1  A    between atoms: N_1  and  C_21 
REMARK    2  A    between atoms: C_3  and  O_25 
REMARK    3  A    between atoms: C_4  and  C_5 
REMARK    4  A    between atoms: C_5  and  O_23 
REMARK    5  A    between atoms: C_6  and  C_7 
REMARK    6  A    between atoms: C_7  and  C_17 
REMARK    7  A    between atoms: C_8  and  C_17 
REMARK    8  A    between atoms: C_9  and  N_13 
REMARK    9  A    between atoms: C_27  and  O_28 
REMARK   10  A    between atoms: C_30  and  O_31 
ROOT
HETATM    1  C   UNL     1      35.870  24.849  30.057  1.00  0.00     0.113 C 
HETATM    2  C   UNL     1      36.454  25.527  28.984  1.00  0.00     0.105 C 
HETATM    3  N   UNL     1      36.971  26.122  28.194  1.00  0.00    -0.191 NA
ENDROOT
BRANCH   1   4
HETATM    4  C   UNL     1      35.131  23.553  29.956  1.00  0.00     0.039 C 
BRANCH   4   5
HETATM    5  C   UNL     1      34.060  23.261  29.102  1.00  0.00    -0.035 A 
HETATM    6  C   UNL     1      34.024  21.954  28.629  1.00  0.00     0.013 A 
HETATM    7  C   UNL     1      33.036  21.524  27.745  1.00  0.00     0.030 A 
HETATM    8  C   UNL     1      32.044  22.415  27.311  1.00  0.00     0.029 A 
HETATM    9  C   UNL     1      32.079  23.735  27.809  1.00  0.00     0.030 A 
HETATM   10  C   UNL     1      33.065  24.165  28.700  1.00  0.00     0.013 A 
BRANCH   8  11
HETATM   11  N   UNL     1      31.084  22.002  26.406  1.00  0.00    -0.390 N 
HETATM   12  C   UNL     1      30.420  23.015  25.567  1.00  0.00     0.149 C 
HETATM   13  C   UNL     1      30.541  20.637  26.497  1.00  0.00     0.149 C 
ENDBRANCH   8  11
ENDBRANCH   4   5
ENDBRANCH   1   4
BRANCH   1  14
HETATM   14  C   UNL     1      35.784  25.605  31.391  1.00  0.00     0.264 C 
HETATM   15  O   UNL     1      34.721  26.071  31.779  1.00  0.00    -0.267 OA
HETATM   16  N   UNL     1      36.914  25.655  32.097  1.00  0.00    -0.327 N 
ATOM     17  HN  UNL     1      37.762  25.221  31.731  1.00  0.00     0.165 HD
BRANCH  16  18
HETATM   18  C   UNL     1      36.945  26.333  33.398  1.00  0.00     0.255 C 
HETATM   19  C   UNL     1      36.514  25.354  34.475  1.00  0.00     0.198 C 
HETATM   20  C   UNL     1      36.538  26.101  35.823  1.00  0.00     0.182 C 
HETATM   21  C   UNL     1      37.906  26.728  36.070  1.00  0.00     0.180 C 
HETATM   22  C   UNL     1      38.367  27.552  34.850  1.00  0.00     0.179 C 
HETATM   23  O   UNL     1      38.348  26.733  33.665  1.00  0.00    -0.354 OA
BRANCH  19  24
HETATM   24  O   UNL     1      35.189  24.911  34.167  1.00  0.00    -0.389 OA
ATOM     25  HO  UNL     1      34.555  25.590  34.361  1.00  0.00     0.210 HD
ENDBRANCH  19  24
BRANCH  20  26
HETATM   26  O   UNL     1      36.224  25.222  36.894  1.00  0.00    -0.390 OA
ATOM     27  HO  UNL     1      35.314  25.310  37.148  1.00  0.00     0.210 HD
ENDBRANCH  20  26
BRANCH  21  28
HETATM   28  O   UNL     1      37.817  27.578  37.217  1.00  0.00    -0.390 OA
ATOM     29  HO  UNL     1      37.475  28.421  36.943  1.00  0.00     0.210 HD
ENDBRANCH  21  28
BRANCH  22  30
HETATM   30  C   UNL     1      39.777  28.099  35.034  1.00  0.00     0.198 C 
BRANCH  30  31
HETATM   31  O   UNL     1      39.749  29.224  35.915  1.00  0.00    -0.398 OA
ATOM     32  HO  UNL     1      40.162  29.969  35.496  1.00  0.00     0.209 HD
ENDBRANCH  30  31
ENDBRANCH  22  30
ENDBRANCH  16  18
ENDBRANCH   1  14
TORSDOF 10
ENDMDL
MODEL 20
REMARK VINA RESULT:    -8.130      2.828      4.750
REMARK INTER + INTRA:         -12.580
REMARK INTER:                 -12.269
REMARK INTRA:                  -0.312
REMARK UNBOUND:                -0.648
REMARK  10 active torsions:
REMARK  status: ('A' for Active; 'I' for Inactive)
REMARK       I    between atoms: N_1  and  C_6 
REMARK    1  A    between atoms: N_1  and  C_21 
REMARK    2  A    between atoms: C_3  and  O_25 
REMARK    3  A    between atoms: C_4  and  C_5 
REMARK    4  A    between atoms: C_5  and  O_23 
REMARK    5  A    between atoms: C_6  and  C_7 
REMARK    6  A    between atoms: C_7  and  C_17 
REMARK    7  A    between atoms: C_8  and  C_17 
REMARK    8  A    between atoms: C_9  and  N_13 
REMARK    9  A    between atoms: C_27  and  O_28 
REMARK   10  A    between atoms: C_30  and  O_31 
ROOT
HETATM    1  C   UNL     1      33.976  24.603  32.171  1.00  0.00     0.113 C 
HETATM    2  C   UNL     1      32.637  24.983  32.064  1.00  0.00     0.105 C 
HETATM    3  N   UNL     1      31.567  25.248  31.888  1.00  0.00    -0.191 NA
ENDROOT
BRANCH   1   4
HETATM    4  C   UNL     1      34.757  24.551  33.445  1.00  0.00     0.039 C 
BRANCH   4   5
HETATM    5  C   UNL     1      35.861  25.342  33.787  1.00  0.00    -0.035 A 
HETATM    6  C   UNL     1      36.864  25.399  32.825  1.00  0.00     0.013 A 
HETATM    7  C   UNL     1      38.038  26.120  33.035  1.00  0.00     0.030 A 
HETATM    8  C   UNL     1      38.232  26.813  34.240  1.00  0.00     0.029 A 
HETATM    9  C   UNL     1      37.202  26.761  35.204  1.00  0.00     0.030 A 
HETATM   10  C   UNL     1      36.023  26.044  34.990  1.00  0.00     0.013 A 
BRANCH   8  11
HETATM   11  N   UNL     1      39.411  27.498  34.468  1.00  0.00    -0.390 N 
HETATM   12  C   UNL     1      39.799  28.567  33.534  1.00  0.00     0.149 C 
HETATM   13  C   UNL     1      40.381  26.968  35.439  1.00  0.00     0.149 C 
ENDBRANCH   8  11
ENDBRANCH   4   5
ENDBRANCH   1   4
BRANCH   1  14
HETATM   14  C   UNL     1      34.761  24.451  30.860  1.00  0.00     0.264 C 
HETATM   15  O   UNL     1      35.345  23.408  30.596  1.00  0.00    -0.267 OA
HETATM   16  N   UNL     1      34.703  25.495  30.031  1.00  0.00    -0.327 N 
ATOM     17  HN  UNL     1      34.175  26.326  30.297  1.00  0.00     0.165 HD
BRANCH  16  18
HETATM   18  C   UNL     1      35.397  25.453  28.739  1.00  0.00     0.255 C 
HETATM   19  C   UNL     1      34.440  24.937  27.681  1.00  0.00     0.198 C 
HETATM   20  C   UNL     1      35.203  24.887  26.343  1.00  0.00     0.182 C 
HETATM   21  C   UNL     1      35.810  26.248  26.016  1.00  0.00     0.180 C 
HETATM   22  C   UNL     1      36.611  26.800  27.213  1.00  0.00     0.179 C 
HETATM   23  O   UNL     1      35.776  26.843  28.386  1.00  0.00    -0.354 OA
BRANCH  19  24
HETATM   24  O   UNL     1      34.014  23.627  28.068  1.00  0.00    -0.389 OA
ATOM     25  HO  UNL     1      33.118  23.645  28.382  1.00  0.00     0.210 HD
ENDBRANCH  19  24
BRANCH  20  26
HETATM   26  O   UNL     1      34.343  24.490  25.284  1.00  0.00    -0.390 OA
ATOM     27  HO  UNL     1      34.835  24.071  24.588  1.00  0.00     0.210 HD
ENDBRANCH  20  26
BRANCH  21  28
HETATM   28  O   UNL     1      36.676  26.100  24.886  1.00  0.00    -0.390 OA
ATOM     29  HO  UNL     1      37.547  26.388  25.134  1.00  0.00     0.210 HD
ENDBRANCH  21  28
BRANCH  22  30
HETATM   30  C   UNL     1      37.136  28.205  26.944  1.00  0.00     0.198 C 
BRANCH  30  31
HETATM   31  O   UNL     1      37.288  28.909  28.179  1.00  0.00    -0.398 OA
ATOM     32  HO  UNL     1      36.459  29.298  28.431  1.00  0.00     0.209 HD
ENDBRANCH  30  31
ENDBRANCH  22  30
ENDBRANCH  16  18
ENDBRANCH   1  14
TORSDOF 10
ENDMDL
