REMARK  10 active torsions:
REMARK  status: ('A' for Active; 'I' for Inactive)
REMARK    1  A    between atoms: C_2  and  C_16 
REMARK    2  A    between atoms: C_2  and  N_23 
REMARK    3  A    between atoms: C_6  and  C_9 
REMARK    4  A    between atoms: C_10  and  N_29 
REMARK       I    between atoms: C_16  and  N_37 
REMARK    5  A    between atoms: C_17  and  CA_38 
REMARK    6  A    between atoms: C_17  and  O_39 
REMARK    7  A    between atoms: C_20  and  N_44 
REMARK    8  A    between atoms: N_29  and  C_30 
REMARK    9  A    between atoms: N_37  and  CA_38 
REMARK   10  A    between atoms: CA_38  and  C_40 
ROOT
HETATM    1  C   UNL     1       1.829  -0.608  -4.288  1.00  0.00    -0.025 A 
HETATM    2  C   UNL     1       2.728   0.267  -4.894  1.00  0.00     0.011 A 
HETATM    3  C   UNL     1       4.005   0.418  -4.327  1.00  0.00     0.014 A 
HETATM    4  C   UNL     1       4.374  -0.315  -3.171  1.00  0.00    -0.006 A 
HETATM    5  C   UNL     1       2.176  -1.296  -3.150  1.00  0.00     0.041 A 
HETATM    6  C   UNL     1       1.031  -2.066  -2.745  1.00  0.00     0.255 A 
HETATM    7  N   UNL     1      -0.040  -1.861  -3.666  1.00  0.00    -0.331 N 
HETATM    8  C   UNL     1       0.413  -0.903  -4.686  1.00  0.00     0.166 A 
HETATM    9  C   UNL     1       3.432  -1.171  -2.564  1.00  0.00     0.031 A 
HETATM   10  O   UNL     1       0.958  -2.789  -1.717  1.00  0.00    -0.267 OA
ENDROOT
BRANCH   7  11
HETATM   11  C   UNL     1      -1.439  -2.222  -3.411  1.00  0.00     0.175 C 
HETATM   12  C   UNL     1      -2.064  -2.844  -4.667  1.00  0.00     0.042 C 
BRANCH  11  13
HETATM   13  C   UNL     1      -2.195  -1.012  -2.911  1.00  0.00     0.241 C 
HETATM   14  O   UNL     1      -3.135  -0.514  -3.595  1.00  0.00    -0.271 OA
HETATM   15  N   UNL     1      -1.812  -0.409  -1.664  1.00  0.00    -0.347 N 
HETATM   16  H   UNL     1      -1.027  -0.841  -1.132  1.00  0.00     0.163 HD
BRANCH  15  17
HETATM   17  CA  UNL     1      -2.404   0.841  -1.174  1.00  0.00     0.158 C 
BRANCH  17  18
HETATM   18  C   UNL     1      -1.657   2.057  -1.756  1.00  0.00     0.195 C 
BRANCH  18  19
HETATM   19  O   UNL     1      -1.816   2.118  -3.150  1.00  0.00    -0.398 OA
HETATM   20  H   UNL     1      -2.743   2.438  -3.322  1.00  0.00     0.209 HD
ENDBRANCH  18  19
ENDBRANCH  17  18
BRANCH  17  21
HETATM   21  C   UNL     1      -2.388   0.867   0.337  1.00  0.00     0.035 A 
HETATM   22  C   UNL     1      -1.186   0.853   1.060  1.00  0.00     0.027 A 
HETATM   23  C   UNL     1      -1.225   0.868   2.454  1.00  0.00     0.006 A 
HETATM   24  C   UNL     1      -2.451   0.892   3.119  1.00  0.00     0.048 A 
HETATM   25  C   UNL     1      -3.648   0.897   2.375  1.00  0.00     0.103 A 
HETATM   26  N   UNL     1      -3.569   0.885   1.013  1.00  0.00    -0.344 N 
ATOM     27  HN  UNL     1      -4.436   0.890   0.476  1.00  0.00     0.167 HD
BRANCH  25  28
HETATM   28  N   UNL     1      -4.947   0.909   3.021  1.00  0.00    -0.364 N 
HETATM   29  C   UNL     1      -5.067   0.836   4.486  1.00  0.00     0.154 C 
HETATM   30  C   UNL     1      -6.535   0.683   4.922  1.00  0.00     0.291 C 
HETATM   31  N   UNL     1      -7.264  -0.273   4.063  1.00  0.00     0.087 N 
HETATM   32  C   UNL     1      -6.789  -1.655   4.258  1.00  0.00     0.310 C 
HETATM   33  C   UNL     1      -7.268   0.113   2.628  1.00  0.00     0.291 C 
HETATM   34  C   UNL     1      -6.175   1.132   2.241  1.00  0.00     0.154 C 
ENDBRANCH  25  28
ENDBRANCH  17  21
ENDBRANCH  15  17
ENDBRANCH  11  13
ENDBRANCH   7  11
BRANCH   4  35
HETATM   35  C   UNL     1       5.698  -0.129  -2.538  1.00  0.00     0.082 A 
HETATM   36  C   UNL     1       6.905  -0.147  -3.265  1.00  0.00     0.078 A 
HETATM   37  C   UNL     1       8.101   0.046  -2.567  1.00  0.00     0.132 A 
HETATM   38 CL   UNL     1       6.982  -0.507  -4.989  1.00  0.00    -0.080 Cl
HETATM   39  N   UNL     1       8.085   0.225  -1.221  1.00  0.00    -0.200 N 
HETATM   40  C   UNL     1       6.918   0.217  -0.524  1.00  0.00     0.678 A 
ATOM     41  HN  UNL     1       8.964   0.368  -0.724  1.00  0.00     0.183 HD
HETATM   42  N   UNL     1       5.745   0.042  -1.189  1.00  0.00    -0.189 N 
ATOM     43  HN  UNL     1       4.873   0.039  -0.660  1.00  0.00     0.184 HD
BRANCH  40  44
HETATM   44  N   UNL     1       6.942   0.387   0.903  1.00  0.00    -0.221 N 
HETATM   45  H   UNL     1       7.867   0.583   1.346  1.00  0.00     0.178 HD
BRANCH  44  46
HETATM   46  C   UNL     1       5.788   0.233   1.802  1.00  0.00     0.103 C 
HETATM   47  C   UNL     1       4.710   1.299   1.543  1.00  0.00     0.052 C 
HETATM   48  C   UNL     1       3.480   1.021   2.418  1.00  0.00     0.169 C 
HETATM   49  O   UNL     1       2.976  -0.281   2.183  1.00  0.00    -0.391 OA
HETATM   50  C   UNL     1       3.925  -1.251   2.592  1.00  0.00     0.169 C 
HETATM   51  C   UNL     1       5.190  -1.181   1.727  1.00  0.00     0.052 C 
ENDBRANCH  44  46
ENDBRANCH  40  44
ENDBRANCH   4  35
TORSDOF 10
