MODEL 1
REMARK VINA RESULT:    -8.495      0.000      0.000
REMARK INTER + INTRA:         -11.737
REMARK INTER:                 -10.979
REMARK INTRA:                  -0.758
REMARK UNBOUND:                -0.758
REMARK  6 active torsions:
REMARK  status: ('A' for Active; 'I' for Inactive)
REMARK    1  A    between atoms: P_1  and  O_5 
REMARK    2  A    between atoms: O_5  and  C_6 
REMARK    3  A    between atoms: C_6  and  C_7 
REMARK    4  A    between atoms: C_9  and  O_10 
REMARK    5  A    between atoms: C_12  and  O_13 
REMARK    6  A    between atoms: C_15  and  N_16 
ROOT
HETATM    1  C   UNL     1      16.138 -12.464  10.269  1.00  0.00     0.180 C 
HETATM    2  O   UNL     1      17.496 -12.104   9.930  1.00  0.00    -0.353 OA
HETATM    3  C   UNL     1      15.385 -11.164  10.538  1.00  0.00     0.182 C 
HETATM    4  C   UNL     1      16.272 -10.094   9.887  1.00  0.00     0.198 C 
HETATM    5  C   UNL     1      17.665 -10.706  10.014  1.00  0.00     0.263 C 
ENDROOT
BRANCH   5   6
HETATM    6  N   UNL     1      18.615 -10.360   8.954  1.00  0.00    -0.279 N 
HETATM    7  C   UNL     1      18.716 -11.134   7.834  1.00  0.00     0.108 A 
HETATM    8  C   UNL     1      19.655 -10.820   6.897  1.00  0.00    -0.005 A 
HETATM    9  C   UNL     1      19.786 -11.632   5.629  1.00  0.00     0.053 C 
HETATM   10  C   UNL     1      20.512  -9.714   7.124  1.00  0.00     0.127 A 
HETATM   11  N   UNL     1      21.469  -9.356   6.197  1.00  0.00    -0.082 NA
HETATM   12  N   UNL     1      20.387  -9.018   8.247  1.00  0.00    -0.296 N 
HETATM   13  C   UNL     1      19.469  -9.343   9.158  1.00  0.00     0.329 A 
ATOM     14  HN  UNL     1      21.003  -8.223   8.416  1.00  0.00     0.171 HD
HETATM   15  O   UNL     1      19.373  -8.699  10.191  1.00  0.00    -0.246 OA
ENDBRANCH   5   6
BRANCH   4  16
HETATM   16  O   UNL     1      16.210  -8.838  10.525  1.00  0.00    -0.388 OA
ATOM     17  HO  UNL     1      15.626  -8.220  10.100  1.00  0.00     0.210 HD
ENDBRANCH   4  16
BRANCH   1  18
HETATM   18  C   UNL     1      15.582 -13.315   9.154  1.00  0.00     0.217 C 
BRANCH  18  19
HETATM   19  O   UNL     1      14.628 -14.239   9.650  1.00  0.00    -0.280 OA
BRANCH  19  20
HETATM   20  P   UNL     1      14.881 -15.806   9.544  1.00  0.00     0.422 P 
HETATM   21  O   UNL     1      13.723 -16.301   8.756  1.00  0.00    -0.617 OA
HETATM   22  O   UNL     1      16.358 -16.028   8.972  1.00  0.00    -0.617 OA
HETATM   23  O   UNL     1      14.773 -16.332  11.054  1.00  0.00    -0.617 OA
ENDBRANCH  19  20
ENDBRANCH  18  19
ENDBRANCH   1  18
BRANCH   3  24
HETATM   24  O   UNL     1      15.299 -10.949  11.954  1.00  0.00    -0.390 OA
ATOM     25  HO  UNL     1      16.125 -11.184  12.359  1.00  0.00     0.210 HD
ENDBRANCH   3  24
TORSDOF 6
ENDMDL
MODEL 2
REMARK VINA RESULT:    -7.996      3.874      5.833
REMARK INTER + INTRA:         -11.091
REMARK INTER:                 -10.242
REMARK INTRA:                  -0.849
REMARK UNBOUND:                -0.758
REMARK  6 active torsions:
REMARK  status: ('A' for Active; 'I' for Inactive)
REMARK    1  A    between atoms: P_1  and  O_5 
REMARK    2  A    between atoms: O_5  and  C_6 
REMARK    3  A    between atoms: C_6  and  C_7 
REMARK    4  A    between atoms: C_9  and  O_10 
REMARK    5  A    between atoms: C_12  and  O_13 
REMARK    6  A    between atoms: C_15  and  N_16 
ROOT
HETATM    1  C   UNL     1      15.392 -12.027  10.039  1.00  0.00     0.180 C 
HETATM    2  O   UNL     1      15.102 -12.615  11.327  1.00  0.00    -0.353 OA
HETATM    3  C   UNL     1      16.197 -10.757  10.300  1.00  0.00     0.182 C 
HETATM    4  C   UNL     1      16.707 -10.943  11.735  1.00  0.00     0.198 C 
HETATM    5  C   UNL     1      15.609 -11.801  12.361  1.00  0.00     0.263 C 
ENDROOT
BRANCH   5   6
HETATM    6  N   UNL     1      16.040 -12.724  13.414  1.00  0.00    -0.279 N 
HETATM    7  C   UNL     1      16.757 -13.844  13.103  1.00  0.00     0.108 A 
HETATM    8  C   UNL     1      17.086 -14.713  14.099  1.00  0.00    -0.005 A 
HETATM    9  C   UNL     1      17.902 -15.952  13.807  1.00  0.00     0.053 C 
HETATM   10  C   UNL     1      16.655 -14.441  15.422  1.00  0.00     0.127 A 
HETATM   11  N   UNL     1      16.976 -15.291  16.461  1.00  0.00    -0.082 NA
HETATM   12  N   UNL     1      15.933 -13.353  15.657  1.00  0.00    -0.296 N 
HETATM   13  C   UNL     1      15.612 -12.516  14.670  1.00  0.00     0.329 A 
ATOM     14  HN  UNL     1      15.619 -13.154  16.607  1.00  0.00     0.171 HD
HETATM   15  O   UNL     1      14.940 -11.524  14.900  1.00  0.00    -0.246 OA
ENDBRANCH   5   6
BRANCH   4  16
HETATM   16  O   UNL     1      16.870  -9.734  12.443  1.00  0.00    -0.388 OA
ATOM     17  HO  UNL     1      17.101  -9.852  13.357  1.00  0.00     0.210 HD
ENDBRANCH   4  16
BRANCH   1  18
HETATM   18  C   UNL     1      16.079 -13.066   9.188  1.00  0.00     0.217 C 
BRANCH  18  19
HETATM   19  O   UNL     1      15.919 -14.361   9.742  1.00  0.00    -0.280 OA
BRANCH  19  20
HETATM   20  P   UNL     1      14.963 -15.428   9.051  1.00  0.00     0.422 P 
HETATM   21  O   UNL     1      13.750 -15.428   9.910  1.00  0.00    -0.617 OA
HETATM   22  O   UNL     1      14.819 -15.034   7.508  1.00  0.00    -0.617 OA
HETATM   23  O   UNL     1      15.739 -16.823   9.210  1.00  0.00    -0.617 OA
ENDBRANCH  19  20
ENDBRANCH  18  19
ENDBRANCH   1  18
BRANCH   3  24
HETATM   24  O   UNL     1      15.328  -9.618  10.221  1.00  0.00    -0.390 OA
ATOM     25  HO  UNL     1      14.572  -9.836   9.688  1.00  0.00     0.210 HD
ENDBRANCH   3  24
TORSDOF 6
ENDMDL
MODEL 3
REMARK VINA RESULT:    -7.799      3.354      4.931
REMARK INTER + INTRA:         -10.836
REMARK INTER:                  -9.990
REMARK INTRA:                  -0.846
REMARK UNBOUND:                -0.758
REMARK  6 active torsions:
REMARK  status: ('A' for Active; 'I' for Inactive)
REMARK    1  A    between atoms: P_1  and  O_5 
REMARK    2  A    between atoms: O_5  and  C_6 
REMARK    3  A    between atoms: C_6  and  C_7 
REMARK    4  A    between atoms: C_9  and  O_10 
REMARK    5  A    between atoms: C_12  and  O_13 
REMARK    6  A    between atoms: C_15  and  N_16 
ROOT
HETATM    1  C   UNL     1      17.077 -16.173  12.425  1.00  0.00     0.180 C 
HETATM    2  O   UNL     1      17.485 -14.790  12.330  1.00  0.00    -0.353 OA
HETATM    3  C   UNL     1      15.925 -16.231  13.424  1.00  0.00     0.182 C 
HETATM    4  C   UNL     1      15.445 -14.776  13.503  1.00  0.00     0.198 C 
HETATM    5  C   UNL     1      16.726 -13.996  13.214  1.00  0.00     0.263 C 
ENDROOT
BRANCH   5   6
HETATM    6  N   UNL     1      16.551 -12.709  12.536  1.00  0.00    -0.279 N 
HETATM    7  C   UNL     1      16.919 -12.558  11.230  1.00  0.00     0.108 A 
HETATM    8  C   UNL     1      16.803 -11.331  10.649  1.00  0.00    -0.005 A 
HETATM    9  C   UNL     1      17.172 -11.122   9.198  1.00  0.00     0.053 C 
HETATM   10  C   UNL     1      16.326 -10.244  11.425  1.00  0.00     0.127 A 
HETATM   11  N   UNL     1      16.184  -8.987  10.873  1.00  0.00    -0.082 NA
HETATM   12  N   UNL     1      16.015 -10.445  12.699  1.00  0.00    -0.296 N 
HETATM   13  C   UNL     1      16.141 -11.650  13.254  1.00  0.00     0.329 A 
ATOM     14  HN  UNL     1      15.673  -9.665  13.261  1.00  0.00     0.171 HD
HETATM   15  O   UNL     1      15.860 -11.818  14.430  1.00  0.00    -0.246 OA
ENDBRANCH   5   6
BRANCH   4  16
HETATM   16  O   UNL     1      14.908 -14.421  14.758  1.00  0.00    -0.388 OA
ATOM     17  HO  UNL     1      15.470 -13.849  15.268  1.00  0.00     0.210 HD
ENDBRANCH   4  16
BRANCH   1  18
HETATM   18  C   UNL     1      16.757 -16.669  11.037  1.00  0.00     0.217 C 
BRANCH  18  19
HETATM   19  O   UNL     1      15.381 -16.495  10.742  1.00  0.00    -0.280 OA
BRANCH  19  20
HETATM   20  P   UNL     1      14.917 -15.527   9.568  1.00  0.00     0.422 P 
HETATM   21  O   UNL     1      14.301 -14.376  10.279  1.00  0.00    -0.617 OA
HETATM   22  O   UNL     1      16.177 -15.266   8.618  1.00  0.00    -0.617 OA
HETATM   23  O   UNL     1      13.783 -16.353   8.793  1.00  0.00    -0.617 OA
ENDBRANCH  19  20
ENDBRANCH  18  19
ENDBRANCH   1  18
BRANCH   3  24
HETATM   24  O   UNL     1      16.421 -16.665  14.698  1.00  0.00    -0.390 OA
ATOM     25  HO  UNL     1      16.389 -17.614  14.742  1.00  0.00     0.210 HD
ENDBRANCH   3  24
TORSDOF 6
ENDMDL
MODEL 4
REMARK VINA RESULT:    -7.692      4.740      7.348
REMARK INTER + INTRA:         -10.698
REMARK INTER:                 -10.164
REMARK INTRA:                  -0.533
REMARK UNBOUND:                -0.758
REMARK  6 active torsions:
REMARK  status: ('A' for Active; 'I' for Inactive)
REMARK    1  A    between atoms: P_1  and  O_5 
REMARK    2  A    between atoms: O_5  and  C_6 
REMARK    3  A    between atoms: C_6  and  C_7 
REMARK    4  A    between atoms: C_9  and  O_10 
REMARK    5  A    between atoms: C_12  and  O_13 
REMARK    6  A    between atoms: C_15  and  N_16 
ROOT
HETATM    1  C   UNL     1      15.501 -12.108  10.673  1.00  0.00     0.180 C 
HETATM    2  O   UNL     1      14.325 -12.800  11.147  1.00  0.00    -0.353 OA
HETATM    3  C   UNL     1      16.099 -11.372  11.869  1.00  0.00     0.182 C 
HETATM    4  C   UNL     1      15.457 -12.069  13.076  1.00  0.00     0.198 C 
HETATM    5  C   UNL     1      14.111 -12.519  12.513  1.00  0.00     0.263 C 
ENDROOT
BRANCH   5   6
HETATM    6  N   UNL     1      13.557 -13.749  13.085  1.00  0.00    -0.279 N 
HETATM    7  C   UNL     1      14.364 -14.633  13.741  1.00  0.00     0.108 A 
HETATM    8  C   UNL     1      13.829 -15.797  14.205  1.00  0.00    -0.005 A 
HETATM    9  C   UNL     1      14.677 -16.794  14.961  1.00  0.00     0.053 C 
HETATM   10  C   UNL     1      12.455 -16.064  13.972  1.00  0.00     0.127 A 
HETATM   11  N   UNL     1      11.871 -17.226  14.434  1.00  0.00    -0.082 NA
HETATM   12  N   UNL     1      11.729 -15.181  13.300  1.00  0.00    -0.296 N 
HETATM   13  C   UNL     1      12.270 -14.051  12.846  1.00  0.00     0.329 A 
ATOM     14  HN  UNL     1      10.741 -15.370  13.128  1.00  0.00     0.171 HD
HETATM   15  O   UNL     1      11.591 -13.251  12.221  1.00  0.00    -0.246 OA
ENDBRANCH   5   6
BRANCH   4  16
HETATM   16  O   UNL     1      15.282 -11.226  14.193  1.00  0.00    -0.388 OA
ATOM     17  HO  UNL     1      14.625 -11.533  14.807  1.00  0.00     0.210 HD
ENDBRANCH   4  16
BRANCH   1  18
HETATM   18  C   UNL     1      16.409 -13.116  10.012  1.00  0.00     0.217 C 
BRANCH  18  19
HETATM   19  O   UNL     1      16.241 -13.103   8.605  1.00  0.00    -0.280 OA
BRANCH  19  20
HETATM   20  P   UNL     1      15.730 -14.397   7.835  1.00  0.00     0.422 P 
HETATM   21  O   UNL     1      16.214 -15.524   8.673  1.00  0.00    -0.617 OA
HETATM   22  O   UNL     1      14.158 -14.234   7.589  1.00  0.00    -0.617 OA
HETATM   23  O   UNL     1      16.526 -14.376   6.443  1.00  0.00    -0.617 OA
ENDBRANCH  19  20
ENDBRANCH  18  19
ENDBRANCH   1  18
BRANCH   3  24
HETATM   24  O   UNL     1      15.711  -9.992  11.821  1.00  0.00    -0.390 OA
ATOM     25  HO  UNL     1      16.258  -9.491  12.414  1.00  0.00     0.210 HD
ENDBRANCH   3  24
TORSDOF 6
ENDMDL
MODEL 5
REMARK VINA RESULT:    -7.589      4.705      7.199
REMARK INTER + INTRA:         -10.565
REMARK INTER:                  -9.848
REMARK INTRA:                  -0.717
REMARK UNBOUND:                -0.758
REMARK  6 active torsions:
REMARK  status: ('A' for Active; 'I' for Inactive)
REMARK    1  A    between atoms: P_1  and  O_5 
REMARK    2  A    between atoms: O_5  and  C_6 
REMARK    3  A    between atoms: C_6  and  C_7 
REMARK    4  A    between atoms: C_9  and  O_10 
REMARK    5  A    between atoms: C_12  and  O_13 
REMARK    6  A    between atoms: C_15  and  N_16 
ROOT
HETATM    1  C   UNL     1      15.288 -11.962  10.773  1.00  0.00     0.180 C 
HETATM    2  O   UNL     1      14.167 -12.613  11.411  1.00  0.00    -0.353 OA
HETATM    3  C   UNL     1      16.234 -11.512  11.883  1.00  0.00     0.182 C 
HETATM    4  C   UNL     1      15.793 -12.349  13.092  1.00  0.00     0.198 C 
HETATM    5  C   UNL     1      14.307 -12.562  12.813  1.00  0.00     0.263 C 
ENDROOT
BRANCH   5   6
HETATM    6  N   UNL     1      13.736 -13.816  13.312  1.00  0.00    -0.279 N 
HETATM    7  C   UNL     1      14.389 -14.999  13.122  1.00  0.00     0.108 A 
HETATM    8  C   UNL     1      13.800 -16.154  13.541  1.00  0.00    -0.005 A 
HETATM    9  C   UNL     1      14.497 -17.485  13.376  1.00  0.00     0.053 C 
HETATM   10  C   UNL     1      12.516 -16.093  14.141  1.00  0.00     0.127 A 
HETATM   11  N   UNL     1      11.888 -17.238  14.588  1.00  0.00    -0.082 NA
HETATM   12  N   UNL     1      11.916 -14.917  14.269  1.00  0.00    -0.296 N 
HETATM   13  C   UNL     1      12.503 -13.797  13.846  1.00  0.00     0.329 A 
ATOM     14  HN  UNL     1      10.992 -14.869  14.698  1.00  0.00     0.171 HD
HETATM   15  O   UNL     1      11.935 -12.723  13.963  1.00  0.00    -0.246 OA
ENDBRANCH   5   6
BRANCH   4  16
HETATM   16  O   UNL     1      15.990 -11.707  14.331  1.00  0.00    -0.388 OA
ATOM     17  HO  UNL     1      16.162 -10.775  14.258  1.00  0.00     0.210 HD
ENDBRANCH   4  16
BRANCH   1  18
HETATM   18  C   UNL     1      15.880 -12.918   9.766  1.00  0.00     0.217 C 
BRANCH  18  19
HETATM   19  O   UNL     1      14.879 -13.421   8.898  1.00  0.00    -0.280 OA
BRANCH  19  20
HETATM   20  P   UNL     1      14.980 -14.895   8.309  1.00  0.00     0.422 P 
HETATM   21  O   UNL     1      14.809 -14.706   6.845  1.00  0.00    -0.617 OA
HETATM   22  O   UNL     1      16.333 -15.551   8.852  1.00  0.00    -0.617 OA
HETATM   23  O   UNL     1      13.701 -15.654   8.908  1.00  0.00    -0.617 OA
ENDBRANCH  19  20
ENDBRANCH  18  19
ENDBRANCH   1  18
BRANCH   3  24
HETATM   24  O   UNL     1      16.034 -10.115  12.141  1.00  0.00    -0.390 OA
ATOM     25  HO  UNL     1      16.781  -9.625  11.816  1.00  0.00     0.210 HD
ENDBRANCH   3  24
TORSDOF 6
ENDMDL
MODEL 6
REMARK VINA RESULT:    -7.486      4.307      6.813
REMARK INTER + INTRA:         -10.432
REMARK INTER:                  -9.611
REMARK INTRA:                  -0.822
REMARK UNBOUND:                -0.758
REMARK  6 active torsions:
REMARK  status: ('A' for Active; 'I' for Inactive)
REMARK    1  A    between atoms: P_1  and  O_5 
REMARK    2  A    between atoms: O_5  and  C_6 
REMARK    3  A    between atoms: C_6  and  C_7 
REMARK    4  A    between atoms: C_9  and  O_10 
REMARK    5  A    between atoms: C_12  and  O_13 
REMARK    6  A    between atoms: C_15  and  N_16 
ROOT
HETATM    1  C   UNL     1      15.857 -10.808  10.632  1.00  0.00     0.180 C 
HETATM    2  O   UNL     1      15.230 -12.094  10.836  1.00  0.00    -0.353 OA
HETATM    3  C   UNL     1      16.500 -10.409  11.957  1.00  0.00     0.182 C 
HETATM    4  C   UNL     1      16.580 -11.732  12.730  1.00  0.00     0.198 C 
HETATM    5  C   UNL     1      15.383 -12.503  12.178  1.00  0.00     0.263 C 
ENDROOT
BRANCH   5   6
HETATM    6  N   UNL     1      15.527 -13.960  12.131  1.00  0.00    -0.279 N 
HETATM    7  C   UNL     1      16.076 -14.568  11.038  1.00  0.00     0.108 A 
HETATM    8  C   UNL     1      16.136 -15.929  11.001  1.00  0.00    -0.005 A 
HETATM    9  C   UNL     1      16.759 -16.645   9.824  1.00  0.00     0.053 C 
HETATM   10  C   UNL     1      15.607 -16.672  12.086  1.00  0.00     0.127 A 
HETATM   11  N   UNL     1      15.657 -18.051  12.092  1.00  0.00    -0.082 NA
HETATM   12  N   UNL     1      15.057 -16.026  13.106  1.00  0.00    -0.296 N 
HETATM   13  C   UNL     1      14.998 -14.694  13.124  1.00  0.00     0.329 A 
ATOM     14  HN  UNL     1      14.673 -16.557  13.888  1.00  0.00     0.171 HD
HETATM   15  O   UNL     1      14.480 -14.114  14.065  1.00  0.00    -0.246 OA
ENDBRANCH   5   6
BRANCH   4  16
HETATM   16  O   UNL     1      16.483 -11.581  14.129  1.00  0.00    -0.388 OA
ATOM     17  HO  UNL     1      15.652 -11.869  14.490  1.00  0.00     0.210 HD
ENDBRANCH   4  16
BRANCH   1  18
HETATM   18  C   UNL     1      16.802 -10.923   9.461  1.00  0.00     0.217 C 
BRANCH  18  19
HETATM   19  O   UNL     1      18.091 -10.441   9.802  1.00  0.00    -0.280 OA
BRANCH  19  20
HETATM   20  P   UNL     1      18.726  -9.203   9.031  1.00  0.00     0.422 P 
HETATM   21  O   UNL     1      19.800  -8.729   9.943  1.00  0.00    -0.617 OA
HETATM   22  O   UNL     1      19.118  -9.688   7.559  1.00  0.00    -0.617 OA
HETATM   23  O   UNL     1      17.546  -8.118   8.976  1.00  0.00    -0.617 OA
ENDBRANCH  19  20
ENDBRANCH  18  19
ENDBRANCH   1  18
BRANCH   3  24
HETATM   24  O   UNL     1      15.647  -9.480  12.639  1.00  0.00    -0.390 OA
ATOM     25  HO  UNL     1      16.141  -9.040  13.321  1.00  0.00     0.210 HD
ENDBRANCH   3  24
TORSDOF 6
ENDMDL
MODEL 7
REMARK VINA RESULT:    -7.473      3.978      7.164
REMARK INTER + INTRA:         -10.415
REMARK INTER:                  -9.806
REMARK INTRA:                  -0.609
REMARK UNBOUND:                -0.758
REMARK  6 active torsions:
REMARK  status: ('A' for Active; 'I' for Inactive)
REMARK    1  A    between atoms: P_1  and  O_5 
REMARK    2  A    between atoms: O_5  and  C_6 
REMARK    3  A    between atoms: C_6  and  C_7 
REMARK    4  A    between atoms: C_9  and  O_10 
REMARK    5  A    between atoms: C_12  and  O_13 
REMARK    6  A    between atoms: C_15  and  N_16 
ROOT
HETATM    1  C   UNL     1      16.870 -12.787   9.190  1.00  0.00     0.180 C 
HETATM    2  O   UNL     1      17.333 -13.423  10.402  1.00  0.00    -0.353 OA
HETATM    3  C   UNL     1      15.513 -13.400   8.855  1.00  0.00     0.182 C 
HETATM    4  C   UNL     1      15.075 -14.047  10.176  1.00  0.00     0.198 C 
HETATM    5  C   UNL     1      16.412 -14.406  10.819  1.00  0.00     0.263 C 
ENDROOT
BRANCH   5   6
HETATM    6  N   UNL     1      16.445 -14.380  12.284  1.00  0.00    -0.279 N 
HETATM    7  C   UNL     1      15.814 -13.385  12.974  1.00  0.00     0.108 A 
HETATM    8  C   UNL     1      15.919 -13.355  14.332  1.00  0.00    -0.005 A 
HETATM    9  C   UNL     1      15.215 -12.289  15.140  1.00  0.00     0.053 C 
HETATM   10  C   UNL     1      16.697 -14.344  14.985  1.00  0.00     0.127 A 
HETATM   11  N   UNL     1      16.821 -14.356  16.360  1.00  0.00    -0.082 NA
HETATM   12  N   UNL     1      17.314 -15.267  14.258  1.00  0.00    -0.296 N 
HETATM   13  C   UNL     1      17.208 -15.278  12.930  1.00  0.00     0.329 A 
ATOM     14  HN  UNL     1      17.877 -15.979  14.724  1.00  0.00     0.171 HD
HETATM   15  O   UNL     1      17.789 -16.128  12.273  1.00  0.00    -0.246 OA
ENDBRANCH   5   6
BRANCH   4  16
HETATM   16  O   UNL     1      14.269 -15.192  10.009  1.00  0.00    -0.388 OA
ATOM     17  HO  UNL     1      14.638 -15.839   9.420  1.00  0.00     0.210 HD
ENDBRANCH   4  16
BRANCH   1  18
HETATM   18  C   UNL     1      16.870 -11.294   9.408  1.00  0.00     0.217 C 
BRANCH  18  19
HETATM   19  O   UNL     1      18.194 -10.787   9.434  1.00  0.00    -0.280 OA
BRANCH  19  20
HETATM   20  P   UNL     1      18.505  -9.302   8.957  1.00  0.00     0.422 P 
HETATM   21  O   UNL     1      19.058  -9.476   7.588  1.00  0.00    -0.617 OA
HETATM   22  O   UNL     1      17.176  -8.434   9.150  1.00  0.00    -0.617 OA
HETATM   23  O   UNL     1      19.661  -8.797   9.947  1.00  0.00    -0.617 OA
ENDBRANCH  19  20
ENDBRANCH  18  19
ENDBRANCH   1  18
BRANCH   3  24
HETATM   24  O   UNL     1      15.679 -14.398   7.839  1.00  0.00    -0.390 OA
ATOM     25  HO  UNL     1      14.852 -14.842   7.695  1.00  0.00     0.210 HD
ENDBRANCH   3  24
TORSDOF 6
ENDMDL
MODEL 8
REMARK VINA RESULT:    -7.456      5.619      7.538
REMARK INTER + INTRA:         -10.393
REMARK INTER:                  -9.377
REMARK INTRA:                  -1.016
REMARK UNBOUND:                -0.758
REMARK  6 active torsions:
REMARK  status: ('A' for Active; 'I' for Inactive)
REMARK    1  A    between atoms: P_1  and  O_5 
REMARK    2  A    between atoms: O_5  and  C_6 
REMARK    3  A    between atoms: C_6  and  C_7 
REMARK    4  A    between atoms: C_9  and  O_10 
REMARK    5  A    between atoms: C_12  and  O_13 
REMARK    6  A    between atoms: C_15  and  N_16 
ROOT
HETATM    1  C   UNL     1      15.291 -13.046  14.449  1.00  0.00     0.180 C 
HETATM    2  O   UNL     1      15.725 -14.409  14.656  1.00  0.00    -0.353 OA
HETATM    3  C   UNL     1      16.081 -12.501  13.262  1.00  0.00     0.182 C 
HETATM    4  C   UNL     1      16.610 -13.766  12.572  1.00  0.00     0.198 C 
HETATM    5  C   UNL     1      16.745 -14.740  13.740  1.00  0.00     0.263 C 
ENDROOT
BRANCH   5   6
HETATM    6  N   UNL     1      16.542 -16.156  13.420  1.00  0.00    -0.279 N 
HETATM    7  C   UNL     1      15.328 -16.746  13.626  1.00  0.00     0.108 A 
HETATM    8  C   UNL     1      15.192 -18.078  13.378  1.00  0.00    -0.005 A 
HETATM    9  C   UNL     1      13.860 -18.769  13.566  1.00  0.00     0.053 C 
HETATM   10  C   UNL     1      16.319 -18.816  12.935  1.00  0.00     0.127 A 
HETATM   11  N   UNL     1      16.221 -20.165  12.662  1.00  0.00    -0.082 NA
HETATM   12  N   UNL     1      17.481 -18.193  12.783  1.00  0.00    -0.296 N 
HETATM   13  C   UNL     1      17.600 -16.890  13.038  1.00  0.00     0.329 A 
ATOM     14  HN  UNL     1      18.295 -18.720  12.467  1.00  0.00     0.171 HD
HETATM   15  O   UNL     1      18.678 -16.333  12.903  1.00  0.00    -0.246 OA
ENDBRANCH   5   6
BRANCH   4  16
HETATM   16  O   UNL     1      17.846 -13.584  11.919  1.00  0.00    -0.388 OA
ATOM     17  HO  UNL     1      17.797 -13.021  11.154  1.00  0.00     0.210 HD
ENDBRANCH   4  16
BRANCH   1  18
HETATM   18  C   UNL     1      13.791 -13.047  14.284  1.00  0.00     0.217 C 
BRANCH  18  19
HETATM   19  O   UNL     1      13.432 -13.218  12.923  1.00  0.00    -0.280 OA
BRANCH  19  20
HETATM   20  P   UNL     1      12.443 -14.384  12.484  1.00  0.00     0.422 P 
HETATM   21  O   UNL     1      13.175 -15.078  11.392  1.00  0.00    -0.617 OA
HETATM   22  O   UNL     1      12.041 -15.208  13.793  1.00  0.00    -0.617 OA
HETATM   23  O   UNL     1      11.169 -13.621  11.880  1.00  0.00    -0.617 OA
ENDBRANCH  19  20
ENDBRANCH  18  19
ENDBRANCH   1  18
BRANCH   3  24
HETATM   24  O   UNL     1      17.170 -11.700  13.743  1.00  0.00    -0.390 OA
ATOM     25  HO  UNL     1      17.845 -12.267  14.096  1.00  0.00     0.210 HD
ENDBRANCH   3  24
TORSDOF 6
ENDMDL
MODEL 9
REMARK VINA RESULT:    -7.415      4.046      6.575
REMARK INTER + INTRA:         -10.341
REMARK INTER:                  -9.808
REMARK INTRA:                  -0.533
REMARK UNBOUND:                -0.758
REMARK  6 active torsions:
REMARK  status: ('A' for Active; 'I' for Inactive)
REMARK    1  A    between atoms: P_1  and  O_5 
REMARK    2  A    between atoms: O_5  and  C_6 
REMARK    3  A    between atoms: C_6  and  C_7 
REMARK    4  A    between atoms: C_9  and  O_10 
REMARK    5  A    between atoms: C_12  and  O_13 
REMARK    6  A    between atoms: C_15  and  N_16 
ROOT
HETATM    1  C   UNL     1      16.698 -11.037   9.680  1.00  0.00     0.180 C 
HETATM    2  O   UNL     1      16.192 -12.002  10.629  1.00  0.00    -0.353 OA
HETATM    3  C   UNL     1      16.687  -9.679  10.375  1.00  0.00     0.182 C 
HETATM    4  C   UNL     1      16.588 -10.038  11.864  1.00  0.00     0.198 C 
HETATM    5  C   UNL     1      15.823 -11.359  11.829  1.00  0.00     0.263 C 
ENDROOT
BRANCH   5   6
HETATM    6  N   UNL     1      16.137 -12.309  12.899  1.00  0.00    -0.279 N 
HETATM    7  C   UNL     1      16.811 -13.464  12.624  1.00  0.00     0.108 A 
HETATM    8  C   UNL     1      17.031 -14.355  13.631  1.00  0.00    -0.005 A 
HETATM    9  C   UNL     1      17.795 -15.635  13.380  1.00  0.00     0.053 C 
HETATM   10  C   UNL     1      16.534 -14.066  14.927  1.00  0.00     0.127 A 
HETATM   11  N   UNL     1      16.743 -14.937  15.977  1.00  0.00    -0.082 NA
HETATM   12  N   UNL     1      15.858 -12.942  15.126  1.00  0.00    -0.296 N 
HETATM   13  C   UNL     1      15.645 -12.084  14.128  1.00  0.00     0.329 A 
ATOM     14  HN  UNL     1      15.497 -12.731  16.056  1.00  0.00     0.171 HD
HETATM   15  O   UNL     1      15.013 -11.058  14.324  1.00  0.00    -0.246 OA
ENDBRANCH   5   6
BRANCH   4  16
HETATM   16  O   UNL     1      15.906  -9.077  12.637  1.00  0.00    -0.388 OA
ATOM     17  HO  UNL     1      16.443  -8.672  13.309  1.00  0.00     0.210 HD
ENDBRANCH   4  16
BRANCH   1  18
HETATM   18  C   UNL     1      18.049 -11.508   9.200  1.00  0.00     0.217 C 
BRANCH  18  19
HETATM   19  O   UNL     1      18.222 -11.229   7.821  1.00  0.00    -0.280 OA
BRANCH  19  20
HETATM   20  P   UNL     1      19.586 -10.616   7.280  1.00  0.00     0.422 P 
HETATM   21  O   UNL     1      19.910  -9.548   8.261  1.00  0.00    -0.617 OA
HETATM   22  O   UNL     1      20.619 -11.820   7.077  1.00  0.00    -0.617 OA
HETATM   23  O   UNL     1      19.199  -9.957   5.871  1.00  0.00    -0.617 OA
ENDBRANCH  19  20
ENDBRANCH  18  19
ENDBRANCH   1  18
BRANCH   3  24
HETATM   24  O   UNL     1      15.528  -8.942   9.960  1.00  0.00    -0.390 OA
ATOM     25  HO  UNL     1      15.369  -8.233  10.572  1.00  0.00     0.210 HD
ENDBRANCH   3  24
TORSDOF 6
ENDMDL
MODEL 10
REMARK VINA RESULT:    -7.391      6.107      8.741
REMARK INTER + INTRA:         -10.309
REMARK INTER:                  -9.613
REMARK INTRA:                  -0.696
REMARK UNBOUND:                -0.758
REMARK  6 active torsions:
REMARK  status: ('A' for Active; 'I' for Inactive)
REMARK    1  A    between atoms: P_1  and  O_5 
REMARK    2  A    between atoms: O_5  and  C_6 
REMARK    3  A    between atoms: C_6  and  C_7 
REMARK    4  A    between atoms: C_9  and  O_10 
REMARK    5  A    between atoms: C_12  and  O_13 
REMARK    6  A    between atoms: C_15  and  N_16 
ROOT
HETATM    1  C   UNL     1      14.478 -15.022  10.768  1.00  0.00     0.180 C 
HETATM    2  O   UNL     1      13.836 -16.205  11.293  1.00  0.00    -0.353 OA
HETATM    3  C   UNL     1      14.577 -14.020  11.915  1.00  0.00     0.182 C 
HETATM    4  C   UNL     1      14.379 -14.887  13.166  1.00  0.00     0.198 C 
HETATM    5  C   UNL     1      13.483 -16.009  12.645  1.00  0.00     0.263 C 
ENDROOT
BRANCH   5   6
HETATM    6  N   UNL     1      13.652 -17.314  13.289  1.00  0.00    -0.279 N 
HETATM    7  C   UNL     1      14.635 -18.168  12.878  1.00  0.00     0.108 A 
HETATM    8  C   UNL     1      14.723 -19.399  13.455  1.00  0.00    -0.005 A 
HETATM    9  C   UNL     1      15.811 -20.368  13.051  1.00  0.00     0.053 C 
HETATM   10  C   UNL     1      13.779 -19.764  14.448  1.00  0.00     0.127 A 
HETATM   11  N   UNL     1      13.839 -20.997  15.065  1.00  0.00    -0.082 NA
HETATM   12  N   UNL     1      12.827 -18.903  14.783  1.00  0.00    -0.296 N 
HETATM   13  C   UNL     1      12.749 -17.706  14.203  1.00  0.00     0.329 A 
ATOM     14  HN  UNL     1      12.144 -19.162  15.495  1.00  0.00     0.171 HD
HETATM   15  O   UNL     1      11.861 -16.928  14.515  1.00  0.00    -0.246 OA
ENDBRANCH   5   6
BRANCH   4  16
HETATM   16  O   UNL     1      13.766 -14.207  14.239  1.00  0.00    -0.388 OA
ATOM     17  HO  UNL     1      13.681 -13.270  14.102  1.00  0.00     0.210 HD
ENDBRANCH   4  16
BRANCH   1  18
HETATM   18  C   UNL     1      15.793 -15.431  10.151  1.00  0.00     0.217 C 
BRANCH  18  19
HETATM   19  O   UNL     1      15.688 -15.502   8.739  1.00  0.00    -0.280 OA
BRANCH  19  20
HETATM   20  P   UNL     1      15.574 -14.179   7.864  1.00  0.00     0.422 P 
HETATM   21  O   UNL     1      14.156 -14.168   7.419  1.00  0.00    -0.617 OA
HETATM   22  O   UNL     1      16.119 -12.959   8.743  1.00  0.00    -0.617 OA
HETATM   23  O   UNL     1      16.533 -14.446   6.607  1.00  0.00    -0.617 OA
ENDBRANCH  19  20
ENDBRANCH  18  19
ENDBRANCH   1  18
BRANCH   3  24
HETATM   24  O   UNL     1      13.519 -13.058  11.800  1.00  0.00    -0.390 OA
ATOM     25  HO  UNL     1      13.892 -12.189  11.717  1.00  0.00     0.210 HD
ENDBRANCH   3  24
TORSDOF 6
ENDMDL
MODEL 11
REMARK VINA RESULT:    -7.300      7.336     10.025
REMARK INTER + INTRA:         -10.192
REMARK INTER:                  -9.412
REMARK INTRA:                  -0.780
REMARK UNBOUND:                -0.758
REMARK  6 active torsions:
REMARK  status: ('A' for Active; 'I' for Inactive)
REMARK    1  A    between atoms: P_1  and  O_5 
REMARK    2  A    between atoms: O_5  and  C_6 
REMARK    3  A    between atoms: C_6  and  C_7 
REMARK    4  A    between atoms: C_9  and  O_10 
REMARK    5  A    between atoms: C_12  and  O_13 
REMARK    6  A    between atoms: C_15  and  N_16 
ROOT
HETATM    1  C   UNL     1      13.449 -16.441  12.892  1.00  0.00     0.180 C 
HETATM    2  O   UNL     1      13.377 -17.821  12.472  1.00  0.00    -0.353 OA
HETATM    3  C   UNL     1      13.298 -16.428  14.411  1.00  0.00     0.182 C 
HETATM    4  C   UNL     1      13.601 -17.877  14.814  1.00  0.00     0.198 C 
HETATM    5  C   UNL     1      13.146 -18.658  13.583  1.00  0.00     0.263 C 
ENDROOT
BRANCH   5   6
HETATM    6  N   UNL     1      13.878 -19.896  13.304  1.00  0.00    -0.279 N 
HETATM    7  C   UNL     1      15.243 -19.916  13.336  1.00  0.00     0.108 A 
HETATM    8  C   UNL     1      15.894 -21.067  13.008  1.00  0.00    -0.005 A 
HETATM    9  C   UNL     1      17.403 -21.145  13.056  1.00  0.00     0.053 C 
HETATM   10  C   UNL     1      15.136 -22.201  12.621  1.00  0.00     0.127 A 
HETATM   11  N   UNL     1      15.755 -23.390  12.291  1.00  0.00    -0.082 NA
HETATM   12  N   UNL     1      13.813 -22.111  12.577  1.00  0.00    -0.296 N 
HETATM   13  C   UNL     1      13.191 -20.975  12.893  1.00  0.00     0.329 A 
ATOM     14  HN  UNL     1      13.263 -22.924  12.297  1.00  0.00     0.171 HD
HETATM   15  O   UNL     1      11.973 -20.904  12.839  1.00  0.00    -0.246 OA
ENDBRANCH   5   6
BRANCH   4  16
HETATM   16  O   UNL     1      12.912 -18.303  15.968  1.00  0.00    -0.388 OA
ATOM     17  HO  UNL     1      12.081 -17.864  16.104  1.00  0.00     0.210 HD
ENDBRANCH   4  16
BRANCH   1  18
HETATM   18  C   UNL     1      14.733 -15.851  12.364  1.00  0.00     0.217 C 
BRANCH  18  19
HETATM   19  O   UNL     1      15.057 -16.396  11.096  1.00  0.00    -0.280 OA
BRANCH  19  20
HETATM   20  P   UNL     1      14.920 -15.521   9.776  1.00  0.00     0.422 P 
HETATM   21  O   UNL     1      13.813 -16.175   9.029  1.00  0.00    -0.617 OA
HETATM   22  O   UNL     1      14.761 -13.991  10.213  1.00  0.00    -0.617 OA
HETATM   23  O   UNL     1      16.304 -15.749   8.999  1.00  0.00    -0.617 OA
ENDBRANCH  19  20
ENDBRANCH  18  19
ENDBRANCH   1  18
BRANCH   3  24
HETATM   24  O   UNL     1      11.947 -16.085  14.752  1.00  0.00    -0.390 OA
ATOM     25  HO  UNL     1      11.485 -15.809  13.969  1.00  0.00     0.210 HD
ENDBRANCH   3  24
TORSDOF 6
ENDMDL
MODEL 12
REMARK VINA RESULT:    -7.284      4.368      7.066
REMARK INTER + INTRA:         -10.171
REMARK INTER:                  -9.196
REMARK INTRA:                  -0.975
REMARK UNBOUND:                -0.758
REMARK  6 active torsions:
REMARK  status: ('A' for Active; 'I' for Inactive)
REMARK    1  A    between atoms: P_1  and  O_5 
REMARK    2  A    between atoms: O_5  and  C_6 
REMARK    3  A    between atoms: C_6  and  C_7 
REMARK    4  A    between atoms: C_9  and  O_10 
REMARK    5  A    between atoms: C_12  and  O_13 
REMARK    6  A    between atoms: C_15  and  N_16 
ROOT
HETATM    1  C   UNL     1      16.240 -14.752   9.095  1.00  0.00     0.180 C 
HETATM    2  O   UNL     1      16.813 -15.098  10.376  1.00  0.00    -0.353 OA
HETATM    3  C   UNL     1      14.783 -15.205   9.121  1.00  0.00     0.182 C 
HETATM    4  C   UNL     1      14.489 -15.385  10.617  1.00  0.00     0.198 C 
HETATM    5  C   UNL     1      15.860 -15.767  11.172  1.00  0.00     0.263 C 
ENDROOT
BRANCH   5   6
HETATM    6  N   UNL     1      16.132 -15.346  12.549  1.00  0.00    -0.279 N 
HETATM    7  C   UNL     1      15.548 -14.222  13.058  1.00  0.00     0.108 A 
HETATM    8  C   UNL     1      15.873 -13.824  14.320  1.00  0.00    -0.005 A 
HETATM    9  C   UNL     1      15.232 -12.601  14.936  1.00  0.00     0.053 C 
HETATM   10  C   UNL     1      16.824 -14.576  15.057  1.00  0.00     0.127 A 
HETATM   11  N   UNL     1      17.173 -14.213  16.342  1.00  0.00    -0.082 NA
HETATM   12  N   UNL     1      17.381 -15.641  14.496  1.00  0.00    -0.296 N 
HETATM   13  C   UNL     1      17.059 -16.012  13.257  1.00  0.00     0.329 A 
ATOM     14  HN  UNL     1      18.067 -16.183  15.021  1.00  0.00     0.171 HD
HETATM   15  O   UNL     1      17.587 -16.990  12.751  1.00  0.00    -0.246 OA
ENDBRANCH   5   6
BRANCH   4  16
HETATM   16  O   UNL     1      13.534 -16.385  10.893  1.00  0.00    -0.388 OA
ATOM     17  HO  UNL     1      12.865 -16.472  10.224  1.00  0.00     0.210 HD
ENDBRANCH   4  16
BRANCH   1  18
HETATM   18  C   UNL     1      16.456 -13.277   8.862  1.00  0.00     0.217 C 
BRANCH  18  19
HETATM   19  O   UNL     1      16.728 -12.606  10.081  1.00  0.00    -0.280 OA
BRANCH  19  20
HETATM   20  P   UNL     1      15.942 -11.279  10.471  1.00  0.00     0.422 P 
HETATM   21  O   UNL     1      14.529 -11.589  10.130  1.00  0.00    -0.617 OA
HETATM   22  O   UNL     1      16.312 -10.916  11.984  1.00  0.00    -0.617 OA
HETATM   23  O   UNL     1      16.511 -10.168   9.466  1.00  0.00    -0.617 OA
ENDBRANCH  19  20
ENDBRANCH  18  19
ENDBRANCH   1  18
BRANCH   3  24
HETATM   24  O   UNL     1      14.661 -16.457   8.432  1.00  0.00    -0.390 OA
ATOM     25  HO  UNL     1      15.519 -16.740   8.139  1.00  0.00     0.210 HD
ENDBRANCH   3  24
TORSDOF 6
ENDMDL
MODEL 13
REMARK VINA RESULT:    -7.258      4.204      5.957
REMARK INTER + INTRA:         -10.137
REMARK INTER:                  -9.900
REMARK INTRA:                  -0.236
REMARK UNBOUND:                -0.758
REMARK  6 active torsions:
REMARK  status: ('A' for Active; 'I' for Inactive)
REMARK    1  A    between atoms: P_1  and  O_5 
REMARK    2  A    between atoms: O_5  and  C_6 
REMARK    3  A    between atoms: C_6  and  C_7 
REMARK    4  A    between atoms: C_9  and  O_10 
REMARK    5  A    between atoms: C_12  and  O_13 
REMARK    6  A    between atoms: C_15  and  N_16 
ROOT
HETATM    1  C   UNL     1      15.454 -15.474  13.916  1.00  0.00     0.180 C 
HETATM    2  O   UNL     1      15.989 -14.535  12.957  1.00  0.00    -0.353 OA
HETATM    3  C   UNL     1      16.089 -15.146  15.264  1.00  0.00     0.182 C 
HETATM    4  C   UNL     1      16.625 -13.721  15.071  1.00  0.00     0.198 C 
HETATM    5  C   UNL     1      16.933 -13.690  13.576  1.00  0.00     0.263 C 
ENDROOT
BRANCH   5   6
HETATM    6  N   UNL     1      16.786 -12.388  12.919  1.00  0.00    -0.279 N 
HETATM    7  C   UNL     1      16.323 -11.309  13.615  1.00  0.00     0.108 A 
HETATM    8  C   UNL     1      16.138 -10.130  12.958  1.00  0.00    -0.005 A 
HETATM    9  C   UNL     1      15.653  -8.901  13.693  1.00  0.00     0.053 C 
HETATM   10  C   UNL     1      16.410 -10.065  11.568  1.00  0.00     0.127 A 
HETATM   11  N   UNL     1      16.246  -8.888  10.867  1.00  0.00    -0.082 NA
HETATM   12  N   UNL     1      16.828 -11.157  10.939  1.00  0.00    -0.296 N 
HETATM   13  C   UNL     1      16.996 -12.305  11.595  1.00  0.00     0.329 A 
ATOM     14  HN  UNL     1      17.022 -11.116   9.939  1.00  0.00     0.171 HD
HETATM   15  O   UNL     1      17.371 -13.303  11.001  1.00  0.00    -0.246 OA
ENDBRANCH   5   6
BRANCH   4  16
HETATM   16  O   UNL     1      17.778 -13.438  15.832  1.00  0.00    -0.388 OA
ATOM     17  HO  UNL     1      18.587 -13.727  15.426  1.00  0.00     0.210 HD
ENDBRANCH   4  16
BRANCH   1  18
HETATM   18  C   UNL     1      13.948 -15.390  13.872  1.00  0.00     0.217 C 
BRANCH  18  19
HETATM   19  O   UNL     1      13.522 -14.059  13.635  1.00  0.00    -0.280 OA
BRANCH  19  20
HETATM   20  P   UNL     1      11.974 -13.706  13.533  1.00  0.00     0.422 P 
HETATM   21  O   UNL     1      11.886 -12.328  14.082  1.00  0.00    -0.617 OA
HETATM   22  O   UNL     1      11.507 -13.970  12.026  1.00  0.00    -0.617 OA
HETATM   23  O   UNL     1      11.262 -14.735  14.536  1.00  0.00    -0.617 OA
ENDBRANCH  19  20
ENDBRANCH  18  19
ENDBRANCH   1  18
BRANCH   3  24
HETATM   24  O   UNL     1      17.168 -16.057  15.515  1.00  0.00    -0.390 OA
ATOM     25  HO  UNL     1      16.829 -16.944  15.555  1.00  0.00     0.210 HD
ENDBRANCH   3  24
TORSDOF 6
ENDMDL
MODEL 14
REMARK VINA RESULT:    -7.241      5.506      7.512
REMARK INTER + INTRA:         -10.116
REMARK INTER:                  -9.447
REMARK INTRA:                  -0.668
REMARK UNBOUND:                -0.758
REMARK  6 active torsions:
REMARK  status: ('A' for Active; 'I' for Inactive)
REMARK    1  A    between atoms: P_1  and  O_5 
REMARK    2  A    between atoms: O_5  and  C_6 
REMARK    3  A    between atoms: C_6  and  C_7 
REMARK    4  A    between atoms: C_9  and  O_10 
REMARK    5  A    between atoms: C_12  and  O_13 
REMARK    6  A    between atoms: C_15  and  N_16 
ROOT
HETATM    1  C   UNL     1      14.018 -18.196  14.918  1.00  0.00     0.180 C 
HETATM    2  O   UNL     1      14.884 -17.054  14.738  1.00  0.00    -0.353 OA
HETATM    3  C   UNL     1      12.596 -17.731  14.615  1.00  0.00     0.182 C 
HETATM    4  C   UNL     1      12.805 -16.428  13.831  1.00  0.00     0.198 C 
HETATM    5  C   UNL     1      14.125 -15.914  14.401  1.00  0.00     0.263 C 
ENDROOT
BRANCH   5   6
HETATM    6  N   UNL     1      14.962 -15.142  13.479  1.00  0.00    -0.279 N 
HETATM    7  C   UNL     1      15.237 -15.616  12.229  1.00  0.00     0.108 A 
HETATM    8  C   UNL     1      16.071 -14.903  11.421  1.00  0.00    -0.005 A 
HETATM    9  C   UNL     1      16.383 -15.376  10.020  1.00  0.00     0.053 C 
HETATM   10  C   UNL     1      16.645 -13.703  11.911  1.00  0.00     0.127 A 
HETATM   11  N   UNL     1      17.487 -12.946  11.122  1.00  0.00    -0.082 NA
HETATM   12  N   UNL     1      16.366 -13.309  13.147  1.00  0.00    -0.296 N 
HETATM   13  C   UNL     1      15.554 -14.022  13.928  1.00  0.00     0.329 A 
ATOM     14  HN  UNL     1      16.779 -12.448  13.505  1.00  0.00     0.171 HD
HETATM   15  O   UNL     1      15.314 -13.652  15.066  1.00  0.00    -0.246 OA
ENDBRANCH   5   6
BRANCH   4  16
HETATM   16  O   UNL     1      11.773 -15.483  14.011  1.00  0.00    -0.388 OA
ATOM     17  HO  UNL     1      11.988 -14.793  14.629  1.00  0.00     0.210 HD
ENDBRANCH   4  16
BRANCH   1  18
HETATM   18  C   UNL     1      14.529 -19.320  14.052  1.00  0.00     0.217 C 
BRANCH  18  19
HETATM   19  O   UNL     1      13.703 -20.466  14.169  1.00  0.00    -0.280 OA
BRANCH  19  20
HETATM   20  P   UNL     1      13.468 -21.430  12.926  1.00  0.00     0.422 P 
HETATM   21  O   UNL     1      12.074 -21.133  12.504  1.00  0.00    -0.617 OA
HETATM   22  O   UNL     1      14.659 -21.192  11.886  1.00  0.00    -0.617 OA
HETATM   23  O   UNL     1      13.543 -22.907  13.545  1.00  0.00    -0.617 OA
ENDBRANCH  19  20
ENDBRANCH  18  19
ENDBRANCH   1  18
BRANCH   3  24
HETATM   24  O   UNL     1      11.908 -17.469  15.847  1.00  0.00    -0.390 OA
ATOM     25  HO  UNL     1      11.448 -16.641  15.781  1.00  0.00     0.210 HD
ENDBRANCH   3  24
TORSDOF 6
ENDMDL
MODEL 15
REMARK VINA RESULT:    -7.178      4.383      6.272
REMARK INTER + INTRA:         -10.034
REMARK INTER:                  -9.272
REMARK INTRA:                  -0.762
REMARK UNBOUND:                -0.758
REMARK  6 active torsions:
REMARK  status: ('A' for Active; 'I' for Inactive)
REMARK    1  A    between atoms: P_1  and  O_5 
REMARK    2  A    between atoms: O_5  and  C_6 
REMARK    3  A    between atoms: C_6  and  C_7 
REMARK    4  A    between atoms: C_9  and  O_10 
REMARK    5  A    between atoms: C_12  and  O_13 
REMARK    6  A    between atoms: C_15  and  N_16 
ROOT
HETATM    1  C   UNL     1      14.116 -16.019  14.273  1.00  0.00     0.180 C 
HETATM    2  O   UNL     1      14.555 -14.649  14.405  1.00  0.00    -0.353 OA
HETATM    3  C   UNL     1      12.942 -16.020  13.297  1.00  0.00     0.182 C 
HETATM    4  C   UNL     1      13.075 -14.672  12.575  1.00  0.00     0.198 C 
HETATM    5  C   UNL     1      13.731 -13.797  13.641  1.00  0.00     0.263 C 
ENDROOT
BRANCH   5   6
HETATM    6  N   UNL     1      14.613 -12.737  13.145  1.00  0.00    -0.279 N 
HETATM    7  C   UNL     1      15.385 -12.940  12.038  1.00  0.00     0.108 A 
HETATM    8  C   UNL     1      16.241 -11.957  11.642  1.00  0.00    -0.005 A 
HETATM    9  C   UNL     1      17.096 -12.125  10.406  1.00  0.00     0.053 C 
HETATM   10  C   UNL     1      16.321 -10.764  12.404  1.00  0.00     0.127 A 
HETATM   11  N   UNL     1      17.167  -9.739  12.032  1.00  0.00    -0.082 NA
HETATM   12  N   UNL     1      15.569 -10.638  13.490  1.00  0.00    -0.296 N 
HETATM   13  C   UNL     1      14.742 -11.613  13.869  1.00  0.00     0.329 A 
ATOM     14  HN  UNL     1      15.624  -9.783  14.043  1.00  0.00     0.171 HD
HETATM   15  O   UNL     1      14.063 -11.486  14.876  1.00  0.00    -0.246 OA
ENDBRANCH   5   6
BRANCH   4  16
HETATM   16  O   UNL     1      11.844 -14.126  12.158  1.00  0.00    -0.388 OA
ATOM     17  HO  UNL     1      11.318 -13.778  12.868  1.00  0.00     0.210 HD
ENDBRANCH   4  16
BRANCH   1  18
HETATM   18  C   UNL     1      15.300 -16.859  13.863  1.00  0.00     0.217 C 
BRANCH  18  19
HETATM   19  O   UNL     1      16.462 -16.479  14.581  1.00  0.00    -0.280 OA
BRANCH  19  20
HETATM   20  P   UNL     1      17.899 -16.562  13.904  1.00  0.00     0.422 P 
HETATM   21  O   UNL     1      17.960 -15.347  13.049  1.00  0.00    -0.617 OA
HETATM   22  O   UNL     1      18.981 -16.746  15.066  1.00  0.00    -0.617 OA
HETATM   23  O   UNL     1      17.831 -17.870  12.979  1.00  0.00    -0.617 OA
ENDBRANCH  19  20
ENDBRANCH  18  19
ENDBRANCH   1  18
BRANCH   3  24
HETATM   24  O   UNL     1      11.712 -16.076  14.032  1.00  0.00    -0.390 OA
ATOM     25  HO  UNL     1      11.803 -16.688  14.753  1.00  0.00     0.210 HD
ENDBRANCH   3  24
TORSDOF 6
ENDMDL
MODEL 16
REMARK VINA RESULT:    -7.128      4.620      6.696
REMARK INTER + INTRA:          -9.970
REMARK INTER:                  -9.136
REMARK INTRA:                  -0.834
REMARK UNBOUND:                -0.758
REMARK  6 active torsions:
REMARK  status: ('A' for Active; 'I' for Inactive)
REMARK    1  A    between atoms: P_1  and  O_5 
REMARK    2  A    between atoms: O_5  and  C_6 
REMARK    3  A    between atoms: C_6  and  C_7 
REMARK    4  A    between atoms: C_9  and  O_10 
REMARK    5  A    between atoms: C_12  and  O_13 
REMARK    6  A    between atoms: C_15  and  N_16 
ROOT
HETATM    1  C   UNL     1      15.198 -12.116  11.406  1.00  0.00     0.180 C 
HETATM    2  O   UNL     1      14.788 -13.400  11.928  1.00  0.00    -0.353 OA
HETATM    3  C   UNL     1      16.288 -11.586  12.333  1.00  0.00     0.182 C 
HETATM    4  C   UNL     1      16.753 -12.836  13.093  1.00  0.00     0.198 C 
HETATM    5  C   UNL     1      15.487 -13.689  13.118  1.00  0.00     0.263 C 
ENDROOT
BRANCH   5   6
HETATM    6  N   UNL     1      15.693 -15.140  13.111  1.00  0.00    -0.279 N 
HETATM    7  C   UNL     1      16.622 -15.704  12.284  1.00  0.00     0.108 A 
HETATM    8  C   UNL     1      16.743 -17.061  12.256  1.00  0.00    -0.005 A 
HETATM    9  C   UNL     1      17.775 -17.729  11.376  1.00  0.00     0.053 C 
HETATM   10  C   UNL     1      15.886 -17.846  13.069  1.00  0.00     0.127 A 
HETATM   11  N   UNL     1      15.983 -19.222  13.078  1.00  0.00    -0.082 NA
HETATM   12  N   UNL     1      14.981 -17.241  13.828  1.00  0.00    -0.296 N 
HETATM   13  C   UNL     1      14.870 -15.913  13.838  1.00  0.00     0.329 A 
ATOM     14  HN  UNL     1      14.361 -17.802  14.413  1.00  0.00     0.171 HD
HETATM   15  O   UNL     1      14.026 -15.372  14.534  1.00  0.00    -0.246 OA
ENDBRANCH   5   6
BRANCH   4  16
HETATM   16  O   UNL     1      17.211 -12.570  14.400  1.00  0.00    -0.388 OA
ATOM     17  HO  UNL     1      16.936 -13.214  15.042  1.00  0.00     0.210 HD
ENDBRANCH   4  16
BRANCH   1  18
HETATM   18  C   UNL     1      15.605 -12.299   9.965  1.00  0.00     0.217 C 
BRANCH  18  19
HETATM   19  O   UNL     1      14.847 -13.328   9.351  1.00  0.00    -0.280 OA
BRANCH  19  20
HETATM   20  P   UNL     1      15.479 -14.228   8.202  1.00  0.00     0.422 P 
HETATM   21  O   UNL     1      16.616 -13.414   7.697  1.00  0.00    -0.617 OA
HETATM   22  O   UNL     1      15.776 -15.674   8.816  1.00  0.00    -0.617 OA
HETATM   23  O   UNL     1      14.334 -14.311   7.083  1.00  0.00    -0.617 OA
ENDBRANCH  19  20
ENDBRANCH  18  19
ENDBRANCH   1  18
BRANCH   3  24
HETATM   24  O   UNL     1      15.719 -10.631  13.240  1.00  0.00    -0.390 OA
ATOM     25  HO  UNL     1      15.109 -10.075  12.770  1.00  0.00     0.210 HD
ENDBRANCH   3  24
TORSDOF 6
ENDMDL
MODEL 17
REMARK VINA RESULT:    -7.082      4.004      5.773
REMARK INTER + INTRA:          -9.910
REMARK INTER:                  -8.913
REMARK INTRA:                  -0.997
REMARK UNBOUND:                -0.758
REMARK  6 active torsions:
REMARK  status: ('A' for Active; 'I' for Inactive)
REMARK    1  A    between atoms: P_1  and  O_5 
REMARK    2  A    between atoms: O_5  and  C_6 
REMARK    3  A    between atoms: C_6  and  C_7 
REMARK    4  A    between atoms: C_9  and  O_10 
REMARK    5  A    between atoms: C_12  and  O_13 
REMARK    6  A    between atoms: C_15  and  N_16 
ROOT
HETATM    1  C   UNL     1      14.351 -16.369  13.340  1.00  0.00     0.180 C 
HETATM    2  O   UNL     1      15.024 -15.146  13.715  1.00  0.00    -0.353 OA
HETATM    3  C   UNL     1      12.875 -16.027  13.156  1.00  0.00     0.182 C 
HETATM    4  C   UNL     1      12.876 -14.500  13.004  1.00  0.00     0.198 C 
HETATM    5  C   UNL     1      14.094 -14.093  13.830  1.00  0.00     0.263 C 
ENDROOT
BRANCH   5   6
HETATM    6  N   UNL     1      14.802 -12.892  13.378  1.00  0.00    -0.279 N 
HETATM    7  C   UNL     1      14.903 -12.607  12.047  1.00  0.00     0.108 A 
HETATM    8  C   UNL     1      15.623 -11.517  11.658  1.00  0.00    -0.005 A 
HETATM    9  C   UNL     1      15.740 -11.148  10.197  1.00  0.00     0.053 C 
HETATM   10  C   UNL     1      16.263 -10.726  12.645  1.00  0.00     0.127 A 
HETATM   11  N   UNL     1      16.993  -9.609  12.295  1.00  0.00    -0.082 NA
HETATM   12  N   UNL     1      16.155 -11.072  13.921  1.00  0.00    -0.296 N 
HETATM   13  C   UNL     1      15.454 -12.146  14.285  1.00  0.00     0.329 A 
ATOM     14  HN  UNL     1      16.616 -10.507  14.635  1.00  0.00     0.171 HD
HETATM   15  O   UNL     1      15.371 -12.456  15.463  1.00  0.00    -0.246 OA
ENDBRANCH   5   6
BRANCH   4  16
HETATM   16  O   UNL     1      11.706 -13.878  13.487  1.00  0.00    -0.388 OA
ATOM     17  HO  UNL     1      11.599 -12.980  13.195  1.00  0.00     0.210 HD
ENDBRANCH   4  16
BRANCH   1  18
HETATM   18  C   UNL     1      15.041 -16.935  12.123  1.00  0.00     0.217 C 
BRANCH  18  19
HETATM   19  O   UNL     1      15.637 -15.904  11.353  1.00  0.00    -0.280 OA
BRANCH  19  20
HETATM   20  P   UNL     1      15.309 -15.753   9.804  1.00  0.00     0.422 P 
HETATM   21  O   UNL     1      13.825 -15.682   9.760  1.00  0.00    -0.617 OA
HETATM   22  O   UNL     1      16.160 -14.523   9.239  1.00  0.00    -0.617 OA
HETATM   23  O   UNL     1      15.804 -17.132   9.154  1.00  0.00    -0.617 OA
ENDBRANCH  19  20
ENDBRANCH  18  19
ENDBRANCH   1  18
BRANCH   3  24
HETATM   24  O   UNL     1      12.148 -16.413  14.331  1.00  0.00    -0.390 OA
ATOM     25  HO  UNL     1      12.326 -17.325  14.526  1.00  0.00     0.210 HD
ENDBRANCH   3  24
TORSDOF 6
ENDMDL
MODEL 18
REMARK VINA RESULT:    -7.081      4.395      7.650
REMARK INTER + INTRA:          -9.908
REMARK INTER:                  -9.355
REMARK INTRA:                  -0.553
REMARK UNBOUND:                -0.758
REMARK  6 active torsions:
REMARK  status: ('A' for Active; 'I' for Inactive)
REMARK    1  A    between atoms: P_1  and  O_5 
REMARK    2  A    between atoms: O_5  and  C_6 
REMARK    3  A    between atoms: C_6  and  C_7 
REMARK    4  A    between atoms: C_9  and  O_10 
REMARK    5  A    between atoms: C_12  and  O_13 
REMARK    6  A    between atoms: C_15  and  N_16 
ROOT
HETATM    1  C   UNL     1      16.406 -13.226   9.287  1.00  0.00     0.180 C 
HETATM    2  O   UNL     1      16.711 -14.129  10.374  1.00  0.00    -0.353 OA
HETATM    3  C   UNL     1      15.509 -13.985   8.314  1.00  0.00     0.182 C 
HETATM    4  C   UNL     1      14.985 -15.160   9.151  1.00  0.00     0.198 C 
HETATM    5  C   UNL     1      16.128 -15.391  10.137  1.00  0.00     0.263 C 
ENDROOT
BRANCH   5   6
HETATM    6  N   UNL     1      15.741 -15.899  11.456  1.00  0.00    -0.279 N 
HETATM    7  C   UNL     1      14.519 -15.599  11.984  1.00  0.00     0.108 A 
HETATM    8  C   UNL     1      14.217 -16.035  13.239  1.00  0.00    -0.005 A 
HETATM    9  C   UNL     1      12.866 -15.750  13.854  1.00  0.00     0.053 C 
HETATM   10  C   UNL     1      15.190 -16.766  13.967  1.00  0.00     0.127 A 
HETATM   11  N   UNL     1      14.921 -17.234  15.237  1.00  0.00    -0.082 NA
HETATM   12  N   UNL     1      16.373 -16.998  13.414  1.00  0.00    -0.296 N 
HETATM   13  C   UNL     1      16.655 -16.558  12.187  1.00  0.00     0.329 A 
ATOM     14  HN  UNL     1      17.076 -17.522  13.935  1.00  0.00     0.171 HD
HETATM   15  O   UNL     1      17.752 -16.772  11.695  1.00  0.00    -0.246 OA
ENDBRANCH   5   6
BRANCH   4  16
HETATM   16  O   UNL     1      14.723 -16.324   8.398  1.00  0.00    -0.388 OA
ATOM     17  HO  UNL     1      14.034 -16.868   8.759  1.00  0.00     0.210 HD
ENDBRANCH   4  16
BRANCH   1  18
HETATM   18  C   UNL     1      15.810 -11.968   9.870  1.00  0.00     0.217 C 
BRANCH  18  19
HETATM   19  O   UNL     1      16.462 -10.816   9.360  1.00  0.00    -0.280 OA
BRANCH  19  20
HETATM   20  P   UNL     1      16.937  -9.653  10.335  1.00  0.00     0.422 P 
HETATM   21  O   UNL     1      16.631 -10.178  11.692  1.00  0.00    -0.617 OA
HETATM   22  O   UNL     1      18.451  -9.292   9.969  1.00  0.00    -0.617 OA
HETATM   23  O   UNL     1      15.963  -8.425   9.998  1.00  0.00    -0.617 OA
ENDBRANCH  19  20
ENDBRANCH  18  19
ENDBRANCH   1  18
BRANCH   3  24
HETATM   24  O   UNL     1      16.298 -14.465   7.216  1.00  0.00    -0.390 OA
ATOM     25  HO  UNL     1      17.182 -14.126   7.291  1.00  0.00     0.210 HD
ENDBRANCH   3  24
TORSDOF 6
ENDMDL
MODEL 19
REMARK VINA RESULT:    -7.034      3.846      5.409
REMARK INTER + INTRA:          -9.848
REMARK INTER:                  -9.128
REMARK INTRA:                  -0.721
REMARK UNBOUND:                -0.758
REMARK  6 active torsions:
REMARK  status: ('A' for Active; 'I' for Inactive)
REMARK    1  A    between atoms: P_1  and  O_5 
REMARK    2  A    between atoms: O_5  and  C_6 
REMARK    3  A    between atoms: C_6  and  C_7 
REMARK    4  A    between atoms: C_9  and  O_10 
REMARK    5  A    between atoms: C_12  and  O_13 
REMARK    6  A    between atoms: C_15  and  N_16 
ROOT
HETATM    1  C   UNL     1      17.163 -15.917  12.725  1.00  0.00     0.180 C 
HETATM    2  O   UNL     1      17.511 -14.521  12.596  1.00  0.00    -0.353 OA
HETATM    3  C   UNL     1      15.936 -15.990  13.629  1.00  0.00     0.182 C 
HETATM    4  C   UNL     1      15.383 -14.559  13.599  1.00  0.00     0.198 C 
HETATM    5  C   UNL     1      16.645 -13.728  13.377  1.00  0.00     0.263 C 
ENDROOT
BRANCH   5   6
HETATM    6  N   UNL     1      16.467 -12.483  12.626  1.00  0.00    -0.279 N 
HETATM    7  C   UNL     1      16.850 -12.401  11.318  1.00  0.00     0.108 A 
HETATM    8  C   UNL     1      16.729 -11.209  10.668  1.00  0.00    -0.005 A 
HETATM    9  C   UNL     1      17.116 -11.078   9.213  1.00  0.00     0.053 C 
HETATM   10  C   UNL     1      16.231 -10.086  11.376  1.00  0.00     0.127 A 
HETATM   11  N   UNL     1      16.084  -8.864  10.753  1.00  0.00    -0.082 NA
HETATM   12  N   UNL     1      15.906 -10.219  12.655  1.00  0.00    -0.296 N 
HETATM   13  C   UNL     1      16.037 -11.390  13.279  1.00  0.00     0.329 A 
ATOM     14  HN  UNL     1      15.549  -9.413  13.169  1.00  0.00     0.171 HD
HETATM   15  O   UNL     1      15.742 -11.495  14.459  1.00  0.00    -0.246 OA
ENDBRANCH   5   6
BRANCH   4  16
HETATM   16  O   UNL     1      14.727 -14.177  14.788  1.00  0.00    -0.388 OA
ATOM     17  HO  UNL     1      13.797 -14.015  14.678  1.00  0.00     0.210 HD
ENDBRANCH   4  16
BRANCH   1  18
HETATM   18  C   UNL     1      16.983 -16.490  11.340  1.00  0.00     0.217 C 
BRANCH  18  19
HETATM   19  O   UNL     1      17.934 -17.510  11.087  1.00  0.00    -0.280 OA
BRANCH  19  20
HETATM   20  P   UNL     1      17.647 -19.014  11.517  1.00  0.00     0.422 P 
HETATM   21  O   UNL     1      18.473 -19.199  12.738  1.00  0.00    -0.617 OA
HETATM   22  O   UNL     1      16.062 -19.203  11.619  1.00  0.00    -0.617 OA
HETATM   23  O   UNL     1      18.247 -19.895  10.319  1.00  0.00    -0.617 OA
ENDBRANCH  19  20
ENDBRANCH  18  19
ENDBRANCH   1  18
BRANCH   3  24
HETATM   24  O   UNL     1      16.344 -16.342  14.958  1.00  0.00    -0.390 OA
ATOM     25  HO  UNL     1      17.205 -15.978  15.130  1.00  0.00     0.210 HD
ENDBRANCH   3  24
TORSDOF 6
ENDMDL
MODEL 20
REMARK VINA RESULT:    -7.017      4.510      6.912
REMARK INTER + INTRA:          -9.826
REMARK INTER:                  -9.102
REMARK INTRA:                  -0.724
REMARK UNBOUND:                -0.758
REMARK  6 active torsions:
REMARK  status: ('A' for Active; 'I' for Inactive)
REMARK    1  A    between atoms: P_1  and  O_5 
REMARK    2  A    between atoms: O_5  and  C_6 
REMARK    3  A    between atoms: C_6  and  C_7 
REMARK    4  A    between atoms: C_9  and  O_10 
REMARK    5  A    between atoms: C_12  and  O_13 
REMARK    6  A    between atoms: C_15  and  N_16 
ROOT
HETATM    1  C   UNL     1      15.701 -11.791  11.190  1.00  0.00     0.180 C 
HETATM    2  O   UNL     1      14.802 -12.769  11.760  1.00  0.00    -0.353 OA
HETATM    3  C   UNL     1      16.856 -11.622  12.173  1.00  0.00     0.182 C 
HETATM    4  C   UNL     1      16.764 -12.874  13.055  1.00  0.00     0.198 C 
HETATM    5  C   UNL     1      15.268 -13.182  13.025  1.00  0.00     0.263 C 
ENDROOT
BRANCH   5   6
HETATM    6  N   UNL     1      14.904 -14.597  13.135  1.00  0.00    -0.279 N 
HETATM    7  C   UNL     1      15.754 -15.569  12.689  1.00  0.00     0.108 A 
HETATM    8  C   UNL     1      15.356 -16.871  12.749  1.00  0.00    -0.005 A 
HETATM    9  C   UNL     1      16.273 -17.982  12.292  1.00  0.00     0.053 C 
HETATM   10  C   UNL     1      14.065 -17.175  13.250  1.00  0.00     0.127 A 
HETATM   11  N   UNL     1      13.628 -18.481  13.337  1.00  0.00    -0.082 NA
HETATM   12  N   UNL     1      13.272 -16.185  13.639  1.00  0.00    -0.296 N 
HETATM   13  C   UNL     1      13.672 -14.916  13.567  1.00  0.00     0.329 A 
ATOM     14  HN  UNL     1      12.341 -16.399  13.998  1.00  0.00     0.171 HD
HETATM   15  O   UNL     1      12.928 -14.015  13.919  1.00  0.00    -0.246 OA
ENDBRANCH   5   6
BRANCH   4  16
HETATM   16  O   UNL     1      17.213 -12.674  14.377  1.00  0.00    -0.388 OA
ATOM     17  HO  UNL     1      16.523 -12.722  15.028  1.00  0.00     0.210 HD
ENDBRANCH   4  16
BRANCH   1  18
HETATM   18  C   UNL     1      16.088 -12.253   9.807  1.00  0.00     0.217 C 
BRANCH  18  19
HETATM   19  O   UNL     1      15.056 -13.031   9.225  1.00  0.00    -0.280 OA
BRANCH  19  20
HETATM   20  P   UNL     1      15.364 -14.472   8.627  1.00  0.00     0.422 P 
HETATM   21  O   UNL     1      16.470 -14.982   9.477  1.00  0.00    -0.617 OA
HETATM   22  O   UNL     1      13.989 -15.287   8.574  1.00  0.00    -0.617 OA
HETATM   23  O   UNL     1      15.909 -14.183   7.147  1.00  0.00    -0.617 OA
ENDBRANCH  19  20
ENDBRANCH  18  19
ENDBRANCH   1  18
BRANCH   3  24
HETATM   24  O   UNL     1      16.645 -10.440  12.957  1.00  0.00    -0.390 OA
ATOM     25  HO  UNL     1      17.064 -10.544  13.803  1.00  0.00     0.210 HD
ENDBRANCH   3  24
TORSDOF 6
ENDMDL
