REMARK  6 active torsions:
REMARK  status: ('A' for Active; 'I' for Inactive)
REMARK       I    between atoms: N_2  and  C_26 
REMARK    1  A    between atoms: O_3  and  C_32 
REMARK       I    between atoms: N_6  and  C_26 
REMARK    2  A    between atoms: O_12  and  C_34 
REMARK    3  A    between atoms: O_12  and  C_36 
REMARK    4  A    between atoms: C_16  and  C_20 
REMARK    5  A    between atoms: C_29  and  C_30 
REMARK    6  A    between atoms: C_31  and  C_35 
ROOT
HETATM    1  O   UNL     1       1.510   2.721  -1.516  1.00  0.00    -0.246 OA
HETATM    2  N   UNL     1      -0.691   2.050  -1.127  1.00  0.00    -0.293 N 
HETATM    3  N   UNL     1       1.545  -0.744   1.470  1.00  0.00    -0.364 N 
ATOM      4  HN  UNL     1       1.306  -1.352   2.254  1.00  0.00     0.162 HD
HETATM    5  N   UNL     1       1.323   0.833  -0.164  1.00  0.00    -0.273 N 
HETATM    6  C   UNL     1       2.762   0.575  -0.069  1.00  0.00     0.156 C 
HETATM    7  C   UNL     1      -1.188  -0.254  -1.756  1.00  0.00     0.049 C 
HETATM    8  C   UNL     1      -1.607   0.948  -1.345  1.00  0.00     0.097 C 
HETATM    9  C   UNL     1       0.739   1.893  -0.957  1.00  0.00     0.331 C 
HETATM   10  C   UNL     1       2.853  -0.684   0.833  1.00  0.00     0.144 C 
HETATM   11  C   UNL     1       0.731   0.082   0.901  1.00  0.00     0.121 C 
HETATM   12  C   UNL     1      -1.218   3.408  -1.345  1.00  0.00     0.154 C 
HETATM   13  C   UNL     1      -2.547   3.615  -0.609  1.00  0.00     0.143 C 
HETATM   14  N   UNL     1      -3.493   2.544  -0.909  1.00  0.00    -0.354 N 
HETATM   15  C   UNL     1      -3.052   1.209  -1.172  1.00  0.00     0.267 C 
HETATM   16  O   UNL     1      -3.899   0.280  -1.265  1.00  0.00    -0.266 OA
HETATM   17  H   UNL     1      -4.514   2.725  -0.779  1.00  0.00     0.162 HD
ENDROOT
BRANCH  11  18
HETATM   18  C   UNL     1      -0.600   0.326   1.484  1.00  0.00     0.042 A 
HETATM   19  C   UNL     1      -0.930   1.606   1.948  1.00  0.00     0.021 A 
HETATM   20  C   UNL     1      -2.160   1.837   2.564  1.00  0.00     0.038 A 
HETATM   21  C   UNL     1      -3.080   0.799   2.725  1.00  0.00     0.070 A 
HETATM   22  C   UNL     1      -2.746  -0.493   2.279  1.00  0.00     0.074 A 
HETATM   23  C   UNL     1      -1.502  -0.741   1.664  1.00  0.00     0.086 A 
BRANCH  21  24
HETATM   24  O   UNL     1      -4.311   1.091   3.333  1.00  0.00    -0.356 OA
HETATM   25  C   UNL     1      -5.350   0.142   3.545  1.00  0.00     0.210 C 
ENDBRANCH  21  24
BRANCH  23  26
HETATM   26  O   UNL     1      -1.123  -2.020   1.216  1.00  0.00    -0.346 OA
BRANCH  26  27
HETATM   27  C   UNL     1      -1.917  -3.206   1.280  1.00  0.00     0.120 C 
HETATM   28  C   UNL     1      -2.980  -3.196   0.177  1.00  0.00     0.040 C 
HETATM   29  C   UNL     1      -1.000  -4.417   1.115  1.00  0.00     0.040 C 
ENDBRANCH  26  27
ENDBRANCH  23  26
ENDBRANCH  11  18
BRANCH  10  30
HETATM   30  C   UNL     1       3.147  -1.979   0.094  1.00  0.00    -0.033 A 
HETATM   31  C   UNL     1       2.126  -2.722  -0.530  1.00  0.00     0.011 A 
HETATM   32  C   UNL     1       2.432  -3.877  -1.255  1.00  0.00     0.024 A 
HETATM   33  C   UNL     1       3.760  -4.298  -1.373  1.00  0.00     0.034 A 
HETATM   34  C   UNL     1       4.782  -3.563  -0.766  1.00  0.00     0.024 A 
HETATM   35 CL   UNL     1       4.143  -5.742  -2.293  1.00  0.00    -0.084 Cl
HETATM   36  C   UNL     1       4.479  -2.408  -0.039  1.00  0.00     0.011 A 
ENDBRANCH  10  30
BRANCH   6  37
HETATM   37  C   UNL     1       3.480   0.475  -1.409  1.00  0.00    -0.032 A 
HETATM   38  C   UNL     1       4.774   1.014  -1.533  1.00  0.00     0.011 A 
HETATM   39  C   UNL     1       5.479   0.900  -2.735  1.00  0.00     0.024 A 
HETATM   40  C   UNL     1       4.909   0.235  -3.823  1.00  0.00     0.034 A 
HETATM   41  C   UNL     1       3.631  -0.318  -3.707  1.00  0.00     0.024 A 
HETATM   42 CL   UNL     1       5.799   0.084  -5.326  1.00  0.00    -0.084 Cl
HETATM   43  C   UNL     1       2.922  -0.202  -2.509  1.00  0.00     0.011 A 
ENDBRANCH   6  37
TORSDOF 6
