REMARK  6 active torsions:
REMARK  status: ('A' for Active; 'I' for Inactive)
REMARK       I    between atoms: N_2  and  C_26 
REMARK    1  A    between atoms: O_3  and  C_32 
REMARK       I    between atoms: N_6  and  C_26 
REMARK    2  A    between atoms: O_12  and  C_36 
REMARK    3  A    between atoms: O_12  and  C_34 
REMARK    4  A    between atoms: C_16  and  C_20 
REMARK    5  A    between atoms: C_29  and  C_30 
REMARK    6  A    between atoms: C_31  and  C_35 
ROOT
HETATM    1  O   UNL     1      30.296   2.227  15.503  1.00  0.00    -0.246 OA
HETATM    2  N   UNL     1      31.959   3.479  16.287  1.00  0.00    -0.293 N 
HETATM    3  N   UNL     1      29.269   6.542  16.085  1.00  0.00    -0.364 N 
ATOM      4  HN  UNL     1      29.284   7.562  16.088  1.00  0.00     0.162 HD
HETATM    5  N   UNL     1      29.907   4.421  15.706  1.00  0.00    -0.273 N 
HETATM    6  C   UNL     1      28.469   4.290  15.975  1.00  0.00     0.156 C 
HETATM    7  C   UNL     1      31.417   4.923  18.028  1.00  0.00     0.049 C 
HETATM    8  C   UNL     1      32.294   4.423  17.183  1.00  0.00     0.097 C 
HETATM    9  C   UNL     1      30.703   3.314  15.812  1.00  0.00     0.331 C 
HETATM   10  C   UNL     1      28.204   5.679  16.624  1.00  0.00     0.144 C 
HETATM   11  C   UNL     1      30.170   5.770  15.613  1.00  0.00     0.121 C 
HETATM   12  C   UNL     1      33.008   2.537  15.882  1.00  0.00     0.154 C 
HETATM   13  C   UNL     1      34.219   3.316  15.496  1.00  0.00     0.143 C 
HETATM   14  N   UNL     1      34.526   4.248  16.533  1.00  0.00    -0.354 N 
ATOM     15  HN  UNL     1      35.511   4.430  16.727  1.00  0.00     0.162 HD
HETATM   16  C   UNL     1      33.629   4.893  17.261  1.00  0.00     0.267 C 
HETATM   17  O   UNL     1      33.966   5.829  17.960  1.00  0.00    -0.266 OA
ENDROOT
BRANCH  11  18
HETATM   18  C   UNL     1      31.405   6.313  15.028  1.00  0.00     0.042 A 
HETATM   19  C   UNL     1      32.006   5.759  13.898  1.00  0.00     0.086 A 
HETATM   20  C   UNL     1      33.062   6.381  13.275  1.00  0.00     0.074 A 
HETATM   21  C   UNL     1      33.558   7.557  13.804  1.00  0.00     0.070 A 
HETATM   22  C   UNL     1      33.011   8.100  14.946  1.00  0.00     0.038 A 
HETATM   23  C   UNL     1      31.942   7.479  15.553  1.00  0.00     0.021 A 
BRANCH  19  24
HETATM   24  O   UNL     1      31.574   4.514  13.551  1.00  0.00    -0.346 OA
BRANCH  24  25
HETATM   25  C   UNL     1      31.268   4.159  12.190  1.00  0.00     0.120 C 
HETATM   26  C   UNL     1      32.023   4.832  11.120  1.00  0.00     0.040 C 
HETATM   27  C   UNL     1      31.412   2.688  12.156  1.00  0.00     0.040 C 
ENDBRANCH  24  25
ENDBRANCH  19  24
BRANCH  21  28
HETATM   28  O   UNL     1      34.593   8.211  13.216  1.00  0.00    -0.356 OA
HETATM   29  C   UNL     1      35.593   7.412  12.616  1.00  0.00     0.210 C 
ENDBRANCH  21  28
ENDBRANCH  11  18
BRANCH   6  30
HETATM   30  C   UNL     1      27.641   4.023  14.738  1.00  0.00    -0.032 A 
HETATM   31  C   UNL     1      26.406   3.412  14.849  1.00  0.00     0.011 A 
HETATM   32  C   UNL     1      25.613   3.194  13.741  1.00  0.00     0.024 A 
HETATM   33  C   UNL     1      26.066   3.582  12.510  1.00  0.00     0.034 A 
HETATM   34 CL   UNL     1      25.058   3.344  11.123  1.00  0.00    -0.084 Cl
HETATM   35  C   UNL     1      27.292   4.174  12.358  1.00  0.00     0.024 A 
HETATM   36  C   UNL     1      28.075   4.394  13.476  1.00  0.00     0.011 A 
ENDBRANCH   6  30
BRANCH  10  37
HETATM   37  C   UNL     1      26.818   6.240  16.399  1.00  0.00    -0.033 A 
HETATM   38  C   UNL     1      25.792   5.973  17.290  1.00  0.00     0.011 A 
HETATM   39  C   UNL     1      24.515   6.451  17.072  1.00  0.00     0.024 A 
HETATM   40  C   UNL     1      24.263   7.195  15.949  1.00  0.00     0.034 A 
HETATM   41 CL   UNL     1      22.637   7.681  15.598  1.00  0.00    -0.084 Cl
HETATM   42  C   UNL     1      25.261   7.500  15.060  1.00  0.00     0.024 A 
HETATM   43  C   UNL     1      26.536   7.019  15.290  1.00  0.00     0.011 A 
ENDBRANCH  10  37
TORSDOF 6
