REMARK  16 active torsions:
REMARK  status: ('A' for Active; 'I' for Inactive)
REMARK    1  A    between atoms: N_1  and  C_11 
REMARK    2  A    between atoms: C_5  and  O_9 
REMARK    3  A    between atoms: C_12  and  O_13 
REMARK    4  A    between atoms: C_15  and  O_18 
REMARK    5  A    between atoms: C_16  and  C_20 
REMARK    6  A    between atoms: C_20  and  O_21 
REMARK    7  A    between atoms: O_21  and  P_22 
REMARK    8  A    between atoms: P_22  and  O_25 
REMARK    9  A    between atoms: O_25  and  P_26 
REMARK   10  A    between atoms: P_26  and  O_29 
REMARK   11  A    between atoms: O_29  and  C_30 
REMARK   12  A    between atoms: C_31  and  O_36 
REMARK   13  A    between atoms: C_32  and  O_38 
REMARK   14  A    between atoms: C_33  and  O_40 
REMARK   15  A    between atoms: C_34  and  C_35 
REMARK   16  A    between atoms: C_35  and  O_43 
ROOT
HETATM    1  P   UNL     1     -18.493 -22.073 -26.368  1.00  0.00     0.417 P 
HETATM    2  O   UNL     1     -18.103 -21.629 -27.764  1.00  0.00    -0.624 OA
HETATM    3  O   UNL     1     -17.388 -22.660 -25.532  1.00  0.00    -0.624 OA
ENDROOT
BRANCH   1   4
HETATM    4  O   UNL     1     -19.640 -23.146 -26.474  1.00  0.00    -0.287 OA
BRANCH   4   5
HETATM    5  C   UNL     1     -20.762 -22.948 -27.307  1.00  0.00     0.216 C 
BRANCH   5   6
HETATM    6  C   UNL     1     -21.481 -24.302 -27.423  1.00  0.00     0.180 C 
HETATM    7  O   UNL     1     -20.758 -25.227 -28.039  1.00  0.00    -0.353 OA
HETATM    8  C   UNL     1     -20.487 -26.441 -27.226  1.00  0.00     0.263 C 
HETATM    9  C   UNL     1     -20.820 -25.823 -25.816  1.00  0.00     0.198 C 
HETATM   10  C   UNL     1     -21.774 -24.942 -25.949  1.00  0.00     0.182 C 
BRANCH   8  11
HETATM   11  N   UNL     1     -19.189 -26.851 -27.429  1.00  0.00    -0.280 N 
HETATM   12  C   UNL     1     -18.147 -25.982 -27.290  1.00  0.00     0.103 A 
HETATM   13  C   UNL     1     -16.844 -26.338 -27.526  1.00  0.00     0.073 A 
HETATM   14  C   UNL     1     -16.646 -27.623 -28.006  1.00  0.00     0.144 A 
HETATM   15  N   UNL     1     -17.656 -28.481 -28.142  1.00  0.00    -0.289 N 
HETATM   16  C   UNL     1     -18.925 -28.113 -27.862  1.00  0.00     0.330 A 
ATOM     17  HN  UNL     1     -17.468 -29.431 -28.463  1.00  0.00     0.172 HD
HETATM   18  O   UNL     1     -19.827 -28.931 -28.008  1.00  0.00    -0.246 OA
BRANCH  14  19
HETATM   19  O   UNL     1     -15.439 -28.099 -28.256  1.00  0.00    -0.346 OA
ATOM     20  HO  UNL     1     -15.303 -28.980 -28.585  1.00  0.00     0.219 HD
ENDBRANCH  14  19
ENDBRANCH   8  11
BRANCH   9  21
HETATM   21  O   UNL     1     -21.256 -27.007 -25.026  1.00  0.00    -0.388 OA
ATOM     22  HO  UNL     1     -20.562 -27.648 -24.929  1.00  0.00     0.210 HD
ENDBRANCH   9  21
BRANCH  10  23
HETATM   23  O   UNL     1     -23.167 -25.425 -26.037  1.00  0.00    -0.390 OA
ATOM     24  HO  UNL     1     -23.337 -25.797 -25.180  1.00  0.00     0.210 HD
ENDBRANCH  10  23
ENDBRANCH   5   6
ENDBRANCH   4   5
ENDBRANCH   1   4
BRANCH   1  25
HETATM   25  O   UNL     1     -19.202 -20.770 -25.751  1.00  0.00    -0.180 OA
BRANCH  25  26
HETATM   26  P   UNL     1     -19.954 -20.554 -24.320  1.00  0.00     0.420 P 
HETATM   27  O   UNL     1     -19.321 -21.457 -23.306  1.00  0.00    -0.624 OA
HETATM   28  O   UNL     1     -21.318 -20.179 -24.606  1.00  0.00    -0.624 OA
BRANCH  26  29
HETATM   29  O   UNL     1     -19.114 -19.151 -23.945  1.00  0.00    -0.255 OA
BRANCH  29  30
HETATM   30  C   UNL     1     -19.089 -18.061 -24.833  1.00  0.00     0.304 C 
HETATM   31  C   UNL     1     -17.938 -17.148 -24.626  1.00  0.00     0.205 C 
HETATM   32  C   UNL     1     -17.920 -16.808 -23.235  1.00  0.00     0.183 C 
HETATM   33  C   UNL     1     -19.025 -15.875 -22.951  1.00  0.00     0.180 C 
HETATM   34  C   UNL     1     -20.399 -16.548 -23.255  1.00  0.00     0.179 C 
HETATM   35  O   UNL     1     -20.322 -17.276 -24.602  1.00  0.00    -0.348 OA
BRANCH  31  36
HETATM   36  O   UNL     1     -16.624 -17.716 -24.973  1.00  0.00    -0.388 OA
ATOM     37  HO  UNL     1     -15.887 -17.131 -24.840  1.00  0.00     0.210 HD
ENDBRANCH  31  36
BRANCH  32  38
HETATM   38  O   UNL     1     -16.610 -16.234 -22.856  1.00  0.00    -0.390 OA
ATOM     39  HO  UNL     1     -15.898 -16.835 -23.039  1.00  0.00     0.210 HD
ENDBRANCH  32  38
BRANCH  33  40
HETATM   40  O   UNL     1     -18.938 -15.494 -21.580  1.00  0.00    -0.390 OA
ATOM     41  HO  UNL     1     -19.650 -14.893 -21.397  1.00  0.00     0.210 HD
ENDBRANCH  33  40
BRANCH  34  42
HETATM   42  C   UNL     1     -21.415 -15.542 -23.355  1.00  0.00     0.198 C 
BRANCH  42  43
HETATM   43  O   UNL     1     -20.783 -14.302 -23.578  1.00  0.00    -0.398 OA
ATOM     44  HO  UNL     1     -21.456 -13.635 -23.644  1.00  0.00     0.209 HD
ENDBRANCH  42  43
ENDBRANCH  34  42
ENDBRANCH  29  30
ENDBRANCH  26  29
ENDBRANCH  25  26
ENDBRANCH   1  25
TORSDOF 16
