MODEL 1
REMARK VINA RESULT:   -13.123      0.000      0.000
REMARK INTER + INTRA:         -19.673
REMARK INTER:                 -18.493
REMARK INTRA:                  -1.180
REMARK UNBOUND:                -1.180
REMARK  7 active torsions:
REMARK  status: ('A' for Active; 'I' for Inactive)
REMARK    1  A    between atoms: C_1  and  C_17 
REMARK    2  A    between atoms: C_1  and  C_16 
REMARK    3  A    between atoms: C_3  and  C_20 
REMARK    4  A    between atoms: C_6  and  C_22 
REMARK    5  A    between atoms: C_10  and  C_13 
REMARK    6  A    between atoms: C_15  and  C_16 
REMARK    7  A    between atoms: C_17  and  C_18 
ROOT
HETATM    1  C   UNL     1      28.390  -6.420   6.345  1.00  0.00     0.023 A 
HETATM    2  C   UNL     1      27.623  -7.380   5.740  1.00  0.00    -0.049 A 
HETATM    3  C   UNL     1      26.577  -7.937   7.816  1.00  0.00    -0.049 A 
HETATM    4  C   UNL     1      27.336  -6.965   8.414  1.00  0.00     0.023 A 
HETATM    5  C   UNL     1      28.229  -6.207   7.706  1.00  0.00     0.011 A 
HETATM    6  C   UNL     1      26.711  -8.139   6.443  1.00  0.00     0.015 A 
ENDROOT
BRANCH   5   7
HETATM    7  C   UNL     1      29.103  -5.160   8.370  1.00  0.00     0.159 C 
HETATM    8  O   UNL     1      29.609  -4.286   7.749  1.00  0.00    -0.292 OA
BRANCH   7   9
HETATM    9  C   UNL     1      29.436  -5.330   9.848  1.00  0.00     0.088 C 
BRANCH   9  10
HETATM   10  C   UNL     1      30.523  -4.380  10.194  1.00  0.00     0.046 C 
BRANCH  10  11
HETATM   11  C   UNL     1      30.974  -4.303  11.666  1.00  0.00    -0.058 A 
HETATM   12  C   UNL     1      31.725  -3.200  11.983  1.00  0.00     0.008 A 
HETATM   13  C   UNL     1      32.232  -3.059  13.269  1.00  0.00     0.019 A 
HETATM   14  C   UNL     1      31.892  -4.021  14.214  1.00  0.00     0.040 A 
HETATM   15  C   UNL     1      31.156  -5.124  13.917  1.00  0.00     0.019 A 
HETATM   16  C   UNL     1      30.651  -5.262  12.613  1.00  0.00     0.008 A 
BRANCH  14  17
HETATM   17  C   UNL     1      32.463  -3.880  15.626  1.00  0.00     0.209 C 
HETATM   18  O   UNL     1      33.538  -3.237  15.743  1.00  0.00    -0.644 OA
HETATM   19  O   UNL     1      31.791  -4.315  16.594  1.00  0.00    -0.644 OA
ENDBRANCH  14  17
ENDBRANCH  10  11
ENDBRANCH   9  10
ENDBRANCH   7   9
ENDBRANCH   5   7
BRANCH   3  20
HETATM   20  C   UNL     1      25.561  -8.712   8.673  1.00  0.00    -0.024 C 
HETATM   21  C   UNL     1      26.300  -9.695   9.598  1.00  0.00     0.019 C 
HETATM   22  C   UNL     1      24.751  -7.725   9.512  1.00  0.00     0.019 C 
HETATM   23  C   UNL     1      24.598  -9.533   7.820  1.00  0.00     0.019 C 
ENDBRANCH   3  20
BRANCH   2  24
HETATM   24  C   UNL     1      27.860  -7.607   4.268  1.00  0.00    -0.024 C 
HETATM   25  C   UNL     1      26.591  -8.116   3.618  1.00  0.00     0.019 C 
HETATM   26  C   UNL     1      28.464  -6.360   3.612  1.00  0.00     0.019 C 
HETATM   27  C   UNL     1      28.917  -8.713   4.215  1.00  0.00     0.019 C 
ENDBRANCH   2  24
TORSDOF 7
ENDMDL
MODEL 2
REMARK VINA RESULT:   -13.073      0.132      3.400
REMARK INTER + INTRA:         -19.604
REMARK INTER:                 -18.403
REMARK INTRA:                  -1.201
REMARK UNBOUND:                -1.180
REMARK  7 active torsions:
REMARK  status: ('A' for Active; 'I' for Inactive)
REMARK    1  A    between atoms: C_1  and  C_17 
REMARK    2  A    between atoms: C_1  and  C_16 
REMARK    3  A    between atoms: C_3  and  C_20 
REMARK    4  A    between atoms: C_6  and  C_22 
REMARK    5  A    between atoms: C_10  and  C_13 
REMARK    6  A    between atoms: C_15  and  C_16 
REMARK    7  A    between atoms: C_17  and  C_18 
ROOT
HETATM    1  C   UNL     1      27.345  -6.939   8.492  1.00  0.00     0.023 A 
HETATM    2  C   UNL     1      26.573  -7.890   7.878  1.00  0.00    -0.049 A 
HETATM    3  C   UNL     1      27.565  -7.410   5.757  1.00  0.00    -0.049 A 
HETATM    4  C   UNL     1      28.345  -6.470   6.378  1.00  0.00     0.023 A 
HETATM    5  C   UNL     1      28.253  -6.228   7.722  1.00  0.00     0.011 A 
HETATM    6  C   UNL     1      26.669  -8.150   6.528  1.00  0.00     0.015 A 
ENDROOT
BRANCH   5   7
HETATM    7  C   UNL     1      29.083  -5.158   8.407  1.00  0.00     0.159 C 
HETATM    8  O   UNL     1      29.565  -4.261   7.801  1.00  0.00    -0.292 OA
BRANCH   7   9
HETATM    9  C   UNL     1      29.405  -5.333   9.887  1.00  0.00     0.088 C 
BRANCH   9  10
HETATM   10  C   UNL     1      30.601  -4.512  10.203  1.00  0.00     0.046 C 
BRANCH  10  11
HETATM   11  C   UNL     1      31.026  -4.395  11.681  1.00  0.00    -0.058 A 
HETATM   12  C   UNL     1      31.747  -3.269  11.987  1.00  0.00     0.008 A 
HETATM   13  C   UNL     1      32.230  -3.091  13.277  1.00  0.00     0.019 A 
HETATM   14  C   UNL     1      31.897  -4.041  14.237  1.00  0.00     0.040 A 
HETATM   15  C   UNL     1      31.192  -5.167  13.950  1.00  0.00     0.019 A 
HETATM   16  C   UNL     1      30.711  -5.343  12.642  1.00  0.00     0.008 A 
BRANCH  14  17
HETATM   17  C   UNL     1      32.442  -3.859  15.654  1.00  0.00     0.209 C 
HETATM   18  O   UNL     1      33.585  -3.343  15.762  1.00  0.00    -0.644 OA
HETATM   19  O   UNL     1      31.696  -4.132  16.626  1.00  0.00    -0.644 OA
ENDBRANCH  14  17
ENDBRANCH  10  11
ENDBRANCH   9  10
ENDBRANCH   7   9
ENDBRANCH   5   7
BRANCH   3  20
HETATM   20  C   UNL     1      27.764  -7.656   4.250  1.00  0.00    -0.024 C 
HETATM   21  C   UNL     1      28.935  -8.629   4.030  1.00  0.00     0.019 C 
HETATM   22  C   UNL     1      26.484  -8.248   3.663  1.00  0.00     0.019 C 
HETATM   23  C   UNL     1      28.098  -6.371   3.499  1.00  0.00     0.019 C 
ENDBRANCH   3  20
BRANCH   2  24
HETATM   24  C   UNL     1      25.571  -8.610   8.744  1.00  0.00    -0.024 C 
HETATM   25  C   UNL     1      26.277  -9.645   9.594  1.00  0.00     0.019 C 
HETATM   26  C   UNL     1      24.709  -7.613   9.528  1.00  0.00     0.019 C 
HETATM   27  C   UNL     1      24.654  -9.331   7.753  1.00  0.00     0.019 C 
ENDBRANCH   2  24
TORSDOF 7
ENDMDL
MODEL 3
REMARK VINA RESULT:   -13.053      0.188      3.420
REMARK INTER + INTRA:         -19.575
REMARK INTER:                 -18.369
REMARK INTRA:                  -1.206
REMARK UNBOUND:                -1.180
REMARK  7 active torsions:
REMARK  status: ('A' for Active; 'I' for Inactive)
REMARK    1  A    between atoms: C_1  and  C_17 
REMARK    2  A    between atoms: C_1  and  C_16 
REMARK    3  A    between atoms: C_3  and  C_20 
REMARK    4  A    between atoms: C_6  and  C_22 
REMARK    5  A    between atoms: C_10  and  C_13 
REMARK    6  A    between atoms: C_15  and  C_16 
REMARK    7  A    between atoms: C_17  and  C_18 
ROOT
HETATM    1  C   UNL     1      27.314  -6.967   8.493  1.00  0.00     0.023 A 
HETATM    2  C   UNL     1      26.521  -7.910   7.893  1.00  0.00    -0.049 A 
HETATM    3  C   UNL     1      27.484  -7.443   5.755  1.00  0.00    -0.049 A 
HETATM    4  C   UNL     1      28.285  -6.512   6.363  1.00  0.00     0.023 A 
HETATM    5  C   UNL     1      28.218  -6.268   7.708  1.00  0.00     0.011 A 
HETATM    6  C   UNL     1      26.591  -8.171   6.541  1.00  0.00     0.015 A 
ENDROOT
BRANCH   5   7
HETATM    7  C   UNL     1      29.072  -5.208   8.379  1.00  0.00     0.159 C 
HETATM    8  O   UNL     1      29.569  -4.326   7.761  1.00  0.00    -0.292 OA
BRANCH   7   9
HETATM    9  C   UNL     1      29.399  -5.375   9.859  1.00  0.00     0.088 C 
BRANCH   9  10
HETATM   10  C   UNL     1      30.518  -4.458  10.195  1.00  0.00     0.046 C 
BRANCH  10  11
HETATM   11  C   UNL     1      30.968  -4.380  11.667  1.00  0.00    -0.058 A 
HETATM   12  C   UNL     1      31.746  -3.292  11.975  1.00  0.00     0.008 A 
HETATM   13  C   UNL     1      32.255  -3.153  13.261  1.00  0.00     0.019 A 
HETATM   14  C   UNL     1      31.891  -4.098  14.214  1.00  0.00     0.040 A 
HETATM   15  C   UNL     1      31.129  -5.186  13.924  1.00  0.00     0.019 A 
HETATM   16  C   UNL     1      30.622  -5.323  12.622  1.00  0.00     0.008 A 
BRANCH  14  17
HETATM   17  C   UNL     1      32.464  -3.959  15.625  1.00  0.00     0.209 C 
HETATM   18  O   UNL     1      33.548  -3.330  15.739  1.00  0.00    -0.644 OA
HETATM   19  O   UNL     1      31.787  -4.382  16.594  1.00  0.00    -0.644 OA
ENDBRANCH  14  17
ENDBRANCH  10  11
ENDBRANCH   9  10
ENDBRANCH   7   9
ENDBRANCH   5   7
BRANCH   3  20
HETATM   20  C   UNL     1      27.655  -7.692   4.246  1.00  0.00    -0.024 C 
HETATM   21  C   UNL     1      27.803  -6.350   3.509  1.00  0.00     0.019 C 
HETATM   22  C   UNL     1      28.899  -8.548   4.013  1.00  0.00     0.019 C 
HETATM   23  C   UNL     1      26.450  -8.407   3.642  1.00  0.00     0.019 C 
ENDBRANCH   3  20
BRANCH   2  24
HETATM   24  C   UNL     1      25.524  -8.616   8.776  1.00  0.00    -0.024 C 
HETATM   25  C   UNL     1      24.871  -7.619   9.710  1.00  0.00     0.019 C 
HETATM   26  C   UNL     1      24.547  -9.451   7.940  1.00  0.00     0.019 C 
HETATM   27  C   UNL     1      26.367  -9.588   9.606  1.00  0.00     0.019 C 
ENDBRANCH   2  24
TORSDOF 7
ENDMDL
