REMARK  1 active torsions:
REMARK  status: ('A' for Active; 'I' for Inactive)
REMARK    1  A    between atoms: C_4  and  C_7 
ROOT
HETATM    1  C   UNL     1      36.369  37.644  63.458  1.00  0.00     0.010 A 
HETATM    2  C   UNL     1      35.531  37.491  64.557  1.00  0.00     0.002 A 
HETATM    3  C   UNL     1      34.195  37.125  64.398  1.00  0.00     0.014 A 
HETATM    4  C   UNL     1      35.913  37.436  62.142  1.00  0.00    -0.026 A 
HETATM    5  C   UNL     1      34.562  37.069  62.018  1.00  0.00     0.051 A 
HETATM    6  C   UNL     1      33.693  36.908  63.099  1.00  0.00     0.005 A 
HETATM    7  C   UNL     1      32.541  36.477  61.204  1.00  0.00     0.117 A 
HETATM    8  C   UNL     1      32.415  36.532  62.584  1.00  0.00     0.021 A 
HETATM    9  C   UNL     1      31.153  36.229  63.115  1.00  0.00     0.018 A 
HETATM   10  C   UNL     1      30.136  35.899  62.213  1.00  0.00     0.025 A 
HETATM   11  C   UNL     1      30.402  35.882  60.841  1.00  0.00     0.007 A 
HETATM   12  C   UNL     1      29.305  35.528  59.877  1.00  0.00     0.068 C 
HETATM   13  N   UNL     1      31.604  36.171  60.293  1.00  0.00    -0.346 N 
ATOM     14  HN  UNL     1      31.781  36.158  59.289  1.00  0.00     0.167 HD
HETATM   15  N   UNL     1      33.823  36.800  60.889  1.00  0.00    -0.341 N 
ATOM     16  HN  UNL     1      34.190  36.838  59.938  1.00  0.00     0.167 HD
ENDROOT
BRANCH   4  17
HETATM   17  C   UNL     1      36.739  37.580  60.898  1.00  0.00     0.021 A 
HETATM   18  C   UNL     1      37.258  38.932  60.471  1.00  0.00     0.010 A 
HETATM   19  C   UNL     1      38.218  37.892  60.956  1.00  0.00     0.010 A 
ENDBRANCH   4  17
TORSDOF 1
