MODEL 1
REMARK VINA RESULT:    -8.601      0.000      0.000
REMARK INTER + INTRA:         -11.281
REMARK INTER:                 -10.612
REMARK INTRA:                  -0.669
REMARK UNBOUND:                -0.669
REMARK  4 active torsions:
REMARK  status: ('A' for Active; 'I' for Inactive)
REMARK    1  A    between atoms: C_7  and  C_8 
REMARK    2  A    between atoms: C_8  and  C_9 
REMARK    3  A    between atoms: C_9  and  C_10 
REMARK    4  A    between atoms: C_14  and  C_15 
ROOT
HETATM    1  C   UNL     1      24.135  11.108  64.687  1.00  0.00     0.060 A 
HETATM    2  C   UNL     1      25.520  10.815  65.096  1.00  0.00     0.032 A 
HETATM    3  C   UNL     1      24.559  11.432  66.110  1.00  0.00     0.039 A 
ENDROOT
BRANCH   1   4
HETATM    4  C   UNL     1      23.214   9.912  64.457  1.00  0.00     0.182 C 
HETATM    5  O   UNL     1      23.083   9.504  63.267  1.00  0.00    -0.647 OA
HETATM    6  O   UNL     1      22.715   9.349  65.454  1.00  0.00    -0.647 OA
ENDBRANCH   1   4
BRANCH   1   7
HETATM    7  C   UNL     1      23.997  12.210  63.634  1.00  0.00     0.059 C 
BRANCH   7   8
HETATM    8  C   UNL     1      22.635  12.735  63.496  1.00  0.00    -0.057 A 
HETATM    9  C   UNL     1      22.099  12.971  62.219  1.00  0.00     0.008 A 
HETATM   10  C   UNL     1      20.824  13.478  62.039  1.00  0.00     0.011 A 
HETATM   11  C   UNL     1      20.031  13.768  63.117  1.00  0.00    -0.046 A 
HETATM   12  C   UNL     1      18.747  14.312  62.917  1.00  0.00     0.023 C 
HETATM   13  C   UNL     1      20.541  13.596  64.385  1.00  0.00     0.011 A 
HETATM   14  C   UNL     1      21.817  13.045  64.586  1.00  0.00     0.008 A 
ENDBRANCH   7   8
ENDBRANCH   1   7
BRANCH   3  15
HETATM   15  C   UNL     1      24.649  12.807  66.583  1.00  0.00    -0.053 A 
HETATM   16  C   UNL     1      23.626  13.313  67.402  1.00  0.00     0.007 A 
HETATM   17  C   UNL     1      23.632  14.580  67.877  1.00  0.00     0.001 A 
HETATM   18  C   UNL     1      24.676  15.417  67.607  1.00  0.00     0.000 A 
HETATM   19  C   UNL     1      25.693  14.933  66.808  1.00  0.00     0.001 A 
HETATM   20  C   UNL     1      25.710  13.669  66.321  1.00  0.00     0.007 A 
ENDBRANCH   3  15
TORSDOF 4
ENDMDL
MODEL 2
REMARK VINA RESULT:    -7.015     10.788     13.001
REMARK INTER + INTRA:          -9.324
REMARK INTER:                  -8.338
REMARK INTRA:                  -0.986
REMARK UNBOUND:                -0.669
REMARK  4 active torsions:
REMARK  status: ('A' for Active; 'I' for Inactive)
REMARK    1  A    between atoms: C_7  and  C_8 
REMARK    2  A    between atoms: C_8  and  C_9 
REMARK    3  A    between atoms: C_9  and  C_10 
REMARK    4  A    between atoms: C_14  and  C_15 
ROOT
HETATM    1  C   UNL     1      29.355   6.534  74.895  1.00  0.00     0.060 A 
HETATM    2  C   UNL     1      28.345   6.429  75.964  1.00  0.00     0.032 A 
HETATM    3  C   UNL     1      28.215   5.542  74.727  1.00  0.00     0.039 A 
ENDROOT
BRANCH   1   4
HETATM    4  C   UNL     1      30.749   5.995  75.204  1.00  0.00     0.182 C 
HETATM    5  O   UNL     1      30.892   4.738  75.224  1.00  0.00    -0.647 OA
HETATM    6  O   UNL     1      31.685   6.812  75.329  1.00  0.00    -0.647 OA
ENDBRANCH   1   4
BRANCH   1   7
HETATM    7  C   UNL     1      29.357   7.869  74.145  1.00  0.00     0.059 C 
BRANCH   7   8
HETATM    8  C   UNL     1      28.746   8.973  74.892  1.00  0.00    -0.057 A 
HETATM    9  C   UNL     1      29.517   9.720  75.797  1.00  0.00     0.008 A 
HETATM   10  C   UNL     1      28.981  10.763  76.534  1.00  0.00     0.011 A 
HETATM   11  C   UNL     1      27.662  11.106  76.398  1.00  0.00    -0.046 A 
HETATM   12  C   UNL     1      27.125  12.149  77.177  1.00  0.00     0.023 C 
HETATM   13  C   UNL     1      26.864  10.364  75.555  1.00  0.00     0.011 A 
HETATM   14  C   UNL     1      27.399   9.329  74.771  1.00  0.00     0.008 A 
ENDBRANCH   7   8
ENDBRANCH   1   7
BRANCH   3  15
HETATM   15  C   UNL     1      27.195   5.722  73.703  1.00  0.00    -0.053 A 
HETATM   16  C   UNL     1      27.532   5.490  72.359  1.00  0.00     0.007 A 
HETATM   17  C   UNL     1      26.645   5.642  71.348  1.00  0.00     0.001 A 
HETATM   18  C   UNL     1      25.350   5.989  71.608  1.00  0.00     0.000 A 
HETATM   19  C   UNL     1      25.001   6.214  72.925  1.00  0.00     0.001 A 
HETATM   20  C   UNL     1      25.870   6.069  73.954  1.00  0.00     0.007 A 
ENDBRANCH   3  15
TORSDOF 4
ENDMDL
MODEL 3
REMARK VINA RESULT:    -6.953      2.469      4.638
REMARK INTER + INTRA:          -9.248
REMARK INTER:                  -8.609
REMARK INTRA:                  -0.639
REMARK UNBOUND:                -0.669
REMARK  4 active torsions:
REMARK  status: ('A' for Active; 'I' for Inactive)
REMARK    1  A    between atoms: C_7  and  C_8 
REMARK    2  A    between atoms: C_8  and  C_9 
REMARK    3  A    between atoms: C_9  and  C_10 
REMARK    4  A    between atoms: C_14  and  C_15 
ROOT
HETATM    1  C   UNL     1      22.980  11.343  64.991  1.00  0.00     0.060 A 
HETATM    2  C   UNL     1      21.649  11.715  65.502  1.00  0.00     0.032 A 
HETATM    3  C   UNL     1      22.549  12.798  64.908  1.00  0.00     0.039 A 
ENDROOT
BRANCH   1   4
HETATM    4  C   UNL     1      23.024  10.521  63.705  1.00  0.00     0.182 C 
HETATM    5  O   UNL     1      23.440  11.102  62.662  1.00  0.00    -0.647 OA
HETATM    6  O   UNL     1      22.736   9.308  63.768  1.00  0.00    -0.647 OA
ENDBRANCH   1   4
BRANCH   1   7
HETATM    7  C   UNL     1      23.969  10.873  66.062  1.00  0.00     0.059 C 
BRANCH   7   8
HETATM    8  C   UNL     1      23.341  10.513  67.337  1.00  0.00    -0.057 A 
HETATM    9  C   UNL     1      23.525  11.330  68.464  1.00  0.00     0.008 A 
HETATM   10  C   UNL     1      22.963  11.025  69.693  1.00  0.00     0.011 A 
HETATM   11  C   UNL     1      22.195   9.902  69.848  1.00  0.00    -0.046 A 
HETATM   12  C   UNL     1      21.655   9.590  71.111  1.00  0.00     0.023 C 
HETATM   13  C   UNL     1      22.033   9.052  68.775  1.00  0.00     0.011 A 
HETATM   14  C   UNL     1      22.562   9.366  67.514  1.00  0.00     0.008 A 
ENDBRANCH   7   8
ENDBRANCH   1   7
BRANCH   3  15
HETATM   15  C   UNL     1      23.203  13.833  65.696  1.00  0.00    -0.053 A 
HETATM   16  C   UNL     1      24.590  13.754  65.904  1.00  0.00     0.007 A 
HETATM   17  C   UNL     1      25.272  14.671  66.630  1.00  0.00     0.001 A 
HETATM   18  C   UNL     1      24.630  15.752  67.161  1.00  0.00     0.000 A 
HETATM   19  C   UNL     1      23.267  15.847  66.960  1.00  0.00     0.001 A 
HETATM   20  C   UNL     1      22.562  14.943  66.238  1.00  0.00     0.007 A 
ENDBRANCH   3  15
TORSDOF 4
ENDMDL
MODEL 4
REMARK VINA RESULT:    -6.908      1.522      4.870
REMARK INTER + INTRA:          -9.192
REMARK INTER:                  -8.302
REMARK INTRA:                  -0.890
REMARK UNBOUND:                -0.669
REMARK  4 active torsions:
REMARK  status: ('A' for Active; 'I' for Inactive)
REMARK    1  A    between atoms: C_7  and  C_8 
REMARK    2  A    between atoms: C_8  and  C_9 
REMARK    3  A    between atoms: C_9  and  C_10 
REMARK    4  A    between atoms: C_14  and  C_15 
ROOT
HETATM    1  C   UNL     1      23.741  11.757  65.215  1.00  0.00     0.060 A 
HETATM    2  C   UNL     1      22.599  11.626  66.137  1.00  0.00     0.032 A 
HETATM    3  C   UNL     1      22.351  11.562  64.631  1.00  0.00     0.039 A 
ENDROOT
BRANCH   1   4
HETATM    4  C   UNL     1      24.724  10.589  65.160  1.00  0.00     0.182 C 
HETATM    5  O   UNL     1      24.406   9.599  64.440  1.00  0.00    -0.647 OA
HETATM    6  O   UNL     1      25.818  10.710  65.749  1.00  0.00    -0.647 OA
ENDBRANCH   1   4
BRANCH   1   7
HETATM    7  C   UNL     1      24.412  13.133  65.216  1.00  0.00     0.059 C 
BRANCH   7   8
HETATM    8  C   UNL     1      24.054  13.969  66.366  1.00  0.00    -0.057 A 
HETATM    9  C   UNL     1      23.419  15.205  66.165  1.00  0.00     0.008 A 
HETATM   10  C   UNL     1      23.074  16.035  67.218  1.00  0.00     0.011 A 
HETATM   11  C   UNL     1      23.343  15.669  68.510  1.00  0.00    -0.046 A 
HETATM   12  C   UNL     1      23.013  16.538  69.568  1.00  0.00     0.023 C 
HETATM   13  C   UNL     1      24.009  14.486  68.742  1.00  0.00     0.011 A 
HETATM   14  C   UNL     1      24.331  13.614  67.690  1.00  0.00     0.008 A 
ENDBRANCH   7   8
ENDBRANCH   1   7
BRANCH   3  15
HETATM   15  C   UNL     1      21.690  12.614  63.871  1.00  0.00    -0.053 A 
HETATM   16  C   UNL     1      22.000  12.766  62.509  1.00  0.00     0.007 A 
HETATM   17  C   UNL     1      21.436  13.723  61.736  1.00  0.00     0.001 A 
HETATM   18  C   UNL     1      20.493  14.564  62.251  1.00  0.00     0.000 A 
HETATM   19  C   UNL     1      20.173  14.424  63.587  1.00  0.00     0.001 A 
HETATM   20  C   UNL     1      20.723  13.474  64.382  1.00  0.00     0.007 A 
ENDBRANCH   3  15
TORSDOF 4
ENDMDL
MODEL 5
REMARK VINA RESULT:    -6.827      2.561      4.636
REMARK INTER + INTRA:          -9.093
REMARK INTER:                  -8.264
REMARK INTRA:                  -0.830
REMARK UNBOUND:                -0.669
REMARK  4 active torsions:
REMARK  status: ('A' for Active; 'I' for Inactive)
REMARK    1  A    between atoms: C_7  and  C_8 
REMARK    2  A    between atoms: C_8  and  C_9 
REMARK    3  A    between atoms: C_9  and  C_10 
REMARK    4  A    between atoms: C_14  and  C_15 
ROOT
HETATM    1  C   UNL     1      23.713  11.707  65.093  1.00  0.00     0.060 A 
HETATM    2  C   UNL     1      23.592  12.518  63.868  1.00  0.00     0.032 A 
HETATM    3  C   UNL     1      24.372  13.076  65.057  1.00  0.00     0.039 A 
ENDROOT
BRANCH   1   4
HETATM    4  C   UNL     1      24.603  10.469  65.018  1.00  0.00     0.182 C 
HETATM    5  O   UNL     1      25.679  10.489  65.683  1.00  0.00    -0.647 OA
HETATM    6  O   UNL     1      24.183   9.477  64.386  1.00  0.00    -0.647 OA
ENDBRANCH   1   4
BRANCH   1   7
HETATM    7  C   UNL     1      22.399  11.483  65.846  1.00  0.00     0.059 C 
BRANCH   7   8
HETATM    8  C   UNL     1      22.574  11.018  67.225  1.00  0.00    -0.057 A 
HETATM    9  C   UNL     1      22.012   9.797  67.630  1.00  0.00     0.008 A 
HETATM   10  C   UNL     1      22.139   9.322  68.925  1.00  0.00     0.011 A 
HETATM   11  C   UNL     1      22.831  10.038  69.865  1.00  0.00    -0.046 A 
HETATM   12  C   UNL     1      22.925   9.556  71.185  1.00  0.00     0.023 C 
HETATM   13  C   UNL     1      23.355  11.264  69.515  1.00  0.00     0.011 A 
HETATM   14  C   UNL     1      23.269  11.742  68.198  1.00  0.00     0.008 A 
ENDBRANCH   7   8
ENDBRANCH   1   7
BRANCH   3  15
HETATM   15  C   UNL     1      23.902  14.170  65.896  1.00  0.00    -0.053 A 
HETATM   16  C   UNL     1      24.791  14.752  66.815  1.00  0.00     0.007 A 
HETATM   17  C   UNL     1      24.431  15.767  67.635  1.00  0.00     0.001 A 
HETATM   18  C   UNL     1      23.177  16.302  67.566  1.00  0.00     0.000 A 
HETATM   19  C   UNL     1      22.293  15.745  66.664  1.00  0.00     0.001 A 
HETATM   20  C   UNL     1      22.629  14.730  65.832  1.00  0.00     0.007 A 
ENDBRANCH   3  15
TORSDOF 4
ENDMDL
MODEL 6
REMARK VINA RESULT:    -6.819      9.932     12.523
REMARK INTER + INTRA:          -9.083
REMARK INTER:                  -8.315
REMARK INTRA:                  -0.768
REMARK UNBOUND:                -0.669
REMARK  4 active torsions:
REMARK  status: ('A' for Active; 'I' for Inactive)
REMARK    1  A    between atoms: C_7  and  C_8 
REMARK    2  A    between atoms: C_8  and  C_9 
REMARK    3  A    between atoms: C_9  and  C_10 
REMARK    4  A    between atoms: C_14  and  C_15 
ROOT
HETATM    1  C   UNL     1      25.375   6.350  72.174  1.00  0.00     0.060 A 
HETATM    2  C   UNL     1      26.727   5.853  71.861  1.00  0.00     0.032 A 
HETATM    3  C   UNL     1      25.646   4.858  72.281  1.00  0.00     0.039 A 
ENDROOT
BRANCH   1   4
HETATM    4  C   UNL     1      24.534   6.854  71.003  1.00  0.00     0.182 C 
HETATM    5  O   UNL     1      23.735   7.807  71.234  1.00  0.00    -0.647 OA
HETATM    6  O   UNL     1      24.742   6.368  69.873  1.00  0.00    -0.647 OA
ENDBRANCH   1   4
BRANCH   1   7
HETATM    7  C   UNL     1      25.288   7.228  73.425  1.00  0.00     0.059 C 
BRANCH   7   8
HETATM    8  C   UNL     1      26.590   7.565  74.008  1.00  0.00    -0.057 A 
HETATM    9  C   UNL     1      27.015   6.932  75.187  1.00  0.00     0.008 A 
HETATM   10  C   UNL     1      28.231   7.226  75.783  1.00  0.00     0.011 A 
HETATM   11  C   UNL     1      29.070   8.155  75.230  1.00  0.00    -0.046 A 
HETATM   12  C   UNL     1      30.289   8.465  75.864  1.00  0.00     0.023 C 
HETATM   13  C   UNL     1      28.664   8.831  74.100  1.00  0.00     0.011 A 
HETATM   14  C   UNL     1      27.454   8.518  73.461  1.00  0.00     0.008 A 
ENDBRANCH   7   8
ENDBRANCH   1   7
BRANCH   3  15
HETATM   15  C   UNL     1      25.629   4.171  73.565  1.00  0.00    -0.053 A 
HETATM   16  C   UNL     1      24.393   3.827  74.135  1.00  0.00     0.007 A 
HETATM   17  C   UNL     1      24.291   3.195  75.328  1.00  0.00     0.001 A 
HETATM   18  C   UNL     1      25.411   2.821  76.013  1.00  0.00     0.000 A 
HETATM   19  C   UNL     1      26.635   3.147  75.462  1.00  0.00     0.001 A 
HETATM   20  C   UNL     1      26.763   3.778  74.271  1.00  0.00     0.007 A 
ENDBRANCH   3  15
TORSDOF 4
ENDMDL
MODEL 7
REMARK VINA RESULT:    -6.653     11.070     12.919
REMARK INTER + INTRA:          -8.878
REMARK INTER:                  -7.696
REMARK INTRA:                  -1.182
REMARK UNBOUND:                -0.669
REMARK  4 active torsions:
REMARK  status: ('A' for Active; 'I' for Inactive)
REMARK    1  A    between atoms: C_7  and  C_8 
REMARK    2  A    between atoms: C_8  and  C_9 
REMARK    3  A    between atoms: C_9  and  C_10 
REMARK    4  A    between atoms: C_14  and  C_15 
ROOT
HETATM    1  C   UNL     1      27.595   5.948  73.643  1.00  0.00     0.060 A 
HETATM    2  C   UNL     1      26.232   5.461  73.921  1.00  0.00     0.032 A 
HETATM    3  C   UNL     1      26.461   6.957  73.715  1.00  0.00     0.039 A 
ENDROOT
BRANCH   1   4
HETATM    4  C   UNL     1      28.184   5.612  72.275  1.00  0.00     0.182 C 
HETATM    5  O   UNL     1      29.381   5.205  72.245  1.00  0.00    -0.647 OA
HETATM    6  O   UNL     1      27.434   5.668  71.278  1.00  0.00    -0.647 OA
ENDBRANCH   1   4
BRANCH   1   7
HETATM    7  C   UNL     1      28.582   5.785  74.801  1.00  0.00     0.059 C 
BRANCH   7   8
HETATM    8  C   UNL     1      29.328   7.005  75.124  1.00  0.00    -0.057 A 
HETATM    9  C   UNL     1      29.394   7.456  76.453  1.00  0.00     0.008 A 
HETATM   10  C   UNL     1      30.075   8.610  76.805  1.00  0.00     0.011 A 
HETATM   11  C   UNL     1      30.718   9.357  75.855  1.00  0.00    -0.046 A 
HETATM   12  C   UNL     1      31.380  10.543  76.225  1.00  0.00     0.023 C 
HETATM   13  C   UNL     1      30.633   8.971  74.534  1.00  0.00     0.011 A 
HETATM   14  C   UNL     1      29.981   7.784  74.164  1.00  0.00     0.008 A 
ENDBRANCH   7   8
ENDBRANCH   1   7
BRANCH   3  15
HETATM   15  C   UNL     1      26.388   7.945  74.783  1.00  0.00    -0.053 A 
HETATM   16  C   UNL     1      26.782   9.267  74.515  1.00  0.00     0.007 A 
HETATM   17  C   UNL     1      26.751  10.241  75.454  1.00  0.00     0.001 A 
HETATM   18  C   UNL     1      26.284   9.980  76.710  1.00  0.00     0.000 A 
HETATM   19  C   UNL     1      25.888   8.686  76.987  1.00  0.00     0.001 A 
HETATM   20  C   UNL     1      25.909   7.694  76.066  1.00  0.00     0.007 A 
ENDBRANCH   3  15
TORSDOF 4
ENDMDL
MODEL 8
REMARK VINA RESULT:    -6.592      3.176      6.354
REMARK INTER + INTRA:          -8.802
REMARK INTER:                  -8.098
REMARK INTRA:                  -0.704
REMARK UNBOUND:                -0.669
REMARK  4 active torsions:
REMARK  status: ('A' for Active; 'I' for Inactive)
REMARK    1  A    between atoms: C_7  and  C_8 
REMARK    2  A    between atoms: C_8  and  C_9 
REMARK    3  A    between atoms: C_9  and  C_10 
REMARK    4  A    between atoms: C_14  and  C_15 
ROOT
HETATM    1  C   UNL     1      24.900  13.707  66.685  1.00  0.00     0.060 A 
HETATM    2  C   UNL     1      26.037  12.785  66.855  1.00  0.00     0.032 A 
HETATM    3  C   UNL     1      25.461  13.009  65.458  1.00  0.00     0.039 A 
ENDROOT
BRANCH   1   4
HETATM    4  C   UNL     1      25.182  15.196  66.869  1.00  0.00     0.182 C 
HETATM    5  O   UNL     1      26.394  15.554  66.909  1.00  0.00    -0.647 OA
HETATM    6  O   UNL     1      24.214  15.984  66.879  1.00  0.00    -0.647 OA
ENDBRANCH   1   4
BRANCH   1   7
HETATM    7  C   UNL     1      23.593  13.238  67.331  1.00  0.00     0.059 C 
BRANCH   7   8
HETATM    8  C   UNL     1      23.744  12.779  68.716  1.00  0.00    -0.057 A 
HETATM    9  C   UNL     1      23.322  11.489  69.077  1.00  0.00     0.008 A 
HETATM   10  C   UNL     1      23.432  11.015  70.374  1.00  0.00     0.011 A 
HETATM   11  C   UNL     1      23.967  11.801  71.359  1.00  0.00    -0.046 A 
HETATM   12  C   UNL     1      24.044  11.315  72.679  1.00  0.00     0.023 C 
HETATM   13  C   UNL     1      24.347  13.089  71.051  1.00  0.00     0.011 A 
HETATM   14  C   UNL     1      24.279  13.572  69.735  1.00  0.00     0.008 A 
ENDBRANCH   7   8
ENDBRANCH   1   7
BRANCH   3  15
HETATM   15  C   UNL     1      24.689  12.012  64.728  1.00  0.00    -0.053 A 
HETATM   16  C   UNL     1      23.959  12.413  63.597  1.00  0.00     0.007 A 
HETATM   17  C   UNL     1      23.211  11.551  62.869  1.00  0.00     0.001 A 
HETATM   18  C   UNL     1      23.174  10.224  63.189  1.00  0.00     0.000 A 
HETATM   19  C   UNL     1      23.891   9.814  64.295  1.00  0.00     0.001 A 
HETATM   20  C   UNL     1      24.647  10.656  65.039  1.00  0.00     0.007 A 
ENDBRANCH   3  15
TORSDOF 4
ENDMDL
MODEL 9
REMARK VINA RESULT:    -6.592      1.296      1.938
REMARK INTER + INTRA:          -8.802
REMARK INTER:                  -8.271
REMARK INTRA:                  -0.531
REMARK UNBOUND:                -0.669
REMARK  4 active torsions:
REMARK  status: ('A' for Active; 'I' for Inactive)
REMARK    1  A    between atoms: C_7  and  C_8 
REMARK    2  A    between atoms: C_8  and  C_9 
REMARK    3  A    between atoms: C_9  and  C_10 
REMARK    4  A    between atoms: C_14  and  C_15 
ROOT
HETATM    1  C   UNL     1      24.015  12.004  65.560  1.00  0.00     0.060 A 
HETATM    2  C   UNL     1      24.723  12.977  64.710  1.00  0.00     0.032 A 
HETATM    3  C   UNL     1      24.891  13.052  66.227  1.00  0.00     0.039 A 
ENDROOT
BRANCH   1   4
HETATM    4  C   UNL     1      24.510  10.560  65.520  1.00  0.00     0.182 C 
HETATM    5  O   UNL     1      25.689  10.342  65.922  1.00  0.00    -0.647 OA
HETATM    6  O   UNL     1      23.705   9.668  65.182  1.00  0.00    -0.647 OA
ENDBRANCH   1   4
BRANCH   1   7
HETATM    7  C   UNL     1      22.490  12.137  65.553  1.00  0.00     0.059 C 
BRANCH   7   8
HETATM    8  C   UNL     1      21.951  12.752  64.336  1.00  0.00    -0.057 A 
HETATM    9  C   UNL     1      22.411  12.337  63.077  1.00  0.00     0.008 A 
HETATM   10  C   UNL     1      21.942  12.897  61.900  1.00  0.00     0.011 A 
HETATM   11  C   UNL     1      20.997  13.886  61.929  1.00  0.00    -0.046 A 
HETATM   12  C   UNL     1      20.551  14.467  60.725  1.00  0.00     0.023 C 
HETATM   13  C   UNL     1      20.557  14.353  63.149  1.00  0.00     0.011 A 
HETATM   14  C   UNL     1      20.993  13.770  64.349  1.00  0.00     0.008 A 
ENDBRANCH   7   8
ENDBRANCH   1   7
BRANCH   3  15
HETATM   15  C   UNL     1      24.321  14.105  67.056  1.00  0.00    -0.053 A 
HETATM   16  C   UNL     1      24.124  13.860  68.425  1.00  0.00     0.007 A 
HETATM   17  C   UNL     1      23.594  14.782  69.262  1.00  0.00     0.001 A 
HETATM   18  C   UNL     1      23.264  16.026  68.804  1.00  0.00     0.000 A 
HETATM   19  C   UNL     1      23.457  16.284  67.462  1.00  0.00     0.001 A 
HETATM   20  C   UNL     1      23.987  15.378  66.604  1.00  0.00     0.007 A 
ENDBRANCH   3  15
TORSDOF 4
ENDMDL
MODEL 10
REMARK VINA RESULT:    -6.495      2.634      5.268
REMARK INTER + INTRA:          -8.683
REMARK INTER:                  -7.833
REMARK INTRA:                  -0.850
REMARK UNBOUND:                -0.669
REMARK  4 active torsions:
REMARK  status: ('A' for Active; 'I' for Inactive)
REMARK    1  A    between atoms: C_7  and  C_8 
REMARK    2  A    between atoms: C_8  and  C_9 
REMARK    3  A    between atoms: C_9  and  C_10 
REMARK    4  A    between atoms: C_14  and  C_15 
ROOT
HETATM    1  C   UNL     1      20.145  13.919  63.403  1.00  0.00     0.060 A 
HETATM    2  C   UNL     1      18.700  14.207  63.372  1.00  0.00     0.032 A 
HETATM    3  C   UNL     1      19.673  15.316  63.769  1.00  0.00     0.039 A 
ENDROOT
BRANCH   1   4
HETATM    4  C   UNL     1      20.840  13.713  62.059  1.00  0.00     0.182 C 
HETATM    5  O   UNL     1      20.455  12.737  61.353  1.00  0.00    -0.647 OA
HETATM    6  O   UNL     1      21.678  14.562  61.691  1.00  0.00    -0.647 OA
ENDBRANCH   1   4
BRANCH   1   7
HETATM    7  C   UNL     1      20.577  12.923  64.483  1.00  0.00     0.059 C 
BRANCH   7   8
HETATM    8  C   UNL     1      22.029  12.764  64.601  1.00  0.00    -0.057 A 
HETATM    9  C   UNL     1      22.677  11.712  63.933  1.00  0.00     0.008 A 
HETATM   10  C   UNL     1      24.045  11.514  64.025  1.00  0.00     0.011 A 
HETATM   11  C   UNL     1      24.821  12.352  64.779  1.00  0.00    -0.046 A 
HETATM   12  C   UNL     1      26.206  12.119  64.887  1.00  0.00     0.023 C 
HETATM   13  C   UNL     1      24.213  13.366  65.487  1.00  0.00     0.011 A 
HETATM   14  C   UNL     1      22.834  13.606  65.375  1.00  0.00     0.008 A 
ENDBRANCH   7   8
ENDBRANCH   1   7
BRANCH   3  15
HETATM   15  C   UNL     1      19.805  15.834  65.124  1.00  0.00    -0.053 A 
HETATM   16  C   UNL     1      21.035  16.382  65.525  1.00  0.00     0.007 A 
HETATM   17  C   UNL     1      21.241  16.877  66.768  1.00  0.00     0.001 A 
HETATM   18  C   UNL     1      20.227  16.903  67.682  1.00  0.00     0.000 A 
HETATM   19  C   UNL     1      19.011  16.374  67.300  1.00  0.00     0.001 A 
HETATM   20  C   UNL     1      18.779  15.873  66.063  1.00  0.00     0.007 A 
ENDBRANCH   3  15
TORSDOF 4
ENDMDL
MODEL 11
REMARK VINA RESULT:    -6.463     11.598     12.739
REMARK INTER + INTRA:          -8.644
REMARK INTER:                  -8.056
REMARK INTRA:                  -0.588
REMARK UNBOUND:                -0.669
REMARK  4 active torsions:
REMARK  status: ('A' for Active; 'I' for Inactive)
REMARK    1  A    between atoms: C_7  and  C_8 
REMARK    2  A    between atoms: C_8  and  C_9 
REMARK    3  A    between atoms: C_9  and  C_10 
REMARK    4  A    between atoms: C_14  and  C_15 
ROOT
HETATM    1  C   UNL     1      28.765   7.780  75.528  1.00  0.00     0.060 A 
HETATM    2  C   UNL     1      28.720   8.238  74.128  1.00  0.00     0.032 A 
HETATM    3  C   UNL     1      28.867   9.270  75.245  1.00  0.00     0.039 A 
ENDROOT
BRANCH   1   4
HETATM    4  C   UNL     1      30.022   7.036  75.974  1.00  0.00     0.182 C 
HETATM    5  O   UNL     1      31.084   7.254  75.324  1.00  0.00    -0.647 OA
HETATM    6  O   UNL     1      29.957   6.329  77.001  1.00  0.00    -0.647 OA
ENDBRANCH   1   4
BRANCH   1   7
HETATM    7  C   UNL     1      27.463   7.161  76.042  1.00  0.00     0.059 C 
BRANCH   7   8
HETATM    8  C   UNL     1      26.844   6.214  75.110  1.00  0.00    -0.057 A 
HETATM    9  C   UNL     1      27.372   4.920  74.970  1.00  0.00     0.008 A 
HETATM   10  C   UNL     1      26.831   3.995  74.093  1.00  0.00     0.011 A 
HETATM   11  C   UNL     1      25.745   4.317  73.325  1.00  0.00    -0.046 A 
HETATM   12  C   UNL     1      25.225   3.375  72.416  1.00  0.00     0.023 C 
HETATM   13  C   UNL     1      25.230   5.593  73.399  1.00  0.00     0.011 A 
HETATM   14  C   UNL     1      25.741   6.530  74.311  1.00  0.00     0.008 A 
ENDBRANCH   7   8
ENDBRANCH   1   7
BRANCH   3  15
HETATM   15  C   UNL     1      27.813  10.194  75.641  1.00  0.00    -0.053 A 
HETATM   16  C   UNL     1      28.122  11.235  76.532  1.00  0.00     0.007 A 
HETATM   17  C   UNL     1      27.198  12.131  76.954  1.00  0.00     0.001 A 
HETATM   18  C   UNL     1      25.918  12.080  76.484  1.00  0.00     0.000 A 
HETATM   19  C   UNL     1      25.601  11.066  75.602  1.00  0.00     0.001 A 
HETATM   20  C   UNL     1      26.506  10.158  75.165  1.00  0.00     0.007 A 
ENDBRANCH   3  15
TORSDOF 4
ENDMDL
MODEL 12
REMARK VINA RESULT:    -6.454     10.210     11.946
REMARK INTER + INTRA:          -8.632
REMARK INTER:                  -7.741
REMARK INTRA:                  -0.891
REMARK UNBOUND:                -0.669
REMARK  4 active torsions:
REMARK  status: ('A' for Active; 'I' for Inactive)
REMARK    1  A    between atoms: C_7  and  C_8 
REMARK    2  A    between atoms: C_8  and  C_9 
REMARK    3  A    between atoms: C_9  and  C_10 
REMARK    4  A    between atoms: C_14  and  C_15 
ROOT
HETATM    1  C   UNL     1      28.149   4.921  74.616  1.00  0.00     0.060 A 
HETATM    2  C   UNL     1      29.379   4.286  75.122  1.00  0.00     0.032 A 
HETATM    3  C   UNL     1      29.050   5.716  75.548  1.00  0.00     0.039 A 
ENDROOT
BRANCH   1   4
HETATM    4  C   UNL     1      26.823   4.394  75.159  1.00  0.00     0.182 C 
HETATM    5  O   UNL     1      26.451   3.251  74.766  1.00  0.00    -0.647 OA
HETATM    6  O   UNL     1      26.227   5.071  76.021  1.00  0.00    -0.647 OA
ENDBRANCH   1   4
BRANCH   1   7
HETATM    7  C   UNL     1      28.141   5.188  73.108  1.00  0.00     0.059 C 
BRANCH   7   8
HETATM    8  C   UNL     1      26.947   5.896  72.635  1.00  0.00    -0.057 A 
HETATM    9  C   UNL     1      26.200   5.375  71.566  1.00  0.00     0.008 A 
HETATM   10  C   UNL     1      25.073   6.014  71.076  1.00  0.00     0.011 A 
HETATM   11  C   UNL     1      24.643   7.190  71.630  1.00  0.00    -0.046 A 
HETATM   12  C   UNL     1      23.513   7.843  71.100  1.00  0.00     0.023 C 
HETATM   13  C   UNL     1      25.379   7.755  72.649  1.00  0.00     0.011 A 
HETATM   14  C   UNL     1      26.500   7.102  73.184  1.00  0.00     0.008 A 
ENDBRANCH   7   8
ENDBRANCH   1   7
BRANCH   3  15
HETATM   15  C   UNL     1      29.779   6.889  75.085  1.00  0.00    -0.053 A 
HETATM   16  C   UNL     1      29.245   8.163  75.337  1.00  0.00     0.007 A 
HETATM   17  C   UNL     1      29.857   9.302  74.935  1.00  0.00     0.001 A 
HETATM   18  C   UNL     1      31.061   9.254  74.295  1.00  0.00     0.000 A 
HETATM   19  C   UNL     1      31.601   8.008  74.045  1.00  0.00     0.001 A 
HETATM   20  C   UNL     1      31.010   6.854  74.437  1.00  0.00     0.007 A 
ENDBRANCH   3  15
TORSDOF 4
ENDMDL
MODEL 13
REMARK VINA RESULT:    -6.347     10.816     12.572
REMARK INTER + INTRA:          -8.501
REMARK INTER:                  -7.482
REMARK INTRA:                  -1.019
REMARK UNBOUND:                -0.669
REMARK  4 active torsions:
REMARK  status: ('A' for Active; 'I' for Inactive)
REMARK    1  A    between atoms: C_7  and  C_8 
REMARK    2  A    between atoms: C_8  and  C_9 
REMARK    3  A    between atoms: C_9  and  C_10 
REMARK    4  A    between atoms: C_14  and  C_15 
ROOT
HETATM    1  C   UNL     1      27.593   9.162  75.226  1.00  0.00     0.060 A 
HETATM    2  C   UNL     1      27.478   8.005  76.131  1.00  0.00     0.032 A 
HETATM    3  C   UNL     1      28.753   8.847  76.156  1.00  0.00     0.039 A 
ENDROOT
BRANCH   1   4
HETATM    4  C   UNL     1      26.719  10.374  75.537  1.00  0.00     0.182 C 
HETATM    5  O   UNL     1      27.117  11.155  76.449  1.00  0.00    -0.647 OA
HETATM    6  O   UNL     1      25.716  10.579  74.822  1.00  0.00    -0.647 OA
ENDBRANCH   1   4
BRANCH   1   7
HETATM    7  C   UNL     1      27.656   8.807  73.738  1.00  0.00     0.059 C 
BRANCH   7   8
HETATM    8  C   UNL     1      27.122   7.479  73.418  1.00  0.00    -0.057 A 
HETATM    9  C   UNL     1      25.736   7.289  73.304  1.00  0.00     0.008 A 
HETATM   10  C   UNL     1      25.184   6.051  73.017  1.00  0.00     0.011 A 
HETATM   11  C   UNL     1      25.987   4.958  72.830  1.00  0.00    -0.046 A 
HETATM   12  C   UNL     1      25.409   3.701  72.568  1.00  0.00     0.023 C 
HETATM   13  C   UNL     1      27.349   5.098  72.982  1.00  0.00     0.011 A 
HETATM   14  C   UNL     1      27.927   6.352  73.234  1.00  0.00     0.008 A 
ENDBRANCH   7   8
ENDBRANCH   1   7
BRANCH   3  15
HETATM   15  C   UNL     1      30.038   8.390  75.644  1.00  0.00    -0.053 A 
HETATM   16  C   UNL     1      30.906   9.325  75.058  1.00  0.00     0.007 A 
HETATM   17  C   UNL     1      32.114   8.981  74.552  1.00  0.00     0.001 A 
HETATM   18  C   UNL     1      32.559   7.693  74.635  1.00  0.00     0.000 A 
HETATM   19  C   UNL     1      31.719   6.763  75.214  1.00  0.00     0.001 A 
HETATM   20  C   UNL     1      30.507   7.082  75.728  1.00  0.00     0.007 A 
ENDBRANCH   3  15
TORSDOF 4
ENDMDL
MODEL 14
REMARK VINA RESULT:    -6.332     10.272     12.759
REMARK INTER + INTRA:          -8.481
REMARK INTER:                  -7.335
REMARK INTRA:                  -1.146
REMARK UNBOUND:                -0.669
REMARK  4 active torsions:
REMARK  status: ('A' for Active; 'I' for Inactive)
REMARK    1  A    between atoms: C_7  and  C_8 
REMARK    2  A    between atoms: C_8  and  C_9 
REMARK    3  A    between atoms: C_9  and  C_10 
REMARK    4  A    between atoms: C_14  and  C_15 
ROOT
HETATM    1  C   UNL     1      25.901   6.381  72.907  1.00  0.00     0.060 A 
HETATM    2  C   UNL     1      25.036   7.504  72.505  1.00  0.00     0.032 A 
HETATM    3  C   UNL     1      26.536   7.741  72.671  1.00  0.00     0.039 A 
ENDROOT
BRANCH   1   4
HETATM    4  C   UNL     1      26.133   5.280  71.874  1.00  0.00     0.182 C 
HETATM    5  O   UNL     1      25.450   4.223  71.993  1.00  0.00    -0.647 OA
HETATM    6  O   UNL     1      26.909   5.515  70.924  1.00  0.00    -0.647 OA
ENDBRANCH   1   4
BRANCH   1   7
HETATM    7  C   UNL     1      25.657   5.859  74.325  1.00  0.00     0.059 C 
BRANCH   7   8
HETATM    8  C   UNL     1      26.884   5.598  75.084  1.00  0.00    -0.057 A 
HETATM    9  C   UNL     1      27.013   6.081  76.397  1.00  0.00     0.008 A 
HETATM   10  C   UNL     1      28.157   5.872  77.149  1.00  0.00     0.011 A 
HETATM   11  C   UNL     1      29.214   5.174  76.628  1.00  0.00    -0.046 A 
HETATM   12  C   UNL     1      30.382   4.995  77.395  1.00  0.00     0.023 C 
HETATM   13  C   UNL     1      29.141   4.727  75.327  1.00  0.00     0.011 A 
HETATM   14  C   UNL     1      27.975   4.896  74.564  1.00  0.00     0.008 A 
ENDBRANCH   7   8
ENDBRANCH   1   7
BRANCH   3  15
HETATM   15  C   UNL     1      27.121   8.508  73.762  1.00  0.00    -0.053 A 
HETATM   16  C   UNL     1      26.283   9.312  74.553  1.00  0.00     0.007 A 
HETATM   17  C   UNL     1      26.749  10.060  75.580  1.00  0.00     0.001 A 
HETATM   18  C   UNL     1      28.071  10.026  75.920  1.00  0.00     0.000 A 
HETATM   19  C   UNL     1      28.906   9.236  75.155  1.00  0.00     0.001 A 
HETATM   20  C   UNL     1      28.465   8.478  74.123  1.00  0.00     0.007 A 
ENDBRANCH   3  15
TORSDOF 4
ENDMDL
MODEL 15
REMARK VINA RESULT:    -6.228     10.376     13.060
REMARK INTER + INTRA:          -8.353
REMARK INTER:                  -7.738
REMARK INTRA:                  -0.615
REMARK UNBOUND:                -0.669
REMARK  4 active torsions:
REMARK  status: ('A' for Active; 'I' for Inactive)
REMARK    1  A    between atoms: C_7  and  C_8 
REMARK    2  A    between atoms: C_8  and  C_9 
REMARK    3  A    between atoms: C_9  and  C_10 
REMARK    4  A    between atoms: C_14  and  C_15 
ROOT
HETATM    1  C   UNL     1      26.616   8.499  74.715  1.00  0.00     0.060 A 
HETATM    2  C   UNL     1      26.821   9.007  73.347  1.00  0.00     0.032 A 
HETATM    3  C   UNL     1      25.669   8.041  73.618  1.00  0.00     0.039 A 
ENDROOT
BRANCH   1   4
HETATM    4  C   UNL     1      26.101   9.494  75.753  1.00  0.00     0.182 C 
HETATM    5  O   UNL     1      26.013  10.705  75.400  1.00  0.00    -0.647 OA
HETATM    6  O   UNL     1      25.712   9.051  76.854  1.00  0.00    -0.647 OA
ENDBRANCH   1   4
BRANCH   1   7
HETATM    7  C   UNL     1      27.727   7.582  75.232  1.00  0.00     0.059 C 
BRANCH   7   8
HETATM    8  C   UNL     1      29.065   8.182  75.187  1.00  0.00    -0.057 A 
HETATM    9  C   UNL     1      29.426   9.162  76.125  1.00  0.00     0.008 A 
HETATM   10  C   UNL     1      30.672   9.767  76.114  1.00  0.00     0.011 A 
HETATM   11  C   UNL     1      31.606   9.420  75.175  1.00  0.00    -0.046 A 
HETATM   12  C   UNL     1      32.858  10.066  75.159  1.00  0.00     0.023 C 
HETATM   13  C   UNL     1      31.269   8.497  74.209  1.00  0.00     0.011 A 
HETATM   14  C   UNL     1      30.026   7.846  74.229  1.00  0.00     0.008 A 
ENDBRANCH   7   8
ENDBRANCH   1   7
BRANCH   3  15
HETATM   15  C   UNL     1      25.644   6.659  73.162  1.00  0.00    -0.053 A 
HETATM   16  C   UNL     1      25.311   5.647  74.078  1.00  0.00     0.007 A 
HETATM   17  C   UNL     1      25.273   4.338  73.735  1.00  0.00     0.001 A 
HETATM   18  C   UNL     1      25.517   3.949  72.450  1.00  0.00     0.000 A 
HETATM   19  C   UNL     1      25.839   4.933  71.536  1.00  0.00     0.001 A 
HETATM   20  C   UNL     1      25.884   6.249  71.853  1.00  0.00     0.007 A 
ENDBRANCH   3  15
TORSDOF 4
ENDMDL
MODEL 16
REMARK VINA RESULT:    -6.227      2.417      3.701
REMARK INTER + INTRA:          -8.352
REMARK INTER:                  -8.527
REMARK INTRA:                   0.175
REMARK UNBOUND:                -0.669
REMARK  4 active torsions:
REMARK  status: ('A' for Active; 'I' for Inactive)
REMARK    1  A    between atoms: C_7  and  C_8 
REMARK    2  A    between atoms: C_8  and  C_9 
REMARK    3  A    between atoms: C_9  and  C_10 
REMARK    4  A    between atoms: C_14  and  C_15 
ROOT
HETATM    1  C   UNL     1      22.797  12.144  64.316  1.00  0.00     0.060 A 
HETATM    2  C   UNL     1      23.988  12.857  64.811  1.00  0.00     0.032 A 
HETATM    3  C   UNL     1      23.732  11.423  65.273  1.00  0.00     0.039 A 
ENDROOT
BRANCH   1   4
HETATM    4  C   UNL     1      22.799  11.731  62.846  1.00  0.00     0.182 C 
HETATM    5  O   UNL     1      23.272  10.592  62.567  1.00  0.00    -0.647 OA
HETATM    6  O   UNL     1      22.258  12.492  62.017  1.00  0.00    -0.647 OA
ENDBRANCH   1   4
BRANCH   1   7
HETATM    7  C   UNL     1      21.461  12.716  64.798  1.00  0.00     0.059 C 
BRANCH   7   8
HETATM    8  C   UNL     1      21.532  14.116  65.227  1.00  0.00    -0.057 A 
HETATM    9  C   UNL     1      20.545  15.027  64.817  1.00  0.00     0.008 A 
HETATM   10  C   UNL     1      20.577  16.361  65.185  1.00  0.00     0.011 A 
HETATM   11  C   UNL     1      21.585  16.841  65.977  1.00  0.00    -0.046 A 
HETATM   12  C   UNL     1      21.619  18.207  66.319  1.00  0.00     0.023 C 
HETATM   13  C   UNL     1      22.597  15.987  66.359  1.00  0.00     0.011 A 
HETATM   14  C   UNL     1      22.560  14.623  66.028  1.00  0.00     0.008 A 
ENDBRANCH   7   8
ENDBRANCH   1   7
BRANCH   3  15
HETATM   15  C   UNL     1      23.315  11.066  66.621  1.00  0.00    -0.053 A 
HETATM   16  C   UNL     1      22.457   9.968  66.799  1.00  0.00     0.007 A 
HETATM   17  C   UNL     1      22.017   9.576  68.018  1.00  0.00     0.001 A 
HETATM   18  C   UNL     1      22.436  10.220  69.146  1.00  0.00     0.000 A 
HETATM   19  C   UNL     1      23.285  11.298  68.989  1.00  0.00     0.001 A 
HETATM   20  C   UNL     1      23.739  11.709  67.781  1.00  0.00     0.007 A 
ENDBRANCH   3  15
TORSDOF 4
ENDMDL
MODEL 17
REMARK VINA RESULT:    -6.219     10.643     12.754
REMARK INTER + INTRA:          -8.342
REMARK INTER:                  -7.437
REMARK INTRA:                  -0.905
REMARK UNBOUND:                -0.669
REMARK  4 active torsions:
REMARK  status: ('A' for Active; 'I' for Inactive)
REMARK    1  A    between atoms: C_7  and  C_8 
REMARK    2  A    between atoms: C_8  and  C_9 
REMARK    3  A    between atoms: C_9  and  C_10 
REMARK    4  A    between atoms: C_14  and  C_15 
ROOT
HETATM    1  C   UNL     1      29.246   6.548  74.878  1.00  0.00     0.060 A 
HETATM    2  C   UNL     1      29.817   5.189  74.880  1.00  0.00     0.032 A 
HETATM    3  C   UNL     1      29.128   5.706  73.618  1.00  0.00     0.039 A 
ENDROOT
BRANCH   1   4
HETATM    4  C   UNL     1      30.233   7.714  74.885  1.00  0.00     0.182 C 
HETATM    5  O   UNL     1      30.279   8.438  73.849  1.00  0.00    -0.647 OA
HETATM    6  O   UNL     1      30.869   7.943  75.934  1.00  0.00    -0.647 OA
ENDBRANCH   1   4
BRANCH   1   7
HETATM    7  C   UNL     1      28.049   6.743  75.812  1.00  0.00     0.059 C 
BRANCH   7   8
HETATM    8  C   UNL     1      27.351   8.019  75.629  1.00  0.00    -0.057 A 
HETATM    9  C   UNL     1      27.166   8.881  76.722  1.00  0.00     0.008 A 
HETATM   10  C   UNL     1      26.501  10.090  76.601  1.00  0.00     0.011 A 
HETATM   11  C   UNL     1      25.999  10.491  75.392  1.00  0.00    -0.046 A 
HETATM   12  C   UNL     1      25.300  11.709  75.291  1.00  0.00     0.023 C 
HETATM   13  C   UNL     1      26.120   9.648  74.308  1.00  0.00     0.011 A 
HETATM   14  C   UNL     1      26.825   8.438  74.403  1.00  0.00     0.008 A 
ENDBRANCH   7   8
ENDBRANCH   1   7
BRANCH   3  15
HETATM   15  C   UNL     1      27.839   5.225  73.141  1.00  0.00    -0.053 A 
HETATM   16  C   UNL     1      27.309   5.762  71.956  1.00  0.00     0.007 A 
HETATM   17  C   UNL     1      26.115   5.374  71.450  1.00  0.00     0.001 A 
HETATM   18  C   UNL     1      25.387   4.395  72.063  1.00  0.00     0.000 A 
HETATM   19  C   UNL     1      25.897   3.854  73.226  1.00  0.00     0.001 A 
HETATM   20  C   UNL     1      27.089   4.224  73.752  1.00  0.00     0.007 A 
ENDBRANCH   3  15
TORSDOF 4
ENDMDL
MODEL 18
REMARK VINA RESULT:    -6.214      2.834      3.934
REMARK INTER + INTRA:          -8.336
REMARK INTER:                  -8.490
REMARK INTRA:                   0.154
REMARK UNBOUND:                -0.669
REMARK  4 active torsions:
REMARK  status: ('A' for Active; 'I' for Inactive)
REMARK    1  A    between atoms: C_7  and  C_8 
REMARK    2  A    between atoms: C_8  and  C_9 
REMARK    3  A    between atoms: C_9  and  C_10 
REMARK    4  A    between atoms: C_14  and  C_15 
ROOT
HETATM    1  C   UNL     1      24.375  12.662  66.836  1.00  0.00     0.060 A 
HETATM    2  C   UNL     1      23.468  13.670  67.411  1.00  0.00     0.032 A 
HETATM    3  C   UNL     1      24.164  12.678  68.341  1.00  0.00     0.039 A 
ENDROOT
BRANCH   1   4
HETATM    4  C   UNL     1      25.706  13.164  66.282  1.00  0.00     0.182 C 
HETATM    5  O   UNL     1      26.074  14.325  66.623  1.00  0.00    -0.647 OA
HETATM    6  O   UNL     1      26.398  12.378  65.602  1.00  0.00    -0.647 OA
ENDBRANCH   1   4
BRANCH   1   7
HETATM    7  C   UNL     1      23.692  11.614  65.954  1.00  0.00     0.059 C 
BRANCH   7   8
HETATM    8  C   UNL     1      22.905  12.181  64.854  1.00  0.00    -0.057 A 
HETATM    9  C   UNL     1      23.384  12.105  63.537  1.00  0.00     0.008 A 
HETATM   10  C   UNL     1      22.684  12.638  62.467  1.00  0.00     0.011 A 
HETATM   11  C   UNL     1      21.481  13.262  62.664  1.00  0.00    -0.046 A 
HETATM   12  C   UNL     1      20.796  13.825  61.570  1.00  0.00     0.023 C 
HETATM   13  C   UNL     1      21.004  13.399  63.950  1.00  0.00     0.011 A 
HETATM   14  C   UNL     1      21.681  12.831  65.040  1.00  0.00     0.008 A 
ENDBRANCH   7   8
ENDBRANCH   1   7
BRANCH   3  15
HETATM   15  C   UNL     1      23.481  11.590  69.026  1.00  0.00    -0.053 A 
HETATM   16  C   UNL     1      23.501  11.552  70.430  1.00  0.00     0.007 A 
HETATM   17  C   UNL     1      22.896  10.571  71.141  1.00  0.00     0.001 A 
HETATM   18  C   UNL     1      22.195   9.587  70.508  1.00  0.00     0.000 A 
HETATM   19  C   UNL     1      22.161   9.613  69.127  1.00  0.00     0.001 A 
HETATM   20  C   UNL     1      22.757  10.583  68.393  1.00  0.00     0.007 A 
ENDBRANCH   3  15
TORSDOF 4
ENDMDL
MODEL 19
REMARK VINA RESULT:    -6.191     10.708     13.537
REMARK INTER + INTRA:          -8.307
REMARK INTER:                  -7.305
REMARK INTRA:                  -1.003
REMARK UNBOUND:                -0.669
REMARK  4 active torsions:
REMARK  status: ('A' for Active; 'I' for Inactive)
REMARK    1  A    between atoms: C_7  and  C_8 
REMARK    2  A    between atoms: C_8  and  C_9 
REMARK    3  A    between atoms: C_9  and  C_10 
REMARK    4  A    between atoms: C_14  and  C_15 
ROOT
HETATM    1  C   UNL     1      27.391   8.890  74.745  1.00  0.00     0.060 A 
HETATM    2  C   UNL     1      26.174   9.489  74.170  1.00  0.00     0.032 A 
HETATM    3  C   UNL     1      26.099   8.089  74.776  1.00  0.00     0.039 A 
ENDROOT
BRANCH   1   4
HETATM    4  C   UNL     1      27.908   9.489  76.051  1.00  0.00     0.182 C 
HETATM    5  O   UNL     1      28.336  10.678  76.011  1.00  0.00    -0.647 OA
HETATM    6  O   UNL     1      27.799   8.813  77.095  1.00  0.00    -0.647 OA
ENDBRANCH   1   4
BRANCH   1   7
HETATM    7  C   UNL     1      28.491   8.573  73.728  1.00  0.00     0.059 C 
BRANCH   7   8
HETATM    8  C   UNL     1      29.657   7.894  74.303  1.00  0.00    -0.057 A 
HETATM    9  C   UNL     1      30.909   8.530  74.305  1.00  0.00     0.008 A 
HETATM   10  C   UNL     1      32.041   7.924  74.825  1.00  0.00     0.011 A 
HETATM   11  C   UNL     1      31.972   6.668  75.364  1.00  0.00    -0.046 A 
HETATM   12  C   UNL     1      33.138   6.054  75.861  1.00  0.00     0.023 C 
HETATM   13  C   UNL     1      30.770   5.995  75.335  1.00  0.00     0.011 A 
HETATM   14  C   UNL     1      29.605   6.608  74.849  1.00  0.00     0.008 A 
ENDBRANCH   7   8
ENDBRANCH   1   7
BRANCH   3  15
HETATM   15  C   UNL     1      25.938   6.872  73.993  1.00  0.00    -0.053 A 
HETATM   16  C   UNL     1      26.128   5.630  74.620  1.00  0.00     0.007 A 
HETATM   17  C   UNL     1      26.004   4.454  73.961  1.00  0.00     0.001 A 
HETATM   18  C   UNL     1      25.639   4.431  72.645  1.00  0.00     0.000 A 
HETATM   19  C   UNL     1      25.443   5.645  72.016  1.00  0.00     0.001 A 
HETATM   20  C   UNL     1      25.560   6.834  72.653  1.00  0.00     0.007 A 
ENDBRANCH   3  15
TORSDOF 4
ENDMDL
MODEL 20
REMARK VINA RESULT:    -6.017     10.199     12.183
REMARK INTER + INTRA:          -8.093
REMARK INTER:                  -7.207
REMARK INTRA:                  -0.885
REMARK UNBOUND:                -0.669
REMARK  4 active torsions:
REMARK  status: ('A' for Active; 'I' for Inactive)
REMARK    1  A    between atoms: C_7  and  C_8 
REMARK    2  A    between atoms: C_8  and  C_9 
REMARK    3  A    between atoms: C_9  and  C_10 
REMARK    4  A    between atoms: C_14  and  C_15 
ROOT
HETATM    1  C   UNL     1      26.530   9.637  74.854  1.00  0.00     0.060 A 
HETATM    2  C   UNL     1      26.155   8.714  75.940  1.00  0.00     0.032 A 
HETATM    3  C   UNL     1      27.246   9.754  76.190  1.00  0.00     0.039 A 
ENDROOT
BRANCH   1   4
HETATM    4  C   UNL     1      25.513  10.712  74.477  1.00  0.00     0.182 C 
HETATM    5  O   UNL     1      25.157  10.771  73.265  1.00  0.00    -0.647 OA
HETATM    6  O   UNL     1      25.023  11.409  75.390  1.00  0.00    -0.647 OA
ENDBRANCH   1   4
BRANCH   1   7
HETATM    7  C   UNL     1      27.204   8.972  73.652  1.00  0.00     0.059 C 
BRANCH   7   8
HETATM    8  C   UNL     1      26.784   7.586  73.424  1.00  0.00    -0.057 A 
HETATM    9  C   UNL     1      25.497   7.314  72.934  1.00  0.00     0.008 A 
HETATM   10  C   UNL     1      25.050   6.021  72.715  1.00  0.00     0.011 A 
HETATM   11  C   UNL     1      25.864   4.951  72.972  1.00  0.00    -0.046 A 
HETATM   12  C   UNL     1      25.385   3.641  72.773  1.00  0.00     0.023 C 
HETATM   13  C   UNL     1      27.117   5.178  73.500  1.00  0.00     0.011 A 
HETATM   14  C   UNL     1      27.600   6.482  73.691  1.00  0.00     0.008 A 
ENDBRANCH   7   8
ENDBRANCH   1   7
BRANCH   3  15
HETATM   15  C   UNL     1      28.660   9.432  76.326  1.00  0.00    -0.053 A 
HETATM   16  C   UNL     1      29.603  10.471  76.266  1.00  0.00     0.007 A 
HETATM   17  C   UNL     1      30.934  10.254  76.376  1.00  0.00     0.001 A 
HETATM   18  C   UNL     1      31.416   8.997  76.600  1.00  0.00     0.000 A 
HETATM   19  C   UNL     1      30.501   7.965  76.668  1.00  0.00     0.001 A 
HETATM   20  C   UNL     1      29.164   8.156  76.561  1.00  0.00     0.007 A 
ENDBRANCH   3  15
TORSDOF 4
ENDMDL
