MODEL 1
REMARK VINA RESULT:    -7.702      0.000      0.000
REMARK INTER + INTRA:         -14.953
REMARK INTER:                 -14.005
REMARK INTRA:                  -0.947
REMARK UNBOUND:                -0.947
REMARK  14 active torsions:
REMARK  status: ('A' for Active; 'I' for Inactive)
REMARK    1  A    between atoms: C_2  and  C_3 
REMARK    2  A    between atoms: C_3  and  C_4 
REMARK    3  A    between atoms: C_4  and  C_5 
REMARK    4  A    between atoms: C_5  and  C_6 
REMARK    5  A    between atoms: C_6  and  C_7 
REMARK    6  A    between atoms: C_7  and  C_8 
REMARK    7  A    between atoms: C_8  and  C_9 
REMARK    8  A    between atoms: C_9  and  C_10 
REMARK    9  A    between atoms: C_10  and  C_11 
REMARK   10  A    between atoms: C_11  and  C_12 
REMARK   11  A    between atoms: C_12  and  C_13 
REMARK   12  A    between atoms: C_13  and  C_14 
REMARK   13  A    between atoms: C_14  and  C_15 
REMARK   14  A    between atoms: C_15  and  C_16 
ROOT
HETATM    1  C   UNL     1      22.477  54.923  21.590  1.00  0.00     0.000 C 
ENDROOT
BRANCH   1   2
HETATM    2  C   UNL     1      23.221  55.683  20.524  1.00  0.00     0.000 C 
BRANCH   2   3
HETATM    3  C   UNL     1      22.375  56.091  19.286  1.00  0.00     0.000 C 
BRANCH   3   4
HETATM    4  C   UNL     1      22.337  55.097  18.134  1.00  0.00     0.000 C 
BRANCH   4   5
HETATM    5  C   UNL     1      23.685  54.438  17.886  1.00  0.00     0.000 C 
BRANCH   5   6
HETATM    6  C   UNL     1      24.757  55.166  17.176  1.00  0.00     0.000 C 
BRANCH   6   7
HETATM    7  C   UNL     1      25.491  54.255  16.240  1.00  0.00    -0.000 C 
BRANCH   7   8
HETATM    8  C   UNL     1      25.011  52.861  16.037  1.00  0.00    -0.005 C 
HETATM    9  C   UNL     1      25.954  51.935  15.378  1.00  0.00     0.005 C 
ENDBRANCH   7   8
ENDBRANCH   6   7
ENDBRANCH   5   6
ENDBRANCH   4   5
ENDBRANCH   3   4
ENDBRANCH   2   3
ENDBRANCH   1   2
BRANCH   1  10
HETATM   10  C   UNL     1      23.169  53.939  22.501  1.00  0.00     0.000 C 
BRANCH  10  11
HETATM   11  C   UNL     1      22.127  53.001  22.984  1.00  0.00     0.000 C 
BRANCH  11  12
HETATM   12  C   UNL     1      22.234  52.490  24.323  1.00  0.00     0.000 C 
BRANCH  12  13
HETATM   13  C   UNL     1      22.432  51.057  24.475  1.00  0.00     0.000 C 
BRANCH  13  14
HETATM   14  C   UNL     1      23.486  50.404  23.718  1.00  0.00     0.000 C 
BRANCH  14  15
HETATM   15  C   UNL     1      23.195  49.074  23.092  1.00  0.00    -0.000 C 
BRANCH  15  16
HETATM   16  C   UNL     1      21.752  49.101  22.634  1.00  0.00    -0.005 C 
HETATM   17  C   UNL     1      21.295  47.904  21.873  1.00  0.00     0.005 C 
ENDBRANCH  15  16
ENDBRANCH  14  15
ENDBRANCH  13  14
ENDBRANCH  12  13
ENDBRANCH  11  12
ENDBRANCH  10  11
ENDBRANCH   1  10
TORSDOF 14
ENDMDL
MODEL 2
REMARK VINA RESULT:    -7.701      0.732      6.991
REMARK INTER + INTRA:         -14.950
REMARK INTER:                 -14.017
REMARK INTRA:                  -0.933
REMARK UNBOUND:                -0.947
REMARK  14 active torsions:
REMARK  status: ('A' for Active; 'I' for Inactive)
REMARK    1  A    between atoms: C_2  and  C_3 
REMARK    2  A    between atoms: C_3  and  C_4 
REMARK    3  A    between atoms: C_4  and  C_5 
REMARK    4  A    between atoms: C_5  and  C_6 
REMARK    5  A    between atoms: C_6  and  C_7 
REMARK    6  A    between atoms: C_7  and  C_8 
REMARK    7  A    between atoms: C_8  and  C_9 
REMARK    8  A    between atoms: C_9  and  C_10 
REMARK    9  A    between atoms: C_10  and  C_11 
REMARK   10  A    between atoms: C_11  and  C_12 
REMARK   11  A    between atoms: C_12  and  C_13 
REMARK   12  A    between atoms: C_13  and  C_14 
REMARK   13  A    between atoms: C_14  and  C_15 
REMARK   14  A    between atoms: C_15  and  C_16 
ROOT
HETATM    1  C   UNL     1      22.500  54.694  21.855  1.00  0.00     0.000 C 
ENDROOT
BRANCH   1   2
HETATM    2  C   UNL     1      22.862  53.569  22.789  1.00  0.00     0.000 C 
BRANCH   2   3
HETATM    3  C   UNL     1      21.736  53.128  23.764  1.00  0.00     0.000 C 
BRANCH   3   4
HETATM    4  C   UNL     1      22.023  51.902  24.620  1.00  0.00     0.000 C 
BRANCH   4   5
HETATM    5  C   UNL     1      23.345  51.240  24.268  1.00  0.00     0.000 C 
BRANCH   5   6
HETATM    6  C   UNL     1      23.371  49.918  23.609  1.00  0.00     0.000 C 
BRANCH   6   7
HETATM    7  C   UNL     1      22.078  49.650  22.902  1.00  0.00    -0.000 C 
BRANCH   7   8
HETATM    8  C   UNL     1      21.429  48.316  23.027  1.00  0.00    -0.005 C 
HETATM    9  C   UNL     1      21.047  47.654  21.763  1.00  0.00     0.005 C 
ENDBRANCH   7   8
ENDBRANCH   6   7
ENDBRANCH   5   6
ENDBRANCH   4   5
ENDBRANCH   3   4
ENDBRANCH   2   3
ENDBRANCH   1   2
BRANCH   1  10
HETATM   10  C   UNL     1      23.407  55.121  20.728  1.00  0.00     0.000 C 
BRANCH  10  11
HETATM   11  C   UNL     1      22.612  56.022  19.858  1.00  0.00     0.000 C 
BRANCH  11  12
HETATM   12  C   UNL     1      22.505  55.705  18.460  1.00  0.00     0.000 C 
BRANCH  12  13
HETATM   13  C   UNL     1      23.378  54.661  17.946  1.00  0.00     0.000 C 
BRANCH  13  14
HETATM   14  C   UNL     1      24.468  55.025  17.057  1.00  0.00     0.000 C 
BRANCH  14  15
HETATM   15  C   UNL     1      25.415  53.952  16.615  1.00  0.00    -0.000 C 
BRANCH  15  16
HETATM   16  C   UNL     1      24.771  52.622  16.942  1.00  0.00    -0.005 C 
HETATM   17  C   UNL     1      25.573  51.414  16.597  1.00  0.00     0.005 C 
ENDBRANCH  15  16
ENDBRANCH  14  15
ENDBRANCH  13  14
ENDBRANCH  12  13
ENDBRANCH  11  12
ENDBRANCH  10  11
ENDBRANCH   1  10
TORSDOF 14
ENDMDL
MODEL 3
REMARK VINA RESULT:    -7.642      0.874      6.817
REMARK INTER + INTRA:         -14.843
REMARK INTER:                 -13.916
REMARK INTRA:                  -0.927
REMARK UNBOUND:                -0.947
REMARK  14 active torsions:
REMARK  status: ('A' for Active; 'I' for Inactive)
REMARK    1  A    between atoms: C_2  and  C_3 
REMARK    2  A    between atoms: C_3  and  C_4 
REMARK    3  A    between atoms: C_4  and  C_5 
REMARK    4  A    between atoms: C_5  and  C_6 
REMARK    5  A    between atoms: C_6  and  C_7 
REMARK    6  A    between atoms: C_7  and  C_8 
REMARK    7  A    between atoms: C_8  and  C_9 
REMARK    8  A    between atoms: C_9  and  C_10 
REMARK    9  A    between atoms: C_10  and  C_11 
REMARK   10  A    between atoms: C_11  and  C_12 
REMARK   11  A    between atoms: C_12  and  C_13 
REMARK   12  A    between atoms: C_13  and  C_14 
REMARK   13  A    between atoms: C_14  and  C_15 
REMARK   14  A    between atoms: C_15  and  C_16 
ROOT
HETATM    1  C   UNL     1      23.195  55.444  20.817  1.00  0.00     0.000 C 
ENDROOT
BRANCH   1   2
HETATM    2  C   UNL     1      23.326  54.341  21.833  1.00  0.00     0.000 C 
BRANCH   2   3
HETATM    3  C   UNL     1      22.114  54.174  22.791  1.00  0.00     0.000 C 
BRANCH   3   4
HETATM    4  C   UNL     1      21.662  52.748  23.071  1.00  0.00     0.000 C 
BRANCH   4   5
HETATM    5  C   UNL     1      22.633  51.992  23.964  1.00  0.00     0.000 C 
BRANCH   5   6
HETATM    6  C   UNL     1      23.051  50.616  23.623  1.00  0.00     0.000 C 
BRANCH   6   7
HETATM    7  C   UNL     1      21.916  49.849  23.017  1.00  0.00    -0.000 C 
BRANCH   7   8
HETATM    8  C   UNL     1      22.140  48.463  22.522  1.00  0.00    -0.005 C 
HETATM    9  C   UNL     1      21.011  47.834  21.807  1.00  0.00     0.005 C 
ENDBRANCH   7   8
ENDBRANCH   6   7
ENDBRANCH   5   6
ENDBRANCH   4   5
ENDBRANCH   3   4
ENDBRANCH   2   3
ENDBRANCH   1   2
BRANCH   1  10
HETATM   10  C   UNL     1      21.931  55.649  20.019  1.00  0.00     0.000 C 
BRANCH  10  11
HETATM   11  C   UNL     1      22.185  55.092  18.667  1.00  0.00     0.000 C 
BRANCH  11  12
HETATM   12  C   UNL     1      23.522  55.154  18.142  1.00  0.00     0.000 C 
BRANCH  12  13
HETATM   13  C   UNL     1      23.975  54.027  17.342  1.00  0.00     0.000 C 
BRANCH  13  14
HETATM   14  C   UNL     1      25.167  54.173  16.524  1.00  0.00     0.000 C 
BRANCH  14  15
HETATM   15  C   UNL     1      25.729  52.954  15.859  1.00  0.00    -0.000 C 
BRANCH  15  16
HETATM   16  C   UNL     1      25.708  51.837  16.880  1.00  0.00    -0.005 C 
HETATM   17  C   UNL     1      25.819  50.457  16.328  1.00  0.00     0.005 C 
ENDBRANCH  15  16
ENDBRANCH  14  15
ENDBRANCH  13  14
ENDBRANCH  12  13
ENDBRANCH  11  12
ENDBRANCH  10  11
ENDBRANCH   1  10
TORSDOF 14
ENDMDL
MODEL 4
REMARK VINA RESULT:    -7.539      0.843      1.452
REMARK INTER + INTRA:         -14.655
REMARK INTER:                 -13.842
REMARK INTRA:                  -0.814
REMARK UNBOUND:                -0.947
REMARK  14 active torsions:
REMARK  status: ('A' for Active; 'I' for Inactive)
REMARK    1  A    between atoms: C_2  and  C_3 
REMARK    2  A    between atoms: C_3  and  C_4 
REMARK    3  A    between atoms: C_4  and  C_5 
REMARK    4  A    between atoms: C_5  and  C_6 
REMARK    5  A    between atoms: C_6  and  C_7 
REMARK    6  A    between atoms: C_7  and  C_8 
REMARK    7  A    between atoms: C_8  and  C_9 
REMARK    8  A    between atoms: C_9  and  C_10 
REMARK    9  A    between atoms: C_10  and  C_11 
REMARK   10  A    between atoms: C_11  and  C_12 
REMARK   11  A    between atoms: C_12  and  C_13 
REMARK   12  A    between atoms: C_13  and  C_14 
REMARK   13  A    between atoms: C_14  and  C_15 
REMARK   14  A    between atoms: C_15  and  C_16 
ROOT
HETATM    1  C   UNL     1      22.341  55.443  20.574  1.00  0.00     0.000 C 
ENDROOT
BRANCH   1   2
HETATM    2  C   UNL     1      22.854  55.679  19.178  1.00  0.00     0.000 C 
BRANCH   2   3
HETATM    3  C   UNL     1      22.378  54.651  18.114  1.00  0.00     0.000 C 
BRANCH   3   4
HETATM    4  C   UNL     1      23.469  53.921  17.342  1.00  0.00     0.000 C 
BRANCH   4   5
HETATM    5  C   UNL     1      24.651  54.818  17.011  1.00  0.00     0.000 C 
BRANCH   5   6
HETATM    6  C   UNL     1      25.802  54.293  16.247  1.00  0.00     0.000 C 
BRANCH   6   7
HETATM    7  C   UNL     1      25.542  52.889  15.792  1.00  0.00    -0.000 C 
BRANCH   7   8
HETATM    8  C   UNL     1      26.517  51.813  16.120  1.00  0.00    -0.005 C 
HETATM    9  C   UNL     1      25.947  50.481  16.408  1.00  0.00     0.005 C 
ENDBRANCH   7   8
ENDBRANCH   6   7
ENDBRANCH   5   6
ENDBRANCH   4   5
ENDBRANCH   3   4
ENDBRANCH   2   3
ENDBRANCH   1   2
BRANCH   1  10
HETATM   10  C   UNL     1      23.255  55.027  21.700  1.00  0.00     0.000 C 
BRANCH  10  11
HETATM   11  C   UNL     1      22.449  54.177  22.611  1.00  0.00     0.000 C 
BRANCH  11  12
HETATM   12  C   UNL     1      22.975  52.895  22.993  1.00  0.00     0.000 C 
BRANCH  12  13
HETATM   13  C   UNL     1      22.106  52.025  23.771  1.00  0.00     0.000 C 
BRANCH  13  14
HETATM   14  C   UNL     1      22.021  50.616  23.424  1.00  0.00     0.000 C 
BRANCH  14  15
HETATM   15  C   UNL     1      23.291  49.825  23.345  1.00  0.00    -0.000 C 
BRANCH  15  16
HETATM   16  C   UNL     1      22.915  48.413  22.948  1.00  0.00    -0.005 C 
HETATM   17  C   UNL     1      21.632  48.273  22.203  1.00  0.00     0.005 C 
ENDBRANCH  15  16
ENDBRANCH  14  15
ENDBRANCH  13  14
ENDBRANCH  12  13
ENDBRANCH  11  12
ENDBRANCH  10  11
ENDBRANCH   1  10
TORSDOF 14
ENDMDL
MODEL 5
REMARK VINA RESULT:    -7.417      0.981      2.044
REMARK INTER + INTRA:         -14.435
REMARK INTER:                 -13.455
REMARK INTRA:                  -0.980
REMARK UNBOUND:                -0.947
REMARK  14 active torsions:
REMARK  status: ('A' for Active; 'I' for Inactive)
REMARK    1  A    between atoms: C_2  and  C_3 
REMARK    2  A    between atoms: C_3  and  C_4 
REMARK    3  A    between atoms: C_4  and  C_5 
REMARK    4  A    between atoms: C_5  and  C_6 
REMARK    5  A    between atoms: C_6  and  C_7 
REMARK    6  A    between atoms: C_7  and  C_8 
REMARK    7  A    between atoms: C_8  and  C_9 
REMARK    8  A    between atoms: C_9  and  C_10 
REMARK    9  A    between atoms: C_10  and  C_11 
REMARK   10  A    between atoms: C_11  and  C_12 
REMARK   11  A    between atoms: C_12  and  C_13 
REMARK   12  A    between atoms: C_13  and  C_14 
REMARK   13  A    between atoms: C_14  and  C_15 
REMARK   14  A    between atoms: C_15  and  C_16 
ROOT
HETATM    1  C   UNL     1      22.855  56.164  20.090  1.00  0.00     0.000 C 
ENDROOT
BRANCH   1   2
HETATM    2  C   UNL     1      22.892  56.388  18.602  1.00  0.00     0.000 C 
BRANCH   2   3
HETATM    3  C   UNL     1      24.311  56.539  17.988  1.00  0.00     0.000 C 
BRANCH   3   4
HETATM    4  C   UNL     1      24.744  55.458  17.007  1.00  0.00     0.000 C 
BRANCH   4   5
HETATM    5  C   UNL     1      23.877  54.211  17.091  1.00  0.00     0.000 C 
BRANCH   5   6
HETATM    6  C   UNL     1      24.465  52.873  16.875  1.00  0.00     0.000 C 
BRANCH   6   7
HETATM    7  C   UNL     1      25.912  52.980  16.503  1.00  0.00    -0.000 C 
BRANCH   7   8
HETATM    8  C   UNL     1      26.613  51.807  15.911  1.00  0.00    -0.005 C 
HETATM    9  C   UNL     1      25.991  50.489  16.145  1.00  0.00     0.005 C 
ENDBRANCH   7   8
ENDBRANCH   6   7
ENDBRANCH   5   6
ENDBRANCH   4   5
ENDBRANCH   3   4
ENDBRANCH   2   3
ENDBRANCH   1   2
BRANCH   1  10
HETATM   10  C   UNL     1      23.333  54.876  20.716  1.00  0.00     0.000 C 
BRANCH  10  11
HETATM   11  C   UNL     1      22.543  54.687  21.957  1.00  0.00     0.000 C 
BRANCH  11  12
HETATM   12  C   UNL     1      22.916  53.625  22.851  1.00  0.00     0.000 C 
BRANCH  12  13
HETATM   13  C   UNL     1      21.853  53.000  23.622  1.00  0.00     0.000 C 
BRANCH  13  14
HETATM   14  C   UNL     1      22.020  51.631  24.079  1.00  0.00     0.000 C 
BRANCH  14  15
HETATM   15  C   UNL     1      23.408  51.135  24.350  1.00  0.00    -0.000 C 
BRANCH  15  16
HETATM   16  C   UNL     1      23.533  49.776  23.696  1.00  0.00    -0.005 C 
HETATM   17  C   UNL     1      22.320  49.290  22.980  1.00  0.00     0.005 C 
ENDBRANCH  15  16
ENDBRANCH  14  15
ENDBRANCH  13  14
ENDBRANCH  12  13
ENDBRANCH  11  12
ENDBRANCH  10  11
ENDBRANCH   1  10
TORSDOF 14
ENDMDL
MODEL 6
REMARK VINA RESULT:    -7.371      1.363      2.748
REMARK INTER + INTRA:         -14.352
REMARK INTER:                 -13.270
REMARK INTRA:                  -1.082
REMARK UNBOUND:                -0.947
REMARK  14 active torsions:
REMARK  status: ('A' for Active; 'I' for Inactive)
REMARK    1  A    between atoms: C_2  and  C_3 
REMARK    2  A    between atoms: C_3  and  C_4 
REMARK    3  A    between atoms: C_4  and  C_5 
REMARK    4  A    between atoms: C_5  and  C_6 
REMARK    5  A    between atoms: C_6  and  C_7 
REMARK    6  A    between atoms: C_7  and  C_8 
REMARK    7  A    between atoms: C_8  and  C_9 
REMARK    8  A    between atoms: C_9  and  C_10 
REMARK    9  A    between atoms: C_10  and  C_11 
REMARK   10  A    between atoms: C_11  and  C_12 
REMARK   11  A    between atoms: C_12  and  C_13 
REMARK   12  A    between atoms: C_13  and  C_14 
REMARK   13  A    between atoms: C_14  and  C_15 
REMARK   14  A    between atoms: C_15  and  C_16 
ROOT
HETATM    1  C   UNL     1      23.229  56.610  19.431  1.00  0.00     0.000 C 
ENDROOT
BRANCH   1   2
HETATM    2  C   UNL     1      23.386  56.829  17.949  1.00  0.00     0.000 C 
BRANCH   2   3
HETATM    3  C   UNL     1      24.674  56.226  17.323  1.00  0.00     0.000 C 
BRANCH   3   4
HETATM    4  C   UNL     1      25.051  54.820  17.769  1.00  0.00     0.000 C 
BRANCH   4   5
HETATM    5  C   UNL     1      24.017  53.782  17.364  1.00  0.00     0.000 C 
BRANCH   5   6
HETATM    6  C   UNL     1      24.322  52.790  16.312  1.00  0.00     0.000 C 
BRANCH   6   7
HETATM    7  C   UNL     1      25.770  52.845  15.931  1.00  0.00    -0.000 C 
BRANCH   7   8
HETATM    8  C   UNL     1      26.601  51.612  15.999  1.00  0.00    -0.005 C 
HETATM    9  C   UNL     1      25.882  50.355  16.290  1.00  0.00     0.005 C 
ENDBRANCH   7   8
ENDBRANCH   6   7
ENDBRANCH   5   6
ENDBRANCH   4   5
ENDBRANCH   3   4
ENDBRANCH   2   3
ENDBRANCH   1   2
BRANCH   1  10
HETATM   10  C   UNL     1      22.117  55.764  20.000  1.00  0.00     0.000 C 
BRANCH  10  11
HETATM   11  C   UNL     1      22.761  54.701  20.809  1.00  0.00     0.000 C 
BRANCH  11  12
HETATM   12  C   UNL     1      22.575  54.719  22.235  1.00  0.00     0.000 C 
BRANCH  12  13
HETATM   13  C   UNL     1      22.941  53.518  22.969  1.00  0.00     0.000 C 
BRANCH  13  14
HETATM   14  C   UNL     1      21.892  52.644  23.464  1.00  0.00     0.000 C 
BRANCH  14  15
HETATM   15  C   UNL     1      22.148  51.862  24.716  1.00  0.00    -0.000 C 
BRANCH  15  16
HETATM   16  C   UNL     1      23.472  51.150  24.537  1.00  0.00    -0.005 C 
HETATM   17  C   UNL     1      23.427  49.897  23.731  1.00  0.00     0.005 C 
ENDBRANCH  15  16
ENDBRANCH  14  15
ENDBRANCH  13  14
ENDBRANCH  12  13
ENDBRANCH  11  12
ENDBRANCH  10  11
ENDBRANCH   1  10
TORSDOF 14
ENDMDL
MODEL 7
REMARK VINA RESULT:    -7.292      1.205      6.897
REMARK INTER + INTRA:         -14.207
REMARK INTER:                 -13.088
REMARK INTRA:                  -1.119
REMARK UNBOUND:                -0.947
REMARK  14 active torsions:
REMARK  status: ('A' for Active; 'I' for Inactive)
REMARK    1  A    between atoms: C_2  and  C_3 
REMARK    2  A    between atoms: C_3  and  C_4 
REMARK    3  A    between atoms: C_4  and  C_5 
REMARK    4  A    between atoms: C_5  and  C_6 
REMARK    5  A    between atoms: C_6  and  C_7 
REMARK    6  A    between atoms: C_7  and  C_8 
REMARK    7  A    between atoms: C_8  and  C_9 
REMARK    8  A    between atoms: C_9  and  C_10 
REMARK    9  A    between atoms: C_10  and  C_11 
REMARK   10  A    between atoms: C_11  and  C_12 
REMARK   11  A    between atoms: C_12  and  C_13 
REMARK   12  A    between atoms: C_13  and  C_14 
REMARK   13  A    between atoms: C_14  and  C_15 
REMARK   14  A    between atoms: C_15  and  C_16 
ROOT
HETATM    1  C   UNL     1      22.568  56.200  19.413  1.00  0.00     0.000 C 
ENDROOT
BRANCH   1   2
HETATM    2  C   UNL     1      23.508  55.599  20.424  1.00  0.00     0.000 C 
BRANCH   2   3
HETATM    3  C   UNL     1      22.831  55.016  21.695  1.00  0.00     0.000 C 
BRANCH   3   4
HETATM    4  C   UNL     1      23.373  53.687  22.203  1.00  0.00     0.000 C 
BRANCH   4   5
HETATM    5  C   UNL     1      22.691  53.227  23.481  1.00  0.00     0.000 C 
BRANCH   5   6
HETATM    6  C   UNL     1      21.662  52.167  23.443  1.00  0.00     0.000 C 
BRANCH   6   7
HETATM    7  C   UNL     1      22.150  50.927  24.128  1.00  0.00    -0.000 C 
BRANCH   7   8
HETATM    8  C   UNL     1      23.540  50.449  23.892  1.00  0.00    -0.005 C 
HETATM    9  C   UNL     1      23.687  49.031  23.506  1.00  0.00     0.005 C 
ENDBRANCH   7   8
ENDBRANCH   6   7
ENDBRANCH   5   6
ENDBRANCH   4   5
ENDBRANCH   3   4
ENDBRANCH   2   3
ENDBRANCH   1   2
BRANCH   1  10
HETATM   10  C   UNL     1      22.605  55.809  17.956  1.00  0.00     0.000 C 
BRANCH  10  11
HETATM   11  C   UNL     1      22.678  54.328  17.913  1.00  0.00     0.000 C 
BRANCH  11  12
HETATM   12  C   UNL     1      23.717  53.716  17.131  1.00  0.00     0.000 C 
BRANCH  12  13
HETATM   13  C   UNL     1      24.781  54.580  16.646  1.00  0.00     0.000 C 
BRANCH  13  14
HETATM   14  C   UNL     1      26.113  54.029  16.465  1.00  0.00     0.000 C 
BRANCH  14  15
HETATM   15  C   UNL     1      26.533  52.881  17.331  1.00  0.00    -0.000 C 
BRANCH  15  16
HETATM   16  C   UNL     1      26.901  51.736  16.412  1.00  0.00    -0.005 C 
HETATM   17  C   UNL     1      25.896  50.640  16.313  1.00  0.00     0.005 C 
ENDBRANCH  15  16
ENDBRANCH  14  15
ENDBRANCH  13  14
ENDBRANCH  12  13
ENDBRANCH  11  12
ENDBRANCH  10  11
ENDBRANCH   1  10
TORSDOF 14
ENDMDL
MODEL 8
REMARK VINA RESULT:    -7.282      1.042      7.221
REMARK INTER + INTRA:         -14.190
REMARK INTER:                 -13.116
REMARK INTRA:                  -1.074
REMARK UNBOUND:                -0.947
REMARK  14 active torsions:
REMARK  status: ('A' for Active; 'I' for Inactive)
REMARK    1  A    between atoms: C_2  and  C_3 
REMARK    2  A    between atoms: C_3  and  C_4 
REMARK    3  A    between atoms: C_4  and  C_5 
REMARK    4  A    between atoms: C_5  and  C_6 
REMARK    5  A    between atoms: C_6  and  C_7 
REMARK    6  A    between atoms: C_7  and  C_8 
REMARK    7  A    between atoms: C_8  and  C_9 
REMARK    8  A    between atoms: C_9  and  C_10 
REMARK    9  A    between atoms: C_10  and  C_11 
REMARK   10  A    between atoms: C_11  and  C_12 
REMARK   11  A    between atoms: C_12  and  C_13 
REMARK   12  A    between atoms: C_13  and  C_14 
REMARK   13  A    between atoms: C_14  and  C_15 
REMARK   14  A    between atoms: C_15  and  C_16 
ROOT
HETATM    1  C   UNL     1      22.280  53.941  22.975  1.00  0.00     0.000 C 
ENDROOT
BRANCH   1   2
HETATM    2  C   UNL     1      21.541  52.704  23.413  1.00  0.00     0.000 C 
BRANCH   2   3
HETATM    3  C   UNL     1      22.027  52.079  24.749  1.00  0.00     0.000 C 
BRANCH   3   4
HETATM    4  C   UNL     1      23.403  51.428  24.731  1.00  0.00     0.000 C 
BRANCH   4   5
HETATM    5  C   UNL     1      23.593  50.495  23.546  1.00  0.00     0.000 C 
BRANCH   5   6
HETATM    6  C   UNL     1      23.712  49.036  23.750  1.00  0.00     0.000 C 
BRANCH   6   7
HETATM    7  C   UNL     1      23.251  48.289  22.536  1.00  0.00    -0.000 C 
BRANCH   7   8
HETATM    8  C   UNL     1      21.797  48.196  22.233  1.00  0.00    -0.005 C 
HETATM    9  C   UNL     1      20.927  47.739  23.335  1.00  0.00     0.005 C 
ENDBRANCH   7   8
ENDBRANCH   6   7
ENDBRANCH   5   6
ENDBRANCH   4   5
ENDBRANCH   3   4
ENDBRANCH   2   3
ENDBRANCH   1   2
BRANCH   1  10
HETATM   10  C   UNL     1      23.059  53.991  21.683  1.00  0.00     0.000 C 
BRANCH  10  11
HETATM   11  C   UNL     1      23.224  55.424  21.340  1.00  0.00     0.000 C 
BRANCH  11  12
HETATM   12  C   UNL     1      22.774  55.876  20.052  1.00  0.00     0.000 C 
BRANCH  12  13
HETATM   13  C   UNL     1      23.793  56.179  19.060  1.00  0.00     0.000 C 
BRANCH  13  14
HETATM   14  C   UNL     1      23.721  55.547  17.754  1.00  0.00     0.000 C 
BRANCH  14  15
HETATM   15  C   UNL     1      23.631  54.053  17.690  1.00  0.00    -0.000 C 
BRANCH  15  16
HETATM   16  C   UNL     1      24.602  53.589  16.626  1.00  0.00    -0.005 C 
HETATM   17  C   UNL     1      25.704  54.539  16.301  1.00  0.00     0.005 C 
ENDBRANCH  15  16
ENDBRANCH  14  15
ENDBRANCH  13  14
ENDBRANCH  12  13
ENDBRANCH  11  12
ENDBRANCH  10  11
ENDBRANCH   1  10
TORSDOF 14
ENDMDL
MODEL 9
REMARK VINA RESULT:    -6.357      0.976      1.521
REMARK INTER + INTRA:         -12.506
REMARK INTER:                 -12.825
REMARK INTRA:                   0.319
REMARK UNBOUND:                -0.947
REMARK  14 active torsions:
REMARK  status: ('A' for Active; 'I' for Inactive)
REMARK    1  A    between atoms: C_2  and  C_3 
REMARK    2  A    between atoms: C_3  and  C_4 
REMARK    3  A    between atoms: C_4  and  C_5 
REMARK    4  A    between atoms: C_5  and  C_6 
REMARK    5  A    between atoms: C_6  and  C_7 
REMARK    6  A    between atoms: C_7  and  C_8 
REMARK    7  A    between atoms: C_8  and  C_9 
REMARK    8  A    between atoms: C_9  and  C_10 
REMARK    9  A    between atoms: C_10  and  C_11 
REMARK   10  A    between atoms: C_11  and  C_12 
REMARK   11  A    between atoms: C_12  and  C_13 
REMARK   12  A    between atoms: C_13  and  C_14 
REMARK   13  A    between atoms: C_14  and  C_15 
REMARK   14  A    between atoms: C_15  and  C_16 
ROOT
HETATM    1  C   UNL     1      22.829  54.721  20.749  1.00  0.00     0.000 C 
ENDROOT
BRANCH   1   2
HETATM    2  C   UNL     1      22.070  55.711  19.905  1.00  0.00     0.000 C 
BRANCH   2   3
HETATM    3  C   UNL     1      22.140  55.468  18.372  1.00  0.00     0.000 C 
BRANCH   3   4
HETATM    4  C   UNL     1      23.436  54.873  17.839  1.00  0.00     0.000 C 
BRANCH   4   5
HETATM    5  C   UNL     1      23.213  53.577  17.076  1.00  0.00     0.000 C 
BRANCH   5   6
HETATM    6  C   UNL     1      24.359  52.727  16.689  1.00  0.00     0.000 C 
BRANCH   6   7
HETATM    7  C   UNL     1      25.656  53.396  17.028  1.00  0.00    -0.000 C 
BRANCH   7   8
HETATM    8  C   UNL     1      25.814  54.859  16.809  1.00  0.00    -0.005 C 
HETATM    9  C   UNL     1      26.319  55.270  15.483  1.00  0.00     0.005 C 
ENDBRANCH   7   8
ENDBRANCH   6   7
ENDBRANCH   5   6
ENDBRANCH   4   5
ENDBRANCH   3   4
ENDBRANCH   2   3
ENDBRANCH   1   2
BRANCH   1  10
HETATM   10  C   UNL     1      22.994  54.900  22.238  1.00  0.00     0.000 C 
BRANCH  10  11
HETATM   11  C   UNL     1      23.147  53.543  22.816  1.00  0.00     0.000 C 
BRANCH  11  12
HETATM   12  C   UNL     1      22.017  52.950  23.477  1.00  0.00     0.000 C 
BRANCH  12  13
HETATM   13  C   UNL     1      22.252  51.727  24.229  1.00  0.00     0.000 C 
BRANCH  13  14
HETATM   14  C   UNL     1      22.616  50.516  23.515  1.00  0.00     0.000 C 
BRANCH  14  15
HETATM   15  C   UNL     1      21.608  49.411  23.428  1.00  0.00    -0.000 C 
BRANCH  15  16
HETATM   16  C   UNL     1      22.097  48.439  22.375  1.00  0.00    -0.005 C 
HETATM   17  C   UNL     1      21.039  47.640  21.694  1.00  0.00     0.005 C 
ENDBRANCH  15  16
ENDBRANCH  14  15
ENDBRANCH  13  14
ENDBRANCH  12  13
ENDBRANCH  11  12
ENDBRANCH  10  11
ENDBRANCH   1  10
TORSDOF 14
ENDMDL
MODEL 10
REMARK VINA RESULT:    -6.319      0.856      2.103
REMARK INTER + INTRA:         -12.438
REMARK INTER:                 -11.610
REMARK INTRA:                  -0.828
REMARK UNBOUND:                -0.947
REMARK  14 active torsions:
REMARK  status: ('A' for Active; 'I' for Inactive)
REMARK    1  A    between atoms: C_2  and  C_3 
REMARK    2  A    between atoms: C_3  and  C_4 
REMARK    3  A    between atoms: C_4  and  C_5 
REMARK    4  A    between atoms: C_5  and  C_6 
REMARK    5  A    between atoms: C_6  and  C_7 
REMARK    6  A    between atoms: C_7  and  C_8 
REMARK    7  A    between atoms: C_8  and  C_9 
REMARK    8  A    between atoms: C_9  and  C_10 
REMARK    9  A    between atoms: C_10  and  C_11 
REMARK   10  A    between atoms: C_11  and  C_12 
REMARK   11  A    between atoms: C_12  and  C_13 
REMARK   12  A    between atoms: C_13  and  C_14 
REMARK   13  A    between atoms: C_14  and  C_15 
REMARK   14  A    between atoms: C_15  and  C_16 
ROOT
HETATM    1  C   UNL     1      22.306  53.041  22.987  1.00  0.00     0.000 C 
ENDROOT
BRANCH   1   2
HETATM    2  C   UNL     1      21.963  54.404  22.446  1.00  0.00     0.000 C 
BRANCH   2   3
HETATM    3  C   UNL     1      23.150  55.187  21.820  1.00  0.00     0.000 C 
BRANCH   3   4
HETATM    4  C   UNL     1      23.591  54.751  20.429  1.00  0.00     0.000 C 
BRANCH   4   5
HETATM    5  C   UNL     1      23.052  55.657  19.334  1.00  0.00     0.000 C 
BRANCH   5   6
HETATM    6  C   UNL     1      23.281  55.332  17.911  1.00  0.00     0.000 C 
BRANCH   6   7
HETATM    7  C   UNL     1      24.254  54.201  17.772  1.00  0.00    -0.000 C 
BRANCH   7   8
HETATM    8  C   UNL     1      25.157  54.142  16.590  1.00  0.00    -0.005 C 
HETATM    9  C   UNL     1      25.181  52.865  15.850  1.00  0.00     0.005 C 
ENDBRANCH   7   8
ENDBRANCH   6   7
ENDBRANCH   5   6
ENDBRANCH   4   5
ENDBRANCH   3   4
ENDBRANCH   2   3
ENDBRANCH   1   2
BRANCH   1  10
HETATM   10  C   UNL     1      23.228  52.858  24.167  1.00  0.00     0.000 C 
BRANCH  10  11
HETATM   11  C   UNL     1      22.975  51.497  24.699  1.00  0.00     0.000 C 
BRANCH  11  12
HETATM   12  C   UNL     1      23.930  50.462  24.413  1.00  0.00     0.000 C 
BRANCH  12  13
HETATM   13  C   UNL     1      23.581  49.501  23.378  1.00  0.00     0.000 C 
BRANCH  13  14
HETATM   14  C   UNL     1      22.204  49.424  22.920  1.00  0.00     0.000 C 
BRANCH  14  15
HETATM   15  C   UNL     1      21.232  48.612  23.720  1.00  0.00    -0.000 C 
BRANCH  15  16
HETATM   16  C   UNL     1      20.852  47.411  22.880  1.00  0.00    -0.005 C 
HETATM   17  C   UNL     1      20.985  47.587  21.406  1.00  0.00     0.005 C 
ENDBRANCH  15  16
ENDBRANCH  14  15
ENDBRANCH  13  14
ENDBRANCH  12  13
ENDBRANCH  11  12
ENDBRANCH  10  11
ENDBRANCH   1  10
TORSDOF 14
ENDMDL
MODEL 11
REMARK VINA RESULT:    -5.786      1.311      2.875
REMARK INTER + INTRA:         -11.468
REMARK INTER:                 -10.264
REMARK INTRA:                  -1.204
REMARK UNBOUND:                -0.947
REMARK  14 active torsions:
REMARK  status: ('A' for Active; 'I' for Inactive)
REMARK    1  A    between atoms: C_2  and  C_3 
REMARK    2  A    between atoms: C_3  and  C_4 
REMARK    3  A    between atoms: C_4  and  C_5 
REMARK    4  A    between atoms: C_5  and  C_6 
REMARK    5  A    between atoms: C_6  and  C_7 
REMARK    6  A    between atoms: C_7  and  C_8 
REMARK    7  A    between atoms: C_8  and  C_9 
REMARK    8  A    between atoms: C_9  and  C_10 
REMARK    9  A    between atoms: C_10  and  C_11 
REMARK   10  A    between atoms: C_11  and  C_12 
REMARK   11  A    between atoms: C_12  and  C_13 
REMARK   12  A    between atoms: C_13  and  C_14 
REMARK   13  A    between atoms: C_14  and  C_15 
REMARK   14  A    between atoms: C_15  and  C_16 
ROOT
HETATM    1  C   UNL     1      23.995  54.038  20.307  1.00  0.00     0.000 C 
ENDROOT
BRANCH   1   2
HETATM    2  C   UNL     1      25.202  54.350  19.463  1.00  0.00     0.000 C 
BRANCH   2   3
HETATM    3  C   UNL     1      25.160  53.790  18.014  1.00  0.00     0.000 C 
BRANCH   3   4
HETATM    4  C   UNL     1      24.769  54.772  16.918  1.00  0.00     0.000 C 
BRANCH   4   5
HETATM    5  C   UNL     1      25.052  56.216  17.300  1.00  0.00     0.000 C 
BRANCH   5   6
HETATM    6  C   UNL     1      24.039  57.014  18.022  1.00  0.00     0.000 C 
BRANCH   6   7
HETATM    7  C   UNL     1      22.655  56.581  17.648  1.00  0.00    -0.000 C 
BRANCH   7   8
HETATM    8  C   UNL     1      21.799  55.891  18.651  1.00  0.00    -0.005 C 
HETATM    9  C   UNL     1      21.241  54.585  18.246  1.00  0.00     0.005 C 
ENDBRANCH   7   8
ENDBRANCH   6   7
ENDBRANCH   5   6
ENDBRANCH   4   5
ENDBRANCH   3   4
ENDBRANCH   2   3
ENDBRANCH   1   2
BRANCH   1  10
HETATM   10  C   UNL     1      23.518  54.969  21.395  1.00  0.00     0.000 C 
BRANCH  10  11
HETATM   11  C   UNL     1      23.285  54.135  22.599  1.00  0.00     0.000 C 
BRANCH  11  12
HETATM   12  C   UNL     1      21.953  53.659  22.855  1.00  0.00     0.000 C 
BRANCH  12  13
HETATM   13  C   UNL     1      21.816  52.303  23.361  1.00  0.00     0.000 C 
BRANCH  13  14
HETATM   14  C   UNL     1      22.972  51.646  23.948  1.00  0.00     0.000 C 
BRANCH  14  15
HETATM   15  C   UNL     1      23.330  50.272  23.470  1.00  0.00    -0.000 C 
BRANCH  15  16
HETATM   16  C   UNL     1      22.076  49.428  23.554  1.00  0.00    -0.005 C 
HETATM   17  C   UNL     1      21.651  48.776  22.282  1.00  0.00     0.005 C 
ENDBRANCH  15  16
ENDBRANCH  14  15
ENDBRANCH  13  14
ENDBRANCH  12  13
ENDBRANCH  11  12
ENDBRANCH  10  11
ENDBRANCH   1  10
TORSDOF 14
ENDMDL
MODEL 12
REMARK VINA RESULT:    -5.539      1.336      7.085
REMARK INTER + INTRA:         -11.020
REMARK INTER:                 -10.092
REMARK INTRA:                  -0.928
REMARK UNBOUND:                -0.947
REMARK  14 active torsions:
REMARK  status: ('A' for Active; 'I' for Inactive)
REMARK    1  A    between atoms: C_2  and  C_3 
REMARK    2  A    between atoms: C_3  and  C_4 
REMARK    3  A    between atoms: C_4  and  C_5 
REMARK    4  A    between atoms: C_5  and  C_6 
REMARK    5  A    between atoms: C_6  and  C_7 
REMARK    6  A    between atoms: C_7  and  C_8 
REMARK    7  A    between atoms: C_8  and  C_9 
REMARK    8  A    between atoms: C_9  and  C_10 
REMARK    9  A    between atoms: C_10  and  C_11 
REMARK   10  A    between atoms: C_11  and  C_12 
REMARK   11  A    between atoms: C_12  and  C_13 
REMARK   12  A    between atoms: C_13  and  C_14 
REMARK   13  A    between atoms: C_14  and  C_15 
REMARK   14  A    between atoms: C_15  and  C_16 
ROOT
HETATM    1  C   UNL     1      22.860  55.436  21.600  1.00  0.00     0.000 C 
ENDROOT
BRANCH   1   2
HETATM    2  C   UNL     1      22.933  54.105  22.300  1.00  0.00     0.000 C 
BRANCH   2   3
HETATM    3  C   UNL     1      21.729  53.776  23.226  1.00  0.00     0.000 C 
BRANCH   3   4
HETATM    4  C   UNL     1      21.779  52.439  23.953  1.00  0.00     0.000 C 
BRANCH   4   5
HETATM    5  C   UNL     1      21.780  51.254  23.001  1.00  0.00     0.000 C 
BRANCH   5   6
HETATM    6  C   UNL     1      22.863  50.250  23.054  1.00  0.00     0.000 C 
BRANCH   6   7
HETATM    7  C   UNL     1      23.358  50.074  24.457  1.00  0.00    -0.000 C 
BRANCH   7   8
HETATM    8  C   UNL     1      24.695  50.604  24.842  1.00  0.00    -0.005 C 
HETATM    9  C   UNL     1      24.699  51.847  25.640  1.00  0.00     0.005 C 
ENDBRANCH   7   8
ENDBRANCH   6   7
ENDBRANCH   5   6
ENDBRANCH   4   5
ENDBRANCH   3   4
ENDBRANCH   2   3
ENDBRANCH   1   2
BRANCH   1  10
HETATM   10  C   UNL     1      22.441  55.556  20.155  1.00  0.00     0.000 C 
BRANCH  10  11
HETATM   11  C   UNL     1      23.612  56.083  19.414  1.00  0.00     0.000 C 
BRANCH  11  12
HETATM   12  C   UNL     1      24.563  55.145  18.881  1.00  0.00     0.000 C 
BRANCH  12  13
HETATM   13  C   UNL     1      24.497  54.869  17.454  1.00  0.00     0.000 C 
BRANCH  13  14
HETATM   14  C   UNL     1      23.937  53.606  17.003  1.00  0.00     0.000 C 
BRANCH  14  15
HETATM   15  C   UNL     1      24.801  52.695  16.186  1.00  0.00    -0.000 C 
BRANCH  15  16
HETATM   16  C   UNL     1      26.014  52.356  17.026  1.00  0.00    -0.005 C 
HETATM   17  C   UNL     1      27.172  51.782  16.284  1.00  0.00     0.005 C 
ENDBRANCH  15  16
ENDBRANCH  14  15
ENDBRANCH  13  14
ENDBRANCH  12  13
ENDBRANCH  11  12
ENDBRANCH  10  11
ENDBRANCH   1  10
TORSDOF 14
ENDMDL
MODEL 13
REMARK VINA RESULT:    -5.450      1.181      2.075
REMARK INTER + INTRA:         -10.857
REMARK INTER:                  -9.560
REMARK INTRA:                  -1.297
REMARK UNBOUND:                -0.947
REMARK  14 active torsions:
REMARK  status: ('A' for Active; 'I' for Inactive)
REMARK    1  A    between atoms: C_2  and  C_3 
REMARK    2  A    between atoms: C_3  and  C_4 
REMARK    3  A    between atoms: C_4  and  C_5 
REMARK    4  A    between atoms: C_5  and  C_6 
REMARK    5  A    between atoms: C_6  and  C_7 
REMARK    6  A    between atoms: C_7  and  C_8 
REMARK    7  A    between atoms: C_8  and  C_9 
REMARK    8  A    between atoms: C_9  and  C_10 
REMARK    9  A    between atoms: C_10  and  C_11 
REMARK   10  A    between atoms: C_11  and  C_12 
REMARK   11  A    between atoms: C_12  and  C_13 
REMARK   12  A    between atoms: C_13  and  C_14 
REMARK   13  A    between atoms: C_14  and  C_15 
REMARK   14  A    between atoms: C_15  and  C_16 
ROOT
HETATM    1  C   UNL     1      23.358  54.556  21.906  1.00  0.00     0.000 C 
ENDROOT
BRANCH   1   2
HETATM    2  C   UNL     1      23.456  55.336  20.622  1.00  0.00     0.000 C 
BRANCH   2   3
HETATM    3  C   UNL     1      22.110  55.561  19.879  1.00  0.00     0.000 C 
BRANCH   3   4
HETATM    4  C   UNL     1      22.105  55.270  18.384  1.00  0.00     0.000 C 
BRANCH   4   5
HETATM    5  C   UNL     1      23.309  54.454  17.943  1.00  0.00     0.000 C 
BRANCH   5   6
HETATM    6  C   UNL     1      24.391  55.078  17.153  1.00  0.00     0.000 C 
BRANCH   6   7
HETATM    7  C   UNL     1      25.255  54.034  16.515  1.00  0.00    -0.000 C 
BRANCH   7   8
HETATM    8  C   UNL     1      24.683  52.699  16.187  1.00  0.00    -0.005 C 
HETATM    9  C   UNL     1      25.412  51.529  16.717  1.00  0.00     0.005 C 
ENDBRANCH   7   8
ENDBRANCH   6   7
ENDBRANCH   5   6
ENDBRANCH   4   5
ENDBRANCH   3   4
ENDBRANCH   2   3
ENDBRANCH   1   2
BRANCH   1  10
HETATM   10  C   UNL     1      22.137  54.620  22.790  1.00  0.00     0.000 C 
BRANCH  10  11
HETATM   11  C   UNL     1      21.936  53.257  23.339  1.00  0.00     0.000 C 
BRANCH  11  12
HETATM   12  C   UNL     1      21.775  52.165  22.418  1.00  0.00     0.000 C 
BRANCH  12  13
HETATM   13  C   UNL     1      21.742  50.823  22.977  1.00  0.00     0.000 C 
BRANCH  13  14
HETATM   14  C   UNL     1      22.400  50.569  24.247  1.00  0.00     0.000 C 
BRANCH  14  15
HETATM   15  C   UNL     1      23.728  49.877  24.236  1.00  0.00    -0.000 C 
BRANCH  15  16
HETATM   16  C   UNL     1      24.746  50.852  24.787  1.00  0.00    -0.005 C 
HETATM   17  C   UNL     1      24.224  51.842  25.772  1.00  0.00     0.005 C 
ENDBRANCH  15  16
ENDBRANCH  14  15
ENDBRANCH  13  14
ENDBRANCH  12  13
ENDBRANCH  11  12
ENDBRANCH  10  11
ENDBRANCH   1  10
TORSDOF 14
ENDMDL
MODEL 14
REMARK VINA RESULT:    -5.332      1.852      3.993
REMARK INTER + INTRA:         -10.643
REMARK INTER:                 -10.337
REMARK INTRA:                  -0.307
REMARK UNBOUND:                -0.947
REMARK  14 active torsions:
REMARK  status: ('A' for Active; 'I' for Inactive)
REMARK    1  A    between atoms: C_2  and  C_3 
REMARK    2  A    between atoms: C_3  and  C_4 
REMARK    3  A    between atoms: C_4  and  C_5 
REMARK    4  A    between atoms: C_5  and  C_6 
REMARK    5  A    between atoms: C_6  and  C_7 
REMARK    6  A    between atoms: C_7  and  C_8 
REMARK    7  A    between atoms: C_8  and  C_9 
REMARK    8  A    between atoms: C_9  and  C_10 
REMARK    9  A    between atoms: C_10  and  C_11 
REMARK   10  A    between atoms: C_11  and  C_12 
REMARK   11  A    between atoms: C_12  and  C_13 
REMARK   12  A    between atoms: C_13  and  C_14 
REMARK   13  A    between atoms: C_14  and  C_15 
REMARK   14  A    between atoms: C_15  and  C_16 
ROOT
HETATM    1  C   UNL     1      23.727  55.716  17.435  1.00  0.00     0.000 C 
ENDROOT
BRANCH   1   2
HETATM    2  C   UNL     1      23.560  54.224  17.550  1.00  0.00     0.000 C 
BRANCH   2   3
HETATM    3  C   UNL     1      24.836  53.444  17.972  1.00  0.00     0.000 C 
BRANCH   3   4
HETATM    4  C   UNL     1      26.169  54.061  17.573  1.00  0.00     0.000 C 
BRANCH   4   5
HETATM    5  C   UNL     1      26.727  53.469  16.289  1.00  0.00     0.000 C 
BRANCH   5   6
HETATM    6  C   UNL     1      25.819  53.028  15.210  1.00  0.00     0.000 C 
BRANCH   6   7
HETATM    7  C   UNL     1      25.340  51.629  15.455  1.00  0.00    -0.000 C 
BRANCH   7   8
HETATM    8  C   UNL     1      26.265  50.623  16.045  1.00  0.00    -0.005 C 
HETATM    9  C   UNL     1      25.753  49.241  16.138  1.00  0.00     0.005 C 
ENDBRANCH   7   8
ENDBRANCH   6   7
ENDBRANCH   5   6
ENDBRANCH   4   5
ENDBRANCH   3   4
ENDBRANCH   2   3
ENDBRANCH   1   2
BRANCH   1  10
HETATM   10  C   UNL     1      23.772  56.611  18.648  1.00  0.00     0.000 C 
BRANCH  10  11
HETATM   11  C   UNL     1      22.582  56.279  19.468  1.00  0.00     0.000 C 
BRANCH  11  12
HETATM   12  C   UNL     1      22.614  55.086  20.270  1.00  0.00     0.000 C 
BRANCH  12  13
HETATM   13  C   UNL     1      22.717  55.256  21.711  1.00  0.00     0.000 C 
BRANCH  13  14
HETATM   14  C   UNL     1      22.435  54.126  22.579  1.00  0.00     0.000 C 
BRANCH  14  15
HETATM   15  C   UNL     1      23.460  53.039  22.689  1.00  0.00    -0.000 C 
BRANCH  15  16
HETATM   16  C   UNL     1      22.907  51.995  23.634  1.00  0.00    -0.005 C 
HETATM   17  C   UNL     1      21.811  52.455  24.534  1.00  0.00     0.005 C 
ENDBRANCH  15  16
ENDBRANCH  14  15
ENDBRANCH  13  14
ENDBRANCH  12  13
ENDBRANCH  11  12
ENDBRANCH  10  11
ENDBRANCH   1  10
TORSDOF 14
ENDMDL
MODEL 15
REMARK VINA RESULT:    -5.253      1.758      4.003
REMARK INTER + INTRA:         -10.500
REMARK INTER:                  -9.722
REMARK INTRA:                  -0.778
REMARK UNBOUND:                -0.947
REMARK  14 active torsions:
REMARK  status: ('A' for Active; 'I' for Inactive)
REMARK    1  A    between atoms: C_2  and  C_3 
REMARK    2  A    between atoms: C_3  and  C_4 
REMARK    3  A    between atoms: C_4  and  C_5 
REMARK    4  A    between atoms: C_5  and  C_6 
REMARK    5  A    between atoms: C_6  and  C_7 
REMARK    6  A    between atoms: C_7  and  C_8 
REMARK    7  A    between atoms: C_8  and  C_9 
REMARK    8  A    between atoms: C_9  and  C_10 
REMARK    9  A    between atoms: C_10  and  C_11 
REMARK   10  A    between atoms: C_11  and  C_12 
REMARK   11  A    between atoms: C_12  and  C_13 
REMARK   12  A    between atoms: C_13  and  C_14 
REMARK   13  A    between atoms: C_14  and  C_15 
REMARK   14  A    between atoms: C_15  and  C_16 
ROOT
HETATM    1  C   UNL     1      23.269  55.277  17.563  1.00  0.00     0.000 C 
ENDROOT
BRANCH   1   2
HETATM    2  C   UNL     1      23.525  53.825  17.867  1.00  0.00     0.000 C 
BRANCH   2   3
HETATM    3  C   UNL     1      23.617  52.894  16.626  1.00  0.00     0.000 C 
BRANCH   3   4
HETATM    4  C   UNL     1      24.741  53.186  15.642  1.00  0.00     0.000 C 
BRANCH   4   5
HETATM    5  C   UNL     1      25.445  51.925  15.167  1.00  0.00     0.000 C 
BRANCH   5   6
HETATM    6  C   UNL     1      26.464  51.270  16.013  1.00  0.00     0.000 C 
BRANCH   6   7
HETATM    7  C   UNL     1      27.254  52.288  16.779  1.00  0.00    -0.000 C 
BRANCH   7   8
HETATM    8  C   UNL     1      26.863  52.632  18.173  1.00  0.00    -0.005 C 
HETATM    9  C   UNL     1      26.688  54.069  18.467  1.00  0.00     0.005 C 
ENDBRANCH   7   8
ENDBRANCH   6   7
ENDBRANCH   5   6
ENDBRANCH   4   5
ENDBRANCH   3   4
ENDBRANCH   2   3
ENDBRANCH   1   2
BRANCH   1  10
HETATM   10  C   UNL     1      22.502  56.168  18.509  1.00  0.00     0.000 C 
BRANCH  10  11
HETATM   11  C   UNL     1      23.215  56.123  19.809  1.00  0.00     0.000 C 
BRANCH  11  12
HETATM   12  C   UNL     1      22.576  55.467  20.917  1.00  0.00     0.000 C 
BRANCH  12  13
HETATM   13  C   UNL     1      23.265  54.327  21.502  1.00  0.00     0.000 C 
BRANCH  13  14
HETATM   14  C   UNL     1      22.862  53.854  22.815  1.00  0.00     0.000 C 
BRANCH  14  15
HETATM   15  C   UNL     1      23.329  52.502  23.260  1.00  0.00    -0.000 C 
BRANCH  15  16
HETATM   16  C   UNL     1      22.121  51.763  23.795  1.00  0.00    -0.005 C 
HETATM   17  C   UNL     1      21.905  51.862  25.267  1.00  0.00     0.005 C 
ENDBRANCH  15  16
ENDBRANCH  14  15
ENDBRANCH  13  14
ENDBRANCH  12  13
ENDBRANCH  11  12
ENDBRANCH  10  11
ENDBRANCH   1  10
TORSDOF 14
ENDMDL
MODEL 16
REMARK VINA RESULT:    -4.882      1.341      3.637
REMARK INTER + INTRA:          -9.825
REMARK INTER:                  -9.133
REMARK INTRA:                  -0.691
REMARK UNBOUND:                -0.947
REMARK  14 active torsions:
REMARK  status: ('A' for Active; 'I' for Inactive)
REMARK    1  A    between atoms: C_2  and  C_3 
REMARK    2  A    between atoms: C_3  and  C_4 
REMARK    3  A    between atoms: C_4  and  C_5 
REMARK    4  A    between atoms: C_5  and  C_6 
REMARK    5  A    between atoms: C_6  and  C_7 
REMARK    6  A    between atoms: C_7  and  C_8 
REMARK    7  A    between atoms: C_8  and  C_9 
REMARK    8  A    between atoms: C_9  and  C_10 
REMARK    9  A    between atoms: C_10  and  C_11 
REMARK   10  A    between atoms: C_11  and  C_12 
REMARK   11  A    between atoms: C_12  and  C_13 
REMARK   12  A    between atoms: C_13  and  C_14 
REMARK   13  A    between atoms: C_14  and  C_15 
REMARK   14  A    between atoms: C_15  and  C_16 
ROOT
HETATM    1  C   UNL     1      25.089  55.318  19.623  1.00  0.00     0.000 C 
ENDROOT
BRANCH   1   2
HETATM    2  C   UNL     1      25.599  54.868  18.279  1.00  0.00     0.000 C 
BRANCH   2   3
HETATM    3  C   UNL     1      26.593  53.674  18.313  1.00  0.00     0.000 C 
BRANCH   3   4
HETATM    4  C   UNL     1      27.186  53.249  16.977  1.00  0.00     0.000 C 
BRANCH   4   5
HETATM    5  C   UNL     1      26.930  51.784  16.663  1.00  0.00     0.000 C 
BRANCH   5   6
HETATM    6  C   UNL     1      25.550  51.285  16.483  1.00  0.00     0.000 C 
BRANCH   6   7
HETATM    7  C   UNL     1      24.623  52.404  16.119  1.00  0.00    -0.000 C 
BRANCH   7   8
HETATM    8  C   UNL     1      23.236  52.422  16.661  1.00  0.00    -0.005 C 
HETATM    9  C   UNL     1      22.749  53.721  17.166  1.00  0.00     0.005 C 
ENDBRANCH   7   8
ENDBRANCH   6   7
ENDBRANCH   5   6
ENDBRANCH   4   5
ENDBRANCH   3   4
ENDBRANCH   2   3
ENDBRANCH   1   2
BRANCH   1  10
HETATM   10  C   UNL     1      23.789  56.069  19.773  1.00  0.00     0.000 C 
BRANCH  10  11
HETATM   11  C   UNL     1      22.828  55.136  20.409  1.00  0.00     0.000 C 
BRANCH  11  12
HETATM   12  C   UNL     1      22.680  55.175  21.839  1.00  0.00     0.000 C 
BRANCH  12  13
HETATM   13  C   UNL     1      23.087  53.993  22.582  1.00  0.00     0.000 C 
BRANCH  13  14
HETATM   14  C   UNL     1      22.108  52.955  22.853  1.00  0.00     0.000 C 
BRANCH  14  15
HETATM   15  C   UNL     1      21.943  52.482  24.265  1.00  0.00    -0.000 C 
BRANCH  15  16
HETATM   16  C   UNL     1      22.608  51.126  24.365  1.00  0.00    -0.005 C 
HETATM   17  C   UNL     1      22.357  50.198  23.226  1.00  0.00     0.005 C 
ENDBRANCH  15  16
ENDBRANCH  14  15
ENDBRANCH  13  14
ENDBRANCH  12  13
ENDBRANCH  11  12
ENDBRANCH  10  11
ENDBRANCH   1  10
TORSDOF 14
ENDMDL
MODEL 17
REMARK VINA RESULT:    -4.836      2.229      7.412
REMARK INTER + INTRA:          -9.742
REMARK INTER:                  -8.624
REMARK INTRA:                  -1.118
REMARK UNBOUND:                -0.947
REMARK  14 active torsions:
REMARK  status: ('A' for Active; 'I' for Inactive)
REMARK    1  A    between atoms: C_2  and  C_3 
REMARK    2  A    between atoms: C_3  and  C_4 
REMARK    3  A    between atoms: C_4  and  C_5 
REMARK    4  A    between atoms: C_5  and  C_6 
REMARK    5  A    between atoms: C_6  and  C_7 
REMARK    6  A    between atoms: C_7  and  C_8 
REMARK    7  A    between atoms: C_8  and  C_9 
REMARK    8  A    between atoms: C_9  and  C_10 
REMARK    9  A    between atoms: C_10  and  C_11 
REMARK   10  A    between atoms: C_11  and  C_12 
REMARK   11  A    between atoms: C_12  and  C_13 
REMARK   12  A    between atoms: C_13  and  C_14 
REMARK   13  A    between atoms: C_14  and  C_15 
REMARK   14  A    between atoms: C_15  and  C_16 
ROOT
HETATM    1  C   UNL     1      24.340  52.286  16.385  1.00  0.00     0.000 C 
ENDROOT
BRANCH   1   2
HETATM    2  C   UNL     1      23.012  52.858  16.805  1.00  0.00     0.000 C 
BRANCH   2   3
HETATM    3  C   UNL     1      23.086  54.015  17.840  1.00  0.00     0.000 C 
BRANCH   3   4
HETATM    4  C   UNL     1      21.762  54.644  18.249  1.00  0.00     0.000 C 
BRANCH   4   5
HETATM    5  C   UNL     1      21.768  55.137  19.687  1.00  0.00     0.000 C 
BRANCH   5   6
HETATM    6  C   UNL     1      22.928  54.878  20.564  1.00  0.00     0.000 C 
BRANCH   6   7
HETATM    7  C   UNL     1      22.529  54.936  22.007  1.00  0.00    -0.000 C 
BRANCH   7   8
HETATM    8  C   UNL     1      22.090  53.696  22.704  1.00  0.00    -0.005 C 
HETATM    9  C   UNL     1      23.163  52.799  23.178  1.00  0.00     0.005 C 
ENDBRANCH   7   8
ENDBRANCH   6   7
ENDBRANCH   5   6
ENDBRANCH   4   5
ENDBRANCH   3   4
ENDBRANCH   2   3
ENDBRANCH   1   2
BRANCH   1  10
HETATM   10  C   UNL     1      25.512  52.208  17.331  1.00  0.00     0.000 C 
BRANCH  10  11
HETATM   11  C   UNL     1      26.614  52.981  16.709  1.00  0.00     0.000 C 
BRANCH  11  12
HETATM   12  C   UNL     1      26.303  53.854  15.610  1.00  0.00     0.000 C 
BRANCH  12  13
HETATM   13  C   UNL     1      26.312  55.284  15.872  1.00  0.00     0.000 C 
BRANCH  13  14
HETATM   14  C   UNL     1      25.172  55.890  16.538  1.00  0.00     0.000 C 
BRANCH  14  15
HETATM   15  C   UNL     1      25.307  56.267  17.981  1.00  0.00    -0.000 C 
BRANCH  15  16
HETATM   16  C   UNL     1      24.764  57.672  18.130  1.00  0.00    -0.005 C 
HETATM   17  C   UNL     1      23.297  57.774  18.376  1.00  0.00     0.005 C 
ENDBRANCH  15  16
ENDBRANCH  14  15
ENDBRANCH  13  14
ENDBRANCH  12  13
ENDBRANCH  11  12
ENDBRANCH  10  11
ENDBRANCH   1  10
TORSDOF 14
ENDMDL
MODEL 18
REMARK VINA RESULT:    -4.708      1.609      7.139
REMARK INTER + INTRA:          -9.508
REMARK INTER:                  -8.880
REMARK INTRA:                  -0.628
REMARK UNBOUND:                -0.947
REMARK  14 active torsions:
REMARK  status: ('A' for Active; 'I' for Inactive)
REMARK    1  A    between atoms: C_2  and  C_3 
REMARK    2  A    between atoms: C_3  and  C_4 
REMARK    3  A    between atoms: C_4  and  C_5 
REMARK    4  A    between atoms: C_5  and  C_6 
REMARK    5  A    between atoms: C_6  and  C_7 
REMARK    6  A    between atoms: C_7  and  C_8 
REMARK    7  A    between atoms: C_8  and  C_9 
REMARK    8  A    between atoms: C_9  and  C_10 
REMARK    9  A    between atoms: C_10  and  C_11 
REMARK   10  A    between atoms: C_11  and  C_12 
REMARK   11  A    between atoms: C_12  and  C_13 
REMARK   12  A    between atoms: C_13  and  C_14 
REMARK   13  A    between atoms: C_14  and  C_15 
REMARK   14  A    between atoms: C_15  and  C_16 
ROOT
HETATM    1  C   UNL     1      23.442  54.331  17.366  1.00  0.00     0.000 C 
ENDROOT
BRANCH   1   2
HETATM    2  C   UNL     1      22.573  54.716  18.534  1.00  0.00     0.000 C 
BRANCH   2   3
HETATM    3  C   UNL     1      23.195  55.754  19.508  1.00  0.00     0.000 C 
BRANCH   3   4
HETATM    4  C   UNL     1      22.637  55.772  20.925  1.00  0.00     0.000 C 
BRANCH   4   5
HETATM    5  C   UNL     1      23.251  54.698  21.809  1.00  0.00     0.000 C 
BRANCH   5   6
HETATM    6  C   UNL     1      22.409  53.930  22.750  1.00  0.00     0.000 C 
BRANCH   6   7
HETATM    7  C   UNL     1      23.076  52.643  23.131  1.00  0.00    -0.000 C 
BRANCH   7   8
HETATM    8  C   UNL     1      22.301  51.593  23.847  1.00  0.00    -0.005 C 
HETATM    9  C   UNL     1      21.973  51.871  25.259  1.00  0.00     0.005 C 
ENDBRANCH   7   8
ENDBRANCH   6   7
ENDBRANCH   5   6
ENDBRANCH   4   5
ENDBRANCH   3   4
ENDBRANCH   2   3
ENDBRANCH   1   2
BRANCH   1  10
HETATM   10  C   UNL     1      24.643  55.148  16.959  1.00  0.00     0.000 C 
BRANCH  10  11
HETATM   11  C   UNL     1      25.346  54.378  15.905  1.00  0.00     0.000 C 
BRANCH  11  12
HETATM   12  C   UNL     1      24.744  53.162  15.428  1.00  0.00     0.000 C 
BRANCH  12  13
HETATM   13  C   UNL     1      25.603  51.995  15.311  1.00  0.00     0.000 C 
BRANCH  13  14
HETATM   14  C   UNL     1      26.290  51.500  16.492  1.00  0.00     0.000 C 
BRANCH  14  15
HETATM   15  C   UNL     1      27.657  52.032  16.796  1.00  0.00    -0.000 C 
BRANCH  15  16
HETATM   16  C   UNL     1      27.495  53.121  17.834  1.00  0.00    -0.005 C 
HETATM   17  C   UNL     1      26.383  52.923  18.808  1.00  0.00     0.005 C 
ENDBRANCH  15  16
ENDBRANCH  14  15
ENDBRANCH  13  14
ENDBRANCH  12  13
ENDBRANCH  11  12
ENDBRANCH  10  11
ENDBRANCH   1  10
TORSDOF 14
ENDMDL
