MODEL 1
REMARK VINA RESULT:    -8.212      0.000      0.000
REMARK INTER + INTRA:          -9.265
REMARK INTER:                  -9.172
REMARK INTRA:                  -0.094
REMARK UNBOUND:                -0.094
REMARK  2 active torsions:
REMARK  status: ('A' for Active; 'I' for Inactive)
REMARK    1  A    between atoms: C_2  and  C_3 
REMARK    2  A    between atoms: C_2  and  O_13 
REMARK       I    between atoms: C_3  and  N_12 
ROOT
HETATM    1  C   UNL     1      24.785  67.794  72.067  1.00  0.00     0.248 C 
HETATM    2  C   UNL     1      26.004  65.679  71.387  1.00  0.00     0.137 C 
HETATM    3  C   UNL     1      27.437  65.260  71.316  1.00  0.00     0.063 C 
HETATM    4  C   UNL     1      28.186  66.407  72.005  1.00  0.00    -0.008 A 
HETATM    5  C   UNL     1      29.508  66.519  72.439  1.00  0.00     0.042 A 
HETATM    6  C   UNL     1      29.982  67.672  73.108  1.00  0.00     0.024 A 
HETATM    7  C   UNL     1      29.073  68.710  73.349  1.00  0.00     0.004 A 
HETATM    8  C   UNL     1      27.763  68.647  72.925  1.00  0.00     0.030 A 
HETATM    9  C   UNL     1      27.304  67.463  72.258  1.00  0.00     0.045 A 
HETATM   10  N   UNL     1      25.973  67.068  71.838  1.00  0.00    -0.315 N 
HETATM   11  O   UNL     1      24.851  68.932  72.458  1.00  0.00    -0.271 OA
HETATM   12 CL   UNL     1      30.523  65.167  72.086  1.00  0.00    -0.084 Cl
ENDROOT
BRANCH   1  13
HETATM   13  C   UNL     1      23.528  67.103  71.714  1.00  0.00     0.270 C 
BRANCH  13  14
HETATM   14  O   UNL     1      22.498  68.070  71.802  1.00  0.00    -0.387 OA
HETATM   15  C   UNL     1      21.271  67.549  72.281  1.00  0.00     0.202 C 
ENDBRANCH  13  14
ENDBRANCH   1  13
TORSDOF 2
ENDMDL
MODEL 2
REMARK VINA RESULT:    -8.120      1.344      1.667
REMARK INTER + INTRA:          -9.163
REMARK INTER:                  -9.083
REMARK INTRA:                  -0.081
REMARK UNBOUND:                -0.094
REMARK  2 active torsions:
REMARK  status: ('A' for Active; 'I' for Inactive)
REMARK    1  A    between atoms: C_2  and  C_3 
REMARK    2  A    between atoms: C_2  and  O_13 
REMARK       I    between atoms: C_3  and  N_12 
ROOT
HETATM    1  C   UNL     1      25.358  67.915  72.018  1.00  0.00     0.248 C 
HETATM    2  C   UNL     1      25.305  65.475  71.338  1.00  0.00     0.137 C 
HETATM    3  C   UNL     1      26.339  64.431  71.060  1.00  0.00     0.063 C 
HETATM    4  C   UNL     1      27.651  65.092  71.501  1.00  0.00    -0.008 A 
HETATM    5  C   UNL     1      28.931  64.571  71.689  1.00  0.00     0.042 A 
HETATM    6  C   UNL     1      30.005  65.366  72.157  1.00  0.00     0.024 A 
HETATM    7  C   UNL     1      29.742  66.709  72.454  1.00  0.00     0.004 A 
HETATM    8  C   UNL     1      28.497  67.269  72.269  1.00  0.00     0.030 A 
HETATM    9  C   UNL     1      27.423  66.440  71.803  1.00  0.00     0.045 A 
HETATM   10  N   UNL     1      26.007  66.716  71.657  1.00  0.00    -0.315 N 
HETATM   11  O   UNL     1      26.016  68.890  72.285  1.00  0.00    -0.271 OA
HETATM   12 CL   UNL     1      29.118  62.899  71.294  1.00  0.00    -0.084 Cl
ENDROOT
BRANCH   1  13
HETATM   13  C   UNL     1      23.882  67.897  71.952  1.00  0.00     0.270 C 
BRANCH  13  14
HETATM   14  O   UNL     1      23.439  69.140  72.464  1.00  0.00    -0.387 OA
HETATM   15  C   UNL     1      22.034  69.307  72.409  1.00  0.00     0.202 C 
ENDBRANCH  13  14
ENDBRANCH   1  13
TORSDOF 2
ENDMDL
MODEL 3
REMARK VINA RESULT:    -7.418      1.512      2.445
REMARK INTER + INTRA:          -8.379
REMARK INTER:                  -8.270
REMARK INTRA:                  -0.109
REMARK UNBOUND:                -0.094
REMARK  2 active torsions:
REMARK  status: ('A' for Active; 'I' for Inactive)
REMARK    1  A    between atoms: C_2  and  C_3 
REMARK    2  A    between atoms: C_2  and  O_13 
REMARK       I    between atoms: C_3  and  N_12 
ROOT
HETATM    1  C   UNL     1      24.689  66.755  71.697  1.00  0.00     0.248 C 
HETATM    2  C   UNL     1      26.046  68.728  72.525  1.00  0.00     0.137 C 
HETATM    3  C   UNL     1      27.471  68.939  72.925  1.00  0.00     0.063 C 
HETATM    4  C   UNL     1      28.161  67.632  72.516  1.00  0.00    -0.008 A 
HETATM    5  C   UNL     1      29.510  67.285  72.432  1.00  0.00     0.042 A 
HETATM    6  C   UNL     1      29.931  66.014  71.976  1.00  0.00     0.024 A 
HETATM    7  C   UNL     1      28.945  65.101  71.581  1.00  0.00     0.004 A 
HETATM    8  C   UNL     1      27.601  65.396  71.661  1.00  0.00     0.030 A 
HETATM    9  C   UNL     1      27.201  66.695  72.119  1.00  0.00     0.045 A 
HETATM   10  N   UNL     1      25.893  67.320  72.169  1.00  0.00    -0.315 N 
HETATM   11  O   UNL     1      24.655  65.585  71.407  1.00  0.00    -0.271 OA
HETATM   12 CL   UNL     1      30.624  68.505  72.942  1.00  0.00    -0.084 Cl
ENDROOT
BRANCH   1  13
HETATM   13  C   UNL     1      23.516  67.653  71.683  1.00  0.00     0.270 C 
BRANCH  13  14
HETATM   14  O   UNL     1      22.596  67.130  72.622  1.00  0.00    -0.387 OA
HETATM   15  C   UNL     1      21.242  67.279  72.232  1.00  0.00     0.202 C 
ENDBRANCH  13  14
ENDBRANCH   1  13
TORSDOF 2
ENDMDL
MODEL 4
REMARK VINA RESULT:    -6.875      3.795      5.362
REMARK INTER + INTRA:          -7.772
REMARK INTER:                  -7.669
REMARK INTRA:                  -0.103
REMARK UNBOUND:                -0.094
REMARK  2 active torsions:
REMARK  status: ('A' for Active; 'I' for Inactive)
REMARK    1  A    between atoms: C_2  and  C_3 
REMARK    2  A    between atoms: C_2  and  O_13 
REMARK       I    between atoms: C_3  and  N_12 
ROOT
HETATM    1  C   UNL     1      29.202  64.295  71.619  1.00  0.00     0.248 C 
HETATM    2  C   UNL     1      26.776  64.841  71.131  1.00  0.00     0.137 C 
HETATM    3  C   UNL     1      25.865  65.985  71.443  1.00  0.00     0.063 C 
HETATM    4  C   UNL     1      26.803  67.046  72.031  1.00  0.00    -0.008 A 
HETATM    5  C   UNL     1      26.604  68.397  72.321  1.00  0.00     0.042 A 
HETATM    6  C   UNL     1      27.643  69.218  72.822  1.00  0.00     0.024 A 
HETATM    7  C   UNL     1      28.905  68.638  73.004  1.00  0.00     0.004 A 
HETATM    8  C   UNL     1      29.141  67.305  72.745  1.00  0.00     0.030 A 
HETATM    9  C   UNL     1      28.075  66.497  72.228  1.00  0.00     0.045 A 
HETATM   10  N   UNL     1      28.072  65.132  71.739  1.00  0.00    -0.315 N 
HETATM   11  O   UNL     1      30.240  64.621  72.138  1.00  0.00    -0.271 OA
HETATM   12 CL   UNL     1      25.005  68.989  72.045  1.00  0.00    -0.084 Cl
ENDROOT
BRANCH   1  13
HETATM   13  C   UNL     1      28.984  63.012  70.920  1.00  0.00     0.270 C 
BRANCH  13  14
HETATM   14  O   UNL     1      29.878  62.080  71.500  1.00  0.00    -0.387 OA
HETATM   15  C   UNL     1      30.581  61.302  70.548  1.00  0.00     0.202 C 
ENDBRANCH  13  14
ENDBRANCH   1  13
TORSDOF 2
ENDMDL
MODEL 5
REMARK VINA RESULT:    -6.825      3.445      5.638
REMARK INTER + INTRA:          -7.717
REMARK INTER:                  -7.967
REMARK INTRA:                   0.250
REMARK UNBOUND:                -0.094
REMARK  2 active torsions:
REMARK  status: ('A' for Active; 'I' for Inactive)
REMARK    1  A    between atoms: C_2  and  C_3 
REMARK    2  A    between atoms: C_2  and  O_13 
REMARK       I    between atoms: C_3  and  N_12 
ROOT
HETATM    1  C   UNL     1      29.436  67.333  72.092  1.00  0.00     0.248 C 
HETATM    2  C   UNL     1      27.389  68.714  72.656  1.00  0.00     0.137 C 
HETATM    3  C   UNL     1      25.917  68.561  72.442  1.00  0.00     0.063 C 
HETATM    4  C   UNL     1      25.773  67.127  71.919  1.00  0.00    -0.008 A 
HETATM    5  C   UNL     1      24.650  66.320  71.732  1.00  0.00     0.042 A 
HETATM    6  C   UNL     1      24.754  64.984  71.276  1.00  0.00     0.024 A 
HETATM    7  C   UNL     1      26.035  64.473  71.032  1.00  0.00     0.004 A 
HETATM    8  C   UNL     1      27.170  65.240  71.190  1.00  0.00     0.030 A 
HETATM    9  C   UNL     1      27.038  66.588  71.663  1.00  0.00     0.045 A 
HETATM   10  N   UNL     1      28.044  67.558  72.050  1.00  0.00    -0.315 N 
HETATM   11  O   UNL     1      29.893  66.340  71.582  1.00  0.00    -0.271 OA
HETATM   12 CL   UNL     1      23.131  67.068  72.076  1.00  0.00    -0.084 Cl
ENDROOT
BRANCH   1  13
HETATM   13  C   UNL     1      30.247  68.409  72.698  1.00  0.00     0.270 C 
BRANCH  13  14
HETATM   14  O   UNL     1      30.405  68.075  74.064  1.00  0.00    -0.387 OA
HETATM   15  C   UNL     1      31.014  66.813  74.272  1.00  0.00     0.202 C 
ENDBRANCH  13  14
ENDBRANCH   1  13
TORSDOF 2
ENDMDL
MODEL 6
REMARK VINA RESULT:    -6.621      3.769      5.714
REMARK INTER + INTRA:          -7.488
REMARK INTER:                  -7.390
REMARK INTRA:                  -0.099
REMARK UNBOUND:                -0.094
REMARK  2 active torsions:
REMARK  status: ('A' for Active; 'I' for Inactive)
REMARK    1  A    between atoms: C_2  and  C_3 
REMARK    2  A    between atoms: C_2  and  O_13 
REMARK       I    between atoms: C_3  and  N_12 
ROOT
HETATM    1  C   UNL     1      28.633  63.591  71.369  1.00  0.00     0.248 C 
HETATM    2  C   UNL     1      29.886  65.637  72.183  1.00  0.00     0.137 C 
HETATM    3  C   UNL     1      29.549  67.082  72.364  1.00  0.00     0.063 C 
HETATM    4  C   UNL     1      28.033  67.133  72.134  1.00  0.00    -0.008 A 
HETATM    5  C   UNL     1      27.097  68.143  72.363  1.00  0.00     0.042 A 
HETATM    6  C   UNL     1      25.716  67.954  72.120  1.00  0.00     0.024 A 
HETATM    7  C   UNL     1      25.298  66.700  71.658  1.00  0.00     0.004 A 
HETATM    8  C   UNL     1      26.190  65.680  71.405  1.00  0.00     0.030 A 
HETATM    9  C   UNL     1      27.584  65.893  71.668  1.00  0.00     0.045 A 
HETATM   10  N   UNL     1      28.706  64.975  71.633  1.00  0.00    -0.315 N 
HETATM   11  O   UNL     1      27.611  63.123  70.932  1.00  0.00    -0.271 OA
HETATM   12 CL   UNL     1      27.743  69.638  72.940  1.00  0.00    -0.084 Cl
ENDROOT
BRANCH   1  13
HETATM   13  C   UNL     1      29.881  62.827  71.573  1.00  0.00     0.270 C 
BRANCH  13  14
HETATM   14  O   UNL     1      29.583  61.478  71.267  1.00  0.00    -0.387 OA
HETATM   15  C   UNL     1      30.323  60.969  70.172  1.00  0.00     0.202 C 
ENDBRANCH  13  14
ENDBRANCH   1  13
TORSDOF 2
ENDMDL
MODEL 7
REMARK VINA RESULT:    -6.550      2.667      5.141
REMARK INTER + INTRA:          -7.409
REMARK INTER:                  -7.611
REMARK INTRA:                   0.202
REMARK UNBOUND:                -0.094
REMARK  2 active torsions:
REMARK  status: ('A' for Active; 'I' for Inactive)
REMARK    1  A    between atoms: C_2  and  C_3 
REMARK    2  A    between atoms: C_2  and  O_13 
REMARK       I    between atoms: C_3  and  N_12 
ROOT
HETATM    1  C   UNL     1      28.983  68.688  72.816  1.00  0.00     0.248 C 
HETATM    2  C   UNL     1      29.021  66.364  71.808  1.00  0.00     0.137 C 
HETATM    3  C   UNL     1      27.988  65.330  71.492  1.00  0.00     0.063 C 
HETATM    4  C   UNL     1      26.660  66.061  71.722  1.00  0.00    -0.008 A 
HETATM    5  C   UNL     1      25.346  65.714  71.404  1.00  0.00     0.042 A 
HETATM    6  C   UNL     1      24.256  66.578  71.668  1.00  0.00     0.024 A 
HETATM    7  C   UNL     1      24.534  67.822  72.249  1.00  0.00     0.004 A 
HETATM    8  C   UNL     1      25.814  68.199  72.593  1.00  0.00     0.030 A 
HETATM    9  C   UNL     1      26.902  67.310  72.305  1.00  0.00     0.045 A 
HETATM   10  N   UNL     1      28.335  67.498  72.422  1.00  0.00    -0.315 N 
HETATM   11  O   UNL     1      28.337  69.584  73.299  1.00  0.00    -0.271 OA
HETATM   12 CL   UNL     1      25.142  64.156  70.685  1.00  0.00    -0.084 Cl
ENDROOT
BRANCH   1  13
HETATM   13  C   UNL     1      30.454  68.699  72.680  1.00  0.00     0.270 C 
BRANCH  13  14
HETATM   14  O   UNL     1      30.979  68.327  73.940  1.00  0.00    -0.387 OA
HETATM   15  C   UNL     1      31.272  66.945  74.046  1.00  0.00     0.202 C 
ENDBRANCH  13  14
ENDBRANCH   1  13
TORSDOF 2
ENDMDL
MODEL 8
REMARK VINA RESULT:    -6.037      3.553      5.361
REMARK INTER + INTRA:          -6.836
REMARK INTER:                  -6.771
REMARK INTRA:                  -0.065
REMARK UNBOUND:                -0.094
REMARK  2 active torsions:
REMARK  status: ('A' for Active; 'I' for Inactive)
REMARK    1  A    between atoms: C_2  and  C_3 
REMARK    2  A    between atoms: C_2  and  O_13 
REMARK       I    between atoms: C_3  and  N_12 
ROOT
HETATM    1  C   UNL     1      28.433  65.168  71.149  1.00  0.00     0.248 C 
HETATM    2  C   UNL     1      26.036  64.365  70.989  1.00  0.00     0.137 C 
HETATM    3  C   UNL     1      24.703  64.932  71.360  1.00  0.00     0.063 C 
HETATM    4  C   UNL     1      25.018  66.384  71.738  1.00  0.00    -0.008 A 
HETATM    5  C   UNL     1      24.185  67.480  71.969  1.00  0.00     0.042 A 
HETATM    6  C   UNL     1      24.701  68.765  72.262  1.00  0.00     0.024 A 
HETATM    7  C   UNL     1      26.093  68.921  72.292  1.00  0.00     0.004 A 
HETATM    8  C   UNL     1      26.951  67.863  72.083  1.00  0.00     0.030 A 
HETATM    9  C   UNL     1      26.403  66.572  71.780  1.00  0.00     0.045 A 
HETATM   10  N   UNL     1      27.052  65.338  71.382  1.00  0.00    -0.315 N 
HETATM   11  O   UNL     1      29.203  66.031  71.489  1.00  0.00    -0.271 OA
HETATM   12 CL   UNL     1      22.490  67.155  71.895  1.00  0.00    -0.084 Cl
ENDROOT
BRANCH   1  13
HETATM   13  C   UNL     1      28.837  63.870  70.570  1.00  0.00     0.270 C 
BRANCH  13  14
HETATM   14  O   UNL     1      29.075  62.999  71.660  1.00  0.00    -0.387 OA
HETATM   15  C   UNL     1      29.888  61.888  71.330  1.00  0.00     0.202 C 
ENDBRANCH  13  14
ENDBRANCH   1  13
TORSDOF 2
ENDMDL
MODEL 9
REMARK VINA RESULT:    -5.407      4.547      8.105
REMARK INTER + INTRA:          -6.132
REMARK INTER:                  -6.019
REMARK INTRA:                  -0.114
REMARK UNBOUND:                -0.094
REMARK  2 active torsions:
REMARK  status: ('A' for Active; 'I' for Inactive)
REMARK    1  A    between atoms: C_2  and  C_3 
REMARK    2  A    between atoms: C_2  and  O_13 
REMARK       I    between atoms: C_3  and  N_12 
ROOT
HETATM    1  C   UNL     1      22.589  68.756  72.389  1.00  0.00     0.248 C 
HETATM    2  C   UNL     1      21.093  66.768  71.912  1.00  0.00     0.137 C 
HETATM    3  C   UNL     1      19.622  66.510  71.979  1.00  0.00     0.063 C 
HETATM    4  C   UNL     1      19.021  67.898  72.232  1.00  0.00    -0.008 A 
HETATM    5  C   UNL     1      17.704  68.358  72.187  1.00  0.00     0.042 A 
HETATM    6  C   UNL     1      17.375  69.716  72.411  1.00  0.00     0.024 A 
HETATM    7  C   UNL     1      18.423  70.610  72.663  1.00  0.00     0.004 A 
HETATM    8  C   UNL     1      19.736  70.197  72.731  1.00  0.00     0.030 A 
HETATM    9  C   UNL     1      20.044  68.816  72.491  1.00  0.00     0.045 A 
HETATM   10  N   UNL     1      21.320  68.140  72.358  1.00  0.00    -0.315 N 
HETATM   11  O   UNL     1      22.684  69.902  72.753  1.00  0.00    -0.271 OA
HETATM   12 CL   UNL     1      16.508  67.154  71.859  1.00  0.00    -0.084 Cl
ENDROOT
BRANCH   1  13
HETATM   13  C   UNL     1      23.736  67.891  72.045  1.00  0.00     0.270 C 
BRANCH  13  14
HETATM   14  O   UNL     1      24.664  68.010  73.106  1.00  0.00    -0.387 OA
HETATM   15  C   UNL     1      25.987  68.276  72.676  1.00  0.00     0.202 C 
ENDBRANCH  13  14
ENDBRANCH   1  13
TORSDOF 2
ENDMDL
MODEL 10
REMARK VINA RESULT:    -5.259      9.488     10.148
REMARK INTER + INTRA:          -5.968
REMARK INTER:                  -5.777
REMARK INTRA:                  -0.190
REMARK UNBOUND:                -0.094
REMARK  2 active torsions:
REMARK  status: ('A' for Active; 'I' for Inactive)
REMARK    1  A    between atoms: C_2  and  C_3 
REMARK    2  A    between atoms: C_2  and  O_13 
REMARK       I    between atoms: C_3  and  N_12 
ROOT
HETATM    1  C   UNL     1      23.831  72.256  63.151  1.00  0.00     0.248 C 
HETATM    2  C   UNL     1      26.320  71.873  62.872  1.00  0.00     0.137 C 
HETATM    3  C   UNL     1      27.277  70.797  63.275  1.00  0.00     0.063 C 
HETATM    4  C   UNL     1      26.367  69.679  63.800  1.00  0.00    -0.008 A 
HETATM    5  C   UNL     1      26.632  68.348  64.125  1.00  0.00     0.042 A 
HETATM    6  C   UNL     1      25.613  67.463  64.552  1.00  0.00     0.024 A 
HETATM    7  C   UNL     1      24.304  67.957  64.621  1.00  0.00     0.004 A 
HETATM    8  C   UNL     1      24.001  69.268  64.323  1.00  0.00     0.030 A 
HETATM    9  C   UNL     1      25.050  70.143  63.883  1.00  0.00     0.045 A 
HETATM   10  N   UNL     1      25.001  71.500  63.376  1.00  0.00    -0.315 N 
HETATM   11  O   UNL     1      22.778  71.865  63.588  1.00  0.00    -0.271 OA
HETATM   12 CL   UNL     1      28.285  67.865  63.990  1.00  0.00    -0.084 Cl
ENDROOT
BRANCH   1  13
HETATM   13  C   UNL     1      24.019  73.545  62.453  1.00  0.00     0.270 C 
BRANCH  13  14
HETATM   14  O   UNL     1      23.198  73.504  61.302  1.00  0.00    -0.387 OA
HETATM   15  C   UNL     1      23.862  73.020  60.148  1.00  0.00     0.202 C 
ENDBRANCH  13  14
ENDBRANCH   1  13
TORSDOF 2
ENDMDL
