MODEL 1
REMARK VINA RESULT:    -7.589      0.000      0.000
REMARK INTER + INTRA:         -14.025
REMARK INTER:                 -12.026
REMARK INTRA:                  -1.999
REMARK UNBOUND:                -1.999
REMARK  11 active torsions:
REMARK  status: ('A' for Active; 'I' for Inactive)
REMARK    1  A    between atoms: C_2  and  O_16 
REMARK    2  A    between atoms: C_2  and  C_22 
REMARK    3  A    between atoms: O_3  and  C_5 
REMARK    4  A    between atoms: C_5  and  C_11 
REMARK    5  A    between atoms: C_7  and  O_17 
REMARK    6  A    between atoms: C_8  and  O_16 
REMARK    7  A    between atoms: C_9  and  O_13 
REMARK    8  A    between atoms: C_10  and  O_14 
REMARK    9  A    between atoms: O_14  and  C_15 
REMARK   10  A    between atoms: C_15  and  C_21 
REMARK   11  A    between atoms: C_29  and  N_32 
ROOT
HETATM    1  C   UNL     1      18.195  -7.226  -0.775  1.00  0.00     0.181 C 
HETATM    2  C   UNL     1      17.882  -8.466  -1.552  1.00  0.00     0.198 C 
HETATM    3  C   UNL     1      20.320  -8.786  -1.811  1.00  0.00     0.291 C 
HETATM    4  C   UNL     1      19.013  -9.499  -1.596  1.00  0.00     0.219 C 
HETATM    5  C   UNL     1      19.579  -6.696  -1.107  1.00  0.00     0.179 C 
HETATM    6  O   UNL     1      20.559  -7.722  -0.876  1.00  0.00    -0.348 OA
ENDROOT
BRANCH   4   7
HETATM    7  O   UNL     1      19.125 -10.175  -0.311  1.00  0.00    -0.304 OA
BRANCH   7   8
HETATM    8  C   UNL     1      18.897 -11.481  -0.292  1.00  0.00     0.296 C 
HETATM    9  O   UNL     1      19.263 -12.234  -1.185  1.00  0.00    -0.259 OA
BRANCH   8  10
HETATM   10  C   UNL     1      18.317 -11.955   1.005  1.00  0.00     0.072 A 
HETATM   11  C   UNL     1      18.931 -12.823   1.906  1.00  0.00     0.120 A 
HETATM   12  C   UNL     1      18.408 -13.110   3.142  1.00  0.00     0.060 A 
HETATM   13  C   UNL     1      17.195 -12.535   3.475  1.00  0.00     0.036 A 
HETATM   14  C   UNL     1      16.526 -11.692   2.617  1.00  0.00     0.025 A 
HETATM   15 CL   UNL     1      16.575 -12.848   5.025  1.00  0.00    -0.084 Cl
HETATM   16  C   UNL     1      17.094 -11.402   1.384  1.00  0.00     0.022 A 
BRANCH  11  17
HETATM   17  N   UNL     1      20.222 -13.432   1.559  1.00  0.00    -0.115 N 
HETATM   18  O   UNL     1      21.244 -12.816   1.942  1.00  0.00    -0.532 OA
HETATM   19  O   UNL     1      20.264 -14.542   1.006  1.00  0.00    -0.532 OA
ENDBRANCH  11  17
ENDBRANCH   8  10
ENDBRANCH   7   8
ENDBRANCH   4   7
BRANCH   2  20
HETATM   20  O   UNL     1      16.685  -8.969  -0.904  1.00  0.00    -0.306 OA
BRANCH  20  21
HETATM   21  C   UNL     1      15.525  -8.676  -1.441  1.00  0.00     0.293 C 
HETATM   22  O   UNL     1      15.407  -8.436  -2.595  1.00  0.00    -0.259 OA
BRANCH  21  23
HETATM   23  C   UNL     1      14.391  -8.721  -0.464  1.00  0.00     0.039 A 
HETATM   24  C   UNL     1      13.075  -8.832  -0.916  1.00  0.00     0.018 A 
HETATM   25  C   UNL     1      12.039  -8.891  -0.007  1.00  0.00     0.007 A 
HETATM   26  C   UNL     1      12.279  -8.835   1.351  1.00  0.00    -0.062 A 
HETATM   27  C   UNL     1      13.564  -8.728   1.779  1.00  0.00     0.007 A 
HETATM   28  C   UNL     1      11.138  -8.824   2.310  1.00  0.00     0.048 C 
HETATM   29  C   UNL     1      14.626  -8.681   0.907  1.00  0.00     0.018 A 
ENDBRANCH  21  23
ENDBRANCH  20  21
ENDBRANCH   2  20
BRANCH   3  30
HETATM   30  O   UNL     1      21.338  -9.739  -1.679  1.00  0.00    -0.363 OA
HETATM   31  C   UNL     1      22.629  -9.164  -1.620  1.00  0.00     0.204 C 
ENDBRANCH   3  30
BRANCH   1  32
HETATM   32  O   UNL     1      18.086  -7.526   0.620  1.00  0.00    -0.390 OA
ATOM     33  HO  UNL     1      17.595  -6.829   1.039  1.00  0.00     0.210 HD
ENDBRANCH   1  32
BRANCH   5  34
HETATM   34  C   UNL     1      19.945  -5.538  -0.212  1.00  0.00     0.198 C 
BRANCH  34  35
HETATM   35  O   UNL     1      21.350  -5.321  -0.150  1.00  0.00    -0.398 OA
ATOM     36  HO  UNL     1      21.773  -5.865   0.503  1.00  0.00     0.209 HD
ENDBRANCH  34  35
ENDBRANCH   5  34
TORSDOF 11
ENDMDL
MODEL 2
REMARK VINA RESULT:    -7.574      1.844      2.340
REMARK INTER + INTRA:         -14.001
REMARK INTER:                 -12.280
REMARK INTRA:                  -1.720
REMARK UNBOUND:                -1.999
REMARK  11 active torsions:
REMARK  status: ('A' for Active; 'I' for Inactive)
REMARK    1  A    between atoms: C_2  and  O_16 
REMARK    2  A    between atoms: C_2  and  C_22 
REMARK    3  A    between atoms: O_3  and  C_5 
REMARK    4  A    between atoms: C_5  and  C_11 
REMARK    5  A    between atoms: C_7  and  O_17 
REMARK    6  A    between atoms: C_8  and  O_16 
REMARK    7  A    between atoms: C_9  and  O_13 
REMARK    8  A    between atoms: C_10  and  O_14 
REMARK    9  A    between atoms: O_14  and  C_15 
REMARK   10  A    between atoms: C_15  and  C_21 
REMARK   11  A    between atoms: C_29  and  N_32 
ROOT
HETATM    1  C   UNL     1      18.300  -7.199  -0.933  1.00  0.00     0.181 C 
HETATM    2  C   UNL     1      17.570  -8.414  -1.413  1.00  0.00     0.198 C 
HETATM    3  C   UNL     1      19.779  -9.474  -1.741  1.00  0.00     0.291 C 
HETATM    4  C   UNL     1      18.361  -9.723  -1.306  1.00  0.00     0.219 C 
HETATM    5  C   UNL     1      19.728  -7.168  -1.448  1.00  0.00     0.179 C 
HETATM    6  O   UNL     1      20.408  -8.375  -1.066  1.00  0.00    -0.348 OA
ENDROOT
BRANCH   4   7
HETATM    7  O   UNL     1      18.431 -10.153   0.084  1.00  0.00    -0.304 OA
BRANCH   7   8
HETATM    8  C   UNL     1      17.799 -11.273   0.403  1.00  0.00     0.296 C 
HETATM    9  O   UNL     1      16.778 -11.647  -0.161  1.00  0.00    -0.259 OA
BRANCH   8  10
HETATM   10  C   UNL     1      18.555 -12.113   1.385  1.00  0.00     0.072 A 
HETATM   11  C   UNL     1      18.129 -12.454   2.668  1.00  0.00     0.120 A 
HETATM   12  C   UNL     1      18.804 -13.341   3.468  1.00  0.00     0.060 A 
HETATM   13  C   UNL     1      19.981 -13.879   2.980  1.00  0.00     0.036 A 
HETATM   14  C   UNL     1      20.468 -13.561   1.733  1.00  0.00     0.025 A 
HETATM   15 CL   UNL     1      20.787 -15.018   3.949  1.00  0.00    -0.084 Cl
HETATM   16  C   UNL     1      19.749 -12.679   0.938  1.00  0.00     0.022 A 
BRANCH  11  17
HETATM   17  N   UNL     1      16.877 -11.890   3.188  1.00  0.00    -0.115 N 
HETATM   18  O   UNL     1      16.108 -12.691   3.768  1.00  0.00    -0.532 OA
HETATM   19  O   UNL     1      16.668 -10.668   3.130  1.00  0.00    -0.532 OA
ENDBRANCH  11  17
ENDBRANCH   8  10
ENDBRANCH   7   8
ENDBRANCH   4   7
BRANCH   2  20
HETATM   20  O   UNL     1      16.365  -8.417  -0.606  1.00  0.00    -0.306 OA
BRANCH  20  21
HETATM   21  C   UNL     1      15.230  -8.712  -1.193  1.00  0.00     0.293 C 
HETATM   22  O   UNL     1      15.164  -8.949  -2.352  1.00  0.00    -0.259 OA
BRANCH  21  23
HETATM   23  C   UNL     1      14.068  -8.755  -0.251  1.00  0.00     0.039 A 
HETATM   24  C   UNL     1      14.277  -8.708   1.129  1.00  0.00     0.018 A 
HETATM   25  C   UNL     1      13.198  -8.730   1.989  1.00  0.00     0.007 A 
HETATM   26  C   UNL     1      11.907  -8.805   1.508  1.00  0.00    -0.062 A 
HETATM   27  C   UNL     1      11.716  -8.849   0.164  1.00  0.00     0.007 A 
HETATM   28  C   UNL     1      10.763  -8.904   2.459  1.00  0.00     0.048 C 
HETATM   29  C   UNL     1      12.762  -8.814  -0.727  1.00  0.00     0.018 A 
ENDBRANCH  21  23
ENDBRANCH  20  21
ENDBRANCH   2  20
BRANCH   3  30
HETATM   30  O   UNL     1      20.505 -10.643  -1.472  1.00  0.00    -0.363 OA
HETATM   31  C   UNL     1      21.807 -10.384  -0.982  1.00  0.00     0.204 C 
ENDBRANCH   3  30
BRANCH   1  32
HETATM   32  O   UNL     1      18.275  -7.192   0.498  1.00  0.00    -0.390 OA
ATOM     33  HO  UNL     1      17.570  -7.757   0.789  1.00  0.00     0.210 HD
ENDBRANCH   1  32
BRANCH   5  34
HETATM   34  C   UNL     1      20.499  -6.023  -0.839  1.00  0.00     0.198 C 
BRANCH  34  35
HETATM   35  O   UNL     1      20.886  -6.282   0.505  1.00  0.00    -0.398 OA
ATOM     36  HO  UNL     1      20.239  -5.984   1.133  1.00  0.00     0.209 HD
ENDBRANCH  34  35
ENDBRANCH   5  34
TORSDOF 11
ENDMDL
MODEL 3
REMARK VINA RESULT:    -6.795      2.329      3.103
REMARK INTER + INTRA:         -12.767
REMARK INTER:                 -10.698
REMARK INTRA:                  -2.069
REMARK UNBOUND:                -1.999
REMARK  11 active torsions:
REMARK  status: ('A' for Active; 'I' for Inactive)
REMARK    1  A    between atoms: C_2  and  O_16 
REMARK    2  A    between atoms: C_2  and  C_22 
REMARK    3  A    between atoms: O_3  and  C_5 
REMARK    4  A    between atoms: C_5  and  C_11 
REMARK    5  A    between atoms: C_7  and  O_17 
REMARK    6  A    between atoms: C_8  and  O_16 
REMARK    7  A    between atoms: C_9  and  O_13 
REMARK    8  A    between atoms: C_10  and  O_14 
REMARK    9  A    between atoms: O_14  and  C_15 
REMARK   10  A    between atoms: C_15  and  C_21 
REMARK   11  A    between atoms: C_29  and  N_32 
ROOT
HETATM    1  C   UNL     1      18.235  -7.090  -0.961  1.00  0.00     0.181 C 
HETATM    2  C   UNL     1      17.745  -8.314  -1.668  1.00  0.00     0.198 C 
HETATM    3  C   UNL     1      20.110  -9.003  -1.881  1.00  0.00     0.291 C 
HETATM    4  C   UNL     1      18.712  -9.503  -1.640  1.00  0.00     0.219 C 
HETATM    5  C   UNL     1      19.682  -6.790  -1.308  1.00  0.00     0.179 C 
HETATM    6  O   UNL     1      20.500  -7.933  -1.007  1.00  0.00    -0.348 OA
ENDROOT
BRANCH   4   7
HETATM    7  O   UNL     1      18.720 -10.111  -0.316  1.00  0.00    -0.304 OA
BRANCH   7   8
HETATM    8  C   UNL     1      18.252 -11.347  -0.215  1.00  0.00     0.296 C 
HETATM    9  O   UNL     1      17.533 -11.859  -1.064  1.00  0.00    -0.259 OA
BRANCH   8  10
HETATM   10  C   UNL     1      18.839 -12.102   0.937  1.00  0.00     0.072 A 
HETATM   11  C   UNL     1      18.198 -12.380   2.144  1.00  0.00     0.120 A 
HETATM   12  C   UNL     1      18.738 -13.195   3.106  1.00  0.00     0.060 A 
HETATM   13  C   UNL     1      19.994 -13.724   2.869  1.00  0.00     0.036 A 
HETATM   14  C   UNL     1      20.689 -13.465   1.710  1.00  0.00     0.025 A 
HETATM   15 CL   UNL     1      20.638 -14.777   4.037  1.00  0.00    -0.084 Cl
HETATM   16  C   UNL     1      20.105 -12.655   0.745  1.00  0.00     0.022 A 
BRANCH  11  17
HETATM   17  N   UNL     1      16.862 -11.825   2.397  1.00  0.00    -0.115 N 
HETATM   18  O   UNL     1      15.892 -12.536   2.044  1.00  0.00    -0.532 OA
HETATM   19  O   UNL     1      16.733 -10.758   3.017  1.00  0.00    -0.532 OA
ENDBRANCH  11  17
ENDBRANCH   8  10
ENDBRANCH   7   8
ENDBRANCH   4   7
BRANCH   2  20
HETATM   20  O   UNL     1      16.485  -8.597  -1.006  1.00  0.00    -0.306 OA
BRANCH  20  21
HETATM   21  C   UNL     1      15.435  -8.832  -1.755  1.00  0.00     0.293 C 
HETATM   22  O   UNL     1      15.045  -9.931  -1.966  1.00  0.00    -0.259 OA
BRANCH  21  23
HETATM   23  C   UNL     1      14.778  -7.587  -2.264  1.00  0.00     0.039 A 
HETATM   24  C   UNL     1      15.006  -7.154  -3.572  1.00  0.00     0.018 A 
HETATM   25  C   UNL     1      14.381  -6.015  -4.037  1.00  0.00     0.007 A 
HETATM   26  C   UNL     1      13.535  -5.286  -3.226  1.00  0.00    -0.062 A 
HETATM   27  C   UNL     1      13.320  -5.718  -1.956  1.00  0.00     0.007 A 
HETATM   28  C   UNL     1      12.932  -4.018  -3.727  1.00  0.00     0.048 C 
HETATM   29  C   UNL     1      13.911  -6.856  -1.459  1.00  0.00     0.018 A 
ENDBRANCH  21  23
ENDBRANCH  20  21
ENDBRANCH   2  20
BRANCH   3  30
HETATM   30  O   UNL     1      20.977 -10.086  -1.682  1.00  0.00    -0.363 OA
HETATM   31  C   UNL     1      22.149  -9.732  -0.975  1.00  0.00     0.204 C 
ENDBRANCH   3  30
BRANCH   1  32
HETATM   32  O   UNL     1      18.079  -7.287   0.447  1.00  0.00    -0.390 OA
ATOM     33  HO  UNL     1      17.240  -6.930   0.710  1.00  0.00     0.210 HD
ENDBRANCH   1  32
BRANCH   5  34
HETATM   34  C   UNL     1      20.213  -5.646  -0.477  1.00  0.00     0.198 C 
BRANCH  34  35
HETATM   35  O   UNL     1      20.908  -6.092   0.681  1.00  0.00    -0.398 OA
ATOM     36  HO  UNL     1      21.389  -5.393   1.107  1.00  0.00     0.209 HD
ENDBRANCH  34  35
ENDBRANCH   5  34
TORSDOF 11
ENDMDL
MODEL 4
REMARK VINA RESULT:    -6.752      1.848      2.496
REMARK INTER + INTRA:         -12.698
REMARK INTER:                 -10.439
REMARK INTRA:                  -2.258
REMARK UNBOUND:                -1.999
REMARK  11 active torsions:
REMARK  status: ('A' for Active; 'I' for Inactive)
REMARK    1  A    between atoms: C_2  and  O_16 
REMARK    2  A    between atoms: C_2  and  C_22 
REMARK    3  A    between atoms: O_3  and  C_5 
REMARK    4  A    between atoms: C_5  and  C_11 
REMARK    5  A    between atoms: C_7  and  O_17 
REMARK    6  A    between atoms: C_8  and  O_16 
REMARK    7  A    between atoms: C_9  and  O_13 
REMARK    8  A    between atoms: C_10  and  O_14 
REMARK    9  A    between atoms: O_14  and  C_15 
REMARK   10  A    between atoms: C_15  and  C_21 
REMARK   11  A    between atoms: C_29  and  N_32 
ROOT
HETATM    1  C   UNL     1      18.836  -7.053  -1.425  1.00  0.00     0.181 C 
HETATM    2  C   UNL     1      18.481  -8.326  -2.128  1.00  0.00     0.198 C 
HETATM    3  C   UNL     1      20.791  -9.086  -1.680  1.00  0.00     0.291 C 
HETATM    4  C   UNL     1      19.356  -9.529  -1.757  1.00  0.00     0.219 C 
HETATM    5  C   UNL     1      20.336  -6.820  -1.420  1.00  0.00     0.179 C 
HETATM    6  O   UNL     1      21.000  -7.949  -0.829  1.00  0.00    -0.348 OA
ENDROOT
BRANCH   4   7
HETATM    7  O   UNL     1      19.007 -10.012  -0.429  1.00  0.00    -0.304 OA
BRANCH   7   8
HETATM    8  C   UNL     1      18.365 -11.169  -0.354  1.00  0.00     0.296 C 
HETATM    9  O   UNL     1      18.234 -11.921  -1.312  1.00  0.00    -0.259 OA
BRANCH   8  10
HETATM   10  C   UNL     1      17.984 -11.539   1.046  1.00  0.00     0.072 A 
HETATM   11  C   UNL     1      16.901 -11.028   1.760  1.00  0.00     0.120 A 
HETATM   12  C   UNL     1      16.522 -11.508   2.988  1.00  0.00     0.060 A 
HETATM   13  C   UNL     1      17.287 -12.517   3.546  1.00  0.00     0.036 A 
HETATM   14  C   UNL     1      18.384 -13.044   2.903  1.00  0.00     0.025 A 
HETATM   15 CL   UNL     1      16.786 -13.148   5.042  1.00  0.00    -0.084 Cl
HETATM   16  C   UNL     1      18.726 -12.553   1.650  1.00  0.00     0.022 A 
BRANCH  11  17
HETATM   17  N   UNL     1      16.083  -9.960   1.169  1.00  0.00    -0.115 N 
HETATM   18  O   UNL     1      16.573  -8.807   1.199  1.00  0.00    -0.532 OA
HETATM   19  O   UNL     1      15.019 -10.233   0.591  1.00  0.00    -0.532 OA
ENDBRANCH  11  17
ENDBRANCH   8  10
ENDBRANCH   7   8
ENDBRANCH   4   7
BRANCH   2  20
HETATM   20  O   UNL     1      17.085  -8.517  -1.783  1.00  0.00    -0.306 OA
BRANCH  20  21
HETATM   21  C   UNL     1      16.178  -8.135  -2.649  1.00  0.00     0.293 C 
HETATM   22  O   UNL     1      16.466  -7.716  -3.719  1.00  0.00    -0.259 OA
BRANCH  21  23
HETATM   23  C   UNL     1      14.775  -8.324  -2.161  1.00  0.00     0.039 A 
HETATM   24  C   UNL     1      14.221  -7.427  -1.245  1.00  0.00     0.018 A 
HETATM   25  C   UNL     1      12.921  -7.599  -0.816  1.00  0.00     0.007 A 
HETATM   26  C   UNL     1      12.155  -8.652  -1.272  1.00  0.00    -0.062 A 
HETATM   27  C   UNL     1      12.705  -9.517  -2.164  1.00  0.00     0.007 A 
HETATM   28  C   UNL     1      10.779  -8.860  -0.735  1.00  0.00     0.048 C 
HETATM   29  C   UNL     1      13.991  -9.373  -2.628  1.00  0.00     0.018 A 
ENDBRANCH  21  23
ENDBRANCH  20  21
ENDBRANCH   2  20
BRANCH   3  30
HETATM   30  O   UNL     1      21.531 -10.165  -1.180  1.00  0.00    -0.363 OA
HETATM   31  C   UNL     1      22.105 -10.961  -2.199  1.00  0.00     0.204 C 
ENDBRANCH   3  30
BRANCH   1  32
HETATM   32  O   UNL     1      18.326  -7.116  -0.090  1.00  0.00    -0.390 OA
ATOM     33  HO  UNL     1      19.061  -7.169   0.510  1.00  0.00     0.210 HD
ENDBRANCH   1  32
BRANCH   5  34
HETATM   34  C   UNL     1      20.695  -5.617  -0.582  1.00  0.00     0.198 C 
BRANCH  34  35
HETATM   35  O   UNL     1      20.874  -5.945   0.790  1.00  0.00    -0.398 OA
ATOM     36  HO  UNL     1      20.087  -6.301   1.185  1.00  0.00     0.209 HD
ENDBRANCH  34  35
ENDBRANCH   5  34
TORSDOF 11
ENDMDL
MODEL 5
REMARK VINA RESULT:    -6.628      2.139      5.933
REMARK INTER + INTRA:         -12.502
REMARK INTER:                 -10.274
REMARK INTRA:                  -2.228
REMARK UNBOUND:                -1.999
REMARK  11 active torsions:
REMARK  status: ('A' for Active; 'I' for Inactive)
REMARK    1  A    between atoms: C_2  and  O_16 
REMARK    2  A    between atoms: C_2  and  C_22 
REMARK    3  A    between atoms: O_3  and  C_5 
REMARK    4  A    between atoms: C_5  and  C_11 
REMARK    5  A    between atoms: C_7  and  O_17 
REMARK    6  A    between atoms: C_8  and  O_16 
REMARK    7  A    between atoms: C_9  and  O_13 
REMARK    8  A    between atoms: C_10  and  O_14 
REMARK    9  A    between atoms: O_14  and  C_15 
REMARK   10  A    between atoms: C_15  and  C_21 
REMARK   11  A    between atoms: C_29  and  N_32 
ROOT
HETATM    1  C   UNL     1      15.226 -10.604  -3.461  1.00  0.00     0.181 C 
HETATM    2  C   UNL     1      15.770  -9.421  -2.724  1.00  0.00     0.198 C 
HETATM    3  C   UNL     1      13.571  -9.247  -1.607  1.00  0.00     0.291 C 
HETATM    4  C   UNL     1      15.055  -9.101  -1.406  1.00  0.00     0.219 C 
HETATM    5  C   UNL     1      13.709 -10.582  -3.506  1.00  0.00     0.179 C 
HETATM    6  O   UNL     1      13.185 -10.510  -2.170  1.00  0.00    -0.348 OA
ENDROOT
BRANCH   4   7
HETATM    7  O   UNL     1      15.426 -10.072  -0.387  1.00  0.00    -0.304 OA
BRANCH   7   8
HETATM    8  C   UNL     1      16.214  -9.651   0.592  1.00  0.00     0.296 C 
HETATM    9  O   UNL     1      16.381  -8.466   0.850  1.00  0.00    -0.259 OA
BRANCH   8  10
HETATM   10  C   UNL     1      16.727 -10.765   1.451  1.00  0.00     0.072 A 
HETATM   11  C   UNL     1      17.823 -11.578   1.168  1.00  0.00     0.120 A 
HETATM   12  C   UNL     1      18.327 -12.490   2.061  1.00  0.00     0.060 A 
HETATM   13  C   UNL     1      17.680 -12.625   3.276  1.00  0.00     0.036 A 
HETATM   14  C   UNL     1      16.576 -11.871   3.603  1.00  0.00     0.025 A 
HETATM   15 CL   UNL     1      18.337 -13.715   4.401  1.00  0.00    -0.084 Cl
HETATM   16  C   UNL     1      16.105 -10.939   2.688  1.00  0.00     0.022 A 
BRANCH  11  17
HETATM   17  N   UNL     1      18.517 -11.434  -0.119  1.00  0.00    -0.115 N 
HETATM   18  O   UNL     1      19.478 -10.630  -0.142  1.00  0.00    -0.532 OA
HETATM   19  O   UNL     1      18.210 -12.155  -1.081  1.00  0.00    -0.532 OA
ENDBRANCH  11  17
ENDBRANCH   8  10
ENDBRANCH   7   8
ENDBRANCH   4   7
BRANCH   2  20
HETATM   20  O   UNL     1      17.168  -9.760  -2.537  1.00  0.00    -0.306 OA
BRANCH  20  21
HETATM   21  C   UNL     1      18.063  -9.074  -3.206  1.00  0.00     0.293 C 
HETATM   22  O   UNL     1      18.216  -9.207  -4.373  1.00  0.00    -0.259 OA
BRANCH  21  23
HETATM   23  C   UNL     1      18.820  -8.100  -2.357  1.00  0.00     0.039 A 
HETATM   24  C   UNL     1      18.138  -7.232  -1.502  1.00  0.00     0.018 A 
HETATM   25  C   UNL     1      18.845  -6.351  -0.710  1.00  0.00     0.007 A 
HETATM   26  C   UNL     1      20.224  -6.307  -0.751  1.00  0.00    -0.062 A 
HETATM   27  C   UNL     1      20.876  -7.157  -1.586  1.00  0.00     0.007 A 
HETATM   28  C   UNL     1      20.961  -5.294   0.057  1.00  0.00     0.048 C 
HETATM   29  C   UNL     1      20.210  -8.060  -2.381  1.00  0.00     0.018 A 
ENDBRANCH  21  23
ENDBRANCH  20  21
ENDBRANCH   2  20
BRANCH   3  30
HETATM   30  O   UNL     1      12.969  -9.111  -0.349  1.00  0.00    -0.363 OA
HETATM   31  C   UNL     1      12.609  -7.776  -0.050  1.00  0.00     0.204 C 
ENDBRANCH   3  30
BRANCH   1  32
HETATM   32  O   UNL     1      15.699 -11.793  -2.821  1.00  0.00    -0.390 OA
ATOM     33  HO  UNL     1      16.638 -11.716  -2.700  1.00  0.00     0.210 HD
ENDBRANCH   1  32
BRANCH   5  34
HETATM   34  C   UNL     1      13.166 -11.851  -4.117  1.00  0.00     0.198 C 
BRANCH  34  35
HETATM   35  O   UNL     1      13.113 -12.924  -3.185  1.00  0.00    -0.398 OA
ATOM     36  HO  UNL     1      12.232 -13.259  -3.066  1.00  0.00     0.209 HD
ENDBRANCH  34  35
ENDBRANCH   5  34
TORSDOF 11
ENDMDL
MODEL 6
REMARK VINA RESULT:    -6.627      1.713      2.341
REMARK INTER + INTRA:         -12.500
REMARK INTER:                 -10.673
REMARK INTRA:                  -1.827
REMARK UNBOUND:                -1.999
REMARK  11 active torsions:
REMARK  status: ('A' for Active; 'I' for Inactive)
REMARK    1  A    between atoms: C_2  and  O_16 
REMARK    2  A    between atoms: C_2  and  C_22 
REMARK    3  A    between atoms: O_3  and  C_5 
REMARK    4  A    between atoms: C_5  and  C_11 
REMARK    5  A    between atoms: C_7  and  O_17 
REMARK    6  A    between atoms: C_8  and  O_16 
REMARK    7  A    between atoms: C_9  and  O_13 
REMARK    8  A    between atoms: C_10  and  O_14 
REMARK    9  A    between atoms: O_14  and  C_15 
REMARK   10  A    between atoms: C_15  and  C_21 
REMARK   11  A    between atoms: C_29  and  N_32 
ROOT
HETATM    1  C   UNL     1      18.129  -7.132  -0.719  1.00  0.00     0.181 C 
HETATM    2  C   UNL     1      17.626  -8.272  -1.548  1.00  0.00     0.198 C 
HETATM    3  C   UNL     1      19.985  -8.952  -1.843  1.00  0.00     0.291 C 
HETATM    4  C   UNL     1      18.584  -9.465  -1.648  1.00  0.00     0.219 C 
HETATM    5  C   UNL     1      19.577  -6.808  -1.040  1.00  0.00     0.179 C 
HETATM    6  O   UNL     1      20.388  -7.982  -0.864  1.00  0.00    -0.348 OA
ENDROOT
BRANCH   4   7
HETATM    7  O   UNL     1      18.593 -10.207  -0.395  1.00  0.00    -0.304 OA
BRANCH   7   8
HETATM    8  C   UNL     1      18.103 -11.438  -0.418  1.00  0.00     0.296 C 
HETATM    9  O   UNL     1      17.930 -12.068  -1.453  1.00  0.00    -0.259 OA
BRANCH   8  10
HETATM   10  C   UNL     1      17.958 -12.036   0.948  1.00  0.00     0.072 A 
HETATM   11  C   UNL     1      18.922 -12.789   1.616  1.00  0.00     0.120 A 
HETATM   12  C   UNL     1      18.784 -13.191   2.921  1.00  0.00     0.060 A 
HETATM   13  C   UNL     1      17.609 -12.862   3.573  1.00  0.00     0.036 A 
HETATM   14  C   UNL     1      16.608 -12.145   2.958  1.00  0.00     0.025 A 
HETATM   15 CL   UNL     1      17.461 -13.313   5.204  1.00  0.00    -0.084 Cl
HETATM   16  C   UNL     1      16.790 -11.731   1.645  1.00  0.00     0.022 A 
BRANCH  11  17
HETATM   17  N   UNL     1      20.174 -13.137   0.930  1.00  0.00    -0.115 N 
HETATM   18  O   UNL     1      21.154 -12.391   1.158  1.00  0.00    -0.532 OA
HETATM   19  O   UNL     1      20.249 -14.171   0.249  1.00  0.00    -0.532 OA
ENDBRANCH  11  17
ENDBRANCH   8  10
ENDBRANCH   7   8
ENDBRANCH   4   7
BRANCH   2  20
HETATM   20  O   UNL     1      16.368  -8.613  -0.912  1.00  0.00    -0.306 OA
BRANCH  20  21
HETATM   21  C   UNL     1      15.335  -8.858  -1.682  1.00  0.00     0.293 C 
HETATM   22  O   UNL     1      14.960  -9.960  -1.903  1.00  0.00    -0.259 OA
BRANCH  21  23
HETATM   23  C   UNL     1      14.675  -7.619  -2.202  1.00  0.00     0.039 A 
HETATM   24  C   UNL     1      14.919  -7.185  -3.507  1.00  0.00     0.018 A 
HETATM   25  C   UNL     1      14.291  -6.051  -3.982  1.00  0.00     0.007 A 
HETATM   26  C   UNL     1      13.428  -5.329  -3.185  1.00  0.00    -0.062 A 
HETATM   27  C   UNL     1      13.198  -5.761  -1.917  1.00  0.00     0.007 A 
HETATM   28  C   UNL     1      12.822  -4.066  -3.696  1.00  0.00     0.048 C 
HETATM   29  C   UNL     1      13.791  -6.894  -1.410  1.00  0.00     0.018 A 
ENDBRANCH  21  23
ENDBRANCH  20  21
ENDBRANCH   2  20
BRANCH   3  30
HETATM   30  O   UNL     1      20.844 -10.056  -1.763  1.00  0.00    -0.363 OA
HETATM   31  C   UNL     1      22.043  -9.774  -1.067  1.00  0.00     0.204 C 
ENDBRANCH   3  30
BRANCH   1  32
HETATM   32  O   UNL     1      17.978  -7.474   0.662  1.00  0.00    -0.390 OA
ATOM     33  HO  UNL     1      18.777  -7.240   1.119  1.00  0.00     0.210 HD
ENDBRANCH   1  32
BRANCH   5  34
HETATM   34  C   UNL     1      20.120  -5.761  -0.098  1.00  0.00     0.198 C 
BRANCH  34  35
HETATM   35  O   UNL     1      21.413  -5.305  -0.478  1.00  0.00    -0.398 OA
ATOM     36  HO  UNL     1      22.109  -5.806  -0.072  1.00  0.00     0.209 HD
ENDBRANCH  34  35
ENDBRANCH   5  34
TORSDOF 11
ENDMDL
MODEL 7
REMARK VINA RESULT:    -6.363      1.987      2.503
REMARK INTER + INTRA:         -12.081
REMARK INTER:                 -10.270
REMARK INTRA:                  -1.811
REMARK UNBOUND:                -1.999
REMARK  11 active torsions:
REMARK  status: ('A' for Active; 'I' for Inactive)
REMARK    1  A    between atoms: C_2  and  O_16 
REMARK    2  A    between atoms: C_2  and  C_22 
REMARK    3  A    between atoms: O_3  and  C_5 
REMARK    4  A    between atoms: C_5  and  C_11 
REMARK    5  A    between atoms: C_7  and  O_17 
REMARK    6  A    between atoms: C_8  and  O_16 
REMARK    7  A    between atoms: C_9  and  O_13 
REMARK    8  A    between atoms: C_10  and  O_14 
REMARK    9  A    between atoms: O_14  and  C_15 
REMARK   10  A    between atoms: C_15  and  C_21 
REMARK   11  A    between atoms: C_29  and  N_32 
ROOT
HETATM    1  C   UNL     1      18.264  -7.242  -0.876  1.00  0.00     0.181 C 
HETATM    2  C   UNL     1      17.673  -8.523  -1.376  1.00  0.00     0.198 C 
HETATM    3  C   UNL     1      19.985  -9.348  -1.664  1.00  0.00     0.291 C 
HETATM    4  C   UNL     1      18.592  -9.744  -1.258  1.00  0.00     0.219 C 
HETATM    5  C   UNL     1      19.691  -7.061  -1.363  1.00  0.00     0.179 C 
HETATM    6  O   UNL     1      20.484  -8.194  -0.972  1.00  0.00    -0.348 OA
ENDROOT
BRANCH   4   7
HETATM    7  O   UNL     1      18.679 -10.173   0.130  1.00  0.00    -0.304 OA
BRANCH   7   8
HETATM    8  C   UNL     1      17.917 -11.194   0.497  1.00  0.00     0.296 C 
HETATM    9  O   UNL     1      16.891 -11.060   1.151  1.00  0.00    -0.259 OA
BRANCH   8  10
HETATM   10  C   UNL     1      18.339 -12.491  -0.122  1.00  0.00     0.072 A 
HETATM   11  C   UNL     1      19.404 -13.288   0.296  1.00  0.00     0.120 A 
HETATM   12  C   UNL     1      19.654 -14.533  -0.224  1.00  0.00     0.060 A 
HETATM   13  C   UNL     1      18.828 -14.984  -1.237  1.00  0.00     0.036 A 
HETATM   14  C   UNL     1      17.777 -14.233  -1.712  1.00  0.00     0.025 A 
HETATM   15 CL   UNL     1      19.105 -16.547  -1.842  1.00  0.00    -0.084 Cl
HETATM   16  C   UNL     1      17.535 -12.987  -1.148  1.00  0.00     0.022 A 
BRANCH  11  17
HETATM   17  N   UNL     1      20.282 -12.815   1.375  1.00  0.00    -0.115 N 
HETATM   18  O   UNL     1      19.831 -12.921   2.539  1.00  0.00    -0.532 OA
HETATM   19  O   UNL     1      21.435 -12.432   1.123  1.00  0.00    -0.532 OA
ENDBRANCH  11  17
ENDBRANCH   8  10
ENDBRANCH   7   8
ENDBRANCH   4   7
BRANCH   2  20
HETATM   20  O   UNL     1      16.459  -8.655  -0.593  1.00  0.00    -0.306 OA
BRANCH  20  21
HETATM   21  C   UNL     1      15.312  -8.439  -1.192  1.00  0.00     0.293 C 
HETATM   22  O   UNL     1      15.242  -8.196  -2.350  1.00  0.00    -0.259 OA
BRANCH  21  23
HETATM   23  C   UNL     1      14.132  -8.572  -0.280  1.00  0.00     0.039 A 
HETATM   24  C   UNL     1      14.303  -8.521   1.105  1.00  0.00     0.018 A 
HETATM   25  C   UNL     1      13.206  -8.627   1.936  1.00  0.00     0.007 A 
HETATM   26  C   UNL     1      11.936  -8.789   1.421  1.00  0.00    -0.062 A 
HETATM   27  C   UNL     1      11.783  -8.835   0.072  1.00  0.00     0.007 A 
HETATM   28  C   UNL     1      10.778  -8.976   2.341  1.00  0.00     0.048 C 
HETATM   29  C   UNL     1      12.847  -8.719  -0.791  1.00  0.00     0.018 A 
ENDBRANCH  21  23
ENDBRANCH  20  21
ENDBRANCH   2  20
BRANCH   3  30
HETATM   30  O   UNL     1      20.822 -10.437  -1.386  1.00  0.00    -0.363 OA
HETATM   31  C   UNL     1      20.931 -11.341  -2.469  1.00  0.00     0.204 C 
ENDBRANCH   3  30
BRANCH   1  32
HETATM   32  O   UNL     1      18.211  -7.247   0.554  1.00  0.00    -0.390 OA
ATOM     33  HO  UNL     1      17.749  -6.468   0.840  1.00  0.00     0.210 HD
ENDBRANCH   1  32
BRANCH   5  34
HETATM   34  C   UNL     1      20.328  -5.847  -0.733  1.00  0.00     0.198 C 
BRANCH  34  35
HETATM   35  O   UNL     1      20.927  -6.137   0.524  1.00  0.00    -0.398 OA
ATOM     36  HO  UNL     1      21.083  -7.066   0.646  1.00  0.00     0.209 HD
ENDBRANCH  34  35
ENDBRANCH   5  34
TORSDOF 11
ENDMDL
MODEL 8
REMARK VINA RESULT:    -6.346      5.524      8.864
REMARK INTER + INTRA:         -12.055
REMARK INTER:                  -8.928
REMARK INTRA:                  -3.127
REMARK UNBOUND:                -1.999
REMARK  11 active torsions:
REMARK  status: ('A' for Active; 'I' for Inactive)
REMARK    1  A    between atoms: C_2  and  O_16 
REMARK    2  A    between atoms: C_2  and  C_22 
REMARK    3  A    between atoms: O_3  and  C_5 
REMARK    4  A    between atoms: C_5  and  C_11 
REMARK    5  A    between atoms: C_7  and  O_17 
REMARK    6  A    between atoms: C_8  and  O_16 
REMARK    7  A    between atoms: C_9  and  O_13 
REMARK    8  A    between atoms: C_10  and  O_14 
REMARK    9  A    between atoms: O_14  and  C_15 
REMARK   10  A    between atoms: C_15  and  C_21 
REMARK   11  A    between atoms: C_29  and  N_32 
ROOT
HETATM    1  C   UNL     1      15.798  -8.594  -1.863  1.00  0.00     0.181 C 
HETATM    2  C   UNL     1      14.336  -8.896  -1.971  1.00  0.00     0.198 C 
HETATM    3  C   UNL     1      14.216  -8.641   0.485  1.00  0.00     0.291 C 
HETATM    4  C   UNL     1      13.486  -8.380  -0.804  1.00  0.00     0.219 C 
HETATM    5  C   UNL     1      16.324  -8.883  -0.469  1.00  0.00     0.179 C 
HETATM    6  O   UNL     1      15.562  -8.142   0.500  1.00  0.00    -0.348 OA
ENDROOT
BRANCH   4   7
HETATM    7  O   UNL     1      13.330  -6.936  -0.898  1.00  0.00    -0.304 OA
BRANCH   7   8
HETATM    8  C   UNL     1      12.099  -6.470  -1.056  1.00  0.00     0.296 C 
HETATM    9  O   UNL     1      11.195  -6.690  -0.259  1.00  0.00    -0.259 OA
BRANCH   8  10
HETATM   10  C   UNL     1      11.979  -5.507  -2.196  1.00  0.00     0.072 A 
HETATM   11  C   UNL     1      10.789  -5.005  -2.720  1.00  0.00     0.120 A 
HETATM   12  C   UNL     1      10.750  -4.019  -3.674  1.00  0.00     0.060 A 
HETATM   13  C   UNL     1      11.956  -3.544  -4.157  1.00  0.00     0.036 A 
HETATM   14  C   UNL     1      13.164  -4.020  -3.700  1.00  0.00     0.025 A 
HETATM   15 CL   UNL     1      11.907  -2.287  -5.298  1.00  0.00    -0.084 Cl
HETATM   16  C   UNL     1      13.170  -5.000  -2.716  1.00  0.00     0.022 A 
BRANCH  11  17
HETATM   17  N   UNL     1       9.505  -5.502  -2.207  1.00  0.00    -0.115 N 
HETATM   18  O   UNL     1       8.890  -4.740  -1.425  1.00  0.00    -0.532 OA
HETATM   19  O   UNL     1       9.038  -6.575  -2.621  1.00  0.00    -0.532 OA
ENDBRANCH  11  17
ENDBRANCH   8  10
ENDBRANCH   7   8
ENDBRANCH   4   7
BRANCH   2  20
HETATM   20  O   UNL     1      13.968  -8.299  -3.241  1.00  0.00    -0.306 OA
BRANCH  20  21
HETATM   21  C   UNL     1      13.028  -8.883  -3.947  1.00  0.00     0.293 C 
HETATM   22  O   UNL     1      12.752 -10.026  -3.805  1.00  0.00    -0.259 OA
BRANCH  21  23
HETATM   23  C   UNL     1      12.335  -7.954  -4.894  1.00  0.00     0.039 A 
HETATM   24  C   UNL     1      13.077  -7.114  -5.727  1.00  0.00     0.018 A 
HETATM   25  C   UNL     1      12.428  -6.274  -6.610  1.00  0.00     0.007 A 
HETATM   26  C   UNL     1      11.051  -6.244  -6.681  1.00  0.00    -0.062 A 
HETATM   27  C   UNL     1      10.340  -7.066  -5.866  1.00  0.00     0.007 A 
HETATM   28  C   UNL     1      10.373  -5.273  -7.588  1.00  0.00     0.048 C 
HETATM   29  C   UNL     1      10.947  -7.928  -4.983  1.00  0.00     0.018 A 
ENDBRANCH  21  23
ENDBRANCH  20  21
ENDBRANCH   2  20
BRANCH   3  30
HETATM   30  O   UNL     1      13.491  -8.012   1.506  1.00  0.00    -0.363 OA
HETATM   31  C   UNL     1      12.482  -8.836   2.055  1.00  0.00     0.204 C 
ENDBRANCH   3  30
BRANCH   1  32
HETATM   32  O   UNL     1      16.005  -7.222  -2.212  1.00  0.00    -0.390 OA
ATOM     33  HO  UNL     1      15.560  -7.050  -3.033  1.00  0.00     0.210 HD
ENDBRANCH   1  32
BRANCH   5  34
HETATM   34  C   UNL     1      17.758  -8.435  -0.327  1.00  0.00     0.198 C 
BRANCH  34  35
HETATM   35  O   UNL     1      17.950  -7.567   0.784  1.00  0.00    -0.398 OA
ATOM     36  HO  UNL     1      18.251  -8.028   1.557  1.00  0.00     0.209 HD
ENDBRANCH  34  35
ENDBRANCH   5  34
TORSDOF 11
ENDMDL
MODEL 9
REMARK VINA RESULT:    -6.288      1.933      2.389
REMARK INTER + INTRA:         -11.963
REMARK INTER:                 -10.192
REMARK INTRA:                  -1.771
REMARK UNBOUND:                -1.999
REMARK  11 active torsions:
REMARK  status: ('A' for Active; 'I' for Inactive)
REMARK    1  A    between atoms: C_2  and  O_16 
REMARK    2  A    between atoms: C_2  and  C_22 
REMARK    3  A    between atoms: O_3  and  C_5 
REMARK    4  A    between atoms: C_5  and  C_11 
REMARK    5  A    between atoms: C_7  and  O_17 
REMARK    6  A    between atoms: C_8  and  O_16 
REMARK    7  A    between atoms: C_9  and  O_13 
REMARK    8  A    between atoms: C_10  and  O_14 
REMARK    9  A    between atoms: O_14  and  C_15 
REMARK   10  A    between atoms: C_15  and  C_21 
REMARK   11  A    between atoms: C_29  and  N_32 
ROOT
HETATM    1  C   UNL     1      18.294  -7.233  -0.881  1.00  0.00     0.181 C 
HETATM    2  C   UNL     1      17.431  -8.387  -1.284  1.00  0.00     0.198 C 
HETATM    3  C   UNL     1      19.509  -9.686  -1.604  1.00  0.00     0.291 C 
HETATM    4  C   UNL     1      18.085  -9.765  -1.127  1.00  0.00     0.219 C 
HETATM    5  C   UNL     1      19.703  -7.375  -1.427  1.00  0.00     0.179 C 
HETATM    6  O   UNL     1      20.266  -8.627  -0.998  1.00  0.00    -0.348 OA
ENDROOT
BRANCH   4   7
HETATM    7  O   UNL     1      18.147 -10.132   0.281  1.00  0.00    -0.304 OA
BRANCH   7   8
HETATM    8  C   UNL     1      17.350 -11.111   0.686  1.00  0.00     0.296 C 
HETATM    9  O   UNL     1      16.128 -11.029   0.665  1.00  0.00    -0.259 OA
BRANCH   8  10
HETATM   10  C   UNL     1      18.088 -12.378   0.992  1.00  0.00     0.072 A 
HETATM   11  C   UNL     1      18.149 -13.506   0.176  1.00  0.00     0.120 A 
HETATM   12  C   UNL     1      18.955 -14.583   0.448  1.00  0.00     0.060 A 
HETATM   13  C   UNL     1      19.702 -14.547   1.612  1.00  0.00     0.036 A 
HETATM   14  C   UNL     1      19.664 -13.474   2.473  1.00  0.00     0.025 A 
HETATM   15 CL   UNL     1      20.741 -15.856   1.921  1.00  0.00    -0.084 Cl
HETATM   16  C   UNL     1      18.857 -12.389   2.156  1.00  0.00     0.022 A 
BRANCH  11  17
HETATM   17  N   UNL     1      17.361 -13.546  -1.063  1.00  0.00    -0.115 N 
HETATM   18  O   UNL     1      16.179 -13.947  -0.954  1.00  0.00    -0.532 OA
HETATM   19  O   UNL     1      17.837 -13.107  -2.123  1.00  0.00    -0.532 OA
ENDBRANCH  11  17
ENDBRANCH   8  10
ENDBRANCH   7   8
ENDBRANCH   4   7
BRANCH   2  20
HETATM   20  O   UNL     1      16.253  -8.226  -0.452  1.00  0.00    -0.306 OA
BRANCH  20  21
HETATM   21  C   UNL     1      15.097  -8.052  -1.048  1.00  0.00     0.293 C 
HETATM   22  O   UNL     1      15.017  -7.742  -2.189  1.00  0.00    -0.259 OA
BRANCH  21  23
HETATM   23  C   UNL     1      13.924  -8.323  -0.157  1.00  0.00     0.039 A 
HETATM   24  C   UNL     1      12.665  -8.572  -0.707  1.00  0.00     0.018 A 
HETATM   25  C   UNL     1      11.594  -8.839   0.121  1.00  0.00     0.007 A 
HETATM   26  C   UNL     1      11.744  -8.857   1.493  1.00  0.00    -0.062 A 
HETATM   27  C   UNL     1      12.974  -8.614   2.016  1.00  0.00     0.007 A 
HETATM   28  C   UNL     1      10.556  -9.072   2.368  1.00  0.00     0.048 C 
HETATM   29  C   UNL     1      14.069  -8.359   1.225  1.00  0.00     0.018 A 
ENDBRANCH  21  23
ENDBRANCH  20  21
ENDBRANCH   2  20
BRANCH   3  30
HETATM   30  O   UNL     1      20.118 -10.910  -1.291  1.00  0.00    -0.363 OA
HETATM   31  C   UNL     1      21.046 -11.332  -2.272  1.00  0.00     0.204 C 
ENDBRANCH   3  30
BRANCH   1  32
HETATM   32  O   UNL     1      18.307  -7.155   0.548  1.00  0.00    -0.390 OA
ATOM     33  HO  UNL     1      19.016  -6.579   0.811  1.00  0.00     0.210 HD
ENDBRANCH   1  32
BRANCH   5  34
HETATM   34  C   UNL     1      20.604  -6.289  -0.892  1.00  0.00     0.198 C 
BRANCH  34  35
HETATM   35  O   UNL     1      21.906  -6.332  -1.463  1.00  0.00    -0.398 OA
ATOM     36  HO  UNL     1      21.885  -6.368  -2.412  1.00  0.00     0.209 HD
ENDBRANCH  34  35
ENDBRANCH   5  34
TORSDOF 11
ENDMDL
MODEL 10
REMARK VINA RESULT:    -6.288      3.112      6.606
REMARK INTER + INTRA:         -11.962
REMARK INTER:                  -8.729
REMARK INTRA:                  -3.233
REMARK UNBOUND:                -1.999
REMARK  11 active torsions:
REMARK  status: ('A' for Active; 'I' for Inactive)
REMARK    1  A    between atoms: C_2  and  O_16 
REMARK    2  A    between atoms: C_2  and  C_22 
REMARK    3  A    between atoms: O_3  and  C_5 
REMARK    4  A    between atoms: C_5  and  C_11 
REMARK    5  A    between atoms: C_7  and  O_17 
REMARK    6  A    between atoms: C_8  and  O_16 
REMARK    7  A    between atoms: C_9  and  O_13 
REMARK    8  A    between atoms: C_10  and  O_14 
REMARK    9  A    between atoms: O_14  and  C_15 
REMARK   10  A    between atoms: C_15  and  C_21 
REMARK   11  A    between atoms: C_29  and  N_32 
ROOT
HETATM    1  C   UNL     1      17.151 -11.085  -1.424  1.00  0.00     0.181 C 
HETATM    2  C   UNL     1      17.913 -10.984  -0.140  1.00  0.00     0.198 C 
HETATM    3  C   UNL     1      16.056  -9.598   0.723  1.00  0.00     0.291 C 
HETATM    4  C   UNL     1      17.057 -10.658   1.090  1.00  0.00     0.219 C 
HETATM    5  C   UNL     1      16.161  -9.944  -1.575  1.00  0.00     0.179 C 
HETATM    6  O   UNL     1      15.278  -9.915  -0.441  1.00  0.00    -0.348 OA
ENDROOT
BRANCH   4   7
HETATM    7  O   UNL     1      16.286 -11.828   1.487  1.00  0.00    -0.304 OA
BRANCH   7   8
HETATM    8  C   UNL     1      16.545 -12.348   2.678  1.00  0.00     0.296 C 
HETATM    9  O   UNL     1      16.431 -11.717   3.721  1.00  0.00    -0.259 OA
BRANCH   8  10
HETATM   10  C   UNL     1      16.811 -13.821   2.628  1.00  0.00     0.072 A 
HETATM   11  C   UNL     1      17.286 -14.603   3.680  1.00  0.00     0.120 A 
HETATM   12  C   UNL     1      17.376 -15.970   3.614  1.00  0.00     0.060 A 
HETATM   13  C   UNL     1      17.015 -16.581   2.426  1.00  0.00     0.036 A 
HETATM   14  C   UNL     1      16.565 -15.862   1.342  1.00  0.00     0.025 A 
HETATM   15 CL   UNL     1      17.076 -18.277   2.363  1.00  0.00    -0.084 Cl
HETATM   16  C   UNL     1      16.461 -14.481   1.450  1.00  0.00     0.022 A 
BRANCH  11  17
HETATM   17  N   UNL     1      17.665 -13.959   4.945  1.00  0.00    -0.115 N 
HETATM   18  O   UNL     1      16.788 -13.939   5.840  1.00  0.00    -0.532 OA
HETATM   19  O   UNL     1      18.826 -13.557   5.121  1.00  0.00    -0.532 OA
ENDBRANCH  11  17
ENDBRANCH   8  10
ENDBRANCH   7   8
ENDBRANCH   4   7
BRANCH   2  20
HETATM   20  O   UNL     1      18.571 -12.273  -0.043  1.00  0.00    -0.306 OA
BRANCH  20  21
HETATM   21  C   UNL     1      19.793 -12.307   0.431  1.00  0.00     0.293 C 
HETATM   22  O   UNL     1      20.514 -11.368   0.384  1.00  0.00    -0.259 OA
BRANCH  21  23
HETATM   23  C   UNL     1      20.149 -13.618   1.060  1.00  0.00     0.039 A 
HETATM   24  C   UNL     1      19.949 -14.812   0.363  1.00  0.00     0.018 A 
HETATM   25  C   UNL     1      20.297 -16.014   0.945  1.00  0.00     0.007 A 
HETATM   26  C   UNL     1      20.836 -16.060   2.214  1.00  0.00    -0.062 A 
HETATM   27  C   UNL     1      21.027 -14.892   2.882  1.00  0.00     0.007 A 
HETATM   28  C   UNL     1      21.133 -17.376   2.850  1.00  0.00     0.048 C 
HETATM   29  C   UNL     1      20.707 -13.673   2.333  1.00  0.00     0.018 A 
ENDBRANCH  21  23
ENDBRANCH  20  21
ENDBRANCH   2  20
BRANCH   3  30
HETATM   30  O   UNL     1      15.191  -9.450   1.816  1.00  0.00    -0.363 OA
HETATM   31  C   UNL     1      13.923  -8.939   1.452  1.00  0.00     0.204 C 
ENDBRANCH   3  30
BRANCH   1  32
HETATM   32  O   UNL     1      16.480 -12.348  -1.455  1.00  0.00    -0.390 OA
ATOM     33  HO  UNL     1      15.818 -12.320  -2.135  1.00  0.00     0.210 HD
ENDBRANCH   1  32
BRANCH   5  34
HETATM   34  C   UNL     1      15.295 -10.135  -2.796  1.00  0.00     0.198 C 
BRANCH  34  35
HETATM   35  O   UNL     1      14.166 -10.961  -2.537  1.00  0.00    -0.398 OA
ATOM     36  HO  UNL     1      13.434 -10.765  -3.109  1.00  0.00     0.209 HD
ENDBRANCH  34  35
ENDBRANCH   5  34
TORSDOF 11
ENDMDL
MODEL 11
REMARK VINA RESULT:    -6.264      7.236     10.507
REMARK INTER + INTRA:         -11.924
REMARK INTER:                  -8.450
REMARK INTRA:                  -3.474
REMARK UNBOUND:                -1.999
REMARK  11 active torsions:
REMARK  status: ('A' for Active; 'I' for Inactive)
REMARK    1  A    between atoms: C_2  and  O_16 
REMARK    2  A    between atoms: C_2  and  C_22 
REMARK    3  A    between atoms: O_3  and  C_5 
REMARK    4  A    between atoms: C_5  and  C_11 
REMARK    5  A    between atoms: C_7  and  O_17 
REMARK    6  A    between atoms: C_8  and  O_16 
REMARK    7  A    between atoms: C_9  and  O_13 
REMARK    8  A    between atoms: C_10  and  O_14 
REMARK    9  A    between atoms: O_14  and  C_15 
REMARK   10  A    between atoms: C_15  and  C_21 
REMARK   11  A    between atoms: C_29  and  N_32 
ROOT
HETATM    1  C   UNL     1       8.130  -4.862  -2.226  1.00  0.00     0.181 C 
HETATM    2  C   UNL     1       8.990  -5.508  -3.267  1.00  0.00     0.198 C 
HETATM    3  C   UNL     1       8.321  -3.681  -4.793  1.00  0.00     0.291 C 
HETATM    4  C   UNL     1       9.464  -4.569  -4.382  1.00  0.00     0.219 C 
HETATM    5  C   UNL     1       7.072  -3.971  -2.852  1.00  0.00     0.179 C 
HETATM    6  O   UNL     1       7.700  -2.992  -3.697  1.00  0.00    -0.348 OA
ENDROOT
BRANCH   4   7
HETATM    7  O   UNL     1      10.507  -3.684  -3.881  1.00  0.00    -0.304 OA
BRANCH   7   8
HETATM    8  C   UNL     1      11.645  -3.645  -4.561  1.00  0.00     0.296 C 
HETATM    9  O   UNL     1      11.941  -2.726  -5.313  1.00  0.00    -0.259 OA
BRANCH   8  10
HETATM   10  C   UNL     1      12.595  -4.737  -4.175  1.00  0.00     0.072 A 
HETATM   11  C   UNL     1      12.956  -5.824  -4.969  1.00  0.00     0.120 A 
HETATM   12  C   UNL     1      13.937  -6.715  -4.613  1.00  0.00     0.060 A 
HETATM   13  C   UNL     1      14.555  -6.535  -3.389  1.00  0.00     0.036 A 
HETATM   14  C   UNL     1      14.223  -5.497  -2.548  1.00  0.00     0.025 A 
HETATM   15 CL   UNL     1      15.806  -7.606  -2.973  1.00  0.00    -0.084 Cl
HETATM   16  C   UNL     1      13.243  -4.598  -2.948  1.00  0.00     0.022 A 
BRANCH  11  17
HETATM   17  N   UNL     1      12.307  -6.016  -6.272  1.00  0.00    -0.115 N 
HETATM   18  O   UNL     1      11.299  -6.761  -6.283  1.00  0.00    -0.532 OA
HETATM   19  O   UNL     1      12.697  -5.385  -7.267  1.00  0.00    -0.532 OA
ENDBRANCH  11  17
ENDBRANCH   8  10
ENDBRANCH   7   8
ENDBRANCH   4   7
BRANCH   2  20
HETATM   20  O   UNL     1      10.085  -6.063  -2.494  1.00  0.00    -0.306 OA
BRANCH  20  21
HETATM   21  C   UNL     1      10.322  -7.349  -2.597  1.00  0.00     0.293 C 
HETATM   22  O   UNL     1       9.702  -8.048  -3.325  1.00  0.00    -0.259 OA
BRANCH  21  23
HETATM   23  C   UNL     1      11.462  -7.811  -1.744  1.00  0.00     0.039 A 
HETATM   24  C   UNL     1      11.777  -7.136  -0.563  1.00  0.00     0.018 A 
HETATM   25  C   UNL     1      12.818  -7.582   0.226  1.00  0.00     0.007 A 
HETATM   26  C   UNL     1      13.563  -8.685  -0.135  1.00  0.00    -0.062 A 
HETATM   27  C   UNL     1      13.246  -9.334  -1.286  1.00  0.00     0.007 A 
HETATM   28  C   UNL     1      14.730  -9.101   0.694  1.00  0.00     0.048 C 
HETATM   29  C   UNL     1      12.208  -8.932  -2.093  1.00  0.00     0.018 A 
ENDBRANCH  21  23
ENDBRANCH  20  21
ENDBRANCH   2  20
BRANCH   3  30
HETATM   30  O   UNL     1       8.836  -2.733  -5.687  1.00  0.00    -0.363 OA
HETATM   31  C   UNL     1       8.800  -3.167  -7.033  1.00  0.00     0.204 C 
ENDBRANCH   3  30
BRANCH   1  32
HETATM   32  O   UNL     1       8.972  -4.110  -1.346  1.00  0.00    -0.390 OA
ATOM     33  HO  UNL     1       9.487  -3.505  -1.867  1.00  0.00     0.210 HD
ENDBRANCH   1  32
BRANCH   5  34
HETATM   34  C   UNL     1       6.311  -3.209  -1.796  1.00  0.00     0.198 C 
BRANCH  34  35
HETATM   35  O   UNL     1       6.365  -3.841  -0.523  1.00  0.00    -0.398 OA
ATOM     36  HO  UNL     1       5.507  -3.935  -0.127  1.00  0.00     0.209 HD
ENDBRANCH  34  35
ENDBRANCH   5  34
TORSDOF 11
ENDMDL
MODEL 12
REMARK VINA RESULT:    -6.245      7.402     10.543
REMARK INTER + INTRA:         -11.894
REMARK INTER:                  -8.698
REMARK INTRA:                  -3.196
REMARK UNBOUND:                -1.999
REMARK  11 active torsions:
REMARK  status: ('A' for Active; 'I' for Inactive)
REMARK    1  A    between atoms: C_2  and  O_16 
REMARK    2  A    between atoms: C_2  and  C_22 
REMARK    3  A    between atoms: O_3  and  C_5 
REMARK    4  A    between atoms: C_5  and  C_11 
REMARK    5  A    between atoms: C_7  and  O_17 
REMARK    6  A    between atoms: C_8  and  O_16 
REMARK    7  A    between atoms: C_9  and  O_13 
REMARK    8  A    between atoms: C_10  and  O_14 
REMARK    9  A    between atoms: O_14  and  C_15 
REMARK   10  A    between atoms: C_15  and  C_21 
REMARK   11  A    between atoms: C_29  and  N_32 
ROOT
HETATM    1  C   UNL     1       7.695 -10.970  -0.535  1.00  0.00     0.181 C 
HETATM    2  C   UNL     1       8.120  -9.594  -0.940  1.00  0.00     0.198 C 
HETATM    3  C   UNL     1       9.750  -9.671   0.917  1.00  0.00     0.291 C 
HETATM    4  C   UNL     1       9.533  -9.201  -0.495  1.00  0.00     0.219 C 
HETATM    5  C   UNL     1       8.049 -11.258   0.913  1.00  0.00     0.179 C 
HETATM    6  O   UNL     1       9.459 -11.063   1.115  1.00  0.00    -0.348 OA
ENDROOT
BRANCH   4   7
HETATM    7  O   UNL     1      10.525  -9.890  -1.310  1.00  0.00    -0.304 OA
BRANCH   7   8
HETATM    8  C   UNL     1      11.527  -9.164  -1.786  1.00  0.00     0.296 C 
HETATM    9  O   UNL     1      12.699  -9.383  -1.508  1.00  0.00    -0.259 OA
BRANCH   8  10
HETATM   10  C   UNL     1      11.094  -8.179  -2.827  1.00  0.00     0.072 A 
HETATM   11  C   UNL     1      11.212  -6.793  -2.741  1.00  0.00     0.120 A 
HETATM   12  C   UNL     1      10.925  -5.952  -3.787  1.00  0.00     0.060 A 
HETATM   13  C   UNL     1      10.457  -6.521  -4.958  1.00  0.00     0.036 A 
HETATM   14  C   UNL     1      10.293  -7.880  -5.096  1.00  0.00     0.025 A 
HETATM   15 CL   UNL     1      10.153  -5.485  -6.270  1.00  0.00    -0.084 Cl
HETATM   16  C   UNL     1      10.616  -8.706  -4.027  1.00  0.00     0.022 A 
BRANCH  11  17
HETATM   17  N   UNL     1      11.713  -6.185  -1.501  1.00  0.00    -0.115 N 
HETATM   18  O   UNL     1      10.876  -6.037  -0.581  1.00  0.00    -0.532 OA
HETATM   19  O   UNL     1      12.921  -5.936  -1.369  1.00  0.00    -0.532 OA
ENDBRANCH  11  17
ENDBRANCH   8  10
ENDBRANCH   7   8
ENDBRANCH   4   7
BRANCH   2  20
HETATM   20  O   UNL     1       7.969  -9.612  -2.383  1.00  0.00    -0.306 OA
BRANCH  20  21
HETATM   21  C   UNL     1       6.883  -9.087  -2.896  1.00  0.00     0.293 C 
HETATM   22  O   UNL     1       5.890  -9.715  -3.048  1.00  0.00    -0.259 OA
BRANCH  21  23
HETATM   23  C   UNL     1       7.024  -7.632  -3.220  1.00  0.00     0.039 A 
HETATM   24  C   UNL     1       6.709  -7.160  -4.496  1.00  0.00     0.018 A 
HETATM   25  C   UNL     1       6.824  -5.814  -4.779  1.00  0.00     0.007 A 
HETATM   26  C   UNL     1       7.255  -4.920  -3.820  1.00  0.00    -0.062 A 
HETATM   27  C   UNL     1       7.558  -5.391  -2.582  1.00  0.00     0.007 A 
HETATM   28  C   UNL     1       7.445  -3.484  -4.173  1.00  0.00     0.048 C 
HETATM   29  C   UNL     1       7.442  -6.721  -2.255  1.00  0.00     0.018 A 
ENDBRANCH  21  23
ENDBRANCH  20  21
ENDBRANCH   2  20
BRANCH   3  30
HETATM   30  O   UNL     1      11.097  -9.443   1.227  1.00  0.00    -0.363 OA
HETATM   31  C   UNL     1      11.275  -8.752   2.448  1.00  0.00     0.204 C 
ENDBRANCH   3  30
BRANCH   1  32
HETATM   32  O   UNL     1       8.321 -11.914  -1.409  1.00  0.00    -0.390 OA
ATOM     33  HO  UNL     1       7.670 -12.232  -2.024  1.00  0.00     0.210 HD
ENDBRANCH   1  32
BRANCH   5  34
HETATM   34  C   UNL     1       7.755 -12.695   1.268  1.00  0.00     0.198 C 
BRANCH  34  35
HETATM   35  O   UNL     1       8.896 -13.533   1.132  1.00  0.00    -0.398 OA
ATOM     36  HO  UNL     1       9.461 -13.263   0.418  1.00  0.00     0.209 HD
ENDBRANCH  34  35
ENDBRANCH   5  34
TORSDOF 11
ENDMDL
MODEL 13
REMARK VINA RESULT:    -6.120      2.637      5.092
REMARK INTER + INTRA:         -11.697
REMARK INTER:                  -9.647
REMARK INTRA:                  -2.050
REMARK UNBOUND:                -1.999
REMARK  11 active torsions:
REMARK  status: ('A' for Active; 'I' for Inactive)
REMARK    1  A    between atoms: C_2  and  O_16 
REMARK    2  A    between atoms: C_2  and  C_22 
REMARK    3  A    between atoms: O_3  and  C_5 
REMARK    4  A    between atoms: C_5  and  C_11 
REMARK    5  A    between atoms: C_7  and  O_17 
REMARK    6  A    between atoms: C_8  and  O_16 
REMARK    7  A    between atoms: C_9  and  O_13 
REMARK    8  A    between atoms: C_10  and  O_14 
REMARK    9  A    between atoms: O_14  and  C_15 
REMARK   10  A    between atoms: C_15  and  C_21 
REMARK   11  A    between atoms: C_29  and  N_32 
ROOT
HETATM    1  C   UNL     1      23.783 -10.261  -0.001  1.00  0.00     0.181 C 
HETATM    2  C   UNL     1      22.642 -10.501  -0.939  1.00  0.00     0.198 C 
HETATM    3  C   UNL     1      22.883 -12.910  -0.439  1.00  0.00     0.291 C 
HETATM    4  C   UNL     1      21.888 -11.815  -0.710  1.00  0.00     0.219 C 
HETATM    5  C   UNL     1      24.635 -11.506   0.168  1.00  0.00     0.179 C 
HETATM    6  O   UNL     1      23.814 -12.600   0.609  1.00  0.00    -0.348 OA
ENDROOT
BRANCH   4   7
HETATM    7  O   UNL     1      21.058 -11.716   0.483  1.00  0.00    -0.304 OA
BRANCH   7   8
HETATM    8  C   UNL     1      19.785 -12.066   0.365  1.00  0.00     0.296 C 
HETATM    9  O   UNL     1      19.242 -12.252  -0.717  1.00  0.00    -0.259 OA
BRANCH   8  10
HETATM   10  C   UNL     1      19.142 -12.384   1.679  1.00  0.00     0.072 A 
HETATM   11  C   UNL     1      17.896 -11.931   2.110  1.00  0.00     0.120 A 
HETATM   12  C   UNL     1      17.300 -12.371   3.266  1.00  0.00     0.060 A 
HETATM   13  C   UNL     1      18.001 -13.272   4.047  1.00  0.00     0.036 A 
HETATM   14  C   UNL     1      19.246 -13.735   3.689  1.00  0.00     0.025 A 
HETATM   15 CL   UNL     1      17.240 -13.856   5.449  1.00  0.00    -0.084 Cl
HETATM   16  C   UNL     1      19.811 -13.290   2.501  1.00  0.00     0.022 A 
BRANCH  11  17
HETATM   17  N   UNL     1      17.145 -10.979   1.281  1.00  0.00    -0.115 N 
HETATM   18  O   UNL     1      17.618  -9.821   1.205  1.00  0.00    -0.532 OA
HETATM   19  O   UNL     1      16.160 -11.356   0.627  1.00  0.00    -0.532 OA
ENDBRANCH  11  17
ENDBRANCH   8  10
ENDBRANCH   7   8
ENDBRANCH   4   7
BRANCH   2  20
HETATM   20  O   UNL     1      21.805  -9.331  -0.748  1.00  0.00    -0.306 OA
BRANCH  20  21
HETATM   21  C   UNL     1      21.438  -8.656  -1.811  1.00  0.00     0.293 C 
HETATM   22  O   UNL     1      22.200  -8.380  -2.676  1.00  0.00    -0.259 OA
BRANCH  21  23
HETATM   23  C   UNL     1      19.980  -8.319  -1.825  1.00  0.00     0.039 A 
HETATM   24  C   UNL     1      19.075  -9.135  -2.508  1.00  0.00     0.018 A 
HETATM   25  C   UNL     1      17.730  -8.825  -2.501  1.00  0.00     0.007 A 
HETATM   26  C   UNL     1      17.259  -7.715  -1.831  1.00  0.00    -0.062 A 
HETATM   27  C   UNL     1      18.149  -6.929  -1.170  1.00  0.00     0.007 A 
HETATM   28  C   UNL     1      15.813  -7.360  -1.902  1.00  0.00     0.048 C 
HETATM   29  C   UNL     1      19.495  -7.210  -1.141  1.00  0.00     0.018 A 
ENDBRANCH  21  23
ENDBRANCH  20  21
ENDBRANCH   2  20
BRANCH   3  30
HETATM   30  O   UNL     1      22.155 -14.050  -0.073  1.00  0.00    -0.363 OA
HETATM   31  C   UNL     1      22.804 -14.826   0.916  1.00  0.00     0.204 C 
ENDBRANCH   3  30
BRANCH   1  32
HETATM   32  O   UNL     1      23.253  -9.832   1.257  1.00  0.00    -0.390 OA
ATOM     33  HO  UNL     1      22.335 -10.073   1.294  1.00  0.00     0.210 HD
ENDBRANCH   1  32
BRANCH   5  34
HETATM   34  C   UNL     1      25.690 -11.301   1.228  1.00  0.00     0.198 C 
BRANCH  34  35
HETATM   35  O   UNL     1      25.176 -11.458   2.545  1.00  0.00    -0.398 OA
ATOM     36  HO  UNL     1      25.791 -11.889   3.126  1.00  0.00     0.209 HD
ENDBRANCH  34  35
ENDBRANCH   5  34
TORSDOF 11
ENDMDL
MODEL 14
REMARK VINA RESULT:    -6.115      2.340      3.498
REMARK INTER + INTRA:         -11.689
REMARK INTER:                  -9.831
REMARK INTRA:                  -1.858
REMARK UNBOUND:                -1.999
REMARK  11 active torsions:
REMARK  status: ('A' for Active; 'I' for Inactive)
REMARK    1  A    between atoms: C_2  and  O_16 
REMARK    2  A    between atoms: C_2  and  C_22 
REMARK    3  A    between atoms: O_3  and  C_5 
REMARK    4  A    between atoms: C_5  and  C_11 
REMARK    5  A    between atoms: C_7  and  O_17 
REMARK    6  A    between atoms: C_8  and  O_16 
REMARK    7  A    between atoms: C_9  and  O_13 
REMARK    8  A    between atoms: C_10  and  O_14 
REMARK    9  A    between atoms: O_14  and  C_15 
REMARK   10  A    between atoms: C_15  and  C_21 
REMARK   11  A    between atoms: C_29  and  N_32 
ROOT
HETATM    1  C   UNL     1      18.367  -7.221  -0.904  1.00  0.00     0.181 C 
HETATM    2  C   UNL     1      18.180  -8.426  -1.772  1.00  0.00     0.198 C 
HETATM    3  C   UNL     1      20.644  -8.578  -1.899  1.00  0.00     0.291 C 
HETATM    4  C   UNL     1      19.377  -9.383  -1.809  1.00  0.00     0.219 C 
HETATM    5  C   UNL     1      19.730  -6.588  -1.117  1.00  0.00     0.179 C 
HETATM    6  O   UNL     1      20.760  -7.565  -0.889  1.00  0.00    -0.348 OA
ENDROOT
BRANCH   4   7
HETATM    7  O   UNL     1      19.458 -10.132  -0.562  1.00  0.00    -0.304 OA
BRANCH   7   8
HETATM    8  C   UNL     1      19.221 -11.434  -0.622  1.00  0.00     0.296 C 
HETATM    9  O   UNL     1      19.044 -12.032  -1.676  1.00  0.00    -0.259 OA
BRANCH   8  10
HETATM   10  C   UNL     1      19.373 -12.118   0.701  1.00  0.00     0.072 A 
HETATM   11  C   UNL     1      18.427 -12.137   1.726  1.00  0.00     0.120 A 
HETATM   12  C   UNL     1      18.568 -12.897   2.859  1.00  0.00     0.060 A 
HETATM   13  C   UNL     1      19.727 -13.640   2.993  1.00  0.00     0.036 A 
HETATM   14  C   UNL     1      20.710 -13.642   2.030  1.00  0.00     0.025 A 
HETATM   15 CL   UNL     1      19.876 -14.623   4.371  1.00  0.00    -0.084 Cl
HETATM   16  C   UNL     1      20.526 -12.882   0.883  1.00  0.00     0.022 A 
BRANCH  11  17
HETATM   17  N   UNL     1      17.193 -11.353   1.585  1.00  0.00    -0.115 N 
HETATM   18  O   UNL     1      17.260 -10.150   1.927  1.00  0.00    -0.532 OA
HETATM   19  O   UNL     1      16.187 -11.857   1.060  1.00  0.00    -0.532 OA
ENDBRANCH  11  17
ENDBRANCH   8  10
ENDBRANCH   7   8
ENDBRANCH   4   7
BRANCH   2  20
HETATM   20  O   UNL     1      16.983  -9.042  -1.230  1.00  0.00    -0.306 OA
BRANCH  20  21
HETATM   21  C   UNL     1      15.828  -8.476  -1.489  1.00  0.00     0.293 C 
HETATM   22  O   UNL     1      15.144  -8.023  -0.634  1.00  0.00    -0.259 OA
BRANCH  21  23
HETATM   23  C   UNL     1      15.503  -8.432  -2.949  1.00  0.00     0.039 A 
HETATM   24  C   UNL     1      15.297  -7.207  -3.588  1.00  0.00     0.018 A 
HETATM   25  C   UNL     1      15.016  -7.176  -4.939  1.00  0.00     0.007 A 
HETATM   26  C   UNL     1      14.927  -8.340  -5.674  1.00  0.00    -0.062 A 
HETATM   27  C   UNL     1      15.130  -9.525  -5.041  1.00  0.00     0.007 A 
HETATM   28  C   UNL     1      14.547  -8.284  -7.115  1.00  0.00     0.048 C 
HETATM   29  C   UNL     1      15.427  -9.599  -3.701  1.00  0.00     0.018 A 
ENDBRANCH  21  23
ENDBRANCH  20  21
ENDBRANCH   2  20
BRANCH   3  30
HETATM   30  O   UNL     1      21.713  -9.474  -1.763  1.00  0.00    -0.363 OA
HETATM   31  C   UNL     1      22.739  -9.258  -2.712  1.00  0.00     0.204 C 
ENDBRANCH   3  30
BRANCH   1  32
HETATM   32  O   UNL     1      18.198  -7.616   0.461  1.00  0.00    -0.390 OA
ATOM     33  HO  UNL     1      17.557  -8.316   0.494  1.00  0.00     0.210 HD
ENDBRANCH   1  32
BRANCH   5  34
HETATM   34  C   UNL     1      19.968  -5.469  -0.133  1.00  0.00     0.198 C 
BRANCH  34  35
HETATM   35  O   UNL     1      21.351  -5.189   0.048  1.00  0.00    -0.398 OA
ATOM     36  HO  UNL     1      21.804  -5.048  -0.775  1.00  0.00     0.209 HD
ENDBRANCH  34  35
ENDBRANCH   5  34
TORSDOF 11
ENDMDL
MODEL 15
REMARK VINA RESULT:    -6.092      7.515     11.445
REMARK INTER + INTRA:         -11.652
REMARK INTER:                  -8.882
REMARK INTRA:                  -2.770
REMARK UNBOUND:                -1.999
REMARK  11 active torsions:
REMARK  status: ('A' for Active; 'I' for Inactive)
REMARK    1  A    between atoms: C_2  and  O_16 
REMARK    2  A    between atoms: C_2  and  C_22 
REMARK    3  A    between atoms: O_3  and  C_5 
REMARK    4  A    between atoms: C_5  and  C_11 
REMARK    5  A    between atoms: C_7  and  O_17 
REMARK    6  A    between atoms: C_8  and  O_16 
REMARK    7  A    between atoms: C_9  and  O_13 
REMARK    8  A    between atoms: C_10  and  O_14 
REMARK    9  A    between atoms: O_14  and  C_15 
REMARK   10  A    between atoms: C_15  and  C_21 
REMARK   11  A    between atoms: C_29  and  N_32 
ROOT
HETATM    1  C   UNL     1      12.361  -6.933  -1.729  1.00  0.00     0.181 C 
HETATM    2  C   UNL     1      11.413  -7.223  -2.850  1.00  0.00     0.198 C 
HETATM    3  C   UNL     1      10.302  -8.838  -1.343  1.00  0.00     0.291 C 
HETATM    4  C   UNL     1      10.065  -7.810  -2.415  1.00  0.00     0.219 C 
HETATM    5  C   UNL     1      12.414  -8.078  -0.735  1.00  0.00     0.179 C 
HETATM    6  O   UNL     1      11.092  -8.357  -0.245  1.00  0.00    -0.348 OA
ENDROOT
BRANCH   4   7
HETATM    7  O   UNL     1       9.239  -6.774  -1.811  1.00  0.00    -0.304 OA
BRANCH   7   8
HETATM    8  C   UNL     1       8.000  -6.646  -2.265  1.00  0.00     0.296 C 
HETATM    9  O   UNL     1       7.075  -7.351  -1.883  1.00  0.00    -0.259 OA
BRANCH   8  10
HETATM   10  C   UNL     1       7.819  -5.446  -3.142  1.00  0.00     0.072 A 
HETATM   11  C   UNL     1       7.677  -4.129  -2.706  1.00  0.00     0.120 A 
HETATM   12  C   UNL     1       7.654  -3.057  -3.562  1.00  0.00     0.060 A 
HETATM   13  C   UNL     1       7.735  -3.317  -4.918  1.00  0.00     0.036 A 
HETATM   14  C   UNL     1       7.848  -4.596  -5.412  1.00  0.00     0.025 A 
HETATM   15 CL   UNL     1       7.761  -1.986  -5.974  1.00  0.00    -0.084 Cl
HETATM   16  C   UNL     1       7.894  -5.658  -4.518  1.00  0.00     0.022 A 
BRANCH  11  17
HETATM   17  N   UNL     1       7.596  -3.848  -1.266  1.00  0.00    -0.115 N 
HETATM   18  O   UNL     1       6.444  -3.808  -0.775  1.00  0.00    -0.532 OA
HETATM   19  O   UNL     1       8.630  -3.759  -0.586  1.00  0.00    -0.532 OA
ENDBRANCH  11  17
ENDBRANCH   8  10
ENDBRANCH   7   8
ENDBRANCH   4   7
BRANCH   2  20
HETATM   20  O   UNL     1      11.280  -5.940  -3.513  1.00  0.00    -0.306 OA
BRANCH  20  21
HETATM   21  C   UNL     1      11.785  -5.813  -4.717  1.00  0.00     0.293 C 
HETATM   22  O   UNL     1      12.317  -6.713  -5.275  1.00  0.00    -0.259 OA
BRANCH  21  23
HETATM   23  C   UNL     1      11.578  -4.453  -5.307  1.00  0.00     0.039 A 
HETATM   24  C   UNL     1      11.727  -3.312  -4.515  1.00  0.00     0.018 A 
HETATM   25  C   UNL     1      11.552  -2.061  -5.072  1.00  0.00     0.007 A 
HETATM   26  C   UNL     1      11.225  -1.916  -6.405  1.00  0.00    -0.062 A 
HETATM   27  C   UNL     1      11.084  -3.033  -7.165  1.00  0.00     0.007 A 
HETATM   28  C   UNL     1      10.967  -0.558  -6.964  1.00  0.00     0.048 C 
HETATM   29  C   UNL     1      11.264  -4.296  -6.652  1.00  0.00     0.018 A 
ENDBRANCH  21  23
ENDBRANCH  20  21
ENDBRANCH   2  20
BRANCH   3  30
HETATM   30  O   UNL     1       9.046  -9.226  -0.858  1.00  0.00    -0.363 OA
HETATM   31  C   UNL     1       9.108  -9.821   0.424  1.00  0.00     0.204 C 
ENDBRANCH   3  30
BRANCH   1  32
HETATM   32  O   UNL     1      11.948  -5.722  -1.089  1.00  0.00    -0.390 OA
ATOM     33  HO  UNL     1      11.055  -5.832  -0.786  1.00  0.00     0.210 HD
ENDBRANCH   1  32
BRANCH   5  34
HETATM   34  C   UNL     1      13.254  -7.716   0.466  1.00  0.00     0.198 C 
BRANCH  34  35
HETATM   35  O   UNL     1      14.033  -8.809   0.935  1.00  0.00    -0.398 OA
ATOM     36  HO  UNL     1      14.463  -9.277   0.230  1.00  0.00     0.209 HD
ENDBRANCH  34  35
ENDBRANCH   5  34
TORSDOF 11
ENDMDL
MODEL 16
REMARK VINA RESULT:    -6.083      4.448      6.844
REMARK INTER + INTRA:         -11.639
REMARK INTER:                  -8.624
REMARK INTRA:                  -3.015
REMARK UNBOUND:                -1.999
REMARK  11 active torsions:
REMARK  status: ('A' for Active; 'I' for Inactive)
REMARK    1  A    between atoms: C_2  and  O_16 
REMARK    2  A    between atoms: C_2  and  C_22 
REMARK    3  A    between atoms: O_3  and  C_5 
REMARK    4  A    between atoms: C_5  and  C_11 
REMARK    5  A    between atoms: C_7  and  O_17 
REMARK    6  A    between atoms: C_8  and  O_16 
REMARK    7  A    between atoms: C_9  and  O_13 
REMARK    8  A    between atoms: C_10  and  O_14 
REMARK    9  A    between atoms: O_14  and  C_15 
REMARK   10  A    between atoms: C_15  and  C_21 
REMARK   11  A    between atoms: C_29  and  N_32 
ROOT
HETATM    1  C   UNL     1      15.453  -8.740  -0.063  1.00  0.00     0.181 C 
HETATM    2  C   UNL     1      15.357  -7.604  -1.033  1.00  0.00     0.198 C 
HETATM    3  C   UNL     1      17.780  -7.884  -1.430  1.00  0.00     0.291 C 
HETATM    4  C   UNL     1      16.467  -7.566  -2.089  1.00  0.00     0.219 C 
HETATM    5  C   UNL     1      16.872  -8.919   0.445  1.00  0.00     0.179 C 
HETATM    6  O   UNL     1      17.765  -9.100  -0.667  1.00  0.00    -0.348 OA
ENDROOT
BRANCH   4   7
HETATM    7  O   UNL     1      16.247  -8.606  -3.084  1.00  0.00    -0.304 OA
BRANCH   7   8
HETATM    8  C   UNL     1      16.170  -8.225  -4.351  1.00  0.00     0.296 C 
HETATM    9  O   UNL     1      17.151  -8.119  -5.076  1.00  0.00    -0.259 OA
BRANCH   8  10
HETATM   10  C   UNL     1      14.761  -8.120  -4.846  1.00  0.00     0.072 A 
HETATM   11  C   UNL     1      13.770  -9.091  -4.706  1.00  0.00     0.120 A 
HETATM   12  C   UNL     1      12.461  -8.880  -5.057  1.00  0.00     0.060 A 
HETATM   13  C   UNL     1      12.135  -7.656  -5.613  1.00  0.00     0.036 A 
HETATM   14  C   UNL     1      13.073  -6.666  -5.803  1.00  0.00     0.025 A 
HETATM   15 CL   UNL     1      10.505  -7.375  -5.997  1.00  0.00    -0.084 Cl
HETATM   16  C   UNL     1      14.385  -6.903  -5.414  1.00  0.00     0.022 A 
BRANCH  11  17
HETATM   17  N   UNL     1      14.111 -10.391  -4.112  1.00  0.00    -0.115 N 
HETATM   18  O   UNL     1      13.599 -10.639  -2.995  1.00  0.00    -0.532 OA
HETATM   19  O   UNL     1      14.787 -11.214  -4.748  1.00  0.00    -0.532 OA
ENDBRANCH  11  17
ENDBRANCH   8  10
ENDBRANCH   7   8
ENDBRANCH   4   7
BRANCH   2  20
HETATM   20  O   UNL     1      14.036  -7.772  -1.610  1.00  0.00    -0.306 OA
BRANCH  20  21
HETATM   21  C   UNL     1      13.067  -7.008  -1.164  1.00  0.00     0.293 C 
HETATM   22  O   UNL     1      12.554  -7.191  -0.112  1.00  0.00    -0.259 OA
BRANCH  21  23
HETATM   23  C   UNL     1      12.723  -5.885  -2.093  1.00  0.00     0.039 A 
HETATM   24  C   UNL     1      11.411  -5.720  -2.542  1.00  0.00     0.018 A 
HETATM   25  C   UNL     1      11.100  -4.670  -3.383  1.00  0.00     0.007 A 
HETATM   26  C   UNL     1      12.069  -3.780  -3.797  1.00  0.00    -0.062 A 
HETATM   27  C   UNL     1      13.341  -3.951  -3.353  1.00  0.00     0.007 A 
HETATM   28  C   UNL     1      11.723  -2.700  -4.766  1.00  0.00     0.048 C 
HETATM   29  C   UNL     1      13.690  -4.974  -2.502  1.00  0.00     0.018 A 
ENDBRANCH  21  23
ENDBRANCH  20  21
ENDBRANCH   2  20
BRANCH   3  30
HETATM   30  O   UNL     1      18.736  -8.003  -2.448  1.00  0.00    -0.363 OA
HETATM   31  C   UNL     1      20.065  -7.989  -1.964  1.00  0.00     0.204 C 
ENDBRANCH   3  30
BRANCH   1  32
HETATM   32  O   UNL     1      14.990  -9.929  -0.711  1.00  0.00    -0.390 OA
ATOM     33  HO  UNL     1      15.659 -10.597  -0.626  1.00  0.00     0.210 HD
ENDBRANCH   1  32
BRANCH   5  34
HETATM   34  C   UNL     1      16.989 -10.155   1.302  1.00  0.00     0.198 C 
BRANCH  34  35
HETATM   35  O   UNL     1      16.007 -10.200   2.330  1.00  0.00    -0.398 OA
ATOM     36  HO  UNL     1      15.847 -11.083   2.641  1.00  0.00     0.209 HD
ENDBRANCH  34  35
ENDBRANCH   5  34
TORSDOF 11
ENDMDL
MODEL 17
REMARK VINA RESULT:    -6.025      5.159      8.960
REMARK INTER + INTRA:         -11.546
REMARK INTER:                  -9.068
REMARK INTRA:                  -2.478
REMARK UNBOUND:                -1.999
REMARK  11 active torsions:
REMARK  status: ('A' for Active; 'I' for Inactive)
REMARK    1  A    between atoms: C_2  and  O_16 
REMARK    2  A    between atoms: C_2  and  C_22 
REMARK    3  A    between atoms: O_3  and  C_5 
REMARK    4  A    between atoms: C_5  and  C_11 
REMARK    5  A    between atoms: C_7  and  O_17 
REMARK    6  A    between atoms: C_8  and  O_16 
REMARK    7  A    between atoms: C_9  and  O_13 
REMARK    8  A    between atoms: C_10  and  O_14 
REMARK    9  A    between atoms: O_14  and  C_15 
REMARK   10  A    between atoms: C_15  and  C_21 
REMARK   11  A    between atoms: C_29  and  N_32 
ROOT
HETATM    1  C   UNL     1      12.847  -8.823   0.226  1.00  0.00     0.181 C 
HETATM    2  C   UNL     1      12.711  -9.132  -1.232  1.00  0.00     0.198 C 
HETATM    3  C   UNL     1      10.278  -8.788  -0.963  1.00  0.00     0.291 C 
HETATM    4  C   UNL     1      11.442  -8.576  -1.890  1.00  0.00     0.219 C 
HETATM    5  C   UNL     1      11.545  -9.058   0.969  1.00  0.00     0.179 C 
HETATM    6  O   UNL     1      10.495  -8.284   0.364  1.00  0.00    -0.348 OA
ENDROOT
BRANCH   4   7
HETATM    7  O   UNL     1      11.562  -7.137  -2.073  1.00  0.00    -0.304 OA
BRANCH   7   8
HETATM    8  C   UNL     1      11.435  -6.670  -3.307  1.00  0.00     0.296 C 
HETATM    9  O   UNL     1      10.472  -6.009  -3.673  1.00  0.00    -0.259 OA
BRANCH   8  10
HETATM   10  C   UNL     1      12.661  -6.877  -4.140  1.00  0.00     0.072 A 
HETATM   11  C   UNL     1      13.778  -6.043  -4.173  1.00  0.00     0.120 A 
HETATM   12  C   UNL     1      14.928  -6.360  -4.851  1.00  0.00     0.060 A 
HETATM   13  C   UNL     1      14.946  -7.545  -5.565  1.00  0.00     0.036 A 
HETATM   14  C   UNL     1      13.866  -8.397  -5.595  1.00  0.00     0.025 A 
HETATM   15 CL   UNL     1      16.388  -7.962  -6.360  1.00  0.00    -0.084 Cl
HETATM   16  C   UNL     1      12.726  -8.060  -4.877  1.00  0.00     0.022 A 
BRANCH  11  17
HETATM   17  N   UNL     1      13.765  -4.787  -3.412  1.00  0.00    -0.115 N 
HETATM   18  O   UNL     1      13.537  -3.745  -4.070  1.00  0.00    -0.532 OA
HETATM   19  O   UNL     1      13.878  -4.800  -2.176  1.00  0.00    -0.532 OA
ENDBRANCH  11  17
ENDBRANCH   8  10
ENDBRANCH   7   8
ENDBRANCH   4   7
BRANCH   2  20
HETATM   20  O   UNL     1      13.927  -8.584  -1.803  1.00  0.00    -0.306 OA
BRANCH  20  21
HETATM   21  C   UNL     1      14.868  -9.421  -2.168  1.00  0.00     0.293 C 
HETATM   22  O   UNL     1      14.622 -10.505  -2.578  1.00  0.00    -0.259 OA
BRANCH  21  23
HETATM   23  C   UNL     1      16.247  -8.850  -2.053  1.00  0.00     0.039 A 
HETATM   24  C   UNL     1      16.478  -7.716  -1.272  1.00  0.00     0.018 A 
HETATM   25  C   UNL     1      17.756  -7.209  -1.157  1.00  0.00     0.007 A 
HETATM   26  C   UNL     1      18.817  -7.800  -1.811  1.00  0.00    -0.062 A 
HETATM   27  C   UNL     1      18.580  -8.904  -2.568  1.00  0.00     0.007 A 
HETATM   28  C   UNL     1      20.174  -7.188  -1.733  1.00  0.00     0.048 C 
HETATM   29  C   UNL     1      17.325  -9.449  -2.696  1.00  0.00     0.018 A 
ENDBRANCH  21  23
ENDBRANCH  20  21
ENDBRANCH   2  20
BRANCH   3  30
HETATM   30  O   UNL     1       9.178  -8.123  -1.522  1.00  0.00    -0.363 OA
HETATM   31  C   UNL     1       8.010  -8.921  -1.559  1.00  0.00     0.204 C 
ENDBRANCH   3  30
BRANCH   1  32
HETATM   32  O   UNL     1      13.273  -7.463   0.362  1.00  0.00    -0.390 OA
ATOM     33  HO  UNL     1      13.657  -7.184  -0.460  1.00  0.00     0.210 HD
ENDBRANCH   1  32
BRANCH   5  34
HETATM   34  C   UNL     1      11.649  -8.601   2.403  1.00  0.00     0.198 C 
BRANCH  34  35
HETATM   35  O   UNL     1      12.985  -8.638   2.890  1.00  0.00    -0.398 OA
ATOM     36  HO  UNL     1      13.027  -8.824   3.821  1.00  0.00     0.209 HD
ENDBRANCH  34  35
ENDBRANCH   5  34
TORSDOF 11
ENDMDL
MODEL 18
REMARK VINA RESULT:    -5.968      5.249      8.026
REMARK INTER + INTRA:         -11.456
REMARK INTER:                  -8.380
REMARK INTRA:                  -3.076
REMARK UNBOUND:                -1.999
REMARK  11 active torsions:
REMARK  status: ('A' for Active; 'I' for Inactive)
REMARK    1  A    between atoms: C_2  and  O_16 
REMARK    2  A    between atoms: C_2  and  C_22 
REMARK    3  A    between atoms: O_3  and  C_5 
REMARK    4  A    between atoms: C_5  and  C_11 
REMARK    5  A    between atoms: C_7  and  O_17 
REMARK    6  A    between atoms: C_8  and  O_16 
REMARK    7  A    between atoms: C_9  and  O_13 
REMARK    8  A    between atoms: C_10  and  O_14 
REMARK    9  A    between atoms: O_14  and  C_15 
REMARK   10  A    between atoms: C_15  and  C_21 
REMARK   11  A    between atoms: C_29  and  N_32 
ROOT
HETATM    1  C   UNL     1      14.519  -8.255  -0.444  1.00  0.00     0.181 C 
HETATM    2  C   UNL     1      14.311  -7.354  -1.621  1.00  0.00     0.198 C 
HETATM    3  C   UNL     1      16.593  -7.964  -2.350  1.00  0.00     0.291 C 
HETATM    4  C   UNL     1      15.200  -7.662  -2.831  1.00  0.00     0.219 C 
HETATM    5  C   UNL     1      15.995  -8.466  -0.159  1.00  0.00     0.179 C 
HETATM    6  O   UNL     1      16.648  -8.976  -1.334  1.00  0.00    -0.348 OA
ENDROOT
BRANCH   4   7
HETATM    7  O   UNL     1      14.732  -8.866  -3.503  1.00  0.00    -0.304 OA
BRANCH   7   8
HETATM    8  C   UNL     1      14.636  -8.822  -4.825  1.00  0.00     0.296 C 
HETATM    9  O   UNL     1      15.283  -9.552  -5.565  1.00  0.00    -0.259 OA
BRANCH   8  10
HETATM   10  C   UNL     1      13.533  -7.929  -5.302  1.00  0.00     0.072 A 
HETATM   11  C   UNL     1      13.685  -6.805  -6.114  1.00  0.00     0.120 A 
HETATM   12  C   UNL     1      12.622  -6.109  -6.631  1.00  0.00     0.060 A 
HETATM   13  C   UNL     1      11.350  -6.529  -6.288  1.00  0.00     0.036 A 
HETATM   14  C   UNL     1      11.135  -7.613  -5.468  1.00  0.00     0.025 A 
HETATM   15 CL   UNL     1      10.035  -5.699  -6.972  1.00  0.00    -0.084 Cl
HETATM   16  C   UNL     1      12.231  -8.313  -4.981  1.00  0.00     0.022 A 
BRANCH  11  17
HETATM   17  N   UNL     1      15.034  -6.358  -6.486  1.00  0.00    -0.115 N 
HETATM   18  O   UNL     1      15.353  -6.507  -7.688  1.00  0.00    -0.532 OA
HETATM   19  O   UNL     1      15.754  -5.780  -5.657  1.00  0.00    -0.532 OA
ENDBRANCH  11  17
ENDBRANCH   8  10
ENDBRANCH   7   8
ENDBRANCH   4   7
BRANCH   2  20
HETATM   20  O   UNL     1      12.897  -7.506  -1.909  1.00  0.00    -0.306 OA
BRANCH  20  21
HETATM   21  C   UNL     1      12.083  -6.555  -1.519  1.00  0.00     0.293 C 
HETATM   22  O   UNL     1      11.524  -6.592  -0.475  1.00  0.00    -0.259 OA
BRANCH  21  23
HETATM   23  C   UNL     1      11.976  -5.427  -2.498  1.00  0.00     0.039 A 
HETATM   24  C   UNL     1      10.724  -4.993  -2.939  1.00  0.00     0.018 A 
HETATM   25  C   UNL     1      10.636  -3.941  -3.827  1.00  0.00     0.007 A 
HETATM   26  C   UNL     1      11.770  -3.309  -4.297  1.00  0.00    -0.062 A 
HETATM   27  C   UNL     1      12.982  -3.741  -3.860  1.00  0.00     0.007 A 
HETATM   28  C   UNL     1      11.651  -2.226  -5.314  1.00  0.00     0.048 C 
HETATM   29  C   UNL     1      13.113  -4.775  -2.964  1.00  0.00     0.018 A 
ENDBRANCH  21  23
ENDBRANCH  20  21
ENDBRANCH   2  20
BRANCH   3  30
HETATM   30  O   UNL     1      17.328  -8.400  -3.460  1.00  0.00    -0.363 OA
HETATM   31  C   UNL     1      18.639  -8.814  -3.127  1.00  0.00     0.204 C 
ENDBRANCH   3  30
BRANCH   1  32
HETATM   32  O   UNL     1      13.869  -9.503  -0.708  1.00  0.00    -0.390 OA
ATOM     33  HO  UNL     1      14.528 -10.138  -0.959  1.00  0.00     0.210 HD
ENDBRANCH   1  32
BRANCH   5  34
HETATM   34  C   UNL     1      16.196  -9.492   0.929  1.00  0.00     0.198 C 
BRANCH  34  35
HETATM   35  O   UNL     1      15.168  -9.451   1.911  1.00  0.00    -0.398 OA
ATOM     36  HO  UNL     1      15.291  -8.748   2.537  1.00  0.00     0.209 HD
ENDBRANCH  34  35
ENDBRANCH   5  34
TORSDOF 11
ENDMDL
MODEL 19
REMARK VINA RESULT:    -5.937      6.877      9.420
REMARK INTER + INTRA:         -11.406
REMARK INTER:                  -8.719
REMARK INTRA:                  -2.687
REMARK UNBOUND:                -1.999
REMARK  11 active torsions:
REMARK  status: ('A' for Active; 'I' for Inactive)
REMARK    1  A    between atoms: C_2  and  O_16 
REMARK    2  A    between atoms: C_2  and  C_22 
REMARK    3  A    between atoms: O_3  and  C_5 
REMARK    4  A    between atoms: C_5  and  C_11 
REMARK    5  A    between atoms: C_7  and  O_17 
REMARK    6  A    between atoms: C_8  and  O_16 
REMARK    7  A    between atoms: C_9  and  O_13 
REMARK    8  A    between atoms: C_10  and  O_14 
REMARK    9  A    between atoms: O_14  and  C_15 
REMARK   10  A    between atoms: C_15  and  C_21 
REMARK   11  A    between atoms: C_29  and  N_32 
ROOT
HETATM    1  C   UNL     1      10.271  -2.765  -5.428  1.00  0.00     0.181 C 
HETATM    2  C   UNL     1      10.343  -4.145  -4.854  1.00  0.00     0.198 C 
HETATM    3  C   UNL     1      11.577  -4.807  -6.891  1.00  0.00     0.291 C 
HETATM    4  C   UNL     1      11.483  -5.010  -5.404  1.00  0.00     0.219 C 
HETATM    5  C   UNL     1      10.437  -2.781  -6.937  1.00  0.00     0.179 C 
HETATM    6  O   UNL     1      11.672  -3.429  -7.282  1.00  0.00    -0.348 OA
ENDROOT
BRANCH   4   7
HETATM    7  O   UNL     1      12.756  -4.572  -4.851  1.00  0.00    -0.304 OA
BRANCH   7   8
HETATM    8  C   UNL     1      13.609  -5.514  -4.475  1.00  0.00     0.296 C 
HETATM    9  O   UNL     1      14.736  -5.619  -4.942  1.00  0.00    -0.259 OA
BRANCH   8  10
HETATM   10  C   UNL     1      13.122  -6.310  -3.303  1.00  0.00     0.072 A 
HETATM   11  C   UNL     1      12.787  -7.663  -3.316  1.00  0.00     0.120 A 
HETATM   12  C   UNL     1      12.481  -8.368  -2.180  1.00  0.00     0.060 A 
HETATM   13  C   UNL     1      12.468  -7.679  -0.981  1.00  0.00     0.036 A 
HETATM   14  C   UNL     1      12.763  -6.337  -0.906  1.00  0.00     0.025 A 
HETATM   15 CL   UNL     1      12.142  -8.564   0.432  1.00  0.00    -0.084 Cl
HETATM   16  C   UNL     1      13.093  -5.657  -2.071  1.00  0.00     0.022 A 
BRANCH  11  17
HETATM   17  N   UNL     1      12.805  -8.400  -4.587  1.00  0.00    -0.115 N 
HETATM   18  O   UNL     1      13.877  -8.981  -4.874  1.00  0.00    -0.532 OA
HETATM   19  O   UNL     1      11.771  -8.505  -5.265  1.00  0.00    -0.532 OA
ENDBRANCH  11  17
ENDBRANCH   8  10
ENDBRANCH   7   8
ENDBRANCH   4   7
BRANCH   2  20
HETATM   20  O   UNL     1      10.457  -3.905  -3.428  1.00  0.00    -0.306 OA
BRANCH  20  21
HETATM   21  C   UNL     1       9.360  -3.926  -2.710  1.00  0.00     0.293 C 
HETATM   22  O   UNL     1       8.929  -2.954  -2.187  1.00  0.00    -0.259 OA
BRANCH  21  23
HETATM   23  C   UNL     1       8.708  -5.273  -2.662  1.00  0.00     0.039 A 
HETATM   24  C   UNL     1       7.392  -5.435  -3.100  1.00  0.00     0.018 A 
HETATM   25  C   UNL     1       6.806  -6.685  -3.069  1.00  0.00     0.007 A 
HETATM   26  C   UNL     1       7.499  -7.784  -2.604  1.00  0.00    -0.062 A 
HETATM   27  C   UNL     1       8.779  -7.614  -2.182  1.00  0.00     0.007 A 
HETATM   28  C   UNL     1       6.819  -9.107  -2.510  1.00  0.00     0.048 C 
HETATM   29  C   UNL     1       9.404  -6.389  -2.210  1.00  0.00     0.018 A 
ENDBRANCH  21  23
ENDBRANCH  20  21
ENDBRANCH   2  20
BRANCH   3  30
HETATM   30  O   UNL     1      12.726  -5.479  -7.328  1.00  0.00    -0.363 OA
HETATM   31  C   UNL     1      12.436  -6.581  -8.166  1.00  0.00     0.204 C 
ENDBRANCH   3  30
BRANCH   1  32
HETATM   32  O   UNL     1      11.285  -1.965  -4.813  1.00  0.00    -0.390 OA
ATOM     33  HO  UNL     1      12.028  -2.522  -4.613  1.00  0.00     0.210 HD
ENDBRANCH   1  32
BRANCH   5  34
HETATM   34  C   UNL     1      10.514  -1.378  -7.488  1.00  0.00     0.198 C 
BRANCH  34  35
HETATM   35  O   UNL     1      11.844  -0.875  -7.512  1.00  0.00    -0.398 OA
ATOM     36  HO  UNL     1      12.494  -1.567  -7.480  1.00  0.00     0.209 HD
ENDBRANCH  34  35
ENDBRANCH   5  34
TORSDOF 11
ENDMDL
MODEL 20
REMARK VINA RESULT:    -5.869      4.417      6.912
REMARK INTER + INTRA:         -11.298
REMARK INTER:                  -8.137
REMARK INTRA:                  -3.161
REMARK UNBOUND:                -1.999
REMARK  11 active torsions:
REMARK  status: ('A' for Active; 'I' for Inactive)
REMARK    1  A    between atoms: C_2  and  O_16 
REMARK    2  A    between atoms: C_2  and  C_22 
REMARK    3  A    between atoms: O_3  and  C_5 
REMARK    4  A    between atoms: C_5  and  C_11 
REMARK    5  A    between atoms: C_7  and  O_17 
REMARK    6  A    between atoms: C_8  and  O_16 
REMARK    7  A    between atoms: C_9  and  O_13 
REMARK    8  A    between atoms: C_10  and  O_14 
REMARK    9  A    between atoms: O_14  and  C_15 
REMARK   10  A    between atoms: C_15  and  C_21 
REMARK   11  A    between atoms: C_29  and  N_32 
ROOT
HETATM    1  C   UNL     1      16.640  -7.603  -2.240  1.00  0.00     0.181 C 
HETATM    2  C   UNL     1      15.858  -8.287  -3.317  1.00  0.00     0.198 C 
HETATM    3  C   UNL     1      16.536 -10.432  -2.292  1.00  0.00     0.291 C 
HETATM    4  C   UNL     1      15.407  -9.712  -2.976  1.00  0.00     0.219 C 
HETATM    5  C   UNL     1      17.695  -8.521  -1.650  1.00  0.00     0.179 C 
HETATM    6  O   UNL     1      17.076  -9.724  -1.165  1.00  0.00    -0.348 OA
ENDROOT
BRANCH   4   7
HETATM    7  O   UNL     1      14.308  -9.674  -2.021  1.00  0.00    -0.304 OA
BRANCH   7   8
HETATM    8  C   UNL     1      13.101  -9.981  -2.475  1.00  0.00     0.296 C 
HETATM    9  O   UNL     1      12.800 -11.102  -2.864  1.00  0.00    -0.259 OA
BRANCH   8  10
HETATM   10  C   UNL     1      12.108  -8.875  -2.290  1.00  0.00     0.072 A 
HETATM   11  C   UNL     1      11.927  -8.126  -1.128  1.00  0.00     0.120 A 
HETATM   12  C   UNL     1      11.097  -7.035  -1.065  1.00  0.00     0.060 A 
HETATM   13  C   UNL     1      10.385  -6.703  -2.204  1.00  0.00     0.036 A 
HETATM   14  C   UNL     1      10.500  -7.421  -3.372  1.00  0.00     0.025 A 
HETATM   15 CL   UNL     1       9.400  -5.321  -2.141  1.00  0.00    -0.084 Cl
HETATM   16  C   UNL     1      11.366  -8.505  -3.411  1.00  0.00     0.022 A 
BRANCH  11  17
HETATM   17  N   UNL     1      12.685  -8.471   0.082  1.00  0.00    -0.115 N 
HETATM   18  O   UNL     1      13.591  -7.671   0.413  1.00  0.00    -0.532 OA
HETATM   19  O   UNL     1      12.358  -9.451   0.769  1.00  0.00    -0.532 OA
ENDBRANCH  11  17
ENDBRANCH   8  10
ENDBRANCH   7   8
ENDBRANCH   4   7
BRANCH   2  20
HETATM   20  O   UNL     1      14.746  -7.383  -3.544  1.00  0.00    -0.306 OA
BRANCH  20  21
HETATM   21  C   UNL     1      14.812  -6.571  -4.572  1.00  0.00     0.293 C 
HETATM   22  O   UNL     1      15.729  -6.576  -5.321  1.00  0.00    -0.259 OA
BRANCH  21  23
HETATM   23  C   UNL     1      13.608  -5.692  -4.710  1.00  0.00     0.039 A 
HETATM   24  C   UNL     1      12.719  -5.877  -5.771  1.00  0.00     0.018 A 
HETATM   25  C   UNL     1      11.603  -5.072  -5.880  1.00  0.00     0.007 A 
HETATM   26  C   UNL     1      11.350  -4.078  -4.958  1.00  0.00    -0.062 A 
HETATM   27  C   UNL     1      12.222  -3.908  -3.930  1.00  0.00     0.007 A 
HETATM   28  C   UNL     1      10.179  -3.173  -5.140  1.00  0.00     0.048 C 
HETATM   29  C   UNL     1      13.338  -4.697  -3.777  1.00  0.00     0.018 A 
ENDBRANCH  21  23
ENDBRANCH  20  21
ENDBRANCH   2  20
BRANCH   3  30
HETATM   30  O   UNL     1      16.033 -11.663  -1.851  1.00  0.00    -0.363 OA
HETATM   31  C   UNL     1      17.006 -12.456  -1.199  1.00  0.00     0.204 C 
ENDBRANCH   3  30
BRANCH   1  32
HETATM   32  O   UNL     1      15.729  -7.160  -1.230  1.00  0.00    -0.390 OA
ATOM     33  HO  UNL     1      16.229  -6.903  -0.464  1.00  0.00     0.210 HD
ENDBRANCH   1  32
BRANCH   5  34
HETATM   34  C   UNL     1      18.375  -7.876  -0.466  1.00  0.00     0.198 C 
BRANCH  34  35
HETATM   35  O   UNL     1      17.591  -7.952   0.718  1.00  0.00    -0.398 OA
ATOM     36  HO  UNL     1      16.688  -7.698   0.573  1.00  0.00     0.209 HD
ENDBRANCH  34  35
ENDBRANCH   5  34
TORSDOF 11
ENDMDL
