MODEL 1
REMARK VINA RESULT:    -4.548      0.000      0.000
REMARK INTER + INTRA:          -6.206
REMARK INTER:                  -6.010
REMARK INTRA:                  -0.196
REMARK UNBOUND:                -0.196
REMARK  6 active torsions:
REMARK  status: ('A' for Active; 'I' for Inactive)
REMARK    1  A    between atoms: C_1  and  C_5 
REMARK    2  A    between atoms: C_1  and  O_6 
REMARK    3  A    between atoms: C_2  and  C_5 
REMARK    4  A    between atoms: C_4  and  C_8 
REMARK    5  A    between atoms: C_4  and  C_9 
REMARK    6  A    between atoms: C_5  and  C_8 
ROOT
HETATM    1  C   UNL     1      33.125  17.150  15.536  1.00  0.00     0.009 C 
ENDROOT
BRANCH   1   2
HETATM    2  C   UNL     1      32.756  15.895  16.332  1.00  0.00     0.168 C 
BRANCH   2   3
HETATM    3  O   UNL     1      32.078  16.196  17.563  1.00  0.00    -0.400 OA
ATOM      4  HO  UNL     1      32.609  16.712  18.159  1.00  0.00     0.209 HD
ENDBRANCH   2   3
ENDBRANCH   1   2
BRANCH   1   5
HETATM    5  C   UNL     1      34.627  17.140  15.262  1.00  0.00     0.002 C 
HETATM    6  C   UNL     1      35.337  17.764  16.451  1.00  0.00     0.005 C 
ENDBRANCH   1   5
BRANCH   1   7
HETATM    7  C   UNL     1      32.333  17.245  14.225  1.00  0.00     0.007 C 
BRANCH   7   8
HETATM    8  C   UNL     1      30.898  17.686  14.520  1.00  0.00     0.000 C 
BRANCH   8   9
HETATM    9  C   UNL     1      29.918  16.711  13.880  1.00  0.00    -0.005 C 
HETATM   10  C   UNL     1      28.623  16.627  14.683  1.00  0.00     0.005 C 
ENDBRANCH   8   9
ENDBRANCH   7   8
ENDBRANCH   1   7
TORSDOF 6
ENDMDL
MODEL 2
REMARK VINA RESULT:    -4.538      4.730      6.668
REMARK INTER + INTRA:          -6.193
REMARK INTER:                  -5.970
REMARK INTRA:                  -0.222
REMARK UNBOUND:                -0.196
REMARK  6 active torsions:
REMARK  status: ('A' for Active; 'I' for Inactive)
REMARK    1  A    between atoms: C_1  and  C_5 
REMARK    2  A    between atoms: C_1  and  O_6 
REMARK    3  A    between atoms: C_2  and  C_5 
REMARK    4  A    between atoms: C_4  and  C_8 
REMARK    5  A    between atoms: C_4  and  C_9 
REMARK    6  A    between atoms: C_5  and  C_8 
ROOT
HETATM    1  C   UNL     1      34.752  18.996  18.335  1.00  0.00     0.009 C 
ENDROOT
BRANCH   1   2
HETATM    2  C   UNL     1      34.717  18.048  19.536  1.00  0.00     0.168 C 
BRANCH   2   3
HETATM    3  O   UNL     1      34.185  16.754  19.209  1.00  0.00    -0.400 OA
ATOM      4  HO  UNL     1      34.204  16.152  19.943  1.00  0.00     0.209 HD
ENDBRANCH   2   3
ENDBRANCH   1   2
BRANCH   1   5
HETATM    5  C   UNL     1      33.959  20.256  18.673  1.00  0.00     0.002 C 
HETATM    6  C   UNL     1      32.566  19.845  19.113  1.00  0.00     0.005 C 
ENDBRANCH   1   5
BRANCH   1   7
HETATM    7  C   UNL     1      36.190  19.350  17.932  1.00  0.00     0.007 C 
BRANCH   7   8
HETATM    8  C   UNL     1      37.008  19.690  19.179  1.00  0.00     0.000 C 
BRANCH   8   9
HETATM    9  C   UNL     1      38.495  19.619  18.856  1.00  0.00    -0.005 C 
HETATM   10  C   UNL     1      38.722  19.263  17.390  1.00  0.00     0.005 C 
ENDBRANCH   8   9
ENDBRANCH   7   8
ENDBRANCH   1   7
TORSDOF 6
ENDMDL
MODEL 3
REMARK VINA RESULT:    -4.469      2.427      4.655
REMARK INTER + INTRA:          -6.101
REMARK INTER:                  -6.005
REMARK INTRA:                  -0.096
REMARK UNBOUND:                -0.196
REMARK  6 active torsions:
REMARK  status: ('A' for Active; 'I' for Inactive)
REMARK    1  A    between atoms: C_1  and  C_5 
REMARK    2  A    between atoms: C_1  and  O_6 
REMARK    3  A    between atoms: C_2  and  C_5 
REMARK    4  A    between atoms: C_4  and  C_8 
REMARK    5  A    between atoms: C_4  and  C_9 
REMARK    6  A    between atoms: C_5  and  C_8 
ROOT
HETATM    1  C   UNL     1      30.861  17.259  15.701  1.00  0.00     0.009 C 
ENDROOT
BRANCH   1   2
HETATM    2  C   UNL     1      31.584  15.934  15.448  1.00  0.00     0.168 C 
BRANCH   2   3
HETATM    3  O   UNL     1      30.694  14.806  15.442  1.00  0.00    -0.400 OA
ATOM      4  HO  UNL     1      31.043  14.065  14.962  1.00  0.00     0.209 HD
ENDBRANCH   2   3
ENDBRANCH   1   2
BRANCH   1   5
HETATM    5  C   UNL     1      29.398  17.113  15.290  1.00  0.00     0.002 C 
HETATM    6  C   UNL     1      29.273  17.465  13.819  1.00  0.00     0.005 C 
ENDBRANCH   1   5
BRANCH   1   7
HETATM    7  C   UNL     1      30.974  17.699  17.166  1.00  0.00     0.007 C 
BRANCH   7   8
HETATM    8  C   UNL     1      32.397  18.184  17.452  1.00  0.00     0.000 C 
BRANCH   8   9
HETATM    9  C   UNL     1      32.370  19.247  18.544  1.00  0.00    -0.005 C 
HETATM   10  C   UNL     1      33.669  20.045  18.566  1.00  0.00     0.005 C 
ENDBRANCH   8   9
ENDBRANCH   7   8
ENDBRANCH   1   7
TORSDOF 6
ENDMDL
MODEL 4
REMARK VINA RESULT:    -4.461      1.474      4.406
REMARK INTER + INTRA:          -6.091
REMARK INTER:                  -5.967
REMARK INTRA:                  -0.124
REMARK UNBOUND:                -0.196
REMARK  6 active torsions:
REMARK  status: ('A' for Active; 'I' for Inactive)
REMARK    1  A    between atoms: C_1  and  C_5 
REMARK    2  A    between atoms: C_1  and  O_6 
REMARK    3  A    between atoms: C_2  and  C_5 
REMARK    4  A    between atoms: C_4  and  C_8 
REMARK    5  A    between atoms: C_4  and  C_9 
REMARK    6  A    between atoms: C_5  and  C_8 
ROOT
HETATM    1  C   UNL     1      31.347  16.596  14.310  1.00  0.00     0.009 C 
ENDROOT
BRANCH   1   2
HETATM    2  C   UNL     1      31.370  15.553  15.430  1.00  0.00     0.168 C 
BRANCH   2   3
HETATM    3  O   UNL     1      30.195  14.726  15.444  1.00  0.00    -0.400 OA
ATOM      4  HO  UNL     1      29.473  15.120  15.920  1.00  0.00     0.209 HD
ENDBRANCH   2   3
ENDBRANCH   1   2
BRANCH   1   5
HETATM    5  C   UNL     1      30.160  17.532  14.526  1.00  0.00     0.002 C 
HETATM    6  C   UNL     1      29.114  17.235  13.466  1.00  0.00     0.005 C 
ENDBRANCH   1   5
BRANCH   1   7
HETATM    7  C   UNL     1      32.659  17.389  14.244  1.00  0.00     0.007 C 
BRANCH   7   8
HETATM    8  C   UNL     1      33.504  17.095  15.485  1.00  0.00     0.000 C 
BRANCH   8   9
HETATM    9  C   UNL     1      34.978  17.041  15.105  1.00  0.00    -0.005 C 
HETATM   10  C   UNL     1      35.740  16.064  15.995  1.00  0.00     0.005 C 
ENDBRANCH   8   9
ENDBRANCH   7   8
ENDBRANCH   1   7
TORSDOF 6
ENDMDL
MODEL 5
REMARK VINA RESULT:    -4.446     12.132     13.401
REMARK INTER + INTRA:          -6.071
REMARK INTER:                  -5.809
REMARK INTRA:                  -0.262
REMARK UNBOUND:                -0.196
REMARK  6 active torsions:
REMARK  status: ('A' for Active; 'I' for Inactive)
REMARK    1  A    between atoms: C_1  and  C_5 
REMARK    2  A    between atoms: C_1  and  O_6 
REMARK    3  A    between atoms: C_2  and  C_5 
REMARK    4  A    between atoms: C_4  and  C_8 
REMARK    5  A    between atoms: C_4  and  C_9 
REMARK    6  A    between atoms: C_5  and  C_8 
ROOT
HETATM    1  C   UNL     1      21.467   9.005  16.294  1.00  0.00     0.009 C 
ENDROOT
BRANCH   1   2
HETATM    2  C   UNL     1      22.890   9.554  16.419  1.00  0.00     0.168 C 
BRANCH   2   3
HETATM    3  O   UNL     1      23.704   8.791  17.325  1.00  0.00    -0.400 OA
ATOM      4  HO  UNL     1      24.584   8.647  16.998  1.00  0.00     0.209 HD
ENDBRANCH   2   3
ENDBRANCH   1   2
BRANCH   1   5
HETATM    5  C   UNL     1      20.474  10.119  16.617  1.00  0.00     0.002 C 
HETATM    6  C   UNL     1      20.007   9.946  18.051  1.00  0.00     0.005 C 
ENDBRANCH   1   5
BRANCH   1   7
HETATM    7  C   UNL     1      21.201   8.427  14.897  1.00  0.00     0.007 C 
BRANCH   7   8
HETATM    8  C   UNL     1      21.254   9.547  13.856  1.00  0.00     0.000 C 
BRANCH   8   9
HETATM    9  C   UNL     1      22.244   9.182  12.757  1.00  0.00    -0.005 C 
HETATM   10  C   UNL     1      22.466   7.674  12.696  1.00  0.00     0.005 C 
ENDBRANCH   8   9
ENDBRANCH   7   8
ENDBRANCH   1   7
TORSDOF 6
ENDMDL
MODEL 6
REMARK VINA RESULT:    -4.415      1.061      1.339
REMARK INTER + INTRA:          -6.031
REMARK INTER:                  -5.873
REMARK INTRA:                  -0.157
REMARK UNBOUND:                -0.196
REMARK  6 active torsions:
REMARK  status: ('A' for Active; 'I' for Inactive)
REMARK    1  A    between atoms: C_1  and  C_5 
REMARK    2  A    between atoms: C_1  and  O_6 
REMARK    3  A    between atoms: C_2  and  C_5 
REMARK    4  A    between atoms: C_4  and  C_8 
REMARK    5  A    between atoms: C_4  and  C_9 
REMARK    6  A    between atoms: C_5  and  C_8 
ROOT
HETATM    1  C   UNL     1      32.218  17.603  15.806  1.00  0.00     0.009 C 
ENDROOT
BRANCH   1   2
HETATM    2  C   UNL     1      31.824  17.401  17.271  1.00  0.00     0.168 C 
BRANCH   2   3
HETATM    3  O   UNL     1      32.071  16.063  17.735  1.00  0.00    -0.400 OA
ATOM      4  HO  UNL     1      31.294  15.518  17.716  1.00  0.00     0.209 HD
ENDBRANCH   2   3
ENDBRANCH   1   2
BRANCH   1   5
HETATM    5  C   UNL     1      33.508  16.835  15.528  1.00  0.00     0.002 C 
HETATM    6  C   UNL     1      34.672  17.624  16.101  1.00  0.00     0.005 C 
ENDBRANCH   1   5
BRANCH   1   7
HETATM    7  C   UNL     1      31.103  17.158  14.851  1.00  0.00     0.007 C 
BRANCH   7   8
HETATM    8  C   UNL     1      29.744  17.311  15.536  1.00  0.00     0.000 C 
BRANCH   8   9
HETATM    9  C   UNL     1      28.666  16.633  14.699  1.00  0.00    -0.005 C 
HETATM   10  C   UNL     1      29.022  16.662  13.216  1.00  0.00     0.005 C 
ENDBRANCH   8   9
ENDBRANCH   7   8
ENDBRANCH   1   7
TORSDOF 6
ENDMDL
MODEL 7
REMARK VINA RESULT:    -4.343      3.843      5.993
REMARK INTER + INTRA:          -5.936
REMARK INTER:                  -5.551
REMARK INTRA:                  -0.384
REMARK UNBOUND:                -0.196
REMARK  6 active torsions:
REMARK  status: ('A' for Active; 'I' for Inactive)
REMARK    1  A    between atoms: C_1  and  C_5 
REMARK    2  A    between atoms: C_1  and  O_6 
REMARK    3  A    between atoms: C_2  and  C_5 
REMARK    4  A    between atoms: C_4  and  C_8 
REMARK    5  A    between atoms: C_4  and  C_9 
REMARK    6  A    between atoms: C_5  and  C_8 
ROOT
HETATM    1  C   UNL     1      34.111  18.912  18.694  1.00  0.00     0.009 C 
ENDROOT
BRANCH   1   2
HETATM    2  C   UNL     1      32.831  19.740  18.830  1.00  0.00     0.168 C 
BRANCH   2   3
HETATM    3  O   UNL     1      31.644  18.929  18.866  1.00  0.00    -0.400 OA
ATOM      4  HO  UNL     1      31.026  19.151  18.179  1.00  0.00     0.209 HD
ENDBRANCH   2   3
ENDBRANCH   1   2
BRANCH   1   5
HETATM    5  C   UNL     1      33.903  17.848  17.618  1.00  0.00     0.002 C 
HETATM    6  C   UNL     1      34.209  16.489  18.220  1.00  0.00     0.005 C 
ENDBRANCH   1   5
BRANCH   1   7
HETATM    7  C   UNL     1      35.325  19.791  18.363  1.00  0.00     0.007 C 
BRANCH   7   8
HETATM    8  C   UNL     1      36.544  19.304  19.148  1.00  0.00     0.000 C 
BRANCH   8   9
HETATM    9  C   UNL     1      37.793  19.414  18.281  1.00  0.00    -0.005 C 
HETATM   10  C   UNL     1      37.471  19.136  16.816  1.00  0.00     0.005 C 
ENDBRANCH   8   9
ENDBRANCH   7   8
ENDBRANCH   1   7
TORSDOF 6
ENDMDL
MODEL 8
REMARK VINA RESULT:    -4.308     13.481     14.332
REMARK INTER + INTRA:          -5.889
REMARK INTER:                  -5.670
REMARK INTRA:                  -0.219
REMARK UNBOUND:                -0.196
REMARK  6 active torsions:
REMARK  status: ('A' for Active; 'I' for Inactive)
REMARK    1  A    between atoms: C_1  and  C_5 
REMARK    2  A    between atoms: C_1  and  O_6 
REMARK    3  A    between atoms: C_2  and  C_5 
REMARK    4  A    between atoms: C_4  and  C_8 
REMARK    5  A    between atoms: C_4  and  C_9 
REMARK    6  A    between atoms: C_5  and  C_8 
ROOT
HETATM    1  C   UNL     1      21.167   8.360  14.561  1.00  0.00     0.009 C 
ENDROOT
BRANCH   1   2
HETATM    2  C   UNL     1      20.428   7.123  14.047  1.00  0.00     0.168 C 
BRANCH   2   3
HETATM    3  O   UNL     1      20.833   5.915  14.712  1.00  0.00    -0.400 OA
ATOM      4  HO  UNL     1      20.862   6.007  15.657  1.00  0.00     0.209 HD
ENDBRANCH   2   3
ENDBRANCH   1   2
BRANCH   1   5
HETATM    5  C   UNL     1      22.545   8.423  13.907  1.00  0.00     0.002 C 
HETATM    6  C   UNL     1      22.402   8.035  12.446  1.00  0.00     0.005 C 
ENDBRANCH   1   5
BRANCH   1   7
HETATM    7  C   UNL     1      20.377   9.648  14.292  1.00  0.00     0.007 C 
BRANCH   7   8
HETATM    8  C   UNL     1      20.007  10.313  15.619  1.00  0.00     0.000 C 
BRANCH   8   9
HETATM    9  C   UNL     1      20.641   9.548  16.774  1.00  0.00    -0.005 C 
HETATM   10  C   UNL     1      20.007   9.939  18.106  1.00  0.00     0.005 C 
ENDBRANCH   8   9
ENDBRANCH   7   8
ENDBRANCH   1   7
TORSDOF 6
ENDMDL
MODEL 9
REMARK VINA RESULT:    -4.247      2.453      3.909
REMARK INTER + INTRA:          -5.808
REMARK INTER:                  -5.565
REMARK INTRA:                  -0.243
REMARK UNBOUND:                -0.196
REMARK  6 active torsions:
REMARK  status: ('A' for Active; 'I' for Inactive)
REMARK    1  A    between atoms: C_1  and  C_5 
REMARK    2  A    between atoms: C_1  and  O_6 
REMARK    3  A    between atoms: C_2  and  C_5 
REMARK    4  A    between atoms: C_4  and  C_8 
REMARK    5  A    between atoms: C_4  and  C_9 
REMARK    6  A    between atoms: C_5  and  C_8 
ROOT
HETATM    1  C   UNL     1      31.248  16.526  15.330  1.00  0.00     0.009 C 
ENDROOT
BRANCH   1   2
HETATM    2  C   UNL     1      29.747  16.716  15.562  1.00  0.00     0.168 C 
BRANCH   2   3
HETATM    3  O   UNL     1      28.982  15.540  15.249  1.00  0.00    -0.400 OA
ATOM      4  HO  UNL     1      28.097  15.575  15.592  1.00  0.00     0.209 HD
ENDBRANCH   2   3
ENDBRANCH   1   2
BRANCH   1   5
HETATM    5  C   UNL     1      31.726  17.549  14.303  1.00  0.00     0.002 C 
HETATM    6  C   UNL     1      33.181  17.263  13.980  1.00  0.00     0.005 C 
ENDBRANCH   1   5
BRANCH   1   7
HETATM    7  C   UNL     1      32.045  16.651  16.635  1.00  0.00     0.007 C 
BRANCH   7   8
HETATM    8  C   UNL     1      31.675  17.956  17.344  1.00  0.00     0.000 C 
BRANCH   8   9
HETATM    9  C   UNL     1      32.907  18.540  18.025  1.00  0.00    -0.005 C 
HETATM   10  C   UNL     1      32.520  19.636  19.013  1.00  0.00     0.005 C 
ENDBRANCH   8   9
ENDBRANCH   7   8
ENDBRANCH   1   7
TORSDOF 6
ENDMDL
MODEL 10
REMARK VINA RESULT:    -4.234      2.446      4.467
REMARK INTER + INTRA:          -5.791
REMARK INTER:                  -5.489
REMARK INTRA:                  -0.302
REMARK UNBOUND:                -0.196
REMARK  6 active torsions:
REMARK  status: ('A' for Active; 'I' for Inactive)
REMARK    1  A    between atoms: C_1  and  C_5 
REMARK    2  A    between atoms: C_1  and  O_6 
REMARK    3  A    between atoms: C_2  and  C_5 
REMARK    4  A    between atoms: C_4  and  C_8 
REMARK    5  A    between atoms: C_4  and  C_9 
REMARK    6  A    between atoms: C_5  and  C_8 
ROOT
HETATM    1  C   UNL     1      32.521  17.235  16.861  1.00  0.00     0.009 C 
ENDROOT
BRANCH   1   2
HETATM    2  C   UNL     1      31.258  18.027  16.517  1.00  0.00     0.168 C 
BRANCH   2   3
HETATM    3  O   UNL     1      30.052  17.352  16.913  1.00  0.00    -0.400 OA
ATOM      4  HO  UNL     1      29.325  17.521  16.326  1.00  0.00     0.209 HD
ENDBRANCH   2   3
ENDBRANCH   1   2
BRANCH   1   5
HETATM    5  C   UNL     1      33.372  17.084  15.602  1.00  0.00     0.002 C 
HETATM    6  C   UNL     1      32.478  17.279  14.391  1.00  0.00     0.005 C 
ENDBRANCH   1   5
BRANCH   1   7
HETATM    7  C   UNL     1      33.324  17.905  17.984  1.00  0.00     0.007 C 
BRANCH   7   8
HETATM    8  C   UNL     1      32.618  19.187  18.429  1.00  0.00     0.000 C 
BRANCH   8   9
HETATM    9  C   UNL     1      33.622  20.332  18.497  1.00  0.00    -0.005 C 
HETATM   10  C   UNL     1      35.054  19.805  18.531  1.00  0.00     0.005 C 
ENDBRANCH   8   9
ENDBRANCH   7   8
ENDBRANCH   1   7
TORSDOF 6
ENDMDL
MODEL 11
REMARK VINA RESULT:    -4.224     13.281     14.307
REMARK INTER + INTRA:          -5.777
REMARK INTER:                  -5.352
REMARK INTRA:                  -0.425
REMARK UNBOUND:                -0.196
REMARK  6 active torsions:
REMARK  status: ('A' for Active; 'I' for Inactive)
REMARK    1  A    between atoms: C_1  and  C_5 
REMARK    2  A    between atoms: C_1  and  O_6 
REMARK    3  A    between atoms: C_2  and  C_5 
REMARK    4  A    between atoms: C_4  and  C_8 
REMARK    5  A    between atoms: C_4  and  C_9 
REMARK    6  A    between atoms: C_5  and  C_8 
ROOT
HETATM    1  C   UNL     1      21.348   8.521  13.200  1.00  0.00     0.009 C 
ENDROOT
BRANCH   1   2
HETATM    2  C   UNL     1      22.580   7.615  13.267  1.00  0.00     0.168 C 
BRANCH   2   3
HETATM    3  O   UNL     1      23.081   7.258  11.968  1.00  0.00    -0.400 OA
ATOM      4  HO  UNL     1      23.595   7.951  11.569  1.00  0.00     0.209 HD
ENDBRANCH   2   3
ENDBRANCH   1   2
BRANCH   1   5
HETATM    5  C   UNL     1      20.112   7.707  13.575  1.00  0.00     0.002 C 
HETATM    6  C   UNL     1      20.557   6.499  14.379  1.00  0.00     0.005 C 
ENDBRANCH   1   5
BRANCH   1   7
HETATM    7  C   UNL     1      21.492   9.745  14.113  1.00  0.00     0.007 C 
BRANCH   7   8
HETATM    8  C   UNL     1      20.161  10.027  14.812  1.00  0.00     0.000 C 
BRANCH   8   9
HETATM    9  C   UNL     1      20.394  10.223  16.306  1.00  0.00    -0.005 C 
HETATM   10  C   UNL     1      21.417   9.223  16.837  1.00  0.00     0.005 C 
ENDBRANCH   8   9
ENDBRANCH   7   8
ENDBRANCH   1   7
TORSDOF 6
ENDMDL
MODEL 12
REMARK VINA RESULT:    -4.191      1.686      2.147
REMARK INTER + INTRA:          -5.734
REMARK INTER:                  -5.375
REMARK INTRA:                  -0.360
REMARK UNBOUND:                -0.196
REMARK  6 active torsions:
REMARK  status: ('A' for Active; 'I' for Inactive)
REMARK    1  A    between atoms: C_1  and  C_5 
REMARK    2  A    between atoms: C_1  and  O_6 
REMARK    3  A    between atoms: C_2  and  C_5 
REMARK    4  A    between atoms: C_4  and  C_8 
REMARK    5  A    between atoms: C_4  and  C_9 
REMARK    6  A    between atoms: C_5  and  C_8 
ROOT
HETATM    1  C   UNL     1      32.107  16.491  16.336  1.00  0.00     0.009 C 
ENDROOT
BRANCH   1   2
HETATM    2  C   UNL     1      33.486  17.044  15.968  1.00  0.00     0.168 C 
BRANCH   2   3
HETATM    3  O   UNL     1      34.542  16.090  16.172  1.00  0.00    -0.400 OA
ATOM      4  HO  UNL     1      35.113  16.322  16.894  1.00  0.00     0.209 HD
ENDBRANCH   2   3
ENDBRANCH   1   2
BRANCH   1   5
HETATM    5  C   UNL     1      31.360  17.530  17.168  1.00  0.00     0.002 C 
HETATM    6  C   UNL     1      32.378  18.450  17.816  1.00  0.00     0.005 C 
ENDBRANCH   1   5
BRANCH   1   7
HETATM    7  C   UNL     1      31.298  16.107  15.089  1.00  0.00     0.007 C 
BRANCH   7   8
HETATM    8  C   UNL     1      30.994  17.359  14.265  1.00  0.00     0.000 C 
BRANCH   8   9
HETATM    9  C   UNL     1      29.548  17.320  13.783  1.00  0.00    -0.005 C 
HETATM   10  C   UNL     1      28.675  16.502  14.730  1.00  0.00     0.005 C 
ENDBRANCH   8   9
ENDBRANCH   7   8
ENDBRANCH   1   7
TORSDOF 6
ENDMDL
MODEL 13
REMARK VINA RESULT:    -4.161      5.215      6.322
REMARK INTER + INTRA:          -5.694
REMARK INTER:                  -5.527
REMARK INTRA:                  -0.167
REMARK UNBOUND:                -0.196
REMARK  6 active torsions:
REMARK  status: ('A' for Active; 'I' for Inactive)
REMARK    1  A    between atoms: C_1  and  C_5 
REMARK    2  A    between atoms: C_1  and  O_6 
REMARK    3  A    between atoms: C_2  and  C_5 
REMARK    4  A    between atoms: C_4  and  C_8 
REMARK    5  A    between atoms: C_4  and  C_9 
REMARK    6  A    between atoms: C_5  and  C_8 
ROOT
HETATM    1  C   UNL     1      37.487  18.980  18.445  1.00  0.00     0.009 C 
ENDROOT
BRANCH   1   2
HETATM    2  C   UNL     1      38.554  18.794  17.364  1.00  0.00     0.168 C 
BRANCH   2   3
HETATM    3  O   UNL     1      38.261  19.525  16.161  1.00  0.00    -0.400 OA
ATOM      4  HO  UNL     1      37.329  19.644  16.021  1.00  0.00     0.209 HD
ENDBRANCH   2   3
ENDBRANCH   1   2
BRANCH   1   5
HETATM    5  C   UNL     1      38.039  19.893  19.537  1.00  0.00     0.002 C 
HETATM    6  C   UNL     1      39.542  19.695  19.616  1.00  0.00     0.005 C 
ENDBRANCH   1   5
BRANCH   1   7
HETATM    7  C   UNL     1      36.184  19.548  17.867  1.00  0.00     0.007 C 
BRANCH   7   8
HETATM    8  C   UNL     1      35.050  19.371  18.878  1.00  0.00     0.000 C 
BRANCH   8   9
HETATM    9  C   UNL     1      33.922  20.347  18.565  1.00  0.00    -0.005 C 
HETATM   10  C   UNL     1      32.558  19.706  18.803  1.00  0.00     0.005 C 
ENDBRANCH   8   9
ENDBRANCH   7   8
ENDBRANCH   1   7
TORSDOF 6
ENDMDL
MODEL 14
REMARK VINA RESULT:    -4.159      2.433      4.211
REMARK INTER + INTRA:          -5.692
REMARK INTER:                  -5.374
REMARK INTRA:                  -0.318
REMARK UNBOUND:                -0.196
REMARK  6 active torsions:
REMARK  status: ('A' for Active; 'I' for Inactive)
REMARK    1  A    between atoms: C_1  and  C_5 
REMARK    2  A    between atoms: C_1  and  O_6 
REMARK    3  A    between atoms: C_2  and  C_5 
REMARK    4  A    between atoms: C_4  and  C_8 
REMARK    5  A    between atoms: C_4  and  C_9 
REMARK    6  A    between atoms: C_5  and  C_8 
ROOT
HETATM    1  C   UNL     1      33.895  17.001  17.255  1.00  0.00     0.009 C 
ENDROOT
BRANCH   1   2
HETATM    2  C   UNL     1      32.459  17.089  16.734  1.00  0.00     0.168 C 
BRANCH   2   3
HETATM    3  O   UNL     1      31.672  15.935  17.072  1.00  0.00    -0.400 OA
ATOM      4  HO  UNL     1      31.021  15.727  16.412  1.00  0.00     0.209 HD
ENDBRANCH   2   3
ENDBRANCH   1   2
BRANCH   1   5
HETATM    5  C   UNL     1      34.855  17.407  16.139  1.00  0.00     0.002 C 
HETATM    6  C   UNL     1      35.735  16.216  15.805  1.00  0.00     0.005 C 
ENDBRANCH   1   5
BRANCH   1   7
HETATM    7  C   UNL     1      34.104  17.878  18.498  1.00  0.00     0.007 C 
BRANCH   7   8
HETATM    8  C   UNL     1      34.739  19.208  18.091  1.00  0.00     0.000 C 
BRANCH   8   9
HETATM    9  C   UNL     1      33.886  20.364  18.598  1.00  0.00    -0.005 C 
HETATM   10  C   UNL     1      32.602  19.855  19.247  1.00  0.00     0.005 C 
ENDBRANCH   8   9
ENDBRANCH   7   8
ENDBRANCH   1   7
TORSDOF 6
ENDMDL
MODEL 15
REMARK VINA RESULT:    -4.150      4.486      5.694
REMARK INTER + INTRA:          -5.679
REMARK INTER:                  -5.400
REMARK INTRA:                  -0.279
REMARK UNBOUND:                -0.196
REMARK  6 active torsions:
REMARK  status: ('A' for Active; 'I' for Inactive)
REMARK    1  A    between atoms: C_1  and  C_5 
REMARK    2  A    between atoms: C_1  and  O_6 
REMARK    3  A    between atoms: C_2  and  C_5 
REMARK    4  A    between atoms: C_4  and  C_8 
REMARK    5  A    between atoms: C_4  and  C_9 
REMARK    6  A    between atoms: C_5  and  C_8 
ROOT
HETATM    1  C   UNL     1      36.633  19.715  18.263  1.00  0.00     0.009 C 
ENDROOT
BRANCH   1   2
HETATM    2  C   UNL     1      37.606  19.548  19.433  1.00  0.00     0.168 C 
BRANCH   2   3
HETATM    3  O   UNL     1      38.975  19.774  19.056  1.00  0.00    -0.400 OA
ATOM      4  HO  UNL     1      39.567  19.766  19.799  1.00  0.00     0.209 HD
ENDBRANCH   2   3
ENDBRANCH   1   2
BRANCH   1   5
HETATM    5  C   UNL     1      37.172  18.952  17.056  1.00  0.00     0.002 C 
HETATM    6  C   UNL     1      36.090  18.011  16.559  1.00  0.00     0.005 C 
ENDBRANCH   1   5
BRANCH   1   7
HETATM    7  C   UNL     1      35.221  19.235  18.625  1.00  0.00     0.007 C 
BRANCH   7   8
HETATM    8  C   UNL     1      34.258  20.423  18.632  1.00  0.00     0.000 C 
BRANCH   8   9
HETATM    9  C   UNL     1      32.843  19.938  18.924  1.00  0.00    -0.005 C 
HETATM   10  C   UNL     1      32.503  18.704  18.093  1.00  0.00     0.005 C 
ENDBRANCH   8   9
ENDBRANCH   7   8
ENDBRANCH   1   7
TORSDOF 6
ENDMDL
MODEL 16
REMARK VINA RESULT:    -4.104      1.257      4.381
REMARK INTER + INTRA:          -5.619
REMARK INTER:                  -5.503
REMARK INTRA:                  -0.116
REMARK UNBOUND:                -0.196
REMARK  6 active torsions:
REMARK  status: ('A' for Active; 'I' for Inactive)
REMARK    1  A    between atoms: C_1  and  C_5 
REMARK    2  A    between atoms: C_1  and  O_6 
REMARK    3  A    between atoms: C_2  and  C_5 
REMARK    4  A    between atoms: C_4  and  C_8 
REMARK    5  A    between atoms: C_4  and  C_9 
REMARK    6  A    between atoms: C_5  and  C_8 
ROOT
HETATM    1  C   UNL     1      31.417  16.785  15.214  1.00  0.00     0.009 C 
ENDROOT
BRANCH   1   2
HETATM    2  C   UNL     1      30.806  17.917  16.043  1.00  0.00     0.168 C 
BRANCH   2   3
HETATM    3  O   UNL     1      30.543  17.532  17.403  1.00  0.00    -0.400 OA
ATOM      4  HO  UNL     1      31.059  18.024  18.031  1.00  0.00     0.209 HD
ENDBRANCH   2   3
ENDBRANCH   1   2
BRANCH   1   5
HETATM    5  C   UNL     1      30.487  16.467  14.046  1.00  0.00     0.002 C 
HETATM    6  C   UNL     1      29.056  16.710  14.489  1.00  0.00     0.005 C 
ENDBRANCH   1   5
BRANCH   1   7
HETATM    7  C   UNL     1      32.821  17.143  14.710  1.00  0.00     0.007 C 
BRANCH   7   8
HETATM    8  C   UNL     1      33.784  17.249  15.895  1.00  0.00     0.000 C 
BRANCH   8   9
HETATM    9  C   UNL     1      35.204  16.943  15.434  1.00  0.00    -0.005 C 
HETATM   10  C   UNL     1      35.687  15.609  15.993  1.00  0.00     0.005 C 
ENDBRANCH   8   9
ENDBRANCH   7   8
ENDBRANCH   1   7
TORSDOF 6
ENDMDL
MODEL 17
REMARK VINA RESULT:    -4.097      5.090      7.558
REMARK INTER + INTRA:          -5.610
REMARK INTER:                  -5.412
REMARK INTRA:                  -0.197
REMARK UNBOUND:                -0.196
REMARK  6 active torsions:
REMARK  status: ('A' for Active; 'I' for Inactive)
REMARK    1  A    between atoms: C_1  and  C_5 
REMARK    2  A    between atoms: C_1  and  O_6 
REMARK    3  A    between atoms: C_2  and  C_5 
REMARK    4  A    between atoms: C_4  and  C_8 
REMARK    5  A    between atoms: C_4  and  C_9 
REMARK    6  A    between atoms: C_5  and  C_8 
ROOT
HETATM    1  C   UNL     1      36.243  19.410  17.900  1.00  0.00     0.009 C 
ENDROOT
BRANCH   1   2
HETATM    2  C   UNL     1      36.527  18.115  17.137  1.00  0.00     0.168 C 
BRANCH   2   3
HETATM    3  O   UNL     1      35.544  17.839  16.124  1.00  0.00    -0.400 OA
ATOM      4  HO  UNL     1      35.353  18.595  15.581  1.00  0.00     0.209 HD
ENDBRANCH   2   3
ENDBRANCH   1   2
BRANCH   1   5
HETATM    5  C   UNL     1      34.966  19.236  18.718  1.00  0.00     0.002 C 
HETATM    6  C   UNL     1      34.077  20.445  18.485  1.00  0.00     0.005 C 
ENDBRANCH   1   5
BRANCH   1   7
HETATM    7  C   UNL     1      37.418  19.806  18.805  1.00  0.00     0.007 C 
BRANCH   7   8
HETATM    8  C   UNL     1      38.738  19.417  18.137  1.00  0.00     0.000 C 
BRANCH   8   9
HETATM    9  C   UNL     1      39.898  19.690  19.088  1.00  0.00    -0.005 C 
HETATM   10  C   UNL     1      39.392  20.034  20.486  1.00  0.00     0.005 C 
ENDBRANCH   8   9
ENDBRANCH   7   8
ENDBRANCH   1   7
TORSDOF 6
ENDMDL
MODEL 18
REMARK VINA RESULT:    -4.083      4.929      5.533
REMARK INTER + INTRA:          -5.591
REMARK INTER:                  -5.317
REMARK INTRA:                  -0.274
REMARK UNBOUND:                -0.196
REMARK  6 active torsions:
REMARK  status: ('A' for Active; 'I' for Inactive)
REMARK    1  A    between atoms: C_1  and  C_5 
REMARK    2  A    between atoms: C_1  and  O_6 
REMARK    3  A    between atoms: C_2  and  C_5 
REMARK    4  A    between atoms: C_4  and  C_8 
REMARK    5  A    between atoms: C_4  and  C_9 
REMARK    6  A    between atoms: C_5  and  C_8 
ROOT
HETATM    1  C   UNL     1      36.459  18.512  19.635  1.00  0.00     0.009 C 
ENDROOT
BRANCH   1   2
HETATM    2  C   UNL     1      35.463  17.350  19.637  1.00  0.00     0.168 C 
BRANCH   2   3
HETATM    3  O   UNL     1      34.716  17.258  20.862  1.00  0.00    -0.400 OA
ATOM      4  HO  UNL     1      34.178  18.024  21.023  1.00  0.00     0.209 HD
ENDBRANCH   2   3
ENDBRANCH   1   2
BRANCH   1   5
HETATM    5  C   UNL     1      37.788  18.028  19.061  1.00  0.00     0.002 C 
HETATM    6  C   UNL     1      38.498  19.211  18.428  1.00  0.00     0.005 C 
ENDBRANCH   1   5
BRANCH   1   7
HETATM    7  C   UNL     1      35.928  19.714  18.841  1.00  0.00     0.007 C 
BRANCH   7   8
HETATM    8  C   UNL     1      34.588  19.357  18.198  1.00  0.00     0.000 C 
BRANCH   8   9
HETATM    9  C   UNL     1      33.536  20.387  18.592  1.00  0.00    -0.005 C 
HETATM   10  C   UNL     1      32.406  19.742  19.389  1.00  0.00     0.005 C 
ENDBRANCH   8   9
ENDBRANCH   7   8
ENDBRANCH   1   7
TORSDOF 6
ENDMDL
MODEL 19
REMARK VINA RESULT:    -4.059      3.257      5.609
REMARK INTER + INTRA:          -5.559
REMARK INTER:                  -5.253
REMARK INTRA:                  -0.306
REMARK UNBOUND:                -0.196
REMARK  6 active torsions:
REMARK  status: ('A' for Active; 'I' for Inactive)
REMARK    1  A    between atoms: C_1  and  C_5 
REMARK    2  A    between atoms: C_1  and  O_6 
REMARK    3  A    between atoms: C_2  and  C_5 
REMARK    4  A    between atoms: C_4  and  C_8 
REMARK    5  A    between atoms: C_4  and  C_9 
REMARK    6  A    between atoms: C_5  and  C_8 
ROOT
HETATM    1  C   UNL     1      33.438  18.826  17.720  1.00  0.00     0.009 C 
ENDROOT
BRANCH   1   2
HETATM    2  C   UNL     1      32.195  17.933  17.700  1.00  0.00     0.168 C 
BRANCH   2   3
HETATM    3  O   UNL     1      31.266  18.296  16.664  1.00  0.00    -0.400 OA
ATOM      4  HO  UNL     1      31.661  18.298  15.800  1.00  0.00     0.209 HD
ENDBRANCH   2   3
ENDBRANCH   1   2
BRANCH   1   5
HETATM    5  C   UNL     1      33.123  20.099  18.503  1.00  0.00     0.002 C 
HETATM    6  C   UNL     1      32.192  19.741  19.648  1.00  0.00     0.005 C 
ENDBRANCH   1   5
BRANCH   1   7
HETATM    7  C   UNL     1      34.649  18.102  18.323  1.00  0.00     0.007 C 
BRANCH   7   8
HETATM    8  C   UNL     1      35.815  18.134  17.334  1.00  0.00     0.000 C 
BRANCH   8   9
HETATM    9  C   UNL     1      36.680  19.361  17.597  1.00  0.00    -0.005 C 
HETATM   10  C   UNL     1      36.846  19.606  19.093  1.00  0.00     0.005 C 
ENDBRANCH   8   9
ENDBRANCH   7   8
ENDBRANCH   1   7
TORSDOF 6
ENDMDL
MODEL 20
REMARK VINA RESULT:    -3.978      3.095      4.474
REMARK INTER + INTRA:          -5.453
REMARK INTER:                  -5.147
REMARK INTRA:                  -0.306
REMARK UNBOUND:                -0.196
REMARK  6 active torsions:
REMARK  status: ('A' for Active; 'I' for Inactive)
REMARK    1  A    between atoms: C_1  and  C_5 
REMARK    2  A    between atoms: C_1  and  O_6 
REMARK    3  A    between atoms: C_2  and  C_5 
REMARK    4  A    between atoms: C_4  and  C_8 
REMARK    5  A    between atoms: C_4  and  C_9 
REMARK    6  A    between atoms: C_5  and  C_8 
ROOT
HETATM    1  C   UNL     1      34.207  19.289  18.075  1.00  0.00     0.009 C 
ENDROOT
BRANCH   1   2
HETATM    2  C   UNL     1      33.009  19.782  18.891  1.00  0.00     0.168 C 
BRANCH   2   3
HETATM    3  O   UNL     1      31.852  18.941  18.745  1.00  0.00    -0.400 OA
ATOM      4  HO  UNL     1      31.251  19.013  19.477  1.00  0.00     0.209 HD
ENDBRANCH   2   3
ENDBRANCH   1   2
BRANCH   1   5
HETATM    5  C   UNL     1      35.495  19.705  18.781  1.00  0.00     0.002 C 
HETATM    6  C   UNL     1      36.663  19.436  17.850  1.00  0.00     0.005 C 
ENDBRANCH   1   5
BRANCH   1   7
HETATM    7  C   UNL     1      34.167  17.769  17.868  1.00  0.00     0.007 C 
BRANCH   7   8
HETATM    8  C   UNL     1      33.771  17.454  16.424  1.00  0.00     0.000 C 
BRANCH   8   9
HETATM    9  C   UNL     1      35.017  17.137  15.606  1.00  0.00    -0.005 C 
HETATM   10  C   UNL     1      35.724  15.895  16.140  1.00  0.00     0.005 C 
ENDBRANCH   8   9
ENDBRANCH   7   8
ENDBRANCH   1   7
TORSDOF 6
ENDMDL
