REMARK  1 active torsions:
REMARK  status: ('A' for Active; 'I' for Inactive)
REMARK    1  A    between atoms: C_4  and  C_8 
REMARK       I    between atoms: C_8  and  N_10 
ROOT
HETATM    1  N   UNL     1      -0.608   1.844   1.105  1.00  0.00    -0.374 N 
ATOM      2  HN  UNL     1      -0.989   2.401   1.870  1.00  0.00     0.164 HD
HETATM    3  C   UNL     1       0.214   0.800   1.393  1.00  0.00     0.104 A 
HETATM    4  C   UNL     1       0.750   0.010   0.359  1.00  0.00     0.047 A 
HETATM    5  C   UNL     1       0.425   0.343  -0.968  1.00  0.00     0.020 A 
HETATM    6  C   UNL     1      -0.422   1.421  -1.234  1.00  0.00     0.018 A 
HETATM    7  C   UNL     1      -0.936   2.166  -0.173  1.00  0.00     0.087 A 
ENDROOT
BRANCH   4   8
HETATM    8  C   UNL     1       1.651  -1.125   0.677  1.00  0.00     0.250 C 
HETATM    9  O   UNL     1       2.240  -1.159   1.792  1.00  0.00    -0.268 OA
HETATM   10  N   UNL     1       1.859  -2.197  -0.246  1.00  0.00    -0.366 N 
HETATM   11  H   UNL     1       2.543  -2.952  -0.019  1.00  0.00     0.159 HD
HETATM   12  H   UNL     1       1.282  -2.301  -1.109  1.00  0.00     0.159 HD
ENDBRANCH   4   8
TORSDOF 1
