MODEL 1
REMARK VINA RESULT:    -8.244      0.000      0.000
REMARK INTER + INTRA:          -9.864
REMARK INTER:                  -9.449
REMARK INTRA:                  -0.415
REMARK UNBOUND:                -0.415
REMARK  3 active torsions:
REMARK  status: ('A' for Active; 'I' for Inactive)
REMARK    1  A    between atoms: C_10  and  O_23 
REMARK    2  A    between atoms: C_12  and  N_18 
REMARK    3  A    between atoms: C_13  and  N_18 
ROOT
HETATM    1  N   UNL     1       6.723   0.142   0.362  1.00  0.00    -0.354 N 
ATOM      2  HN  UNL     1       7.730   0.282   0.286  1.00  0.00     0.166 HD
ENDROOT
BRANCH   1   3
HETATM    3  C   UNL     1       6.269  -0.775   1.378  1.00  0.00     0.033 A 
HETATM    4  C   UNL     1       5.445  -1.798   1.051  1.00  0.00     0.030 A 
HETATM    5  C   UNL     1       4.979  -2.649   2.031  1.00  0.00     0.010 A 
HETATM    6  C   UNL     1       5.376  -2.463   3.391  1.00  0.00    -0.049 A 
HETATM    7  C   UNL     1       4.867  -3.428   4.404  1.00  0.00     0.066 C 
HETATM    8  C   UNL     1       6.189  -1.474   3.702  1.00  0.00    -0.024 A 
HETATM    9  C   UNL     1       5.621  -3.379   5.719  1.00  0.00     0.237 C 
HETATM   10  N   UNL     1       5.878  -2.002   6.169  1.00  0.00    -0.071 N 
HETATM   11  C   UNL     1       6.656  -1.210   5.165  1.00  0.00     0.271 C 
ATOM     12  HN2 UNL     1       5.010  -1.529   6.418  1.00  0.00     0.277 HD
ATOM     13  HN1 UNL     1       6.336  -1.993   7.080  1.00  0.00     0.277 HD
HETATM   14  C   UNL     1       6.653  -0.576   2.689  1.00  0.00     0.038 A 
ENDBRANCH   1   3
BRANCH   1  15
HETATM   15  C   UNL     1       5.896   0.878  -0.552  1.00  0.00     0.076 A 
HETATM   16  C   UNL     1       5.893   0.476  -1.896  1.00  0.00     0.114 A 
HETATM   17 CL   UNL     1       6.925  -0.867  -2.432  1.00  0.00    -0.077 Cl
HETATM   18  C   UNL     1       5.067   1.164  -2.777  1.00  0.00     0.181 A 
HETATM   19  N   UNL     1       4.337   2.165  -2.362  1.00  0.00    -0.275 N 
HETATM   20  C   UNL     1       3.477   2.869  -3.309  1.00  0.00     0.180 C 
HETATM   21  N   UNL     1       4.352   2.528  -1.076  1.00  0.00    -0.306 N 
HETATM   22  C   UNL     1       5.077   1.928  -0.161  1.00  0.00     0.138 A 
ATOM     23  HN  UNL     1       3.768   3.314  -0.791  1.00  0.00     0.186 HD
BRANCH  18  24
HETATM   24  O   UNL     1       5.046   0.807  -4.107  1.00  0.00    -0.344 OA
ATOM     25  HO  UNL     1       4.229   0.526  -4.504  1.00  0.00     0.219 HD
ENDBRANCH  18  24
ENDBRANCH   1  15
TORSDOF 3
ENDMDL
MODEL 2
REMARK VINA RESULT:    -8.116      1.367      1.971
REMARK INTER + INTRA:          -9.717
REMARK INTER:                  -9.301
REMARK INTRA:                  -0.416
REMARK UNBOUND:                -0.415
REMARK  3 active torsions:
REMARK  status: ('A' for Active; 'I' for Inactive)
REMARK    1  A    between atoms: C_10  and  O_23 
REMARK    2  A    between atoms: C_12  and  N_18 
REMARK    3  A    between atoms: C_13  and  N_18 
ROOT
HETATM    1  N   UNL     1       6.586   0.116   0.867  1.00  0.00    -0.354 N 
ATOM      2  HN  UNL     1       7.523   0.461   0.658  1.00  0.00     0.166 HD
ENDROOT
BRANCH   1   3
HETATM    3  C   UNL     1       6.424  -0.624   2.093  1.00  0.00     0.033 A 
HETATM    4  C   UNL     1       7.024  -0.198   3.229  1.00  0.00     0.030 A 
HETATM    5  C   UNL     1       6.902  -0.931   4.391  1.00  0.00     0.010 A 
HETATM    6  C   UNL     1       6.129  -2.133   4.403  1.00  0.00    -0.049 A 
HETATM    7  C   UNL     1       6.006  -2.870   5.691  1.00  0.00     0.066 C 
HETATM    8  C   UNL     1       5.535  -2.536   3.299  1.00  0.00    -0.024 A 
HETATM    9  C   UNL     1       4.890  -3.897   5.696  1.00  0.00     0.237 C 
HETATM   10  N   UNL     1       4.851  -4.691   4.459  1.00  0.00    -0.071 N 
HETATM   11  C   UNL     1       4.684  -3.840   3.239  1.00  0.00     0.271 C 
ATOM     12  HN2 UNL     1       5.674  -5.289   4.380  1.00  0.00     0.277 HD
ATOM     13  HN1 UNL     1       4.131  -5.411   4.507  1.00  0.00     0.277 HD
HETATM   14  C   UNL     1       5.683  -1.789   2.087  1.00  0.00     0.038 A 
ENDBRANCH   1   3
BRANCH   1  15
HETATM   15  C   UNL     1       5.558   0.416  -0.089  1.00  0.00     0.076 A 
HETATM   16  C   UNL     1       5.452  -0.416  -1.214  1.00  0.00     0.114 A 
HETATM   17 CL   UNL     1       6.596  -1.754  -1.451  1.00  0.00    -0.077 Cl
HETATM   18  C   UNL     1       4.436  -0.149  -2.124  1.00  0.00     0.181 A 
HETATM   19  N   UNL     1       3.624   0.858  -1.940  1.00  0.00    -0.275 N 
HETATM   20  C   UNL     1       2.563   1.114  -2.912  1.00  0.00     0.180 C 
HETATM   21  N   UNL     1       3.739   1.634  -0.859  1.00  0.00    -0.306 N 
HETATM   22  C   UNL     1       4.649   1.452   0.071  1.00  0.00     0.138 A 
ATOM     23  HN  UNL     1       3.086   2.410  -0.750  1.00  0.00     0.186 HD
BRANCH  18  24
HETATM   24  O   UNL     1       4.307  -0.935  -3.248  1.00  0.00    -0.344 OA
ATOM     25  HO  UNL     1       4.916  -1.651  -3.391  1.00  0.00     0.219 HD
ENDBRANCH  18  24
ENDBRANCH   1  15
TORSDOF 3
ENDMDL
MODEL 3
REMARK VINA RESULT:    -8.107      1.483      2.027
REMARK INTER + INTRA:          -9.706
REMARK INTER:                  -9.409
REMARK INTRA:                  -0.297
REMARK UNBOUND:                -0.415
REMARK  3 active torsions:
REMARK  status: ('A' for Active; 'I' for Inactive)
REMARK    1  A    between atoms: C_10  and  O_23 
REMARK    2  A    between atoms: C_12  and  N_18 
REMARK    3  A    between atoms: C_13  and  N_18 
ROOT
HETATM    1  N   UNL     1       4.906  -0.678   0.031  1.00  0.00    -0.354 N 
ATOM      2  HN  UNL     1       4.283  -1.299  -0.484  1.00  0.00     0.166 HD
ENDROOT
BRANCH   1   3
HETATM    3  C   UNL     1       5.262  -1.076   1.370  1.00  0.00     0.033 A 
HETATM    4  C   UNL     1       6.116  -0.321   2.100  1.00  0.00     0.030 A 
HETATM    5  C   UNL     1       6.487  -0.726   3.364  1.00  0.00     0.010 A 
HETATM    6  C   UNL     1       5.959  -1.935   3.914  1.00  0.00    -0.049 A 
HETATM    7  C   UNL     1       6.371  -2.311   5.295  1.00  0.00     0.066 C 
HETATM    8  C   UNL     1       5.117  -2.659   3.206  1.00  0.00    -0.024 A 
HETATM    9  C   UNL     1       5.492  -3.379   5.918  1.00  0.00     0.237 C 
HETATM   10  N   UNL     1       5.189  -4.473   4.984  1.00  0.00    -0.071 N 
HETATM   11  C   UNL     1       4.510  -3.991   3.740  1.00  0.00     0.271 C 
ATOM     12  HN2 UNL     1       6.028  -5.009   4.761  1.00  0.00     0.277 HD
ATOM     13  HN1 UNL     1       4.645  -5.205   5.440  1.00  0.00     0.277 HD
HETATM   14  C   UNL     1       4.752  -2.252   1.883  1.00  0.00     0.038 A 
ENDBRANCH   1   3
BRANCH   1  15
HETATM   15  C   UNL     1       5.344   0.508  -0.650  1.00  0.00     0.076 A 
HETATM   16  C   UNL     1       6.303   0.360  -1.664  1.00  0.00     0.114 A 
HETATM   17 CL   UNL     1       6.973  -1.242  -2.039  1.00  0.00    -0.077 Cl
HETATM   18  C   UNL     1       6.703   1.502  -2.349  1.00  0.00     0.181 A 
HETATM   19  N   UNL     1       6.214   2.672  -2.037  1.00  0.00    -0.275 N 
HETATM   20  C   UNL     1       6.652   3.855  -2.773  1.00  0.00     0.180 C 
HETATM   21  N   UNL     1       5.299   2.789  -1.070  1.00  0.00    -0.306 N 
HETATM   22  C   UNL     1       4.836   1.771  -0.381  1.00  0.00     0.138 A 
ATOM     23  HN  UNL     1       4.940   3.720  -0.855  1.00  0.00     0.186 HD
BRANCH  18  24
HETATM   24  O   UNL     1       7.651   1.400  -3.343  1.00  0.00    -0.344 OA
ATOM     25  HO  UNL     1       7.457   0.897  -4.126  1.00  0.00     0.219 HD
ENDBRANCH  18  24
ENDBRANCH   1  15
TORSDOF 3
ENDMDL
MODEL 4
REMARK VINA RESULT:    -8.022      1.792      2.408
REMARK INTER + INTRA:          -9.610
REMARK INTER:                  -9.263
REMARK INTRA:                  -0.346
REMARK UNBOUND:                -0.415
REMARK  3 active torsions:
REMARK  status: ('A' for Active; 'I' for Inactive)
REMARK    1  A    between atoms: C_10  and  O_23 
REMARK    2  A    between atoms: C_12  and  N_18 
REMARK    3  A    between atoms: C_13  and  N_18 
ROOT
HETATM    1  N   UNL     1       5.677  -1.291  -0.288  1.00  0.00    -0.354 N 
ATOM      2  HN  UNL     1       5.342  -2.108  -0.798  1.00  0.00     0.166 HD
ENDROOT
BRANCH   1   3
HETATM    3  C   UNL     1       5.823  -1.431   1.139  1.00  0.00     0.033 A 
HETATM    4  C   UNL     1       6.553  -0.532   1.840  1.00  0.00     0.030 A 
HETATM    5  C   UNL     1       6.727  -0.691   3.198  1.00  0.00     0.010 A 
HETATM    6  C   UNL     1       6.123  -1.798   3.873  1.00  0.00    -0.049 A 
HETATM    7  C   UNL     1       6.318  -1.905   5.345  1.00  0.00     0.066 C 
HETATM    8  C   UNL     1       5.402  -2.663   3.190  1.00  0.00    -0.024 A 
HETATM    9  C   UNL     1       5.357  -2.871   6.013  1.00  0.00     0.237 C 
HETATM   10  N   UNL     1       5.205  -4.124   5.260  1.00  0.00    -0.071 N 
HETATM   11  C   UNL     1       4.724  -3.894   3.861  1.00  0.00     0.271 C 
ATOM     12  HN2 UNL     1       6.070  -4.665   5.267  1.00  0.00     0.277 HD
ATOM     13  HN1 UNL     1       4.599  -4.779   5.754  1.00  0.00     0.277 HD
HETATM   14  C   UNL     1       5.244  -2.511   1.776  1.00  0.00     0.038 A 
ENDBRANCH   1   3
BRANCH   1  15
HETATM   15  C   UNL     1       5.956  -0.114  -1.061  1.00  0.00     0.076 A 
HETATM   16  C   UNL     1       4.896   0.773  -1.303  1.00  0.00     0.114 A 
HETATM   17 CL   UNL     1       3.264   0.404  -0.706  1.00  0.00    -0.077 Cl
HETATM   18  C   UNL     1       5.170   1.930  -2.022  1.00  0.00     0.181 A 
HETATM   19  N   UNL     1       6.374   2.166  -2.472  1.00  0.00    -0.275 N 
HETATM   20  C   UNL     1       6.635   3.391  -3.223  1.00  0.00     0.180 C 
HETATM   21  N   UNL     1       7.370   1.310  -2.226  1.00  0.00    -0.306 N 
HETATM   22  C   UNL     1       7.221   0.202  -1.537  1.00  0.00     0.138 A 
ATOM     23  HN  UNL     1       8.296   1.528  -2.593  1.00  0.00     0.186 HD
BRANCH  18  24
HETATM   24  O   UNL     1       4.154   2.820  -2.290  1.00  0.00    -0.344 OA
ATOM     25  HO  UNL     1       3.788   2.862  -3.166  1.00  0.00     0.219 HD
ENDBRANCH  18  24
ENDBRANCH   1  15
TORSDOF 3
ENDMDL
MODEL 5
REMARK VINA RESULT:    -8.008      1.898      2.182
REMARK INTER + INTRA:          -9.594
REMARK INTER:                  -9.205
REMARK INTRA:                  -0.388
REMARK UNBOUND:                -0.415
REMARK  3 active torsions:
REMARK  status: ('A' for Active; 'I' for Inactive)
REMARK    1  A    between atoms: C_10  and  O_23 
REMARK    2  A    between atoms: C_12  and  N_18 
REMARK    3  A    between atoms: C_13  and  N_18 
ROOT
HETATM    1  N   UNL     1       5.978  -1.398  -0.141  1.00  0.00    -0.354 N 
ATOM      2  HN  UNL     1       5.920  -2.230  -0.728  1.00  0.00     0.166 HD
ENDROOT
BRANCH   1   3
HETATM    3  C   UNL     1       5.916  -1.601   1.284  1.00  0.00     0.033 A 
HETATM    4  C   UNL     1       5.125  -2.571   1.800  1.00  0.00     0.030 A 
HETATM    5  C   UNL     1       5.036  -2.736   3.165  1.00  0.00     0.010 A 
HETATM    6  C   UNL     1       5.791  -1.896   4.040  1.00  0.00    -0.049 A 
HETATM    7  C   UNL     1       5.681  -2.137   5.506  1.00  0.00     0.066 C 
HETATM    8  C   UNL     1       6.571  -0.963   3.535  1.00  0.00    -0.024 A 
HETATM    9  C   UNL     1       6.775  -1.465   6.313  1.00  0.00     0.237 C 
HETATM   10  N   UNL     1       7.031  -0.085   5.875  1.00  0.00    -0.071 N 
HETATM   11  C   UNL     1       7.415  -0.007   4.430  1.00  0.00     0.271 C 
ATOM     12  HN2 UNL     1       6.233   0.519   6.076  1.00  0.00     0.277 HD
ATOM     13  HN1 UNL     1       7.729   0.365   6.466  1.00  0.00     0.277 HD
HETATM   14  C   UNL     1       6.643  -0.774   2.117  1.00  0.00     0.038 A 
ENDBRANCH   1   3
BRANCH   1  15
HETATM   15  C   UNL     1       6.112  -0.138  -0.817  1.00  0.00     0.076 A 
HETATM   16  C   UNL     1       5.017   0.738  -0.785  1.00  0.00     0.114 A 
HETATM   17 CL   UNL     1       3.509   0.261   0.025  1.00  0.00    -0.077 Cl
HETATM   18  C   UNL     1       5.156   1.973  -1.408  1.00  0.00     0.181 A 
HETATM   19  N   UNL     1       6.266   2.290  -2.019  1.00  0.00    -0.275 N 
HETATM   20  C   UNL     1       6.386   3.595  -2.664  1.00  0.00     0.180 C 
HETATM   21  N   UNL     1       7.299   1.442  -2.033  1.00  0.00    -0.306 N 
HETATM   22  C   UNL     1       7.278   0.263  -1.454  1.00  0.00     0.138 A 
ATOM     23  HN  UNL     1       8.149   1.725  -2.519  1.00  0.00     0.186 HD
BRANCH  18  24
HETATM   24  O   UNL     1       4.099   2.856  -1.409  1.00  0.00    -0.344 OA
ATOM     25  HO  UNL     1       3.841   3.277  -2.221  1.00  0.00     0.219 HD
ENDBRANCH  18  24
ENDBRANCH   1  15
TORSDOF 3
ENDMDL
MODEL 6
REMARK VINA RESULT:    -7.447      2.431      3.213
REMARK INTER + INTRA:          -8.950
REMARK INTER:                  -8.534
REMARK INTRA:                  -0.416
REMARK UNBOUND:                -0.415
REMARK  3 active torsions:
REMARK  status: ('A' for Active; 'I' for Inactive)
REMARK    1  A    between atoms: C_10  and  O_23 
REMARK    2  A    between atoms: C_12  and  N_18 
REMARK    3  A    between atoms: C_13  and  N_18 
ROOT
HETATM    1  N   UNL     1       4.873  -1.515  -0.126  1.00  0.00    -0.354 N 
ATOM      2  HN  UNL     1       3.875  -1.629  -0.299  1.00  0.00     0.166 HD
ENDROOT
BRANCH   1   3
HETATM    3  C   UNL     1       5.300  -1.523   1.251  1.00  0.00     0.033 A 
HETATM    4  C   UNL     1       6.118  -0.550   1.715  1.00  0.00     0.030 A 
HETATM    5  C   UNL     1       6.558  -0.584   3.021  1.00  0.00     0.010 A 
HETATM    6  C   UNL     1       6.138  -1.636   3.893  1.00  0.00    -0.049 A 
HETATM    7  C   UNL     1       6.620  -1.607   5.302  1.00  0.00     0.066 C 
HETATM    8  C   UNL     1       5.331  -2.573   3.441  1.00  0.00    -0.024 A 
HETATM    9  C   UNL     1       5.843  -2.527   6.225  1.00  0.00     0.237 C 
HETATM   10  N   UNL     1       5.593  -3.846   5.625  1.00  0.00    -0.071 N 
HETATM   11  C   UNL     1       4.841  -3.752   4.333  1.00  0.00     0.271 C 
ATOM     12  HN2 UNL     1       6.462  -4.367   5.507  1.00  0.00     0.277 HD
ATOM     13  HN1 UNL     1       5.119  -4.465   6.282  1.00  0.00     0.277 HD
HETATM   14  C   UNL     1       4.895  -2.552   2.077  1.00  0.00     0.038 A 
ENDBRANCH   1   3
BRANCH   1  15
HETATM   15  C   UNL     1       5.717  -1.363  -1.278  1.00  0.00     0.076 A 
HETATM   16  C   UNL     1       6.293  -2.522  -1.821  1.00  0.00     0.114 A 
HETATM   17 CL   UNL     1       6.014  -4.103  -1.060  1.00  0.00    -0.077 Cl
HETATM   18  C   UNL     1       7.082  -2.383  -2.957  1.00  0.00     0.181 A 
HETATM   19  N   UNL     1       7.292  -1.205  -3.482  1.00  0.00    -0.275 N 
HETATM   20  C   UNL     1       8.124  -1.088  -4.677  1.00  0.00     0.180 C 
HETATM   21  N   UNL     1       6.730  -0.115  -2.951  1.00  0.00    -0.306 N 
HETATM   22  C   UNL     1       5.949  -0.142  -1.895  1.00  0.00     0.138 A 
ATOM     23  HN  UNL     1       6.917   0.786  -3.390  1.00  0.00     0.186 HD
BRANCH  18  24
HETATM   24  O   UNL     1       7.674  -3.495  -3.512  1.00  0.00    -0.344 OA
ATOM     25  HO  UNL     1       7.130  -4.208  -3.826  1.00  0.00     0.219 HD
ENDBRANCH  18  24
ENDBRANCH   1  15
TORSDOF 3
ENDMDL
MODEL 7
REMARK VINA RESULT:    -7.282      1.967      2.410
REMARK INTER + INTRA:          -8.762
REMARK INTER:                  -8.678
REMARK INTRA:                  -0.083
REMARK UNBOUND:                -0.415
REMARK  3 active torsions:
REMARK  status: ('A' for Active; 'I' for Inactive)
REMARK    1  A    between atoms: C_10  and  O_23 
REMARK    2  A    between atoms: C_12  and  N_18 
REMARK    3  A    between atoms: C_13  and  N_18 
ROOT
HETATM    1  N   UNL     1       5.977   0.648   0.379  1.00  0.00    -0.354 N 
ATOM      2  HN  UNL     1       5.873   1.619   0.673  1.00  0.00     0.166 HD
ENDROOT
BRANCH   1   3
HETATM    3  C   UNL     1       5.654  -0.364   1.354  1.00  0.00     0.033 A 
HETATM    4  C   UNL     1       4.651  -1.241   1.117  1.00  0.00     0.030 A 
HETATM    5  C   UNL     1       4.316  -2.180   2.068  1.00  0.00     0.010 A 
HETATM    6  C   UNL     1       5.039  -2.242   3.300  1.00  0.00    -0.049 A 
HETATM    7  C   UNL     1       4.655  -3.296   4.280  1.00  0.00     0.066 C 
HETATM    8  C   UNL     1       6.024  -1.396   3.521  1.00  0.00    -0.024 A 
HETATM    9  C   UNL     1       5.693  -3.519   5.364  1.00  0.00     0.237 C 
HETATM   10  N   UNL     1       6.225  -2.258   5.903  1.00  0.00    -0.071 N 
HETATM   11  C   UNL     1       6.846  -1.402   4.843  1.00  0.00     0.271 C 
ATOM     12  HN2 UNL     1       5.507  -1.746   6.415  1.00  0.00     0.277 HD
ATOM     13  HN1 UNL     1       6.878  -2.432   6.666  1.00  0.00     0.277 HD
HETATM   14  C   UNL     1       6.353  -0.404   2.543  1.00  0.00     0.038 A 
ENDBRANCH   1   3
BRANCH   1  15
HETATM   15  C   UNL     1       6.429   0.423  -0.965  1.00  0.00     0.076 A 
HETATM   16  C   UNL     1       6.683   1.548  -1.764  1.00  0.00     0.114 A 
HETATM   17 CL   UNL     1       6.396   3.182  -1.129  1.00  0.00    -0.077 Cl
HETATM   18  C   UNL     1       7.154   1.334  -3.054  1.00  0.00     0.181 A 
HETATM   19  N   UNL     1       7.332   0.122  -3.506  1.00  0.00    -0.275 N 
HETATM   20  C   UNL     1       7.830  -0.074  -4.865  1.00  0.00     0.180 C 
HETATM   21  N   UNL     1       7.089  -0.936  -2.726  1.00  0.00    -0.306 N 
HETATM   22  C   UNL     1       6.666  -0.841  -1.486  1.00  0.00     0.138 A 
ATOM     23  HN  UNL     1       7.241  -1.867  -3.114  1.00  0.00     0.186 HD
BRANCH  18  24
HETATM   24  O   UNL     1       7.402   2.413  -3.873  1.00  0.00    -0.344 OA
ATOM     25  HO  UNL     1       7.626   3.253  -3.488  1.00  0.00     0.219 HD
ENDBRANCH  18  24
ENDBRANCH   1  15
TORSDOF 3
ENDMDL
MODEL 8
REMARK VINA RESULT:    -7.235      3.282      7.337
REMARK INTER + INTRA:          -8.707
REMARK INTER:                  -8.415
REMARK INTRA:                  -0.292
REMARK UNBOUND:                -0.415
REMARK  3 active torsions:
REMARK  status: ('A' for Active; 'I' for Inactive)
REMARK    1  A    between atoms: C_10  and  O_23 
REMARK    2  A    between atoms: C_12  and  N_18 
REMARK    3  A    between atoms: C_13  and  N_18 
ROOT
HETATM    1  N   UNL     1       6.008   0.019   2.181  1.00  0.00    -0.354 N 
ATOM      2  HN  UNL     1       6.221   0.818   2.777  1.00  0.00     0.166 HD
ENDROOT
BRANCH   1   3
HETATM    3  C   UNL     1       6.038   0.243   0.757  1.00  0.00     0.033 A 
HETATM    4  C   UNL     1       6.957  -0.385  -0.011  1.00  0.00     0.030 A 
HETATM    5  C   UNL     1       7.011  -0.136  -1.366  1.00  0.00     0.010 A 
HETATM    6  C   UNL     1       6.085   0.773  -1.966  1.00  0.00    -0.049 A 
HETATM    7  C   UNL     1       6.168   0.982  -3.438  1.00  0.00     0.066 C 
HETATM    8  C   UNL     1       5.183   1.371  -1.217  1.00  0.00    -0.024 A 
HETATM    9  C   UNL     1       4.940   1.654  -4.023  1.00  0.00     0.237 C 
HETATM   10  N   UNL     1       4.475   2.785  -3.206  1.00  0.00    -0.071 N 
HETATM   11  C   UNL     1       4.149   2.379  -1.803  1.00  0.00     0.271 C 
ATOM     12  HN2 UNL     1       5.148   3.550  -3.221  1.00  0.00     0.277 HD
ATOM     13  HN1 UNL     1       3.684   3.255  -3.647  1.00  0.00     0.277 HD
HETATM   14  C   UNL     1       5.144   1.132   0.194  1.00  0.00     0.038 A 
ENDBRANCH   1   3
BRANCH   1  15
HETATM   15  C   UNL     1       5.708  -1.220   2.842  1.00  0.00     0.076 A 
HETATM   16  C   UNL     1       6.274  -1.436   4.107  1.00  0.00     0.114 A 
HETATM   17 CL   UNL     1       7.362  -0.228   4.822  1.00  0.00    -0.077 Cl
HETATM   18  C   UNL     1       5.957  -2.620   4.765  1.00  0.00     0.181 A 
HETATM   19  N   UNL     1       5.175  -3.504   4.206  1.00  0.00    -0.275 N 
HETATM   20  C   UNL     1       4.858  -4.738   4.920  1.00  0.00     0.180 C 
HETATM   21  N   UNL     1       4.643  -3.275   3.002  1.00  0.00    -0.306 N 
HETATM   22  C   UNL     1       4.859  -2.180   2.309  1.00  0.00     0.138 A 
ATOM     23  HN  UNL     1       4.037  -3.989   2.598  1.00  0.00     0.186 HD
BRANCH  18  24
HETATM   24  O   UNL     1       6.503  -2.874   6.003  1.00  0.00    -0.344 OA
ATOM     25  HO  UNL     1       6.220  -3.639   6.492  1.00  0.00     0.219 HD
ENDBRANCH  18  24
ENDBRANCH   1  15
TORSDOF 3
ENDMDL
MODEL 9
REMARK VINA RESULT:    -7.234      5.257      7.608
REMARK INTER + INTRA:          -8.706
REMARK INTER:                  -8.299
REMARK INTRA:                  -0.407
REMARK UNBOUND:                -0.415
REMARK  3 active torsions:
REMARK  status: ('A' for Active; 'I' for Inactive)
REMARK    1  A    between atoms: C_10  and  O_23 
REMARK    2  A    between atoms: C_12  and  N_18 
REMARK    3  A    between atoms: C_13  and  N_18 
ROOT
HETATM    1  N   UNL     1       4.368  -4.910   3.596  1.00  0.00    -0.354 N 
ATOM      2  HN  UNL     1       3.354  -4.964   3.691  1.00  0.00     0.166 HD
ENDROOT
BRANCH   1   3
HETATM    3  C   UNL     1       5.019  -3.780   4.210  1.00  0.00     0.033 A 
HETATM    4  C   UNL     1       5.092  -3.688   5.559  1.00  0.00     0.030 A 
HETATM    5  C   UNL     1       5.678  -2.586   6.144  1.00  0.00     0.010 A 
HETATM    6  C   UNL     1       6.225  -1.546   5.329  1.00  0.00    -0.049 A 
HETATM    7  C   UNL     1       6.872  -0.393   6.013  1.00  0.00     0.066 C 
HETATM    8  C   UNL     1       6.164  -1.647   4.018  1.00  0.00    -0.024 A 
HETATM    9  C   UNL     1       7.732   0.451   5.092  1.00  0.00     0.237 C 
HETATM   10  N   UNL     1       7.082   0.712   3.799  1.00  0.00    -0.071 N 
HETATM   11  C   UNL     1       6.732  -0.548   3.071  1.00  0.00     0.271 C 
ATOM     12  HN2 UNL     1       6.264   1.310   3.913  1.00  0.00     0.277 HD
ATOM     13  HN1 UNL     1       7.653   1.326   3.218  1.00  0.00     0.277 HD
HETATM   14  C   UNL     1       5.532  -2.779   3.411  1.00  0.00     0.038 A 
ENDBRANCH   1   3
BRANCH   1  15
HETATM   15  C   UNL     1       5.006  -5.967   2.864  1.00  0.00     0.076 A 
HETATM   16  C   UNL     1       5.367  -7.124   3.573  1.00  0.00     0.114 A 
HETATM   17 CL   UNL     1       5.080  -7.230   5.322  1.00  0.00    -0.077 Cl
HETATM   18  C   UNL     1       5.954  -8.163   2.861  1.00  0.00     0.181 A 
HETATM   19  N   UNL     1       6.178  -8.050   1.579  1.00  0.00    -0.275 N 
HETATM   20  C   UNL     1       6.795  -9.158   0.855  1.00  0.00     0.180 C 
HETATM   21  N   UNL     1       5.822  -6.941   0.923  1.00  0.00    -0.306 N 
HETATM   22  C   UNL     1       5.240  -5.914   1.498  1.00  0.00     0.138 A 
ATOM     23  HN  UNL     1       6.013  -6.890  -0.078  1.00  0.00     0.186 HD
BRANCH  18  24
HETATM   24  O   UNL     1       6.334  -9.310   3.523  1.00  0.00    -0.344 OA
ATOM     25  HO  UNL     1       5.914 -10.135   3.309  1.00  0.00     0.219 HD
ENDBRANCH  18  24
ENDBRANCH   1  15
TORSDOF 3
ENDMDL
MODEL 10
REMARK VINA RESULT:    -7.127      5.123      9.048
REMARK INTER + INTRA:          -8.583
REMARK INTER:                  -8.188
REMARK INTRA:                  -0.395
REMARK UNBOUND:                -0.415
REMARK  3 active torsions:
REMARK  status: ('A' for Active; 'I' for Inactive)
REMARK    1  A    between atoms: C_10  and  O_23 
REMARK    2  A    between atoms: C_12  and  N_18 
REMARK    3  A    between atoms: C_13  and  N_18 
ROOT
HETATM    1  N   UNL     1       4.406  -6.131   4.760  1.00  0.00    -0.354 N 
ATOM      2  HN  UNL     1       3.398  -6.271   4.692  1.00  0.00     0.166 HD
ENDROOT
BRANCH   1   3
HETATM    3  C   UNL     1       4.894  -4.797   4.518  1.00  0.00     0.033 A 
HETATM    4  C   UNL     1       5.526  -4.114   5.501  1.00  0.00     0.030 A 
HETATM    5  C   UNL     1       5.954  -2.823   5.280  1.00  0.00     0.010 A 
HETATM    6  C   UNL     1       5.748  -2.207   4.006  1.00  0.00    -0.049 A 
HETATM    7  C   UNL     1       6.257  -0.821   3.812  1.00  0.00     0.066 C 
HETATM    8  C   UNL     1       5.146  -2.880   3.048  1.00  0.00    -0.024 A 
HETATM    9  C   UNL     1       6.327  -0.401   2.356  1.00  0.00     0.237 C 
HETATM   10  N   UNL     1       5.127  -0.791   1.600  1.00  0.00    -0.071 N 
HETATM   11  C   UNL     1       4.882  -2.267   1.640  1.00  0.00     0.271 C 
ATOM     12  HN2 UNL     1       4.308  -0.274   1.919  1.00  0.00     0.277 HD
ATOM     13  HN1 UNL     1       5.171  -0.451   0.640  1.00  0.00     0.277 HD
HETATM   14  C   UNL     1       4.678  -4.212   3.286  1.00  0.00     0.038 A 
ENDBRANCH   1   3
BRANCH   1  15
HETATM   15  C   UNL     1       5.199  -7.282   5.089  1.00  0.00     0.076 A 
HETATM   16  C   UNL     1       5.776  -7.999   4.030  1.00  0.00     0.114 A 
HETATM   17 CL   UNL     1       5.476  -7.511   2.348  1.00  0.00    -0.077 Cl
HETATM   18  C   UNL     1       6.573  -9.093   4.346  1.00  0.00     0.181 A 
HETATM   19  N   UNL     1       6.756  -9.447   5.590  1.00  0.00    -0.275 N 
HETATM   20  C   UNL     1       7.600 -10.600   5.894  1.00  0.00     0.180 C 
HETATM   21  N   UNL     1       6.201  -8.747   6.584  1.00  0.00    -0.306 N 
HETATM   22  C   UNL     1       5.453  -7.684   6.392  1.00  0.00     0.138 A 
ATOM     23  HN  UNL     1       6.368  -9.053   7.542  1.00  0.00     0.186 HD
BRANCH  18  24
HETATM   24  O   UNL     1       7.146  -9.831   3.333  1.00  0.00    -0.344 OA
ATOM     25  HO  UNL     1       6.634 -10.499   2.893  1.00  0.00     0.219 HD
ENDBRANCH  18  24
ENDBRANCH   1  15
TORSDOF 3
ENDMDL
MODEL 11
REMARK VINA RESULT:    -7.058      3.329      7.325
REMARK INTER + INTRA:          -8.504
REMARK INTER:                  -8.298
REMARK INTRA:                  -0.206
REMARK UNBOUND:                -0.415
REMARK  3 active torsions:
REMARK  status: ('A' for Active; 'I' for Inactive)
REMARK    1  A    between atoms: C_10  and  O_23 
REMARK    2  A    between atoms: C_12  and  N_18 
REMARK    3  A    between atoms: C_13  and  N_18 
ROOT
HETATM    1  N   UNL     1       6.527   0.004   1.775  1.00  0.00    -0.354 N 
ATOM      2  HN  UNL     1       7.253   0.638   2.107  1.00  0.00     0.166 HD
ENDROOT
BRANCH   1   3
HETATM    3  C   UNL     1       5.966   0.281   0.477  1.00  0.00     0.033 A 
HETATM    4  C   UNL     1       4.689   0.714   0.366  1.00  0.00     0.030 A 
HETATM    5  C   UNL     1       4.141   0.937  -0.880  1.00  0.00     0.010 A 
HETATM    6  C   UNL     1       4.926   0.729  -2.056  1.00  0.00    -0.049 A 
HETATM    7  C   UNL     1       4.294   1.014  -3.374  1.00  0.00     0.066 C 
HETATM    8  C   UNL     1       6.173   0.321  -1.943  1.00  0.00    -0.024 A 
HETATM    9  C   UNL     1       5.292   1.122  -4.512  1.00  0.00     0.237 C 
HETATM   10  N   UNL     1       6.313   0.064  -4.467  1.00  0.00    -0.071 N 
HETATM   11  C   UNL     1       7.081   0.066  -3.183  1.00  0.00     0.271 C 
ATOM     12  HN2 UNL     1       5.901  -0.851  -4.649  1.00  0.00     0.277 HD
ATOM     13  HN1 UNL     1       6.938   0.124  -5.271  1.00  0.00     0.277 HD
HETATM   14  C   UNL     1       6.732   0.064  -0.651  1.00  0.00     0.038 A 
ENDBRANCH   1   3
BRANCH   1  15
HETATM   15  C   UNL     1       6.163  -1.077   2.647  1.00  0.00     0.076 A 
HETATM   16  C   UNL     1       6.652  -1.045   3.962  1.00  0.00     0.114 A 
HETATM   17 CL   UNL     1       7.724   0.270   4.490  1.00  0.00    -0.077 Cl
HETATM   18  C   UNL     1       6.274  -2.072   4.820  1.00  0.00     0.181 A 
HETATM   19  N   UNL     1       5.505  -3.041   4.400  1.00  0.00    -0.275 N 
HETATM   20  C   UNL     1       5.122  -4.107   5.322  1.00  0.00     0.180 C 
HETATM   21  N   UNL     1       5.047  -3.049   3.144  1.00  0.00    -0.306 N 
HETATM   22  C   UNL     1       5.325  -2.114   2.265  1.00  0.00     0.138 A 
ATOM     23  HN  UNL     1       4.449  -3.822   2.854  1.00  0.00     0.186 HD
BRANCH  18  24
HETATM   24  O   UNL     1       6.743  -2.083   6.114  1.00  0.00    -0.344 OA
ATOM     25  HO  UNL     1       7.624  -2.393   6.291  1.00  0.00     0.219 HD
ENDBRANCH  18  24
ENDBRANCH   1  15
TORSDOF 3
ENDMDL
MODEL 12
REMARK VINA RESULT:    -7.054      3.347      7.353
REMARK INTER + INTRA:          -8.500
REMARK INTER:                  -8.177
REMARK INTRA:                  -0.323
REMARK UNBOUND:                -0.415
REMARK  3 active torsions:
REMARK  status: ('A' for Active; 'I' for Inactive)
REMARK    1  A    between atoms: C_10  and  O_23 
REMARK    2  A    between atoms: C_12  and  N_18 
REMARK    3  A    between atoms: C_13  and  N_18 
ROOT
HETATM    1  N   UNL     1       6.657  -1.158   1.999  1.00  0.00    -0.354 N 
ATOM      2  HN  UNL     1       6.970  -2.081   1.698  1.00  0.00     0.166 HD
ENDROOT
BRANCH   1   3
HETATM    3  C   UNL     1       6.227  -0.250   0.965  1.00  0.00     0.033 A 
HETATM    4  C   UNL     1       5.149   0.544   1.164  1.00  0.00     0.030 A 
HETATM    5  C   UNL     1       4.714   1.382   0.159  1.00  0.00     0.010 A 
HETATM    6  C   UNL     1       5.410   1.426  -1.089  1.00  0.00    -0.049 A 
HETATM    7  C   UNL     1       4.915   2.370  -2.129  1.00  0.00     0.066 C 
HETATM    8  C   UNL     1       6.466   0.663  -1.273  1.00  0.00    -0.024 A 
HETATM    9  C   UNL     1       5.911   2.615  -3.246  1.00  0.00     0.237 C 
HETATM   10  N   UNL     1       6.552   1.376  -3.710  1.00  0.00    -0.071 N 
HETATM   11  C   UNL     1       7.266   0.655  -2.610  1.00  0.00     0.271 C 
ATOM     12  HN2 UNL     1       5.878   0.765  -4.173  1.00  0.00     0.277 HD
ATOM     13  HN1 UNL     1       7.175   1.556  -4.497  1.00  0.00     0.277 HD
HETATM   14  C   UNL     1       6.902  -0.226  -0.238  1.00  0.00     0.038 A 
ENDBRANCH   1   3
BRANCH   1  15
HETATM   15  C   UNL     1       6.688  -0.892   3.409  1.00  0.00     0.076 A 
HETATM   16  C   UNL     1       6.026  -1.793   4.256  1.00  0.00     0.114 A 
HETATM   17 CL   UNL     1       5.146  -3.180   3.580  1.00  0.00    -0.077 Cl
HETATM   18  C   UNL     1       6.084  -1.557   5.625  1.00  0.00     0.181 A 
HETATM   19  N   UNL     1       6.716  -0.516   6.096  1.00  0.00    -0.275 N 
HETATM   20  C   UNL     1       6.762  -0.293   7.539  1.00  0.00     0.180 C 
HETATM   21  N   UNL     1       7.343   0.328   5.271  1.00  0.00    -0.306 N 
HETATM   22  C   UNL     1       7.370   0.181   3.966  1.00  0.00     0.138 A 
ATOM     23  HN  UNL     1       7.827   1.129   5.676  1.00  0.00     0.186 HD
BRANCH  18  24
HETATM   24  O   UNL     1       5.436  -2.413   6.489  1.00  0.00    -0.344 OA
ATOM     25  HO  UNL     1       4.765  -2.997   6.155  1.00  0.00     0.219 HD
ENDBRANCH  18  24
ENDBRANCH   1  15
TORSDOF 3
ENDMDL
MODEL 13
REMARK VINA RESULT:    -6.915      3.323      7.223
REMARK INTER + INTRA:          -8.341
REMARK INTER:                  -8.098
REMARK INTRA:                  -0.243
REMARK UNBOUND:                -0.415
REMARK  3 active torsions:
REMARK  status: ('A' for Active; 'I' for Inactive)
REMARK    1  A    between atoms: C_10  and  O_23 
REMARK    2  A    between atoms: C_12  and  N_18 
REMARK    3  A    between atoms: C_13  and  N_18 
ROOT
HETATM    1  N   UNL     1       5.919  -1.804   1.802  1.00  0.00    -0.354 N 
ATOM      2  HN  UNL     1       5.738  -2.801   1.691  1.00  0.00     0.166 HD
ENDROOT
BRANCH   1   3
HETATM    3  C   UNL     1       5.879  -0.999   0.607  1.00  0.00     0.033 A 
HETATM    4  C   UNL     1       7.021  -0.714  -0.060  1.00  0.00     0.030 A 
HETATM    5  C   UNL     1       6.985   0.091  -1.179  1.00  0.00     0.010 A 
HETATM    6  C   UNL     1       5.739   0.614  -1.646  1.00  0.00    -0.049 A 
HETATM    7  C   UNL     1       5.754   1.454  -2.876  1.00  0.00     0.066 C 
HETATM    8  C   UNL     1       4.628   0.323  -1.002  1.00  0.00    -0.024 A 
HETATM    9  C   UNL     1       4.381   1.647  -3.492  1.00  0.00     0.237 C 
HETATM   10  N   UNL     1       3.349   1.941  -2.487  1.00  0.00    -0.071 N 
HETATM   11  C   UNL     1       3.239   0.866  -1.451  1.00  0.00     0.271 C 
ATOM     12  HN2 UNL     1       3.505   2.852  -2.056  1.00  0.00     0.277 HD
ATOM     13  HN1 UNL     1       2.448   2.121  -2.928  1.00  0.00     0.277 HD
HETATM   14  C   UNL     1       4.670  -0.491   0.175  1.00  0.00     0.038 A 
ENDBRANCH   1   3
BRANCH   1  15
HETATM   15  C   UNL     1       6.190  -1.340   3.133  1.00  0.00     0.076 A 
HETATM   16  C   UNL     1       5.772  -2.147   4.202  1.00  0.00     0.114 A 
HETATM   17 CL   UNL     1       4.893  -3.660   3.893  1.00  0.00    -0.077 Cl
HETATM   18  C   UNL     1       6.063  -1.718   5.492  1.00  0.00     0.181 A 
HETATM   19  N   UNL     1       6.688  -0.588   5.693  1.00  0.00    -0.275 N 
HETATM   20  C   UNL     1       6.982  -0.162   7.058  1.00  0.00     0.180 C 
HETATM   21  N   UNL     1       7.081   0.163   4.660  1.00  0.00    -0.306 N 
HETATM   22  C   UNL     1       6.877  -0.165   3.405  1.00  0.00     0.138 A 
ATOM     23  HN  UNL     1       7.567   1.038   4.857  1.00  0.00     0.186 HD
BRANCH  18  24
HETATM   24  O   UNL     1       5.658  -2.476   6.567  1.00  0.00    -0.344 OA
ATOM     25  HO  UNL     1       5.523  -2.059   7.411  1.00  0.00     0.219 HD
ENDBRANCH  18  24
ENDBRANCH   1  15
TORSDOF 3
ENDMDL
MODEL 14
REMARK VINA RESULT:    -6.844      4.676      6.202
REMARK INTER + INTRA:          -8.260
REMARK INTER:                  -7.849
REMARK INTRA:                  -0.410
REMARK UNBOUND:                -0.415
REMARK  3 active torsions:
REMARK  status: ('A' for Active; 'I' for Inactive)
REMARK    1  A    between atoms: C_10  and  O_23 
REMARK    2  A    between atoms: C_12  and  N_18 
REMARK    3  A    between atoms: C_13  and  N_18 
ROOT
HETATM    1  N   UNL     1       7.585   0.863   4.365  1.00  0.00    -0.354 N 
ATOM      2  HN  UNL     1       8.457   1.054   3.871  1.00  0.00     0.166 HD
ENDROOT
BRANCH   1   3
HETATM    3  C   UNL     1       6.875  -0.334   3.992  1.00  0.00     0.033 A 
HETATM    4  C   UNL     1       6.402  -0.480   2.732  1.00  0.00     0.030 A 
HETATM    5  C   UNL     1       5.687  -1.608   2.390  1.00  0.00     0.010 A 
HETATM    6  C   UNL     1       5.457  -2.634   3.359  1.00  0.00    -0.049 A 
HETATM    7  C   UNL     1       4.704  -3.844   2.928  1.00  0.00     0.066 C 
HETATM    8  C   UNL     1       5.931  -2.494   4.580  1.00  0.00    -0.024 A 
HETATM    9  C   UNL     1       4.832  -5.010   3.889  1.00  0.00     0.237 C 
HETATM   10  N   UNL     1       4.698  -4.598   5.294  1.00  0.00    -0.071 N 
HETATM   11  C   UNL     1       5.711  -3.568   5.686  1.00  0.00     0.271 C 
ATOM     12  HN2 UNL     1       3.751  -4.276   5.494  1.00  0.00     0.277 HD
ATOM     13  HN1 UNL     1       4.732  -5.404   5.919  1.00  0.00     0.277 HD
HETATM   14  C   UNL     1       6.652  -1.311   4.942  1.00  0.00     0.038 A 
ENDBRANCH   1   3
BRANCH   1  15
HETATM   15  C   UNL     1       7.186   1.814   5.363  1.00  0.00     0.076 A 
HETATM   16  C   UNL     1       6.396   2.899   4.951  1.00  0.00     0.114 A 
HETATM   17 CL   UNL     1       5.963   3.093   3.239  1.00  0.00    -0.077 Cl
HETATM   18  C   UNL     1       5.978   3.802   5.921  1.00  0.00     0.181 A 
HETATM   19  N   UNL     1       6.332   3.651   7.170  1.00  0.00    -0.275 N 
HETATM   20  C   UNL     1       5.878   4.615   8.168  1.00  0.00     0.180 C 
HETATM   21  N   UNL     1       7.081   2.608   7.541  1.00  0.00    -0.306 N 
HETATM   22  C   UNL     1       7.506   1.686   6.708  1.00  0.00     0.138 A 
ATOM     23  HN  UNL     1       7.336   2.524   8.525  1.00  0.00     0.186 HD
BRANCH  18  24
HETATM   24  O   UNL     1       5.213   4.887   5.554  1.00  0.00    -0.344 OA
ATOM     25  HO  UNL     1       5.530   5.478   4.882  1.00  0.00     0.219 HD
ENDBRANCH  18  24
ENDBRANCH   1  15
TORSDOF 3
ENDMDL
MODEL 15
REMARK VINA RESULT:    -6.416      4.026      7.152
REMARK INTER + INTRA:          -7.768
REMARK INTER:                  -7.553
REMARK INTRA:                  -0.215
REMARK UNBOUND:                -0.415
REMARK  3 active torsions:
REMARK  status: ('A' for Active; 'I' for Inactive)
REMARK    1  A    between atoms: C_10  and  O_23 
REMARK    2  A    between atoms: C_12  and  N_18 
REMARK    3  A    between atoms: C_13  and  N_18 
ROOT
HETATM    1  N   UNL     1       5.223  -2.197   1.323  1.00  0.00    -0.354 N 
ATOM      2  HN  UNL     1       4.349  -2.708   1.444  1.00  0.00     0.166 HD
ENDROOT
BRANCH   1   3
HETATM    3  C   UNL     1       5.726  -2.079  -0.023  1.00  0.00     0.033 A 
HETATM    4  C   UNL     1       5.523  -0.941  -0.727  1.00  0.00     0.030 A 
HETATM    5  C   UNL     1       5.968  -0.846  -2.029  1.00  0.00     0.010 A 
HETATM    6  C   UNL     1       6.659  -1.942  -2.632  1.00  0.00    -0.049 A 
HETATM    7  C   UNL     1       7.144  -1.775  -4.030  1.00  0.00     0.066 C 
HETATM    8  C   UNL     1       6.867  -3.042  -1.938  1.00  0.00    -0.024 A 
HETATM    9  C   UNL     1       8.165  -2.818  -4.444  1.00  0.00     0.237 C 
HETATM   10  N   UNL     1       7.789  -4.174  -4.018  1.00  0.00    -0.071 N 
HETATM   11  C   UNL     1       7.605  -4.277  -2.536  1.00  0.00     0.271 C 
ATOM     12  HN2 UNL     1       6.959  -4.498  -4.515  1.00  0.00     0.277 HD
ATOM     13  HN1 UNL     1       8.460  -4.864  -4.355  1.00  0.00     0.277 HD
HETATM   14  C   UNL     1       6.382  -3.150  -0.596  1.00  0.00     0.038 A 
ENDBRANCH   1   3
BRANCH   1  15
HETATM   15  C   UNL     1       5.832  -1.666   2.509  1.00  0.00     0.076 A 
HETATM   16  C   UNL     1       5.743  -2.428   3.684  1.00  0.00     0.114 A 
HETATM   17 CL   UNL     1       4.859  -3.969   3.689  1.00  0.00    -0.077 Cl
HETATM   18  C   UNL     1       6.362  -1.933   4.826  1.00  0.00     0.181 A 
HETATM   19  N   UNL     1       6.984  -0.785   4.803  1.00  0.00    -0.275 N 
HETATM   20  C   UNL     1       7.626  -0.289   6.017  1.00  0.00     0.180 C 
HETATM   21  N   UNL     1       7.060  -0.077   3.671  1.00  0.00    -0.306 N 
HETATM   22  C   UNL     1       6.532  -0.468   2.534  1.00  0.00     0.138 A 
ATOM     23  HN  UNL     1       7.555   0.814   3.692  1.00  0.00     0.186 HD
BRANCH  18  24
HETATM   24  O   UNL     1       6.287  -2.646   6.002  1.00  0.00    -0.344 OA
ATOM     25  HO  UNL     1       6.081  -3.574   5.975  1.00  0.00     0.219 HD
ENDBRANCH  18  24
ENDBRANCH   1  15
TORSDOF 3
ENDMDL
MODEL 16
REMARK VINA RESULT:    -6.383      4.458      6.547
REMARK INTER + INTRA:          -7.730
REMARK INTER:                  -7.344
REMARK INTRA:                  -0.386
REMARK UNBOUND:                -0.415
REMARK  3 active torsions:
REMARK  status: ('A' for Active; 'I' for Inactive)
REMARK    1  A    between atoms: C_10  and  O_23 
REMARK    2  A    between atoms: C_12  and  N_18 
REMARK    3  A    between atoms: C_13  and  N_18 
ROOT
HETATM    1  N   UNL     1       4.562  -3.973   4.063  1.00  0.00    -0.354 N 
ATOM      2  HN  UNL     1       3.571  -3.782   3.919  1.00  0.00     0.166 HD
ENDROOT
BRANCH   1   3
HETATM    3  C   UNL     1       4.968  -5.356   4.039  1.00  0.00     0.033 A 
HETATM    4  C   UNL     1       5.100  -6.005   2.858  1.00  0.00     0.030 A 
HETATM    5  C   UNL     1       5.446  -7.340   2.839  1.00  0.00     0.010 A 
HETATM    6  C   UNL     1       5.684  -8.037   4.065  1.00  0.00    -0.049 A 
HETATM    7  C   UNL     1       6.084  -9.469   3.985  1.00  0.00     0.066 C 
HETATM    8  C   UNL     1       5.568  -7.397   5.210  1.00  0.00    -0.024 A 
HETATM    9  C   UNL     1       6.665 -10.007   5.279  1.00  0.00     0.237 C 
HETATM   10  N   UNL     1       5.894  -9.587   6.459  1.00  0.00    -0.071 N 
HETATM   11  C   UNL     1       5.804  -8.098   6.581  1.00  0.00     0.271 C 
ATOM     12  HN2 UNL     1       4.967 -10.012   6.462  1.00  0.00     0.277 HD
ATOM     13  HN1 UNL     1       6.268 -10.005   7.310  1.00  0.00     0.277 HD
HETATM   14  C   UNL     1       5.182  -6.019   5.230  1.00  0.00     0.038 A 
ENDBRANCH   1   3
BRANCH   1  15
HETATM   15  C   UNL     1       5.417  -2.839   4.270  1.00  0.00     0.076 A 
HETATM   16  C   UNL     1       5.716  -2.037   3.158  1.00  0.00     0.114 A 
HETATM   17 CL   UNL     1       5.088  -2.461   1.552  1.00  0.00    -0.077 Cl
HETATM   18  C   UNL     1       6.515  -0.917   3.362  1.00  0.00     0.181 A 
HETATM   19  N   UNL     1       6.985  -0.641   4.549  1.00  0.00    -0.275 N 
HETATM   20  C   UNL     1       7.821   0.542   4.735  1.00  0.00     0.180 C 
HETATM   21  N   UNL     1       6.684  -1.417   5.595  1.00  0.00    -0.306 N 
HETATM   22  C   UNL     1       5.919  -2.481   5.514  1.00  0.00     0.138 A 
ATOM     23  HN  UNL     1       7.070  -1.168   6.506  1.00  0.00     0.186 HD
BRANCH  18  24
HETATM   24  O   UNL     1       6.840  -0.112   2.293  1.00  0.00    -0.344 OA
ATOM     25  HO  UNL     1       7.170   0.765   2.451  1.00  0.00     0.219 HD
ENDBRANCH  18  24
ENDBRANCH   1  15
TORSDOF 3
ENDMDL
MODEL 17
REMARK VINA RESULT:    -6.241      4.643      6.728
REMARK INTER + INTRA:          -7.568
REMARK INTER:                  -7.163
REMARK INTRA:                  -0.405
REMARK UNBOUND:                -0.415
REMARK  3 active torsions:
REMARK  status: ('A' for Active; 'I' for Inactive)
REMARK    1  A    between atoms: C_10  and  O_23 
REMARK    2  A    between atoms: C_12  and  N_18 
REMARK    3  A    between atoms: C_13  and  N_18 
ROOT
HETATM    1  N   UNL     1       4.868  -2.489   1.723  1.00  0.00    -0.354 N 
ATOM      2  HN  UNL     1       3.857  -2.361   1.762  1.00  0.00     0.166 HD
ENDROOT
BRANCH   1   3
HETATM    3  C   UNL     1       5.367  -3.438   0.760  1.00  0.00     0.033 A 
HETATM    4  C   UNL     1       6.025  -3.008  -0.342  1.00  0.00     0.030 A 
HETATM    5  C   UNL     1       6.464  -3.915  -1.282  1.00  0.00     0.010 A 
HETATM    6  C   UNL     1       6.242  -5.314  -1.088  1.00  0.00    -0.049 A 
HETATM    7  C   UNL     1       6.763  -6.252  -2.120  1.00  0.00     0.066 C 
HETATM    8  C   UNL     1       5.615  -5.729  -0.007  1.00  0.00    -0.024 A 
HETATM    9  C   UNL     1       6.811  -7.695  -1.656  1.00  0.00     0.237 C 
HETATM   10  N   UNL     1       5.593  -8.095  -0.935  1.00  0.00    -0.071 N 
HETATM   11  C   UNL     1       5.332  -7.237   0.263  1.00  0.00     0.271 C 
ATOM     12  HN2 UNL     1       4.786  -8.111  -1.559  1.00  0.00     0.277 HD
ATOM     13  HN1 UNL     1       5.624  -9.082  -0.682  1.00  0.00     0.277 HD
HETATM   14  C   UNL     1       5.136  -4.785   0.956  1.00  0.00     0.038 A 
ENDBRANCH   1   3
BRANCH   1  15
HETATM   15  C   UNL     1       5.655  -1.705   2.633  1.00  0.00     0.076 A 
HETATM   16  C   UNL     1       5.851  -2.211   3.927  1.00  0.00     0.114 A 
HETATM   17 CL   UNL     1       5.098  -3.744   4.414  1.00  0.00    -0.077 Cl
HETATM   18  C   UNL     1       6.641  -1.471   4.800  1.00  0.00     0.181 A 
HETATM   19  N   UNL     1       7.162  -0.333   4.425  1.00  0.00    -0.275 N 
HETATM   20  C   UNL     1       7.989   0.423   5.362  1.00  0.00     0.180 C 
HETATM   21  N   UNL     1       6.966   0.128   3.186  1.00  0.00    -0.306 N 
HETATM   22  C   UNL     1       6.257  -0.506   2.280  1.00  0.00     0.138 A 
ATOM     23  HN  UNL     1       7.389   1.020   2.931  1.00  0.00     0.186 HD
BRANCH  18  24
HETATM   24  O   UNL     1       6.846  -1.928   6.082  1.00  0.00    -0.344 OA
ATOM     25  HO  UNL     1       6.708  -2.847   6.280  1.00  0.00     0.219 HD
ENDBRANCH  18  24
ENDBRANCH   1  15
TORSDOF 3
ENDMDL
MODEL 18
REMARK VINA RESULT:    -6.209      4.950      6.734
REMARK INTER + INTRA:          -7.531
REMARK INTER:                  -7.175
REMARK INTRA:                  -0.356
REMARK UNBOUND:                -0.415
REMARK  3 active torsions:
REMARK  status: ('A' for Active; 'I' for Inactive)
REMARK    1  A    between atoms: C_10  and  O_23 
REMARK    2  A    between atoms: C_12  and  N_18 
REMARK    3  A    between atoms: C_13  and  N_18 
ROOT
HETATM    1  N   UNL     1       4.482  -3.132   3.430  1.00  0.00    -0.354 N 
ATOM      2  HN  UNL     1       3.498  -2.865   3.396  1.00  0.00     0.166 HD
ENDROOT
BRANCH   1   3
HETATM    3  C   UNL     1       4.796  -4.502   3.110  1.00  0.00     0.033 A 
HETATM    4  C   UNL     1       4.954  -4.879   1.819  1.00  0.00     0.030 A 
HETATM    5  C   UNL     1       5.212  -6.199   1.513  1.00  0.00     0.010 A 
HETATM    6  C   UNL     1       5.330  -7.168   2.557  1.00  0.00    -0.049 A 
HETATM    7  C   UNL     1       5.639  -8.572   2.172  1.00  0.00     0.066 C 
HETATM    8  C   UNL     1       5.190  -6.793   3.812  1.00  0.00    -0.024 A 
HETATM    9  C   UNL     1       6.106  -9.429   3.334  1.00  0.00     0.237 C 
HETATM   10  N   UNL     1       5.296  -9.224   4.544  1.00  0.00    -0.071 N 
HETATM   11  C   UNL     1       5.298  -7.798   4.998  1.00  0.00     0.271 C 
ATOM     12  HN2 UNL     1       4.344  -9.567   4.412  1.00  0.00     0.277 HD
ATOM     13  HN1 UNL     1       5.592  -9.849   5.294  1.00  0.00     0.277 HD
HETATM   14  C   UNL     1       4.896  -5.428   4.128  1.00  0.00     0.038 A 
ENDBRANCH   1   3
BRANCH   1  15
HETATM   15  C   UNL     1       5.419  -2.106   3.792  1.00  0.00     0.076 A 
HETATM   16  C   UNL     1       5.687  -1.921   5.157  1.00  0.00     0.114 A 
HETATM   17 CL   UNL     1       4.845  -2.899   6.377  1.00  0.00    -0.077 Cl
HETATM   18  C   UNL     1       6.620  -0.952   5.508  1.00  0.00     0.181 A 
HETATM   19  N   UNL     1       7.206  -0.227   4.593  1.00  0.00    -0.275 N 
HETATM   20  C   UNL     1       8.183   0.783   4.991  1.00  0.00     0.180 C 
HETATM   21  N   UNL     1       6.939  -0.424   3.298  1.00  0.00    -0.306 N 
HETATM   22  C   UNL     1       6.094  -1.329   2.861  1.00  0.00     0.138 A 
ATOM     23  HN  UNL     1       7.417   0.161   2.613  1.00  0.00     0.186 HD
BRANCH  18  24
HETATM   24  O   UNL     1       6.901  -0.731   6.839  1.00  0.00    -0.344 OA
ATOM     25  HO  UNL     1       7.502  -0.037   7.082  1.00  0.00     0.219 HD
ENDBRANCH  18  24
ENDBRANCH   1  15
TORSDOF 3
ENDMDL
MODEL 19
REMARK VINA RESULT:    -6.186      4.484      6.766
REMARK INTER + INTRA:          -7.505
REMARK INTER:                  -7.120
REMARK INTRA:                  -0.385
REMARK UNBOUND:                -0.415
REMARK  3 active torsions:
REMARK  status: ('A' for Active; 'I' for Inactive)
REMARK    1  A    between atoms: C_10  and  O_23 
REMARK    2  A    between atoms: C_12  and  N_18 
REMARK    3  A    between atoms: C_13  and  N_18 
ROOT
HETATM    1  N   UNL     1       4.555  -3.957   4.110  1.00  0.00    -0.354 N 
ATOM      2  HN  UNL     1       3.567  -3.759   3.952  1.00  0.00     0.166 HD
ENDROOT
BRANCH   1   3
HETATM    3  C   UNL     1       4.947  -5.344   4.109  1.00  0.00     0.033 A 
HETATM    4  C   UNL     1       5.205  -5.979   5.276  1.00  0.00     0.030 A 
HETATM    5  C   UNL     1       5.621  -7.293   5.270  1.00  0.00     0.010 A 
HETATM    6  C   UNL     1       5.766  -7.994   4.032  1.00  0.00    -0.049 A 
HETATM    7  C   UNL     1       6.189  -9.420   4.085  1.00  0.00     0.066 C 
HETATM    8  C   UNL     1       5.500  -7.377   2.900  1.00  0.00    -0.024 A 
HETATM    9  C   UNL     1       5.957 -10.168   2.786  1.00  0.00     0.237 C 
HETATM   10  N   UNL     1       6.363  -9.387   1.607  1.00  0.00    -0.071 N 
HETATM   11  C   UNL     1       5.644  -8.077   1.516  1.00  0.00     0.271 C 
ATOM     12  HN2 UNL     1       7.374  -9.255   1.585  1.00  0.00     0.277 HD
ATOM     13  HN1 UNL     1       6.250  -9.930   0.751  1.00  0.00     0.277 HD
HETATM   14  C   UNL     1       5.093  -6.004   2.906  1.00  0.00     0.038 A 
ENDBRANCH   1   3
BRANCH   1  15
HETATM   15  C   UNL     1       5.417  -2.828   4.312  1.00  0.00     0.076 A 
HETATM   16  C   UNL     1       5.742  -2.047   3.192  1.00  0.00     0.114 A 
HETATM   17 CL   UNL     1       5.135  -2.492   1.583  1.00  0.00    -0.077 Cl
HETATM   18  C   UNL     1       6.548  -0.933   3.390  1.00  0.00     0.181 A 
HETATM   19  N   UNL     1       7.003  -0.642   4.580  1.00  0.00    -0.275 N 
HETATM   20  C   UNL     1       7.848   0.536   4.759  1.00  0.00     0.180 C 
HETATM   21  N   UNL     1       6.678  -1.396   5.634  1.00  0.00    -0.306 N 
HETATM   22  C   UNL     1       5.903  -2.454   5.557  1.00  0.00     0.138 A 
ATOM     23  HN  UNL     1       7.051  -1.137   6.546  1.00  0.00     0.186 HD
BRANCH  18  24
HETATM   24  O   UNL     1       6.899  -0.149   2.313  1.00  0.00    -0.344 OA
ATOM     25  HO  UNL     1       7.112   0.767   2.450  1.00  0.00     0.219 HD
ENDBRANCH  18  24
ENDBRANCH   1  15
TORSDOF 3
ENDMDL
MODEL 20
REMARK VINA RESULT:    -6.108      4.962      6.931
REMARK INTER + INTRA:          -7.415
REMARK INTER:                  -7.013
REMARK INTRA:                  -0.402
REMARK UNBOUND:                -0.415
REMARK  3 active torsions:
REMARK  status: ('A' for Active; 'I' for Inactive)
REMARK    1  A    between atoms: C_10  and  O_23 
REMARK    2  A    between atoms: C_12  and  N_18 
REMARK    3  A    between atoms: C_13  and  N_18 
ROOT
HETATM    1  N   UNL     1       4.387  -5.147   4.122  1.00  0.00    -0.354 N 
ATOM      2  HN  UNL     1       3.425  -5.144   4.461  1.00  0.00     0.166 HD
ENDROOT
BRANCH   1   3
HETATM    3  C   UNL     1       5.152  -6.348   4.349  1.00  0.00     0.033 A 
HETATM    4  C   UNL     1       5.499  -7.140   3.308  1.00  0.00     0.030 A 
HETATM    5  C   UNL     1       6.194  -8.310   3.532  1.00  0.00     0.010 A 
HETATM    6  C   UNL     1       6.565  -8.680   4.862  1.00  0.00    -0.049 A 
HETATM    7  C   UNL     1       7.340  -9.938   5.045  1.00  0.00     0.066 C 
HETATM    8  C   UNL     1       6.238  -7.898   5.871  1.00  0.00    -0.024 A 
HETATM    9  C   UNL     1       7.996 -10.052   6.408  1.00  0.00     0.237 C 
HETATM   10  N   UNL     1       7.097  -9.650   7.500  1.00  0.00    -0.071 N 
HETATM   11  C   UNL     1       6.603  -8.245   7.345  1.00  0.00     0.271 C 
ATOM     12  HN2 UNL     1       6.320 -10.304   7.595  1.00  0.00     0.277 HD
ATOM     13  HN1 UNL     1       7.539  -9.787   8.409  1.00  0.00     0.277 HD
HETATM   14  C   UNL     1       5.494  -6.698   5.640  1.00  0.00     0.038 A 
ENDBRANCH   1   3
BRANCH   1  15
HETATM   15  C   UNL     1       4.846  -3.957   3.465  1.00  0.00     0.076 A 
HETATM   16  C   UNL     1       5.448  -2.966   4.256  1.00  0.00     0.114 A 
HETATM   17 CL   UNL     1       5.578  -3.180   6.015  1.00  0.00    -0.077 Cl
HETATM   18  C   UNL     1       5.925  -1.827   3.618  1.00  0.00     0.181 A 
HETATM   19  N   UNL     1       5.794  -1.683   2.326  1.00  0.00    -0.275 N 
HETATM   20  C   UNL     1       6.306  -0.476   1.681  1.00  0.00     0.180 C 
HETATM   21  N   UNL     1       5.222  -2.641   1.591  1.00  0.00    -0.306 N 
HETATM   22  C   UNL     1       4.762  -3.763   2.093  1.00  0.00     0.138 A 
ATOM     23  HN  UNL     1       5.138  -2.492   0.585  1.00  0.00     0.186 HD
BRANCH  18  24
HETATM   24  O   UNL     1       6.511  -0.827   4.362  1.00  0.00    -0.344 OA
ATOM     25  HO  UNL     1       5.973  -0.123   4.706  1.00  0.00     0.219 HD
ENDBRANCH  18  24
ENDBRANCH   1  15
TORSDOF 3
ENDMDL
