REMARK  4 active torsions:
REMARK  status: ('A' for Active; 'I' for Inactive)
REMARK    1  A    between atoms: C_1  and  O_6 
REMARK    2  A    between atoms: C_2  and  O_8 
REMARK    3  A    between atoms: C_3  and  O_10 
REMARK    4  A    between atoms: C_4  and  O_12 
ROOT
HETATM    1  C   UNL     1      23.335  -0.632  69.523  1.00  0.00     0.288 C 
HETATM    2  C   UNL     1      22.311  -0.060  70.469  1.00  0.00     0.204 C 
HETATM    3  C   UNL     1      22.775  -0.077  71.871  1.00  0.00     0.182 C 
HETATM    4  C   UNL     1      23.188  -1.469  72.259  1.00  0.00     0.173 C 
HETATM    5  C   UNL     1      24.177  -2.051  71.250  1.00  0.00     0.205 C 
HETATM    6  O   UNL     1      23.636  -2.011  69.915  1.00  0.00    -0.356 OA
ENDROOT
BRANCH   1   7
HETATM    7  O   UNL     1      22.815  -0.699  68.272  1.00  0.00    -0.369 OA
ATOM      8  HO  UNL     1      23.461  -1.060  67.676  1.00  0.00     0.212 HD
ENDBRANCH   1   7
BRANCH   2   9
HETATM    9  O   UNL     1      21.962   1.248  70.033  1.00  0.00    -0.388 OA
ATOM     10  HO  UNL     1      21.316   1.609  70.629  1.00  0.00     0.210 HD
ENDBRANCH   2   9
BRANCH   3  11
HETATM   11  O   UNL     1      21.722   0.432  72.760  1.00  0.00    -0.390 OA
ATOM     12  HO  UNL     1      22.020   0.421  73.662  1.00  0.00     0.210 HD
ENDBRANCH   3  11
BRANCH   4  13
HETATM   13  O   UNL     1      22.038  -2.296  72.441  1.00  0.00    -0.391 OA
ATOM     14  HO  UNL     1      22.299  -3.176  72.686  1.00  0.00     0.210 HD
ENDBRANCH   4  13
TORSDOF 4
