MODEL 1
REMARK VINA RESULT:    -6.756      0.000      0.000
REMARK INTER + INTRA:          -7.556
REMARK INTER:                  -7.546
REMARK INTRA:                  -0.010
REMARK UNBOUND:                -0.010
REMARK  3 active torsions:
REMARK  status: ('A' for Active; 'I' for Inactive)
REMARK    1  A    between atoms: C_3  and  C_11 
REMARK    2  A    between atoms: C_8  and  O_9 
REMARK    3  A    between atoms: C_11  and  O_12 
ROOT
HETATM    1  N   UNL     1      32.143  57.572  51.313  1.00  0.00    -0.194 NA
HETATM    2  C   UNL     1      33.004  57.445  50.578  1.00  0.00     0.096 C 
HETATM    3  C   UNL     1      34.141  57.243  49.568  1.00  0.00     0.257 C 
ENDROOT
BRANCH   3   4
HETATM    4  C   UNL     1      33.786  58.040  48.319  1.00  0.00    -0.016 A 
HETATM    5  C   UNL     1      32.481  58.414  48.046  1.00  0.00     0.013 A 
HETATM    6  C   UNL     1      32.167  59.127  46.915  1.00  0.00     0.037 A 
HETATM    7  C   UNL     1      33.189  59.479  46.039  1.00  0.00     0.065 A 
HETATM    8  C   UNL     1      34.493  59.109  46.339  1.00  0.00     0.037 A 
HETATM    9  C   UNL     1      34.797  58.395  47.459  1.00  0.00     0.013 A 
BRANCH   7  10
HETATM   10  O   UNL     1      32.906  60.200  44.899  1.00  0.00    -0.361 OA
ATOM     11  HO  UNL     1      32.561  61.084  44.956  1.00  0.00     0.217 HD
ENDBRANCH   7  10
ENDBRANCH   3   4
BRANCH   3  12
HETATM   12  O   UNL     1      34.289  55.859  49.327  1.00  0.00    -0.377 OA
ATOM     13  HO  UNL     1      33.820  55.558  48.557  1.00  0.00     0.211 HD
ENDBRANCH   3  12
TORSDOF 3
ENDMDL
MODEL 2
REMARK VINA RESULT:    -6.690      0.060      1.444
REMARK INTER + INTRA:          -7.482
REMARK INTER:                  -7.515
REMARK INTRA:                   0.033
REMARK UNBOUND:                -0.010
REMARK  3 active torsions:
REMARK  status: ('A' for Active; 'I' for Inactive)
REMARK    1  A    between atoms: C_3  and  C_11 
REMARK    2  A    between atoms: C_8  and  O_9 
REMARK    3  A    between atoms: C_11  and  O_12 
ROOT
HETATM    1  N   UNL     1      32.051  57.562  51.229  1.00  0.00    -0.194 NA
HETATM    2  C   UNL     1      32.939  57.433  50.528  1.00  0.00     0.096 C 
HETATM    3  C   UNL     1      34.114  57.227  49.563  1.00  0.00     0.257 C 
ENDROOT
BRANCH   3   4
HETATM    4  C   UNL     1      33.812  58.029  48.304  1.00  0.00    -0.016 A 
HETATM    5  C   UNL     1      34.814  58.394  47.420  1.00  0.00     0.013 A 
HETATM    6  C   UNL     1      34.536  59.123  46.290  1.00  0.00     0.037 A 
HETATM    7  C   UNL     1      33.218  59.490  46.036  1.00  0.00     0.065 A 
HETATM    8  C   UNL     1      32.226  59.100  46.925  1.00  0.00     0.037 A 
HETATM    9  C   UNL     1      32.509  58.384  48.049  1.00  0.00     0.013 A 
BRANCH   7  10
HETATM   10  O   UNL     1      32.907  60.215  44.906  1.00  0.00    -0.361 OA
ATOM     11  HO  UNL     1      32.682  59.777  44.094  1.00  0.00     0.217 HD
ENDBRANCH   7  10
ENDBRANCH   3   4
BRANCH   3  12
HETATM   12  O   UNL     1      34.263  55.843  49.324  1.00  0.00    -0.377 OA
ATOM     13  HO  UNL     1      34.366  55.332  50.119  1.00  0.00     0.211 HD
ENDBRANCH   3  12
TORSDOF 3
ENDMDL
MODEL 3
REMARK VINA RESULT:    -6.608      1.592      2.144
REMARK INTER + INTRA:          -7.391
REMARK INTER:                  -7.287
REMARK INTRA:                  -0.104
REMARK UNBOUND:                -0.010
REMARK  3 active torsions:
REMARK  status: ('A' for Active; 'I' for Inactive)
REMARK    1  A    between atoms: C_3  and  C_11 
REMARK    2  A    between atoms: C_8  and  O_9 
REMARK    3  A    between atoms: C_11  and  O_12 
ROOT
HETATM    1  N   UNL     1      31.400  54.840  48.295  1.00  0.00    -0.194 NA
HETATM    2  C   UNL     1      32.129  55.640  48.652  1.00  0.00     0.096 C 
HETATM    3  C   UNL     1      33.140  56.698  49.111  1.00  0.00     0.257 C 
ENDROOT
BRANCH   3   4
HETATM    4  C   UNL     1      33.236  57.743  48.007  1.00  0.00    -0.016 A 
HETATM    5  C   UNL     1      34.448  58.071  47.423  1.00  0.00     0.013 A 
HETATM    6  C   UNL     1      34.529  59.019  46.433  1.00  0.00     0.037 A 
HETATM    7  C   UNL     1      33.362  59.651  46.014  1.00  0.00     0.065 A 
HETATM    8  C   UNL     1      32.155  59.297  46.600  1.00  0.00     0.037 A 
HETATM    9  C   UNL     1      32.082  58.361  47.588  1.00  0.00     0.013 A 
BRANCH   7  10
HETATM   10  O   UNL     1      33.410  60.602  45.017  1.00  0.00    -0.361 OA
ATOM     11  HO  UNL     1      33.767  60.391  44.162  1.00  0.00     0.217 HD
ENDBRANCH   7  10
ENDBRANCH   3   4
BRANCH   3  12
HETATM   12  O   UNL     1      34.369  56.057  49.385  1.00  0.00    -0.377 OA
ATOM     13  HO  UNL     1      34.476  55.820  50.299  1.00  0.00     0.211 HD
ENDBRANCH   3  12
TORSDOF 3
ENDMDL
MODEL 4
REMARK VINA RESULT:    -6.499      1.502      1.507
REMARK INTER + INTRA:          -7.269
REMARK INTER:                  -7.163
REMARK INTRA:                  -0.107
REMARK UNBOUND:                -0.010
REMARK  3 active torsions:
REMARK  status: ('A' for Active; 'I' for Inactive)
REMARK    1  A    between atoms: C_3  and  C_11 
REMARK    2  A    between atoms: C_8  and  O_9 
REMARK    3  A    between atoms: C_11  and  O_12 
ROOT
HETATM    1  N   UNL     1      31.473  54.937  48.482  1.00  0.00    -0.194 NA
HETATM    2  C   UNL     1      32.224  55.738  48.787  1.00  0.00     0.096 C 
HETATM    3  C   UNL     1      33.264  56.796  49.175  1.00  0.00     0.257 C 
ENDROOT
BRANCH   3   4
HETATM    4  C   UNL     1      33.297  57.830  48.057  1.00  0.00    -0.016 A 
HETATM    5  C   UNL     1      32.146  58.470  47.628  1.00  0.00     0.013 A 
HETATM    6  C   UNL     1      32.182  59.397  46.615  1.00  0.00     0.037 A 
HETATM    7  C   UNL     1      33.405  59.693  46.021  1.00  0.00     0.065 A 
HETATM    8  C   UNL     1      34.549  59.053  46.475  1.00  0.00     0.037 A 
HETATM    9  C   UNL     1      34.506  58.129  47.476  1.00  0.00     0.013 A 
BRANCH   7  10
HETATM   10  O   UNL     1      33.474  60.624  45.006  1.00  0.00    -0.361 OA
ATOM     11  HO  UNL     1      33.506  61.553  45.201  1.00  0.00     0.217 HD
ENDBRANCH   7  10
ENDBRANCH   3   4
BRANCH   3  12
HETATM   12  O   UNL     1      34.505  56.153  49.381  1.00  0.00    -0.377 OA
ATOM     13  HO  UNL     1      35.253  56.724  49.247  1.00  0.00     0.211 HD
ENDBRANCH   3  12
TORSDOF 3
ENDMDL
MODEL 5
REMARK VINA RESULT:    -6.220      1.469      2.012
REMARK INTER + INTRA:          -6.958
REMARK INTER:                  -6.967
REMARK INTRA:                   0.009
REMARK UNBOUND:                -0.010
REMARK  3 active torsions:
REMARK  status: ('A' for Active; 'I' for Inactive)
REMARK    1  A    between atoms: C_3  and  C_11 
REMARK    2  A    between atoms: C_8  and  O_9 
REMARK    3  A    between atoms: C_11  and  O_12 
ROOT
HETATM    1  N   UNL     1      30.221  57.100  49.790  1.00  0.00    -0.194 NA
HETATM    2  C   UNL     1      31.263  56.837  49.409  1.00  0.00     0.096 C 
HETATM    3  C   UNL     1      32.646  56.464  48.863  1.00  0.00     0.257 C 
ENDROOT
BRANCH   3   4
HETATM    4  C   UNL     1      33.054  57.555  47.880  1.00  0.00    -0.016 A 
HETATM    5  C   UNL     1      34.385  57.823  47.607  1.00  0.00     0.013 A 
HETATM    6  C   UNL     1      34.746  58.811  46.725  1.00  0.00     0.037 A 
HETATM    7  C   UNL     1      33.746  59.546  46.096  1.00  0.00     0.065 A 
HETATM    8  C   UNL     1      32.418  59.252  46.370  1.00  0.00     0.037 A 
HETATM    9  C   UNL     1      32.066  58.274  47.253  1.00  0.00     0.013 A 
BRANCH   7  10
HETATM   10  O   UNL     1      34.077  60.541  45.201  1.00  0.00    -0.361 OA
ATOM     11  HO  UNL     1      33.614  60.624  44.375  1.00  0.00     0.217 HD
ENDBRANCH   7  10
ENDBRANCH   3   4
BRANCH   3  12
HETATM   12  O   UNL     1      32.569  55.181  48.276  1.00  0.00    -0.377 OA
ATOM     13  HO  UNL     1      31.992  55.145  47.522  1.00  0.00     0.211 HD
ENDBRANCH   3  12
TORSDOF 3
ENDMDL
MODEL 6
REMARK VINA RESULT:    -6.020      2.651      4.647
REMARK INTER + INTRA:          -6.734
REMARK INTER:                  -6.628
REMARK INTRA:                  -0.106
REMARK UNBOUND:                -0.010
REMARK  3 active torsions:
REMARK  status: ('A' for Active; 'I' for Inactive)
REMARK    1  A    between atoms: C_3  and  C_11 
REMARK    2  A    between atoms: C_8  and  O_9 
REMARK    3  A    between atoms: C_11  and  O_12 
ROOT
HETATM    1  N   UNL     1      32.307  59.460  46.010  1.00  0.00    -0.194 NA
HETATM    2  C   UNL     1      32.868  58.672  46.613  1.00  0.00     0.096 C 
HETATM    3  C   UNL     1      33.643  57.643  47.445  1.00  0.00     0.257 C 
ENDROOT
BRANCH   3   4
HETATM    4  C   UNL     1      32.904  57.479  48.767  1.00  0.00    -0.016 A 
HETATM    5  C   UNL     1      33.514  57.761  49.978  1.00  0.00     0.013 A 
HETATM    6  C   UNL     1      32.844  57.605  51.166  1.00  0.00     0.037 A 
HETATM    7  C   UNL     1      31.526  57.158  51.139  1.00  0.00     0.065 A 
HETATM    8  C   UNL     1      30.927  56.896  49.915  1.00  0.00     0.037 A 
HETATM    9  C   UNL     1      31.600  57.046  48.739  1.00  0.00     0.013 A 
BRANCH   7  10
HETATM   10  O   UNL     1      30.825  56.998  52.315  1.00  0.00    -0.361 OA
ATOM     11  HO  UNL     1      31.156  56.434  53.005  1.00  0.00     0.217 HD
ENDBRANCH   7  10
ENDBRANCH   3   4
BRANCH   3  12
HETATM   12  O   UNL     1      34.972  58.097  47.599  1.00  0.00    -0.377 OA
ATOM     13  HO  UNL     1      35.278  58.623  46.869  1.00  0.00     0.211 HD
ENDBRANCH   3  12
TORSDOF 3
ENDMDL
MODEL 7
REMARK VINA RESULT:    -6.008      2.795      4.588
REMARK INTER + INTRA:          -6.721
REMARK INTER:                  -6.622
REMARK INTRA:                  -0.099
REMARK UNBOUND:                -0.010
REMARK  3 active torsions:
REMARK  status: ('A' for Active; 'I' for Inactive)
REMARK    1  A    between atoms: C_3  and  C_11 
REMARK    2  A    between atoms: C_8  and  O_9 
REMARK    3  A    between atoms: C_11  and  O_12 
ROOT
HETATM    1  N   UNL     1      35.282  58.774  46.420  1.00  0.00    -0.194 NA
HETATM    2  C   UNL     1      34.203  58.947  46.743  1.00  0.00     0.096 C 
HETATM    3  C   UNL     1      32.738  59.167  47.139  1.00  0.00     0.257 C 
ENDROOT
BRANCH   3   4
HETATM    4  C   UNL     1      32.197  57.832  47.635  1.00  0.00    -0.016 A 
HETATM    5  C   UNL     1      31.968  57.599  48.981  1.00  0.00     0.013 A 
HETATM    6  C   UNL     1      31.487  56.391  49.422  1.00  0.00     0.037 A 
HETATM    7  C   UNL     1      31.223  55.393  48.489  1.00  0.00     0.065 A 
HETATM    8  C   UNL     1      31.443  55.652  47.143  1.00  0.00     0.037 A 
HETATM    9  C   UNL     1      31.929  56.850  46.712  1.00  0.00     0.013 A 
BRANCH   7  10
HETATM   10  O   UNL     1      30.733  54.172  48.901  1.00  0.00    -0.361 OA
ATOM     11  HO  UNL     1      29.948  53.807  48.508  1.00  0.00     0.217 HD
ENDBRANCH   7  10
ENDBRANCH   3   4
BRANCH   3  12
HETATM   12  O   UNL     1      32.040  59.674  46.020  1.00  0.00    -0.377 OA
ATOM     13  HO  UNL     1      31.277  59.159  45.786  1.00  0.00     0.211 HD
ENDBRANCH   3  12
TORSDOF 3
ENDMDL
MODEL 8
REMARK VINA RESULT:    -6.002      2.663      4.523
REMARK INTER + INTRA:          -6.714
REMARK INTER:                  -6.609
REMARK INTRA:                  -0.106
REMARK UNBOUND:                -0.010
REMARK  3 active torsions:
REMARK  status: ('A' for Active; 'I' for Inactive)
REMARK    1  A    between atoms: C_3  and  C_11 
REMARK    2  A    between atoms: C_8  and  O_9 
REMARK    3  A    between atoms: C_11  and  O_12 
ROOT
HETATM    1  N   UNL     1      32.273  59.400  46.023  1.00  0.00    -0.194 NA
HETATM    2  C   UNL     1      32.828  58.616  46.635  1.00  0.00     0.096 C 
HETATM    3  C   UNL     1      33.596  57.592  47.481  1.00  0.00     0.257 C 
ENDROOT
BRANCH   3   4
HETATM    4  C   UNL     1      32.834  57.421  48.789  1.00  0.00    -0.016 A 
HETATM    5  C   UNL     1      31.529  56.958  48.811  1.00  0.00     0.013 A 
HETATM    6  C   UNL     1      30.845  56.812  49.993  1.00  0.00     0.037 A 
HETATM    7  C   UNL     1      31.489  57.134  51.184  1.00  0.00     0.065 A 
HETATM    8  C   UNL     1      32.803  57.581  51.142  1.00  0.00     0.037 A 
HETATM    9  C   UNL     1      33.474  57.730  49.965  1.00  0.00     0.013 A 
BRANCH   7  10
HETATM   10  O   UNL     1      30.832  56.991  52.387  1.00  0.00    -0.361 OA
ATOM     11  HO  UNL     1      31.122  57.465  53.158  1.00  0.00     0.217 HD
ENDBRANCH   7  10
ENDBRANCH   3   4
BRANCH   3  12
HETATM   12  O   UNL     1      34.918  58.056  47.659  1.00  0.00    -0.377 OA
ATOM     13  HO  UNL     1      35.395  57.588  48.335  1.00  0.00     0.211 HD
ENDBRANCH   3  12
TORSDOF 3
ENDMDL
MODEL 9
REMARK VINA RESULT:    -5.714      3.395      4.464
REMARK INTER + INTRA:          -6.392
REMARK INTER:                  -6.293
REMARK INTRA:                  -0.100
REMARK UNBOUND:                -0.010
REMARK  3 active torsions:
REMARK  status: ('A' for Active; 'I' for Inactive)
REMARK    1  A    between atoms: C_3  and  C_11 
REMARK    2  A    between atoms: C_8  and  O_9 
REMARK    3  A    between atoms: C_11  and  O_12 
ROOT
HETATM    1  N   UNL     1      31.347  54.278  44.879  1.00  0.00    -0.194 NA
HETATM    2  C   UNL     1      31.049  55.125  45.581  1.00  0.00     0.096 C 
HETATM    3  C   UNL     1      30.645  56.236  46.559  1.00  0.00     0.257 C 
ENDROOT
BRANCH   3   4
HETATM    4  C   UNL     1      31.910  56.694  47.273  1.00  0.00    -0.016 A 
HETATM    5  C   UNL     1      32.841  57.506  46.647  1.00  0.00     0.013 A 
HETATM    6  C   UNL     1      33.982  57.910  47.293  1.00  0.00     0.037 A 
HETATM    7  C   UNL     1      34.193  57.493  48.604  1.00  0.00     0.065 A 
HETATM    8  C   UNL     1      33.241  56.693  49.220  1.00  0.00     0.037 A 
HETATM    9  C   UNL     1      32.113  56.289  48.570  1.00  0.00     0.013 A 
BRANCH   7  10
HETATM   10  O   UNL     1      35.327  57.888  49.282  1.00  0.00    -0.361 OA
ATOM     11  HO  UNL     1      35.648  58.780  49.214  1.00  0.00     0.217 HD
ENDBRANCH   7  10
ENDBRANCH   3   4
BRANCH   3  12
HETATM   12  O   UNL     1      29.659  55.728  47.434  1.00  0.00    -0.377 OA
ATOM     13  HO  UNL     1      28.782  56.032  47.232  1.00  0.00     0.211 HD
ENDBRANCH   3  12
TORSDOF 3
ENDMDL
MODEL 10
REMARK VINA RESULT:    -5.712      2.895      4.337
REMARK INTER + INTRA:          -6.390
REMARK INTER:                  -6.287
REMARK INTRA:                  -0.103
REMARK UNBOUND:                -0.010
REMARK  3 active torsions:
REMARK  status: ('A' for Active; 'I' for Inactive)
REMARK    1  A    between atoms: C_3  and  C_11 
REMARK    2  A    between atoms: C_8  and  O_9 
REMARK    3  A    between atoms: C_11  and  O_12 
ROOT
HETATM    1  N   UNL     1      32.948  60.203  45.229  1.00  0.00    -0.194 NA
HETATM    2  C   UNL     1      33.457  59.369  45.814  1.00  0.00     0.096 C 
HETATM    3  C   UNL     1      34.149  58.274  46.635  1.00  0.00     0.257 C 
ENDROOT
BRANCH   3   4
HETATM    4  C   UNL     1      33.113  57.701  47.593  1.00  0.00    -0.016 A 
HETATM    5  C   UNL     1      32.038  56.957  47.137  1.00  0.00     0.013 A 
HETATM    6  C   UNL     1      31.104  56.448  48.005  1.00  0.00     0.037 A 
HETATM    7  C   UNL     1      31.254  56.689  49.367  1.00  0.00     0.065 A 
HETATM    8  C   UNL     1      32.347  57.423  49.807  1.00  0.00     0.037 A 
HETATM    9  C   UNL     1      33.267  57.932  48.939  1.00  0.00     0.013 A 
BRANCH   7  10
HETATM   10  O   UNL     1      30.336  56.186  50.264  1.00  0.00    -0.361 OA
ATOM     11  HO  UNL     1      29.924  55.343  50.116  1.00  0.00     0.217 HD
ENDBRANCH   7  10
ENDBRANCH   3   4
BRANCH   3  12
HETATM   12  O   UNL     1      35.266  58.840  47.289  1.00  0.00    -0.377 OA
ATOM     13  HO  UNL     1      36.084  58.402  47.087  1.00  0.00     0.211 HD
ENDBRANCH   3  12
TORSDOF 3
ENDMDL
MODEL 11
REMARK VINA RESULT:    -5.560      2.837      4.896
REMARK INTER + INTRA:          -6.221
REMARK INTER:                  -6.235
REMARK INTRA:                   0.015
REMARK UNBOUND:                -0.010
REMARK  3 active torsions:
REMARK  status: ('A' for Active; 'I' for Inactive)
REMARK    1  A    between atoms: C_3  and  C_11 
REMARK    2  A    between atoms: C_8  and  O_9 
REMARK    3  A    between atoms: C_11  and  O_12 
ROOT
HETATM    1  N   UNL     1      31.217  55.668  45.442  1.00  0.00    -0.194 NA
HETATM    2  C   UNL     1      31.810  56.468  45.996  1.00  0.00     0.096 C 
HETATM    3  C   UNL     1      32.573  57.571  46.741  1.00  0.00     0.257 C 
ENDROOT
BRANCH   3   4
HETATM    4  C   UNL     1      32.225  57.445  48.219  1.00  0.00    -0.016 A 
HETATM    5  C   UNL     1      33.073  57.919  49.205  1.00  0.00     0.013 A 
HETATM    6  C   UNL     1      32.756  57.796  50.536  1.00  0.00     0.037 A 
HETATM    7  C   UNL     1      31.555  57.187  50.885  1.00  0.00     0.065 A 
HETATM    8  C   UNL     1      30.711  56.733  49.882  1.00  0.00     0.037 A 
HETATM    9  C   UNL     1      31.034  56.851  48.563  1.00  0.00     0.013 A 
BRANCH   7  10
HETATM   10  O   UNL     1      31.206  57.056  52.213  1.00  0.00    -0.361 OA
ATOM     11  HO  UNL     1      30.382  57.402  52.535  1.00  0.00     0.217 HD
ENDBRANCH   7  10
ENDBRANCH   3   4
BRANCH   3  12
HETATM   12  O   UNL     1      32.217  58.819  46.185  1.00  0.00    -0.377 OA
ATOM     13  HO  UNL     1      32.931  59.247  45.728  1.00  0.00     0.211 HD
ENDBRANCH   3  12
TORSDOF 3
ENDMDL
MODEL 12
REMARK VINA RESULT:    -5.363      2.919      3.451
REMARK INTER + INTRA:          -6.000
REMARK INTER:                  -6.040
REMARK INTRA:                   0.040
REMARK UNBOUND:                -0.010
REMARK  3 active torsions:
REMARK  status: ('A' for Active; 'I' for Inactive)
REMARK    1  A    between atoms: C_3  and  C_11 
REMARK    2  A    between atoms: C_8  and  O_9 
REMARK    3  A    between atoms: C_11  and  O_12 
ROOT
HETATM    1  N   UNL     1      29.463  55.436  46.212  1.00  0.00    -0.194 NA
HETATM    2  C   UNL     1      30.075  55.612  47.156  1.00  0.00     0.096 C 
HETATM    3  C   UNL     1      30.924  55.816  48.417  1.00  0.00     0.257 C 
ENDROOT
BRANCH   3   4
HETATM    4  C   UNL     1      32.117  56.680  48.025  1.00  0.00    -0.016 A 
HETATM    5  C   UNL     1      33.238  56.775  48.832  1.00  0.00     0.013 A 
HETATM    6  C   UNL     1      34.307  57.560  48.477  1.00  0.00     0.037 A 
HETATM    7  C   UNL     1      34.252  58.264  47.277  1.00  0.00     0.065 A 
HETATM    8  C   UNL     1      33.126  58.143  46.474  1.00  0.00     0.037 A 
HETATM    9  C   UNL     1      32.065  57.368  46.837  1.00  0.00     0.013 A 
BRANCH   7  10
HETATM   10  O   UNL     1      35.312  59.055  46.890  1.00  0.00    -0.361 OA
ATOM     11  HO  UNL     1      36.196  58.859  47.179  1.00  0.00     0.217 HD
ENDBRANCH   7  10
ENDBRANCH   3   4
BRANCH   3  12
HETATM   12  O   UNL     1      31.291  54.550  48.923  1.00  0.00    -0.377 OA
ATOM     13  HO  UNL     1      31.844  54.052  48.331  1.00  0.00     0.211 HD
ENDBRANCH   3  12
TORSDOF 3
ENDMDL
MODEL 13
REMARK VINA RESULT:    -5.339      2.675      4.693
REMARK INTER + INTRA:          -5.973
REMARK INTER:                  -5.928
REMARK INTRA:                  -0.046
REMARK UNBOUND:                -0.010
REMARK  3 active torsions:
REMARK  status: ('A' for Active; 'I' for Inactive)
REMARK    1  A    between atoms: C_3  and  C_11 
REMARK    2  A    between atoms: C_8  and  O_9 
REMARK    3  A    between atoms: C_11  and  O_12 
ROOT
HETATM    1  N   UNL     1      35.241  58.382  46.719  1.00  0.00    -0.194 NA
HETATM    2  C   UNL     1      34.107  58.281  46.768  1.00  0.00     0.096 C 
HETATM    3  C   UNL     1      32.585  58.103  46.831  1.00  0.00     0.257 C 
ENDROOT
BRANCH   3   4
HETATM    4  C   UNL     1      32.223  57.792  48.278  1.00  0.00    -0.016 A 
HETATM    5  C   UNL     1      33.003  58.240  49.331  1.00  0.00     0.013 A 
HETATM    6  C   UNL     1      32.675  57.950  50.633  1.00  0.00     0.037 A 
HETATM    7  C   UNL     1      31.533  57.197  50.884  1.00  0.00     0.065 A 
HETATM    8  C   UNL     1      30.756  56.771  49.816  1.00  0.00     0.037 A 
HETATM    9  C   UNL     1      31.090  57.055  48.526  1.00  0.00     0.013 A 
BRANCH   7  10
HETATM   10  O   UNL     1      31.174  56.896  52.181  1.00  0.00    -0.361 OA
ATOM     11  HO  UNL     1      30.799  56.050  52.397  1.00  0.00     0.217 HD
ENDBRANCH   7  10
ENDBRANCH   3   4
BRANCH   3  12
HETATM   12  O   UNL     1      32.213  57.082  45.928  1.00  0.00    -0.377 OA
ATOM     13  HO  UNL     1      31.278  56.919  45.906  1.00  0.00     0.211 HD
ENDBRANCH   3  12
TORSDOF 3
ENDMDL
MODEL 14
REMARK VINA RESULT:    -5.334      2.336      2.688
REMARK INTER + INTRA:          -5.968
REMARK INTER:                  -5.960
REMARK INTRA:                  -0.008
REMARK UNBOUND:                -0.010
REMARK  3 active torsions:
REMARK  status: ('A' for Active; 'I' for Inactive)
REMARK    1  A    between atoms: C_3  and  C_11 
REMARK    2  A    between atoms: C_8  and  O_9 
REMARK    3  A    between atoms: C_11  and  O_12 
ROOT
HETATM    1  N   UNL     1      31.080  57.239  52.022  1.00  0.00    -0.194 NA
HETATM    2  C   UNL     1      31.827  57.531  51.213  1.00  0.00     0.096 C 
HETATM    3  C   UNL     1      32.852  57.886  50.128  1.00  0.00     0.257 C 
ENDROOT
BRANCH   3   4
HETATM    4  C   UNL     1      32.333  57.323  48.812  1.00  0.00    -0.016 A 
HETATM    5  C   UNL     1      31.381  56.318  48.780  1.00  0.00     0.013 A 
HETATM    6  C   UNL     1      30.921  55.809  47.590  1.00  0.00     0.037 A 
HETATM    7  C   UNL     1      31.427  56.326  46.401  1.00  0.00     0.065 A 
HETATM    8  C   UNL     1      32.369  57.344  46.454  1.00  0.00     0.037 A 
HETATM    9  C   UNL     1      32.826  57.839  47.638  1.00  0.00     0.013 A 
BRANCH   7  10
HETATM   10  O   UNL     1      30.981  55.841  45.190  1.00  0.00    -0.361 OA
ATOM     11  HO  UNL     1      30.538  56.411  44.572  1.00  0.00     0.217 HD
ENDBRANCH   7  10
ENDBRANCH   3   4
BRANCH   3  12
HETATM   12  O   UNL     1      34.108  57.362  50.507  1.00  0.00    -0.377 OA
ATOM     13  HO  UNL     1      34.841  57.802  50.092  1.00  0.00     0.211 HD
ENDBRANCH   3  12
TORSDOF 3
ENDMDL
MODEL 15
REMARK VINA RESULT:    -5.232      2.506      4.617
REMARK INTER + INTRA:          -5.854
REMARK INTER:                  -5.753
REMARK INTRA:                  -0.101
REMARK UNBOUND:                -0.010
REMARK  3 active torsions:
REMARK  status: ('A' for Active; 'I' for Inactive)
REMARK    1  A    between atoms: C_3  and  C_11 
REMARK    2  A    between atoms: C_8  and  O_9 
REMARK    3  A    between atoms: C_11  and  O_12 
ROOT
HETATM    1  N   UNL     1      30.797  55.208  46.268  1.00  0.00    -0.194 NA
HETATM    2  C   UNL     1      31.353  56.190  46.426  1.00  0.00     0.096 C 
HETATM    3  C   UNL     1      32.066  57.528  46.657  1.00  0.00     0.257 C 
ENDROOT
BRANCH   3   4
HETATM    4  C   UNL     1      32.632  57.502  48.072  1.00  0.00    -0.016 A 
HETATM    5  C   UNL     1      33.997  57.491  48.305  1.00  0.00     0.013 A 
HETATM    6  C   UNL     1      34.501  57.461  49.582  1.00  0.00     0.037 A 
HETATM    7  C   UNL     1      33.612  57.446  50.653  1.00  0.00     0.065 A 
HETATM    8  C   UNL     1      32.248  57.473  50.399  1.00  0.00     0.037 A 
HETATM    9  C   UNL     1      31.754  57.495  49.128  1.00  0.00     0.013 A 
BRANCH   7  10
HETATM   10  O   UNL     1      34.087  57.422  51.947  1.00  0.00    -0.361 OA
ATOM     11  HO  UNL     1      33.581  57.018  52.643  1.00  0.00     0.217 HD
ENDBRANCH   7  10
ENDBRANCH   3   4
BRANCH   3  12
HETATM   12  O   UNL     1      31.142  58.574  46.442  1.00  0.00    -0.377 OA
ATOM     13  HO  UNL     1      31.434  59.208  45.798  1.00  0.00     0.211 HD
ENDBRANCH   3  12
TORSDOF 3
ENDMDL
MODEL 16
REMARK VINA RESULT:    -4.973      2.925      4.070
REMARK INTER + INTRA:          -5.565
REMARK INTER:                  -5.462
REMARK INTRA:                  -0.103
REMARK UNBOUND:                -0.010
REMARK  3 active torsions:
REMARK  status: ('A' for Active; 'I' for Inactive)
REMARK    1  A    between atoms: C_3  and  C_11 
REMARK    2  A    between atoms: C_8  and  O_9 
REMARK    3  A    between atoms: C_11  and  O_12 
ROOT
HETATM    1  N   UNL     1      34.963  59.069  46.394  1.00  0.00    -0.194 NA
HETATM    2  C   UNL     1      34.934  58.356  47.282  1.00  0.00     0.096 C 
HETATM    3  C   UNL     1      34.890  57.431  48.505  1.00  0.00     0.257 C 
ENDROOT
BRANCH   3   4
HETATM    4  C   UNL     1      33.424  57.215  48.859  1.00  0.00    -0.016 A 
HETATM    5  C   UNL     1      32.940  57.478  50.129  1.00  0.00     0.013 A 
HETATM    6  C   UNL     1      31.619  57.275  50.444  1.00  0.00     0.037 A 
HETATM    7  C   UNL     1      30.760  56.802  49.457  1.00  0.00     0.065 A 
HETATM    8  C   UNL     1      31.261  56.560  48.185  1.00  0.00     0.037 A 
HETATM    9  C   UNL     1      32.575  56.756  47.881  1.00  0.00     0.013 A 
BRANCH   7  10
HETATM   10  O   UNL     1      29.427  56.595  49.740  1.00  0.00    -0.361 OA
ATOM     11  HO  UNL     1      28.878  56.090  49.151  1.00  0.00     0.217 HD
ENDBRANCH   7  10
ENDBRANCH   3   4
BRANCH   3  12
HETATM   12  O   UNL     1      35.637  58.025  49.546  1.00  0.00    -0.377 OA
ATOM     13  HO  UNL     1      35.427  57.679  50.406  1.00  0.00     0.211 HD
ENDBRANCH   3  12
TORSDOF 3
ENDMDL
MODEL 17
REMARK VINA RESULT:    -4.958      2.489      4.384
REMARK INTER + INTRA:          -5.548
REMARK INTER:                  -5.457
REMARK INTRA:                  -0.091
REMARK UNBOUND:                -0.010
REMARK  3 active torsions:
REMARK  status: ('A' for Active; 'I' for Inactive)
REMARK    1  A    between atoms: C_3  and  C_11 
REMARK    2  A    between atoms: C_8  and  O_9 
REMARK    3  A    between atoms: C_11  and  O_12 
ROOT
HETATM    1  N   UNL     1      33.472  60.158  45.483  1.00  0.00    -0.194 NA
HETATM    2  C   UNL     1      32.872  59.298  45.929  1.00  0.00     0.096 C 
HETATM    3  C   UNL     1      32.096  58.114  46.518  1.00  0.00     0.257 C 
ENDROOT
BRANCH   3   4
HETATM    4  C   UNL     1      32.627  57.879  47.927  1.00  0.00    -0.016 A 
HETATM    5  C   UNL     1      31.776  57.788  49.015  1.00  0.00     0.013 A 
HETATM    6  C   UNL     1      32.261  57.582  50.283  1.00  0.00     0.037 A 
HETATM    7  C   UNL     1      33.636  57.460  50.463  1.00  0.00     0.065 A 
HETATM    8  C   UNL     1      34.471  57.538  49.357  1.00  0.00     0.037 A 
HETATM    9  C   UNL     1      33.983  57.749  48.102  1.00  0.00     0.013 A 
BRANCH   7  10
HETATM   10  O   UNL     1      34.153  57.246  51.723  1.00  0.00    -0.361 OA
ATOM     11  HO  UNL     1      34.788  57.847  52.095  1.00  0.00     0.217 HD
ENDBRANCH   7  10
ENDBRANCH   3   4
BRANCH   3  12
HETATM   12  O   UNL     1      32.257  57.000  45.665  1.00  0.00    -0.377 OA
ATOM     13  HO  UNL     1      32.991  57.086  45.067  1.00  0.00     0.211 HD
ENDBRANCH   3  12
TORSDOF 3
ENDMDL
MODEL 18
REMARK VINA RESULT:    -4.862      3.258      3.760
REMARK INTER + INTRA:          -5.441
REMARK INTER:                  -5.459
REMARK INTRA:                   0.018
REMARK UNBOUND:                -0.010
REMARK  3 active torsions:
REMARK  status: ('A' for Active; 'I' for Inactive)
REMARK    1  A    between atoms: C_3  and  C_11 
REMARK    2  A    between atoms: C_8  and  O_9 
REMARK    3  A    between atoms: C_11  and  O_12 
ROOT
HETATM    1  N   UNL     1      32.792  57.935  50.532  1.00  0.00    -0.194 NA
HETATM    2  C   UNL     1      31.993  57.232  50.125  1.00  0.00     0.096 C 
HETATM    3  C   UNL     1      30.895  56.320  49.565  1.00  0.00     0.257 C 
ENDROOT
BRANCH   3   4
HETATM    4  C   UNL     1      31.145  56.174  48.069  1.00  0.00    -0.016 A 
HETATM    5  C   UNL     1      32.194  56.825  47.444  1.00  0.00     0.013 A 
HETATM    6  C   UNL     1      32.411  56.695  46.094  1.00  0.00     0.037 A 
HETATM    7  C   UNL     1      31.555  55.885  45.354  1.00  0.00     0.065 A 
HETATM    8  C   UNL     1      30.518  55.228  46.002  1.00  0.00     0.037 A 
HETATM    9  C   UNL     1      30.304  55.367  47.340  1.00  0.00     0.013 A 
BRANCH   7  10
HETATM   10  O   UNL     1      31.750  55.729  43.998  1.00  0.00    -0.361 OA
ATOM     11  HO  UNL     1      32.261  55.002  43.662  1.00  0.00     0.217 HD
ENDBRANCH   7  10
ENDBRANCH   3   4
BRANCH   3  12
HETATM   12  O   UNL     1      29.638  56.888  49.871  1.00  0.00    -0.377 OA
ATOM     13  HO  UNL     1      29.028  56.868  49.143  1.00  0.00     0.211 HD
ENDBRANCH   3  12
TORSDOF 3
ENDMDL
MODEL 19
REMARK VINA RESULT:    -4.851      8.564      8.938
REMARK INTER + INTRA:          -5.428
REMARK INTER:                  -5.332
REMARK INTRA:                  -0.096
REMARK UNBOUND:                -0.010
REMARK  3 active torsions:
REMARK  status: ('A' for Active; 'I' for Inactive)
REMARK    1  A    between atoms: C_3  and  C_11 
REMARK    2  A    between atoms: C_8  and  O_9 
REMARK    3  A    between atoms: C_11  and  O_12 
ROOT
HETATM    1  N   UNL     1      32.534  61.854  55.195  1.00  0.00    -0.194 NA
HETATM    2  C   UNL     1      33.027  62.857  54.971  1.00  0.00     0.096 C 
HETATM    3  C   UNL     1      33.701  64.192  54.631  1.00  0.00     0.257 C 
ENDROOT
BRANCH   3   4
HETATM    4  C   UNL     1      32.687  65.028  53.861  1.00  0.00    -0.016 A 
HETATM    5  C   UNL     1      31.366  65.121  54.268  1.00  0.00     0.013 A 
HETATM    6  C   UNL     1      30.455  65.871  53.566  1.00  0.00     0.037 A 
HETATM    7  C   UNL     1      30.882  66.551  52.429  1.00  0.00     0.065 A 
HETATM    8  C   UNL     1      32.213  66.459  52.047  1.00  0.00     0.037 A 
HETATM    9  C   UNL     1      33.110  65.707  52.743  1.00  0.00     0.013 A 
BRANCH   7  10
HETATM   10  O   UNL     1      29.993  67.318  51.707  1.00  0.00    -0.361 OA
ATOM     11  HO  UNL     1      30.286  67.830  50.962  1.00  0.00     0.217 HD
ENDBRANCH   7  10
ENDBRANCH   3   4
BRANCH   3  12
HETATM   12  O   UNL     1      34.880  63.927  53.900  1.00  0.00    -0.377 OA
ATOM     13  HO  UNL     1      35.017  64.526  53.175  1.00  0.00     0.211 HD
ENDBRANCH   3  12
TORSDOF 3
ENDMDL
MODEL 20
REMARK VINA RESULT:    -4.847      9.674     10.401
REMARK INTER + INTRA:          -5.424
REMARK INTER:                  -5.327
REMARK INTRA:                  -0.097
REMARK UNBOUND:                -0.010
REMARK  3 active torsions:
REMARK  status: ('A' for Active; 'I' for Inactive)
REMARK    1  A    between atoms: C_3  and  C_11 
REMARK    2  A    between atoms: C_8  and  O_9 
REMARK    3  A    between atoms: C_11  and  O_12 
ROOT
HETATM    1  N   UNL     1      30.052  69.176  54.176  1.00  0.00    -0.194 NA
HETATM    2  C   UNL     1      30.067  68.199  53.591  1.00  0.00     0.096 C 
HETATM    3  C   UNL     1      30.110  66.903  52.771  1.00  0.00     0.257 C 
ENDROOT
BRANCH   3   4
HETATM    4  C   UNL     1      31.444  66.226  53.063  1.00  0.00    -0.016 A 
HETATM    5  C   UNL     1      31.554  65.223  54.012  1.00  0.00     0.013 A 
HETATM    6  C   UNL     1      32.760  64.621  54.276  1.00  0.00     0.037 A 
HETATM    7  C   UNL     1      33.883  65.033  53.565  1.00  0.00     0.065 A 
HETATM    8  C   UNL     1      33.749  66.028  52.606  1.00  0.00     0.037 A 
HETATM    9  C   UNL     1      32.551  66.626  52.355  1.00  0.00     0.013 A 
BRANCH   7  10
HETATM   10  O   UNL     1      35.106  64.443  53.802  1.00  0.00    -0.361 OA
ATOM     11  HO  UNL     1      35.616  64.674  54.569  1.00  0.00     0.217 HD
ENDBRANCH   7  10
ENDBRANCH   3   4
BRANCH   3  12
HETATM   12  O   UNL     1      29.932  67.226  51.408  1.00  0.00    -0.377 OA
ATOM     13  HO  UNL     1      30.747  67.270  50.921  1.00  0.00     0.211 HD
ENDBRANCH   3  12
TORSDOF 3
ENDMDL
