REMARK  7 active torsions:
REMARK  status: ('A' for Active; 'I' for Inactive)
REMARK    1  A    between atoms: C_1  and  C_17 
REMARK    2  A    between atoms: C_1  and  C_16 
REMARK    3  A    between atoms: C_3  and  C_20 
REMARK    4  A    between atoms: C_6  and  C_22 
REMARK    5  A    between atoms: C_10  and  C_13 
REMARK    6  A    between atoms: C_15  and  C_16 
REMARK    7  A    between atoms: C_17  and  C_18 
ROOT
HETATM    1  C   UNL     1      32.304  -6.071   8.992  1.00  0.00     0.023 A 
HETATM    2  C   UNL     1      33.209  -6.830   9.686  1.00  0.00    -0.049 A 
HETATM    3  C   UNL     1      31.455  -8.100  10.699  1.00  0.00    -0.049 A 
HETATM    4  C   UNL     1      30.555  -7.348   9.991  1.00  0.00     0.023 A 
HETATM    5  C   UNL     1      30.954  -6.349   9.144  1.00  0.00     0.011 A 
HETATM    6  C   UNL     1      32.816  -7.846  10.531  1.00  0.00     0.015 A 
ENDROOT
BRANCH   5   7
HETATM    7  C   UNL     1      29.960  -5.485   8.391  1.00  0.00     0.159 C 
HETATM    8  O   UNL     1      30.279  -4.855   7.438  1.00  0.00    -0.292 OA
BRANCH   7   9
HETATM    9  C   UNL     1      28.557  -5.330   8.967  1.00  0.00     0.088 C 
BRANCH   9  10
HETATM   10  C   UNL     1      27.646  -4.917   7.870  1.00  0.00     0.046 C 
BRANCH  10  11
HETATM   11  C   UNL     1      26.174  -4.627   8.225  1.00  0.00    -0.058 A 
HETATM   12  C   UNL     1      25.423  -4.113   7.198  1.00  0.00     0.008 A 
HETATM   13  C   UNL     1      24.098  -3.761   7.425  1.00  0.00     0.019 A 
HETATM   14  C   UNL     1      23.560  -4.015   8.682  1.00  0.00     0.040 A 
HETATM   15  C   UNL     1      24.291  -4.515   9.713  1.00  0.00     0.019 A 
HETATM   16  C   UNL     1      25.631  -4.864   9.478  1.00  0.00     0.008 A 
BRANCH  14  17
HETATM   17  C   UNL     1      22.108  -3.612   8.941  1.00  0.00     0.209 C 
HETATM   18  O   UNL     1      21.777  -3.415  10.139  1.00  0.00    -0.644 OA
HETATM   19  O   UNL     1      21.357  -3.400   7.957  1.00  0.00    -0.644 OA
ENDBRANCH  14  17
ENDBRANCH  10  11
ENDBRANCH   9  10
ENDBRANCH   7   9
ENDBRANCH   5   7
BRANCH   3  20
HETATM   20  C   UNL     1      30.927  -9.236  11.593  1.00  0.00    -0.024 C 
HETATM   21  C   UNL     1      29.943 -10.111  10.798  1.00  0.00     0.019 C 
HETATM   22  C   UNL     1      32.101 -10.087  12.074  1.00  0.00     0.019 C 
HETATM   23  C   UNL     1      30.176  -8.706  12.811  1.00  0.00     0.019 C 
ENDBRANCH   3  20
BRANCH   2  24
HETATM   24  C   UNL     1      34.663  -6.466   9.523  1.00  0.00    -0.024 C 
HETATM   25  C   UNL     1      35.529  -7.671   9.823  1.00  0.00     0.019 C 
HETATM   26  C   UNL     1      34.915  -5.816   8.158  1.00  0.00     0.019 C 
HETATM   27  C   UNL     1      34.915  -5.401  10.594  1.00  0.00     0.019 C 
ENDBRANCH   2  24
TORSDOF 7
