REMARK  7 active torsions:
REMARK  status: ('A' for Active; 'I' for Inactive)
REMARK    1  A    between atoms: C_1  and  C_16 
REMARK    2  A    between atoms: C_3  and  C_20 
REMARK    3  A    between atoms: C_6  and  C_22 
REMARK    4  A    between atoms: C_10  and  C_13 
REMARK    5  A    between atoms: C_15  and  C_16 
REMARK    6  A    between atoms: C_17  and  C_18 
REMARK    7  A    between atoms: C_20  and  O_27 
ROOT
HETATM    1  C   UNL     1       0.616  -0.323   0.673  1.00  0.00     0.023 A 
HETATM    2  C   UNL     1       1.338   0.785   1.159  1.00  0.00    -0.049 A 
HETATM    3  C   UNL     1       2.775   0.669  -0.850  1.00  0.00    -0.049 A 
HETATM    4  C   UNL     1       2.016  -0.433  -1.294  1.00  0.00     0.023 A 
HETATM    5  C   UNL     1       0.936  -0.926  -0.551  1.00  0.00     0.015 A 
HETATM    6  C   UNL     1       2.416   1.267   0.381  1.00  0.00     0.015 A 
ENDROOT
BRANCH   5   7
HETATM    7  C   UNL     1       0.166  -2.092  -1.055  1.00  0.00     0.182 C 
HETATM    8  O   UNL     1       0.737  -2.925  -1.812  1.00  0.00    -0.288 OA
BRANCH   7   9
HETATM    9  C   UNL     1      -1.262  -2.278  -0.708  1.00  0.00     0.056 C 
HETATM   10  C   UNL     1      -1.933  -3.395  -1.024  1.00  0.00     0.015 C 
BRANCH  10  11
HETATM   11  C   UNL     1      -3.366  -3.610  -0.709  1.00  0.00    -0.036 A 
HETATM   12  C   UNL     1      -4.025  -2.921   0.328  1.00  0.00     0.012 A 
HETATM   13  C   UNL     1      -5.375  -3.166   0.596  1.00  0.00     0.019 A 
HETATM   14  C   UNL     1      -6.094  -4.108  -0.157  1.00  0.00     0.037 A 
HETATM   15  C   UNL     1      -5.432  -4.808  -1.181  1.00  0.00     0.019 A 
HETATM   16  C   UNL     1      -4.082  -4.564  -1.448  1.00  0.00     0.012 A 
BRANCH  14  17
HETATM   17  C   UNL     1      -7.523  -4.363   0.131  1.00  0.00     0.176 C 
HETATM   18  O   UNL     1      -8.169  -5.211  -0.542  1.00  0.00    -0.646 OA
BRANCH  17  19
HETATM   19  O   UNL     1      -8.169  -3.666   1.149  1.00  0.00    -0.773 OA
HETATM   20  H   UNL     1      -9.147  -3.833   1.354  1.00  0.00     0.167 HD
ENDBRANCH  17  19
ENDBRANCH  14  17
ENDBRANCH  10  11
ENDBRANCH   7   9
ENDBRANCH   5   7
BRANCH   2  21
HETATM   21  C   UNL     1       0.936   1.412   2.514  1.00  0.00    -0.024 C 
HETATM   22  C   UNL     1       1.797   2.638   2.903  1.00  0.00     0.019 C 
HETATM   23  C   UNL     1       1.091   0.359   3.633  1.00  0.00     0.019 C 
HETATM   24  C   UNL     1      -0.535   1.880   2.450  1.00  0.00     0.019 C 
ENDBRANCH   2  21
BRANCH   3  25
HETATM   25  C   UNL     1       3.950   1.175  -1.716  1.00  0.00    -0.024 C 
HETATM   26  C   UNL     1       4.694   2.384  -1.098  1.00  0.00     0.019 C 
HETATM   27  C   UNL     1       4.981   0.039  -1.900  1.00  0.00     0.019 C 
HETATM   28  C   UNL     1       3.419   1.613  -3.099  1.00  0.00     0.019 C 
ENDBRANCH   3  25
TORSDOF 7
