REMARK  6 active torsions:
REMARK  status: ('A' for Active; 'I' for Inactive)
REMARK    1  A    between atoms: C_5  and  C_9 
REMARK    2  A    between atoms: C_7  and  N_17 
REMARK    3  A    between atoms: C_8  and  N_31 
REMARK    4  A    between atoms: C_8  and  C_9 
REMARK    5  A    between atoms: C_20  and  C_26 
REMARK       I    between atoms: C_20  and  N_31 
REMARK    6  A    between atoms: C_22  and  C_23 
ROOT
HETATM    1  C   UNL     1       0.999  21.803 -11.405  1.00  0.00     0.261 C 
HETATM    2  N   UNL     1      -0.067  22.324 -12.000  1.00  0.00    -0.356 N 
ATOM      3  HN  UNL     1      -0.365  21.958 -12.904  1.00  0.00     0.162 HD
HETATM    4  O   UNL     1       1.396  22.151 -10.291  1.00  0.00    -0.267 OA
ENDROOT
BRANCH   2   5
HETATM    5  C   UNL     1      -0.817  23.408 -11.386  1.00  0.00     0.127 C 
BRANCH   5   6
HETATM    6  C   UNL     1      -0.658  24.687 -12.142  1.00  0.00     0.058 C 
BRANCH   6   7
HETATM    7  C   UNL     1      -1.419  25.764 -11.412  1.00  0.00    -0.057 A 
HETATM    8  C   UNL     1      -2.757  25.981 -11.675  1.00  0.00     0.007 A 
HETATM    9  C   UNL     1      -3.473  26.948 -10.988  1.00  0.00     0.008 A 
HETATM   10  C   UNL     1      -2.872  27.722 -10.013  1.00  0.00    -0.054 A 
HETATM   11  C   UNL     1      -1.537  27.473  -9.715  1.00  0.00     0.008 A 
HETATM   12  C   UNL     1      -0.825  26.498 -10.401  1.00  0.00     0.007 A 
BRANCH  10  13
HETATM   13  C   UNL     1      -3.701  28.773  -9.300  1.00  0.00     0.022 C 
HETATM   14  C   UNL     1      -3.802  28.285  -7.836  1.00  0.00     0.042 C 
HETATM   15  C   UNL     1      -4.694  29.164  -6.988  1.00  0.00     0.187 C 
HETATM   16  N   UNL     1      -6.004  29.295  -7.646  1.00  0.00    -0.067 N 
HETATM   17  C   UNL     1      -4.182  30.589  -6.959  1.00  0.00     0.035 C 
HETATM   18  C   UNL     1      -5.672  30.106  -8.841  1.00  0.00     0.187 C 
ATOM     19  HN2 UNL     1      -6.479  28.414  -7.841  1.00  0.00     0.278 HD
ATOM     20  HN1 UNL     1      -6.746  29.676  -7.058  1.00  0.00     0.278 HD
HETATM   21  C   UNL     1      -5.053  29.157  -9.848  1.00  0.00     0.042 C 
HETATM   22  C   UNL     1      -4.819  31.219  -8.220  1.00  0.00     0.035 C 
ENDBRANCH  10  13
ENDBRANCH   6   7
ENDBRANCH   5   6
ENDBRANCH   2   5
BRANCH   1  23
HETATM   23  C   UNL     1       1.714  20.774 -12.164  1.00  0.00     0.103 A 
HETATM   24  S   UNL     1       1.274  20.403 -13.812  1.00  0.00    -0.062 SA
HETATM   25  C   UNL     1       2.598  19.299 -13.928  1.00  0.00     0.104 A 
HETATM   26  N   UNL     1       2.911  18.626 -15.041  1.00  0.00    -0.351 N 
HETATM   27  C   UNL     1       3.334  19.161 -12.743  1.00  0.00     0.094 A 
HETATM   28  C   UNL     1       3.955  17.814 -14.976  1.00  0.00     0.021 A 
ATOM     29  HN  UNL     1       2.371  18.733 -15.900  1.00  0.00     0.166 HD
HETATM   30  C   UNL     1       4.297  17.056 -16.221  1.00  0.00     0.069 C 
HETATM   31  C   UNL     1       4.701  17.663 -13.792  1.00  0.00     0.113 A 
HETATM   32  N   UNL     1       4.402  18.336 -12.671  1.00  0.00    -0.360 N 
ATOM     33  HN  UNL     1       4.948  18.231 -11.816  1.00  0.00     0.165 HD
HETATM   34  C   UNL     1       2.791  20.036 -11.718  1.00  0.00     0.078 A 
BRANCH  34  35
HETATM   35  N   UNL     1       3.351  20.170 -10.504  1.00  0.00    -0.396 N 
ATOM     36  HN2 UNL     1       2.970  20.784  -9.784  1.00  0.00     0.156 HD
ATOM     37  HN1 UNL     1       4.147  19.624 -10.174  1.00  0.00     0.156 HD
ENDBRANCH  34  35
ENDBRANCH   1  23
TORSDOF 6
