REMARK  11 active torsions:
REMARK  status: ('A' for Active; 'I' for Inactive)
REMARK    1  A    between atoms: C_2  and  O_55 
REMARK    2  A    between atoms: C_2  and  C_35 
REMARK    3  A    between atoms: C_3  and  O_57 
REMARK    4  A    between atoms: C_6  and  O_58 
REMARK    5  A    between atoms: C_9  and  O_57 
REMARK    6  A    between atoms: C_12  and  C_23 
REMARK    7  A    between atoms: C_13  and  N_45 
REMARK       I    between atoms: C_14  and  N_45 
REMARK    8  A    between atoms: C_14  and  O_55 
REMARK       I    between atoms: C_23  and  N_51 
REMARK    9  A    between atoms: C_24  and  S_62 
REMARK   10  A    between atoms: C_35  and  C_38 
REMARK   11  A    between atoms: N_51  and  S_62 
ROOT
HETATM    1  C   UNL     1     -13.674  17.416 -16.740  1.00  0.00     0.243 C 
HETATM    2  C   UNL     1     -13.662  19.802 -15.751  1.00  0.00     0.181 C 
HETATM    3  C   UNL     1     -12.543  20.671 -14.942  1.00  0.00     0.069 C 
HETATM    4  C   UNL     1     -11.928  19.726 -14.232  1.00  0.00     0.151 C 
HETATM    5  C   UNL     1     -11.669  18.567 -15.289  1.00  0.00     0.159 C 
HETATM    6  C   UNL     1     -14.080  20.148 -17.134  1.00  0.00     0.241 C 
HETATM    7  C   UNL     1     -16.146  20.847 -18.452  1.00  0.00     0.122 A 
HETATM    8  C   UNL     1     -12.859  16.133 -16.938  1.00  0.00     0.179 C 
HETATM    9  C   UNL     1     -12.705  15.906 -18.446  1.00  0.00     0.035 C 
HETATM   10  C   UNL     1     -11.891  17.072 -19.094  1.00  0.00     0.002 C 
HETATM   11  C   UNL     1     -16.296  19.622 -19.399  1.00  0.00     0.048 A 
HETATM   12  C   UNL     1     -16.227  19.407 -20.914  1.00  0.00    -0.023 C 
HETATM   13  C   UNL     1     -15.397  18.547 -21.547  1.00  0.00    -0.030 C 
HETATM   14  C   UNL     1     -14.386  17.649 -20.799  1.00  0.00     0.027 C 
HETATM   15  C   UNL     1     -12.944  17.990 -21.241  1.00  0.00     0.004 C 
HETATM   16  C   UNL     1     -17.541  20.318 -18.835  1.00  0.00     0.053 A 
HETATM   17  C   UNL     1     -11.951  16.940 -20.649  1.00  0.00     0.000 C 
HETATM   18  N   UNL     1     -13.108  18.534 -15.991  1.00  0.00    -0.334 N 
HETATM   19  N   UNL     1     -15.429  20.624 -17.196  1.00  0.00    -0.341 N 
ATOM     20  HN  UNL     1     -15.915  20.817 -16.320  1.00  0.00     0.163 HD
HETATM   21  O   UNL     1     -13.372  20.041 -18.087  1.00  0.00    -0.271 OA
HETATM   22  O   UNL     1     -14.767  17.487 -17.202  1.00  0.00    -0.271 OA
ENDROOT
BRANCH   4  23
HETATM   23  O   UNL     1     -12.738  18.918 -13.333  1.00  0.00    -0.327 OA
BRANCH  23  24
HETATM   24  C   UNL     1     -12.859  19.578 -12.126  1.00  0.00     0.165 A 
HETATM   25  C   UNL     1     -14.000  19.167 -11.187  1.00  0.00     0.057 A 
HETATM   26  C   UNL     1     -14.920  18.010 -11.569  1.00  0.00     0.072 C 
HETATM   27  N   UNL     1     -14.217  19.840  -9.940  1.00  0.00    -0.358 N 
HETATM   28  C   UNL     1     -13.286  20.917  -9.647  1.00  0.00     0.032 A 
ATOM     29  HN  UNL     1     -14.971  19.581  -9.304  1.00  0.00     0.165 HD
HETATM   30  C   UNL     1     -12.159  21.336 -10.588  1.00  0.00     0.036 A 
HETATM   31  C   UNL     1     -13.513  21.646  -8.298  1.00  0.00     0.061 A 
HETATM   32  N   UNL     1     -11.951  20.659 -11.859  1.00  0.00    -0.337 N 
HETATM   33  C   UNL     1     -11.197  22.481 -10.245  1.00  0.00     0.091 A 
ATOM     34  HN  UNL     1     -11.216  20.931 -12.511  1.00  0.00     0.168 HD
HETATM   35  C   UNL     1     -11.442  23.191  -8.905  1.00  0.00     0.126 A 
HETATM   36  C   UNL     1     -12.578  22.786  -7.963  1.00  0.00     0.038 A 
BRANCH  35  37
HETATM   37  O   UNL     1     -10.611  24.235  -8.555  1.00  0.00    -0.390 OA
HETATM   38  C   UNL     1      -9.611  24.547  -9.492  1.00  0.00     0.202 C 
ENDBRANCH  35  37
ENDBRANCH  23  24
ENDBRANCH   4  23
BRANCH   8  39
HETATM   39  N   UNL     1     -13.535  14.997 -16.410  1.00  0.00    -0.324 N 
HETATM   40  C   UNL     1     -13.408  14.706 -15.005  1.00  0.00     0.361 C 
HETATM   41  O   UNL     1     -12.693  15.335 -14.269  1.00  0.00    -0.239 OA
ATOM     42  HN  UNL     1     -14.099  14.400 -17.015  1.00  0.00     0.165 HD
BRANCH  40  43
HETATM   43  O   UNL     1     -14.170  13.616 -14.551  1.00  0.00    -0.303 OA
BRANCH  43  44
HETATM   44  C   UNL     1     -14.084  13.491 -13.150  1.00  0.00     0.199 C 
BRANCH  44  45
HETATM   45  C   UNL     1     -15.371  12.752 -12.769  1.00  0.00     0.080 A 
HETATM   46  C   UNL     1     -15.273  11.694 -11.659  1.00  0.00     0.022 A 
HETATM   47  C   UNL     1     -15.361  11.262 -13.131  1.00  0.00     0.022 A 
BRANCH  45  48
HETATM   48  C   UNL     1     -16.733  13.468 -12.934  1.00  0.00     0.397 C 
HETATM   49  F   UNL     1     -17.714  12.665 -12.468  1.00  0.00    -0.170 F 
HETATM   50  F   UNL     1     -16.698  14.635 -12.212  1.00  0.00    -0.170 F 
HETATM   51  F   UNL     1     -16.897  13.692 -14.279  1.00  0.00    -0.170 F 
ENDBRANCH  45  48
ENDBRANCH  44  45
ENDBRANCH  43  44
ENDBRANCH  40  43
ENDBRANCH   8  39
BRANCH   7  52
HETATM   52  C   UNL     1     -15.847  22.060 -19.295  1.00  0.00     0.260 C 
HETATM   53  O   UNL     1     -16.378  22.337 -20.335  1.00  0.00    -0.270 OA
HETATM   54  N   UNL     1     -14.913  22.962 -18.711  1.00  0.00    -0.252 N 
ATOM     55  HN  UNL     1     -14.474  22.773 -17.810  1.00  0.00     0.181 HD
BRANCH  54  56
HETATM   56  S   UNL     1     -14.582  24.322 -19.568  1.00  0.00     0.241 S 
HETATM   57  O   UNL     1     -15.703  25.245 -19.797  1.00  0.00    -0.205 OA
HETATM   58  O   UNL     1     -13.997  23.966 -20.865  1.00  0.00    -0.205 OA
BRANCH  56  59
HETATM   59  C   UNL     1     -13.236  25.143 -18.686  1.00  0.00     0.079 A 
HETATM   60  C   UNL     1     -13.124  26.629 -19.017  1.00  0.00     0.028 A 
HETATM   61  C   UNL     1     -13.733  26.185 -17.676  1.00  0.00     0.028 A 
HETATM   62  C   UNL     1     -11.944  24.360 -18.349  1.00  0.00     0.034 C 
ENDBRANCH  56  59
ENDBRANCH  54  56
ENDBRANCH   7  52
TORSDOF 11
