MODEL 1
REMARK VINA RESULT:   -10.764      0.000      0.000
REMARK INTER + INTRA:         -15.640
REMARK INTER:                 -15.169
REMARK INTRA:                  -0.472
REMARK UNBOUND:                -0.472
REMARK  9 active torsions:
REMARK  status: ('A' for Active; 'I' for Inactive)
REMARK    1  A    between atoms: N_20  and  C_22 
REMARK    2  A    between atoms: C_22  and  C_23 
REMARK    3  A    between atoms: C_23  and  O_24 
REMARK    4  A    between atoms: C_23  and  C_26 
REMARK    5  A    between atoms: C_26  and  O_27 
REMARK    6  A    between atoms: C_26  and  C_29 
REMARK    7  A    between atoms: C_29  and  C_32 
REMARK    8  A    between atoms: C_29  and  O_30 
REMARK    9  A    between atoms: C_32  and  O_33 
ROOT
HETATM    1  N   UNL     1      -1.700  -6.102 -13.219  1.00  0.00    -0.292 N 
ATOM      2  HN  UNL     1      -2.318  -6.276 -12.426  1.00  0.00     0.172 HD
HETATM    3  C   UNL     1      -1.963  -6.611 -14.442  1.00  0.00     0.328 A 
HETATM    4  O   UNL     1      -3.003  -7.340 -14.646  1.00  0.00    -0.247 OA
HETATM    5  N   UNL     1      -1.093  -6.429 -15.488  1.00  0.00    -0.273 N 
ATOM      6  HN  UNL     1      -1.330  -6.848 -16.387  1.00  0.00     0.173 HD
HETATM    7  C   UNL     1       0.094  -5.708 -15.394  1.00  0.00     0.280 A 
HETATM    8  O   UNL     1       0.844  -5.668 -16.354  1.00  0.00    -0.265 OA
HETATM    9  C   UNL     1       0.332  -5.096 -14.118  1.00  0.00     0.146 A 
HETATM   10  N   UNL     1       1.438  -4.353 -13.971  1.00  0.00    -0.347 N 
ATOM     11  HN  UNL     1       2.084  -4.185 -14.742  1.00  0.00     0.166 HD
HETATM   12  C   UNL     1       1.646  -3.836 -12.721  1.00  0.00     0.060 A 
HETATM   13  C   UNL     1       2.811  -3.046 -12.501  1.00  0.00     0.039 A 
HETATM   14  C   UNL     1       3.114  -2.508 -11.277  1.00  0.00    -0.054 A 
HETATM   15  C   UNL     1       4.392  -1.729 -11.074  1.00  0.00     0.049 C 
HETATM   16  C   UNL     1       2.228  -2.685 -10.214  1.00  0.00    -0.054 A 
HETATM   17  C   UNL     1       2.482  -2.127  -8.840  1.00  0.00     0.049 C 
HETATM   18  C   UNL     1       1.092  -3.489 -10.387  1.00  0.00     0.039 A 
HETATM   19  C   UNL     1       0.789  -4.049 -11.624  1.00  0.00     0.063 A 
HETATM   20  N   UNL     1      -0.336  -4.844 -11.835  1.00  0.00    -0.327 N 
HETATM   21  C   UNL     1      -0.587  -5.355 -13.089  1.00  0.00     0.145 A 
ENDROOT
BRANCH  20  22
HETATM   22  C   UNL     1      -1.201  -5.221 -10.707  1.00  0.00     0.165 C 
BRANCH  22  23
HETATM   23  C   UNL     1      -2.482  -4.454 -10.575  1.00  0.00     0.167 C 
BRANCH  23  24
HETATM   24  O   UNL     1      -2.175  -3.107 -10.893  1.00  0.00    -0.391 OA
ATOM     25  HO  UNL     1      -2.771  -2.518 -10.446  1.00  0.00     0.210 HD
ENDBRANCH  23  24
BRANCH  23  26
HETATM   26  C   UNL     1      -3.057  -4.550  -9.164  1.00  0.00     0.179 C 
BRANCH  26  27
HETATM   27  O   UNL     1      -2.027  -4.846  -8.257  1.00  0.00    -0.390 OA
ATOM     28  HO  UNL     1      -2.374  -4.847  -7.373  1.00  0.00     0.210 HD
ENDBRANCH  26  27
BRANCH  26  29
HETATM   29  C   UNL     1      -4.185  -5.576  -9.009  1.00  0.00     0.173 C 
BRANCH  29  30
HETATM   30  C   UNL     1      -3.696  -6.935  -8.580  1.00  0.00     0.198 C 
BRANCH  30  31
HETATM   31  O   UNL     1      -3.632  -6.965  -7.094  1.00  0.00    -0.398 OA
ATOM     32  HO  UNL     1      -3.601  -7.871  -6.813  1.00  0.00     0.209 HD
ENDBRANCH  30  31
ENDBRANCH  29  30
BRANCH  29  33
HETATM   33  O   UNL     1      -5.181  -5.103  -8.108  1.00  0.00    -0.391 OA
ATOM     34  HO  UNL     1      -5.649  -4.364  -8.479  1.00  0.00     0.210 HD
ENDBRANCH  29  33
ENDBRANCH  26  29
ENDBRANCH  23  26
ENDBRANCH  22  23
ENDBRANCH  20  22
TORSDOF 9
ENDMDL
MODEL 2
REMARK VINA RESULT:    -9.754      0.953      1.475
REMARK INTER + INTRA:         -14.217
REMARK INTER:                 -14.224
REMARK INTRA:                   0.007
REMARK UNBOUND:                -0.472
REMARK  9 active torsions:
REMARK  status: ('A' for Active; 'I' for Inactive)
REMARK    1  A    between atoms: N_20  and  C_22 
REMARK    2  A    between atoms: C_22  and  C_23 
REMARK    3  A    between atoms: C_23  and  O_24 
REMARK    4  A    between atoms: C_23  and  C_26 
REMARK    5  A    between atoms: C_26  and  O_27 
REMARK    6  A    between atoms: C_26  and  C_29 
REMARK    7  A    between atoms: C_29  and  C_32 
REMARK    8  A    between atoms: C_29  and  O_30 
REMARK    9  A    between atoms: C_32  and  O_33 
ROOT
HETATM    1  N   UNL     1      -1.459  -6.456 -13.210  1.00  0.00    -0.292 N 
ATOM      2  HN  UNL     1      -1.991  -6.746 -12.389  1.00  0.00     0.172 HD
HETATM    3  C   UNL     1      -1.758  -6.921 -14.442  1.00  0.00     0.328 A 
HETATM    4  O   UNL     1      -2.722  -7.753 -14.620  1.00  0.00    -0.247 OA
HETATM    5  N   UNL     1      -0.996  -6.579 -15.532  1.00  0.00    -0.273 N 
ATOM      6  HN  UNL     1      -1.253  -6.970 -16.439  1.00  0.00     0.173 HD
HETATM    7  C   UNL     1       0.106  -5.731 -15.474  1.00  0.00     0.280 A 
HETATM    8  O   UNL     1       0.771  -5.549 -16.480  1.00  0.00    -0.265 OA
HETATM    9  C   UNL     1       0.372  -5.170 -14.180  1.00  0.00     0.146 A 
HETATM   10  N   UNL     1       1.396  -4.313 -14.062  1.00  0.00    -0.347 N 
ATOM     11  HN  UNL     1       1.957  -4.027 -14.864  1.00  0.00     0.166 HD
HETATM   12  C   UNL     1       1.640  -3.847 -12.799  1.00  0.00     0.060 A 
HETATM   13  C   UNL     1       2.723  -2.942 -12.610  1.00  0.00     0.039 A 
HETATM   14  C   UNL     1       3.058  -2.443 -11.377  1.00  0.00    -0.054 A 
HETATM   15  C   UNL     1       4.252  -1.533 -11.213  1.00  0.00     0.049 C 
HETATM   16  C   UNL     1       2.281  -2.782 -10.268  1.00  0.00    -0.054 A 
HETATM   17  C   UNL     1       2.576  -2.279  -8.882  1.00  0.00     0.049 C 
HETATM   18  C   UNL     1       1.233  -3.702 -10.414  1.00  0.00     0.039 A 
HETATM   19  C   UNL     1       0.899  -4.222 -11.661  1.00  0.00     0.063 A 
HETATM   20  N   UNL     1      -0.143  -5.129 -11.845  1.00  0.00    -0.327 N 
HETATM   21  C   UNL     1      -0.431  -5.593 -13.109  1.00  0.00     0.145 A 
ENDROOT
BRANCH  20  22
HETATM   22  C   UNL     1      -0.870  -5.668 -10.686  1.00  0.00     0.165 C 
BRANCH  22  23
HETATM   23  C   UNL     1      -2.362  -5.522 -10.721  1.00  0.00     0.167 C 
BRANCH  23  24
HETATM   24  O   UNL     1      -2.623  -4.179 -11.090  1.00  0.00    -0.391 OA
ATOM     25  HO  UNL     1      -2.914  -4.135 -11.993  1.00  0.00     0.210 HD
ENDBRANCH  23  24
BRANCH  23  26
HETATM   26  C   UNL     1      -2.992  -5.833  -9.365  1.00  0.00     0.179 C 
BRANCH  26  27
HETATM   27  O   UNL     1      -4.200  -6.523  -9.555  1.00  0.00    -0.390 OA
ATOM     28  HO  UNL     1      -4.917  -5.901  -9.589  1.00  0.00     0.210 HD
ENDBRANCH  26  27
BRANCH  26  29
HETATM   29  C   UNL     1      -3.239  -4.602  -8.485  1.00  0.00     0.173 C 
BRANCH  29  30
HETATM   30  C   UNL     1      -1.972  -3.882  -8.103  1.00  0.00     0.198 C 
BRANCH  30  31
HETATM   31  O   UNL     1      -1.927  -2.588  -8.835  1.00  0.00    -0.398 OA
ATOM     32  HO  UNL     1      -2.626  -2.581  -9.478  1.00  0.00     0.209 HD
ENDBRANCH  30  31
ENDBRANCH  29  30
BRANCH  29  33
HETATM   33  O   UNL     1      -4.147  -3.703  -9.114  1.00  0.00    -0.391 OA
ATOM     34  HO  UNL     1      -3.901  -2.801  -8.947  1.00  0.00     0.210 HD
ENDBRANCH  29  33
ENDBRANCH  26  29
ENDBRANCH  23  26
ENDBRANCH  22  23
ENDBRANCH  20  22
TORSDOF 9
ENDMDL
MODEL 3
REMARK VINA RESULT:    -9.673      2.350      4.958
REMARK INTER + INTRA:         -14.103
REMARK INTER:                 -13.350
REMARK INTRA:                  -0.752
REMARK UNBOUND:                -0.472
REMARK  9 active torsions:
REMARK  status: ('A' for Active; 'I' for Inactive)
REMARK    1  A    between atoms: N_20  and  C_22 
REMARK    2  A    between atoms: C_22  and  C_23 
REMARK    3  A    between atoms: C_23  and  O_24 
REMARK    4  A    between atoms: C_23  and  C_26 
REMARK    5  A    between atoms: C_26  and  O_27 
REMARK    6  A    between atoms: C_26  and  C_29 
REMARK    7  A    between atoms: C_29  and  C_32 
REMARK    8  A    between atoms: C_29  and  O_30 
REMARK    9  A    between atoms: C_32  and  O_33 
ROOT
HETATM    1  N   UNL     1       1.485  -3.007  -9.340  1.00  0.00    -0.292 N 
ATOM      2  HN  UNL     1       0.767  -3.310  -8.682  1.00  0.00     0.172 HD
HETATM    3  C   UNL     1       2.486  -2.184  -8.959  1.00  0.00     0.328 A 
HETATM    4  O   UNL     1       2.562  -1.749  -7.751  1.00  0.00    -0.247 OA
HETATM    5  N   UNL     1       3.411  -1.726  -9.864  1.00  0.00    -0.273 N 
ATOM      6  HN  UNL     1       4.138  -1.094  -9.530  1.00  0.00     0.173 HD
HETATM    7  C   UNL     1       3.416  -2.075 -11.211  1.00  0.00     0.280 A 
HETATM    8  O   UNL     1       4.229  -1.556 -11.958  1.00  0.00    -0.265 OA
HETATM    9  C   UNL     1       2.404  -3.016 -11.599  1.00  0.00     0.146 A 
HETATM   10  N   UNL     1       2.378  -3.425 -12.875  1.00  0.00    -0.347 N 
ATOM     11  HN  UNL     1       3.071  -3.117 -13.557  1.00  0.00     0.166 HD
HETATM   12  C   UNL     1       1.362  -4.281 -13.205  1.00  0.00     0.060 A 
HETATM   13  C   UNL     1       1.276  -4.741 -14.550  1.00  0.00     0.039 A 
HETATM   14  C   UNL     1       0.279  -5.580 -14.978  1.00  0.00    -0.054 A 
HETATM   15  C   UNL     1       0.190  -5.994 -16.427  1.00  0.00     0.049 C 
HETATM   16  C   UNL     1      -0.658  -6.052 -14.058  1.00  0.00    -0.054 A 
HETATM   17  C   UNL     1      -1.782  -6.976 -14.442  1.00  0.00     0.049 C 
HETATM   18  C   UNL     1      -0.625  -5.587 -12.736  1.00  0.00     0.039 A 
HETATM   19  C   UNL     1       0.377  -4.725 -12.302  1.00  0.00     0.063 A 
HETATM   20  N   UNL     1       0.448  -4.251 -10.993  1.00  0.00    -0.327 N 
HETATM   21  C   UNL     1       1.475  -3.412 -10.624  1.00  0.00     0.145 A 
ENDROOT
BRANCH  20  22
HETATM   22  C   UNL     1      -0.620  -4.563 -10.032  1.00  0.00     0.165 C 
BRANCH  22  23
HETATM   23  C   UNL     1      -1.881  -3.764 -10.167  1.00  0.00     0.167 C 
BRANCH  23  24
HETATM   24  O   UNL     1      -1.785  -2.705  -9.229  1.00  0.00    -0.391 OA
ATOM     25  HO  UNL     1      -2.566  -2.165  -9.259  1.00  0.00     0.210 HD
ENDBRANCH  23  24
BRANCH  23  26
HETATM   26  C   UNL     1      -3.121  -4.611  -9.888  1.00  0.00     0.179 C 
BRANCH  26  27
HETATM   27  O   UNL     1      -4.064  -3.845  -9.185  1.00  0.00    -0.390 OA
ATOM     28  HO  UNL     1      -3.745  -2.954  -9.095  1.00  0.00     0.210 HD
ENDBRANCH  26  27
BRANCH  26  29
HETATM   29  C   UNL     1      -2.840  -5.908  -9.120  1.00  0.00     0.173 C 
BRANCH  29  30
HETATM   30  C   UNL     1      -3.254  -5.841  -7.673  1.00  0.00     0.198 C 
BRANCH  30  31
HETATM   31  O   UNL     1      -3.720  -7.190  -7.253  1.00  0.00    -0.398 OA
ATOM     32  HO  UNL     1      -4.440  -7.083  -6.643  1.00  0.00     0.209 HD
ENDBRANCH  30  31
ENDBRANCH  29  30
BRANCH  29  33
HETATM   33  O   UNL     1      -3.458  -7.020  -9.760  1.00  0.00    -0.391 OA
ATOM     34  HO  UNL     1      -3.746  -7.661  -9.120  1.00  0.00     0.210 HD
ENDBRANCH  29  33
ENDBRANCH  26  29
ENDBRANCH  23  26
ENDBRANCH  22  23
ENDBRANCH  20  22
TORSDOF 9
ENDMDL
MODEL 4
REMARK VINA RESULT:    -8.533      2.601      5.041
REMARK INTER + INTRA:         -12.497
REMARK INTER:                 -11.395
REMARK INTRA:                  -1.102
REMARK UNBOUND:                -0.472
REMARK  9 active torsions:
REMARK  status: ('A' for Active; 'I' for Inactive)
REMARK    1  A    between atoms: N_20  and  C_22 
REMARK    2  A    between atoms: C_22  and  C_23 
REMARK    3  A    between atoms: C_23  and  O_24 
REMARK    4  A    between atoms: C_23  and  C_26 
REMARK    5  A    between atoms: C_26  and  O_27 
REMARK    6  A    between atoms: C_26  and  C_29 
REMARK    7  A    between atoms: C_29  and  C_32 
REMARK    8  A    between atoms: C_29  and  O_30 
REMARK    9  A    between atoms: C_32  and  O_33 
ROOT
HETATM    1  N   UNL     1      -1.367  -2.932  -9.118  1.00  0.00    -0.292 N 
ATOM      2  HN  UNL     1      -2.289  -3.257  -8.827  1.00  0.00     0.172 HD
HETATM    3  C   UNL     1      -0.676  -2.032  -8.386  1.00  0.00     0.328 A 
HETATM    4  O   UNL     1      -1.162  -1.549  -7.298  1.00  0.00    -0.247 OA
HETATM    5  N   UNL     1       0.535  -1.548  -8.817  1.00  0.00    -0.273 N 
ATOM      6  HN  UNL     1       1.010  -0.857  -8.236  1.00  0.00     0.173 HD
HETATM    7  C   UNL     1       1.152  -1.944 -10.000  1.00  0.00     0.280 A 
HETATM    8  O   UNL     1       2.188  -1.400 -10.342  1.00  0.00    -0.265 OA
HETATM    9  C   UNL     1       0.458  -2.963 -10.735  1.00  0.00     0.146 A 
HETATM   10  N   UNL     1       1.018  -3.419 -11.864  1.00  0.00    -0.347 N 
ATOM     11  HN  UNL     1       1.927  -3.091 -12.188  1.00  0.00     0.166 HD
HETATM   12  C   UNL     1       0.292  -4.351 -12.555  1.00  0.00     0.060 A 
HETATM   13  C   UNL     1       0.831  -4.865 -13.768  1.00  0.00     0.039 A 
HETATM   14  C   UNL     1       0.164  -5.782 -14.540  1.00  0.00    -0.054 A 
HETATM   15  C   UNL     1       0.745  -6.253 -15.851  1.00  0.00     0.049 C 
HETATM   16  C   UNL     1      -1.063  -6.281 -14.100  1.00  0.00    -0.054 A 
HETATM   17  C   UNL     1      -1.859  -7.290 -14.882  1.00  0.00     0.049 C 
HETATM   18  C   UNL     1      -1.639  -5.767 -12.930  1.00  0.00     0.039 A 
HETATM   19  C   UNL     1      -0.972  -4.825 -12.153  1.00  0.00     0.063 A 
HETATM   20  N   UNL     1      -1.509  -4.301 -10.978  1.00  0.00    -0.327 N 
HETATM   21  C   UNL     1      -0.790  -3.383 -10.247  1.00  0.00     0.145 A 
ENDROOT
BRANCH  20  22
HETATM   22  C   UNL     1      -2.879  -4.647 -10.570  1.00  0.00     0.165 C 
BRANCH  22  23
HETATM   23  C   UNL     1      -3.001  -5.628  -9.443  1.00  0.00     0.167 C 
BRANCH  23  24
HETATM   24  O   UNL     1      -3.328  -6.875 -10.033  1.00  0.00    -0.391 OA
ATOM     25  HO  UNL     1      -2.563  -7.255 -10.448  1.00  0.00     0.210 HD
ENDBRANCH  23  24
BRANCH  23  26
HETATM   26  C   UNL     1      -4.081  -5.213  -8.446  1.00  0.00     0.179 C 
BRANCH  26  27
HETATM   27  O   UNL     1      -3.945  -3.848  -8.149  1.00  0.00    -0.390 OA
ATOM     28  HO  UNL     1      -4.728  -3.385  -8.423  1.00  0.00     0.210 HD
ENDBRANCH  26  27
BRANCH  26  29
HETATM   29  C   UNL     1      -4.083  -6.022  -7.143  1.00  0.00     0.173 C 
BRANCH  29  30
HETATM   30  C   UNL     1      -5.443  -6.107  -6.501  1.00  0.00     0.198 C 
BRANCH  30  31
HETATM   31  O   UNL     1      -6.210  -4.884  -6.859  1.00  0.00    -0.398 OA
ATOM     32  HO  UNL     1      -5.639  -4.302  -7.346  1.00  0.00     0.209 HD
ENDBRANCH  30  31
ENDBRANCH  29  30
BRANCH  29  33
HETATM   33  O   UNL     1      -3.554  -7.326  -7.355  1.00  0.00    -0.391 OA
ATOM     34  HO  UNL     1      -3.718  -7.884  -6.603  1.00  0.00     0.210 HD
ENDBRANCH  29  33
ENDBRANCH  26  29
ENDBRANCH  23  26
ENDBRANCH  22  23
ENDBRANCH  20  22
TORSDOF 9
ENDMDL
MODEL 5
REMARK VINA RESULT:    -7.927      2.654      5.487
REMARK INTER + INTRA:         -11.642
REMARK INTER:                 -11.911
REMARK INTRA:                   0.268
REMARK UNBOUND:                -0.472
REMARK  9 active torsions:
REMARK  status: ('A' for Active; 'I' for Inactive)
REMARK    1  A    between atoms: N_20  and  C_22 
REMARK    2  A    between atoms: C_22  and  C_23 
REMARK    3  A    between atoms: C_23  and  O_24 
REMARK    4  A    between atoms: C_23  and  C_26 
REMARK    5  A    between atoms: C_26  and  O_27 
REMARK    6  A    between atoms: C_26  and  C_29 
REMARK    7  A    between atoms: C_29  and  C_32 
REMARK    8  A    between atoms: C_29  and  O_30 
REMARK    9  A    between atoms: C_32  and  O_33 
ROOT
HETATM    1  N   UNL     1       0.191  -5.096 -14.675  1.00  0.00    -0.292 N 
ATOM      2  HN  UNL     1       0.766  -4.263 -14.798  1.00  0.00     0.172 HD
HETATM    3  C   UNL     1       0.116  -6.046 -15.632  1.00  0.00     0.328 A 
HETATM    4  O   UNL     1       0.764  -5.926 -16.736  1.00  0.00    -0.247 OA
HETATM    5  N   UNL     1      -0.712  -7.132 -15.489  1.00  0.00    -0.273 N 
ATOM      6  HN  UNL     1      -0.745  -7.813 -16.248  1.00  0.00     0.173 HD
HETATM    7  C   UNL     1      -1.508  -7.359 -14.371  1.00  0.00     0.280 A 
HETATM    8  O   UNL     1      -2.273  -8.308 -14.367  1.00  0.00    -0.265 OA
HETATM    9  C   UNL     1      -1.364  -6.395 -13.318  1.00  0.00     0.146 A 
HETATM   10  N   UNL     1      -2.073  -6.575 -12.195  1.00  0.00    -0.347 N 
ATOM     11  HN  UNL     1      -2.674  -7.388 -12.059  1.00  0.00     0.166 HD
HETATM   12  C   UNL     1      -1.941  -5.601 -11.244  1.00  0.00     0.060 A 
HETATM   13  C   UNL     1      -2.679  -5.733 -10.033  1.00  0.00     0.039 A 
HETATM   14  C   UNL     1      -2.629  -4.795  -9.034  1.00  0.00    -0.054 A 
HETATM   15  C   UNL     1      -3.475  -4.945  -7.793  1.00  0.00     0.049 C 
HETATM   16  C   UNL     1      -1.783  -3.694  -9.173  1.00  0.00    -0.054 A 
HETATM   17  C   UNL     1      -1.665  -2.620  -8.126  1.00  0.00     0.049 C 
HETATM   18  C   UNL     1      -1.073  -3.514 -10.369  1.00  0.00     0.039 A 
HETATM   19  C   UNL     1      -1.133  -4.456 -11.390  1.00  0.00     0.063 A 
HETATM   20  N   UNL     1      -0.433  -4.316 -12.587  1.00  0.00    -0.327 N 
HETATM   21  C   UNL     1      -0.524  -5.295 -13.552  1.00  0.00     0.145 A 
ENDROOT
BRANCH  20  22
HETATM   22  C   UNL     1       0.321  -3.085 -12.866  1.00  0.00     0.165 C 
BRANCH  22  23
HETATM   23  C   UNL     1       0.906  -2.388 -11.674  1.00  0.00     0.167 C 
BRANCH  23  24
HETATM   24  O   UNL     1       0.307  -1.104 -11.629  1.00  0.00    -0.391 OA
ATOM     25  HO  UNL     1      -0.046  -0.874 -12.480  1.00  0.00     0.210 HD
ENDBRANCH  23  24
BRANCH  23  26
HETATM   26  C   UNL     1       2.424  -2.263 -11.780  1.00  0.00     0.179 C 
BRANCH  26  27
HETATM   27  O   UNL     1       2.920  -3.268 -12.626  1.00  0.00    -0.390 OA
ATOM     28  HO  UNL     1       3.808  -3.488 -12.370  1.00  0.00     0.210 HD
ENDBRANCH  26  27
BRANCH  26  29
HETATM   29  C   UNL     1       3.159  -2.318 -10.435  1.00  0.00     0.173 C 
BRANCH  29  30
HETATM   30  C   UNL     1       4.614  -1.942 -10.540  1.00  0.00     0.198 C 
BRANCH  30  31
HETATM   31  O   UNL     1       4.801  -1.120 -11.765  1.00  0.00    -0.398 OA
ATOM     32  HO  UNL     1       4.103  -0.479 -11.807  1.00  0.00     0.209 HD
ENDBRANCH  30  31
ENDBRANCH  29  30
BRANCH  29  33
HETATM   33  O   UNL     1       2.506  -1.503  -9.467  1.00  0.00    -0.391 OA
ATOM     34  HO  UNL     1       2.915  -1.597  -8.615  1.00  0.00     0.210 HD
ENDBRANCH  29  33
ENDBRANCH  26  29
ENDBRANCH  23  26
ENDBRANCH  22  23
ENDBRANCH  20  22
TORSDOF 9
ENDMDL
