REMARK  25 active torsions:
REMARK  status: ('A' for Active; 'I' for Inactive)
REMARK    1  A    between atoms: C_2  and  O_4 
REMARK    2  A    between atoms: C_2  and  C_6 
REMARK    3  A    between atoms: C_6  and  S_8 
REMARK    4  A    between atoms: S_8  and  C_9 
REMARK    5  A    between atoms: C_9  and  C_10 
REMARK    6  A    between atoms: C_10  and  N_11 
REMARK       I    between atoms: N_11  and  C_13 
REMARK    7  A    between atoms: C_13  and  C_15 
REMARK    8  A    between atoms: C_15  and  C_16 
REMARK    9  A    between atoms: C_16  and  N_17 
REMARK       I    between atoms: N_17  and  C_19 
REMARK   10  A    between atoms: C_19  and  C_21 
REMARK   11  A    between atoms: C_21  and  O_22 
REMARK   12  A    between atoms: C_21  and  C_24 
REMARK   13  A    between atoms: C_24  and  C_27 
REMARK   14  A    between atoms: C_27  and  O_28 
REMARK   15  A    between atoms: O_28  and  P_29 
REMARK   16  A    between atoms: P_29  and  O_32 
REMARK   17  A    between atoms: O_32  and  P_33 
REMARK   18  A    between atoms: P_33  and  O_36 
REMARK   19  A    between atoms: O_36  and  C_37 
REMARK   20  A    between atoms: C_37  and  C_38 
REMARK   21  A    between atoms: C_40  and  O_41 
REMARK   22  A    between atoms: O_41  and  P_42 
REMARK   23  A    between atoms: C_46  and  O_47 
REMARK   24  A    between atoms: C_49  and  N_50 
REMARK   25  A    between atoms: C_61  and  N_62 
ROOT
HETATM    1  O   UNL     1     -27.920  -7.424  30.628  1.00  0.00    -0.180 OA
ENDROOT
BRANCH   1   2
HETATM    2  P   UNL     1     -26.375  -7.781  30.394  1.00  0.00     0.417 P 
HETATM    3  O   UNL     1     -26.163  -8.753  31.509  1.00  0.00    -0.624 OA
HETATM    4  O   UNL     1     -25.594  -6.555  30.180  1.00  0.00    -0.624 OA
BRANCH   2   5
HETATM    5  O   UNL     1     -26.501  -8.587  29.000  1.00  0.00    -0.287 OA
BRANCH   5   6
HETATM    6  C   UNL     1     -26.115  -8.019  27.733  1.00  0.00     0.216 C 
BRANCH   6   7
HETATM    7  C   UNL     1     -26.141  -9.062  26.621  1.00  0.00     0.180 C 
HETATM    8  C   UNL     1     -27.457  -9.813  26.396  1.00  0.00     0.199 C 
HETATM    9  C   UNL     1     -27.262 -11.092  27.212  1.00  0.00     0.199 C 
HETATM   10  C   UNL     1     -25.798 -11.382  26.868  1.00  0.00     0.262 C 
HETATM   11  O   UNL     1     -25.163 -10.125  26.841  1.00  0.00    -0.353 OA
BRANCH   8  12
HETATM   12  O   UNL     1     -27.522 -10.060  25.014  1.00  0.00    -0.272 OA
BRANCH  12  13
HETATM   13  P   UNL     1     -28.945 -10.014  24.296  1.00  0.00     0.422 P 
HETATM   14  O   UNL     1     -29.797 -11.263  24.790  1.00  0.00    -0.617 OA
HETATM   15  O   UNL     1     -29.572  -8.732  24.520  1.00  0.00    -0.617 OA
HETATM   16  O   UNL     1     -28.358 -10.143  22.925  1.00  0.00    -0.617 OA
ENDBRANCH  12  13
ENDBRANCH   8  12
BRANCH   9  17
HETATM   17  O   UNL     1     -28.203 -12.093  26.888  1.00  0.00    -0.388 OA
ATOM     18  HO  UNL     1     -29.111 -11.913  27.101  1.00  0.00     0.210 HD
ENDBRANCH   9  17
BRANCH  10  19
HETATM   19  N   UNL     1     -25.076 -12.226  27.815  1.00  0.00    -0.297 N 
HETATM   20  C   UNL     1     -25.176 -12.275  29.187  1.00  0.00     0.188 A 
HETATM   21  N   UNL     1     -24.388 -13.166  29.738  1.00  0.00    -0.346 N 
HETATM   22  C   UNL     1     -23.690 -13.714  28.671  1.00  0.00     0.122 A 
ATOM     23  HN  UNL     1     -24.306 -13.403  30.727  1.00  0.00     0.167 HD
HETATM   24  C   UNL     1     -24.100 -13.151  27.483  1.00  0.00     0.142 A 
HETATM   25  C   UNL     1     -22.695 -14.720  28.605  1.00  0.00     0.131 A 
HETATM   26  N   UNL     1     -23.629 -13.446  26.261  1.00  0.00    -0.336 N 
HETATM   27  C   UNL     1     -22.706 -14.411  26.316  1.00  0.00     0.183 A 
ATOM     28  HN  UNL     1     -23.936 -12.992  25.401  1.00  0.00     0.168 HD
HETATM   29  N   UNL     1     -22.222 -15.056  27.389  1.00  0.00    -0.337 N 
ATOM     30  HN  UNL     1     -21.514 -15.783  27.286  1.00  0.00     0.168 HD
BRANCH  25  31
HETATM   31  N   UNL     1     -22.228 -15.340  29.678  1.00  0.00    -0.383 N 
ATOM     32  HN2 UNL     1     -22.586 -15.086  30.599  1.00  0.00     0.157 HD
ATOM     33  HN1 UNL     1     -21.512 -16.064  29.630  1.00  0.00     0.157 HD
ENDBRANCH  25  31
ENDBRANCH  10  19
ENDBRANCH   6   7
ENDBRANCH   5   6
ENDBRANCH   2   5
ENDBRANCH   1   2
BRANCH   1  34
HETATM   34  P   UNL     1     -29.016  -6.473  29.958  1.00  0.00     0.417 P 
HETATM   35  O   UNL     1     -30.369  -6.982  30.330  1.00  0.00    -0.624 OA
HETATM   36  O   UNL     1     -28.701  -6.066  28.543  1.00  0.00    -0.624 OA
BRANCH  34  37
HETATM   37  O   UNL     1     -28.637  -5.149  30.790  1.00  0.00    -0.289 OA
BRANCH  37  38
HETATM   38  C   UNL     1     -29.468  -3.959  30.539  1.00  0.00     0.193 C 
BRANCH  38  39
HETATM   39  C   UNL     1     -29.336  -2.988  31.703  1.00  0.00     0.009 C 
HETATM   40  C   UNL     1     -30.232  -1.779  31.436  1.00  0.00     0.020 C 
HETATM   41  C   UNL     1     -29.803  -3.711  32.970  1.00  0.00     0.020 C 
BRANCH  39  42
HETATM   42  C   UNL     1     -27.866  -2.522  31.850  1.00  0.00     0.219 C 
BRANCH  42  43
HETATM   43  O   UNL     1     -27.591  -1.816  30.631  1.00  0.00    -0.385 OA
ATOM     44  HO  UNL     1     -26.690  -1.530  30.721  1.00  0.00     0.210 HD
ENDBRANCH  42  43
BRANCH  42  45
HETATM   45  C   UNL     1     -27.529  -1.644  33.064  1.00  0.00     0.247 C 
HETATM   46  O   UNL     1     -27.645  -2.078  34.215  1.00  0.00    -0.271 OA
HETATM   47  N   UNL     1     -27.247  -0.386  32.802  1.00  0.00    -0.358 N 
ATOM     48  HN  UNL     1     -27.482  -0.029  31.876  1.00  0.00     0.162 HD
BRANCH  47  49
HETATM   49  C   UNL     1     -26.622   0.532  33.745  1.00  0.00     0.132 C 
BRANCH  49  50
HETATM   50  C   UNL     1     -25.129   0.243  33.964  1.00  0.00     0.122 C 
BRANCH  50  51
HETATM   51  C   UNL     1     -24.552   1.317  34.857  1.00  0.00     0.219 C 
HETATM   52  N   UNL     1     -23.602   2.092  34.322  1.00  0.00    -0.360 N 
ATOM     53  HN  UNL     1     -23.226   1.854  33.404  1.00  0.00     0.162 HD
HETATM   54  O   UNL     1     -24.996   1.481  36.013  1.00  0.00    -0.274 OA
BRANCH  52  55
HETATM   55  C   UNL     1     -23.092   3.262  35.011  1.00  0.00     0.133 C 
BRANCH  55  56
HETATM   56  C   UNL     1     -24.130   4.385  34.961  1.00  0.00     0.102 C 
BRANCH  56  57
HETATM   57  S   UNL     1     -24.318   4.982  33.257  1.00  0.00    -0.088 SA
BRANCH  57  58
HETATM   58  C   UNL     1     -24.327   6.726  33.547  1.00  0.00     0.219 C 
HETATM   59  O   UNL     1     -24.345   7.170  34.678  1.00  0.00    -0.282 OA
BRANCH  58  60
HETATM   60  C   UNL     1     -24.336   7.607  32.262  1.00  0.00     0.121 C 
HETATM   61  C   UNL     1     -25.744   7.627  31.694  1.00  0.00     0.055 C 
HETATM   62  C   UNL     1     -23.322   7.085  31.224  1.00  0.00     0.055 C 
BRANCH  60  63
HETATM   63  O   UNL     1     -24.030   8.981  32.585  1.00  0.00    -0.382 OA
ATOM     64  HO  UNL     1     -23.149   8.968  32.940  1.00  0.00     0.211 HD
ENDBRANCH  60  63
ENDBRANCH  58  60
ENDBRANCH  57  58
ENDBRANCH  56  57
ENDBRANCH  55  56
ENDBRANCH  52  55
ENDBRANCH  50  51
ENDBRANCH  49  50
ENDBRANCH  47  49
ENDBRANCH  42  45
ENDBRANCH  39  42
ENDBRANCH  38  39
ENDBRANCH  37  38
ENDBRANCH  34  37
ENDBRANCH   1  34
TORSDOF 25
