MODEL 1
REMARK VINA RESULT:    -6.237      0.000      0.000
REMARK INTER + INTRA:          -5.928
REMARK INTER:                  -6.601
REMARK INTRA:                   0.674
REMARK UNBOUND:                 0.674
REMARK  1 active torsions:
REMARK  status: ('A' for Active; 'I' for Inactive)
REMARK    1  A    between atoms: C_3  and  C_5 
ROOT
HETATM    1  C   UNL     1      10.816  50.219  50.601  1.00  0.00     0.002 C 
HETATM    2  C   UNL     1      10.346  49.808  49.203  1.00  0.00     0.015 C 
HETATM    3  C   UNL     1      11.243  48.574  49.284  1.00  0.00     0.087 C 
HETATM    4  C   UNL     1      11.891  49.127  50.553  1.00  0.00     0.015 C 
ENDROOT
BRANCH   3   5
HETATM    5  C   UNL     1      12.214  48.494  48.106  1.00  0.00     0.177 C 
HETATM    6  O   UNL     1      13.018  47.530  48.059  1.00  0.00    -0.648 OA
HETATM    7  O   UNL     1      12.205  49.383  47.212  1.00  0.00    -0.648 OA
ENDBRANCH   3   5
TORSDOF 1
ENDMDL
MODEL 2
REMARK VINA RESULT:    -5.456      1.083      1.837
REMARK INTER + INTRA:          -5.101
REMARK INTER:                  -5.748
REMARK INTRA:                   0.647
REMARK UNBOUND:                 0.674
REMARK  1 active torsions:
REMARK  status: ('A' for Active; 'I' for Inactive)
REMARK    1  A    between atoms: C_3  and  C_5 
ROOT
HETATM    1  C   UNL     1      10.729  50.017  50.339  1.00  0.00     0.002 C 
HETATM    2  C   UNL     1      12.208  49.631  50.260  1.00  0.00     0.015 C 
HETATM    3  C   UNL     1      11.992  49.169  48.819  1.00  0.00     0.087 C 
HETATM    4  C   UNL     1      10.481  49.316  48.998  1.00  0.00     0.015 C 
ENDROOT
BRANCH   3   5
HETATM    5  C   UNL     1      12.429  47.720  48.610  1.00  0.00     0.177 C 
HETATM    6  O   UNL     1      12.478  47.275  47.436  1.00  0.00    -0.648 OA
HETATM    7  O   UNL     1      12.725  46.995  49.598  1.00  0.00    -0.648 OA
ENDBRANCH   3   5
TORSDOF 1
ENDMDL
MODEL 3
REMARK VINA RESULT:    -4.778      2.161      2.965
REMARK INTER + INTRA:          -4.383
REMARK INTER:                  -5.104
REMARK INTRA:                   0.721
REMARK UNBOUND:                 0.674
REMARK  1 active torsions:
REMARK  status: ('A' for Active; 'I' for Inactive)
REMARK    1  A    between atoms: C_3  and  C_5 
ROOT
HETATM    1  C   UNL     1      12.316  47.333  48.410  1.00  0.00     0.002 C 
HETATM    2  C   UNL     1      11.786  48.633  47.800  1.00  0.00     0.015 C 
HETATM    3  C   UNL     1      12.006  49.331  49.142  1.00  0.00     0.087 C 
HETATM    4  C   UNL     1      12.284  47.980  49.799  1.00  0.00     0.015 C 
ENDROOT
BRANCH   3   5
HETATM    5  C   UNL     1      10.729  49.994  49.658  1.00  0.00     0.177 C 
HETATM    6  O   UNL     1      10.679  50.330  50.868  1.00  0.00    -0.648 OA
HETATM    7  O   UNL     1       9.754  50.188  48.884  1.00  0.00    -0.648 OA
ENDBRANCH   3   5
TORSDOF 1
ENDMDL
MODEL 4
REMARK VINA RESULT:    -4.677     10.232     10.885
REMARK INTER + INTRA:          -4.276
REMARK INTER:                  -4.884
REMARK INTRA:                   0.608
REMARK UNBOUND:                 0.674
REMARK  1 active torsions:
REMARK  status: ('A' for Active; 'I' for Inactive)
REMARK    1  A    between atoms: C_3  and  C_5 
ROOT
HETATM    1  C   UNL     1       3.449  46.879  40.579  1.00  0.00     0.002 C 
HETATM    2  C   UNL     1       4.700  47.328  41.339  1.00  0.00     0.015 C 
HETATM    3  C   UNL     1       5.557  46.505  40.378  1.00  0.00     0.087 C 
HETATM    4  C   UNL     1       4.295  45.867  39.798  1.00  0.00     0.015 C 
ENDROOT
BRANCH   3   5
HETATM    5  C   UNL     1       6.445  45.505  41.116  1.00  0.00     0.177 C 
HETATM    6  O   UNL     1       7.504  45.121  40.558  1.00  0.00    -0.648 OA
HETATM    7  O   UNL     1       6.113  45.076  42.254  1.00  0.00    -0.648 OA
ENDBRANCH   3   5
TORSDOF 1
ENDMDL
MODEL 5
REMARK VINA RESULT:    -4.616     10.199     10.851
REMARK INTER + INTRA:          -4.212
REMARK INTER:                  -4.884
REMARK INTRA:                   0.672
REMARK UNBOUND:                 0.674
REMARK  1 active torsions:
REMARK  status: ('A' for Active; 'I' for Inactive)
REMARK    1  A    between atoms: C_3  and  C_5 
ROOT
HETATM    1  C   UNL     1       3.475  46.917  40.571  1.00  0.00     0.002 C 
HETATM    2  C   UNL     1       4.710  47.352  41.365  1.00  0.00     0.015 C 
HETATM    3  C   UNL     1       5.590  46.564  40.395  1.00  0.00     0.087 C 
HETATM    4  C   UNL     1       4.342  45.935  39.775  1.00  0.00     0.015 C 
ENDROOT
BRANCH   3   5
HETATM    5  C   UNL     1       6.472  45.548  41.119  1.00  0.00     0.177 C 
HETATM    6  O   UNL     1       6.091  45.116  42.237  1.00  0.00    -0.648 OA
HETATM    7  O   UNL     1       7.556  45.163  40.604  1.00  0.00    -0.648 OA
ENDBRANCH   3   5
TORSDOF 1
ENDMDL
MODEL 6
REMARK VINA RESULT:    -4.461     10.556     11.293
REMARK INTER + INTRA:          -4.048
REMARK INTER:                  -4.745
REMARK INTRA:                   0.696
REMARK UNBOUND:                 0.674
REMARK  1 active torsions:
REMARK  status: ('A' for Active; 'I' for Inactive)
REMARK    1  A    between atoms: C_3  and  C_5 
ROOT
HETATM    1  C   UNL     1       6.145  45.694  41.758  1.00  0.00     0.002 C 
HETATM    2  C   UNL     1       4.984  45.422  40.798  1.00  0.00     0.015 C 
HETATM    3  C   UNL     1       4.785  46.929  40.639  1.00  0.00     0.087 C 
HETATM    4  C   UNL     1       5.765  47.179  41.786  1.00  0.00     0.015 C 
ENDROOT
BRANCH   3   5
HETATM    5  C   UNL     1       3.356  47.356  40.973  1.00  0.00     0.177 C 
HETATM    6  O   UNL     1       2.431  46.999  40.200  1.00  0.00    -0.648 OA
HETATM    7  O   UNL     1       3.122  48.054  41.996  1.00  0.00    -0.648 OA
ENDBRANCH   3   5
TORSDOF 1
ENDMDL
MODEL 7
REMARK VINA RESULT:    -4.416     10.963     11.431
REMARK INTER + INTRA:          -4.000
REMARK INTER:                  -4.577
REMARK INTRA:                   0.577
REMARK UNBOUND:                 0.674
REMARK  1 active torsions:
REMARK  status: ('A' for Active; 'I' for Inactive)
REMARK    1  A    between atoms: C_3  and  C_5 
ROOT
HETATM    1  C   UNL     1      12.894  38.186  51.199  1.00  0.00     0.002 C 
HETATM    2  C   UNL     1      14.162  37.982  50.366  1.00  0.00     0.015 C 
HETATM    3  C   UNL     1      14.975  37.893  51.657  1.00  0.00     0.087 C 
HETATM    4  C   UNL     1      13.755  38.352  52.456  1.00  0.00     0.015 C 
ENDROOT
BRANCH   3   5
HETATM    5  C   UNL     1      16.119  38.905  51.683  1.00  0.00     0.177 C 
HETATM    6  O   UNL     1      17.298  38.472  51.726  1.00  0.00    -0.648 OA
HETATM    7  O   UNL     1      15.877  40.142  51.669  1.00  0.00    -0.648 OA
ENDBRANCH   3   5
TORSDOF 1
ENDMDL
MODEL 8
REMARK VINA RESULT:    -4.403     10.248     10.947
REMARK INTER + INTRA:          -3.986
REMARK INTER:                  -4.753
REMARK INTRA:                   0.767
REMARK UNBOUND:                 0.674
REMARK  1 active torsions:
REMARK  status: ('A' for Active; 'I' for Inactive)
REMARK    1  A    between atoms: C_3  and  C_5 
ROOT
HETATM    1  C   UNL     1       3.566  46.495  39.832  1.00  0.00     0.002 C 
HETATM    2  C   UNL     1       4.510  45.292  39.888  1.00  0.00     0.015 C 
HETATM    3  C   UNL     1       5.126  45.857  41.168  1.00  0.00     0.087 C 
HETATM    4  C   UNL     1       4.364  47.165  40.956  1.00  0.00     0.015 C 
ENDROOT
BRANCH   3   5
HETATM    5  C   UNL     1       6.640  46.024  41.048  1.00  0.00     0.177 C 
HETATM    6  O   UNL     1       7.140  47.145  41.318  1.00  0.00    -0.648 OA
HETATM    7  O   UNL     1       7.361  45.057  40.681  1.00  0.00    -0.648 OA
ENDBRANCH   3   5
TORSDOF 1
ENDMDL
MODEL 9
REMARK VINA RESULT:    -4.349      8.113      9.001
REMARK INTER + INTRA:          -3.929
REMARK INTER:                  -4.619
REMARK INTRA:                   0.690
REMARK UNBOUND:                 0.674
REMARK  1 active torsions:
REMARK  status: ('A' for Active; 'I' for Inactive)
REMARK    1  A    between atoms: C_3  and  C_5 
ROOT
HETATM    1  C   UNL     1       6.923  45.716  40.866  1.00  0.00     0.002 C 
HETATM    2  C   UNL     1       6.005  45.736  42.091  1.00  0.00     0.015 C 
HETATM    3  C   UNL     1       6.076  47.263  42.096  1.00  0.00     0.087 C 
HETATM    4  C   UNL     1       7.186  47.215  41.046  1.00  0.00     0.015 C 
ENDROOT
BRANCH   3   5
HETATM    5  C   UNL     1       6.552  47.809  43.442  1.00  0.00     0.177 C 
HETATM    6  O   UNL     1       5.786  47.705  44.433  1.00  0.00    -0.648 OA
HETATM    7  O   UNL     1       7.684  48.353  43.545  1.00  0.00    -0.648 OA
ENDBRANCH   3   5
TORSDOF 1
ENDMDL
MODEL 10
REMARK VINA RESULT:    -4.327      9.498     10.254
REMARK INTER + INTRA:          -3.906
REMARK INTER:                  -4.486
REMARK INTRA:                   0.580
REMARK UNBOUND:                 0.674
REMARK  1 active torsions:
REMARK  status: ('A' for Active; 'I' for Inactive)
REMARK    1  A    between atoms: C_3  and  C_5 
ROOT
HETATM    1  C   UNL     1       4.400  45.403  40.368  1.00  0.00     0.002 C 
HETATM    2  C   UNL     1       4.440  46.920  40.568  1.00  0.00     0.015 C 
HETATM    3  C   UNL     1       5.948  46.832  40.802  1.00  0.00     0.087 C 
HETATM    4  C   UNL     1       5.850  45.308  40.857  1.00  0.00     0.015 C 
ENDROOT
BRANCH   3   5
HETATM    5  C   UNL     1       6.356  47.451  42.138  1.00  0.00     0.177 C 
HETATM    6  O   UNL     1       7.429  48.103  42.191  1.00  0.00    -0.648 OA
HETATM    7  O   UNL     1       5.630  47.302  43.158  1.00  0.00    -0.648 OA
ENDBRANCH   3   5
TORSDOF 1
ENDMDL
MODEL 11
REMARK VINA RESULT:    -4.259      2.223      3.242
REMARK INTER + INTRA:          -3.835
REMARK INTER:                  -4.577
REMARK INTRA:                   0.743
REMARK UNBOUND:                 0.674
REMARK  1 active torsions:
REMARK  status: ('A' for Active; 'I' for Inactive)
REMARK    1  A    between atoms: C_3  and  C_5 
ROOT
HETATM    1  C   UNL     1      12.797  47.949  48.311  1.00  0.00     0.002 C 
HETATM    2  C   UNL     1      12.142  48.071  49.689  1.00  0.00     0.015 C 
HETATM    3  C   UNL     1      10.857  48.555  49.016  1.00  0.00     0.087 C 
HETATM    4  C   UNL     1      11.600  48.675  47.685  1.00  0.00     0.015 C 
ENDROOT
BRANCH   3   5
HETATM    5  C   UNL     1      10.398  49.904  49.566  1.00  0.00     0.177 C 
HETATM    6  O   UNL     1       9.689  50.638  48.831  1.00  0.00    -0.648 OA
HETATM    7  O   UNL     1      10.731  50.267  50.726  1.00  0.00    -0.648 OA
ENDBRANCH   3   5
TORSDOF 1
ENDMDL
MODEL 12
REMARK VINA RESULT:    -4.139     10.571     11.276
REMARK INTER + INTRA:          -3.708
REMARK INTER:                  -4.315
REMARK INTRA:                   0.608
REMARK UNBOUND:                 0.674
REMARK  1 active torsions:
REMARK  status: ('A' for Active; 'I' for Inactive)
REMARK    1  A    between atoms: C_3  and  C_5 
ROOT
HETATM    1  C   UNL     1       7.043  45.946  40.944  1.00  0.00     0.002 C 
HETATM    2  C   UNL     1       6.282  47.248  41.206  1.00  0.00     0.015 C 
HETATM    3  C   UNL     1       4.994  46.442  41.372  1.00  0.00     0.087 C 
HETATM    4  C   UNL     1       5.710  45.193  40.858  1.00  0.00     0.015 C 
ENDROOT
BRANCH   3   5
HETATM    5  C   UNL     1       3.891  46.926  40.432  1.00  0.00     0.177 C 
HETATM    6  O   UNL     1       3.000  47.681  40.896  1.00  0.00    -0.648 OA
HETATM    7  O   UNL     1       3.880  46.566  39.224  1.00  0.00    -0.648 OA
ENDBRANCH   3   5
TORSDOF 1
ENDMDL
MODEL 13
REMARK VINA RESULT:    -4.095      9.854     10.633
REMARK INTER + INTRA:          -3.661
REMARK INTER:                  -4.320
REMARK INTRA:                   0.659
REMARK UNBOUND:                 0.674
REMARK  1 active torsions:
REMARK  status: ('A' for Active; 'I' for Inactive)
REMARK    1  A    between atoms: C_3  and  C_5 
ROOT
HETATM    1  C   UNL     1       4.228  46.130  39.501  1.00  0.00     0.002 C 
HETATM    2  C   UNL     1       5.392  45.533  40.296  1.00  0.00     0.015 C 
HETATM    3  C   UNL     1       4.930  46.315  41.526  1.00  0.00     0.087 C 
HETATM    4  C   UNL     1       3.940  47.093  40.658  1.00  0.00     0.015 C 
ENDROOT
BRANCH   3   5
HETATM    5  C   UNL     1       6.041  47.195  42.095  1.00  0.00     0.177 C 
HETATM    6  O   UNL     1       6.860  47.714  41.296  1.00  0.00    -0.648 OA
HETATM    7  O   UNL     1       6.131  47.384  43.338  1.00  0.00    -0.648 OA
ENDBRANCH   3   5
TORSDOF 1
ENDMDL
MODEL 14
REMARK VINA RESULT:    -4.076     11.043     11.210
REMARK INTER + INTRA:          -3.641
REMARK INTER:                  -4.370
REMARK INTRA:                   0.730
REMARK UNBOUND:                 0.674
REMARK  1 active torsions:
REMARK  status: ('A' for Active; 'I' for Inactive)
REMARK    1  A    between atoms: C_3  and  C_5 
ROOT
HETATM    1  C   UNL     1      13.781  39.292  54.049  1.00  0.00     0.002 C 
HETATM    2  C   UNL     1      13.040  38.285  53.165  1.00  0.00     0.015 C 
HETATM    3  C   UNL     1      14.330  38.050  52.381  1.00  0.00     0.087 C 
HETATM    4  C   UNL     1      14.980  39.234  53.095  1.00  0.00     0.015 C 
ENDROOT
BRANCH   3   5
HETATM    5  C   UNL     1      14.140  38.288  50.884  1.00  0.00     0.177 C 
HETATM    6  O   UNL     1      15.161  38.482  50.176  1.00  0.00    -0.648 OA
HETATM    7  O   UNL     1      12.985  38.295  50.380  1.00  0.00    -0.648 OA
ENDBRANCH   3   5
TORSDOF 1
ENDMDL
MODEL 15
REMARK VINA RESULT:    -3.959     14.169     14.780
REMARK INTER + INTRA:          -3.516
REMARK INTER:                  -4.190
REMARK INTRA:                   0.674
REMARK UNBOUND:                 0.674
REMARK  1 active torsions:
REMARK  status: ('A' for Active; 'I' for Inactive)
REMARK    1  A    between atoms: C_3  and  C_5 
ROOT
HETATM    1  C   UNL     1       2.987  60.687  55.357  1.00  0.00     0.002 C 
HETATM    2  C   UNL     1       3.750  59.683  54.489  1.00  0.00     0.015 C 
HETATM    3  C   UNL     1       4.770  60.772  54.156  1.00  0.00     0.087 C 
HETATM    4  C   UNL     1       3.865  61.818  54.808  1.00  0.00     0.015 C 
ENDROOT
BRANCH   3   5
HETATM    5  C   UNL     1       4.921  60.972  52.649  1.00  0.00     0.177 C 
HETATM    6  O   UNL     1       5.725  61.848  52.241  1.00  0.00    -0.648 OA
HETATM    7  O   UNL     1       4.248  60.275  51.842  1.00  0.00    -0.648 OA
ENDBRANCH   3   5
TORSDOF 1
ENDMDL
MODEL 16
REMARK VINA RESULT:    -3.846      8.708      9.318
REMARK INTER + INTRA:          -3.397
REMARK INTER:                  -3.967
REMARK INTRA:                   0.570
REMARK UNBOUND:                 0.674
REMARK  1 active torsions:
REMARK  status: ('A' for Active; 'I' for Inactive)
REMARK    1  A    between atoms: C_3  and  C_5 
ROOT
HETATM    1  C   UNL     1       7.429  48.178  43.136  1.00  0.00     0.002 C 
HETATM    2  C   UNL     1       7.376  47.615  41.713  1.00  0.00     0.015 C 
HETATM    3  C   UNL     1       5.914  47.231  41.938  1.00  0.00     0.087 C 
HETATM    4  C   UNL     1       6.057  47.557  43.425  1.00  0.00     0.015 C 
ENDROOT
BRANCH   3   5
HETATM    5  C   UNL     1       5.666  45.747  41.676  1.00  0.00     0.177 C 
HETATM    6  O   UNL     1       4.763  45.427  40.861  1.00  0.00    -0.648 OA
HETATM    7  O   UNL     1       6.350  44.870  42.270  1.00  0.00    -0.648 OA
ENDBRANCH   3   5
TORSDOF 1
ENDMDL
MODEL 17
REMARK VINA RESULT:    -3.716      1.573      2.653
REMARK INTER + INTRA:          -3.260
REMARK INTER:                  -3.902
REMARK INTRA:                   0.642
REMARK UNBOUND:                 0.674
REMARK  1 active torsions:
REMARK  status: ('A' for Active; 'I' for Inactive)
REMARK    1  A    between atoms: C_3  and  C_5 
ROOT
HETATM    1  C   UNL     1      13.082  46.948  49.715  1.00  0.00     0.002 C 
HETATM    2  C   UNL     1      12.349  48.199  50.207  1.00  0.00     0.015 C 
HETATM    3  C   UNL     1      11.373  48.066  49.038  1.00  0.00     0.087 C 
HETATM    4  C   UNL     1      12.260  46.985  48.421  1.00  0.00     0.015 C 
ENDROOT
BRANCH   3   5
HETATM    5  C   UNL     1      11.313  49.339  48.196  1.00  0.00     0.177 C 
HETATM    6  O   UNL     1      10.517  50.248  48.545  1.00  0.00    -0.648 OA
HETATM    7  O   UNL     1      12.041  49.464  47.174  1.00  0.00    -0.648 OA
ENDBRANCH   3   5
TORSDOF 1
ENDMDL
MODEL 18
REMARK VINA RESULT:    -3.504     11.731     12.317
REMARK INTER + INTRA:          -3.036
REMARK INTER:                  -3.606
REMARK INTRA:                   0.570
REMARK UNBOUND:                 0.674
REMARK  1 active torsions:
REMARK  status: ('A' for Active; 'I' for Inactive)
REMARK    1  A    between atoms: C_3  and  C_5 
ROOT
HETATM    1  C   UNL     1       5.245  47.124  41.444  1.00  0.00     0.002 C 
HETATM    2  C   UNL     1       3.824  47.239  40.887  1.00  0.00     0.015 C 
HETATM    3  C   UNL     1       4.004  45.888  40.195  1.00  0.00     0.087 C 
HETATM    4  C   UNL     1       5.493  45.910  40.540  1.00  0.00     0.015 C 
ENDROOT
BRANCH   3   5
HETATM    5  C   UNL     1       3.740  45.976  38.692  1.00  0.00     0.177 C 
HETATM    6  O   UNL     1       2.892  45.197  38.189  1.00  0.00    -0.648 OA
HETATM    7  O   UNL     1       4.367  46.807  37.982  1.00  0.00    -0.648 OA
ENDBRANCH   3   5
TORSDOF 1
ENDMDL
MODEL 19
REMARK VINA RESULT:    -3.411     12.071     12.613
REMARK INTER + INTRA:          -2.937
REMARK INTER:                  -3.507
REMARK INTRA:                   0.570
REMARK UNBOUND:                 0.674
REMARK  1 active torsions:
REMARK  status: ('A' for Active; 'I' for Inactive)
REMARK    1  A    between atoms: C_3  and  C_5 
ROOT
HETATM    1  C   UNL     1      22.282  49.173  42.680  1.00  0.00     0.002 C 
HETATM    2  C   UNL     1      21.901  50.184  41.596  1.00  0.00     0.015 C 
HETATM    3  C   UNL     1      22.580  51.286  42.410  1.00  0.00     0.087 C 
HETATM    4  C   UNL     1      22.723  50.325  43.591  1.00  0.00     0.015 C 
ENDROOT
BRANCH   3   5
HETATM    5  C   UNL     1      21.632  52.448  42.701  1.00  0.00     0.177 C 
HETATM    6  O   UNL     1      21.990  53.607  42.369  1.00  0.00    -0.648 OA
HETATM    7  O   UNL     1      20.524  52.242  43.266  1.00  0.00    -0.648 OA
ENDBRANCH   3   5
TORSDOF 1
ENDMDL
MODEL 20
REMARK VINA RESULT:    -3.381     11.032     12.132
REMARK INTER + INTRA:          -2.905
REMARK INTER:                  -3.479
REMARK INTRA:                   0.574
REMARK UNBOUND:                 0.674
REMARK  1 active torsions:
REMARK  status: ('A' for Active; 'I' for Inactive)
REMARK    1  A    between atoms: C_3  and  C_5 
ROOT
HETATM    1  C   UNL     1      22.447  51.850  41.481  1.00  0.00     0.002 C 
HETATM    2  C   UNL     1      21.609  50.753  42.144  1.00  0.00     0.015 C 
HETATM    3  C   UNL     1      21.229  51.737  43.250  1.00  0.00     0.087 C 
HETATM    4  C   UNL     1      22.264  52.730  42.723  1.00  0.00     0.015 C 
ENDROOT
BRANCH   3   5
HETATM    5  C   UNL     1      21.573  51.198  44.638  1.00  0.00     0.177 C 
HETATM    6  O   UNL     1      20.668  51.176  45.510  1.00  0.00    -0.648 OA
HETATM    7  O   UNL     1      22.739  50.794  44.894  1.00  0.00    -0.648 OA
ENDBRANCH   3   5
TORSDOF 1
ENDMDL
