MODEL 1
REMARK VINA RESULT:   -12.065      0.000      0.000
REMARK INTER + INTRA:         -14.938
REMARK INTER:                 -14.534
REMARK INTRA:                  -0.405
REMARK UNBOUND:                -0.405
REMARK  5 active torsions:
REMARK  status: ('A' for Active; 'I' for Inactive)
REMARK    1  A    between atoms: C_6  and  O_25 
REMARK    2  A    between atoms: C_7  and  C_12 
REMARK    3  A    between atoms: C_7  and  N_14 
REMARK    4  A    between atoms: C_8  and  O_29 
REMARK    5  A    between atoms: C_13  and  O_27 
ROOT
HETATM    1  C   UNL     1     -14.575 -19.701 151.314  1.00  0.00     0.020 A 
HETATM    2  C   UNL     1     -13.544 -18.916 151.809  1.00  0.00     0.037 A 
HETATM    3  C   UNL     1     -12.100 -20.843 151.963  1.00  0.00     0.074 A 
HETATM    4  C   UNL     1     -18.498 -22.857 149.413  1.00  0.00     0.041 A 
HETATM    5  C   UNL     1     -18.968 -24.108 149.038  1.00  0.00     0.040 A 
HETATM    6  C   UNL     1     -13.807 -23.930 150.831  1.00  0.00     0.198 A 
HETATM    7  C   UNL     1     -12.316 -19.488 152.122  1.00  0.00     0.068 A 
HETATM    8  C   UNL     1     -15.142 -23.406 150.471  1.00  0.00     0.071 A 
HETATM    9  C   UNL     1     -17.189 -22.750 149.870  1.00  0.00     0.088 A 
HETATM   10  C   UNL     1     -15.393 -21.968 150.621  1.00  0.00     0.105 A 
HETATM   11  C   UNL     1     -16.832 -25.147 149.572  1.00  0.00     0.021 A 
HETATM   12  C   UNL     1     -18.148 -25.238 149.126  1.00  0.00     0.077 A 
HETATM   13  C   UNL     1     -13.123 -21.630 151.473  1.00  0.00     0.094 A 
HETATM   14  C   UNL     1     -16.369 -23.876 149.969  1.00  0.00     0.029 A 
HETATM   15  C   UNL     1     -14.347 -21.065 151.151  1.00  0.00     0.033 A 
HETATM   16  O   UNL     1     -16.649 -21.559 150.267  1.00  0.00    -0.308 OA
HETATM   17  O   UNL     1     -12.805 -23.043 151.317  1.00  0.00    -0.286 OA
ENDROOT
BRANCH  11  18
HETATM   18  C   UNL     1     -16.047 -26.316 149.675  1.00  0.00     0.074 C 
BRANCH  18  19
HETATM   19  N   UNL     1     -15.145 -26.652 148.545  1.00  0.00    -0.292 NA
HETATM   20  C   UNL     1     -14.475 -27.928 148.842  1.00  0.00     0.095 C 
HETATM   21  C   UNL     1     -13.510 -28.385 147.752  1.00  0.00     0.015 C 
HETATM   22  C   UNL     1     -14.178 -28.371 146.375  1.00  0.00     0.002 C 
HETATM   23  C   UNL     1     -14.897 -27.048 146.154  1.00  0.00     0.015 C 
HETATM   24  C   UNL     1     -15.887 -26.820 147.297  1.00  0.00     0.095 C 
ENDBRANCH  18  19
ENDBRANCH  11  18
BRANCH  12  25
HETATM   25  O   UNL     1     -18.651 -26.419 148.761  1.00  0.00    -0.360 OA
ATOM     26  HO  UNL     1     -18.899 -26.545 147.852  1.00  0.00     0.217 HD
ENDBRANCH  12  25
BRANCH   6  27
HETATM   27  O   UNL     1     -13.458 -25.195 150.741  1.00  0.00    -0.340 OA
ATOM     28  HO  UNL     1     -13.920 -25.707 150.088  1.00  0.00     0.220 HD
ENDBRANCH   6  27
BRANCH   7  29
HETATM   29  O   UNL     1     -11.320 -18.753 152.604  1.00  0.00    -0.361 OA
ATOM     30  HO  UNL     1     -10.414 -19.010 152.476  1.00  0.00     0.217 HD
ENDBRANCH   7  29
TORSDOF 5
ENDMDL
MODEL 2
REMARK VINA RESULT:   -10.787      2.435      7.350
REMARK INTER + INTRA:         -13.399
REMARK INTER:                 -12.806
REMARK INTRA:                  -0.593
REMARK UNBOUND:                -0.405
REMARK  5 active torsions:
REMARK  status: ('A' for Active; 'I' for Inactive)
REMARK    1  A    between atoms: C_6  and  O_25 
REMARK    2  A    between atoms: C_7  and  C_12 
REMARK    3  A    between atoms: C_7  and  N_14 
REMARK    4  A    between atoms: C_8  and  O_29 
REMARK    5  A    between atoms: C_13  and  O_27 
ROOT
HETATM    1  C   UNL     1     -17.909 -23.204 149.654  1.00  0.00     0.020 A 
HETATM    2  C   UNL     1     -18.568 -24.346 149.220  1.00  0.00     0.037 A 
HETATM    3  C   UNL     1     -16.568 -25.661 149.526  1.00  0.00     0.074 A 
HETATM    4  C   UNL     1     -15.241 -18.847 151.344  1.00  0.00     0.041 A 
HETATM    5  C   UNL     1     -14.077 -18.244 151.801  1.00  0.00     0.040 A 
HETATM    6  C   UNL     1     -13.753 -23.604 150.779  1.00  0.00     0.198 A 
HETATM    7  C   UNL     1     -17.898 -25.563 149.167  1.00  0.00     0.068 A 
HETATM    8  C   UNL     1     -14.386 -22.272 150.869  1.00  0.00     0.071 A 
HETATM    9  C   UNL     1     -15.219 -20.211 151.074  1.00  0.00     0.088 A 
HETATM   10  C   UNL     1     -15.802 -22.144 150.502  1.00  0.00     0.105 A 
HETATM   11  C   UNL     1     -12.870 -20.357 151.724  1.00  0.00     0.021 A 
HETATM   12  C   UNL     1     -12.906 -18.989 151.979  1.00  0.00     0.077 A 
HETATM   13  C   UNL     1     -15.907 -24.528 149.957  1.00  0.00     0.094 A 
HETATM   14  C   UNL     1     -14.051 -20.957 151.241  1.00  0.00     0.029 A 
HETATM   15  C   UNL     1     -16.571 -23.313 150.021  1.00  0.00     0.033 A 
HETATM   16  O   UNL     1     -16.317 -20.882 150.612  1.00  0.00    -0.308 OA
HETATM   17  O   UNL     1     -14.515 -24.723 150.336  1.00  0.00    -0.286 OA
ENDROOT
BRANCH  11  18
HETATM   18  C   UNL     1     -11.661 -21.066 151.887  1.00  0.00     0.074 C 
BRANCH  18  19
HETATM   19  N   UNL     1     -10.939 -20.927 153.177  1.00  0.00    -0.292 NA
HETATM   20  C   UNL     1     -11.030 -22.202 153.906  1.00  0.00     0.095 C 
HETATM   21  C   UNL     1     -10.327 -22.188 155.260  1.00  0.00     0.015 C 
HETATM   22  C   UNL     1      -8.890 -21.676 155.136  1.00  0.00     0.002 C 
HETATM   23  C   UNL     1      -8.860 -20.388 154.326  1.00  0.00     0.015 C 
HETATM   24  C   UNL     1      -9.521 -20.635 152.970  1.00  0.00     0.095 C 
ENDBRANCH  18  19
ENDBRANCH  11  18
BRANCH  12  25
HETATM   25  O   UNL     1     -11.812 -18.360 152.413  1.00  0.00    -0.360 OA
ATOM     26  HO  UNL     1     -11.854 -17.900 153.244  1.00  0.00     0.217 HD
ENDBRANCH  12  25
BRANCH   6  27
HETATM   27  O   UNL     1     -12.495 -23.850 151.080  1.00  0.00    -0.340 OA
ATOM     28  HO  UNL     1     -12.351 -24.379 151.855  1.00  0.00     0.220 HD
ENDBRANCH   6  27
BRANCH   7  29
HETATM   29  O   UNL     1     -18.510 -26.665 148.746  1.00  0.00    -0.361 OA
ATOM     30  HO  UNL     1     -18.545 -27.444 149.289  1.00  0.00     0.217 HD
ENDBRANCH   7  29
TORSDOF 5
ENDMDL
MODEL 3
REMARK VINA RESULT:   -10.655      2.746      6.663
REMARK INTER + INTRA:         -13.239
REMARK INTER:                 -12.421
REMARK INTRA:                  -0.819
REMARK UNBOUND:                -0.405
REMARK  5 active torsions:
REMARK  status: ('A' for Active; 'I' for Inactive)
REMARK    1  A    between atoms: C_6  and  O_25 
REMARK    2  A    between atoms: C_7  and  C_12 
REMARK    3  A    between atoms: C_7  and  N_14 
REMARK    4  A    between atoms: C_8  and  O_29 
REMARK    5  A    between atoms: C_13  and  O_27 
ROOT
HETATM    1  C   UNL     1     -17.365 -21.924 149.914  1.00  0.00     0.020 A 
HETATM    2  C   UNL     1     -18.399 -22.685 149.387  1.00  0.00     0.037 A 
HETATM    3  C   UNL     1     -17.051 -24.682 149.532  1.00  0.00     0.074 A 
HETATM    4  C   UNL     1     -13.279 -19.080 151.958  1.00  0.00     0.041 A 
HETATM    5  C   UNL     1     -11.983 -19.008 152.449  1.00  0.00     0.040 A 
HETATM    6  C   UNL     1     -13.691 -23.971 150.921  1.00  0.00     0.198 A 
HETATM    7  C   UNL     1     -18.238 -24.055 149.207  1.00  0.00     0.068 A 
HETATM    8  C   UNL     1     -13.775 -22.512 151.148  1.00  0.00     0.071 A 
HETATM    9  C   UNL     1     -13.770 -20.318 151.561  1.00  0.00     0.088 A 
HETATM   10  C   UNL     1     -15.029 -21.824 150.820  1.00  0.00     0.105 A 
HETATM   11  C   UNL     1     -11.664 -21.403 152.151  1.00  0.00     0.021 A 
HETATM   12  C   UNL     1     -11.184 -20.153 152.534  1.00  0.00     0.077 A 
HETATM   13  C   UNL     1     -16.019 -23.929 150.055  1.00  0.00     0.094 A 
HETATM   14  C   UNL     1     -12.974 -21.464 151.635  1.00  0.00     0.029 A 
HETATM   15  C   UNL     1     -16.174 -22.565 150.246  1.00  0.00     0.033 A 
HETATM   16  O   UNL     1     -15.031 -20.478 151.058  1.00  0.00    -0.308 OA
HETATM   17  O   UNL     1     -14.811 -24.671 150.389  1.00  0.00    -0.286 OA
ENDROOT
BRANCH  11  18
HETATM   18  C   UNL     1     -10.815 -22.529 152.225  1.00  0.00     0.074 C 
BRANCH  18  19
HETATM   19  N   UNL     1      -9.596 -22.540 151.378  1.00  0.00    -0.292 NA
HETATM   20  C   UNL     1      -8.689 -23.587 151.873  1.00  0.00     0.095 C 
HETATM   21  C   UNL     1      -7.388 -23.699 151.084  1.00  0.00     0.015 C 
HETATM   22  C   UNL     1      -7.656 -23.807 149.581  1.00  0.00     0.002 C 
HETATM   23  C   UNL     1      -8.642 -22.734 149.145  1.00  0.00     0.015 C 
HETATM   24  C   UNL     1      -9.914 -22.851 149.984  1.00  0.00     0.095 C 
ENDBRANCH  18  19
ENDBRANCH  11  18
BRANCH  12  25
HETATM   25  O   UNL     1      -9.942 -20.029 153.006  1.00  0.00    -0.360 OA
ATOM     26  HO  UNL     1      -9.427 -20.816 153.139  1.00  0.00     0.217 HD
ENDBRANCH  12  25
BRANCH   6  27
HETATM   27  O   UNL     1     -12.626 -24.700 151.174  1.00  0.00    -0.340 OA
ATOM     28  HO  UNL     1     -12.035 -24.356 151.833  1.00  0.00     0.220 HD
ENDBRANCH   6  27
BRANCH   7  29
HETATM   29  O   UNL     1     -19.213 -24.798 148.697  1.00  0.00    -0.361 OA
ATOM     30  HO  UNL     1     -19.951 -25.072 149.229  1.00  0.00     0.217 HD
ENDBRANCH   7  29
TORSDOF 5
ENDMDL
MODEL 4
REMARK VINA RESULT:   -10.633      2.344      6.795
REMARK INTER + INTRA:         -13.213
REMARK INTER:                 -12.480
REMARK INTRA:                  -0.734
REMARK UNBOUND:                -0.405
REMARK  5 active torsions:
REMARK  status: ('A' for Active; 'I' for Inactive)
REMARK    1  A    between atoms: C_6  and  O_25 
REMARK    2  A    between atoms: C_7  and  C_12 
REMARK    3  A    between atoms: C_7  and  N_14 
REMARK    4  A    between atoms: C_8  and  O_29 
REMARK    5  A    between atoms: C_13  and  O_27 
ROOT
HETATM    1  C   UNL     1     -17.511 -23.068 149.411  1.00  0.00     0.020 A 
HETATM    2  C   UNL     1     -18.177 -24.185 148.926  1.00  0.00     0.037 A 
HETATM    3  C   UNL     1     -16.323 -25.603 149.540  1.00  0.00     0.074 A 
HETATM    4  C   UNL     1     -14.822 -18.814 151.318  1.00  0.00     0.041 A 
HETATM    5  C   UNL     1     -13.695 -18.264 151.911  1.00  0.00     0.040 A 
HETATM    6  C   UNL     1     -13.576 -23.668 151.101  1.00  0.00     0.198 A 
HETATM    7  C   UNL     1     -17.584 -25.441 149.000  1.00  0.00     0.068 A 
HETATM    8  C   UNL     1     -14.131 -22.299 151.065  1.00  0.00     0.071 A 
HETATM    9  C   UNL     1     -14.851 -20.186 151.094  1.00  0.00     0.088 A 
HETATM   10  C   UNL     1     -15.473 -22.102 150.505  1.00  0.00     0.105 A 
HETATM   11  C   UNL     1     -12.624 -20.446 152.061  1.00  0.00     0.021 A 
HETATM   12  C   UNL     1     -12.607 -19.068 152.268  1.00  0.00     0.077 A 
HETATM   13  C   UNL     1     -15.656 -24.495 150.022  1.00  0.00     0.094 A 
HETATM   14  C   UNL     1     -13.765 -20.993 151.439  1.00  0.00     0.029 A 
HETATM   15  C   UNL     1     -16.243 -23.241 149.959  1.00  0.00     0.033 A 
HETATM   16  O   UNL     1     -15.917 -20.809 150.507  1.00  0.00    -0.308 OA
HETATM   17  O   UNL     1     -14.341 -24.757 150.593  1.00  0.00    -0.286 OA
ENDROOT
BRANCH  11  18
HETATM   18  C   UNL     1     -11.494 -21.218 152.407  1.00  0.00     0.074 C 
BRANCH  18  19
HETATM   19  N   UNL     1     -10.284 -21.104 151.555  1.00  0.00    -0.292 NA
HETATM   20  C   UNL     1      -9.363 -22.200 151.898  1.00  0.00     0.095 C 
HETATM   21  C   UNL     1      -8.070 -22.193 151.090  1.00  0.00     0.015 C 
HETATM   22  C   UNL     1      -8.352 -22.103 149.588  1.00  0.00     0.002 C 
HETATM   23  C   UNL     1      -9.351 -20.990 149.308  1.00  0.00     0.015 C 
HETATM   24  C   UNL     1     -10.614 -21.231 150.136  1.00  0.00     0.095 C 
ENDBRANCH  18  19
ENDBRANCH  11  18
BRANCH  12  25
HETATM   25  O   UNL     1     -11.543 -18.489 152.828  1.00  0.00    -0.360 OA
ATOM     26  HO  UNL     1     -10.723 -18.490 152.349  1.00  0.00     0.217 HD
ENDBRANCH  12  25
BRANCH   6  27
HETATM   27  O   UNL     1     -12.388 -23.976 151.577  1.00  0.00    -0.340 OA
ATOM     28  HO  UNL     1     -12.335 -24.082 152.519  1.00  0.00     0.220 HD
ENDBRANCH   6  27
BRANCH   7  29
HETATM   29  O   UNL     1     -18.203 -26.520 148.533  1.00  0.00    -0.361 OA
ATOM     30  HO  UNL     1     -18.174 -26.741 147.610  1.00  0.00     0.217 HD
ENDBRANCH   7  29
TORSDOF 5
ENDMDL
MODEL 5
REMARK VINA RESULT:    -9.582      2.198      3.151
REMARK INTER + INTRA:         -11.947
REMARK INTER:                 -11.467
REMARK INTRA:                  -0.480
REMARK UNBOUND:                -0.405
REMARK  5 active torsions:
REMARK  status: ('A' for Active; 'I' for Inactive)
REMARK    1  A    between atoms: C_6  and  O_25 
REMARK    2  A    between atoms: C_7  and  C_12 
REMARK    3  A    between atoms: C_7  and  N_14 
REMARK    4  A    between atoms: C_8  and  O_29 
REMARK    5  A    between atoms: C_13  and  O_27 
ROOT
HETATM    1  C   UNL     1     -10.915 -19.971 153.040  1.00  0.00     0.020 A 
HETATM    2  C   UNL     1      -9.766 -19.561 153.702  1.00  0.00     0.037 A 
HETATM    3  C   UNL     1      -8.981 -21.839 153.829  1.00  0.00     0.074 A 
HETATM    4  C   UNL     1     -15.330 -21.690 150.487  1.00  0.00     0.041 A 
HETATM    5  C   UNL     1     -16.097 -22.719 149.959  1.00  0.00     0.040 A 
HETATM    6  C   UNL     1     -11.368 -24.202 152.265  1.00  0.00     0.198 A 
HETATM    7  C   UNL     1      -8.807 -20.493 154.083  1.00  0.00     0.068 A 
HETATM    8  C   UNL     1     -12.437 -23.281 151.822  1.00  0.00     0.071 A 
HETATM    9  C   UNL     1     -14.113 -22.007 151.080  1.00  0.00     0.088 A 
HETATM   10  C   UNL     1     -12.271 -21.845 152.072  1.00  0.00     0.105 A 
HETATM   11  C   UNL     1     -14.441 -24.381 150.610  1.00  0.00     0.021 A 
HETATM   12  C   UNL     1     -15.662 -24.046 150.029  1.00  0.00     0.077 A 
HETATM   13  C   UNL     1     -10.122 -22.253 153.172  1.00  0.00     0.094 A 
HETATM   14  C   UNL     1     -13.678 -23.332 151.161  1.00  0.00     0.029 A 
HETATM   15  C   UNL     1     -11.079 -21.329 152.780  1.00  0.00     0.033 A 
HETATM   16  O   UNL     1     -13.299 -21.058 151.633  1.00  0.00    -0.308 OA
HETATM   17  O   UNL     1     -10.217 -23.685 152.925  1.00  0.00    -0.286 OA
ENDROOT
BRANCH  11  18
HETATM   18  C   UNL     1     -14.052 -25.735 150.687  1.00  0.00     0.074 C 
BRANCH  18  19
HETATM   19  N   UNL     1     -13.807 -26.464 149.417  1.00  0.00    -0.292 NA
HETATM   20  C   UNL     1     -12.406 -26.913 149.396  1.00  0.00     0.095 C 
HETATM   21  C   UNL     1     -12.023 -27.677 148.132  1.00  0.00     0.015 C 
HETATM   22  C   UNL     1     -13.013 -28.807 147.842  1.00  0.00     0.002 C 
HETATM   23  C   UNL     1     -14.441 -28.290 147.935  1.00  0.00     0.015 C 
HETATM   24  C   UNL     1     -14.654 -27.651 149.307  1.00  0.00     0.095 C 
ENDBRANCH  18  19
ENDBRANCH  11  18
BRANCH  12  25
HETATM   25  O   UNL     1     -16.441 -24.999 149.514  1.00  0.00    -0.360 OA
ATOM     26  HO  UNL     1     -16.172 -25.906 149.611  1.00  0.00     0.217 HD
ENDBRANCH  12  25
BRANCH   6  27
HETATM   27  O   UNL     1     -11.397 -25.507 152.099  1.00  0.00    -0.340 OA
ATOM     28  HO  UNL     1     -12.187 -25.856 151.704  1.00  0.00     0.220 HD
ENDBRANCH   6  27
BRANCH   7  29
HETATM   29  O   UNL     1      -7.706 -20.119 154.725  1.00  0.00    -0.361 OA
ATOM     30  HO  UNL     1      -6.929 -19.849 154.249  1.00  0.00     0.217 HD
ENDBRANCH   7  29
TORSDOF 5
ENDMDL
MODEL 6
REMARK VINA RESULT:    -9.186      3.613      8.308
REMARK INTER + INTRA:         -11.470
REMARK INTER:                 -11.331
REMARK INTRA:                  -0.139
REMARK UNBOUND:                -0.405
REMARK  5 active torsions:
REMARK  status: ('A' for Active; 'I' for Inactive)
REMARK    1  A    between atoms: C_6  and  O_25 
REMARK    2  A    between atoms: C_7  and  C_12 
REMARK    3  A    between atoms: C_7  and  N_14 
REMARK    4  A    between atoms: C_8  and  O_29 
REMARK    5  A    between atoms: C_13  and  O_27 
ROOT
HETATM    1  C   UNL     1     -15.411 -23.556 150.243  1.00  0.00     0.020 A 
HETATM    2  C   UNL     1     -16.114 -24.661 149.784  1.00  0.00     0.037 A 
HETATM    3  C   UNL     1     -14.311 -26.127 150.433  1.00  0.00     0.074 A 
HETATM    4  C   UNL     1     -12.577 -19.354 152.053  1.00  0.00     0.041 A 
HETATM    5  C   UNL     1     -11.432 -18.828 152.635  1.00  0.00     0.040 A 
HETATM    6  C   UNL     1     -11.499 -24.252 151.952  1.00  0.00     0.198 A 
HETATM    7  C   UNL     1     -15.565 -25.934 149.888  1.00  0.00     0.068 A 
HETATM    8  C   UNL     1     -12.006 -22.865 151.883  1.00  0.00     0.071 A 
HETATM    9  C   UNL     1     -12.653 -20.729 151.862  1.00  0.00     0.088 A 
HETATM   10  C   UNL     1     -13.341 -22.635 151.318  1.00  0.00     0.105 A 
HETATM   11  C   UNL     1     -10.437 -21.042 152.837  1.00  0.00     0.021 A 
HETATM   12  C   UNL     1     -10.373 -19.661 153.012  1.00  0.00     0.077 A 
HETATM   13  C   UNL     1     -13.605 -25.031 150.890  1.00  0.00     0.094 A 
HETATM   14  C   UNL     1     -11.596 -21.564 152.228  1.00  0.00     0.029 A 
HETATM   15  C   UNL     1     -14.150 -23.760 150.798  1.00  0.00     0.033 A 
HETATM   16  O   UNL     1     -13.740 -21.328 151.289  1.00  0.00    -0.308 OA
HETATM   17  O   UNL     1     -12.301 -25.325 151.468  1.00  0.00    -0.286 OA
ENDROOT
BRANCH  11  18
HETATM   18  C   UNL     1      -9.335 -21.844 153.203  1.00  0.00     0.074 C 
BRANCH  18  19
HETATM   19  N   UNL     1      -8.578 -21.472 154.425  1.00  0.00    -0.292 NA
HETATM   20  C   UNL     1      -9.465 -21.615 155.590  1.00  0.00     0.095 C 
HETATM   21  C   UNL     1      -8.802 -21.257 156.916  1.00  0.00     0.015 C 
HETATM   22  C   UNL     1      -7.471 -21.991 157.091  1.00  0.00     0.002 C 
HETATM   23  C   UNL     1      -6.626 -21.851 155.833  1.00  0.00     0.015 C 
HETATM   24  C   UNL     1      -7.429 -22.353 154.632  1.00  0.00     0.095 C 
ENDBRANCH  18  19
ENDBRANCH  11  18
BRANCH  12  25
HETATM   25  O   UNL     1      -9.290 -19.106 153.559  1.00  0.00    -0.360 OA
ATOM     26  HO  UNL     1      -8.434 -19.406 153.276  1.00  0.00     0.217 HD
ENDBRANCH  12  25
BRANCH   6  27
HETATM   27  O   UNL     1     -10.323 -24.588 152.437  1.00  0.00    -0.340 OA
ATOM     28  HO  UNL     1     -10.197 -25.513 152.614  1.00  0.00     0.220 HD
ENDBRANCH   6  27
BRANCH   7  29
HETATM   29  O   UNL     1     -16.220 -27.002 149.446  1.00  0.00    -0.361 OA
ATOM     30  HO  UNL     1     -16.765 -27.518 150.029  1.00  0.00     0.217 HD
ENDBRANCH   7  29
TORSDOF 5
ENDMDL
MODEL 7
REMARK VINA RESULT:    -9.077      4.573      9.177
REMARK INTER + INTRA:         -11.339
REMARK INTER:                 -10.534
REMARK INTRA:                  -0.805
REMARK UNBOUND:                -0.405
REMARK  5 active torsions:
REMARK  status: ('A' for Active; 'I' for Inactive)
REMARK    1  A    between atoms: C_6  and  O_25 
REMARK    2  A    between atoms: C_7  and  C_12 
REMARK    3  A    between atoms: C_7  and  N_14 
REMARK    4  A    between atoms: C_8  and  O_29 
REMARK    5  A    between atoms: C_13  and  O_27 
ROOT
HETATM    1  C   UNL     1     -10.697 -27.593 145.637  1.00  0.00     0.020 A 
HETATM    2  C   UNL     1     -11.654 -28.427 145.076  1.00  0.00     0.037 A 
HETATM    3  C   UNL     1     -12.986 -28.312 147.085  1.00  0.00     0.074 A 
HETATM    4  C   UNL     1      -7.057 -24.358 147.929  1.00  0.00     0.041 A 
HETATM    5  C   UNL     1      -6.617 -23.609 149.011  1.00  0.00     0.040 A 
HETATM    6  C   UNL     1     -11.398 -26.179 149.664  1.00  0.00     0.198 A 
HETATM    7  C   UNL     1     -12.791 -28.774 145.798  1.00  0.00     0.068 A 
HETATM    8  C   UNL     1     -10.162 -25.758 148.970  1.00  0.00     0.071 A 
HETATM    9  C   UNL     1      -8.271 -25.028 148.036  1.00  0.00     0.088 A 
HETATM   10  C   UNL     1      -9.937 -26.227 147.598  1.00  0.00     0.105 A 
HETATM   11  C   UNL     1      -8.596 -24.191 150.306  1.00  0.00     0.021 A 
HETATM   12  C   UNL     1      -7.372 -23.536 150.187  1.00  0.00     0.077 A 
HETATM   13  C   UNL     1     -12.037 -27.483 147.649  1.00  0.00     0.094 A 
HETATM   14  C   UNL     1      -9.025 -24.966 149.210  1.00  0.00     0.029 A 
HETATM   15  C   UNL     1     -10.905 -27.126 146.933  1.00  0.00     0.033 A 
HETATM   16  O   UNL     1      -8.774 -25.795 147.022  1.00  0.00    -0.308 OA
HETATM   17  O   UNL     1     -12.330 -27.026 149.000  1.00  0.00    -0.286 OA
ENDROOT
BRANCH  11  18
HETATM   18  C   UNL     1      -9.312 -24.116 151.520  1.00  0.00     0.074 C 
BRANCH  18  19
HETATM   19  N   UNL     1      -9.791 -22.784 151.966  1.00  0.00    -0.292 NA
HETATM   20  C   UNL     1     -10.982 -22.425 151.180  1.00  0.00     0.095 C 
HETATM   21  C   UNL     1     -11.571 -21.066 151.542  1.00  0.00     0.015 C 
HETATM   22  C   UNL     1     -11.796 -20.939 153.051  1.00  0.00     0.002 C 
HETATM   23  C   UNL     1     -10.549 -21.377 153.805  1.00  0.00     0.015 C 
HETATM   24  C   UNL     1     -10.178 -22.797 153.376  1.00  0.00     0.095 C 
ENDBRANCH  18  19
ENDBRANCH  11  18
BRANCH  12  25
HETATM   25  O   UNL     1      -6.901 -22.808 151.202  1.00  0.00    -0.360 OA
ATOM     26  HO  UNL     1      -6.705 -23.248 152.021  1.00  0.00     0.217 HD
ENDBRANCH  12  25
BRANCH   6  27
HETATM   27  O   UNL     1     -11.716 -25.826 150.891  1.00  0.00    -0.340 OA
ATOM     28  HO  UNL     1     -11.149 -25.181 151.297  1.00  0.00     0.220 HD
ENDBRANCH   6  27
BRANCH   7  29
HETATM   29  O   UNL     1     -13.713 -29.577 145.280  1.00  0.00    -0.361 OA
ATOM     30  HO  UNL     1     -14.549 -29.237 144.984  1.00  0.00     0.217 HD
ENDBRANCH   7  29
TORSDOF 5
ENDMDL
