REMARK  12 active torsions:
REMARK  status: ('A' for Active; 'I' for Inactive)
REMARK    1  A    between atoms: C_1  and  N_18 
REMARK    2  A    between atoms: C_3  and  O_21 
REMARK    3  A    between atoms: C_4  and  O_24 
REMARK    4  A    between atoms: C_6  and  C_8 
REMARK    5  A    between atoms: C_8  and  O_28 
REMARK    6  A    between atoms: C_9  and  N_15 
REMARK    7  A    between atoms: O_20  and  P_30 
REMARK    8  A    between atoms: O_22  and  P_29 
REMARK    9  A    between atoms: O_23  and  P_30 
REMARK   10  A    between atoms: O_25  and  P_29 
REMARK   11  A    between atoms: O_25  and  P_30 
REMARK   12  A    between atoms: O_28  and  P_29 
ROOT
HETATM    1  C   UNL     1       1.098  -1.848   2.382  1.00  0.00     0.262 C 
HETATM    2  C   UNL     1       0.152  -1.500   3.536  1.00  0.00     0.198 C 
HETATM    3  C   UNL     1      -1.134  -1.176   2.819  1.00  0.00     0.182 C 
HETATM    4  C   UNL     1      -1.026  -2.000   1.533  1.00  0.00     0.180 C 
HETATM    5  O   UNL     1       0.322  -2.375   1.327  1.00  0.00    -0.353 OA
ENDROOT
BRANCH   1   6
HETATM    6  N   UNL     1       1.854  -0.673   1.916  1.00  0.00    -0.297 N 
HETATM    7  C   UNL     1       2.169  -0.325   0.657  1.00  0.00     0.144 A 
HETATM    8  C   UNL     1       3.020   0.726   0.672  1.00  0.00     0.122 A 
HETATM    9  N   UNL     1       1.790  -0.935  -0.493  1.00  0.00    -0.316 N 
HETATM   10  C   UNL     1       3.518   1.236  -0.523  1.00  0.00     0.132 A 
HETATM   11  N   UNL     1       3.314   1.077   1.935  1.00  0.00    -0.346 N 
HETATM   12  N   UNL     1       3.122   0.633  -1.683  1.00  0.00    -0.317 N 
HETATM   13  C   UNL     1       2.270  -0.442  -1.674  1.00  0.00     0.182 A 
ATOM     14  HN  UNL     1       3.467   0.989  -2.574  1.00  0.00     0.170 HD
HETATM   15 CL   UNL     1       1.813  -1.202  -3.182  1.00  0.00    -0.045 Cl
HETATM   16  C   UNL     1       2.592   0.189   2.670  1.00  0.00     0.188 A 
ATOM     17  HN  UNL     1       3.927   1.824   2.262  1.00  0.00     0.167 HD
ATOM     18  HN  UNL     1       1.164  -1.740  -0.477  1.00  0.00     0.170 HD
BRANCH  10  19
HETATM   19  N   UNL     1       4.425   2.338  -0.550  1.00  0.00    -0.383 N 
HETATM   20  H   UNL     1       4.736   2.801   0.333  1.00  0.00     0.157 HD
HETATM   21  H   UNL     1       4.789   2.695  -1.461  1.00  0.00     0.157 HD
ENDBRANCH  10  19
ENDBRANCH   1   6
BRANCH   2  22
HETATM   22  O   UNL     1       0.007  -2.591   4.418  1.00  0.00    -0.388 OA
HETATM   23  H   UNL     1      -0.281  -3.383   3.891  1.00  0.00     0.210 HD
ENDBRANCH   2  22
BRANCH   3  24
HETATM   24  O   UNL     1      -2.256  -1.540   3.581  1.00  0.00    -0.390 OA
HETATM   25  H   UNL     1      -3.046  -1.157   3.116  1.00  0.00     0.210 HD
ENDBRANCH   3  24
BRANCH   4  26
HETATM   26  C   UNL     1      -1.548  -1.223   0.320  1.00  0.00     0.215 C 
BRANCH  26  27
HETATM   27  O   UNL     1      -1.385  -2.005  -0.840  1.00  0.00    -0.294 OA
BRANCH  27  28
HETATM   28  P   UNL     1      -2.136  -1.195  -2.139  1.00  0.00     0.401 P 
HETATM   29  O   UNL     1      -1.760  -1.901  -3.422  1.00  0.00    -0.631 OA
BRANCH  28  30
HETATM   30  O   UNL     1      -1.599   0.413  -2.206  1.00  0.00    -0.307 OA
HETATM   31  H   UNL     1      -0.616   0.350  -2.302  1.00  0.00     0.222 HD
ENDBRANCH  28  30
BRANCH  28  32
HETATM   32  O   UNL     1      -3.824  -1.270  -1.922  1.00  0.00    -0.195 OA
BRANCH  32  33
HETATM   33  P   UNL     1      -4.538  -0.189  -3.027  1.00  0.00     0.399 P 
HETATM   34  O   UNL     1      -4.299   1.236  -2.579  1.00  0.00    -0.631 OA
BRANCH  33  35
HETATM   35  O   UNL     1      -6.204  -0.481  -3.058  1.00  0.00    -0.307 OA
HETATM   36  H   UNL     1      -6.564   0.166  -3.717  1.00  0.00     0.222 HD
ENDBRANCH  33  35
BRANCH  33  37
HETATM   37  O   UNL     1      -3.913  -0.411  -4.586  1.00  0.00    -0.307 OA
HETATM   38  H   UNL     1      -4.370   0.269  -5.143  1.00  0.00     0.222 HD
ENDBRANCH  33  37
ENDBRANCH  32  33
ENDBRANCH  28  32
ENDBRANCH  27  28
ENDBRANCH  26  27
ENDBRANCH   4  26
TORSDOF 12
