MODEL 1
REMARK VINA RESULT:    -9.118      0.000      0.000
REMARK INTER + INTRA:         -14.153
REMARK INTER:                 -13.115
REMARK INTRA:                  -1.037
REMARK UNBOUND:                -1.037
REMARK  9 active torsions:
REMARK  status: ('A' for Active; 'I' for Inactive)
REMARK    1  A    between atoms: S_1  and  O_8 
REMARK    2  A    between atoms: P_5  and  O_8 
REMARK    3  A    between atoms: P_5  and  O_9 
REMARK    4  A    between atoms: O_9  and  C_10 
REMARK    5  A    between atoms: C_10  and  C_11 
REMARK    6  A    between atoms: C_13  and  O_14 
REMARK    7  A    between atoms: C_16  and  O_17 
REMARK    8  A    between atoms: C_19  and  N_20 
REMARK    9  A    between atoms: C_25  and  N_26 
ROOT
HETATM    1  C   UNL     1      -4.969  -2.449  -1.733  1.00  0.00     0.180 C 
HETATM    2  O   UNL     1      -5.050  -1.211  -1.095  1.00  0.00    -0.353 OA
HETATM    3  C   UNL     1      -6.312  -2.594  -2.476  1.00  0.00     0.182 C 
HETATM    4  C   UNL     1      -6.672  -1.175  -2.819  1.00  0.00     0.198 C 
HETATM    5  C   UNL     1      -6.175  -0.522  -1.556  1.00  0.00     0.262 C 
ENDROOT
BRANCH   5   6
HETATM    6  N   UNL     1      -5.780   0.865  -1.495  1.00  0.00    -0.297 N 
HETATM    7  C   UNL     1      -4.593   1.321  -1.385  1.00  0.00     0.188 A 
HETATM    8  N   UNL     1      -4.592   2.605  -1.261  1.00  0.00    -0.346 N 
HETATM    9  C   UNL     1      -5.833   3.014  -1.250  1.00  0.00     0.122 A 
ATOM     10  HN  UNL     1      -3.767   3.197  -1.184  1.00  0.00     0.167 HD
HETATM   11  C   UNL     1      -6.550   4.272  -1.132  1.00  0.00     0.131 A 
HETATM   12  C   UNL     1      -6.639   1.826  -1.401  1.00  0.00     0.142 A 
HETATM   13  N   UNL     1      -7.883   4.227  -1.197  1.00  0.00    -0.337 N 
HETATM   14  C   UNL     1      -8.556   3.112  -1.341  1.00  0.00     0.183 A 
ATOM     15  HN  UNL     1      -8.401   5.103  -1.132  1.00  0.00     0.168 HD
HETATM   16  N   UNL     1      -7.970   1.937  -1.456  1.00  0.00    -0.336 N 
ATOM     17  HN  UNL     1      -8.540   1.101  -1.590  1.00  0.00     0.168 HD
BRANCH  11  18
HETATM   18  N   UNL     1      -5.895   5.426  -0.971  1.00  0.00    -0.383 N 
ATOM     19  HN2 UNL     1      -4.978   5.582  -1.387  1.00  0.00     0.157 HD
ATOM     20  HN1 UNL     1      -6.296   6.185  -0.420  1.00  0.00     0.157 HD
ENDBRANCH  11  18
ENDBRANCH   5   6
BRANCH   4  21
HETATM   21  O   UNL     1      -8.017  -0.935  -3.020  1.00  0.00    -0.388 OA
ATOM     22  HO  UNL     1      -8.600  -1.646  -2.777  1.00  0.00     0.210 HD
ENDBRANCH   4  21
BRANCH   1  23
HETATM   23  C   UNL     1      -3.780  -2.542  -2.697  1.00  0.00     0.216 C 
BRANCH  23  24
HETATM   24  O   UNL     1      -3.475  -1.363  -3.381  1.00  0.00    -0.286 OA
BRANCH  24  25
HETATM   25  P   UNL     1      -2.077  -0.946  -3.885  1.00  0.00     0.425 P 
HETATM   26  O   UNL     1      -2.240   0.029  -4.813  1.00  0.00    -0.623 OA
HETATM   27  O   UNL     1      -1.230  -0.738  -2.817  1.00  0.00    -0.623 OA
BRANCH  25  28
HETATM   28  O   UNL     1      -1.530  -2.176  -4.648  1.00  0.00    -0.144 OA
BRANCH  28  29
HETATM   29  S   UNL     1      -0.207  -2.550  -5.174  1.00  0.00     0.261 S 
HETATM   30  O   UNL     1       0.412  -3.151  -4.233  1.00  0.00    -0.572 OA
HETATM   31  O   UNL     1      -0.451  -3.398  -6.104  1.00  0.00    -0.572 OA
HETATM   32  O   UNL     1       0.431  -1.532  -5.614  1.00  0.00    -0.572 OA
ENDBRANCH  28  29
ENDBRANCH  25  28
ENDBRANCH  24  25
ENDBRANCH  23  24
ENDBRANCH   1  23
BRANCH   3  33
HETATM   33  O   UNL     1      -7.227  -3.200  -1.645  1.00  0.00    -0.390 OA
ATOM     34  HO  UNL     1      -7.982  -2.633  -1.545  1.00  0.00     0.210 HD
ENDBRANCH   3  33
TORSDOF 9
ENDMDL
MODEL 2
REMARK VINA RESULT:    -9.071      4.248      6.792
REMARK INTER + INTRA:         -14.085
REMARK INTER:                 -13.002
REMARK INTRA:                  -1.083
REMARK UNBOUND:                -1.037
REMARK  9 active torsions:
REMARK  status: ('A' for Active; 'I' for Inactive)
REMARK    1  A    between atoms: S_1  and  O_8 
REMARK    2  A    between atoms: P_5  and  O_8 
REMARK    3  A    between atoms: P_5  and  O_9 
REMARK    4  A    between atoms: O_9  and  C_10 
REMARK    5  A    between atoms: C_10  and  C_11 
REMARK    6  A    between atoms: C_13  and  O_14 
REMARK    7  A    between atoms: C_16  and  O_17 
REMARK    8  A    between atoms: C_19  and  N_20 
REMARK    9  A    between atoms: C_25  and  N_26 
ROOT
HETATM    1  C   UNL     1      -4.253   1.467  -0.914  1.00  0.00     0.180 C 
HETATM    2  O   UNL     1      -3.159   0.830  -1.500  1.00  0.00    -0.353 OA
HETATM    3  C   UNL     1      -4.960   2.183  -2.083  1.00  0.00     0.182 C 
HETATM    4  C   UNL     1      -4.677   1.288  -3.257  1.00  0.00     0.198 C 
HETATM    5  C   UNL     1      -3.269   0.900  -2.891  1.00  0.00     0.262 C 
ENDROOT
BRANCH   5   6
HETATM    6  N   UNL     1      -2.649  -0.320  -3.349  1.00  0.00    -0.297 N 
HETATM    7  C   UNL     1      -2.939  -1.510  -2.989  1.00  0.00     0.188 A 
HETATM    8  N   UNL     1      -2.131  -2.369  -3.513  1.00  0.00    -0.346 N 
HETATM    9  C   UNL     1      -1.247  -1.718  -4.220  1.00  0.00     0.122 A 
ATOM     10  HN  UNL     1      -2.176  -3.380  -3.395  1.00  0.00     0.167 HD
HETATM   11  C   UNL     1      -0.085  -2.025  -5.036  1.00  0.00     0.131 A 
HETATM   12  C   UNL     1      -1.596  -0.323  -4.099  1.00  0.00     0.142 A 
HETATM   13  N   UNL     1       0.542  -1.002  -5.621  1.00  0.00    -0.337 N 
HETATM   14  C   UNL     1       0.169   0.246  -5.475  1.00  0.00     0.183 A 
ATOM     15  HN  UNL     1       1.351  -1.201  -6.211  1.00  0.00     0.168 HD
HETATM   16  N   UNL     1      -0.876   0.595  -4.751  1.00  0.00    -0.336 N 
ATOM     17  HN  UNL     1      -1.139   1.579  -4.688  1.00  0.00     0.168 HD
BRANCH  11  18
HETATM   18  N   UNL     1       0.332  -3.285  -5.195  1.00  0.00    -0.383 N 
ATOM     19  HN2 UNL     1      -0.116  -4.061  -4.709  1.00  0.00     0.157 HD
ATOM     20  HN1 UNL     1       1.116  -3.506  -5.809  1.00  0.00     0.157 HD
ENDBRANCH  11  18
ENDBRANCH   5   6
BRANCH   4  21
HETATM   21  O   UNL     1      -4.732   1.898  -4.495  1.00  0.00    -0.388 OA
ATOM     22  HO  UNL     1      -3.895   2.172  -4.853  1.00  0.00     0.210 HD
ENDBRANCH   4  21
BRANCH   1  23
HETATM   23  C   UNL     1      -5.196   0.491  -0.201  1.00  0.00     0.216 C 
BRANCH  23  24
HETATM   24  O   UNL     1      -4.788  -0.845  -0.213  1.00  0.00    -0.286 OA
BRANCH  24  25
HETATM   25  P   UNL     1      -5.718  -2.075  -0.156  1.00  0.00     0.425 P 
HETATM   26  O   UNL     1      -5.077  -3.113  -0.749  1.00  0.00    -0.623 OA
HETATM   27  O   UNL     1      -6.230  -2.225   1.116  1.00  0.00    -0.623 OA
BRANCH  25  28
HETATM   28  O   UNL     1      -6.915  -1.730  -1.074  1.00  0.00    -0.144 OA
BRANCH  28  29
HETATM   29  S   UNL     1      -7.335  -2.166  -2.416  1.00  0.00     0.261 S 
HETATM   30  O   UNL     1      -7.746  -3.370  -2.306  1.00  0.00    -0.572 OA
HETATM   31  O   UNL     1      -8.337  -1.420  -2.704  1.00  0.00    -0.572 OA
HETATM   32  O   UNL     1      -6.390  -2.043  -3.270  1.00  0.00    -0.572 OA
ENDBRANCH  28  29
ENDBRANCH  25  28
ENDBRANCH  24  25
ENDBRANCH  23  24
ENDBRANCH   1  23
BRANCH   3  33
HETATM   33  O   UNL     1      -4.434   3.447  -2.225  1.00  0.00    -0.390 OA
ATOM     34  HO  UNL     1      -3.711   3.556  -1.620  1.00  0.00     0.210 HD
ENDBRANCH   3  33
TORSDOF 9
ENDMDL
MODEL 3
REMARK VINA RESULT:    -8.973      0.873      1.732
REMARK INTER + INTRA:         -13.944
REMARK INTER:                 -12.915
REMARK INTRA:                  -1.030
REMARK UNBOUND:                -1.037
REMARK  9 active torsions:
REMARK  status: ('A' for Active; 'I' for Inactive)
REMARK    1  A    between atoms: S_1  and  O_8 
REMARK    2  A    between atoms: P_5  and  O_8 
REMARK    3  A    between atoms: P_5  and  O_9 
REMARK    4  A    between atoms: O_9  and  C_10 
REMARK    5  A    between atoms: C_10  and  C_11 
REMARK    6  A    between atoms: C_13  and  O_14 
REMARK    7  A    between atoms: C_16  and  O_17 
REMARK    8  A    between atoms: C_19  and  N_20 
REMARK    9  A    between atoms: C_25  and  N_26 
ROOT
HETATM    1  C   UNL     1      -5.011  -2.013  -2.256  1.00  0.00     0.180 C 
HETATM    2  O   UNL     1      -5.422  -0.993  -1.398  1.00  0.00    -0.353 OA
HETATM    3  C   UNL     1      -6.309  -2.511  -2.922  1.00  0.00     0.182 C 
HETATM    4  C   UNL     1      -7.165  -1.277  -2.974  1.00  0.00     0.198 C 
HETATM    5  C   UNL     1      -6.761  -0.686  -1.649  1.00  0.00     0.262 C 
ENDROOT
BRANCH   5   6
HETATM    6  N   UNL     1      -6.852   0.726  -1.361  1.00  0.00    -0.297 N 
HETATM    7  C   UNL     1      -7.909   1.384  -1.080  1.00  0.00     0.188 A 
HETATM    8  N   UNL     1      -7.661   2.646  -0.971  1.00  0.00    -0.346 N 
HETATM    9  C   UNL     1      -6.394   2.835  -1.228  1.00  0.00     0.122 A 
ATOM     10  HN  UNL     1      -8.337   3.369  -0.728  1.00  0.00     0.167 HD
HETATM   11  C   UNL     1      -5.467   3.952  -1.302  1.00  0.00     0.131 A 
HETATM   12  C   UNL     1      -5.849   1.528  -1.502  1.00  0.00     0.142 A 
HETATM   13  N   UNL     1      -4.194   3.674  -1.591  1.00  0.00    -0.337 N 
HETATM   14  C   UNL     1      -3.760   2.459  -1.824  1.00  0.00     0.183 A 
ATOM     15  HN  UNL     1      -3.526   4.444  -1.631  1.00  0.00     0.168 HD
HETATM   16  N   UNL     1      -4.546   1.401  -1.771  1.00  0.00    -0.336 N 
ATOM     17  HN  UNL     1      -4.154   0.474  -1.938  1.00  0.00     0.168 HD
BRANCH  11  18
HETATM   18  N   UNL     1      -5.878   5.205  -1.084  1.00  0.00    -0.383 N 
ATOM     19  HN2 UNL     1      -6.680   5.597  -1.577  1.00  0.00     0.157 HD
ATOM     20  HN1 UNL     1      -5.396   5.808  -0.417  1.00  0.00     0.157 HD
ENDBRANCH  11  18
ENDBRANCH   5   6
BRANCH   4  21
HETATM   21  O   UNL     1      -8.527  -1.500  -3.038  1.00  0.00    -0.388 OA
ATOM     22  HO  UNL     1      -8.892  -1.550  -3.914  1.00  0.00     0.210 HD
ENDBRANCH   4  21
BRANCH   1  23
HETATM   23  C   UNL     1      -3.991  -1.537  -3.297  1.00  0.00     0.216 C 
BRANCH  23  24
HETATM   24  O   UNL     1      -2.803  -1.022  -2.774  1.00  0.00    -0.286 OA
BRANCH  24  25
HETATM   25  P   UNL     1      -1.518  -0.721  -3.574  1.00  0.00     0.425 P 
HETATM   26  O   UNL     1      -1.820   0.203  -4.519  1.00  0.00    -0.623 OA
HETATM   27  O   UNL     1      -0.464  -0.499  -2.713  1.00  0.00    -0.623 OA
BRANCH  25  28
HETATM   28  O   UNL     1      -1.194  -2.027  -4.339  1.00  0.00    -0.144 OA
BRANCH  28  29
HETATM   29  S   UNL     1       0.007  -2.548  -5.012  1.00  0.00     0.261 S 
HETATM   30  O   UNL     1       0.707  -3.139  -4.122  1.00  0.00    -0.572 OA
HETATM   31  O   UNL     1      -0.433  -3.429  -5.832  1.00  0.00    -0.572 OA
HETATM   32  O   UNL     1       0.652  -1.619  -5.613  1.00  0.00    -0.572 OA
ENDBRANCH  28  29
ENDBRANCH  25  28
ENDBRANCH  24  25
ENDBRANCH  23  24
ENDBRANCH   1  23
BRANCH   3  33
HETATM   33  O   UNL     1      -6.854  -3.518  -2.157  1.00  0.00    -0.390 OA
ATOM     34  HO  UNL     1      -6.156  -4.024  -1.762  1.00  0.00     0.210 HD
ENDBRANCH   3  33
TORSDOF 9
ENDMDL
MODEL 4
REMARK VINA RESULT:    -8.903      4.463      7.356
REMARK INTER + INTRA:         -13.844
REMARK INTER:                 -13.232
REMARK INTRA:                  -0.612
REMARK UNBOUND:                -1.037
REMARK  9 active torsions:
REMARK  status: ('A' for Active; 'I' for Inactive)
REMARK    1  A    between atoms: S_1  and  O_8 
REMARK    2  A    between atoms: P_5  and  O_8 
REMARK    3  A    between atoms: P_5  and  O_9 
REMARK    4  A    between atoms: O_9  and  C_10 
REMARK    5  A    between atoms: C_10  and  C_11 
REMARK    6  A    between atoms: C_13  and  O_14 
REMARK    7  A    between atoms: C_16  and  O_17 
REMARK    8  A    between atoms: C_19  and  N_20 
REMARK    9  A    between atoms: C_25  and  N_26 
ROOT
HETATM    1  C   UNL     1      -4.058   1.491  -0.855  1.00  0.00     0.180 C 
HETATM    2  O   UNL     1      -3.011   0.853  -1.520  1.00  0.00    -0.353 OA
HETATM    3  C   UNL     1      -4.917   2.108  -1.977  1.00  0.00     0.182 C 
HETATM    4  C   UNL     1      -4.731   1.150  -3.120  1.00  0.00     0.198 C 
HETATM    5  C   UNL     1      -3.277   0.831  -2.892  1.00  0.00     0.262 C 
ENDROOT
BRANCH   5   6
HETATM    6  N   UNL     1      -2.664  -0.396  -3.343  1.00  0.00    -0.297 N 
HETATM    7  C   UNL     1      -2.950  -1.580  -2.964  1.00  0.00     0.188 A 
HETATM    8  N   UNL     1      -2.151  -2.447  -3.488  1.00  0.00    -0.346 N 
HETATM    9  C   UNL     1      -1.276  -1.806  -4.216  1.00  0.00     0.122 A 
ATOM     10  HN  UNL     1      -2.195  -3.457  -3.357  1.00  0.00     0.167 HD
HETATM   11  C   UNL     1      -0.126  -2.125  -5.045  1.00  0.00     0.131 A 
HETATM   12  C   UNL     1      -1.622  -0.409  -4.108  1.00  0.00     0.142 A 
HETATM   13  N   UNL     1       0.494  -1.110  -5.651  1.00  0.00    -0.337 N 
HETATM   14  C   UNL     1       0.124   0.140  -5.516  1.00  0.00     0.183 A 
ATOM     15  HN  UNL     1       1.294  -1.318  -6.250  1.00  0.00     0.168 HD
HETATM   16  N   UNL     1      -0.911   0.499  -4.782  1.00  0.00    -0.336 N 
ATOM     17  HN  UNL     1      -1.171   1.484  -4.728  1.00  0.00     0.168 HD
BRANCH  11  18
HETATM   18  N   UNL     1       0.287  -3.387  -5.194  1.00  0.00    -0.383 N 
ATOM     19  HN2 UNL     1       1.277  -3.619  -5.278  1.00  0.00     0.157 HD
ATOM     20  HN1 UNL     1      -0.380  -4.159  -5.230  1.00  0.00     0.157 HD
ENDBRANCH  11  18
ENDBRANCH   5   6
BRANCH   4  21
HETATM   21  O   UNL     1      -4.945   1.677  -4.379  1.00  0.00    -0.388 OA
ATOM     22  HO  UNL     1      -4.222   2.178  -4.741  1.00  0.00     0.210 HD
ENDBRANCH   4  21
BRANCH   1  23
HETATM   23  C   UNL     1      -4.878   0.533   0.017  1.00  0.00     0.216 C 
BRANCH  23  24
HETATM   24  O   UNL     1      -5.442  -0.551  -0.660  1.00  0.00    -0.286 OA
BRANCH  24  25
HETATM   25  P   UNL     1      -6.385  -1.608  -0.046  1.00  0.00     0.425 P 
HETATM   26  O   UNL     1      -6.703  -2.499  -1.018  1.00  0.00    -0.623 OA
HETATM   27  O   UNL     1      -5.876  -2.058   1.154  1.00  0.00    -0.623 OA
BRANCH  25  28
HETATM   28  O   UNL     1      -7.693  -0.851   0.286  1.00  0.00    -0.144 OA
BRANCH  28  29
HETATM   29  S   UNL     1      -8.711  -0.161  -0.524  1.00  0.00     0.261 S 
HETATM   30  O   UNL     1      -9.136  -1.002  -1.385  1.00  0.00    -0.572 OA
HETATM   31  O   UNL     1      -9.663   0.097   0.295  1.00  0.00    -0.572 OA
HETATM   32  O   UNL     1      -8.245   0.904  -1.061  1.00  0.00    -0.572 OA
ENDBRANCH  28  29
ENDBRANCH  25  28
ENDBRANCH  24  25
ENDBRANCH  23  24
ENDBRANCH   1  23
BRANCH   3  33
HETATM   33  O   UNL     1      -4.458   3.377  -2.253  1.00  0.00    -0.390 OA
ATOM     34  HO  UNL     1      -5.196   3.939  -2.457  1.00  0.00     0.210 HD
ENDBRANCH   3  33
TORSDOF 9
ENDMDL
MODEL 5
REMARK VINA RESULT:    -8.826      1.854      2.809
REMARK INTER + INTRA:         -13.733
REMARK INTER:                 -12.409
REMARK INTRA:                  -1.324
REMARK UNBOUND:                -1.037
REMARK  9 active torsions:
REMARK  status: ('A' for Active; 'I' for Inactive)
REMARK    1  A    between atoms: S_1  and  O_8 
REMARK    2  A    between atoms: P_5  and  O_8 
REMARK    3  A    between atoms: P_5  and  O_9 
REMARK    4  A    between atoms: O_9  and  C_10 
REMARK    5  A    between atoms: C_10  and  C_11 
REMARK    6  A    between atoms: C_13  and  O_14 
REMARK    7  A    between atoms: C_16  and  O_17 
REMARK    8  A    between atoms: C_19  and  N_20 
REMARK    9  A    between atoms: C_25  and  N_26 
ROOT
HETATM    1  C   UNL     1      -4.885  -0.941   0.030  1.00  0.00     0.180 C 
HETATM    2  O   UNL     1      -5.518   0.282   0.253  1.00  0.00    -0.353 OA
HETATM    3  C   UNL     1      -6.033  -1.927  -0.264  1.00  0.00     0.182 C 
HETATM    4  C   UNL     1      -7.070  -1.063  -0.925  1.00  0.00     0.198 C 
HETATM    5  C   UNL     1      -6.867   0.178  -0.097  1.00  0.00     0.262 C 
ENDROOT
BRANCH   5   6
HETATM    6  N   UNL     1      -7.205   1.499  -0.570  1.00  0.00    -0.297 N 
HETATM    7  C   UNL     1      -8.344   1.896  -0.988  1.00  0.00     0.188 A 
HETATM    8  N   UNL     1      -8.286   3.107  -1.430  1.00  0.00    -0.346 N 
HETATM    9  C   UNL     1      -7.050   3.517  -1.335  1.00  0.00     0.122 A 
ATOM     10  HN  UNL     1      -9.070   3.649  -1.791  1.00  0.00     0.167 HD
HETATM   11  C   UNL     1      -6.286   4.714  -1.644  1.00  0.00     0.131 A 
HETATM   12  C   UNL     1      -6.314   2.417  -0.758  1.00  0.00     0.142 A 
HETATM   13  N   UNL     1      -4.985   4.705  -1.348  1.00  0.00    -0.337 N 
HETATM   14  C   UNL     1      -4.377   3.672  -0.817  1.00  0.00     0.183 A 
ATOM     15  HN  UNL     1      -4.437   5.543  -1.543  1.00  0.00     0.168 HD
HETATM   16  N   UNL     1      -5.008   2.556  -0.510  1.00  0.00    -0.336 N 
ATOM     17  HN  UNL     1      -4.494   1.790  -0.077  1.00  0.00     0.168 HD
BRANCH  11  18
HETATM   18  N   UNL     1      -6.871   5.780  -2.199  1.00  0.00    -0.383 N 
ATOM     19  HN2 UNL     1      -6.884   6.686  -1.730  1.00  0.00     0.157 HD
ATOM     20  HN1 UNL     1      -7.326   5.716  -3.110  1.00  0.00     0.157 HD
ENDBRANCH  11  18
ENDBRANCH   5   6
BRANCH   4  21
HETATM   21  O   UNL     1      -8.369  -1.524  -0.841  1.00  0.00    -0.388 OA
ATOM     22  HO  UNL     1      -8.527  -2.185  -0.176  1.00  0.00     0.210 HD
ENDBRANCH   4  21
BRANCH   1  23
HETATM   23  C   UNL     1      -3.880  -0.887  -1.127  1.00  0.00     0.216 C 
BRANCH  23  24
HETATM   24  O   UNL     1      -3.884   0.301  -1.862  1.00  0.00    -0.286 OA
BRANCH  24  25
HETATM   25  P   UNL     1      -4.240   0.438  -3.357  1.00  0.00     0.425 P 
HETATM   26  O   UNL     1      -4.788  -0.734  -3.766  1.00  0.00    -0.623 OA
HETATM   27  O   UNL     1      -4.914   1.620  -3.579  1.00  0.00    -0.623 OA
BRANCH  25  28
HETATM   28  O   UNL     1      -2.885   0.558  -4.095  1.00  0.00    -0.144 OA
BRANCH  28  29
HETATM   29  S   UNL     1      -1.714  -0.323  -4.235  1.00  0.00     0.261 S 
HETATM   30  O   UNL     1      -1.019   0.131  -5.205  1.00  0.00    -0.572 OA
HETATM   31  O   UNL     1      -1.050  -0.161  -3.150  1.00  0.00    -0.572 OA
HETATM   32  O   UNL     1      -2.059  -1.544  -4.404  1.00  0.00    -0.572 OA
ENDBRANCH  28  29
ENDBRANCH  25  28
ENDBRANCH  24  25
ENDBRANCH  23  24
ENDBRANCH   1  23
BRANCH   3  33
HETATM   33  O   UNL     1      -6.466  -2.485   0.918  1.00  0.00    -0.390 OA
ATOM     34  HO  UNL     1      -7.107  -1.911   1.319  1.00  0.00     0.210 HD
ENDBRANCH   3  33
TORSDOF 9
ENDMDL
MODEL 6
REMARK VINA RESULT:    -8.747      4.333      6.636
REMARK INTER + INTRA:         -13.619
REMARK INTER:                 -12.376
REMARK INTRA:                  -1.243
REMARK UNBOUND:                -1.037
REMARK  9 active torsions:
REMARK  status: ('A' for Active; 'I' for Inactive)
REMARK    1  A    between atoms: S_1  and  O_8 
REMARK    2  A    between atoms: P_5  and  O_8 
REMARK    3  A    between atoms: P_5  and  O_9 
REMARK    4  A    between atoms: O_9  and  C_10 
REMARK    5  A    between atoms: C_10  and  C_11 
REMARK    6  A    between atoms: C_13  and  O_14 
REMARK    7  A    between atoms: C_16  and  O_17 
REMARK    8  A    between atoms: C_19  and  N_20 
REMARK    9  A    between atoms: C_25  and  N_26 
ROOT
HETATM    1  C   UNL     1      -6.120  -1.617  -2.247  1.00  0.00     0.180 C 
HETATM    2  O   UNL     1      -4.881  -1.572  -2.888  1.00  0.00    -0.353 OA
HETATM    3  C   UNL     1      -5.787  -1.512  -0.745  1.00  0.00     0.182 C 
HETATM    4  C   UNL     1      -4.541  -0.670  -0.726  1.00  0.00     0.198 C 
HETATM    5  C   UNL     1      -3.891  -1.229  -1.964  1.00  0.00     0.262 C 
ENDROOT
BRANCH   5   6
HETATM    6  N   UNL     1      -2.930  -0.488  -2.746  1.00  0.00    -0.297 N 
HETATM    7  C   UNL     1      -2.888   0.777  -2.911  1.00  0.00     0.188 A 
HETATM    8  N   UNL     1      -1.963   1.111  -3.746  1.00  0.00    -0.346 N 
HETATM    9  C   UNL     1      -1.392   0.019  -4.180  1.00  0.00     0.122 A 
ATOM     10  HN  UNL     1      -1.719   2.062  -4.020  1.00  0.00     0.167 HD
HETATM   11  C   UNL     1      -0.333  -0.347  -5.105  1.00  0.00     0.131 A 
HETATM   12  C   UNL     1      -2.059  -1.068  -3.504  1.00  0.00     0.142 A 
HETATM   13  N   UNL     1      -0.051  -1.646  -5.232  1.00  0.00    -0.337 N 
HETATM   14  C   UNL     1      -0.693  -2.586  -4.583  1.00  0.00     0.183 A 
ATOM     15  HN  UNL     1       0.700  -1.920  -5.865  1.00  0.00     0.168 HD
HETATM   16  N   UNL     1      -1.662  -2.325  -3.727  1.00  0.00    -0.336 N 
ATOM     17  HN  UNL     1      -2.114  -3.092  -3.229  1.00  0.00     0.168 HD
BRANCH  11  18
HETATM   18  N   UNL     1       0.333   0.584  -5.794  1.00  0.00    -0.383 N 
ATOM     19  HN2 UNL     1      -0.003   0.924  -6.695  1.00  0.00     0.157 HD
ATOM     20  HN1 UNL     1       1.202   0.982  -5.437  1.00  0.00     0.157 HD
ENDBRANCH  11  18
ENDBRANCH   5   6
BRANCH   4  21
HETATM   21  O   UNL     1      -3.737  -0.825   0.386  1.00  0.00    -0.388 OA
ATOM     22  HO  UNL     1      -2.945  -1.333   0.250  1.00  0.00     0.210 HD
ENDBRANCH   4  21
BRANCH   1  23
HETATM   23  C   UNL     1      -7.059  -0.491  -2.694  1.00  0.00     0.216 C 
BRANCH  23  24
HETATM   24  O   UNL     1      -7.868   0.043  -1.687  1.00  0.00    -0.286 OA
BRANCH  24  25
HETATM   25  P   UNL     1      -7.742   1.456  -1.081  1.00  0.00     0.425 P 
HETATM   26  O   UNL     1      -8.804   2.189  -1.500  1.00  0.00    -0.623 OA
HETATM   27  O   UNL     1      -7.459   1.372   0.266  1.00  0.00    -0.623 OA
BRANCH  25  28
HETATM   28  O   UNL     1      -6.497   2.085  -1.754  1.00  0.00    -0.144 OA
BRANCH  28  29
HETATM   29  S   UNL     1      -5.668   3.268  -1.471  1.00  0.00     0.261 S 
HETATM   30  O   UNL     1      -4.686   2.873  -0.757  1.00  0.00    -0.572 OA
HETATM   31  O   UNL     1      -5.216   3.632  -2.614  1.00  0.00    -0.572 OA
HETATM   32  O   UNL     1      -6.346   4.197  -0.909  1.00  0.00    -0.572 OA
ENDBRANCH  28  29
ENDBRANCH  25  28
ENDBRANCH  24  25
ENDBRANCH  23  24
ENDBRANCH   1  23
BRANCH   3  33
HETATM   33  O   UNL     1      -5.594  -2.776  -0.234  1.00  0.00    -0.390 OA
ATOM     34  HO  UNL     1      -5.360  -2.710   0.684  1.00  0.00     0.210 HD
ENDBRANCH   3  33
TORSDOF 9
ENDMDL
MODEL 7
REMARK VINA RESULT:    -8.697      2.478      4.840
REMARK INTER + INTRA:         -13.548
REMARK INTER:                 -12.392
REMARK INTRA:                  -1.156
REMARK UNBOUND:                -1.037
REMARK  9 active torsions:
REMARK  status: ('A' for Active; 'I' for Inactive)
REMARK    1  A    between atoms: S_1  and  O_8 
REMARK    2  A    between atoms: P_5  and  O_8 
REMARK    3  A    between atoms: P_5  and  O_9 
REMARK    4  A    between atoms: O_9  and  C_10 
REMARK    5  A    between atoms: C_10  and  C_11 
REMARK    6  A    between atoms: C_13  and  O_14 
REMARK    7  A    between atoms: C_16  and  O_17 
REMARK    8  A    between atoms: C_19  and  N_20 
REMARK    9  A    between atoms: C_25  and  N_26 
ROOT
HETATM    1  C   UNL     1      -4.065  -1.274  -3.081  1.00  0.00     0.180 C 
HETATM    2  O   UNL     1      -4.291   0.100  -3.166  1.00  0.00    -0.353 OA
HETATM    3  C   UNL     1      -2.531  -1.421  -3.127  1.00  0.00     0.182 C 
HETATM    4  C   UNL     1      -2.043  -0.160  -2.470  1.00  0.00     0.198 C 
HETATM    5  C   UNL     1      -3.078   0.780  -3.028  1.00  0.00     0.262 C 
ENDROOT
BRANCH   5   6
HETATM    6  N   UNL     1      -3.446   2.015  -2.377  1.00  0.00    -0.297 N 
HETATM    7  C   UNL     1      -2.665   2.968  -2.042  1.00  0.00     0.188 A 
HETATM    8  N   UNL     1      -3.296   3.886  -1.392  1.00  0.00    -0.346 N 
HETATM    9  C   UNL     1      -4.540   3.508  -1.258  1.00  0.00     0.122 A 
ATOM     10  HN  UNL     1      -2.894   4.755  -1.043  1.00  0.00     0.167 HD
HETATM   11  C   UNL     1      -5.759   4.016  -0.651  1.00  0.00     0.131 A 
HETATM   12  C   UNL     1      -4.636   2.230  -1.921  1.00  0.00     0.142 A 
HETATM   13  N   UNL     1      -6.862   3.275  -0.778  1.00  0.00    -0.337 N 
HETATM   14  C   UNL     1      -6.884   2.122  -1.401  1.00  0.00     0.183 A 
ATOM     15  HN  UNL     1      -7.730   3.624  -0.372  1.00  0.00     0.168 HD
HETATM   16  N   UNL     1      -5.816   1.604  -1.975  1.00  0.00    -0.336 N 
ATOM     17  HN  UNL     1      -5.891   0.714  -2.468  1.00  0.00     0.168 HD
BRANCH  11  18
HETATM   18  N   UNL     1      -5.769   5.181   0.004  1.00  0.00    -0.383 N 
ATOM     19  HN2 UNL     1      -6.613   5.750   0.068  1.00  0.00     0.157 HD
ATOM     20  HN1 UNL     1      -4.927   5.538   0.457  1.00  0.00     0.157 HD
ENDBRANCH  11  18
ENDBRANCH   5   6
BRANCH   4  21
HETATM   21  O   UNL     1      -0.763   0.231  -2.812  1.00  0.00    -0.388 OA
ATOM     22  HO  UNL     1      -0.253   0.619  -2.110  1.00  0.00     0.210 HD
ENDBRANCH   4  21
BRANCH   1  23
HETATM   23  C   UNL     1      -4.651  -1.894  -1.807  1.00  0.00     0.216 C 
BRANCH  23  24
HETATM   24  O   UNL     1      -5.926  -1.441  -1.458  1.00  0.00    -0.286 OA
BRANCH  24  25
HETATM   25  P   UNL     1      -7.255  -1.914  -2.083  1.00  0.00     0.425 P 
HETATM   26  O   UNL     1      -7.986  -2.513  -1.109  1.00  0.00    -0.623 OA
HETATM   27  O   UNL     1      -7.815  -0.900  -2.831  1.00  0.00    -0.623 OA
BRANCH  25  28
HETATM   28  O   UNL     1      -6.868  -3.035  -3.078  1.00  0.00    -0.144 OA
BRANCH  28  29
HETATM   29  S   UNL     1      -7.626  -4.070  -3.799  1.00  0.00     0.261 S 
HETATM   30  O   UNL     1      -6.888  -4.472  -4.760  1.00  0.00    -0.572 OA
HETATM   31  O   UNL     1      -7.752  -5.030  -2.957  1.00  0.00    -0.572 OA
HETATM   32  O   UNL     1      -8.762  -3.634  -4.196  1.00  0.00    -0.572 OA
ENDBRANCH  28  29
ENDBRANCH  25  28
ENDBRANCH  24  25
ENDBRANCH  23  24
ENDBRANCH   1  23
BRANCH   3  33
HETATM   33  O   UNL     1      -2.126  -1.542  -4.437  1.00  0.00    -0.390 OA
ATOM     34  HO  UNL     1      -2.143  -0.687  -4.850  1.00  0.00     0.210 HD
ENDBRANCH   3  33
TORSDOF 9
ENDMDL
MODEL 8
REMARK VINA RESULT:    -8.657      3.017      5.773
REMARK INTER + INTRA:         -13.491
REMARK INTER:                 -12.718
REMARK INTRA:                  -0.772
REMARK UNBOUND:                -1.037
REMARK  9 active torsions:
REMARK  status: ('A' for Active; 'I' for Inactive)
REMARK    1  A    between atoms: S_1  and  O_8 
REMARK    2  A    between atoms: P_5  and  O_8 
REMARK    3  A    between atoms: P_5  and  O_9 
REMARK    4  A    between atoms: O_9  and  C_10 
REMARK    5  A    between atoms: C_10  and  C_11 
REMARK    6  A    between atoms: C_13  and  O_14 
REMARK    7  A    between atoms: C_16  and  O_17 
REMARK    8  A    between atoms: C_19  and  N_20 
REMARK    9  A    between atoms: C_25  and  N_26 
ROOT
HETATM    1  C   UNL     1      -4.075  -0.789  -3.523  1.00  0.00     0.180 C 
HETATM    2  O   UNL     1      -4.044   0.606  -3.512  1.00  0.00    -0.353 OA
HETATM    3  C   UNL     1      -2.678  -1.215  -3.028  1.00  0.00     0.182 C 
HETATM    4  C   UNL     1      -2.293  -0.107  -2.087  1.00  0.00     0.198 C 
HETATM    5  C   UNL     1      -2.887   1.041  -2.860  1.00  0.00     0.262 C 
ENDROOT
BRANCH   5   6
HETATM    6  N   UNL     1      -3.286   2.281  -2.238  1.00  0.00    -0.297 N 
HETATM    7  C   UNL     1      -2.521   3.234  -1.870  1.00  0.00     0.188 A 
HETATM    8  N   UNL     1      -3.183   4.158  -1.260  1.00  0.00    -0.346 N 
HETATM    9  C   UNL     1      -4.432   3.784  -1.188  1.00  0.00     0.122 A 
ATOM     10  HN  UNL     1      -2.797   5.029  -0.897  1.00  0.00     0.167 HD
HETATM   11  C   UNL     1      -5.680   4.299  -0.648  1.00  0.00     0.131 A 
HETATM   12  C   UNL     1      -4.497   2.502  -1.846  1.00  0.00     0.142 A 
HETATM   13  N   UNL     1      -6.777   3.560  -0.828  1.00  0.00    -0.337 N 
HETATM   14  C   UNL     1      -6.769   2.402  -1.442  1.00  0.00     0.183 A 
ATOM     15  HN  UNL     1      -7.664   3.913  -0.470  1.00  0.00     0.168 HD
HETATM   16  N   UNL     1      -5.674   1.877  -1.957  1.00  0.00    -0.336 N 
ATOM     17  HN  UNL     1      -5.725   0.984  -2.446  1.00  0.00     0.168 HD
BRANCH  11  18
HETATM   18  N   UNL     1      -5.721   5.469  -0.004  1.00  0.00    -0.383 N 
ATOM     19  HN2 UNL     1      -5.373   5.566   0.950  1.00  0.00     0.157 HD
ATOM     20  HN1 UNL     1      -6.108   6.301  -0.450  1.00  0.00     0.157 HD
ENDBRANCH  11  18
ENDBRANCH   5   6
BRANCH   4  21
HETATM   21  O   UNL     1      -0.937   0.060  -1.890  1.00  0.00    -0.388 OA
ATOM     22  HO  UNL     1      -0.393  -0.056  -2.661  1.00  0.00     0.210 HD
ENDBRANCH   4  21
BRANCH   1  23
HETATM   23  C   UNL     1      -5.185  -1.364  -2.636  1.00  0.00     0.216 C 
BRANCH  23  24
HETATM   24  O   UNL     1      -6.484  -0.997  -2.995  1.00  0.00    -0.286 OA
BRANCH  24  25
HETATM   25  P   UNL     1      -7.777  -1.423  -2.270  1.00  0.00     0.425 P 
HETATM   26  O   UNL     1      -8.712  -1.705  -3.212  1.00  0.00    -0.623 OA
HETATM   27  O   UNL     1      -7.490  -2.353  -1.293  1.00  0.00    -0.623 OA
BRANCH  25  28
HETATM   28  O   UNL     1      -8.277  -0.155  -1.538  1.00  0.00    -0.144 OA
BRANCH  28  29
HETATM   29  S   UNL     1      -9.177   0.081  -0.396  1.00  0.00     0.261 S 
HETATM   30  O   UNL     1      -9.653   1.258  -0.533  1.00  0.00    -0.572 OA
HETATM   31  O   UNL     1     -10.130  -0.762  -0.551  1.00  0.00    -0.572 OA
HETATM   32  O   UNL     1      -8.574  -0.082   0.722  1.00  0.00    -0.572 OA
ENDBRANCH  28  29
ENDBRANCH  25  28
ENDBRANCH  24  25
ENDBRANCH  23  24
ENDBRANCH   1  23
BRANCH   3  33
HETATM   33  O   UNL     1      -1.830  -1.329  -4.106  1.00  0.00    -0.390 OA
ATOM     34  HO  UNL     1      -1.940  -0.575  -4.673  1.00  0.00     0.210 HD
ENDBRANCH   3  33
TORSDOF 9
ENDMDL
MODEL 9
REMARK VINA RESULT:    -8.654      3.343      4.527
REMARK INTER + INTRA:         -13.486
REMARK INTER:                 -12.276
REMARK INTRA:                  -1.211
REMARK UNBOUND:                -1.037
REMARK  9 active torsions:
REMARK  status: ('A' for Active; 'I' for Inactive)
REMARK    1  A    between atoms: S_1  and  O_8 
REMARK    2  A    between atoms: P_5  and  O_8 
REMARK    3  A    between atoms: P_5  and  O_9 
REMARK    4  A    between atoms: O_9  and  C_10 
REMARK    5  A    between atoms: C_10  and  C_11 
REMARK    6  A    between atoms: C_13  and  O_14 
REMARK    7  A    between atoms: C_16  and  O_17 
REMARK    8  A    between atoms: C_19  and  N_20 
REMARK    9  A    between atoms: C_25  and  N_26 
ROOT
HETATM    1  C   UNL     1      -6.147  -2.247  -2.595  1.00  0.00     0.180 C 
HETATM    2  O   UNL     1      -5.845  -0.900  -2.399  1.00  0.00    -0.353 OA
HETATM    3  C   UNL     1      -6.269  -2.833  -1.174  1.00  0.00     0.182 C 
HETATM    4  C   UNL     1      -6.781  -1.673  -0.366  1.00  0.00     0.198 C 
HETATM    5  C   UNL     1      -5.998  -0.581  -1.047  1.00  0.00     0.262 C 
ENDROOT
BRANCH   5   6
HETATM    6  N   UNL     1      -6.427   0.797  -1.063  1.00  0.00    -0.297 N 
HETATM    7  C   UNL     1      -7.629   1.226  -1.055  1.00  0.00     0.188 A 
HETATM    8  N   UNL     1      -7.670   2.510  -1.172  1.00  0.00    -0.346 N 
HETATM    9  C   UNL     1      -6.445   2.947  -1.300  1.00  0.00     0.122 A 
ATOM     10  HN  UNL     1      -8.512   3.084  -1.166  1.00  0.00     0.167 HD
HETATM   11  C   UNL     1      -5.771   4.221  -1.481  1.00  0.00     0.131 A 
HETATM   12  C   UNL     1      -5.602   1.777  -1.235  1.00  0.00     0.142 A 
HETATM   13  N   UNL     1      -4.438   4.206  -1.545  1.00  0.00    -0.337 N 
HETATM   14  C   UNL     1      -3.729   3.106  -1.473  1.00  0.00     0.183 A 
ATOM     15  HN  UNL     1      -3.947   5.094  -1.656  1.00  0.00     0.168 HD
HETATM   16  N   UNL     1      -4.275   1.918  -1.308  1.00  0.00    -0.336 N 
ATOM     17  HN  UNL     1      -3.677   1.095  -1.234  1.00  0.00     0.168 HD
BRANCH  11  18
HETATM   18  N   UNL     1      -6.464   5.360  -1.573  1.00  0.00    -0.383 N 
ATOM     19  HN2 UNL     1      -7.423   5.431  -1.234  1.00  0.00     0.157 HD
ATOM     20  HN1 UNL     1      -6.051   6.195  -1.990  1.00  0.00     0.157 HD
ENDBRANCH  11  18
ENDBRANCH   5   6
BRANCH   4  21
HETATM   21  O   UNL     1      -6.510  -1.725   0.987  1.00  0.00    -0.388 OA
ATOM     22  HO  UNL     1      -6.592  -0.901   1.453  1.00  0.00     0.210 HD
ENDBRANCH   4  21
BRANCH   1  23
HETATM   23  C   UNL     1      -7.436  -2.455  -3.400  1.00  0.00     0.216 C 
BRANCH  23  24
HETATM   24  O   UNL     1      -8.007  -3.725  -3.292  1.00  0.00    -0.286 OA
BRANCH  24  25
HETATM   25  P   UNL     1      -7.534  -4.994  -4.030  1.00  0.00     0.425 P 
HETATM   26  O   UNL     1      -8.623  -5.764  -4.280  1.00  0.00    -0.623 OA
HETATM   27  O   UNL     1      -6.686  -4.655  -5.063  1.00  0.00    -0.623 OA
BRANCH  25  28
HETATM   28  O   UNL     1      -6.684  -5.778  -3.001  1.00  0.00    -0.144 OA
BRANCH  28  29
HETATM   29  S   UNL     1      -5.305  -6.293  -2.993  1.00  0.00     0.261 S 
HETATM   30  O   UNL     1      -4.529  -5.282  -2.915  1.00  0.00    -0.572 OA
HETATM   31  O   UNL     1      -5.211  -6.961  -1.902  1.00  0.00    -0.572 OA
HETATM   32  O   UNL     1      -5.067  -7.022  -4.018  1.00  0.00    -0.572 OA
ENDBRANCH  28  29
ENDBRANCH  25  28
ENDBRANCH  24  25
ENDBRANCH  23  24
ENDBRANCH   1  23
BRANCH   3  33
HETATM   33  O   UNL     1      -5.034  -3.278  -0.760  1.00  0.00    -0.390 OA
ATOM     34  HO  UNL     1      -4.611  -3.739  -1.475  1.00  0.00     0.210 HD
ENDBRANCH   3  33
TORSDOF 9
ENDMDL
MODEL 10
REMARK VINA RESULT:    -8.466      3.175      4.363
REMARK INTER + INTRA:         -13.216
REMARK INTER:                 -11.937
REMARK INTRA:                  -1.279
REMARK UNBOUND:                -1.037
REMARK  9 active torsions:
REMARK  status: ('A' for Active; 'I' for Inactive)
REMARK    1  A    between atoms: S_1  and  O_8 
REMARK    2  A    between atoms: P_5  and  O_8 
REMARK    3  A    between atoms: P_5  and  O_9 
REMARK    4  A    between atoms: O_9  and  C_10 
REMARK    5  A    between atoms: C_10  and  C_11 
REMARK    6  A    between atoms: C_13  and  O_14 
REMARK    7  A    between atoms: C_16  and  O_17 
REMARK    8  A    between atoms: C_19  and  N_20 
REMARK    9  A    between atoms: C_25  and  N_26 
ROOT
HETATM    1  C   UNL     1      -5.789  -2.908  -1.489  1.00  0.00     0.180 C 
HETATM    2  O   UNL     1      -5.956  -1.714  -0.787  1.00  0.00    -0.353 OA
HETATM    3  C   UNL     1      -6.979  -2.956  -2.468  1.00  0.00     0.182 C 
HETATM    4  C   UNL     1      -7.240  -1.505  -2.765  1.00  0.00     0.198 C 
HETATM    5  C   UNL     1      -6.964  -0.957  -1.390  1.00  0.00     0.262 C 
ENDROOT
BRANCH   5   6
HETATM    6  N   UNL     1      -6.557   0.408  -1.158  1.00  0.00    -0.297 N 
HETATM    7  C   UNL     1      -7.293   1.370  -0.756  1.00  0.00     0.188 A 
HETATM    8  N   UNL     1      -6.644   2.485  -0.745  1.00  0.00    -0.346 N 
HETATM    9  C   UNL     1      -5.438   2.259  -1.193  1.00  0.00     0.122 A 
ATOM     10  HN  UNL     1      -7.010   3.386  -0.439  1.00  0.00     0.167 HD
HETATM   11  C   UNL     1      -4.228   3.020  -1.455  1.00  0.00     0.131 A 
HETATM   12  C   UNL     1      -5.385   0.846  -1.482  1.00  0.00     0.142 A 
HETATM   13  N   UNL     1      -3.169   2.349  -1.914  1.00  0.00    -0.337 N 
HETATM   14  C   UNL     1      -3.185   1.060  -2.151  1.00  0.00     0.183 A 
ATOM     15  HN  UNL     1      -2.306   2.864  -2.089  1.00  0.00     0.168 HD
HETATM   16  N   UNL     1      -4.247   0.309  -1.934  1.00  0.00    -0.336 N 
ATOM     17  HN  UNL     1      -4.200  -0.694  -2.112  1.00  0.00     0.168 HD
BRANCH  11  18
HETATM   18  N   UNL     1      -4.182   4.337  -1.238  1.00  0.00    -0.383 N 
ATOM     19  HN2 UNL     1      -4.832   4.797  -0.602  1.00  0.00     0.157 HD
ATOM     20  HN1 UNL     1      -3.492   4.924  -1.709  1.00  0.00     0.157 HD
ENDBRANCH  11  18
ENDBRANCH   5   6
BRANCH   4  21
HETATM   21  O   UNL     1      -8.521  -1.206  -3.184  1.00  0.00    -0.388 OA
ATOM     22  HO  UNL     1      -8.829  -0.333  -2.967  1.00  0.00     0.210 HD
ENDBRANCH   4  21
BRANCH   1  23
HETATM   23  C   UNL     1      -4.448  -2.977  -2.230  1.00  0.00     0.216 C 
BRANCH  23  24
HETATM   24  O   UNL     1      -4.191  -4.185  -2.882  1.00  0.00    -0.286 OA
BRANCH  24  25
HETATM   25  P   UNL     1      -4.080  -5.570  -2.209  1.00  0.00     0.425 P 
HETATM   26  O   UNL     1      -3.242  -6.332  -2.955  1.00  0.00    -0.623 OA
HETATM   27  O   UNL     1      -3.850  -5.424  -0.857  1.00  0.00    -0.623 OA
BRANCH  25  28
HETATM   28  O   UNL     1      -5.482  -6.211  -2.350  1.00  0.00    -0.144 OA
BRANCH  28  29
HETATM   29  S   UNL     1      -6.358  -6.515  -3.494  1.00  0.00     0.261 S 
HETATM   30  O   UNL     1      -6.184  -7.747  -3.780  1.00  0.00    -0.572 OA
HETATM   31  O   UNL     1      -7.549  -6.368  -3.042  1.00  0.00    -0.572 OA
HETATM   32  O   UNL     1      -6.127  -5.739  -4.485  1.00  0.00    -0.572 OA
ENDBRANCH  28  29
ENDBRANCH  25  28
ENDBRANCH  24  25
ENDBRANCH  23  24
ENDBRANCH   1  23
BRANCH   3  33
HETATM   33  O   UNL     1      -8.042  -3.585  -1.860  1.00  0.00    -0.390 OA
ATOM     34  HO  UNL     1      -8.718  -3.750  -2.505  1.00  0.00     0.210 HD
ENDBRANCH   3  33
TORSDOF 9
ENDMDL
MODEL 11
REMARK VINA RESULT:    -8.439      3.998      5.446
REMARK INTER + INTRA:         -13.177
REMARK INTER:                 -11.838
REMARK INTRA:                  -1.339
REMARK UNBOUND:                -1.037
REMARK  9 active torsions:
REMARK  status: ('A' for Active; 'I' for Inactive)
REMARK    1  A    between atoms: S_1  and  O_8 
REMARK    2  A    between atoms: P_5  and  O_8 
REMARK    3  A    between atoms: P_5  and  O_9 
REMARK    4  A    between atoms: O_9  and  C_10 
REMARK    5  A    between atoms: C_10  and  C_11 
REMARK    6  A    between atoms: C_13  and  O_14 
REMARK    7  A    between atoms: C_16  and  O_17 
REMARK    8  A    between atoms: C_19  and  N_20 
REMARK    9  A    between atoms: C_25  and  N_26 
ROOT
HETATM    1  C   UNL     1      -6.606  -1.091   0.172  1.00  0.00     0.180 C 
HETATM    2  O   UNL     1      -5.422  -0.369   0.021  1.00  0.00    -0.353 OA
HETATM    3  C   UNL     1      -7.714  -0.129  -0.300  1.00  0.00     0.182 C 
HETATM    4  C   UNL     1      -7.029   0.696  -1.352  1.00  0.00     0.198 C 
HETATM    5  C   UNL     1      -5.682   0.806  -0.689  1.00  0.00     0.262 C 
ENDROOT
BRANCH   5   6
HETATM    6  N   UNL     1      -4.463   1.041  -1.425  1.00  0.00    -0.297 N 
HETATM    7  C   UNL     1      -3.897   2.166  -1.632  1.00  0.00     0.188 A 
HETATM    8  N   UNL     1      -2.875   2.042  -2.410  1.00  0.00    -0.346 N 
HETATM    9  C   UNL     1      -2.781   0.788  -2.762  1.00  0.00     0.122 A 
ATOM     10  HN  UNL     1      -2.249   2.793  -2.699  1.00  0.00     0.167 HD
HETATM   11  C   UNL     1      -1.920  -0.034  -3.596  1.00  0.00     0.131 A 
HETATM   12  C   UNL     1      -3.869   0.111  -2.098  1.00  0.00     0.142 A 
HETATM   13  N   UNL     1      -2.190  -1.340  -3.657  1.00  0.00    -0.337 N 
HETATM   14  C   UNL     1      -3.194  -1.895  -3.022  1.00  0.00     0.183 A 
ATOM     15  HN  UNL     1      -1.586  -1.935  -4.224  1.00  0.00     0.168 HD
HETATM   16  N   UNL     1      -4.012  -1.210  -2.248  1.00  0.00    -0.336 N 
ATOM     17  HN  UNL     1      -4.764  -1.694  -1.757  1.00  0.00     0.168 HD
BRANCH  11  18
HETATM   18  N   UNL     1      -0.897   0.501  -4.268  1.00  0.00    -0.383 N 
ATOM     19  HN2 UNL     1      -0.990   0.790  -5.242  1.00  0.00     0.157 HD
ATOM     20  HN1 UNL     1       0.013   0.634  -3.824  1.00  0.00     0.157 HD
ENDBRANCH  11  18
ENDBRANCH   5   6
BRANCH   4  21
HETATM   21  O   UNL     1      -7.583   1.940  -1.587  1.00  0.00    -0.388 OA
ATOM     22  HO  UNL     1      -7.438   2.294  -2.457  1.00  0.00     0.210 HD
ENDBRANCH   4  21
BRANCH   1  23
HETATM   23  C   UNL     1      -6.613  -2.395  -0.635  1.00  0.00     0.216 C 
BRANCH  23  24
HETATM   24  O   UNL     1      -7.718  -2.571  -1.471  1.00  0.00    -0.286 OA
BRANCH  24  25
HETATM   25  P   UNL     1      -7.681  -2.659  -3.011  1.00  0.00     0.425 P 
HETATM   26  O   UNL     1      -8.798  -2.059  -3.493  1.00  0.00    -0.623 OA
HETATM   27  O   UNL     1      -6.442  -2.272  -3.479  1.00  0.00    -0.623 OA
BRANCH  25  28
HETATM   28  O   UNL     1      -7.826  -4.164  -3.342  1.00  0.00    -0.144 OA
BRANCH  28  29
HETATM   29  S   UNL     1      -7.424  -5.005  -4.481  1.00  0.00     0.261 S 
HETATM   30  O   UNL     1      -6.301  -5.532  -4.177  1.00  0.00    -0.572 OA
HETATM   31  O   UNL     1      -8.306  -5.934  -4.530  1.00  0.00    -0.572 OA
HETATM   32  O   UNL     1      -7.377  -4.335  -5.570  1.00  0.00    -0.572 OA
ENDBRANCH  28  29
ENDBRANCH  25  28
ENDBRANCH  24  25
ENDBRANCH  23  24
ENDBRANCH   1  23
BRANCH   3  33
HETATM   33  O   UNL     1      -8.155   0.616   0.771  1.00  0.00    -0.390 OA
ATOM     34  HO  UNL     1      -8.839   1.207   0.481  1.00  0.00     0.210 HD
ENDBRANCH   3  33
TORSDOF 9
ENDMDL
MODEL 12
REMARK VINA RESULT:    -8.308      4.970      7.642
REMARK INTER + INTRA:         -12.988
REMARK INTER:                 -12.171
REMARK INTRA:                  -0.817
REMARK UNBOUND:                -1.037
REMARK  9 active torsions:
REMARK  status: ('A' for Active; 'I' for Inactive)
REMARK    1  A    between atoms: S_1  and  O_8 
REMARK    2  A    between atoms: P_5  and  O_8 
REMARK    3  A    between atoms: P_5  and  O_9 
REMARK    4  A    between atoms: O_9  and  C_10 
REMARK    5  A    between atoms: C_10  and  C_11 
REMARK    6  A    between atoms: C_13  and  O_14 
REMARK    7  A    between atoms: C_16  and  O_17 
REMARK    8  A    between atoms: C_19  and  N_20 
REMARK    9  A    between atoms: C_25  and  N_26 
ROOT
HETATM    1  C   UNL     1      -7.391  -0.975  -0.963  1.00  0.00     0.180 C 
HETATM    2  O   UNL     1      -8.021  -1.910  -1.784  1.00  0.00    -0.353 OA
HETATM    3  C   UNL     1      -6.135  -1.699  -0.438  1.00  0.00     0.182 C 
HETATM    4  C   UNL     1      -5.776  -2.627  -1.564  1.00  0.00     0.198 C 
HETATM    5  C   UNL     1      -7.173  -3.003  -1.980  1.00  0.00     0.262 C 
ENDROOT
BRANCH   5   6
HETATM    6  N   UNL     1      -7.498  -3.459  -3.311  1.00  0.00    -0.297 N 
HETATM    7  C   UNL     1      -8.305  -2.910  -4.134  1.00  0.00     0.188 A 
HETATM    8  N   UNL     1      -8.444  -3.622  -5.200  1.00  0.00    -0.346 N 
HETATM    9  C   UNL     1      -7.729  -4.706  -5.063  1.00  0.00     0.122 A 
ATOM     10  HN  UNL     1      -9.015  -3.380  -6.010  1.00  0.00     0.167 HD
HETATM   11  C   UNL     1      -7.436  -5.906  -5.828  1.00  0.00     0.131 A 
HETATM   12  C   UNL     1      -7.093  -4.596  -3.772  1.00  0.00     0.142 A 
HETATM   13  N   UNL     1      -6.591  -6.788  -5.288  1.00  0.00    -0.337 N 
HETATM   14  C   UNL     1      -6.042  -6.625  -4.109  1.00  0.00     0.183 A 
ATOM     15  HN  UNL     1      -6.362  -7.628  -5.818  1.00  0.00     0.168 HD
HETATM   16  N   UNL     1      -6.262  -5.560  -3.363  1.00  0.00    -0.336 N 
ATOM     17  HN  UNL     1      -5.791  -5.470  -2.463  1.00  0.00     0.168 HD
BRANCH  11  18
HETATM   18  N   UNL     1      -7.989  -6.111  -7.027  1.00  0.00    -0.383 N 
ATOM     19  HN2 UNL     1      -8.986  -5.966  -7.187  1.00  0.00     0.157 HD
ATOM     20  HN1 UNL     1      -7.428  -6.424  -7.819  1.00  0.00     0.157 HD
ENDBRANCH  11  18
ENDBRANCH   5   6
BRANCH   4  21
HETATM   21  O   UNL     1      -5.034  -3.736  -1.207  1.00  0.00    -0.388 OA
ATOM     22  HO  UNL     1      -4.159  -3.557  -0.885  1.00  0.00     0.210 HD
ENDBRANCH   4  21
BRANCH   1  23
HETATM   23  C   UNL     1      -7.026   0.316  -1.705  1.00  0.00     0.216 C 
BRANCH  23  24
HETATM   24  O   UNL     1      -5.705   0.742  -1.544  1.00  0.00    -0.286 OA
BRANCH  24  25
HETATM   25  P   UNL     1      -5.187   2.180  -1.754  1.00  0.00     0.425 P 
HETATM   26  O   UNL     1      -4.207   2.409  -0.844  1.00  0.00    -0.623 OA
HETATM   27  O   UNL     1      -4.942   2.406  -3.092  1.00  0.00    -0.623 OA
BRANCH  25  28
HETATM   28  O   UNL     1      -6.363   3.105  -1.359  1.00  0.00    -0.144 OA
BRANCH  28  29
HETATM   29  S   UNL     1      -6.517   4.562  -1.216  1.00  0.00     0.261 S 
HETATM   30  O   UNL     1      -6.025   5.094  -2.268  1.00  0.00    -0.572 OA
HETATM   31  O   UNL     1      -7.784   4.760  -1.218  1.00  0.00    -0.572 OA
HETATM   32  O   UNL     1      -5.970   4.992  -0.142  1.00  0.00    -0.572 OA
ENDBRANCH  28  29
ENDBRANCH  25  28
ENDBRANCH  24  25
ENDBRANCH  23  24
ENDBRANCH   1  23
BRANCH   3  33
HETATM   33  O   UNL     1      -6.446  -2.359   0.730  1.00  0.00    -0.390 OA
ATOM     34  HO  UNL     1      -5.955  -1.977   1.446  1.00  0.00     0.210 HD
ENDBRANCH   3  33
TORSDOF 9
ENDMDL
MODEL 13
REMARK VINA RESULT:    -8.293      4.155      6.395
REMARK INTER + INTRA:         -12.967
REMARK INTER:                 -11.693
REMARK INTRA:                  -1.274
REMARK UNBOUND:                -1.037
REMARK  9 active torsions:
REMARK  status: ('A' for Active; 'I' for Inactive)
REMARK    1  A    between atoms: S_1  and  O_8 
REMARK    2  A    between atoms: P_5  and  O_8 
REMARK    3  A    between atoms: P_5  and  O_9 
REMARK    4  A    between atoms: O_9  and  C_10 
REMARK    5  A    between atoms: C_10  and  C_11 
REMARK    6  A    between atoms: C_13  and  O_14 
REMARK    7  A    between atoms: C_16  and  O_17 
REMARK    8  A    between atoms: C_19  and  N_20 
REMARK    9  A    between atoms: C_25  and  N_26 
ROOT
HETATM    1  C   UNL     1      -5.304   0.187  -0.396  1.00  0.00     0.180 C 
HETATM    2  O   UNL     1      -4.118  -0.403  -0.833  1.00  0.00    -0.353 OA
HETATM    3  C   UNL     1      -5.461   1.445  -1.272  1.00  0.00     0.182 C 
HETATM    4  C   UNL     1      -4.818   1.044  -2.570  1.00  0.00     0.198 C 
HETATM    5  C   UNL     1      -3.686   0.230  -2.001  1.00  0.00     0.262 C 
ENDROOT
BRANCH   5   6
HETATM    6  N   UNL     1      -3.027  -0.820  -2.741  1.00  0.00    -0.297 N 
HETATM    7  C   UNL     1      -3.195  -2.077  -2.601  1.00  0.00     0.188 A 
HETATM    8  N   UNL     1      -2.383  -2.745  -3.349  1.00  0.00    -0.346 N 
HETATM    9  C   UNL     1      -1.620  -1.895  -3.983  1.00  0.00     0.122 A 
ATOM     10  HN  UNL     1      -2.343  -3.760  -3.430  1.00  0.00     0.167 HD
HETATM   11  C   UNL     1      -0.524  -1.935  -4.936  1.00  0.00     0.131 A 
HETATM   12  C   UNL     1      -2.055  -0.585  -3.559  1.00  0.00     0.142 A 
HETATM   13  N   UNL     1      -0.032  -0.768  -5.355  1.00  0.00    -0.337 N 
HETATM   14  C   UNL     1      -0.478   0.391  -4.935  1.00  0.00     0.183 A 
ATOM     15  HN  UNL     1       0.727  -0.777  -6.036  1.00  0.00     0.168 HD
HETATM   16  N   UNL     1      -1.470   0.501  -4.073  1.00  0.00    -0.336 N 
ATOM     17  HN  UNL     1      -1.795   1.427  -3.796  1.00  0.00     0.168 HD
BRANCH  11  18
HETATM   18  N   UNL     1      -0.036  -3.099  -5.375  1.00  0.00    -0.383 N 
ATOM     19  HN2 UNL     1      -0.551  -3.679  -6.037  1.00  0.00     0.157 HD
ATOM     20  HN1 UNL     1       0.870  -3.444  -5.055  1.00  0.00     0.157 HD
ENDBRANCH  11  18
ENDBRANCH   5   6
BRANCH   4  21
HETATM   21  O   UNL     1      -4.354   2.085  -3.350  1.00  0.00    -0.388 OA
ATOM     22  HO  UNL     1      -4.023   1.839  -4.206  1.00  0.00     0.210 HD
ENDBRANCH   4  21
BRANCH   1  23
HETATM   23  C   UNL     1      -6.514  -0.745  -0.529  1.00  0.00     0.216 C 
BRANCH  23  24
HETATM   24  O   UNL     1      -6.394  -1.740  -1.502  1.00  0.00    -0.286 OA
BRANCH  24  25
HETATM   25  P   UNL     1      -7.245  -1.859  -2.783  1.00  0.00     0.425 P 
HETATM   26  O   UNL     1      -8.415  -1.206  -2.572  1.00  0.00    -0.623 OA
HETATM   27  O   UNL     1      -6.482  -1.552  -3.891  1.00  0.00    -0.623 OA
BRANCH  25  28
HETATM   28  O   UNL     1      -7.608  -3.359  -2.900  1.00  0.00    -0.144 OA
BRANCH  28  29
HETATM   29  S   UNL     1      -6.984  -4.515  -3.566  1.00  0.00     0.261 S 
HETATM   30  O   UNL     1      -7.541  -5.562  -3.095  1.00  0.00    -0.572 OA
HETATM   31  O   UNL     1      -7.314  -4.400  -4.799  1.00  0.00    -0.572 OA
HETATM   32  O   UNL     1      -5.713  -4.519  -3.412  1.00  0.00    -0.572 OA
ENDBRANCH  28  29
ENDBRANCH  25  28
ENDBRANCH  24  25
ENDBRANCH  23  24
ENDBRANCH   1  23
BRANCH   3  33
HETATM   33  O   UNL     1      -4.831   2.506  -0.660  1.00  0.00    -0.390 OA
ATOM     34  HO  UNL     1      -5.441   3.229  -0.581  1.00  0.00     0.210 HD
ENDBRANCH   3  33
TORSDOF 9
ENDMDL
MODEL 14
REMARK VINA RESULT:    -8.224      2.915      5.222
REMARK INTER + INTRA:         -12.867
REMARK INTER:                 -11.436
REMARK INTRA:                  -1.431
REMARK UNBOUND:                -1.037
REMARK  9 active torsions:
REMARK  status: ('A' for Active; 'I' for Inactive)
REMARK    1  A    between atoms: S_1  and  O_8 
REMARK    2  A    between atoms: P_5  and  O_8 
REMARK    3  A    between atoms: P_5  and  O_9 
REMARK    4  A    between atoms: O_9  and  C_10 
REMARK    5  A    between atoms: C_10  and  C_11 
REMARK    6  A    between atoms: C_13  and  O_14 
REMARK    7  A    between atoms: C_16  and  O_17 
REMARK    8  A    between atoms: C_19  and  N_20 
REMARK    9  A    between atoms: C_25  and  N_26 
ROOT
HETATM    1  C   UNL     1      -4.726   0.656  -1.709  1.00  0.00     0.180 C 
HETATM    2  O   UNL     1      -5.565  -0.033  -2.585  1.00  0.00    -0.353 OA
HETATM    3  C   UNL     1      -5.511   0.716  -0.383  1.00  0.00     0.182 C 
HETATM    4  C   UNL     1      -6.316  -0.553  -0.401  1.00  0.00     0.198 C 
HETATM    5  C   UNL     1      -6.637  -0.576  -1.873  1.00  0.00     0.262 C 
ENDROOT
BRANCH   5   6
HETATM    6  N   UNL     1      -6.947  -1.792  -2.587  1.00  0.00    -0.297 N 
HETATM    7  C   UNL     1      -8.021  -2.054  -3.224  1.00  0.00     0.188 A 
HETATM    8  N   UNL     1      -8.020  -3.265  -3.669  1.00  0.00    -0.346 N 
HETATM    9  C   UNL     1      -6.915  -3.841  -3.279  1.00  0.00     0.122 A 
ATOM     10  HN  UNL     1      -8.755  -3.697  -4.229  1.00  0.00     0.167 HD
HETATM   11  C   UNL     1      -6.281  -5.143  -3.397  1.00  0.00     0.131 A 
HETATM   12  C   UNL     1      -6.191  -2.839  -2.535  1.00  0.00     0.142 A 
HETATM   13  N   UNL     1      -5.080  -5.294  -2.833  1.00  0.00    -0.337 N 
HETATM   14  C   UNL     1      -4.472  -4.339  -2.174  1.00  0.00     0.183 A 
ATOM     15  HN  UNL     1      -4.613  -6.197  -2.920  1.00  0.00     0.168 HD
HETATM   16  N   UNL     1      -4.989  -3.134  -2.030  1.00  0.00    -0.336 N 
ATOM     17  HN  UNL     1      -4.464  -2.418  -1.528  1.00  0.00     0.168 HD
BRANCH  11  18
HETATM   18  N   UNL     1      -6.879  -6.144  -4.050  1.00  0.00    -0.383 N 
ATOM     19  HN2 UNL     1      -6.989  -7.066  -3.629  1.00  0.00     0.157 HD
ATOM     20  HN1 UNL     1      -7.241  -6.014  -4.995  1.00  0.00     0.157 HD
ENDBRANCH  11  18
ENDBRANCH   5   6
BRANCH   4  21
HETATM   21  O   UNL     1      -7.463  -0.541   0.369  1.00  0.00    -0.388 OA
ATOM     22  HO  UNL     1      -8.279  -0.624  -0.111  1.00  0.00     0.210 HD
ENDBRANCH   4  21
BRANCH   1  23
HETATM   23  C   UNL     1      -3.366  -0.028  -1.527  1.00  0.00     0.216 C 
BRANCH  23  24
HETATM   24  O   UNL     1      -2.412   0.279  -2.500  1.00  0.00    -0.286 OA
BRANCH  24  25
HETATM   25  P   UNL     1      -2.037  -0.606  -3.708  1.00  0.00     0.425 P 
HETATM   26  O   UNL     1      -2.782  -1.738  -3.646  1.00  0.00    -0.623 OA
HETATM   27  O   UNL     1      -2.033   0.146  -4.864  1.00  0.00    -0.623 OA
BRANCH  25  28
HETATM   28  O   UNL     1      -0.573  -1.042  -3.461  1.00  0.00    -0.144 OA
BRANCH  28  29
HETATM   29  S   UNL     1       0.503  -1.553  -4.326  1.00  0.00     0.261 S 
HETATM   30  O   UNL     1       1.051  -0.541  -4.878  1.00  0.00    -0.572 OA
HETATM   31  O   UNL     1       1.348  -2.082  -3.520  1.00  0.00    -0.572 OA
HETATM   32  O   UNL     1       0.062  -2.402  -5.177  1.00  0.00    -0.572 OA
ENDBRANCH  28  29
ENDBRANCH  25  28
ENDBRANCH  24  25
ENDBRANCH  23  24
ENDBRANCH   1  23
BRANCH   3  33
HETATM   33  O   UNL     1      -6.289   1.852  -0.366  1.00  0.00    -0.390 OA
ATOM     34  HO  UNL     1      -5.822   2.557  -0.797  1.00  0.00     0.210 HD
ENDBRANCH   3  33
TORSDOF 9
ENDMDL
MODEL 15
REMARK VINA RESULT:    -8.214      3.685      5.315
REMARK INTER + INTRA:         -12.853
REMARK INTER:                 -12.023
REMARK INTRA:                  -0.829
REMARK UNBOUND:                -1.037
REMARK  9 active torsions:
REMARK  status: ('A' for Active; 'I' for Inactive)
REMARK    1  A    between atoms: S_1  and  O_8 
REMARK    2  A    between atoms: P_5  and  O_8 
REMARK    3  A    between atoms: P_5  and  O_9 
REMARK    4  A    between atoms: O_9  and  C_10 
REMARK    5  A    between atoms: C_10  and  C_11 
REMARK    6  A    between atoms: C_13  and  O_14 
REMARK    7  A    between atoms: C_16  and  O_17 
REMARK    8  A    between atoms: C_19  and  N_20 
REMARK    9  A    between atoms: C_25  and  N_26 
ROOT
HETATM    1  C   UNL     1      -5.822  -2.274  -2.472  1.00  0.00     0.180 C 
HETATM    2  O   UNL     1      -5.560  -0.926  -2.227  1.00  0.00    -0.353 OA
HETATM    3  C   UNL     1      -6.029  -2.892  -1.075  1.00  0.00     0.182 C 
HETATM    4  C   UNL     1      -6.617  -1.760  -0.280  1.00  0.00     0.198 C 
HETATM    5  C   UNL     1      -5.811  -0.640  -0.882  1.00  0.00     0.262 C 
ENDROOT
BRANCH   5   6
HETATM    6  N   UNL     1      -6.264   0.730  -0.899  1.00  0.00    -0.297 N 
HETATM    7  C   UNL     1      -7.472   1.139  -0.832  1.00  0.00     0.188 A 
HETATM    8  N   UNL     1      -7.542   2.420  -0.970  1.00  0.00    -0.346 N 
HETATM    9  C   UNL     1      -6.334   2.875  -1.173  1.00  0.00     0.122 A 
ATOM     10  HN  UNL     1      -8.393   2.980  -0.927  1.00  0.00     0.167 HD
HETATM   11  C   UNL     1      -5.694   4.157  -1.413  1.00  0.00     0.131 A 
HETATM   12  C   UNL     1      -5.468   1.721  -1.134  1.00  0.00     0.142 A 
HETATM   13  N   UNL     1      -4.366   4.163  -1.551  1.00  0.00    -0.337 N 
HETATM   14  C   UNL     1      -3.635   3.077  -1.499  1.00  0.00     0.183 A 
ATOM     15  HN  UNL     1      -3.898   5.056  -1.704  1.00  0.00     0.168 HD
HETATM   16  N   UNL     1      -4.150   1.882  -1.282  1.00  0.00    -0.336 N 
ATOM     17  HN  UNL     1      -3.534   1.071  -1.227  1.00  0.00     0.168 HD
BRANCH  11  18
HETATM   18  N   UNL     1      -6.411   5.282  -1.486  1.00  0.00    -0.383 N 
ATOM     19  HN2 UNL     1      -5.966   6.192  -1.607  1.00  0.00     0.157 HD
ATOM     20  HN1 UNL     1      -7.429   5.263  -1.421  1.00  0.00     0.157 HD
ENDBRANCH  11  18
ENDBRANCH   5   6
BRANCH   4  21
HETATM   21  O   UNL     1      -6.438  -1.838   1.087  1.00  0.00    -0.388 OA
ATOM     22  HO  UNL     1      -7.162  -1.517   1.613  1.00  0.00     0.210 HD
ENDBRANCH   4  21
BRANCH   1  23
HETATM   23  C   UNL     1      -7.048  -2.486  -3.367  1.00  0.00     0.216 C 
BRANCH  23  24
HETATM   24  O   UNL     1      -6.903  -3.467  -4.351  1.00  0.00    -0.286 OA
BRANCH  24  25
HETATM   25  P   UNL     1      -7.166  -4.976  -4.169  1.00  0.00     0.425 P 
HETATM   26  O   UNL     1      -5.986  -5.628  -4.315  1.00  0.00    -0.623 OA
HETATM   27  O   UNL     1      -7.930  -5.192  -3.041  1.00  0.00    -0.623 OA
BRANCH  25  28
HETATM   28  O   UNL     1      -8.039  -5.392  -5.378  1.00  0.00    -0.144 OA
BRANCH  28  29
HETATM   29  S   UNL     1      -8.947  -6.519  -5.645  1.00  0.00     0.261 S 
HETATM   30  O   UNL     1      -9.341  -6.403  -6.854  1.00  0.00    -0.572 OA
HETATM   31  O   UNL     1      -8.208  -7.564  -5.558  1.00  0.00    -0.572 OA
HETATM   32  O   UNL     1      -9.917  -6.553  -4.810  1.00  0.00    -0.572 OA
ENDBRANCH  28  29
ENDBRANCH  25  28
ENDBRANCH  24  25
ENDBRANCH  23  24
ENDBRANCH   1  23
BRANCH   3  33
HETATM   33  O   UNL     1      -4.816  -3.325  -0.586  1.00  0.00    -0.390 OA
ATOM     34  HO  UNL     1      -4.593  -2.821   0.187  1.00  0.00     0.210 HD
ENDBRANCH   3  33
TORSDOF 9
ENDMDL
MODEL 16
REMARK VINA RESULT:    -8.209      3.579      5.212
REMARK INTER + INTRA:         -12.846
REMARK INTER:                 -11.539
REMARK INTRA:                  -1.308
REMARK UNBOUND:                -1.037
REMARK  9 active torsions:
REMARK  status: ('A' for Active; 'I' for Inactive)
REMARK    1  A    between atoms: S_1  and  O_8 
REMARK    2  A    between atoms: P_5  and  O_8 
REMARK    3  A    between atoms: P_5  and  O_9 
REMARK    4  A    between atoms: O_9  and  C_10 
REMARK    5  A    between atoms: C_10  and  C_11 
REMARK    6  A    between atoms: C_13  and  O_14 
REMARK    7  A    between atoms: C_16  and  O_17 
REMARK    8  A    between atoms: C_19  and  N_20 
REMARK    9  A    between atoms: C_25  and  N_26 
ROOT
HETATM    1  C   UNL     1      -7.146  -1.331  -1.226  1.00  0.00     0.180 C 
HETATM    2  O   UNL     1      -5.792  -1.013  -1.124  1.00  0.00    -0.353 OA
HETATM    3  C   UNL     1      -7.883  -0.061  -0.757  1.00  0.00     0.182 C 
HETATM    4  C   UNL     1      -6.956   1.048  -1.170  1.00  0.00     0.198 C 
HETATM    5  C   UNL     1      -5.653   0.354  -0.871  1.00  0.00     0.262 C 
ENDROOT
BRANCH   5   6
HETATM    6  N   UNL     1      -4.413   0.702  -1.522  1.00  0.00    -0.297 N 
HETATM    7  C   UNL     1      -3.900   1.867  -1.622  1.00  0.00     0.188 A 
HETATM    8  N   UNL     1      -2.834   1.849  -2.349  1.00  0.00    -0.346 N 
HETATM    9  C   UNL     1      -2.654   0.629  -2.779  1.00  0.00     0.122 A 
ATOM     10  HN  UNL     1      -2.236   2.650  -2.552  1.00  0.00     0.167 HD
HETATM   11  C   UNL     1      -1.708  -0.087  -3.617  1.00  0.00     0.131 A 
HETATM   12  C   UNL     1      -3.735  -0.147  -2.222  1.00  0.00     0.142 A 
HETATM   13  N   UNL     1      -1.902  -1.398  -3.781  1.00  0.00    -0.337 N 
HETATM   14  C   UNL     1      -2.905  -2.046  -3.240  1.00  0.00     0.183 A 
ATOM     15  HN  UNL     1      -1.238  -1.919  -4.353  1.00  0.00     0.168 HD
HETATM   16  N   UNL     1      -3.798  -1.459  -2.468  1.00  0.00    -0.336 N 
ATOM     17  HN  UNL     1      -4.546  -2.014  -2.053  1.00  0.00     0.168 HD
BRANCH  11  18
HETATM   18  N   UNL     1      -0.682   0.546  -4.195  1.00  0.00    -0.383 N 
ATOM     19  HN2 UNL     1      -0.218   1.334  -3.744  1.00  0.00     0.157 HD
ATOM     20  HN1 UNL     1      -0.335   0.259  -5.111  1.00  0.00     0.157 HD
ENDBRANCH  11  18
ENDBRANCH   5   6
BRANCH   4  21
HETATM   21  O   UNL     1      -7.081   2.224  -0.457  1.00  0.00    -0.388 OA
ATOM     22  HO  UNL     1      -6.371   2.846  -0.567  1.00  0.00     0.210 HD
ENDBRANCH   4  21
BRANCH   1  23
HETATM   23  C   UNL     1      -7.557  -1.726  -2.649  1.00  0.00     0.216 C 
BRANCH  23  24
HETATM   24  O   UNL     1      -6.656  -2.556  -3.319  1.00  0.00    -0.286 OA
BRANCH  24  25
HETATM   25  P   UNL     1      -6.868  -4.052  -3.636  1.00  0.00     0.425 P 
HETATM   26  O   UNL     1      -7.643  -4.581  -2.657  1.00  0.00    -0.623 OA
HETATM   27  O   UNL     1      -7.232  -4.210  -4.957  1.00  0.00    -0.623 OA
BRANCH  25  28
HETATM   28  O   UNL     1      -5.475  -4.708  -3.481  1.00  0.00    -0.144 OA
BRANCH  28  29
HETATM   29  S   UNL     1      -4.712  -5.233  -2.337  1.00  0.00     0.261 S 
HETATM   30  O   UNL     1      -3.496  -5.331  -2.713  1.00  0.00    -0.572 OA
HETATM   31  O   UNL     1      -4.786  -4.315  -1.445  1.00  0.00    -0.572 OA
HETATM   32  O   UNL     1      -5.191  -6.343  -1.918  1.00  0.00    -0.572 OA
ENDBRANCH  28  29
ENDBRANCH  25  28
ENDBRANCH  24  25
ENDBRANCH  23  24
ENDBRANCH   1  23
BRANCH   3  33
HETATM   33  O   UNL     1      -8.078  -0.125   0.604  1.00  0.00    -0.390 OA
ATOM     34  HO  UNL     1      -8.071  -1.034   0.879  1.00  0.00     0.210 HD
ENDBRANCH   3  33
TORSDOF 9
ENDMDL
MODEL 17
REMARK VINA RESULT:    -8.142      3.131      5.159
REMARK INTER + INTRA:         -12.749
REMARK INTER:                 -11.337
REMARK INTRA:                  -1.412
REMARK UNBOUND:                -1.037
REMARK  9 active torsions:
REMARK  status: ('A' for Active; 'I' for Inactive)
REMARK    1  A    between atoms: S_1  and  O_8 
REMARK    2  A    between atoms: P_5  and  O_8 
REMARK    3  A    between atoms: P_5  and  O_9 
REMARK    4  A    between atoms: O_9  and  C_10 
REMARK    5  A    between atoms: C_10  and  C_11 
REMARK    6  A    between atoms: C_13  and  O_14 
REMARK    7  A    between atoms: C_16  and  O_17 
REMARK    8  A    between atoms: C_19  and  N_20 
REMARK    9  A    between atoms: C_25  and  N_26 
ROOT
HETATM    1  C   UNL     1      -5.070   0.815  -2.612  1.00  0.00     0.180 C 
HETATM    2  O   UNL     1      -5.750  -0.389  -2.793  1.00  0.00    -0.353 OA
HETATM    3  C   UNL     1      -4.745   0.859  -1.105  1.00  0.00     0.182 C 
HETATM    4  C   UNL     1      -4.576  -0.591  -0.747  1.00  0.00     0.198 C 
HETATM    5  C   UNL     1      -5.663  -1.152  -1.625  1.00  0.00     0.262 C 
ENDROOT
BRANCH   5   6
HETATM    6  N   UNL     1      -5.658  -2.515  -2.103  1.00  0.00    -0.297 N 
HETATM    7  C   UNL     1      -4.760  -3.397  -1.895  1.00  0.00     0.188 A 
HETATM    8  N   UNL     1      -5.012  -4.485  -2.541  1.00  0.00    -0.346 N 
HETATM    9  C   UNL     1      -6.103  -4.303  -3.236  1.00  0.00     0.122 A 
ATOM     10  HN  UNL     1      -4.455  -5.338  -2.515  1.00  0.00     0.167 HD
HETATM   11  C   UNL     1      -6.927  -5.060  -4.162  1.00  0.00     0.131 A 
HETATM   12  C   UNL     1      -6.535  -2.957  -2.942  1.00  0.00     0.142 A 
HETATM   13  N   UNL     1      -8.020  -4.461  -4.641  1.00  0.00    -0.337 N 
HETATM   14  C   UNL     1      -8.361  -3.235  -4.329  1.00  0.00     0.183 A 
ATOM     15  HN  UNL     1      -8.619  -4.984  -5.280  1.00  0.00     0.168 HD
HETATM   16  N   UNL     1      -7.661  -2.493  -3.494  1.00  0.00    -0.336 N 
ATOM     17  HN  UNL     1      -7.982  -1.552  -3.265  1.00  0.00     0.168 HD
BRANCH  11  18
HETATM   18  N   UNL     1      -6.601  -6.307  -4.514  1.00  0.00    -0.383 N 
ATOM     19  HN2 UNL     1      -5.985  -6.496  -5.304  1.00  0.00     0.157 HD
ATOM     20  HN1 UNL     1      -6.965  -7.111  -4.000  1.00  0.00     0.157 HD
ENDBRANCH  11  18
ENDBRANCH   5   6
BRANCH   4  21
HETATM   21  O   UNL     1      -4.784  -0.903   0.582  1.00  0.00    -0.388 OA
ATOM     22  HO  UNL     1      -4.461  -0.265   1.208  1.00  0.00     0.210 HD
ENDBRANCH   4  21
BRANCH   1  23
HETATM   23  C   UNL     1      -3.799   0.912  -3.464  1.00  0.00     0.216 C 
BRANCH  23  24
HETATM   24  O   UNL     1      -3.356  -0.295  -4.011  1.00  0.00    -0.286 OA
BRANCH  24  25
HETATM   25  P   UNL     1      -2.033  -1.010  -3.670  1.00  0.00     0.425 P 
HETATM   26  O   UNL     1      -1.531  -0.448  -2.542  1.00  0.00    -0.623 OA
HETATM   27  O   UNL     1      -2.202  -2.378  -3.734  1.00  0.00    -0.623 OA
BRANCH  25  28
HETATM   28  O   UNL     1      -1.054  -0.633  -4.808  1.00  0.00    -0.144 OA
BRANCH  28  29
HETATM   29  S   UNL     1       0.347  -0.970  -5.107  1.00  0.00     0.261 S 
HETATM   30  O   UNL     1       0.330  -1.884  -5.997  1.00  0.00    -0.572 OA
HETATM   31  O   UNL     1       0.836   0.094  -5.629  1.00  0.00    -0.572 OA
HETATM   32  O   UNL     1       0.985  -1.318  -4.053  1.00  0.00    -0.572 OA
ENDBRANCH  28  29
ENDBRANCH  25  28
ENDBRANCH  24  25
ENDBRANCH  23  24
ENDBRANCH   1  23
BRANCH   3  33
HETATM   33  O   UNL     1      -5.783   1.466  -0.434  1.00  0.00    -0.390 OA
ATOM     34  HO  UNL     1      -5.702   1.288   0.495  1.00  0.00     0.210 HD
ENDBRANCH   3  33
TORSDOF 9
ENDMDL
MODEL 18
REMARK VINA RESULT:    -8.081      3.711      6.061
REMARK INTER + INTRA:         -12.662
REMARK INTER:                 -11.524
REMARK INTRA:                  -1.138
REMARK UNBOUND:                -1.037
REMARK  9 active torsions:
REMARK  status: ('A' for Active; 'I' for Inactive)
REMARK    1  A    between atoms: S_1  and  O_8 
REMARK    2  A    between atoms: P_5  and  O_8 
REMARK    3  A    between atoms: P_5  and  O_9 
REMARK    4  A    between atoms: O_9  and  C_10 
REMARK    5  A    between atoms: C_10  and  C_11 
REMARK    6  A    between atoms: C_13  and  O_14 
REMARK    7  A    between atoms: C_16  and  O_17 
REMARK    8  A    between atoms: C_19  and  N_20 
REMARK    9  A    between atoms: C_25  and  N_26 
ROOT
HETATM    1  C   UNL     1      -7.020  -0.386  -1.013  1.00  0.00     0.180 C 
HETATM    2  O   UNL     1      -7.783  -1.322  -1.712  1.00  0.00    -0.353 OA
HETATM    3  C   UNL     1      -5.808  -1.183  -0.489  1.00  0.00     0.182 C 
HETATM    4  C   UNL     1      -5.605  -2.235  -1.543  1.00  0.00     0.198 C 
HETATM    5  C   UNL     1      -7.054  -2.506  -1.851  1.00  0.00     0.262 C 
ENDROOT
BRANCH   5   6
HETATM    6  N   UNL     1      -7.500  -3.040  -3.116  1.00  0.00    -0.297 N 
HETATM    7  C   UNL     1      -8.401  -2.555  -3.878  1.00  0.00     0.188 A 
HETATM    8  N   UNL     1      -8.628  -3.327  -4.887  1.00  0.00    -0.346 N 
HETATM    9  C   UNL     1      -7.872  -4.385  -4.769  1.00  0.00     0.122 A 
ATOM     10  HN  UNL     1      -9.284  -3.142  -5.646  1.00  0.00     0.167 HD
HETATM   11  C   UNL     1      -7.624  -5.618  -5.497  1.00  0.00     0.131 A 
HETATM   12  C   UNL     1      -7.112  -4.191  -3.557  1.00  0.00     0.142 A 
HETATM   13  N   UNL     1      -6.705  -6.450  -5.002  1.00  0.00    -0.337 N 
HETATM   14  C   UNL     1      -6.044  -6.211  -3.896  1.00  0.00     0.183 A 
ATOM     15  HN  UNL     1      -6.507  -7.312  -5.509  1.00  0.00     0.168 HD
HETATM   16  N   UNL     1      -6.217  -5.112  -3.187  1.00  0.00    -0.336 N 
ATOM     17  HN  UNL     1      -5.660  -4.963  -2.345  1.00  0.00     0.168 HD
BRANCH  11  18
HETATM   18  N   UNL     1      -8.291  -5.900  -6.621  1.00  0.00    -0.383 N 
ATOM     19  HN2 UNL     1      -9.135  -5.392  -6.883  1.00  0.00     0.157 HD
ATOM     20  HN1 UNL     1      -7.973  -6.638  -7.250  1.00  0.00     0.157 HD
ENDBRANCH  11  18
ENDBRANCH   5   6
BRANCH   4  21
HETATM   21  O   UNL     1      -4.951  -3.377  -1.125  1.00  0.00    -0.388 OA
ATOM     22  HO  UNL     1      -4.297  -3.717  -1.725  1.00  0.00     0.210 HD
ENDBRANCH   4  21
BRANCH   1  23
HETATM   23  C   UNL     1      -6.581   0.794  -1.887  1.00  0.00     0.216 C 
BRANCH  23  24
HETATM   24  O   UNL     1      -5.293   1.273  -1.637  1.00  0.00    -0.286 OA
BRANCH  24  25
HETATM   25  P   UNL     1      -4.182   1.471  -2.690  1.00  0.00     0.425 P 
HETATM   26  O   UNL     1      -4.773   1.802  -3.865  1.00  0.00    -0.623 OA
HETATM   27  O   UNL     1      -3.182   2.272  -2.180  1.00  0.00    -0.623 OA
BRANCH  25  28
HETATM   28  O   UNL     1      -3.560   0.071  -2.903  1.00  0.00    -0.144 OA
BRANCH  28  29
HETATM   29  S   UNL     1      -2.372  -0.424  -3.619  1.00  0.00     0.261 S 
HETATM   30  O   UNL     1      -1.374  -0.268  -2.838  1.00  0.00    -0.572 OA
HETATM   31  O   UNL     1      -2.579  -1.681  -3.766  1.00  0.00    -0.572 OA
HETATM   32  O   UNL     1      -2.218   0.168  -4.743  1.00  0.00    -0.572 OA
ENDBRANCH  28  29
ENDBRANCH  25  28
ENDBRANCH  24  25
ENDBRANCH  23  24
ENDBRANCH   1  23
BRANCH   3  33
HETATM   33  O   UNL     1      -6.110  -1.706   0.748  1.00  0.00    -0.390 OA
ATOM     34  HO  UNL     1      -6.652  -1.090   1.225  1.00  0.00     0.210 HD
ENDBRANCH   3  33
TORSDOF 9
ENDMDL
MODEL 19
REMARK VINA RESULT:    -8.030      8.738     10.368
REMARK INTER + INTRA:         -12.588
REMARK INTER:                 -11.036
REMARK INTRA:                  -1.552
REMARK UNBOUND:                -1.037
REMARK  9 active torsions:
REMARK  status: ('A' for Active; 'I' for Inactive)
REMARK    1  A    between atoms: S_1  and  O_8 
REMARK    2  A    between atoms: P_5  and  O_8 
REMARK    3  A    between atoms: P_5  and  O_9 
REMARK    4  A    between atoms: O_9  and  C_10 
REMARK    5  A    between atoms: C_10  and  C_11 
REMARK    6  A    between atoms: C_13  and  O_14 
REMARK    7  A    between atoms: C_16  and  O_17 
REMARK    8  A    between atoms: C_19  and  N_20 
REMARK    9  A    between atoms: C_25  and  N_26 
ROOT
HETATM    1  C   UNL     1      -8.720  -9.376  -3.152  1.00  0.00     0.180 C 
HETATM    2  O   UNL     1      -8.690 -10.234  -2.053  1.00  0.00    -0.353 OA
HETATM    3  C   UNL     1      -9.383  -8.088  -2.625  1.00  0.00     0.182 C 
HETATM    4  C   UNL     1      -8.964  -8.050  -1.182  1.00  0.00     0.198 C 
HETATM    5  C   UNL     1      -9.044  -9.528  -0.901  1.00  0.00     0.262 C 
ENDROOT
BRANCH   5   6
HETATM    6  N   UNL     1      -8.285 -10.168   0.146  1.00  0.00    -0.297 N 
HETATM    7  C   UNL     1      -8.749 -10.817   1.143  1.00  0.00     0.188 A 
HETATM    8  N   UNL     1      -7.807 -11.180   1.946  1.00  0.00    -0.346 N 
HETATM    9  C   UNL     1      -6.675 -10.722   1.481  1.00  0.00     0.122 A 
ATOM     10  HN  UNL     1      -7.925 -11.730   2.796  1.00  0.00     0.167 HD
HETATM   11  C   UNL     1      -5.272 -10.736   1.859  1.00  0.00     0.131 A 
HETATM   12  C   UNL     1      -7.006 -10.026   0.260  1.00  0.00     0.142 A 
HETATM   13  N   UNL     1      -4.410 -10.130   1.039  1.00  0.00    -0.337 N 
HETATM   14  C   UNL     1      -4.775  -9.518  -0.061  1.00  0.00     0.183 A 
ATOM     15  HN  UNL     1      -3.419 -10.144   1.281  1.00  0.00     0.168 HD
HETATM   16  N   UNL     1      -6.030  -9.469  -0.465  1.00  0.00    -0.336 N 
ATOM     17  HN  UNL     1      -6.259  -9.001  -1.341  1.00  0.00     0.168 HD
BRANCH  11  18
HETATM   18  N   UNL     1      -4.867 -11.337   2.981  1.00  0.00    -0.383 N 
ATOM     19  HN2 UNL     1      -5.455 -12.014   3.467  1.00  0.00     0.157 HD
ATOM     20  HN1 UNL     1      -3.953 -11.133   3.387  1.00  0.00     0.157 HD
ENDBRANCH  11  18
ENDBRANCH   5   6
BRANCH   4  21
HETATM   21  O   UNL     1      -9.787  -7.327  -0.342  1.00  0.00    -0.388 OA
ATOM     22  HO  UNL     1     -10.629  -7.080  -0.707  1.00  0.00     0.210 HD
ENDBRANCH   4  21
BRANCH   1  23
HETATM   23  C   UNL     1      -7.326  -9.096  -3.725  1.00  0.00     0.216 C 
BRANCH  23  24
HETATM   24  O   UNL     1      -7.055  -7.754  -4.000  1.00  0.00    -0.286 OA
BRANCH  24  25
HETATM   25  P   UNL     1      -5.782  -6.986  -3.585  1.00  0.00     0.425 P 
HETATM   26  O   UNL     1      -5.708  -6.999  -2.230  1.00  0.00    -0.623 OA
HETATM   27  O   UNL     1      -4.705  -7.414  -4.331  1.00  0.00    -0.623 OA
BRANCH  25  28
HETATM   28  O   UNL     1      -6.039  -5.513  -3.985  1.00  0.00    -0.144 OA
BRANCH  28  29
HETATM   29  S   UNL     1      -6.809  -4.409  -3.388  1.00  0.00     0.261 S 
HETATM   30  O   UNL     1      -6.041  -3.829  -2.550  1.00  0.00    -0.572 OA
HETATM   31  O   UNL     1      -7.031  -3.602  -4.360  1.00  0.00    -0.572 OA
HETATM   32  O   UNL     1      -7.897  -4.825  -2.857  1.00  0.00    -0.572 OA
ENDBRANCH  28  29
ENDBRANCH  25  28
ENDBRANCH  24  25
ENDBRANCH  23  24
ENDBRANCH   1  23
BRANCH   3  33
HETATM   33  O   UNL     1     -10.747  -8.179  -2.790  1.00  0.00    -0.390 OA
ATOM     34  HO  UNL     1     -11.036  -7.501  -3.388  1.00  0.00     0.210 HD
ENDBRANCH   3  33
TORSDOF 9
ENDMDL
MODEL 20
REMARK VINA RESULT:    -8.000      3.166      4.086
REMARK INTER + INTRA:         -12.545
REMARK INTER:                 -11.755
REMARK INTRA:                  -0.790
REMARK UNBOUND:                -1.037
REMARK  9 active torsions:
REMARK  status: ('A' for Active; 'I' for Inactive)
REMARK    1  A    between atoms: S_1  and  O_8 
REMARK    2  A    between atoms: P_5  and  O_8 
REMARK    3  A    between atoms: P_5  and  O_9 
REMARK    4  A    between atoms: O_9  and  C_10 
REMARK    5  A    between atoms: C_10  and  C_11 
REMARK    6  A    between atoms: C_13  and  O_14 
REMARK    7  A    between atoms: C_16  and  O_17 
REMARK    8  A    between atoms: C_19  and  N_20 
REMARK    9  A    between atoms: C_25  and  N_26 
ROOT
HETATM    1  C   UNL     1      -5.740  -3.151  -1.620  1.00  0.00     0.180 C 
HETATM    2  O   UNL     1      -5.893  -1.990  -0.861  1.00  0.00    -0.353 OA
HETATM    3  C   UNL     1      -6.894  -3.105  -2.642  1.00  0.00     0.182 C 
HETATM    4  C   UNL     1      -7.095  -1.632  -2.869  1.00  0.00     0.198 C 
HETATM    5  C   UNL     1      -6.852  -1.168  -1.457  1.00  0.00     0.262 C 
ENDROOT
BRANCH   5   6
HETATM    6  N   UNL     1      -6.408   0.168  -1.138  1.00  0.00    -0.297 N 
HETATM    7  C   UNL     1      -7.085   1.084  -0.561  1.00  0.00     0.188 A 
HETATM    8  N   UNL     1      -6.428   2.193  -0.512  1.00  0.00    -0.346 N 
HETATM    9  C   UNL     1      -5.283   2.016  -1.115  1.00  0.00     0.122 A 
ATOM     10  HN  UNL     1      -6.748   3.059  -0.078  1.00  0.00     0.167 HD
HETATM   11  C   UNL     1      -4.103   2.801  -1.435  1.00  0.00     0.131 A 
HETATM   12  C   UNL     1      -5.277   0.639  -1.548  1.00  0.00     0.142 A 
HETATM   13  N   UNL     1      -3.109   2.181  -2.076  1.00  0.00    -0.337 N 
HETATM   14  C   UNL     1      -3.164   0.922  -2.438  1.00  0.00     0.183 A 
ATOM     15  HN  UNL     1      -2.267   2.713  -2.295  1.00  0.00     0.168 HD
HETATM   16  N   UNL     1      -4.202   0.152  -2.177  1.00  0.00    -0.336 N 
ATOM     17  HN  UNL     1      -4.186  -0.828  -2.459  1.00  0.00     0.168 HD
BRANCH  11  18
HETATM   18  N   UNL     1      -4.020   4.090  -1.094  1.00  0.00    -0.383 N 
ATOM     19  HN2 UNL     1      -3.122   4.534  -0.899  1.00  0.00     0.157 HD
ATOM     20  HN1 UNL     1      -4.856   4.669  -1.016  1.00  0.00     0.157 HD
ENDBRANCH  11  18
ENDBRANCH   5   6
BRANCH   4  21
HETATM   21  O   UNL     1      -8.349  -1.266  -3.317  1.00  0.00    -0.388 OA
ATOM     22  HO  UNL     1      -8.875  -1.969  -3.680  1.00  0.00     0.210 HD
ENDBRANCH   4  21
BRANCH   1  23
HETATM   23  C   UNL     1      -4.376  -3.228  -2.316  1.00  0.00     0.216 C 
BRANCH  23  24
HETATM   24  O   UNL     1      -4.000  -4.503  -2.746  1.00  0.00    -0.286 OA
BRANCH  24  25
HETATM   25  P   UNL     1      -4.102  -5.803  -1.921  1.00  0.00     0.425 P 
HETATM   26  O   UNL     1      -3.945  -5.482  -0.613  1.00  0.00    -0.623 OA
HETATM   27  O   UNL     1      -5.205  -6.531  -2.317  1.00  0.00    -0.623 OA
BRANCH  25  28
HETATM   28  O   UNL     1      -2.859  -6.638  -2.310  1.00  0.00    -0.144 OA
BRANCH  28  29
HETATM   29  S   UNL     1      -2.598  -7.677  -3.320  1.00  0.00     0.261 S 
HETATM   30  O   UNL     1      -3.148  -7.290  -4.405  1.00  0.00    -0.572 OA
HETATM   31  O   UNL     1      -1.327  -7.663  -3.483  1.00  0.00    -0.572 OA
HETATM   32  O   UNL     1      -3.016  -8.824  -2.935  1.00  0.00    -0.572 OA
ENDBRANCH  28  29
ENDBRANCH  25  28
ENDBRANCH  24  25
ENDBRANCH  23  24
ENDBRANCH   1  23
BRANCH   3  33
HETATM   33  O   UNL     1      -7.999  -3.727  -2.106  1.00  0.00    -0.390 OA
ATOM     34  HO  UNL     1      -8.651  -3.847  -2.786  1.00  0.00     0.210 HD
ENDBRANCH   3  33
TORSDOF 9
ENDMDL
