REMARK  2 active torsions:
REMARK  status: ('A' for Active; 'I' for Inactive)
REMARK    1  A    between atoms: C_6  and  S_7 
REMARK    2  A    between atoms: S_7  and  N_10 
ROOT
HETATM    1  C   UNL     1      11.436  -9.214  23.224  1.00  0.00     0.033 A 
HETATM    2 CL   UNL     1      13.680  -8.141  24.389  1.00  0.00    -0.076 Cl
HETATM    3  C   UNL     1      12.767  -9.254  23.467  1.00  0.00     0.075 A 
HETATM    4  C   UNL     1      11.020 -10.306  22.442  1.00  0.00     0.035 A 
HETATM    5  S   UNL     1      13.554 -10.598  22.749  1.00  0.00    -0.064 SA
HETATM    6  C   UNL     1      12.045 -11.139  22.119  1.00  0.00     0.121 A 
ENDROOT
BRANCH   6   7
HETATM    7  S   UNL     1      11.896 -12.651  21.233  1.00  0.00     0.263 S 
HETATM    8  O   UNL     1      13.230 -13.024  20.876  1.00  0.00    -0.200 OA
HETATM    9  O   UNL     1      10.912 -12.440  20.228  1.00  0.00    -0.200 OA
BRANCH   7  10
HETATM   10  N   UNL     1      11.335 -13.729  22.257  1.00  0.00    -0.324 N 
ATOM     11  HN2 UNL     1      11.109 -13.561  23.237  1.00  0.00     0.169 HD
ATOM     12  HN1 UNL     1      11.249 -14.606  21.743  1.00  0.00     0.169 HD
ENDBRANCH   7  10
ENDBRANCH   6   7
TORSDOF 2
