REMARK  11 active torsions:
REMARK  status: ('A' for Active; 'I' for Inactive)
REMARK    1  A    between atoms: N_1  and  CA_5 
REMARK    2  A    between atoms: CA_5  and  C_9 
REMARK    3  A    between atoms: CA_5  and  C_6 
REMARK    4  A    between atoms: C_9  and  C_10 
REMARK    5  A    between atoms: C_10  and  C_11 
REMARK    6  A    between atoms: C_11  and  C_16 
REMARK    7  A    between atoms: C_11  and  N_12 
REMARK    8  A    between atoms: C_16  and  C_17 
REMARK    9  A    between atoms: C_19  and  O_20 
REMARK   10  A    between atoms: C_22  and  O_23 
REMARK   11  A    between atoms: C_25  and  N_26 
ROOT
HETATM    1  C   UNL     1      44.775 -15.888  -7.209  1.00  0.00     0.157 C 
HETATM    2  O   UNL     1      44.341 -16.765  -8.100  1.00  0.00    -0.355 OA
HETATM    3  C   UNL     1      46.144 -16.410  -6.711  1.00  0.00     0.180 C 
HETATM    4  C   UNL     1      46.373 -17.638  -7.608  1.00  0.00     0.198 C 
HETATM    5  C   UNL     1      45.162 -18.107  -7.852  1.00  0.00     0.262 C 
ENDROOT
BRANCH   1   6
HETATM    6  C   UNL     1      44.894 -14.493  -7.882  1.00  0.00     0.067 C 
BRANCH   6   7
HETATM    7  C   UNL     1      45.113 -13.360  -6.877  1.00  0.00     0.186 C 
BRANCH   7   8
HETATM    8  C   UNL     1      43.779 -12.963  -6.243  1.00  0.00     0.035 C 
BRANCH   8   9
HETATM    9  C   UNL     1      43.524 -13.753  -4.954  1.00  0.00     0.046 C 
BRANCH   9  10
HETATM   10  CA  UNL     1      42.226 -13.289  -4.277  1.00  0.00     0.283 C 
BRANCH  10  11
HETATM   11  C   UNL     1      42.336 -11.813  -3.891  1.00  0.00     0.204 C 
HETATM   12  OXT UNL     1      43.264 -11.443  -3.124  1.00  0.00    -0.646 OA
HETATM   13  O   UNL     1      41.509 -10.958  -4.309  1.00  0.00    -0.646 OA
ENDBRANCH  10  11
BRANCH  10  14
HETATM   14  N   UNL     1      41.070 -13.516  -5.147  1.00  0.00    -0.065 N 
ATOM     15  HN3 UNL     1      41.195 -13.079  -6.060  1.00  0.00     0.275 HD
ATOM     16  HN2 UNL     1      41.011 -14.489  -5.447  1.00  0.00     0.275 HD
ATOM     17  HN1 UNL     1      40.208 -13.208  -4.697  1.00  0.00     0.275 HD
ENDBRANCH  10  14
ENDBRANCH   9  10
ENDBRANCH   8   9
ENDBRANCH   7   8
BRANCH   7  18
HETATM   18  N   UNL     1      45.650 -12.211  -7.606  1.00  0.00    -0.075 N 
ATOM     19  HN3 UNL     1      44.989 -11.840  -8.289  1.00  0.00     0.274 HD
ATOM     20  HN2 UNL     1      45.730 -11.380  -7.020  1.00  0.00     0.274 HD
ATOM     21  HN1 UNL     1      46.540 -12.476  -8.029  1.00  0.00     0.274 HD
ENDBRANCH   7  18
ENDBRANCH   6   7
ENDBRANCH   1   6
BRANCH   3  22
HETATM   22  O   UNL     1      46.072 -16.738  -5.381  1.00  0.00    -0.390 OA
ATOM     23  HO  UNL     1      45.931 -15.979  -4.827  1.00  0.00     0.210 HD
ENDBRANCH   3  22
BRANCH   4  24
HETATM   24  O   UNL     1      47.240 -18.631  -6.920  1.00  0.00    -0.388 OA
ATOM     25  HO  UNL     1      48.111 -18.294  -6.745  1.00  0.00     0.210 HD
ENDBRANCH   4  24
BRANCH   5  26
HETATM   26  N   UNL     1      45.090 -18.878  -9.072  1.00  0.00    -0.297 N 
HETATM   27  C   UNL     1      45.708 -18.699 -10.254  1.00  0.00     0.188 A 
HETATM   28  N   UNL     1      45.326 -19.670 -11.087  1.00  0.00    -0.346 N 
HETATM   29  C   UNL     1      44.458 -20.452 -10.416  1.00  0.00     0.119 A 
ATOM     30  HN  UNL     1      45.634 -19.796 -12.051  1.00  0.00     0.167 HD
HETATM   31  C   UNL     1      43.779 -21.582 -10.805  1.00  0.00     0.148 A 
HETATM   32  C   UNL     1      44.306 -19.969  -9.178  1.00  0.00     0.142 A 
HETATM   33  N   UNL     1      42.973 -22.206  -9.958  1.00  0.00    -0.339 N 
HETATM   34  N   UNL     1      43.827 -22.240 -12.090  1.00  0.00    -0.080 NA
HETATM   35  C   UNL     1      42.809 -21.711  -8.706  1.00  0.00     0.183 A 
ATOM     36  HN  UNL     1      42.480 -23.052 -10.245  1.00  0.00     0.167 HD
HETATM   37  N   UNL     1      43.477 -20.600  -8.313  1.00  0.00    -0.336 N 
ATOM     38  HN  UNL     1      43.356 -20.239  -7.367  1.00  0.00     0.168 HD
ENDBRANCH   5  26
TORSDOF 11
