REMARK  13 active torsions:
REMARK  status: ('A' for Active; 'I' for Inactive)
REMARK    1  A    between atoms: N_1  and  CA_2 
REMARK    2  A    between atoms: CA_2  and  C_3 
REMARK    3  A    between atoms: CA_2  and  C_6 
REMARK    4  A    between atoms: C_3  and  OXT_5 
REMARK    5  A    between atoms: C_6  and  C_7 
REMARK    6  A    between atoms: C_7  and  C_8 
REMARK    7  A    between atoms: C_8  and  N_9 
REMARK    8  A    between atoms: C_8  and  C_10 
REMARK    9  A    between atoms: C_10  and  C_11 
REMARK   10  A    between atoms: C_13  and  O_14 
REMARK   11  A    between atoms: C_15  and  O_16 
REMARK   12  A    between atoms: C_17  and  N_18 
REMARK   13  A    between atoms: C_23  and  N_24 
ROOT
HETATM    1  C   UNL     1       1.106   1.686  -0.404  1.00  0.00     0.157 C 
HETATM    2  O   UNL     1       1.608   0.523  -1.025  1.00  0.00    -0.355 OA
HETATM    3  C   UNL     1       0.512   2.579  -1.486  1.00  0.00     0.180 C 
HETATM    4  C   UNL     1       0.020   1.567  -2.491  1.00  0.00     0.198 C 
HETATM    5  C   UNL     1       0.965   0.378  -2.278  1.00  0.00     0.262 C 
ENDROOT
BRANCH   1   6
HETATM    6  C   UNL     1       0.054   1.303   0.664  1.00  0.00     0.070 C 
BRANCH   6   7
HETATM    7  C   UNL     1       0.621   0.370   1.758  1.00  0.00     0.220 C 
BRANCH   7   8
HETATM    8  C   UNL     1      -0.456  -0.018   2.807  1.00  0.00     0.038 C 
BRANCH   8   9
HETATM    9  C   UNL     1      -1.674  -0.796   2.258  1.00  0.00     0.049 C 
BRANCH   9  10
HETATM   10  CA  UNL     1      -1.328  -2.137   1.576  1.00  0.00     0.314 C 
BRANCH  10  11
HETATM   11  N   UNL     1      -2.547  -2.760   1.057  1.00  0.00     0.093 N 
HETATM   12  H1  UNL     1      -2.945  -2.136   0.318  1.00  0.00     0.314 HD
HETATM   13  H2  UNL     1      -2.280  -3.645   0.566  1.00  0.00     0.314 HD
ENDBRANCH  10  11
BRANCH  10  14
HETATM   14  C   UNL     1      -0.656  -3.070   2.545  1.00  0.00     0.173 C 
HETATM   15  O   UNL     1      -1.320  -3.613   3.470  1.00  0.00    -0.648 OA
BRANCH  14  16
HETATM   16  OXT UNL     1       0.712  -3.307   2.442  1.00  0.00    -0.775 OA
HETATM   17  HXT UNL     1       1.184  -3.921   3.095  1.00  0.00     0.167 HD
ENDBRANCH  14  16
ENDBRANCH  10  14
ENDBRANCH   9  10
ENDBRANCH   8   9
ENDBRANCH   7   8
BRANCH   7  18
HETATM   18  N   UNL     1       1.755   1.020   2.423  1.00  0.00     0.083 N 
HETATM   19  H   UNL     1       1.411   1.834   2.982  1.00  0.00     0.313 HD
HETATM   20  H   UNL     1       2.192   0.342   3.089  1.00  0.00     0.313 HD
ENDBRANCH   7  18
ENDBRANCH   6   7
ENDBRANCH   1   6
BRANCH   3  21
HETATM   21  O   UNL     1       1.527   3.385  -2.033  1.00  0.00    -0.390 OA
HETATM   22  H   UNL     1       1.075   4.139  -2.494  1.00  0.00     0.210 HD
ENDBRANCH   3  21
BRANCH   5  23
HETATM   23  N   UNL     1       0.261  -0.911  -2.332  1.00  0.00    -0.297 N 
HETATM   24  C   UNL     1      -0.809  -1.264  -3.097  1.00  0.00     0.188 A 
HETATM   25  N   UNL     1      -1.141  -2.580  -2.996  1.00  0.00    -0.346 N 
HETATM   26  C   UNL     1      -0.213  -3.056  -2.147  1.00  0.00     0.122 A 
ATOM     27  HN  UNL     1      -1.904  -3.081  -3.451  1.00  0.00     0.167 HD
HETATM   28  C   UNL     1      -0.027  -4.351  -1.677  1.00  0.00     0.131 A 
HETATM   29  C   UNL     1       0.633  -2.072  -1.770  1.00  0.00     0.142 A 
HETATM   30  N   UNL     1       1.034  -4.577  -0.845  1.00  0.00    -0.337 N 
HETATM   31  C   UNL     1       1.889  -3.565  -0.488  1.00  0.00     0.183 A 
ATOM     32  HN  UNL     1       1.193  -5.517  -0.482  1.00  0.00     0.168 HD
HETATM   33  N   UNL     1       1.692  -2.295  -0.952  1.00  0.00    -0.336 N 
ATOM     34  HN  UNL     1       2.323  -1.537  -0.691  1.00  0.00     0.168 HD
BRANCH  28  35
HETATM   35  N   UNL     1      -0.903  -5.418  -2.042  1.00  0.00    -0.383 N 
HETATM   36  H   UNL     1      -0.735  -6.383  -1.680  1.00  0.00     0.157 HD
HETATM   37  H   UNL     1      -1.720  -5.251  -2.670  1.00  0.00     0.157 HD
ENDBRANCH  28  35
ENDBRANCH   5  23
BRANCH   4  38
HETATM   38  O   UNL     1       0.108   2.058  -3.807  1.00  0.00    -0.388 OA
HETATM   39  H   UNL     1      -0.732   1.806  -4.270  1.00  0.00     0.210 HD
ENDBRANCH   4  38
TORSDOF 13
