REMARK  7 active torsions:
REMARK  status: ('A' for Active; 'I' for Inactive)
REMARK    1  A    between atoms: C_2  and  C_4 
REMARK    2  A    between atoms: C_14  and  C_15 
REMARK    3  A    between atoms: C_15  and  O_16 
REMARK    4  A    between atoms: O_16  and  C_17 
REMARK    5  A    between atoms: C_21  and  C_25 
REMARK    6  A    between atoms: C_22  and  O_23 
REMARK    7  A    between atoms: C_25  and  O_26 
ROOT
HETATM    1  C   UNL     1      41.892 -11.374 -25.593  1.00  0.00     0.043 A 
HETATM    2  C   UNL     1      41.334 -11.029 -24.386  1.00  0.00     0.021 A 
HETATM    3  C   UNL     1      40.232 -10.203 -24.335  1.00  0.00     0.033 A 
HETATM    4  C   UNL     1      39.688  -9.638 -25.453  1.00  0.00     0.060 A 
HETATM    5  N   UNL     1      38.656  -8.785 -25.702  1.00  0.00    -0.342 N 
ATOM      6  HN  UNL     1      38.051  -8.343 -25.010  1.00  0.00     0.167 HD
HETATM    7  C   UNL     1      41.358 -10.863 -26.799  1.00  0.00     0.050 A 
HETATM    8  C   UNL     1      40.270  -9.989 -26.750  1.00  0.00     0.063 A 
HETATM    9  N   UNL     1      39.571  -9.334 -27.664  1.00  0.00    -0.337 N 
HETATM   10  C   UNL     1      39.854  -9.475 -29.101  1.00  0.00     0.158 C 
HETATM   11  C   UNL     1      38.587  -8.634 -27.067  1.00  0.00     0.108 A 
ENDROOT
BRANCH  11  12
HETATM   12  C   UNL     1      37.599  -7.807 -27.803  1.00  0.00     0.245 C 
BRANCH  12  13
HETATM   13  O   UNL     1      38.179  -6.647 -28.359  1.00  0.00    -0.372 OA
BRANCH  13  14
HETATM   14  C   UNL     1      37.141  -5.838 -28.948  1.00  0.00     0.177 C 
HETATM   15  C   UNL     1      37.098  -6.136 -30.422  1.00  0.00     0.031 C 
HETATM   16  C   UNL     1      36.869  -5.223 -31.321  1.00  0.00     0.134 C 
HETATM   17  O   UNL     1      36.662  -3.836 -30.971  1.00  0.00    -0.353 OA
HETATM   18  C   UNL     1      36.585  -3.498 -29.536  1.00  0.00     0.182 C 
HETATM   19  C   UNL     1      37.533  -4.419 -28.736  1.00  0.00     0.182 C 
BRANCH  18  20
HETATM   20  C   UNL     1      36.901  -2.041 -29.322  1.00  0.00     0.199 C 
BRANCH  20  21
HETATM   21  O   UNL     1      35.798  -1.294 -29.893  1.00  0.00    -0.398 OA
ATOM     22  HO  UNL     1      35.997  -0.375 -29.758  1.00  0.00     0.209 HD
ENDBRANCH  20  21
ENDBRANCH  18  20
BRANCH  19  23
HETATM   23  O   UNL     1      38.945  -4.389 -29.096  1.00  0.00    -0.390 OA
ATOM     24  HO  UNL     1      39.528  -4.955 -28.604  1.00  0.00     0.210 HD
ENDBRANCH  19  23
ENDBRANCH  13  14
ENDBRANCH  12  13
ENDBRANCH  11  12
BRANCH   1  25
HETATM   25  C   UNL     1      43.091 -12.258 -25.586  1.00  0.00     0.209 C 
HETATM   26  O   UNL     1      43.787 -12.279 -26.723  1.00  0.00    -0.644 OA
HETATM   27  O   UNL     1      43.478 -12.860 -24.590  1.00  0.00    -0.644 OA
ENDBRANCH   1  25
TORSDOF 7
