REMARK  12 active torsions:
REMARK  status: ('A' for Active; 'I' for Inactive)
REMARK    1  A    between atoms: C_1  and  C_2 
REMARK    2  A    between atoms: C_3  and  S_36 
REMARK    3  A    between atoms: C_7  and  N_30 
REMARK    4  A    between atoms: C_9  and  C_10 
REMARK    5  A    between atoms: C_9  and  N_25 
REMARK    6  A    between atoms: C_10  and  C_11 
REMARK    7  A    between atoms: C_11  and  O_35 
REMARK    8  A    between atoms: C_12  and  O_35 
REMARK    9  A    between atoms: C_15  and  N_30 
REMARK   10  A    between atoms: C_15  and  C_16 
REMARK   11  A    between atoms: C_16  and  C_17 
REMARK   12  A    between atoms: C_17  and  N_32 
ROOT
HETATM    1  C   UNL     1      -6.204   2.623   4.456  1.00  0.00     0.048 A 
HETATM    2  C   UNL     1      -4.064   1.867   4.112  1.00  0.00     0.204 A 
HETATM    3  C   UNL     1      -4.751   1.965   6.247  1.00  0.00     0.105 A 
HETATM    4  C   UNL     1      -5.996   2.433   5.830  1.00  0.00     0.078 A 
HETATM    5  N   UNL     1      -5.210   2.315   3.603  1.00  0.00    -0.332 N 
ATOM      6  HN  UNL     1      -5.331   2.422   2.596  1.00  0.00     0.168 HD
HETATM    7  N   UNL     1      -3.802   1.665   5.388  1.00  0.00    -0.319 N 
ATOM      8  HN  UNL     1      -2.903   1.293   5.695  1.00  0.00     0.169 HD
ENDROOT
BRANCH   1   9
HETATM    9  C   UNL     1      -7.466   3.040   3.925  1.00  0.00    -0.009 A 
HETATM   10  C   UNL     1      -8.516   3.476   4.732  1.00  0.00     0.016 A 
HETATM   11  C   UNL     1      -9.748   3.799   4.197  1.00  0.00     0.037 A 
HETATM   12  C   UNL     1      -9.978   3.668   2.842  1.00  0.00     0.068 A 
HETATM   13  C   UNL     1      -8.965   3.233   2.017  1.00  0.00     0.037 A 
HETATM   14  C   UNL     1      -7.728   2.917   2.558  1.00  0.00     0.016 A 
BRANCH  12  15
HETATM   15  O   UNL     1     -11.247   3.989   2.382  1.00  0.00    -0.351 OA
BRANCH  15  16
HETATM   16  C   UNL     1     -11.514   3.855   1.014  1.00  0.00     0.177 C 
BRANCH  16  17
HETATM   17  C   UNL     1     -12.987   4.194   0.799  1.00  0.00     0.057 C 
BRANCH  17  18
HETATM   18  C   UNL     1     -13.299   5.566   1.380  1.00  0.00     0.273 C 
BRANCH  18  19
HETATM   19  N   UNL     1     -14.537   6.147   0.867  1.00  0.00     0.080 N 
HETATM   20  C   UNL     1     -15.652   5.230   1.053  1.00  0.00     0.309 C 
HETATM   21  C   UNL     1     -14.825   7.410   1.547  1.00  0.00     0.309 C 
ENDBRANCH  18  19
ENDBRANCH  17  18
ENDBRANCH  16  17
ENDBRANCH  15  16
ENDBRANCH  12  15
ENDBRANCH   1   9
BRANCH   2  22
HETATM   22  S   UNL     1      -2.743   1.456   2.962  1.00  0.00     0.203 S 
HETATM   23  C   UNL     1      -3.304   2.048   1.404  1.00  0.00     0.170 C 
HETATM   24  O   UNL     1      -1.512   2.149   3.373  1.00  0.00    -0.220 OA
HETATM   25  O   UNL     1      -2.607   0.029   2.929  1.00  0.00    -0.220 OA
ENDBRANCH   2  22
BRANCH   3  26
HETATM   26  N   UNL     1      -4.418   1.749   7.597  1.00  0.00    -0.376 N 
ATOM     27  HN  UNL     1      -3.487   1.402   7.828  1.00  0.00     0.161 HD
BRANCH  26  28
HETATM   28  C   UNL     1      -5.358   2.005   8.668  1.00  0.00     0.123 C 
BRANCH  28  29
HETATM   29  C   UNL     1      -6.408   0.917   8.852  1.00  0.00     0.041 C 
BRANCH  29  30
HETATM   30  C   UNL     1      -7.464   1.326   9.875  1.00  0.00     0.150 C 
BRANCH  30  31
HETATM   31  N   UNL     1      -8.287   2.370   9.293  1.00  0.00    -0.304 N 
HETATM   32  N   UNL     1      -9.356   2.185   8.473  1.00  0.00    -0.310 N 
HETATM   33  C   UNL     1      -9.853   3.377   8.200  1.00  0.00     0.108 A 
ATOM     34  HN  UNL     1      -9.709   1.291   8.132  1.00  0.00     0.186 HD
HETATM   35  C   UNL     1      -9.083   4.326   8.842  1.00  0.00     0.037 A 
HETATM   36  C   UNL     1      -8.101   3.658   9.525  1.00  0.00     0.111 A 
ENDBRANCH  30  31
ENDBRANCH  29  30
ENDBRANCH  28  29
ENDBRANCH  26  28
ENDBRANCH   3  26
TORSDOF 12
