REMARK  2 active torsions:
REMARK  status: ('A' for Active; 'I' for Inactive)
REMARK    1  A    between atoms: C_2  and  C_3 
REMARK    2  A    between atoms: C_2  and  O_13 
REMARK       I    between atoms: C_3  and  N_12 
ROOT
HETATM    1  C   UNL     1      27.015  65.217  71.518  1.00  0.00     0.248 C 
HETATM    2  C   UNL     1      27.886  66.517  73.511  1.00  0.00     0.137 C 
HETATM    3  C   UNL     1      27.807  67.940  73.963  1.00  0.00     0.063 C 
HETATM    4  C   UNL     1      26.799  68.573  72.996  1.00  0.00    -0.008 A 
HETATM    5  C   UNL     1      26.146  69.806  73.018  1.00  0.00     0.042 A 
HETATM    6  C   UNL     1      25.200  70.172  72.031  1.00  0.00     0.024 A 
HETATM    7  C   UNL     1      24.912  69.242  71.024  1.00  0.00     0.004 A 
HETATM    8  C   UNL     1      25.544  68.019  70.956  1.00  0.00     0.030 A 
HETATM    9  C   UNL     1      26.492  67.668  71.974  1.00  0.00     0.045 A 
HETATM   10  N   UNL     1      27.187  66.422  72.232  1.00  0.00    -0.315 N 
HETATM   11  O   UNL     1      26.407  65.225  70.477  1.00  0.00    -0.271 OA
HETATM   12 CL   UNL     1      26.586  70.857  74.317  1.00  0.00    -0.084 Cl
ENDROOT
BRANCH   1  13
HETATM   13  C   UNL     1      27.691  64.030  72.081  1.00  0.00     0.270 C 
BRANCH  13  14
HETATM   14  O   UNL     1      27.261  62.920  71.316  1.00  0.00    -0.387 OA
HETATM   15  C   UNL     1      27.544  61.671  71.921  1.00  0.00     0.202 C 
ENDBRANCH  13  14
ENDBRANCH   1  13
TORSDOF 2
