REMARK  2 active torsions:
REMARK  status: ('A' for Active; 'I' for Inactive)
REMARK    1  A    between atoms: C_2  and  C_3 
REMARK    2  A    between atoms: C_2  and  O_13 
REMARK       I    between atoms: C_3  and  N_12 
ROOT
HETATM    1  C   UNL     1      -0.488  -1.551  -1.341  1.00  0.00     0.252 C 
HETATM    2  C   UNL     1      -0.564  -1.690   1.128  1.00  0.00     0.101 A 
HETATM    3  C   UNL     1       0.013  -1.079   2.233  1.00  0.00     0.033 A 
HETATM    4  C   UNL     1       0.891  -0.147   1.721  1.00  0.00     0.014 A 
HETATM    5  C   UNL     1       1.764   0.729   2.370  1.00  0.00     0.046 A 
HETATM    6  C   UNL     1       2.591   1.542   1.574  1.00  0.00     0.025 A 
HETATM    7  C   UNL     1       2.539   1.453   0.168  1.00  0.00     0.004 A 
HETATM    8  C   UNL     1       1.653   0.560  -0.460  1.00  0.00     0.031 A 
HETATM    9  C   UNL     1       0.817  -0.218   0.350  1.00  0.00     0.053 A 
HETATM   10  N   UNL     1      -0.083  -1.156  -0.020  1.00  0.00    -0.290 N 
HETATM   11  O   UNL     1      -0.694  -2.770  -1.587  1.00  0.00    -0.270 OA
HETATM   12 CL   UNL     1       1.849   0.814   4.122  1.00  0.00    -0.083 Cl
ENDROOT
BRANCH   1  13
HETATM   13  C   UNL     1      -0.721  -0.536  -2.425  1.00  0.00     0.270 C 
BRANCH  13  14
HETATM   14  O   UNL     1      -1.913  -0.824  -3.131  1.00  0.00    -0.387 OA
HETATM   15  C   UNL     1      -3.022  -0.257  -2.467  1.00  0.00     0.202 C 
ENDBRANCH  13  14
ENDBRANCH   1  13
TORSDOF 2
