REMARK  7 active torsions:
REMARK  status: ('A' for Active; 'I' for Inactive)
REMARK    1  A    between atoms: C_10  and  O_11 
REMARK    2  A    between atoms: C_16  and  O_17 
REMARK    3  A    between atoms: C_23  and  C_24 
REMARK    4  A    between atoms: C_24  and  C_26 
REMARK    5  A    between atoms: C_26  and  C_27 
REMARK    6  A    between atoms: C_27  and  C_28 
REMARK    7  A    between atoms: C_28  and  C_29 
ROOT
HETATM    1  C   UNL     1      10.419  25.290  -3.043  1.00  0.00     0.016 C 
HETATM    2  C   UNL     1      10.351  26.862  -3.083  1.00  0.00    -0.036 C 
HETATM    3  C   UNL     1       9.850  27.182  -4.427  1.00  0.00     0.010 C 
HETATM    4  C   UNL     1      10.858  26.685  -5.598  1.00  0.00     0.007 C 
HETATM    5  C   UNL     1      12.268  27.236  -5.392  1.00  0.00     0.001 C 
HETATM    6  C   UNL     1      13.272  26.736  -6.545  1.00  0.00    -0.036 C 
HETATM    7  C   UNL     1      13.214  25.172  -6.611  1.00  0.00     0.016 C 
HETATM    8  C   UNL     1      12.697  27.289  -7.896  1.00  0.00     0.012 C 
HETATM    9  C   UNL     1      13.722  27.201  -9.017  1.00  0.00     0.032 C 
HETATM   10  C   UNL     1      14.934  27.958  -8.595  1.00  0.00     0.118 C 
HETATM   11  C   UNL     1      15.645  27.311  -7.398  1.00  0.00     0.037 C 
HETATM   12  C   UNL     1      14.662  27.163  -6.238  1.00  0.00    -0.001 C 
HETATM   13  C   UNL     1      15.195  27.057  -4.764  1.00  0.00     0.037 C 
HETATM   14  C   UNL     1      14.230  27.580  -3.741  1.00  0.00     0.123 C 
HETATM   15  C   UNL     1      12.781  26.880  -3.930  1.00  0.00     0.024 C 
HETATM   16  C   UNL     1      11.836  27.359  -2.887  1.00  0.00     0.001 C 
HETATM   17  C   UNL     1      12.148  27.080  -1.287  1.00  0.00     0.006 C 
HETATM   18  C   UNL     1      10.629  27.365  -0.558  1.00  0.00     0.006 C 
HETATM   19  C   UNL     1       9.562  27.340  -1.714  1.00  0.00    -0.002 C 
ENDROOT
BRANCH  19  20
HETATM   20  C   UNL     1       8.481  26.535  -1.228  1.00  0.00    -0.014 C 
HETATM   21  C   UNL     1       7.292  26.435  -2.229  1.00  0.00     0.010 C 
BRANCH  20  22
HETATM   22  C   UNL     1       7.983  27.382   0.019  1.00  0.00     0.005 C 
BRANCH  22  23
HETATM   23  C   UNL     1       6.725  26.805   0.727  1.00  0.00     0.001 C 
BRANCH  23  24
HETATM   24  C   UNL     1       6.304  27.916   1.773  1.00  0.00     0.004 C 
BRANCH  24  25
HETATM   25  C   UNL     1       5.117  27.443   2.678  1.00  0.00    -0.023 C 
HETATM   26  C   UNL     1       3.999  26.786   1.821  1.00  0.00     0.009 C 
HETATM   27  C   UNL     1       5.665  26.428   3.730  1.00  0.00     0.009 C 
ENDBRANCH  24  25
ENDBRANCH  23  24
ENDBRANCH  22  23
ENDBRANCH  20  22
ENDBRANCH  19  20
BRANCH  14  28
HETATM   28  O   UNL     1      14.095  28.926  -3.943  1.00  0.00    -0.395 OA
ATOM     29  HO  UNL     1      13.484  29.257  -3.295  1.00  0.00     0.210 HD
ENDBRANCH  14  28
BRANCH  10  30
HETATM   30  O   UNL     1      15.848  28.047  -9.673  1.00  0.00    -0.396 OA
ATOM     31  HO  UNL     1      16.621  28.530  -9.404  1.00  0.00     0.210 HD
ENDBRANCH  10  30
TORSDOF 7
