MODEL 1
REMARK VINA RESULT:   -11.780      0.000      0.000
REMARK INTER + INTRA:         -14.318
REMARK INTER:                 -14.879
REMARK INTRA:                   0.561
REMARK UNBOUND:                 0.561
REMARK  6 active torsions:
REMARK  status: ('A' for Active; 'I' for Inactive)
REMARK    1  A    between atoms: C_3  and  C_11 
REMARK    2  A    between atoms: C_3  and  O_33 
REMARK    3  A    between atoms: C_6  and  O_31 
REMARK    4  A    between atoms: C_7  and  O_27 
REMARK    5  A    between atoms: C_8  and  C_12 
REMARK    6  A    between atoms: C_12  and  C_19 
ROOT
HETATM    1  C   UNL     1      14.807 149.842  26.243  1.00  0.00     0.095 A 
HETATM    2  C   UNL     1      14.779 149.065  25.040  1.00  0.00     0.112 A 
HETATM    3  C   UNL     1      14.692 149.694  23.732  1.00  0.00     0.262 A 
HETATM    4  C   UNL     1      14.763 151.844  24.931  1.00  0.00     0.104 A 
HETATM    5  C   UNL     1      14.806 151.267  26.171  1.00  0.00     0.028 A 
HETATM    6  N   UNL     1      14.713 151.092  23.782  1.00  0.00    -0.332 N 
ATOM      7  HN  UNL     1      14.690 151.593  22.894  1.00  0.00     0.168 HD
HETATM    8  O   UNL     1      14.668 149.112  22.610  1.00  0.00    -0.267 OA
ENDROOT
BRANCH   2   9
HETATM    9  C   UNL     1      14.513 147.672  25.162  1.00  0.00     0.173 C 
HETATM   10  O   UNL     1      14.968 146.799  24.346  1.00  0.00    -0.292 OA
BRANCH   9  11
HETATM   11  C   UNL     1      13.208 147.229  25.891  1.00  0.00     0.073 C 
HETATM   12  C   UNL     1      11.961 147.865  25.134  1.00  0.00     0.015 C 
HETATM   13  C   UNL     1      10.685 147.272  25.685  1.00  0.00    -0.025 C 
HETATM   14  C   UNL     1      11.799 149.428  25.205  1.00  0.00     0.015 C 
HETATM   15  C   UNL     1      10.450 146.013  25.381  1.00  0.00    -0.025 C 
HETATM   16  C   UNL     1      11.684 145.313  25.025  1.00  0.00     0.013 C 
HETATM   17  C   UNL     1      11.313 143.830  25.176  1.00  0.00     0.009 C 
HETATM   18  C   UNL     1      12.891 145.712  25.984  1.00  0.00     0.005 C 
HETATM   19  C   UNL     1      11.130 143.464  26.656  1.00  0.00     0.001 C 
HETATM   20  C   UNL     1      12.439 143.780  27.372  1.00  0.00     0.000 C 
HETATM   21  C   UNL     1      12.568 145.302  27.439  1.00  0.00     0.006 C 
ENDBRANCH   9  11
ENDBRANCH   2   9
BRANCH   1  22
HETATM   22  O   UNL     1      14.874 149.277  27.421  1.00  0.00    -0.359 OA
ATOM     23  HO  UNL     1      15.637 148.780  27.692  1.00  0.00     0.217 HD
ENDBRANCH   1  22
BRANCH   5  24
HETATM   24  C   UNL     1      14.858 152.063  27.452  1.00  0.00     0.117 C 
HETATM   25  C   UNL     1      14.180 153.446  27.168  1.00  0.00     0.048 C 
HETATM   26  C   UNL     1      15.198 154.565  26.894  1.00  0.00     0.038 C 
HETATM   27  C   UNL     1      16.283 154.641  28.000  1.00  0.00     0.150 C 
HETATM   28  C   UNL     1      17.047 153.320  28.211  1.00  0.00     0.183 A 
HETATM   29  C   UNL     1      16.298 152.051  27.980  1.00  0.00     0.192 A 
HETATM   30  O   UNL     1      17.261 152.509  26.949  1.00  0.00    -0.369 OA
BRANCH  27  31
HETATM   31  O   UNL     1      17.249 155.628  27.468  1.00  0.00    -0.393 OA
ATOM     32  HO  UNL     1      16.711 156.196  26.928  1.00  0.00     0.210 HD
ENDBRANCH  27  31
BRANCH  24  33
HETATM   33  O   UNL     1      14.059 151.471  28.489  1.00  0.00    -0.382 OA
ATOM     34  HO  UNL     1      14.579 151.222  29.243  1.00  0.00     0.211 HD
ENDBRANCH  24  33
ENDBRANCH   5  24
TORSDOF 6
ENDMDL
MODEL 2
REMARK VINA RESULT:   -11.303      0.962      1.950
REMARK INTER + INTRA:         -13.716
REMARK INTER:                 -13.241
REMARK INTRA:                  -0.475
REMARK UNBOUND:                 0.561
REMARK  6 active torsions:
REMARK  status: ('A' for Active; 'I' for Inactive)
REMARK    1  A    between atoms: C_3  and  C_11 
REMARK    2  A    between atoms: C_3  and  O_33 
REMARK    3  A    between atoms: C_6  and  O_31 
REMARK    4  A    between atoms: C_7  and  O_27 
REMARK    5  A    between atoms: C_8  and  C_12 
REMARK    6  A    between atoms: C_12  and  C_19 
ROOT
HETATM    1  C   UNL     1      15.055 149.873  26.132  1.00  0.00     0.095 A 
HETATM    2  C   UNL     1      15.070 149.126  24.911  1.00  0.00     0.112 A 
HETATM    3  C   UNL     1      14.810 149.761  23.629  1.00  0.00     0.262 A 
HETATM    4  C   UNL     1      14.632 151.872  24.884  1.00  0.00     0.104 A 
HETATM    5  C   UNL     1      14.837 151.284  26.102  1.00  0.00     0.028 A 
HETATM    6  N   UNL     1      14.625 151.145  23.718  1.00  0.00    -0.332 N 
ATOM      7  HN  UNL     1      14.472 151.655  22.848  1.00  0.00     0.168 HD
HETATM    8  O   UNL     1      14.805 149.206  22.493  1.00  0.00    -0.267 OA
ENDROOT
BRANCH   2   9
HETATM    9  C   UNL     1      15.023 147.707  25.006  1.00  0.00     0.173 C 
HETATM   10  O   UNL     1      16.055 146.962  24.880  1.00  0.00    -0.292 OA
BRANCH   9  11
HETATM   11  C   UNL     1      13.684 146.986  24.662  1.00  0.00     0.073 C 
HETATM   12  C   UNL     1      13.998 145.462  24.327  1.00  0.00     0.015 C 
HETATM   13  C   UNL     1      12.701 144.697  24.210  1.00  0.00    -0.025 C 
HETATM   14  C   UNL     1      14.815 145.168  23.016  1.00  0.00     0.015 C 
HETATM   15  C   UNL     1      12.039 144.497  25.331  1.00  0.00    -0.025 C 
HETATM   16  C   UNL     1      12.415 145.477  26.351  1.00  0.00     0.013 C 
HETATM   17  C   UNL     1      11.258 145.407  27.359  1.00  0.00     0.009 C 
HETATM   18  C   UNL     1      12.570 146.939  25.742  1.00  0.00     0.005 C 
HETATM   19  C   UNL     1       9.980 146.013  26.762  1.00  0.00     0.001 C 
HETATM   20  C   UNL     1      10.291 147.456  26.379  1.00  0.00     0.000 C 
HETATM   21  C   UNL     1      11.218 147.416  25.163  1.00  0.00     0.006 C 
ENDBRANCH   9  11
ENDBRANCH   2   9
BRANCH   1  22
HETATM   22  O   UNL     1      15.277 149.302  27.287  1.00  0.00    -0.359 OA
ATOM     23  HO  UNL     1      16.103 149.409  27.744  1.00  0.00     0.217 HD
ENDBRANCH   1  22
BRANCH   5  24
HETATM   24  C   UNL     1      14.846 152.051  27.401  1.00  0.00     0.117 C 
HETATM   25  C   UNL     1      14.121 153.414  27.140  1.00  0.00     0.048 C 
HETATM   26  C   UNL     1      15.101 154.577  26.903  1.00  0.00     0.038 C 
HETATM   27  C   UNL     1      16.171 154.666  28.021  1.00  0.00     0.150 C 
HETATM   28  C   UNL     1      16.981 153.370  28.211  1.00  0.00     0.183 A 
HETATM   29  C   UNL     1      16.281 152.080  27.944  1.00  0.00     0.192 A 
HETATM   30  O   UNL     1      17.236 152.596  26.933  1.00  0.00    -0.369 OA
BRANCH  27  31
HETATM   31  O   UNL     1      17.106 155.700  27.521  1.00  0.00    -0.393 OA
ATOM     32  HO  UNL     1      17.810 155.688  28.158  1.00  0.00     0.210 HD
ENDBRANCH  27  31
BRANCH  24  33
HETATM   33  O   UNL     1      14.060 151.408  28.416  1.00  0.00    -0.382 OA
ATOM     34  HO  UNL     1      13.153 151.690  28.399  1.00  0.00     0.211 HD
ENDBRANCH  24  33
ENDBRANCH   5  24
TORSDOF 6
ENDMDL
MODEL 3
REMARK VINA RESULT:   -10.148      2.203      7.982
REMARK INTER + INTRA:         -12.256
REMARK INTER:                 -11.675
REMARK INTRA:                  -0.581
REMARK UNBOUND:                 0.561
REMARK  6 active torsions:
REMARK  status: ('A' for Active; 'I' for Inactive)
REMARK    1  A    between atoms: C_3  and  C_11 
REMARK    2  A    between atoms: C_3  and  O_33 
REMARK    3  A    between atoms: C_6  and  O_31 
REMARK    4  A    between atoms: C_7  and  O_27 
REMARK    5  A    between atoms: C_8  and  C_12 
REMARK    6  A    between atoms: C_12  and  C_19 
ROOT
HETATM    1  C   UNL     1      13.339 148.231  25.196  1.00  0.00     0.095 A 
HETATM    2  C   UNL     1      12.887 149.589  25.148  1.00  0.00     0.112 A 
HETATM    3  C   UNL     1      11.487 149.916  24.931  1.00  0.00     0.262 A 
HETATM    4  C   UNL     1      11.080 147.487  24.925  1.00  0.00     0.104 A 
HETATM    5  C   UNL     1      12.399 147.162  25.089  1.00  0.00     0.028 A 
HETATM    6  N   UNL     1      10.656 148.793  24.856  1.00  0.00    -0.332 N 
ATOM      7  HN  UNL     1       9.656 148.956  24.739  1.00  0.00     0.168 HD
HETATM    8  O   UNL     1      10.977 151.071  24.878  1.00  0.00    -0.267 OA
ENDROOT
BRANCH   2   9
HETATM    9  C   UNL     1      13.871 150.605  24.990  1.00  0.00     0.173 C 
HETATM   10  O   UNL     1      14.846 150.513  24.167  1.00  0.00    -0.292 OA
BRANCH   9  11
HETATM   11  C   UNL     1      14.152 151.557  26.191  1.00  0.00     0.073 C 
HETATM   12  C   UNL     1      15.280 150.903  27.106  1.00  0.00     0.015 C 
HETATM   13  C   UNL     1      15.723 151.904  28.146  1.00  0.00    -0.025 C 
HETATM   14  C   UNL     1      14.904 149.586  27.879  1.00  0.00     0.015 C 
HETATM   15  C   UNL     1      16.426 152.928  27.707  1.00  0.00    -0.025 C 
HETATM   16  C   UNL     1      16.194 153.159  26.281  1.00  0.00     0.013 C 
HETATM   17  C   UNL     1      16.676 154.601  26.067  1.00  0.00     0.009 C 
HETATM   18  C   UNL     1      14.658 152.994  25.895  1.00  0.00     0.005 C 
HETATM   19  C   UNL     1      15.717 155.598  26.733  1.00  0.00     0.001 C 
HETATM   20  C   UNL     1      14.336 155.383  26.124  1.00  0.00     0.000 C 
HETATM   21  C   UNL     1      13.809 154.046  26.646  1.00  0.00     0.006 C 
ENDBRANCH   9  11
ENDBRANCH   2   9
BRANCH   1  22
HETATM   22  O   UNL     1      14.600 147.935  25.379  1.00  0.00    -0.359 OA
ATOM     23  HO  UNL     1      15.098 148.303  26.100  1.00  0.00     0.217 HD
ENDBRANCH   1  22
BRANCH   5  24
HETATM   24  C   UNL     1      12.897 145.741  25.165  1.00  0.00     0.117 C 
HETATM   25  C   UNL     1      11.769 144.821  24.588  1.00  0.00     0.048 C 
HETATM   26  C   UNL     1      10.915 144.163  25.685  1.00  0.00     0.038 C 
HETATM   27  C   UNL     1      11.790 143.450  26.747  1.00  0.00     0.150 C 
HETATM   28  C   UNL     1      12.828 144.370  27.416  1.00  0.00     0.183 A 
HETATM   29  C   UNL     1      13.401 145.472  26.589  1.00  0.00     0.192 A 
HETATM   30  O   UNL     1      12.370 145.802  27.603  1.00  0.00    -0.369 OA
BRANCH  27  31
HETATM   31  O   UNL     1      10.816 143.055  27.789  1.00  0.00    -0.393 OA
ATOM     32  HO  UNL     1       9.977 143.147  27.353  1.00  0.00     0.210 HD
ENDBRANCH  27  31
BRANCH  24  33
HETATM   33  O   UNL     1      14.026 145.516  24.306  1.00  0.00    -0.382 OA
ATOM     34  HO  UNL     1      14.631 144.879  24.668  1.00  0.00     0.211 HD
ENDBRANCH  24  33
ENDBRANCH   5  24
TORSDOF 6
ENDMDL
MODEL 4
REMARK VINA RESULT:   -10.040      1.147      1.956
REMARK INTER + INTRA:         -12.119
REMARK INTER:                 -13.099
REMARK INTRA:                   0.980
REMARK UNBOUND:                 0.561
REMARK  6 active torsions:
REMARK  status: ('A' for Active; 'I' for Inactive)
REMARK    1  A    between atoms: C_3  and  C_11 
REMARK    2  A    between atoms: C_3  and  O_33 
REMARK    3  A    between atoms: C_6  and  O_31 
REMARK    4  A    between atoms: C_7  and  O_27 
REMARK    5  A    between atoms: C_8  and  C_12 
REMARK    6  A    between atoms: C_12  and  C_19 
ROOT
HETATM    1  C   UNL     1      13.694 150.048  26.056  1.00  0.00     0.095 A 
HETATM    2  C   UNL     1      13.517 149.225  24.898  1.00  0.00     0.112 A 
HETATM    3  C   UNL     1      14.145 149.556  23.629  1.00  0.00     0.262 A 
HETATM    4  C   UNL     1      15.162 151.465  24.805  1.00  0.00     0.104 A 
HETATM    5  C   UNL     1      14.548 151.190  25.996  1.00  0.00     0.028 A 
HETATM    6  N   UNL     1      14.970 150.684  23.691  1.00  0.00    -0.332 N 
ATOM      7  HN  UNL     1      15.467 150.949  22.841  1.00  0.00     0.168 HD
HETATM    8  O   UNL     1      14.066 148.903  22.549  1.00  0.00    -0.267 OA
ENDROOT
BRANCH   2   9
HETATM    9  C   UNL     1      12.464 148.268  24.924  1.00  0.00     0.173 C 
HETATM   10  O   UNL     1      11.260 148.561  25.241  1.00  0.00    -0.292 OA
BRANCH   9  11
HETATM   11  C   UNL     1      12.829 146.772  25.164  1.00  0.00     0.073 C 
HETATM   12  C   UNL     1      13.700 146.666  26.492  1.00  0.00     0.015 C 
HETATM   13  C   UNL     1      13.875 145.212  26.862  1.00  0.00    -0.025 C 
HETATM   14  C   UNL     1      15.139 147.299  26.459  1.00  0.00     0.015 C 
HETATM   15  C   UNL     1      12.803 144.592  27.307  1.00  0.00    -0.025 C 
HETATM   16  C   UNL     1      11.579 145.266  26.871  1.00  0.00     0.013 C 
HETATM   17  C   UNL     1      10.495 144.193  27.050  1.00  0.00     0.009 C 
HETATM   18  C   UNL     1      11.676 145.750  25.357  1.00  0.00     0.005 C 
HETATM   19  C   UNL     1      10.657 143.077  26.008  1.00  0.00     0.001 C 
HETATM   20  C   UNL     1      10.573 143.721  24.628  1.00  0.00     0.000 C 
HETATM   21  C   UNL     1      11.854 144.531  24.423  1.00  0.00     0.006 C 
ENDBRANCH   9  11
ENDBRANCH   2   9
BRANCH   1  22
HETATM   22  O   UNL     1      13.120 149.758  27.195  1.00  0.00    -0.359 OA
ATOM     23  HO  UNL     1      13.375 148.995  27.701  1.00  0.00     0.217 HD
ENDBRANCH   1  22
BRANCH   5  24
HETATM   24  C   UNL     1      14.734 152.028  27.236  1.00  0.00     0.117 C 
HETATM   25  C   UNL     1      14.001 153.390  26.991  1.00  0.00     0.048 C 
HETATM   26  C   UNL     1      14.958 154.516  26.564  1.00  0.00     0.038 C 
HETATM   27  C   UNL     1      16.163 154.645  27.531  1.00  0.00     0.150 C 
HETATM   28  C   UNL     1      16.972 153.345  27.692  1.00  0.00     0.183 A 
HETATM   29  C   UNL     1      16.227 152.057  27.591  1.00  0.00     0.192 A 
HETATM   30  O   UNL     1      17.052 152.495  26.439  1.00  0.00    -0.369 OA
BRANCH  27  31
HETATM   31  O   UNL     1      17.041 155.630  26.858  1.00  0.00    -0.393 OA
ATOM     32  HO  UNL     1      17.406 156.128  27.578  1.00  0.00     0.210 HD
ENDBRANCH  27  31
BRANCH  24  33
HETATM   33  O   UNL     1      14.075 151.459  28.378  1.00  0.00    -0.382 OA
ATOM     34  HO  UNL     1      13.977 152.086  29.085  1.00  0.00     0.211 HD
ENDBRANCH  24  33
ENDBRANCH   5  24
TORSDOF 6
ENDMDL
MODEL 5
REMARK VINA RESULT:    -9.531      1.236      2.283
REMARK INTER + INTRA:         -11.477
REMARK INTER:                 -10.572
REMARK INTRA:                  -0.906
REMARK UNBOUND:                 0.561
REMARK  6 active torsions:
REMARK  status: ('A' for Active; 'I' for Inactive)
REMARK    1  A    between atoms: C_3  and  C_11 
REMARK    2  A    between atoms: C_3  and  O_33 
REMARK    3  A    between atoms: C_6  and  O_31 
REMARK    4  A    between atoms: C_7  and  O_27 
REMARK    5  A    between atoms: C_8  and  C_12 
REMARK    6  A    between atoms: C_12  and  C_19 
ROOT
HETATM    1  C   UNL     1      15.325 149.568  26.095  1.00  0.00     0.095 A 
HETATM    2  C   UNL     1      15.384 148.691  24.965  1.00  0.00     0.112 A 
HETATM    3  C   UNL     1      14.722 149.020  23.712  1.00  0.00     0.262 A 
HETATM    4  C   UNL     1      14.071 151.136  24.791  1.00  0.00     0.104 A 
HETATM    5  C   UNL     1      14.655 150.824  25.988  1.00  0.00     0.028 A 
HETATM    6  N   UNL     1      14.111 150.279  23.718  1.00  0.00    -0.332 N 
ATOM      7  HN  UNL     1      13.659 150.584  22.856  1.00  0.00     0.168 HD
HETATM    8  O   UNL     1      14.713 148.330  22.654  1.00  0.00    -0.267 OA
ENDROOT
BRANCH   2   9
HETATM    9  C   UNL     1      15.821 147.355  25.190  1.00  0.00     0.173 C 
HETATM   10  O   UNL     1      16.894 146.876  24.686  1.00  0.00    -0.292 OA
BRANCH   9  11
HETATM   11  C   UNL     1      14.752 146.274  25.532  1.00  0.00     0.073 C 
HETATM   12  C   UNL     1      14.831 145.955  27.089  1.00  0.00     0.015 C 
HETATM   13  C   UNL     1      13.664 145.080  27.482  1.00  0.00    -0.025 C 
HETATM   14  C   UNL     1      16.129 145.235  27.610  1.00  0.00     0.015 C 
HETATM   15  C   UNL     1      12.479 145.656  27.481  1.00  0.00    -0.025 C 
HETATM   16  C   UNL     1      12.464 146.841  26.623  1.00  0.00     0.013 C 
HETATM   17  C   UNL     1      10.969 147.080  26.366  1.00  0.00     0.009 C 
HETATM   18  C   UNL     1      13.258 146.599  25.264  1.00  0.00     0.005 C 
HETATM   19  C   UNL     1      10.394 145.990  25.450  1.00  0.00     0.001 C 
HETATM   20  C   UNL     1      11.188 146.018  24.148  1.00  0.00     0.000 C 
HETATM   21  C   UNL     1      12.583 145.470  24.452  1.00  0.00     0.006 C 
ENDBRANCH   9  11
ENDBRANCH   2   9
BRANCH   1  22
HETATM   22  O   UNL     1      15.910 149.268  27.225  1.00  0.00    -0.359 OA
ATOM     23  HO  UNL     1      15.930 148.377  27.554  1.00  0.00     0.217 HD
ENDBRANCH   1  22
BRANCH   5  24
HETATM   24  C   UNL     1      14.626 151.740  27.187  1.00  0.00     0.117 C 
HETATM   25  C   UNL     1      13.691 152.944  26.829  1.00  0.00     0.048 C 
HETATM   26  C   UNL     1      14.470 154.195  26.387  1.00  0.00     0.038 C 
HETATM   27  C   UNL     1      15.579 154.572  27.403  1.00  0.00     0.150 C 
HETATM   28  C   UNL     1      16.583 153.437  27.677  1.00  0.00     0.183 A 
HETATM   29  C   UNL     1      16.070 152.038  27.612  1.00  0.00     0.192 A 
HETATM   30  O   UNL     1      16.876 152.555  26.480  1.00  0.00    -0.369 OA
BRANCH  27  31
HETATM   31  O   UNL     1      16.318 155.658  26.719  1.00  0.00    -0.393 OA
ATOM     32  HO  UNL     1      16.054 156.437  27.194  1.00  0.00     0.210 HD
ENDBRANCH  27  31
BRANCH  24  33
HETATM   33  O   UNL     1      14.005 151.122  28.325  1.00  0.00    -0.382 OA
ATOM     34  HO  UNL     1      14.634 150.911  29.005  1.00  0.00     0.211 HD
ENDBRANCH  24  33
ENDBRANCH   5  24
TORSDOF 6
ENDMDL
MODEL 6
REMARK VINA RESULT:    -8.926      1.630      2.452
REMARK INTER + INTRA:         -10.713
REMARK INTER:                 -10.613
REMARK INTRA:                  -0.101
REMARK UNBOUND:                 0.561
REMARK  6 active torsions:
REMARK  status: ('A' for Active; 'I' for Inactive)
REMARK    1  A    between atoms: C_3  and  C_11 
REMARK    2  A    between atoms: C_3  and  O_33 
REMARK    3  A    between atoms: C_6  and  O_31 
REMARK    4  A    between atoms: C_7  and  O_27 
REMARK    5  A    between atoms: C_8  and  C_12 
REMARK    6  A    between atoms: C_12  and  C_19 
ROOT
HETATM    1  C   UNL     1      14.791 149.527  25.467  1.00  0.00     0.095 A 
HETATM    2  C   UNL     1      13.870 148.875  24.587  1.00  0.00     0.112 A 
HETATM    3  C   UNL     1      12.463 149.242  24.552  1.00  0.00     0.262 A 
HETATM    4  C   UNL     1      13.029 150.961  26.222  1.00  0.00     0.104 A 
HETATM    5  C   UNL     1      14.347 150.602  26.295  1.00  0.00     0.028 A 
HETATM    6  N   UNL     1      12.145 150.315  25.392  1.00  0.00    -0.332 N 
ATOM      7  HN  UNL     1      11.179 150.643  25.388  1.00  0.00     0.168 HD
HETATM    8  O   UNL     1      11.566 148.743  23.815  1.00  0.00    -0.267 OA
ENDROOT
BRANCH   2   9
HETATM    9  C   UNL     1      14.284 147.652  23.988  1.00  0.00     0.173 C 
HETATM   10  O   UNL     1      14.441 147.509  22.726  1.00  0.00    -0.292 OA
BRANCH   9  11
HETATM   11  C   UNL     1      13.980 146.320  24.737  1.00  0.00     0.073 C 
HETATM   12  C   UNL     1      14.674 146.370  26.168  1.00  0.00     0.015 C 
HETATM   13  C   UNL     1      14.210 145.192  26.992  1.00  0.00    -0.025 C 
HETATM   14  C   UNL     1      16.246 146.354  26.205  1.00  0.00     0.015 C 
HETATM   15  C   UNL     1      12.959 145.225  27.403  1.00  0.00    -0.025 C 
HETATM   16  C   UNL     1      12.149 146.111  26.566  1.00  0.00     0.013 C 
HETATM   17  C   UNL     1      10.709 145.668  26.865  1.00  0.00     0.009 C 
HETATM   18  C   UNL     1      12.499 145.952  25.021  1.00  0.00     0.005 C 
HETATM   19  C   UNL     1      10.430 144.283  26.264  1.00  0.00     0.001 C 
HETATM   20  C   UNL     1      10.677 144.377  24.762  1.00  0.00     0.000 C 
HETATM   21  C   UNL     1      12.186 144.512  24.554  1.00  0.00     0.006 C 
ENDBRANCH   9  11
ENDBRANCH   2   9
BRANCH   1  22
HETATM   22  O   UNL     1      16.054 149.190  25.508  1.00  0.00    -0.359 OA
ATOM     23  HO  UNL     1      16.723 149.803  25.791  1.00  0.00     0.217 HD
ENDBRANCH   1  22
BRANCH   5  24
HETATM   24  C   UNL     1      15.342 151.287  27.198  1.00  0.00     0.117 C 
HETATM   25  C   UNL     1      14.532 151.964  28.355  1.00  0.00     0.048 C 
HETATM   26  C   UNL     1      14.302 153.467  28.123  1.00  0.00     0.038 C 
HETATM   27  C   UNL     1      15.624 154.209  27.799  1.00  0.00     0.150 C 
HETATM   28  C   UNL     1      16.378 153.633  26.586  1.00  0.00     0.183 A 
HETATM   29  C   UNL     1      16.261 152.166  26.339  1.00  0.00     0.192 A 
HETATM   30  O   UNL     1      15.483 153.097  25.486  1.00  0.00    -0.369 OA
BRANCH  27  31
HETATM   31  O   UNL     1      15.174 155.571  27.432  1.00  0.00    -0.393 OA
ATOM     32  HO  UNL     1      15.882 156.127  27.736  1.00  0.00     0.210 HD
ENDBRANCH  27  31
BRANCH  24  33
HETATM   33  O   UNL     1      16.208 150.351  27.859  1.00  0.00    -0.382 OA
ATOM     34  HO  UNL     1      17.074 150.326  27.468  1.00  0.00     0.211 HD
ENDBRANCH  24  33
ENDBRANCH   5  24
TORSDOF 6
ENDMDL
MODEL 7
REMARK VINA RESULT:    -8.917      2.284      7.941
REMARK INTER + INTRA:         -10.701
REMARK INTER:                 -10.988
REMARK INTRA:                   0.287
REMARK UNBOUND:                 0.561
REMARK  6 active torsions:
REMARK  status: ('A' for Active; 'I' for Inactive)
REMARK    1  A    between atoms: C_3  and  C_11 
REMARK    2  A    between atoms: C_3  and  O_33 
REMARK    3  A    between atoms: C_6  and  O_31 
REMARK    4  A    between atoms: C_7  and  O_27 
REMARK    5  A    between atoms: C_8  and  C_12 
REMARK    6  A    between atoms: C_12  and  C_19 
ROOT
HETATM    1  C   UNL     1      13.029 147.990  25.174  1.00  0.00     0.095 A 
HETATM    2  C   UNL     1      12.587 149.350  25.111  1.00  0.00     0.112 A 
HETATM    3  C   UNL     1      11.196 149.684  24.848  1.00  0.00     0.262 A 
HETATM    4  C   UNL     1      10.777 147.258  24.827  1.00  0.00     0.104 A 
HETATM    5  C   UNL     1      12.087 146.926  25.035  1.00  0.00     0.028 A 
HETATM    6  N   UNL     1      10.363 148.566  24.744  1.00  0.00    -0.332 N 
ATOM      7  HN  UNL     1       9.368 148.734  24.595  1.00  0.00     0.168 HD
HETATM    8  O   UNL     1      10.694 150.842  24.779  1.00  0.00    -0.267 OA
ENDROOT
BRANCH   2   9
HETATM    9  C   UNL     1      13.581 150.361  24.987  1.00  0.00     0.173 C 
HETATM   10  O   UNL     1      14.434 150.390  24.034  1.00  0.00    -0.292 OA
BRANCH   9  11
HETATM   11  C   UNL     1      14.057 151.094  26.277  1.00  0.00     0.073 C 
HETATM   12  C   UNL     1      15.399 150.407  26.788  1.00  0.00     0.015 C 
HETATM   13  C   UNL     1      15.994 151.237  27.901  1.00  0.00    -0.025 C 
HETATM   14  C   UNL     1      15.291 148.936  27.331  1.00  0.00     0.015 C 
HETATM   15  C   UNL     1      16.513 152.396  27.550  1.00  0.00    -0.025 C 
HETATM   16  C   UNL     1      15.957 152.864  26.280  1.00  0.00     0.013 C 
HETATM   17  C   UNL     1      16.283 154.365  26.277  1.00  0.00     0.009 C 
HETATM   18  C   UNL     1      14.388 152.608  26.188  1.00  0.00     0.005 C 
HETATM   19  C   UNL     1      15.431 155.108  27.315  1.00  0.00     0.001 C 
HETATM   20  C   UNL     1      13.967 154.862  26.969  1.00  0.00     0.000 C 
HETATM   21  C   UNL     1      13.658 153.401  27.298  1.00  0.00     0.006 C 
ENDBRANCH   9  11
ENDBRANCH   2   9
BRANCH   1  22
HETATM   22  O   UNL     1      14.282 147.687  25.399  1.00  0.00    -0.359 OA
ATOM     23  HO  UNL     1      14.888 147.517  24.687  1.00  0.00     0.217 HD
ENDBRANCH   1  22
BRANCH   5  24
HETATM   24  C   UNL     1      12.576 145.502  25.127  1.00  0.00     0.117 C 
HETATM   25  C   UNL     1      11.397 144.576  24.673  1.00  0.00     0.048 C 
HETATM   26  C   UNL     1      10.623 143.971  25.856  1.00  0.00     0.038 C 
HETATM   27  C   UNL     1      11.569 143.286  26.875  1.00  0.00     0.150 C 
HETATM   28  C   UNL     1      12.665 144.217  27.427  1.00  0.00     0.183 A 
HETATM   29  C   UNL     1      13.184 145.280  26.518  1.00  0.00     0.192 A 
HETATM   30  O   UNL     1      12.237 145.661  27.594  1.00  0.00    -0.369 OA
BRANCH  27  31
HETATM   31  O   UNL     1      10.673 142.943  28.002  1.00  0.00    -0.393 OA
ATOM     32  HO  UNL     1      10.865 143.612  28.648  1.00  0.00     0.210 HD
ENDBRANCH  27  31
BRANCH  24  33
HETATM   33  O   UNL     1      13.633 145.231  24.194  1.00  0.00    -0.382 OA
ATOM     34  HO  UNL     1      14.357 145.840  24.285  1.00  0.00     0.211 HD
ENDBRANCH  24  33
ENDBRANCH   5  24
TORSDOF 6
ENDMDL
MODEL 8
REMARK VINA RESULT:    -8.803      1.775      2.763
REMARK INTER + INTRA:         -10.557
REMARK INTER:                 -10.183
REMARK INTRA:                  -0.375
REMARK UNBOUND:                 0.561
REMARK  6 active torsions:
REMARK  status: ('A' for Active; 'I' for Inactive)
REMARK    1  A    between atoms: C_3  and  C_11 
REMARK    2  A    between atoms: C_3  and  O_33 
REMARK    3  A    between atoms: C_6  and  O_31 
REMARK    4  A    between atoms: C_7  and  O_27 
REMARK    5  A    between atoms: C_8  and  C_12 
REMARK    6  A    between atoms: C_12  and  C_19 
ROOT
HETATM    1  C   UNL     1      14.487 150.286  25.601  1.00  0.00     0.095 A 
HETATM    2  C   UNL     1      14.731 148.876  25.559  1.00  0.00     0.112 A 
HETATM    3  C   UNL     1      15.506 148.208  26.592  1.00  0.00     0.262 A 
HETATM    4  C   UNL     1      15.654 150.409  27.688  1.00  0.00     0.104 A 
HETATM    5  C   UNL     1      14.960 151.059  26.704  1.00  0.00     0.028 A 
HETATM    6  N   UNL     1      15.904 149.059  27.629  1.00  0.00    -0.332 N 
ATOM      7  HN  UNL     1      16.423 148.644  28.403  1.00  0.00     0.168 HD
HETATM    8  O   UNL     1      15.777 146.976  26.662  1.00  0.00    -0.267 OA
ENDROOT
BRANCH   2   9
HETATM    9  C   UNL     1      14.482 148.201  24.331  1.00  0.00     0.173 C 
HETATM   10  O   UNL     1      14.832 148.667  23.193  1.00  0.00    -0.292 OA
BRANCH   9  11
HETATM   11  C   UNL     1      13.280 147.211  24.260  1.00  0.00     0.073 C 
HETATM   12  C   UNL     1      13.847 145.729  24.142  1.00  0.00     0.015 C 
HETATM   13  C   UNL     1      12.711 144.744  24.296  1.00  0.00    -0.025 C 
HETATM   14  C   UNL     1      14.595 145.349  22.812  1.00  0.00     0.015 C 
HETATM   15  C   UNL     1      12.193 144.638  25.502  1.00  0.00    -0.025 C 
HETATM   16  C   UNL     1      12.459 145.833  26.302  1.00  0.00     0.013 C 
HETATM   17  C   UNL     1      11.421 145.748  27.432  1.00  0.00     0.009 C 
HETATM   18  C   UNL     1      12.286 147.168  25.452  1.00  0.00     0.005 C 
HETATM   19  C   UNL     1      10.008 146.009  26.892  1.00  0.00     0.001 C 
HETATM   20  C   UNL     1      10.010 147.391  26.249  1.00  0.00     0.000 C 
HETATM   21  C   UNL     1      10.826 147.295  24.959  1.00  0.00     0.006 C 
ENDBRANCH   9  11
ENDBRANCH   2   9
BRANCH   1  22
HETATM   22  O   UNL     1      13.800 150.890  24.666  1.00  0.00    -0.359 OA
ATOM     23  HO  UNL     1      12.869 151.053  24.760  1.00  0.00     0.217 HD
ENDBRANCH   1  22
BRANCH   5  24
HETATM   24  C   UNL     1      14.671 152.539  26.736  1.00  0.00     0.117 C 
HETATM   25  C   UNL     1      15.735 153.240  25.826  1.00  0.00     0.048 C 
HETATM   26  C   UNL     1      16.898 153.850  26.627  1.00  0.00     0.038 C 
HETATM   27  C   UNL     1      16.391 154.762  27.774  1.00  0.00     0.150 C 
HETATM   28  C   UNL     1      15.436 154.055  28.753  1.00  0.00     0.183 A 
HETATM   29  C   UNL     1      14.554 152.986  28.199  1.00  0.00     0.192 A 
HETATM   30  O   UNL     1      15.746 152.590  28.987  1.00  0.00    -0.369 OA
BRANCH  27  31
HETATM   31  O   UNL     1      17.625 155.091  28.523  1.00  0.00    -0.393 OA
ATOM     32  HO  UNL     1      17.343 155.766  29.129  1.00  0.00     0.210 HD
ENDBRANCH  27  31
BRANCH  24  33
HETATM   33  O   UNL     1      13.408 152.857  26.131  1.00  0.00    -0.382 OA
ATOM     34  HO  UNL     1      13.421 152.737  25.189  1.00  0.00     0.211 HD
ENDBRANCH  24  33
ENDBRANCH   5  24
TORSDOF 6
ENDMDL
