MODEL 1
REMARK VINA RESULT:    -7.395      0.000      0.000
REMARK INTER + INTRA:          -8.190
REMARK INTER:                  -8.259
REMARK INTRA:                   0.069
REMARK UNBOUND:                 0.069
REMARK  2 active torsions:
REMARK  status: ('A' for Active; 'I' for Inactive)
REMARK    1  A    between atoms: C_1  and  C_2 
REMARK    2  A    between atoms: CA_5  and  C_6 
ROOT
HETATM    1  C   UNL     1      58.895  17.158  13.995  1.00  0.00     0.083 A 
HETATM    2  C   UNL     1      59.829  16.498  14.755  1.00  0.00     0.038 A 
HETATM    3  C   UNL     1      59.601  16.328  16.112  1.00  0.00     0.090 A 
HETATM    4  CA  UNL     1      57.590  17.435  15.983  1.00  0.00     0.149 A 
HETATM    5  C   UNL     1      57.740  17.630  14.586  1.00  0.00     0.167 A 
HETATM    6  F   UNL     1      56.843  18.250  13.843  1.00  0.00    -0.202 F 
HETATM    7  N   UNL     1      58.532  16.758  16.693  1.00  0.00    -0.358 N 
ATOM      8  HN  UNL     1      58.393  16.588  17.689  1.00  0.00     0.165 HD
ENDROOT
BRANCH   1   9
HETATM    9  C   UNL     1      59.088  17.313  12.506  1.00  0.00     0.212 C 
HETATM   10  O   UNL     1      58.913  16.265  11.869  1.00  0.00    -0.644 OA
HETATM   11  O   UNL     1      59.302  18.425  11.916  1.00  0.00    -0.644 OA
ENDBRANCH   1   9
BRANCH   4  12
HETATM   12  C   UNL     1      56.344  17.927  16.678  1.00  0.00     0.230 C 
HETATM   13  O   UNL     1      55.527  18.764  16.121  1.00  0.00    -0.643 OA
HETATM   14  OXT UNL     1      56.083  17.585  17.841  1.00  0.00    -0.643 OA
ENDBRANCH   4  12
TORSDOF 2
ENDMDL
MODEL 2
REMARK VINA RESULT:    -6.626      0.784      4.199
REMARK INTER + INTRA:          -7.332
REMARK INTER:                  -7.452
REMARK INTRA:                   0.120
REMARK UNBOUND:                 0.069
REMARK  2 active torsions:
REMARK  status: ('A' for Active; 'I' for Inactive)
REMARK    1  A    between atoms: C_1  and  C_2 
REMARK    2  A    between atoms: CA_5  and  C_6 
ROOT
HETATM    1  C   UNL     1      57.584  17.473  15.857  1.00  0.00     0.083 A 
HETATM    2  C   UNL     1      58.594  16.864  16.561  1.00  0.00     0.038 A 
HETATM    3  C   UNL     1      59.730  16.440  15.887  1.00  0.00     0.090 A 
HETATM    4  CA  UNL     1      58.899  17.186  13.877  1.00  0.00     0.149 A 
HETATM    5  C   UNL     1      57.718  17.666  14.497  1.00  0.00     0.167 A 
HETATM    6  F   UNL     1      56.747  18.266  13.833  1.00  0.00    -0.202 F 
HETATM    7  N   UNL     1      59.883  16.607  14.617  1.00  0.00    -0.358 N 
ATOM      8  HN  UNL     1      60.746  16.303  14.166  1.00  0.00     0.165 HD
ENDROOT
BRANCH   1   9
HETATM    9  C   UNL     1      56.359  17.994  16.568  1.00  0.00     0.212 C 
HETATM   10  O   UNL     1      56.218  17.542  17.713  1.00  0.00    -0.644 OA
HETATM   11  O   UNL     1      55.584  18.897  16.107  1.00  0.00    -0.644 OA
ENDBRANCH   1   9
BRANCH   4  12
HETATM   12  C   UNL     1      59.097  17.376  12.393  1.00  0.00     0.230 C 
HETATM   13  O   UNL     1      59.319  18.540  11.869  1.00  0.00    -0.643 OA
HETATM   14  OXT UNL     1      59.000  16.422  11.607  1.00  0.00    -0.643 OA
ENDBRANCH   4  12
TORSDOF 2
ENDMDL
MODEL 3
REMARK VINA RESULT:    -5.826      1.704      4.299
REMARK INTER + INTRA:          -6.439
REMARK INTER:                  -6.636
REMARK INTRA:                   0.197
REMARK UNBOUND:                 0.069
REMARK  2 active torsions:
REMARK  status: ('A' for Active; 'I' for Inactive)
REMARK    1  A    between atoms: C_1  and  C_2 
REMARK    2  A    between atoms: CA_5  and  C_6 
ROOT
HETATM    1  C   UNL     1      57.470  18.047  15.809  1.00  0.00     0.083 A 
HETATM    2  C   UNL     1      57.000  16.845  16.279  1.00  0.00     0.038 A 
HETATM    3  C   UNL     1      57.085  15.721  15.472  1.00  0.00     0.090 A 
HETATM    4  CA  UNL     1      58.062  16.928  13.776  1.00  0.00     0.149 A 
HETATM    5  C   UNL     1      58.031  18.117  14.550  1.00  0.00     0.167 A 
HETATM    6  F   UNL     1      58.492  19.274  14.114  1.00  0.00    -0.202 F 
HETATM    7  N   UNL     1      57.604  15.756  14.291  1.00  0.00    -0.358 N 
ATOM      8  HN  UNL     1      57.670  14.900  13.741  1.00  0.00     0.165 HD
ENDROOT
BRANCH   1   9
HETATM    9  C   UNL     1      57.441  19.277  16.683  1.00  0.00     0.212 C 
HETATM   10  O   UNL     1      57.866  19.084  17.830  1.00  0.00    -0.644 OA
HETATM   11  O   UNL     1      57.119  20.445  16.278  1.00  0.00    -0.644 OA
ENDBRANCH   1   9
BRANCH   4  12
HETATM   12  C   UNL     1      58.669  16.950  12.395  1.00  0.00     0.230 C 
HETATM   13  O   UNL     1      58.858  18.051  11.740  1.00  0.00    -0.643 OA
HETATM   14  OXT UNL     1      58.961  15.897  11.809  1.00  0.00    -0.643 OA
ENDBRANCH   4  12
TORSDOF 2
ENDMDL
MODEL 4
REMARK VINA RESULT:    -5.161     14.819     15.697
REMARK INTER + INTRA:          -5.696
REMARK INTER:                  -5.718
REMARK INTRA:                   0.022
REMARK UNBOUND:                 0.069
REMARK  2 active torsions:
REMARK  status: ('A' for Active; 'I' for Inactive)
REMARK    1  A    between atoms: C_1  and  C_2 
REMARK    2  A    between atoms: CA_5  and  C_6 
ROOT
HETATM    1  C   UNL     1      66.681  24.457  25.467  1.00  0.00     0.083 A 
HETATM    2  C   UNL     1      67.684  25.235  25.991  1.00  0.00     0.038 A 
HETATM    3  C   UNL     1      68.869  24.634  26.391  1.00  0.00     0.090 A 
HETATM    4  CA  UNL     1      68.099  22.554  25.785  1.00  0.00     0.149 A 
HETATM    5  C   UNL     1      66.869  23.096  25.333  1.00  0.00     0.167 A 
HETATM    6  F   UNL     1      65.903  22.361  24.815  1.00  0.00    -0.202 F 
HETATM    7  N   UNL     1      69.073  23.365  26.278  1.00  0.00    -0.358 N 
ATOM      8  HN  UNL     1      69.969  22.969  26.561  1.00  0.00     0.165 HD
ENDROOT
BRANCH   1   9
HETATM    9  C   UNL     1      65.401  25.086  24.974  1.00  0.00     0.212 C 
HETATM   10  O   UNL     1      65.562  25.863  24.022  1.00  0.00    -0.644 OA
HETATM   11  O   UNL     1      64.235  24.785  25.400  1.00  0.00    -0.644 OA
ENDBRANCH   1   9
BRANCH   4  12
HETATM   12  C   UNL     1      68.357  21.073  25.656  1.00  0.00     0.230 C 
HETATM   13  O   UNL     1      67.404  20.198  25.714  1.00  0.00    -0.643 OA
HETATM   14  OXT UNL     1      69.510  20.632  25.544  1.00  0.00    -0.643 OA
ENDBRANCH   4  12
TORSDOF 2
ENDMDL
MODEL 5
REMARK VINA RESULT:    -5.149     14.360     15.384
REMARK INTER + INTRA:          -5.683
REMARK INTER:                  -5.521
REMARK INTRA:                  -0.162
REMARK UNBOUND:                 0.069
REMARK  2 active torsions:
REMARK  status: ('A' for Active; 'I' for Inactive)
REMARK    1  A    between atoms: C_1  and  C_2 
REMARK    2  A    between atoms: CA_5  and  C_6 
ROOT
HETATM    1  C   UNL     1      64.653  26.520   4.159  1.00  0.00     0.083 A 
HETATM    2  C   UNL     1      65.353  26.183   3.026  1.00  0.00     0.038 A 
HETATM    3  C   UNL     1      66.571  25.531   3.151  1.00  0.00     0.090 A 
HETATM    4  CA  UNL     1      66.424  25.550   5.445  1.00  0.00     0.149 A 
HETATM    5  C   UNL     1      65.163  26.196   5.400  1.00  0.00     0.167 A 
HETATM    6  F   UNL     1      64.475  26.513   6.481  1.00  0.00    -0.202 F 
HETATM    7  N   UNL     1      67.072  25.216   4.297  1.00  0.00    -0.358 N 
ATOM      8  HN  UNL     1      67.959  24.714   4.342  1.00  0.00     0.165 HD
ENDROOT
BRANCH   1   9
HETATM    9  C   UNL     1      63.301  27.182   4.056  1.00  0.00     0.212 C 
HETATM   10  O   UNL     1      62.355  26.426   4.318  1.00  0.00    -0.644 OA
HETATM   11  O   UNL     1      63.119  28.426   3.833  1.00  0.00    -0.644 OA
ENDBRANCH   1   9
BRANCH   4  12
HETATM   12  C   UNL     1      67.023  25.169   6.777  1.00  0.00     0.230 C 
HETATM   13  O   UNL     1      66.785  24.028   7.341  1.00  0.00    -0.643 OA
HETATM   14  OXT UNL     1      67.730  25.966   7.411  1.00  0.00    -0.643 OA
ENDBRANCH   4  12
TORSDOF 2
ENDMDL
MODEL 6
REMARK VINA RESULT:    -5.050     13.921     15.454
REMARK INTER + INTRA:          -5.572
REMARK INTER:                  -5.392
REMARK INTRA:                  -0.180
REMARK UNBOUND:                 0.069
REMARK  2 active torsions:
REMARK  status: ('A' for Active; 'I' for Inactive)
REMARK    1  A    between atoms: C_1  and  C_2 
REMARK    2  A    between atoms: CA_5  and  C_6 
ROOT
HETATM    1  C   UNL     1      65.131  27.505   4.992  1.00  0.00     0.083 A 
HETATM    2  C   UNL     1      65.606  28.539   5.762  1.00  0.00     0.038 A 
HETATM    3  C   UNL     1      66.451  28.259   6.825  1.00  0.00     0.090 A 
HETATM    4  CA  UNL     1      66.358  26.002   6.395  1.00  0.00     0.149 A 
HETATM    5  C   UNL     1      65.509  26.209   5.278  1.00  0.00     0.167 A 
HETATM    6  F   UNL     1      65.056  25.225   4.523  1.00  0.00    -0.202 F 
HETATM    7  N   UNL     1      66.821  27.058   7.116  1.00  0.00    -0.358 N 
ATOM      8  HN  UNL     1      67.465  26.900   7.892  1.00  0.00     0.165 HD
ENDROOT
BRANCH   1   9
HETATM    9  C   UNL     1      64.253  27.781   3.796  1.00  0.00     0.212 C 
HETATM   10  O   UNL     1      64.855  27.734   2.714  1.00  0.00    -0.644 OA
HETATM   11  O   UNL     1      62.987  27.940   3.849  1.00  0.00    -0.644 OA
ENDBRANCH   1   9
BRANCH   4  12
HETATM   12  C   UNL     1      66.805  24.605   6.748  1.00  0.00     0.230 C 
HETATM   13  O   UNL     1      66.101  23.825   7.505  1.00  0.00    -0.643 OA
HETATM   14  OXT UNL     1      67.900  24.168   6.365  1.00  0.00    -0.643 OA
ENDBRANCH   4  12
TORSDOF 2
ENDMDL
MODEL 7
REMARK VINA RESULT:    -5.031     14.299     15.387
REMARK INTER + INTRA:          -5.550
REMARK INTER:                  -5.415
REMARK INTRA:                  -0.136
REMARK UNBOUND:                 0.069
REMARK  2 active torsions:
REMARK  status: ('A' for Active; 'I' for Inactive)
REMARK    1  A    between atoms: C_1  and  C_2 
REMARK    2  A    between atoms: CA_5  and  C_6 
ROOT
HETATM    1  C   UNL     1      66.457  26.089   6.202  1.00  0.00     0.083 A 
HETATM    2  C   UNL     1      66.937  27.280   6.692  1.00  0.00     0.038 A 
HETATM    3  C   UNL     1      66.310  28.463   6.330  1.00  0.00     0.090 A 
HETATM    4  CA  UNL     1      64.785  27.338   5.028  1.00  0.00     0.149 A 
HETATM    5  C   UNL     1      65.356  26.086   5.370  1.00  0.00     0.167 A 
HETATM    6  F   UNL     1      64.896  24.934   4.916  1.00  0.00    -0.202 F 
HETATM    7  N   UNL     1      65.280  28.490   5.554  1.00  0.00    -0.358 N 
ATOM      8  HN  UNL     1      64.834  29.381   5.334  1.00  0.00     0.165 HD
ENDROOT
BRANCH   1   9
HETATM    9  C   UNL     1      67.083  24.781   6.619  1.00  0.00     0.212 C 
HETATM   10  O   UNL     1      68.169  24.550   6.068  1.00  0.00    -0.644 OA
HETATM   11  O   UNL     1      66.622  24.016   7.531  1.00  0.00    -0.644 OA
ENDBRANCH   1   9
BRANCH   4  12
HETATM   12  C   UNL     1      63.576  27.389   4.126  1.00  0.00     0.230 C 
HETATM   13  O   UNL     1      62.535  26.644   4.323  1.00  0.00    -0.643 OA
HETATM   14  OXT UNL     1      63.559  28.114   3.121  1.00  0.00    -0.643 OA
ENDBRANCH   4  12
TORSDOF 2
ENDMDL
MODEL 8
REMARK VINA RESULT:    -5.009     12.369     13.874
REMARK INTER + INTRA:          -5.525
REMARK INTER:                  -5.494
REMARK INTRA:                  -0.032
REMARK UNBOUND:                 0.069
REMARK  2 active torsions:
REMARK  status: ('A' for Active; 'I' for Inactive)
REMARK    1  A    between atoms: C_1  and  C_2 
REMARK    2  A    between atoms: CA_5  and  C_6 
ROOT
HETATM    1  C   UNL     1      64.640  18.538  25.268  1.00  0.00     0.083 A 
HETATM    2  C   UNL     1      64.223  19.786  24.876  1.00  0.00     0.038 A 
HETATM    3  C   UNL     1      65.145  20.820  24.812  1.00  0.00     0.090 A 
HETATM    4  CA  UNL     1      66.845  19.439  25.510  1.00  0.00     0.149 A 
HETATM    5  C   UNL     1      65.968  18.327  25.579  1.00  0.00     0.167 A 
HETATM    6  F   UNL     1      66.360  17.119  25.940  1.00  0.00    -0.202 F 
HETATM    7  N   UNL     1      66.392  20.653  25.096  1.00  0.00    -0.358 N 
ATOM      8  HN  UNL     1      67.042  21.435  25.011  1.00  0.00     0.165 HD
ENDROOT
BRANCH   1   9
HETATM    9  C   UNL     1      63.673  17.380  25.296  1.00  0.00     0.212 C 
HETATM   10  O   UNL     1      62.537  17.689  25.686  1.00  0.00    -0.644 OA
HETATM   11  O   UNL     1      63.934  16.208  24.863  1.00  0.00    -0.644 OA
ENDBRANCH   1   9
BRANCH   4  12
HETATM   12  C   UNL     1      68.308  19.260  25.835  1.00  0.00     0.230 C 
HETATM   13  O   UNL     1      69.109  18.586  25.071  1.00  0.00    -0.643 OA
HETATM   14  OXT UNL     1      68.790  19.711  26.884  1.00  0.00    -0.643 OA
ENDBRANCH   4  12
TORSDOF 2
ENDMDL
MODEL 9
REMARK VINA RESULT:    -4.905     13.743     14.845
REMARK INTER + INTRA:          -5.410
REMARK INTER:                  -5.420
REMARK INTRA:                   0.011
REMARK UNBOUND:                 0.069
REMARK  2 active torsions:
REMARK  status: ('A' for Active; 'I' for Inactive)
REMARK    1  A    between atoms: C_1  and  C_2 
REMARK    2  A    between atoms: CA_5  and  C_6 
ROOT
HETATM    1  C   UNL     1      67.092  19.993  25.540  1.00  0.00     0.083 A 
HETATM    2  C   UNL     1      68.390  19.663  25.845  1.00  0.00     0.038 A 
HETATM    3  C   UNL     1      69.353  20.660  25.873  1.00  0.00     0.090 A 
HETATM    4  CA  UNL     1      67.808  22.265  25.307  1.00  0.00     0.149 A 
HETATM    5  C   UNL     1      66.763  21.308  25.280  1.00  0.00     0.167 A 
HETATM    6  F   UNL     1      65.509  21.615  25.002  1.00  0.00    -0.202 F 
HETATM    7  N   UNL     1      69.075  21.897  25.634  1.00  0.00    -0.358 N 
ATOM      8  HN  UNL     1      69.810  22.602  25.691  1.00  0.00     0.165 HD
ENDROOT
BRANCH   1   9
HETATM    9  C   UNL     1      66.010  18.940  25.553  1.00  0.00     0.212 C 
HETATM   10  O   UNL     1      66.404  17.817  25.210  1.00  0.00    -0.644 OA
HETATM   11  O   UNL     1      64.821  19.130  25.978  1.00  0.00    -0.644 OA
ENDBRANCH   1   9
BRANCH   4  12
HETATM   12  C   UNL     1      67.500  23.718  25.035  1.00  0.00     0.230 C 
HETATM   13  O   UNL     1      66.729  24.417  25.805  1.00  0.00    -0.643 OA
HETATM   14  OXT UNL     1      67.937  24.285  24.022  1.00  0.00    -0.643 OA
ENDBRANCH   4  12
TORSDOF 2
ENDMDL
MODEL 10
REMARK VINA RESULT:    -4.856     10.958     11.366
REMARK INTER + INTRA:          -5.355
REMARK INTER:                  -5.248
REMARK INTRA:                  -0.107
REMARK UNBOUND:                 0.069
REMARK  2 active torsions:
REMARK  status: ('A' for Active; 'I' for Inactive)
REMARK    1  A    between atoms: C_1  and  C_2 
REMARK    2  A    between atoms: CA_5  and  C_6 
ROOT
HETATM    1  C   UNL     1      61.418  27.787  16.085  1.00  0.00     0.083 A 
HETATM    2  C   UNL     1      61.664  28.948  15.393  1.00  0.00     0.038 A 
HETATM    3  C   UNL     1      60.772  30.004  15.504  1.00  0.00     0.090 A 
HETATM    4  CA  UNL     1      59.424  28.808  16.931  1.00  0.00     0.149 A 
HETATM    5  C   UNL     1      60.299  27.692  16.887  1.00  0.00     0.167 A 
HETATM    6  F   UNL     1      60.080  26.576  17.558  1.00  0.00    -0.202 F 
HETATM    7  N   UNL     1      59.718  29.945  16.246  1.00  0.00    -0.358 N 
ATOM      8  HN  UNL     1      59.103  30.755  16.319  1.00  0.00     0.165 HD
ENDROOT
BRANCH   1   9
HETATM    9  C   UNL     1      62.395  26.638  16.027  1.00  0.00     0.212 C 
HETATM   10  O   UNL     1      62.639  26.248  14.877  1.00  0.00    -0.644 OA
HETATM   11  O   UNL     1      63.015  26.164  17.038  1.00  0.00    -0.644 OA
ENDBRANCH   1   9
BRANCH   4  12
HETATM   12  C   UNL     1      58.189  28.757  17.798  1.00  0.00     0.230 C 
HETATM   13  O   UNL     1      57.982  29.604  18.755  1.00  0.00    -0.643 OA
HETATM   14  OXT UNL     1      57.345  27.860  17.656  1.00  0.00    -0.643 OA
ENDBRANCH   4  12
TORSDOF 2
ENDMDL
MODEL 11
REMARK VINA RESULT:    -4.668      2.347      2.949
REMARK INTER + INTRA:          -5.145
REMARK INTER:                  -5.114
REMARK INTRA:                  -0.032
REMARK UNBOUND:                 0.069
REMARK  2 active torsions:
REMARK  status: ('A' for Active; 'I' for Inactive)
REMARK    1  A    between atoms: C_1  and  C_2 
REMARK    2  A    between atoms: CA_5  and  C_6 
ROOT
HETATM    1  C   UNL     1      59.175  16.918  14.492  1.00  0.00     0.083 A 
HETATM    2  C   UNL     1      58.882  16.961  13.151  1.00  0.00     0.038 A 
HETATM    3  C   UNL     1      57.823  17.740  12.713  1.00  0.00     0.090 A 
HETATM    4  CA  UNL     1      57.342  18.413  14.858  1.00  0.00     0.149 A 
HETATM    5  C   UNL     1      58.422  17.658  15.381  1.00  0.00     0.167 A 
HETATM    6  F   UNL     1      58.722  17.620  16.666  1.00  0.00    -0.202 F 
HETATM    7  N   UNL     1      57.101  18.443  13.520  1.00  0.00    -0.358 N 
ATOM      8  HN  UNL     1      56.347  19.023  13.152  1.00  0.00     0.165 HD
ENDROOT
BRANCH   1   9
HETATM    9  C   UNL     1      60.355  16.121  14.994  1.00  0.00     0.212 C 
HETATM   10  O   UNL     1      61.390  16.295  14.336  1.00  0.00    -0.644 OA
HETATM   11  O   UNL     1      60.350  15.414  16.057  1.00  0.00    -0.644 OA
ENDBRANCH   1   9
BRANCH   4  12
HETATM   12  C   UNL     1      56.491  19.245  15.787  1.00  0.00     0.230 C 
HETATM   13  O   UNL     1      55.278  18.911  16.098  1.00  0.00    -0.643 OA
HETATM   14  OXT UNL     1      56.907  20.317  16.248  1.00  0.00    -0.643 OA
ENDBRANCH   4  12
TORSDOF 2
ENDMDL
MODEL 12
REMARK VINA RESULT:    -4.611     14.498     15.450
REMARK INTER + INTRA:          -5.082
REMARK INTER:                  -4.899
REMARK INTRA:                  -0.183
REMARK UNBOUND:                 0.069
REMARK  2 active torsions:
REMARK  status: ('A' for Active; 'I' for Inactive)
REMARK    1  A    between atoms: C_1  and  C_2 
REMARK    2  A    between atoms: CA_5  and  C_6 
ROOT
HETATM    1  C   UNL     1      66.484  25.632   5.479  1.00  0.00     0.083 A 
HETATM    2  C   UNL     1      67.212  25.468   4.326  1.00  0.00     0.038 A 
HETATM    3  C   UNL     1      66.653  25.844   3.114  1.00  0.00     0.090 A 
HETATM    4  CA  UNL     1      64.708  26.516   4.139  1.00  0.00     0.149 A 
HETATM    5  C   UNL     1      65.218  26.177   5.418  1.00  0.00     0.167 A 
HETATM    6  F   UNL     1      64.534  26.342   6.535  1.00  0.00    -0.202 F 
HETATM    7  N   UNL     1      65.472  26.356   3.025  1.00  0.00    -0.358 N 
ATOM      8  HN  UNL     1      65.110  26.642   2.116  1.00  0.00     0.165 HD
ENDROOT
BRANCH   1   9
HETATM    9  C   UNL     1      67.083  25.282   6.820  1.00  0.00     0.212 C 
HETATM   10  O   UNL     1      66.756  24.162   7.236  1.00  0.00    -0.644 OA
HETATM   11  O   UNL     1      67.937  26.001   7.440  1.00  0.00    -0.644 OA
ENDBRANCH   1   9
BRANCH   4  12
HETATM   12  C   UNL     1      63.331  27.120   4.018  1.00  0.00     0.230 C 
HETATM   13  O   UNL     1      63.147  28.363   3.705  1.00  0.00    -0.643 OA
HETATM   14  OXT UNL     1      62.316  26.454   4.269  1.00  0.00    -0.643 OA
ENDBRANCH   4  12
TORSDOF 2
ENDMDL
MODEL 13
REMARK VINA RESULT:    -4.547     10.937     11.963
REMARK INTER + INTRA:          -5.010
REMARK INTER:                  -4.921
REMARK INTRA:                  -0.089
REMARK UNBOUND:                 0.069
REMARK  2 active torsions:
REMARK  status: ('A' for Active; 'I' for Inactive)
REMARK    1  A    between atoms: C_1  and  C_2 
REMARK    2  A    between atoms: CA_5  and  C_6 
ROOT
HETATM    1  C   UNL     1      59.459  28.814  17.337  1.00  0.00     0.083 A 
HETATM    2  C   UNL     1      59.963  29.999  16.860  1.00  0.00     0.038 A 
HETATM    3  C   UNL     1      61.194  30.005  16.221  1.00  0.00     0.090 A 
HETATM    4  CA  UNL     1      61.435  27.738  16.518  1.00  0.00     0.149 A 
HETATM    5  C   UNL     1      60.175  27.647  17.163  1.00  0.00     0.167 A 
HETATM    6  F   UNL     1      59.674  26.511  17.613  1.00  0.00    -0.202 F 
HETATM    7  N   UNL     1      61.885  28.930  16.044  1.00  0.00    -0.358 N 
ATOM      8  HN  UNL     1      62.774  28.975  15.545  1.00  0.00     0.165 HD
ENDROOT
BRANCH   1   9
HETATM    9  C   UNL     1      58.099  28.766  17.989  1.00  0.00     0.212 C 
HETATM   10  O   UNL     1      57.935  29.630  18.862  1.00  0.00    -0.644 OA
HETATM   11  O   UNL     1      57.148  27.996  17.625  1.00  0.00    -0.644 OA
ENDBRANCH   1   9
BRANCH   4  12
HETATM   12  C   UNL     1      62.255  26.490  16.299  1.00  0.00     0.230 C 
HETATM   13  O   UNL     1      62.640  25.734  17.278  1.00  0.00    -0.643 OA
HETATM   14  OXT UNL     1      62.641  26.170  15.165  1.00  0.00    -0.643 OA
ENDBRANCH   4  12
TORSDOF 2
ENDMDL
MODEL 14
REMARK VINA RESULT:    -4.480     15.094     15.858
REMARK INTER + INTRA:          -4.934
REMARK INTER:                  -4.740
REMARK INTRA:                  -0.194
REMARK UNBOUND:                 0.069
REMARK  2 active torsions:
REMARK  status: ('A' for Active; 'I' for Inactive)
REMARK    1  A    between atoms: C_1  and  C_2 
REMARK    2  A    between atoms: CA_5  and  C_6 
ROOT
HETATM    1  C   UNL     1      66.774  27.251   6.611  1.00  0.00     0.083 A 
HETATM    2  C   UNL     1      67.345  26.010   6.472  1.00  0.00     0.038 A 
HETATM    3  C   UNL     1      66.811  25.118   5.555  1.00  0.00     0.090 A 
HETATM    4  CA  UNL     1      65.189  26.622   4.930  1.00  0.00     0.149 A 
HETATM    5  C   UNL     1      65.690  27.597   5.830  1.00  0.00     0.167 A 
HETATM    6  F   UNL     1      65.158  28.799   5.962  1.00  0.00    -0.202 F 
HETATM    7  N   UNL     1      65.799  25.413   4.811  1.00  0.00    -0.358 N 
ATOM      8  HN  UNL     1      65.455  24.735   4.130  1.00  0.00     0.165 HD
ENDROOT
BRANCH   1   9
HETATM    9  C   UNL     1      67.363  28.264   7.563  1.00  0.00     0.212 C 
HETATM   10  O   UNL     1      66.997  28.116   8.737  1.00  0.00    -0.644 OA
HETATM   11  O   UNL     1      68.242  29.133   7.242  1.00  0.00    -0.644 OA
ENDBRANCH   1   9
BRANCH   4  12
HETATM   12  C   UNL     1      64.009  26.952   4.049  1.00  0.00     0.230 C 
HETATM   13  O   UNL     1      64.130  27.647   2.963  1.00  0.00    -0.643 OA
HETATM   14  OXT UNL     1      62.860  26.612   4.366  1.00  0.00    -0.643 OA
ENDBRANCH   4  12
TORSDOF 2
ENDMDL
MODEL 15
REMARK VINA RESULT:    -4.419     14.342     15.152
REMARK INTER + INTRA:          -4.867
REMARK INTER:                  -4.670
REMARK INTRA:                  -0.197
REMARK UNBOUND:                 0.069
REMARK  2 active torsions:
REMARK  status: ('A' for Active; 'I' for Inactive)
REMARK    1  A    between atoms: C_1  and  C_2 
REMARK    2  A    between atoms: CA_5  and  C_6 
ROOT
HETATM    1  C   UNL     1      68.204   8.076   9.088  1.00  0.00     0.083 A 
HETATM    2  C   UNL     1      68.125   6.788   8.618  1.00  0.00     0.038 A 
HETATM    3  C   UNL     1      68.460   5.738   9.459  1.00  0.00     0.090 A 
HETATM    4  CA  UNL     1      68.948   7.182  11.181  1.00  0.00     0.149 A 
HETATM    5  C   UNL     1      68.601   8.307  10.390  1.00  0.00     0.167 A 
HETATM    6  F   UNL     1      68.659   9.548  10.835  1.00  0.00    -0.202 F 
HETATM    7  N   UNL     1      68.835   5.923  10.680  1.00  0.00    -0.358 N 
ATOM      8  HN  UNL     1      69.047   5.120  11.272  1.00  0.00     0.165 HD
ENDROOT
BRANCH   1   9
HETATM    9  C   UNL     1      67.795   9.238   8.215  1.00  0.00     0.212 C 
HETATM   10  O   UNL     1      66.600   9.546   8.324  1.00  0.00    -0.644 OA
HETATM   11  O   UNL     1      68.601   9.929   7.506  1.00  0.00    -0.644 OA
ENDBRANCH   1   9
BRANCH   4  12
HETATM   12  C   UNL     1      69.384   7.379  12.612  1.00  0.00     0.230 C 
HETATM   13  O   UNL     1      68.588   7.170  13.612  1.00  0.00    -0.643 OA
HETATM   14  OXT UNL     1      70.516   7.805  12.883  1.00  0.00    -0.643 OA
ENDBRANCH   4  12
TORSDOF 2
ENDMDL
MODEL 16
REMARK VINA RESULT:    -4.413     12.288     13.591
REMARK INTER + INTRA:          -4.860
REMARK INTER:                  -4.901
REMARK INTRA:                   0.041
REMARK UNBOUND:                 0.069
REMARK  2 active torsions:
REMARK  status: ('A' for Active; 'I' for Inactive)
REMARK    1  A    between atoms: C_1  and  C_2 
REMARK    2  A    between atoms: CA_5  and  C_6 
ROOT
HETATM    1  C   UNL     1      66.736  19.331  25.501  1.00  0.00     0.083 A 
HETATM    2  C   UNL     1      66.219  20.543  25.116  1.00  0.00     0.038 A 
HETATM    3  C   UNL     1      64.871  20.636  24.803  1.00  0.00     0.090 A 
HETATM    4  CA  UNL     1      64.547  18.400  25.227  1.00  0.00     0.149 A 
HETATM    5  C   UNL     1      65.909  18.229  25.583  1.00  0.00     0.167 A 
HETATM    6  F   UNL     1      66.415  17.072  25.968  1.00  0.00    -0.202 F 
HETATM    7  N   UNL     1      64.074  19.624  24.871  1.00  0.00    -0.358 N 
ATOM      8  HN  UNL     1      63.084  19.743  24.657  1.00  0.00     0.165 HD
ENDROOT
BRANCH   1   9
HETATM    9  C   UNL     1      68.187  19.208  25.899  1.00  0.00     0.212 C 
HETATM   10  O   UNL     1      68.899  18.681  25.032  1.00  0.00    -0.644 OA
HETATM   11  O   UNL     1      68.687  19.690  26.970  1.00  0.00    -0.644 OA
ENDBRANCH   1   9
BRANCH   4  12
HETATM   12  C   UNL     1      63.600  17.228  25.305  1.00  0.00     0.230 C 
HETATM   13  O   UNL     1      64.014  16.001  25.264  1.00  0.00    -0.643 OA
HETATM   14  OXT UNL     1      62.373  17.400  25.356  1.00  0.00    -0.643 OA
ENDBRANCH   4  12
TORSDOF 2
ENDMDL
