REMARK  8 active torsions:
REMARK  status: ('A' for Active; 'I' for Inactive)
REMARK    1  A    between atoms: P_1  and  O_24 
REMARK    2  A    between atoms: C_4  and  N_17 
REMARK    3  A    between atoms: C_5  and  O_29 
REMARK    4  A    between atoms: C_6  and  O_31 
REMARK    5  A    between atoms: C_7  and  C_8 
REMARK    6  A    between atoms: C_8  and  O_15 
REMARK    7  A    between atoms: P_11  and  O_15 
REMARK    8  A    between atoms: C_23  and  O_24 
ROOT
HETATM    1  C   UNL     1     -17.244  -6.439  10.824  1.00  0.00     0.184 A 
HETATM    2  N   UNL     1     -19.709  -7.698  13.211  1.00  0.00    -0.297 N 
HETATM    3  C   UNL     1     -18.618  -7.299  12.505  1.00  0.00     0.143 A 
HETATM    4  N   UNL     1     -18.493  -6.709  11.298  1.00  0.00    -0.336 N 
ATOM      5  HN  UNL     1     -19.319  -6.469  10.750  1.00  0.00     0.168 HD
HETATM    6  N   UNL     1     -16.147  -6.721  11.563  1.00  0.00    -0.331 N 
ATOM      7  HN  UNL     1     -15.220  -6.497  11.201  1.00  0.00     0.168 HD
HETATM    8  C   UNL     1     -16.270  -7.286  12.753  1.00  0.00     0.186 A 
HETATM    9  C   UNL     1     -17.540  -7.598  13.244  1.00  0.00     0.130 A 
HETATM   10  N   UNL     1     -17.924  -8.176  14.400  1.00  0.00    -0.346 N 
ATOM     11  HN  UNL     1     -17.322  -8.526  15.145  1.00  0.00     0.167 HD
HETATM   12  C   UNL     1     -19.272  -8.194  14.364  1.00  0.00     0.188 A 
ENDROOT
BRANCH   2  13
HETATM   13  C   UNL     1     -21.006  -7.406  12.669  1.00  0.00     0.262 C 
HETATM   14  C   UNL     1     -21.853  -8.403  12.409  1.00  0.00     0.198 C 
HETATM   15  C   UNL     1     -23.300  -7.754  12.712  1.00  0.00     0.182 C 
HETATM   16  C   UNL     1     -23.151  -7.032  13.869  1.00  0.00     0.180 C 
HETATM   17  O   UNL     1     -21.654  -6.710  13.933  1.00  0.00    -0.353 OA
BRANCH  14  18
HETATM   18  O   UNL     1     -21.764  -8.773  11.005  1.00  0.00    -0.388 OA
ATOM     19  HO  UNL     1     -22.367  -9.483  10.820  1.00  0.00     0.210 HD
ENDBRANCH  14  18
BRANCH  15  20
HETATM   20  O   UNL     1     -23.629  -6.865  11.659  1.00  0.00    -0.390 OA
ATOM     21  HO  UNL     1     -24.480  -6.483  11.837  1.00  0.00     0.210 HD
ENDBRANCH  15  20
BRANCH  16  22
HETATM   22  C   UNL     1     -23.472  -7.835  15.159  1.00  0.00     0.217 C 
BRANCH  22  23
HETATM   23  O   UNL     1     -22.871  -9.108  15.127  1.00  0.00    -0.280 OA
BRANCH  23  24
HETATM   24  P   UNL     1     -22.342  -9.789  16.543  1.00  0.00     0.422 P 
HETATM   25  O   UNL     1     -21.904 -11.223  16.189  1.00  0.00    -0.617 OA
HETATM   26  O   UNL     1     -21.133  -8.975  17.040  1.00  0.00    -0.617 OA
HETATM   27  O   UNL     1     -23.485  -9.733  17.553  1.00  0.00    -0.617 OA
ENDBRANCH  23  24
ENDBRANCH  22  23
ENDBRANCH  16  22
ENDBRANCH   2  13
BRANCH   8  28
HETATM   28  O   UNL     1     -15.158  -7.559  13.556  1.00  0.00    -0.220 OA
BRANCH  28  29
HETATM   29  P   UNL     1     -13.618  -6.984  13.263  1.00  0.00     0.428 P 
HETATM   30  O   UNL     1     -13.028  -8.085  12.461  1.00  0.00    -0.616 OA
HETATM   31  O   UNL     1     -13.677  -5.670  12.583  1.00  0.00    -0.616 OA
HETATM   32  O   UNL     1     -13.028  -6.889  14.640  1.00  0.00    -0.616 OA
ENDBRANCH  28  29
ENDBRANCH   8  28
TORSDOF 8
