MODEL 1
REMARK VINA RESULT:    -9.355      0.000      0.000
REMARK INTER + INTRA:         -10.778
REMARK INTER:                 -10.448
REMARK INTRA:                  -0.330
REMARK UNBOUND:                -0.330
REMARK  3 active torsions:
REMARK  status: ('A' for Active; 'I' for Inactive)
REMARK    1  A    between atoms: C_7  and  C_12 
REMARK    2  A    between atoms: C_14  and  N_15 
REMARK    3  A    between atoms: C_20  and  N_21 
ROOT
HETATM    1  C   UNL     1      42.290   5.994  12.280  1.00  0.00    -0.019 A 
HETATM    2  C   UNL     1      41.856   7.198  11.714  1.00  0.00     0.060 A 
HETATM    3  C   UNL     1      41.291   7.218  10.427  1.00  0.00     0.101 A 
HETATM    4  N   UNL     1      41.264   6.113   9.664  1.00  0.00    -0.329 N 
ATOM      5  HN  UNL     1      40.900   6.149   8.713  1.00  0.00     0.169 HD
HETATM    6  C   UNL     1      41.726   4.955  10.175  1.00  0.00     0.101 A 
HETATM    7  C   UNL     1      42.234   4.852  11.483  1.00  0.00     0.060 A 
ENDROOT
BRANCH   1   8
HETATM    8  C   UNL     1      42.919   5.956  13.636  1.00  0.00    -0.025 A 
HETATM    9  C   UNL     1      42.939   7.111  14.464  1.00  0.00     0.015 A 
HETATM   10  C   UNL     1      43.463   7.111  15.745  1.00  0.00     0.039 A 
HETATM   11  C   UNL     1      43.972   5.912  16.184  1.00  0.00     0.086 A 
HETATM   12  O   UNL     1      44.540   5.669  17.422  1.00  0.00    -0.314 OA
HETATM   13  C   UNL     1      43.984   4.756  15.416  1.00  0.00     0.007 A 
HETATM   14  C   UNL     1      44.915   4.335  17.401  1.00  0.00     0.056 A 
HETATM   15  C   UNL     1      44.638   3.752  16.211  1.00  0.00    -0.020 A 
HETATM   16  C   UNL     1      45.540   3.761  18.612  1.00  0.00     0.077 C 
HETATM   17  C   UNL     1      44.817   2.327  15.786  1.00  0.00     0.052 C 
HETATM   18  C   UNL     1      43.453   4.776  14.131  1.00  0.00     0.027 A 
ENDBRANCH   1   8
BRANCH   6  19
HETATM   19  N   UNL     1      41.677   3.881   9.366  1.00  0.00    -0.385 N 
ATOM     20  HN2 UNL     1      42.063   3.013   9.738  1.00  0.00     0.157 HD
ATOM     21  HN1 UNL     1      41.274   3.947   8.432  1.00  0.00     0.157 HD
ENDBRANCH   6  19
BRANCH   3  22
HETATM   22  N   UNL     1      40.842   8.372   9.867  1.00  0.00    -0.385 N 
ATOM     23  HN2 UNL     1      40.262   8.366   9.028  1.00  0.00     0.157 HD
ATOM     24  HN1 UNL     1      41.045   9.241  10.361  1.00  0.00     0.157 HD
ENDBRANCH   3  22
TORSDOF 3
ENDMDL
MODEL 2
REMARK VINA RESULT:    -9.302      0.243      1.856
REMARK INTER + INTRA:         -10.719
REMARK INTER:                 -10.389
REMARK INTRA:                  -0.331
REMARK UNBOUND:                -0.330
REMARK  3 active torsions:
REMARK  status: ('A' for Active; 'I' for Inactive)
REMARK    1  A    between atoms: C_7  and  C_12 
REMARK    2  A    between atoms: C_14  and  N_15 
REMARK    3  A    between atoms: C_20  and  N_21 
ROOT
HETATM    1  C   UNL     1      42.502   5.905  12.307  1.00  0.00    -0.019 A 
HETATM    2  C   UNL     1      42.318   4.764  11.518  1.00  0.00     0.060 A 
HETATM    3  C   UNL     1      41.765   4.869  10.230  1.00  0.00     0.101 A 
HETATM    4  N   UNL     1      41.289   6.038   9.773  1.00  0.00    -0.329 N 
ATOM      5  HN  UNL     1      40.843   6.092   8.858  1.00  0.00     0.169 HD
HETATM    6  C   UNL     1      41.410   7.138  10.540  1.00  0.00     0.101 A 
HETATM    7  C   UNL     1      42.022   7.115  11.807  1.00  0.00     0.060 A 
ENDROOT
BRANCH   1   8
HETATM    8  C   UNL     1      43.062   5.811  13.689  1.00  0.00    -0.025 A 
HETATM    9  C   UNL     1      43.078   6.942  14.549  1.00  0.00     0.015 A 
HETATM   10  C   UNL     1      43.539   6.891  15.854  1.00  0.00     0.039 A 
HETATM   11  C   UNL     1      43.988   5.665  16.283  1.00  0.00     0.086 A 
HETATM   12  O   UNL     1      44.487   5.371  17.540  1.00  0.00    -0.314 OA
HETATM   13  C   UNL     1      44.000   4.530  15.484  1.00  0.00     0.007 A 
HETATM   14  C   UNL     1      44.820   4.026  17.499  1.00  0.00     0.056 A 
HETATM   15  C   UNL     1      44.582   3.484  16.281  1.00  0.00    -0.020 A 
HETATM   16  C   UNL     1      45.366   3.401  18.722  1.00  0.00     0.077 C 
HETATM   17  C   UNL     1      44.737   2.066  15.826  1.00  0.00     0.052 C 
HETATM   18  C   UNL     1      43.534   4.601  14.176  1.00  0.00     0.027 A 
ENDBRANCH   1   8
BRANCH   6  19
HETATM   19  N   UNL     1      40.914   8.281  10.033  1.00  0.00    -0.385 N 
ATOM     20  HN2 UNL     1      39.905   8.317   9.893  1.00  0.00     0.157 HD
ATOM     21  HN1 UNL     1      41.529   9.062   9.805  1.00  0.00     0.157 HD
ENDBRANCH   6  19
BRANCH   3  22
HETATM   22  N   UNL     1      41.600   3.776   9.438  1.00  0.00    -0.385 N 
ATOM     23  HN2 UNL     1      41.659   3.842   8.422  1.00  0.00     0.157 HD
ATOM     24  HN1 UNL     1      41.490   2.875   9.903  1.00  0.00     0.157 HD
ENDBRANCH   3  22
TORSDOF 3
ENDMDL
MODEL 3
REMARK VINA RESULT:    -8.778      4.070      6.582
REMARK INTER + INTRA:         -10.135
REMARK INTER:                  -9.808
REMARK INTRA:                  -0.327
REMARK UNBOUND:                -0.330
REMARK  3 active torsions:
REMARK  status: ('A' for Active; 'I' for Inactive)
REMARK    1  A    between atoms: C_7  and  C_12 
REMARK    2  A    between atoms: C_14  and  N_15 
REMARK    3  A    between atoms: C_20  and  N_21 
ROOT
HETATM    1  C   UNL     1      43.910   3.824  15.678  1.00  0.00    -0.019 A 
HETATM    2  C   UNL     1      44.551   4.154  16.877  1.00  0.00     0.060 A 
HETATM    3  C   UNL     1      45.034   3.146  17.728  1.00  0.00     0.101 A 
HETATM    4  N   UNL     1      44.790   1.849  17.477  1.00  0.00    -0.329 N 
ATOM      5  HN  UNL     1      45.100   1.128  18.127  1.00  0.00     0.169 HD
HETATM    6  C   UNL     1      44.128   1.516  16.352  1.00  0.00     0.101 A 
HETATM    7  C   UNL     1      43.683   2.473  15.421  1.00  0.00     0.060 A 
ENDROOT
BRANCH   1   8
HETATM    8  C   UNL     1      43.364   4.882  14.773  1.00  0.00    -0.025 A 
HETATM    9  C   UNL     1      43.236   6.226  15.215  1.00  0.00     0.015 A 
HETATM   10  C   UNL     1      42.785   7.249  14.398  1.00  0.00     0.039 A 
HETATM   11  C   UNL     1      42.461   6.889  13.112  1.00  0.00     0.086 A 
HETATM   12  O   UNL     1      41.996   7.733  12.119  1.00  0.00    -0.314 OA
HETATM   13  C   UNL     1      42.561   5.591  12.630  1.00  0.00     0.007 A 
HETATM   14  C   UNL     1      41.798   6.926  11.010  1.00  0.00     0.056 A 
HETATM   15  C   UNL     1      42.087   5.629  11.273  1.00  0.00    -0.020 A 
HETATM   16  C   UNL     1      41.319   7.554   9.760  1.00  0.00     0.077 C 
HETATM   17  C   UNL     1      42.074   4.448  10.352  1.00  0.00     0.052 C 
HETATM   18  C   UNL     1      43.015   4.577  13.466  1.00  0.00     0.027 A 
ENDBRANCH   1   8
BRANCH   6  19
HETATM   19  N   UNL     1      43.908   0.204  16.152  1.00  0.00    -0.385 N 
ATOM     20  HN2 UNL     1      43.524  -0.319  16.938  1.00  0.00     0.157 HD
ATOM     21  HN1 UNL     1      44.122  -0.231  15.254  1.00  0.00     0.157 HD
ENDBRANCH   6  19
BRANCH   3  22
HETATM   22  N   UNL     1      45.680   3.444  18.887  1.00  0.00    -0.385 N 
ATOM     23  HN2 UNL     1      45.322   3.136  19.790  1.00  0.00     0.157 HD
ATOM     24  HN1 UNL     1      46.577   3.924  18.811  1.00  0.00     0.157 HD
ENDBRANCH   3  22
TORSDOF 3
ENDMDL
MODEL 4
REMARK VINA RESULT:    -8.497      4.433      6.947
REMARK INTER + INTRA:          -9.820
REMARK INTER:                  -9.487
REMARK INTRA:                  -0.333
REMARK UNBOUND:                -0.330
REMARK  3 active torsions:
REMARK  status: ('A' for Active; 'I' for Inactive)
REMARK    1  A    between atoms: C_7  and  C_12 
REMARK    2  A    between atoms: C_14  and  N_15 
REMARK    3  A    between atoms: C_20  and  N_21 
ROOT
HETATM    1  C   UNL     1      43.849   2.941  15.198  1.00  0.00    -0.019 A 
HETATM    2  C   UNL     1      44.373   3.782  16.186  1.00  0.00     0.060 A 
HETATM    3  C   UNL     1      44.795   3.256  17.420  1.00  0.00     0.101 A 
HETATM    4  N   UNL     1      44.596   1.964  17.727  1.00  0.00    -0.329 N 
ATOM      5  HN  UNL     1      44.858   1.604  18.644  1.00  0.00     0.169 HD
HETATM    6  C   UNL     1      44.045   1.151  16.806  1.00  0.00     0.101 A 
HETATM    7  C   UNL     1      43.670   1.598  15.526  1.00  0.00     0.060 A 
ENDROOT
BRANCH   1   8
HETATM    8  C   UNL     1      43.369   3.485  13.891  1.00  0.00    -0.025 A 
HETATM    9  C   UNL     1      43.173   2.632  12.772  1.00  0.00     0.015 A 
HETATM   10  C   UNL     1      42.682   3.080  11.558  1.00  0.00     0.039 A 
HETATM   11  C   UNL     1      42.386   4.421  11.490  1.00  0.00     0.086 A 
HETATM   12  O   UNL     1      41.882   5.092  10.390  1.00  0.00    -0.314 OA
HETATM   13  C   UNL     1      42.563   5.300  12.549  1.00  0.00     0.007 A 
HETATM   14  C   UNL     1      41.760   6.414  10.789  1.00  0.00     0.056 A 
HETATM   15  C   UNL     1      42.188   6.599  12.060  1.00  0.00    -0.020 A 
HETATM   16  C   UNL     1      41.215   7.391   9.822  1.00  0.00     0.077 C 
HETATM   17  C   UNL     1      42.172   7.842  12.896  1.00  0.00     0.052 C 
HETATM   18  C   UNL     1      43.059   4.831  13.761  1.00  0.00     0.027 A 
ENDBRANCH   1   8
BRANCH   6  19
HETATM   19  N   UNL     1      43.866  -0.133  17.168  1.00  0.00    -0.385 N 
ATOM     20  HN2 UNL     1      44.281  -0.839  16.561  1.00  0.00     0.157 HD
ATOM     21  HN1 UNL     1      43.339  -0.371  18.009  1.00  0.00     0.157 HD
ENDBRANCH   6  19
BRANCH   3  22
HETATM   22  N   UNL     1      45.328   4.051  18.385  1.00  0.00    -0.385 N 
ATOM     23  HN2 UNL     1      44.736   4.588  19.019  1.00  0.00     0.157 HD
ATOM     24  HN1 UNL     1      46.341   4.033  18.498  1.00  0.00     0.157 HD
ENDBRANCH   3  22
TORSDOF 3
ENDMDL
MODEL 5
REMARK VINA RESULT:    -8.433      4.438      7.160
REMARK INTER + INTRA:          -9.748
REMARK INTER:                  -9.423
REMARK INTRA:                  -0.325
REMARK UNBOUND:                -0.330
REMARK  3 active torsions:
REMARK  status: ('A' for Active; 'I' for Inactive)
REMARK    1  A    between atoms: C_7  and  C_12 
REMARK    2  A    between atoms: C_14  and  N_15 
REMARK    3  A    between atoms: C_20  and  N_21 
ROOT
HETATM    1  C   UNL     1      43.748   3.062  15.355  1.00  0.00    -0.019 A 
HETATM    2  C   UNL     1      43.695   1.696  15.654  1.00  0.00     0.060 A 
HETATM    3  C   UNL     1      44.118   1.224  16.909  1.00  0.00     0.101 A 
HETATM    4  N   UNL     1      44.693   2.046  17.801  1.00  0.00    -0.329 N 
ATOM      5  HN  UNL     1      45.043   1.683  18.688  1.00  0.00     0.169 HD
HETATM    6  C   UNL     1      44.800   3.356  17.509  1.00  0.00     0.101 A 
HETATM    7  C   UNL     1      44.329   3.905  16.302  1.00  0.00     0.060 A 
ENDROOT
BRANCH   1   8
HETATM    8  C   UNL     1      43.330   3.581  14.017  1.00  0.00    -0.025 A 
HETATM    9  C   UNL     1      43.221   2.712  12.899  1.00  0.00     0.015 A 
HETATM   10  C   UNL     1      42.788   3.135  11.654  1.00  0.00     0.039 A 
HETATM   11  C   UNL     1      42.461   4.466  11.554  1.00  0.00     0.086 A 
HETATM   12  O   UNL     1      42.003   5.114  10.420  1.00  0.00    -0.314 OA
HETATM   13  C   UNL     1      42.555   5.360  12.612  1.00  0.00     0.007 A 
HETATM   14  C   UNL     1      41.824   6.436  10.796  1.00  0.00     0.056 A 
HETATM   15  C   UNL     1      42.173   6.644  12.088  1.00  0.00    -0.020 A 
HETATM   16  C   UNL     1      41.309   7.388   9.790  1.00  0.00     0.077 C 
HETATM   17  C   UNL     1      42.077   7.893  12.908  1.00  0.00     0.052 C 
HETATM   18  C   UNL     1      42.992   4.916  13.855  1.00  0.00     0.027 A 
ENDBRANCH   1   8
BRANCH   6  19
HETATM   19  N   UNL     1      45.386   4.133  18.438  1.00  0.00    -0.385 N 
ATOM     20  HN2 UNL     1      46.127   3.701  18.991  1.00  0.00     0.157 HD
ATOM     21  HN1 UNL     1      45.093   5.101  18.572  1.00  0.00     0.157 HD
ENDBRANCH   6  19
BRANCH   3  22
HETATM   22  N   UNL     1      44.053  -0.096  17.228  1.00  0.00    -0.385 N 
ATOM     23  HN2 UNL     1      44.657  -0.783  16.777  1.00  0.00     0.157 HD
ATOM     24  HN1 UNL     1      43.430  -0.362  17.990  1.00  0.00     0.157 HD
ENDBRANCH   3  22
TORSDOF 3
ENDMDL
MODEL 6
REMARK VINA RESULT:    -8.419      4.052      6.714
REMARK INTER + INTRA:          -9.733
REMARK INTER:                  -9.399
REMARK INTRA:                  -0.334
REMARK UNBOUND:                -0.330
REMARK  3 active torsions:
REMARK  status: ('A' for Active; 'I' for Inactive)
REMARK    1  A    between atoms: C_7  and  C_12 
REMARK    2  A    between atoms: C_14  and  N_15 
REMARK    3  A    between atoms: C_20  and  N_21 
ROOT
HETATM    1  C   UNL     1      43.653   3.399  15.510  1.00  0.00    -0.019 A 
HETATM    2  C   UNL     1      43.360   2.075  15.166  1.00  0.00     0.060 A 
HETATM    3  C   UNL     1      43.818   1.013  15.964  1.00  0.00     0.101 A 
HETATM    4  N   UNL     1      44.644   1.230  17.001  1.00  0.00    -0.329 N 
ATOM      5  HN  UNL     1      45.011   0.448  17.542  1.00  0.00     0.169 HD
HETATM    6  C   UNL     1      44.979   2.496  17.315  1.00  0.00     0.101 A 
HETATM    7  C   UNL     1      44.494   3.608  16.602  1.00  0.00     0.060 A 
ENDROOT
BRANCH   1   8
HETATM    8  C   UNL     1      43.199   4.541  14.658  1.00  0.00    -0.025 A 
HETATM    9  C   UNL     1      43.220   5.873  15.151  1.00  0.00     0.015 A 
HETATM   10  C   UNL     1      42.859   6.967  14.384  1.00  0.00     0.039 A 
HETATM   11  C   UNL     1      42.472   6.693  13.094  1.00  0.00     0.086 A 
HETATM   12  O   UNL     1      42.075   7.617  12.144  1.00  0.00    -0.314 OA
HETATM   13  C   UNL     1      42.428   5.411  12.563  1.00  0.00     0.007 A 
HETATM   14  C   UNL     1      41.772   6.877  11.012  1.00  0.00     0.056 A 
HETATM   15  C   UNL     1      41.931   5.549  11.221  1.00  0.00    -0.020 A 
HETATM   16  C   UNL     1      41.333   7.599   9.799  1.00  0.00     0.077 C 
HETATM   17  C   UNL     1      41.777   4.412  10.258  1.00  0.00     0.052 C 
HETATM   18  C   UNL     1      42.793   4.324  13.350  1.00  0.00     0.027 A 
ENDBRANCH   1   8
BRANCH   6  19
HETATM   19  N   UNL     1      45.810   2.655  18.361  1.00  0.00    -0.385 N 
ATOM     20  HN2 UNL     1      45.722   3.526  18.884  1.00  0.00     0.157 HD
ATOM     21  HN1 UNL     1      46.489   1.934  18.604  1.00  0.00     0.157 HD
ENDBRANCH   6  19
BRANCH   3  22
HETATM   22  N   UNL     1      43.525  -0.280  15.661  1.00  0.00    -0.385 N 
ATOM     23  HN2 UNL     1      42.619  -0.543  15.274  1.00  0.00     0.157 HD
ATOM     24  HN1 UNL     1      44.273  -0.965  15.766  1.00  0.00     0.157 HD
ENDBRANCH   3  22
TORSDOF 3
ENDMDL
MODEL 7
REMARK VINA RESULT:    -8.342      3.334      5.361
REMARK INTER + INTRA:          -9.647
REMARK INTER:                  -9.313
REMARK INTRA:                  -0.334
REMARK UNBOUND:                -0.330
REMARK  3 active torsions:
REMARK  status: ('A' for Active; 'I' for Inactive)
REMARK    1  A    between atoms: C_7  and  C_12 
REMARK    2  A    between atoms: C_14  and  N_15 
REMARK    3  A    between atoms: C_20  and  N_21 
ROOT
HETATM    1  C   UNL     1      41.209   2.017  10.353  1.00  0.00    -0.019 A 
HETATM    2  C   UNL     1      41.793   0.852  10.862  1.00  0.00     0.060 A 
HETATM    3  C   UNL     1      41.421  -0.409  10.364  1.00  0.00     0.101 A 
HETATM    4  N   UNL     1      40.417  -0.537   9.482  1.00  0.00    -0.329 N 
ATOM      5  HN  UNL     1      40.121  -1.460   9.166  1.00  0.00     0.169 HD
HETATM    6  C   UNL     1      39.808   0.571   9.020  1.00  0.00     0.101 A 
HETATM    7  C   UNL     1      40.183   1.867   9.421  1.00  0.00     0.060 A 
ENDROOT
BRANCH   1   8
HETATM    8  C   UNL     1      41.571   3.365  10.889  1.00  0.00    -0.025 A 
HETATM    9  C   UNL     1      41.243   4.547  10.174  1.00  0.00     0.015 A 
HETATM   10  C   UNL     1      41.511   5.818  10.654  1.00  0.00     0.039 A 
HETATM   11  C   UNL     1      42.122   5.878  11.884  1.00  0.00     0.086 A 
HETATM   12  O   UNL     1      42.481   7.027  12.564  1.00  0.00    -0.314 OA
HETATM   13  C   UNL     1      42.470   4.755  12.622  1.00  0.00     0.007 A 
HETATM   14  C   UNL     1      43.071   6.592  13.740  1.00  0.00     0.056 A 
HETATM   15  C   UNL     1      43.122   5.241  13.808  1.00  0.00    -0.020 A 
HETATM   16  C   UNL     1      43.545   7.606  14.706  1.00  0.00     0.077 C 
HETATM   17  C   UNL     1      43.612   4.363  14.919  1.00  0.00     0.052 C 
HETATM   18  C   UNL     1      42.193   3.487  12.123  1.00  0.00     0.027 A 
ENDBRANCH   1   8
BRANCH   6  19
HETATM   19  N   UNL     1      38.808   0.384   8.139  1.00  0.00    -0.385 N 
ATOM     20  HN2 UNL     1      37.989  -0.119   8.480  1.00  0.00     0.157 HD
ATOM     21  HN1 UNL     1      38.881   0.732   7.183  1.00  0.00     0.157 HD
ENDBRANCH   6  19
BRANCH   3  22
HETATM   22  N   UNL     1      41.993  -1.552  10.828  1.00  0.00    -0.385 N 
ATOM     23  HN2 UNL     1      42.848  -1.924  10.415  1.00  0.00     0.157 HD
ATOM     24  HN1 UNL     1      41.575  -1.981  11.653  1.00  0.00     0.157 HD
ENDBRANCH   3  22
TORSDOF 3
ENDMDL
MODEL 8
REMARK VINA RESULT:    -8.145      4.233      6.561
REMARK INTER + INTRA:          -9.428
REMARK INTER:                  -9.105
REMARK INTRA:                  -0.323
REMARK UNBOUND:                -0.330
REMARK  3 active torsions:
REMARK  status: ('A' for Active; 'I' for Inactive)
REMARK    1  A    between atoms: C_7  and  C_12 
REMARK    2  A    between atoms: C_14  and  N_15 
REMARK    3  A    between atoms: C_20  and  N_21 
ROOT
HETATM    1  C   UNL     1      43.175   4.844  13.832  1.00  0.00    -0.019 A 
HETATM    2  C   UNL     1      43.048   6.158  14.296  1.00  0.00     0.060 A 
HETATM    3  C   UNL     1      43.627   6.542  15.518  1.00  0.00     0.101 A 
HETATM    4  N   UNL     1      44.207   5.639  16.324  1.00  0.00    -0.329 N 
ATOM      5  HN  UNL     1      44.578   5.919  17.232  1.00  0.00     0.169 HD
HETATM    6  C   UNL     1      44.293   4.359  15.917  1.00  0.00     0.101 A 
HETATM    7  C   UNL     1      43.800   3.924  14.672  1.00  0.00     0.060 A 
ENDROOT
BRANCH   1   8
HETATM    8  C   UNL     1      42.542   4.409  12.549  1.00  0.00    -0.025 A 
HETATM    9  C   UNL     1      42.686   5.181  11.365  1.00  0.00     0.015 A 
HETATM   10  C   UNL     1      42.163   4.794  10.144  1.00  0.00     0.039 A 
HETATM   11  C   UNL     1      41.485   3.599  10.135  1.00  0.00     0.086 A 
HETATM   12  O   UNL     1      40.883   3.008   9.038  1.00  0.00    -0.314 OA
HETATM   13  C   UNL     1      41.309   2.808  11.262  1.00  0.00     0.007 A 
HETATM   14  C   UNL     1      40.320   1.834   9.513  1.00  0.00     0.056 A 
HETATM   15  C   UNL     1      40.515   1.685  10.844  1.00  0.00    -0.020 A 
HETATM   16  C   UNL     1      39.615   0.956   8.555  1.00  0.00     0.077 C 
HETATM   17  C   UNL     1      40.133   0.545  11.738  1.00  0.00     0.052 C 
HETATM   18  C   UNL     1      41.842   3.214  12.481  1.00  0.00     0.027 A 
ENDBRANCH   1   8
BRANCH   6  19
HETATM   19  N   UNL     1      44.882   3.496  16.765  1.00  0.00    -0.385 N 
ATOM     20  HN2 UNL     1      45.353   2.695  16.346  1.00  0.00     0.157 HD
ATOM     21  HN1 UNL     1      44.848   3.649  17.773  1.00  0.00     0.157 HD
ENDBRANCH   6  19
BRANCH   3  22
HETATM   22  N   UNL     1      43.535   7.819  15.976  1.00  0.00    -0.385 N 
ATOM     23  HN2 UNL     1      42.640   8.308  16.013  1.00  0.00     0.157 HD
ATOM     24  HN1 UNL     1      44.383   8.243  16.351  1.00  0.00     0.157 HD
ENDBRANCH   3  22
TORSDOF 3
ENDMDL
MODEL 9
REMARK VINA RESULT:    -8.127      1.553      3.082
REMARK INTER + INTRA:          -9.407
REMARK INTER:                  -9.077
REMARK INTRA:                  -0.330
REMARK UNBOUND:                -0.330
REMARK  3 active torsions:
REMARK  status: ('A' for Active; 'I' for Inactive)
REMARK    1  A    between atoms: C_7  and  C_12 
REMARK    2  A    between atoms: C_14  and  N_15 
REMARK    3  A    between atoms: C_20  and  N_21 
ROOT
HETATM    1  C   UNL     1      42.561   4.380  12.170  1.00  0.00    -0.019 A 
HETATM    2  C   UNL     1      42.112   3.698  11.033  1.00  0.00     0.060 A 
HETATM    3  C   UNL     1      41.537   4.402   9.961  1.00  0.00     0.101 A 
HETATM    4  N   UNL     1      41.293   5.719  10.046  1.00  0.00    -0.329 N 
ATOM      5  HN  UNL     1      40.829   6.211   9.283  1.00  0.00     0.169 HD
HETATM    6  C   UNL     1      41.671   6.383  11.156  1.00  0.00     0.101 A 
HETATM    7  C   UNL     1      42.319   5.751  12.234  1.00  0.00     0.060 A 
ENDROOT
BRANCH   1   8
HETATM    8  C   UNL     1      43.149   3.647  13.333  1.00  0.00    -0.025 A 
HETATM    9  C   UNL     1      43.348   2.241  13.285  1.00  0.00     0.015 A 
HETATM   10  C   UNL     1      43.935   1.527  14.315  1.00  0.00     0.039 A 
HETATM   11  C   UNL     1      44.326   2.263  15.408  1.00  0.00     0.086 A 
HETATM   12  O   UNL     1      44.935   1.773  16.549  1.00  0.00    -0.314 OA
HETATM   13  C   UNL     1      44.150   3.636  15.509  1.00  0.00     0.007 A 
HETATM   14  C   UNL     1      45.125   2.874  17.368  1.00  0.00     0.056 A 
HETATM   15  C   UNL     1      44.641   4.008  16.809  1.00  0.00    -0.020 A 
HETATM   16  C   UNL     1      45.789   2.672  18.674  1.00  0.00     0.077 C 
HETATM   17  C   UNL     1      44.695   5.416  17.317  1.00  0.00     0.052 C 
HETATM   18  C   UNL     1      43.557   4.336  14.465  1.00  0.00     0.027 A 
ENDBRANCH   1   8
BRANCH   6  19
HETATM   19  N   UNL     1      41.401   7.700  11.189  1.00  0.00    -0.385 N 
ATOM     20  HN2 UNL     1      40.425   7.961  11.327  1.00  0.00     0.157 HD
ATOM     21  HN1 UNL     1      42.144   8.390  11.079  1.00  0.00     0.157 HD
ENDBRANCH   6  19
BRANCH   3  22
HETATM   22  N   UNL     1      41.116   3.762   8.837  1.00  0.00    -0.385 N 
ATOM     23  HN2 UNL     1      41.648   3.808   7.968  1.00  0.00     0.157 HD
ATOM     24  HN1 UNL     1      40.287   3.173   8.918  1.00  0.00     0.157 HD
ENDBRANCH   3  22
TORSDOF 3
ENDMDL
MODEL 10
REMARK VINA RESULT:    -8.107      4.241      6.796
REMARK INTER + INTRA:          -9.385
REMARK INTER:                  -9.069
REMARK INTRA:                  -0.316
REMARK UNBOUND:                -0.330
REMARK  3 active torsions:
REMARK  status: ('A' for Active; 'I' for Inactive)
REMARK    1  A    between atoms: C_7  and  C_12 
REMARK    2  A    between atoms: C_14  and  N_15 
REMARK    3  A    between atoms: C_20  and  N_21 
ROOT
HETATM    1  C   UNL     1      42.964   4.848  13.925  1.00  0.00    -0.019 A 
HETATM    2  C   UNL     1      43.669   3.974  14.761  1.00  0.00     0.060 A 
HETATM    3  C   UNL     1      44.207   4.429  15.977  1.00  0.00     0.101 A 
HETATM    4  N   UNL     1      44.167   5.729  16.310  1.00  0.00    -0.329 N 
ATOM      5  HN  UNL     1      44.606   6.056  17.170  1.00  0.00     0.169 HD
HETATM    6  C   UNL     1      43.538   6.594  15.492  1.00  0.00     0.101 A 
HETATM    7  C   UNL     1      42.914   6.191  14.297  1.00  0.00     0.060 A 
ENDROOT
BRANCH   1   8
HETATM    8  C   UNL     1      42.409   4.390  12.615  1.00  0.00    -0.025 A 
HETATM    9  C   UNL     1      42.601   5.155  11.433  1.00  0.00     0.015 A 
HETATM   10  C   UNL     1      42.150   4.748  10.190  1.00  0.00     0.039 A 
HETATM   11  C   UNL     1      41.495   3.539  10.156  1.00  0.00     0.086 A 
HETATM   12  O   UNL     1      40.964   2.928   9.034  1.00  0.00    -0.314 OA
HETATM   13  C   UNL     1      41.276   2.755  11.280  1.00  0.00     0.007 A 
HETATM   14  C   UNL     1      40.398   1.748   9.490  1.00  0.00     0.056 A 
HETATM   15  C   UNL     1      40.525   1.613  10.832  1.00  0.00    -0.020 A 
HETATM   16  C   UNL     1      39.761   0.848   8.505  1.00  0.00     0.077 C 
HETATM   17  C   UNL     1      40.118   0.474  11.714  1.00  0.00     0.052 C 
HETATM   18  C   UNL     1      41.735   3.182  12.521  1.00  0.00     0.027 A 
ENDBRANCH   1   8
BRANCH   6  19
HETATM   19  N   UNL     1      43.531   7.884  15.874  1.00  0.00    -0.385 N 
ATOM     20  HN2 UNL     1      43.506   8.062  16.877  1.00  0.00     0.157 HD
ATOM     21  HN1 UNL     1      43.546   8.634  15.182  1.00  0.00     0.157 HD
ENDBRANCH   6  19
BRANCH   3  22
HETATM   22  N   UNL     1      44.874   3.591  16.815  1.00  0.00    -0.385 N 
ATOM     23  HN2 UNL     1      44.931   3.775  17.817  1.00  0.00     0.157 HD
ATOM     24  HN1 UNL     1      45.252   2.733  16.414  1.00  0.00     0.157 HD
ENDBRANCH   3  22
TORSDOF 3
ENDMDL
MODEL 11
REMARK VINA RESULT:    -8.106      4.444      7.035
REMARK INTER + INTRA:          -9.383
REMARK INTER:                  -9.058
REMARK INTRA:                  -0.325
REMARK UNBOUND:                -0.330
REMARK  3 active torsions:
REMARK  status: ('A' for Active; 'I' for Inactive)
REMARK    1  A    between atoms: C_7  and  C_12 
REMARK    2  A    between atoms: C_14  and  N_15 
REMARK    3  A    between atoms: C_20  and  N_21 
ROOT
HETATM    1  C   UNL     1      42.867   2.323  12.961  1.00  0.00    -0.019 A 
HETATM    2  C   UNL     1      42.594   0.964  12.770  1.00  0.00     0.060 A 
HETATM    3  C   UNL     1      43.032   0.011  13.706  1.00  0.00     0.101 A 
HETATM    4  N   UNL     1      43.822   0.360  14.735  1.00  0.00    -0.329 N 
ATOM      5  HN  UNL     1      44.176  -0.346  15.378  1.00  0.00     0.169 HD
HETATM    6  C   UNL     1      44.138   1.658  14.904  1.00  0.00     0.101 A 
HETATM    7  C   UNL     1      43.670   2.671  14.046  1.00  0.00     0.060 A 
ENDROOT
BRANCH   1   8
HETATM    8  C   UNL     1      42.434   3.349  11.963  1.00  0.00    -0.025 A 
HETATM    9  C   UNL     1      42.082   2.976  10.639  1.00  0.00     0.015 A 
HETATM   10  C   UNL     1      41.627   3.882   9.696  1.00  0.00     0.039 A 
HETATM   11  C   UNL     1      41.530   5.187  10.116  1.00  0.00     0.086 A 
HETATM   12  O   UNL     1      41.098   6.261   9.358  1.00  0.00    -0.314 OA
HETATM   13  C   UNL     1      41.866   5.607  11.396  1.00  0.00     0.007 A 
HETATM   14  C   UNL     1      41.185   7.362  10.196  1.00  0.00     0.056 A 
HETATM   15  C   UNL     1      41.673   7.032  11.415  1.00  0.00    -0.020 A 
HETATM   16  C   UNL     1      40.762   8.678   9.671  1.00  0.00     0.077 C 
HETATM   17  C   UNL     1      41.865   7.892  12.625  1.00  0.00     0.052 C 
HETATM   18  C   UNL     1      42.323   4.682  12.329  1.00  0.00     0.027 A 
ENDBRANCH   1   8
BRANCH   6  19
HETATM   19  N   UNL     1      44.932   1.952  15.949  1.00  0.00    -0.385 N 
ATOM     20  HN2 UNL     1      44.585   1.692  16.872  1.00  0.00     0.157 HD
ATOM     21  HN1 UNL     1      45.832   2.412  15.809  1.00  0.00     0.157 HD
ENDBRANCH   6  19
BRANCH   3  22
HETATM   22  N   UNL     1      42.758  -1.312  13.552  1.00  0.00    -0.385 N 
ATOM     23  HN2 UNL     1      42.199  -1.822  14.236  1.00  0.00     0.157 HD
ATOM     24  HN1 UNL     1      43.069  -1.756  12.689  1.00  0.00     0.157 HD
ENDBRANCH   3  22
TORSDOF 3
ENDMDL
MODEL 12
REMARK VINA RESULT:    -7.983      3.908      5.949
REMARK INTER + INTRA:          -9.247
REMARK INTER:                  -8.916
REMARK INTRA:                  -0.330
REMARK UNBOUND:                -0.330
REMARK  3 active torsions:
REMARK  status: ('A' for Active; 'I' for Inactive)
REMARK    1  A    between atoms: C_7  and  C_12 
REMARK    2  A    between atoms: C_14  and  N_15 
REMARK    3  A    between atoms: C_20  and  N_21 
ROOT
HETATM    1  C   UNL     1      40.653   1.041  10.252  1.00  0.00    -0.019 A 
HETATM    2  C   UNL     1      40.142   1.405   9.001  1.00  0.00     0.060 A 
HETATM    3  C   UNL     1      39.841   0.424   8.041  1.00  0.00     0.101 A 
HETATM    4  N   UNL     1      40.146  -0.867   8.249  1.00  0.00    -0.329 N 
ATOM      5  HN  UNL     1      39.971  -1.564   7.525  1.00  0.00     0.169 HD
HETATM    6  C   UNL     1      40.688  -1.229   9.428  1.00  0.00     0.101 A 
HETATM    7  C   UNL     1      40.945  -0.307  10.459  1.00  0.00     0.060 A 
ENDROOT
BRANCH   1   8
HETATM    8  C   UNL     1      41.006   2.072  11.275  1.00  0.00    -0.025 A 
HETATM    9  C   UNL     1      41.023   1.751  12.659  1.00  0.00     0.015 A 
HETATM   10  C   UNL     1      41.393   2.656  13.639  1.00  0.00     0.039 A 
HETATM   11  C   UNL     1      41.752   3.906  13.195  1.00  0.00     0.086 A 
HETATM   12  O   UNL     1      42.160   4.968  13.983  1.00  0.00    -0.314 OA
HETATM   13  C   UNL     1      41.748   4.275  11.857  1.00  0.00     0.007 A 
HETATM   14  C   UNL     1      42.400   6.010  13.101  1.00  0.00     0.056 A 
HETATM   15  C   UNL     1      42.135   5.659  11.821  1.00  0.00    -0.020 A 
HETATM   16  C   UNL     1      42.882   7.296  13.650  1.00  0.00     0.077 C 
HETATM   17  C   UNL     1      42.316   6.450  10.563  1.00  0.00     0.052 C 
HETATM   18  C   UNL     1      41.372   3.352  10.887  1.00  0.00     0.027 A 
ENDBRANCH   1   8
BRANCH   6  19
HETATM   19  N   UNL     1      40.976  -2.534   9.581  1.00  0.00    -0.385 N 
ATOM     20  HN2 UNL     1      41.238  -2.835  10.520  1.00  0.00     0.157 HD
ATOM     21  HN1 UNL     1      40.933  -3.176   8.790  1.00  0.00     0.157 HD
ENDBRANCH   6  19
BRANCH   3  22
HETATM   22  N   UNL     1      39.321   0.753   6.828  1.00  0.00    -0.385 N 
ATOM     23  HN2 UNL     1      38.727   0.106   6.310  1.00  0.00     0.157 HD
ATOM     24  HN1 UNL     1      39.487   1.701   6.491  1.00  0.00     0.157 HD
ENDBRANCH   3  22
TORSDOF 3
ENDMDL
MODEL 13
REMARK VINA RESULT:    -7.923      2.654      3.846
REMARK INTER + INTRA:          -9.180
REMARK INTER:                  -8.860
REMARK INTRA:                  -0.320
REMARK UNBOUND:                -0.330
REMARK  3 active torsions:
REMARK  status: ('A' for Active; 'I' for Inactive)
REMARK    1  A    between atoms: C_7  and  C_12 
REMARK    2  A    between atoms: C_14  and  N_15 
REMARK    3  A    between atoms: C_20  and  N_21 
ROOT
HETATM    1  C   UNL     1      41.259   2.450  11.869  1.00  0.00    -0.019 A 
HETATM    2  C   UNL     1      40.470   1.399  12.349  1.00  0.00     0.060 A 
HETATM    3  C   UNL     1      39.716   0.611  11.462  1.00  0.00     0.101 A 
HETATM    4  N   UNL     1      39.635   0.919  10.158  1.00  0.00    -0.329 N 
ATOM      5  HN  UNL     1      39.043   0.372   9.533  1.00  0.00     0.169 HD
HETATM    6  C   UNL     1      40.346   1.961   9.687  1.00  0.00     0.101 A 
HETATM    7  C   UNL     1      41.180   2.743  10.508  1.00  0.00     0.060 A 
ENDROOT
BRANCH   1   8
HETATM    8  C   UNL     1      42.046   3.317  12.798  1.00  0.00    -0.025 A 
HETATM    9  C   UNL     1      42.073   4.728  12.635  1.00  0.00     0.015 A 
HETATM   10  C   UNL     1      42.745   5.575  13.499  1.00  0.00     0.039 A 
HETATM   11  C   UNL     1      43.397   4.968  14.546  1.00  0.00     0.086 A 
HETATM   12  O   UNL     1      44.127   5.604  15.534  1.00  0.00    -0.314 OA
HETATM   13  C   UNL     1      43.409   3.595  14.749  1.00  0.00     0.007 A 
HETATM   14  C   UNL     1      44.603   4.591  16.352  1.00  0.00     0.056 A 
HETATM   15  C   UNL     1      44.232   3.368  15.907  1.00  0.00    -0.020 A 
HETATM   16  C   UNL     1      45.412   4.963  17.533  1.00  0.00     0.077 C 
HETATM   17  C   UNL     1      44.473   2.022  16.517  1.00  0.00     0.052 C 
HETATM   18  C   UNL     1      42.729   2.760  13.869  1.00  0.00     0.027 A 
ENDBRANCH   1   8
BRANCH   6  19
HETATM   19  N   UNL     1      40.226   2.226   8.374  1.00  0.00    -0.385 N 
ATOM     20  HN2 UNL     1      40.823   2.964   8.001  1.00  0.00     0.157 HD
ATOM     21  HN1 UNL     1      39.566   1.708   7.794  1.00  0.00     0.157 HD
ENDBRANCH   6  19
BRANCH   3  22
HETATM   22  N   UNL     1      38.961  -0.430  11.905  1.00  0.00    -0.385 N 
ATOM     23  HN2 UNL     1      38.614  -1.145  11.265  1.00  0.00     0.157 HD
ATOM     24  HN1 UNL     1      38.820  -0.509  12.911  1.00  0.00     0.157 HD
ENDBRANCH   3  22
TORSDOF 3
ENDMDL
MODEL 14
REMARK VINA RESULT:    -7.903      4.263      6.710
REMARK INTER + INTRA:          -9.157
REMARK INTER:                  -8.831
REMARK INTRA:                  -0.326
REMARK UNBOUND:                -0.330
REMARK  3 active torsions:
REMARK  status: ('A' for Active; 'I' for Inactive)
REMARK    1  A    between atoms: C_7  and  C_12 
REMARK    2  A    between atoms: C_14  and  N_15 
REMARK    3  A    between atoms: C_20  and  N_21 
ROOT
HETATM    1  C   UNL     1      43.449   4.315  14.971  1.00  0.00    -0.019 A 
HETATM    2  C   UNL     1      43.159   5.684  14.956  1.00  0.00     0.060 A 
HETATM    3  C   UNL     1      43.695   6.537  15.935  1.00  0.00     0.101 A 
HETATM    4  N   UNL     1      44.394   6.050  16.973  1.00  0.00    -0.329 N 
ATOM      5  HN  UNL     1      44.734   6.672  17.705  1.00  0.00     0.169 HD
HETATM    6  C   UNL     1      44.639   4.727  17.032  1.00  0.00     0.101 A 
HETATM    7  C   UNL     1      44.195   3.829  16.044  1.00  0.00     0.060 A 
ENDROOT
BRANCH   1   8
HETATM    8  C   UNL     1      42.866   3.386  13.955  1.00  0.00    -0.025 A 
HETATM    9  C   UNL     1      42.685   2.007  14.245  1.00  0.00     0.015 A 
HETATM   10  C   UNL     1      42.103   1.120  13.357  1.00  0.00     0.039 A 
HETATM   11  C   UNL     1      41.699   1.653  12.156  1.00  0.00     0.086 A 
HETATM   12  O   UNL     1      41.091   0.966  11.119  1.00  0.00    -0.314 OA
HETATM   13  C   UNL     1      41.856   2.990  11.819  1.00  0.00     0.007 A 
HETATM   14  C   UNL     1      40.884   1.909  10.124  1.00  0.00     0.056 A 
HETATM   15  C   UNL     1      41.356   3.127  10.477  1.00  0.00    -0.020 A 
HETATM   16  C   UNL     1      40.218   1.477   8.876  1.00  0.00     0.077 C 
HETATM   17  C   UNL     1      41.282   4.426   9.735  1.00  0.00     0.052 C 
HETATM   18  C   UNL     1      42.445   3.866  12.724  1.00  0.00     0.027 A 
ENDBRANCH   1   8
BRANCH   6  19
HETATM   19  N   UNL     1      45.342   4.293  18.094  1.00  0.00    -0.385 N 
ATOM     20  HN2 UNL     1      44.802   3.944  18.885  1.00  0.00     0.157 HD
ATOM     21  HN1 UNL     1      46.361   4.321  18.093  1.00  0.00     0.157 HD
ENDBRANCH   6  19
BRANCH   3  22
HETATM   22  N   UNL     1      43.444   7.874  15.925  1.00  0.00    -0.385 N 
ATOM     23  HN2 UNL     1      43.109   8.358  16.758  1.00  0.00     0.157 HD
ATOM     24  HN1 UNL     1      43.677   8.386  15.075  1.00  0.00     0.157 HD
ENDBRANCH   3  22
TORSDOF 3
ENDMDL
MODEL 15
REMARK VINA RESULT:    -7.808      4.799      7.463
REMARK INTER + INTRA:          -9.051
REMARK INTER:                  -8.719
REMARK INTRA:                  -0.332
REMARK UNBOUND:                -0.330
REMARK  3 active torsions:
REMARK  status: ('A' for Active; 'I' for Inactive)
REMARK    1  A    between atoms: C_7  and  C_12 
REMARK    2  A    between atoms: C_14  and  N_15 
REMARK    3  A    between atoms: C_20  and  N_21 
ROOT
HETATM    1  C   UNL     1      44.970   2.543  17.618  1.00  0.00    -0.019 A 
HETATM    2  C   UNL     1      44.591   1.239  17.278  1.00  0.00     0.060 A 
HETATM    3  C   UNL     1      45.088   0.142  18.002  1.00  0.00     0.101 A 
HETATM    4  N   UNL     1      46.024   0.302  18.951  1.00  0.00    -0.329 N 
ATOM      5  HN  UNL     1      46.415  -0.506  19.434  1.00  0.00     0.169 HD
HETATM    6  C   UNL     1      46.439   1.547  19.255  1.00  0.00     0.101 A 
HETATM    7  C   UNL     1      45.927   2.693  18.620  1.00  0.00     0.060 A 
ENDROOT
BRANCH   1   8
HETATM    8  C   UNL     1      44.475   3.722  16.842  1.00  0.00    -0.025 A 
HETATM    9  C   UNL     1      44.503   5.027  17.401  1.00  0.00     0.015 A 
HETATM   10  C   UNL     1      44.104   6.155  16.705  1.00  0.00     0.039 A 
HETATM   11  C   UNL     1      43.673   5.942  15.417  1.00  0.00     0.086 A 
HETATM   12  O   UNL     1      43.233   6.910  14.531  1.00  0.00    -0.314 OA
HETATM   13  C   UNL     1      43.619   4.688  14.824  1.00  0.00     0.007 A 
HETATM   14  C   UNL     1      42.894   6.225  13.374  1.00  0.00     0.056 A 
HETATM   15  C   UNL     1      43.073   4.889  13.509  1.00  0.00    -0.020 A 
HETATM   16  C   UNL     1      42.405   7.002  12.216  1.00  0.00     0.077 C 
HETATM   17  C   UNL     1      42.893   3.801  12.496  1.00  0.00     0.052 C 
HETATM   18  C   UNL     1      44.023   3.567  15.540  1.00  0.00     0.027 A 
ENDBRANCH   1   8
BRANCH   6  19
HETATM   19  N   UNL     1      47.380   1.649  20.211  1.00  0.00    -0.385 N 
ATOM     20  HN2 UNL     1      47.108   1.362  21.150  1.00  0.00     0.157 HD
ATOM     21  HN1 UNL     1      48.313   2.000  19.991  1.00  0.00     0.157 HD
ENDBRANCH   6  19
BRANCH   3  22
HETATM   22  N   UNL     1      44.714  -1.131  17.704  1.00  0.00    -0.385 N 
ATOM     23  HN2 UNL     1      45.143  -1.933  18.167  1.00  0.00     0.157 HD
ATOM     24  HN1 UNL     1      43.937  -1.251  17.055  1.00  0.00     0.157 HD
ENDBRANCH   3  22
TORSDOF 3
ENDMDL
MODEL 16
REMARK VINA RESULT:    -7.790      4.589      6.999
REMARK INTER + INTRA:          -9.031
REMARK INTER:                  -8.700
REMARK INTRA:                  -0.330
REMARK UNBOUND:                -0.330
REMARK  3 active torsions:
REMARK  status: ('A' for Active; 'I' for Inactive)
REMARK    1  A    between atoms: C_7  and  C_12 
REMARK    2  A    between atoms: C_14  and  N_15 
REMARK    3  A    between atoms: C_20  and  N_21 
ROOT
HETATM    1  C   UNL     1      42.861   1.757  13.624  1.00  0.00    -0.019 A 
HETATM    2  C   UNL     1      43.240   2.219  14.889  1.00  0.00     0.060 A 
HETATM    3  C   UNL     1      43.564   1.311  15.912  1.00  0.00     0.101 A 
HETATM    4  N   UNL     1      43.402  -0.012  15.742  1.00  0.00    -0.329 N 
ATOM      5  HN  UNL     1      43.591  -0.658  16.507  1.00  0.00     0.169 HD
HETATM    6  C   UNL     1      42.988  -0.471  14.546  1.00  0.00     0.101 A 
HETATM    7  C   UNL     1      42.719   0.381  13.458  1.00  0.00     0.060 A 
ENDROOT
BRANCH   1   8
HETATM    8  C   UNL     1      42.486   2.707  12.532  1.00  0.00    -0.025 A 
HETATM    9  C   UNL     1      42.083   2.230  11.256  1.00  0.00     0.015 A 
HETATM   10  C   UNL     1      41.677   3.068  10.231  1.00  0.00     0.039 A 
HETATM   11  C   UNL     1      41.683   4.412  10.518  1.00  0.00     0.086 A 
HETATM   12  O   UNL     1      41.317   5.434   9.660  1.00  0.00    -0.314 OA
HETATM   13  C   UNL     1      42.073   4.932  11.744  1.00  0.00     0.007 A 
HETATM   14  C   UNL     1      41.499   6.604  10.380  1.00  0.00     0.056 A 
HETATM   15  C   UNL     1      41.984   6.362  11.620  1.00  0.00    -0.020 A 
HETATM   16  C   UNL     1      41.163   7.888   9.729  1.00  0.00     0.077 C 
HETATM   17  C   UNL     1      42.260   7.323  12.736  1.00  0.00     0.052 C 
HETATM   18  C   UNL     1      42.478   4.075  12.761  1.00  0.00     0.027 A 
ENDBRANCH   1   8
BRANCH   6  19
HETATM   19  N   UNL     1      42.841  -1.803  14.432  1.00  0.00    -0.385 N 
ATOM     20  HN2 UNL     1      43.632  -2.317  14.046  1.00  0.00     0.157 HD
ATOM     21  HN1 UNL     1      41.975  -2.261  14.719  1.00  0.00     0.157 HD
ENDBRANCH   6  19
BRANCH   3  22
HETATM   22  N   UNL     1      43.957   1.737  17.141  1.00  0.00    -0.385 N 
ATOM     23  HN2 UNL     1      44.081   1.085  17.916  1.00  0.00     0.157 HD
ATOM     24  HN1 UNL     1      44.196   2.724  17.239  1.00  0.00     0.157 HD
ENDBRANCH   3  22
TORSDOF 3
ENDMDL
MODEL 17
REMARK VINA RESULT:    -7.704      4.265      6.889
REMARK INTER + INTRA:          -8.935
REMARK INTER:                  -8.608
REMARK INTRA:                  -0.327
REMARK UNBOUND:                -0.330
REMARK  3 active torsions:
REMARK  status: ('A' for Active; 'I' for Inactive)
REMARK    1  A    between atoms: C_7  and  C_12 
REMARK    2  A    between atoms: C_14  and  N_15 
REMARK    3  A    between atoms: C_20  and  N_21 
ROOT
HETATM    1  C   UNL     1      43.207   4.351  15.055  1.00  0.00    -0.019 A 
HETATM    2  C   UNL     1      44.044   3.889  16.077  1.00  0.00     0.060 A 
HETATM    3  C   UNL     1      44.582   4.783  17.018  1.00  0.00     0.101 A 
HETATM    4  N   UNL     1      44.409   6.109  16.892  1.00  0.00    -0.329 N 
ATOM      5  HN  UNL     1      44.846   6.753  17.551  1.00  0.00     0.169 HD
HETATM    6  C   UNL     1      43.649   6.576  15.884  1.00  0.00     0.101 A 
HETATM    7  C   UNL     1      43.020   5.729  14.952  1.00  0.00     0.060 A 
ENDROOT
BRANCH   1   8
HETATM    8  C   UNL     1      42.648   3.419  14.028  1.00  0.00    -0.025 A 
HETATM    9  C   UNL     1      42.417   2.051  14.332  1.00  0.00     0.015 A 
HETATM   10  C   UNL     1      41.855   1.163  13.432  1.00  0.00     0.039 A 
HETATM   11  C   UNL     1      41.522   1.684  12.204  1.00  0.00     0.086 A 
HETATM   12  O   UNL     1      40.947   0.995  11.152  1.00  0.00    -0.314 OA
HETATM   13  C   UNL     1      41.731   3.011  11.853  1.00  0.00     0.007 A 
HETATM   14  C   UNL     1      40.812   1.924  10.132  1.00  0.00     0.056 A 
HETATM   15  C   UNL     1      41.299   3.136  10.487  1.00  0.00    -0.020 A 
HETATM   16  C   UNL     1      40.195   1.488   8.861  1.00  0.00     0.077 C 
HETATM   17  C   UNL     1      41.295   4.423   9.720  1.00  0.00     0.052 C 
HETATM   18  C   UNL     1      42.299   3.888  12.770  1.00  0.00     0.027 A 
ENDBRANCH   1   8
BRANCH   6  19
HETATM   19  N   UNL     1      43.511   7.912  15.804  1.00  0.00    -0.385 N 
ATOM     20  HN2 UNL     1      43.258   8.396  16.665  1.00  0.00     0.157 HD
ATOM     21  HN1 UNL     1      43.653   8.401  14.920  1.00  0.00     0.157 HD
ENDBRANCH   6  19
BRANCH   3  22
HETATM   22  N   UNL     1      45.378   4.352  18.032  1.00  0.00    -0.385 N 
ATOM     23  HN2 UNL     1      45.698   3.385  18.083  1.00  0.00     0.157 HD
ATOM     24  HN1 UNL     1      45.704   5.051  18.700  1.00  0.00     0.157 HD
ENDBRANCH   3  22
TORSDOF 3
ENDMDL
MODEL 18
REMARK VINA RESULT:    -7.678      3.809      5.218
REMARK INTER + INTRA:          -8.906
REMARK INTER:                  -8.578
REMARK INTRA:                  -0.328
REMARK UNBOUND:                -0.330
REMARK  3 active torsions:
REMARK  status: ('A' for Active; 'I' for Inactive)
REMARK    1  A    between atoms: C_7  and  C_12 
REMARK    2  A    between atoms: C_14  and  N_15 
REMARK    3  A    between atoms: C_20  and  N_21 
ROOT
HETATM    1  C   UNL     1      42.076   4.683  11.753  1.00  0.00    -0.019 A 
HETATM    2  C   UNL     1      41.609   5.406  10.650  1.00  0.00     0.060 A 
HETATM    3  C   UNL     1      41.630   6.811  10.658  1.00  0.00     0.101 A 
HETATM    4  N   UNL     1      41.981   7.494  11.759  1.00  0.00    -0.329 N 
ATOM      5  HN  UNL     1      41.943   8.513  11.771  1.00  0.00     0.169 HD
HETATM    6  C   UNL     1      42.384   6.813  12.849  1.00  0.00     0.101 A 
HETATM    7  C   UNL     1      42.458   5.408  12.881  1.00  0.00     0.060 A 
ENDROOT
BRANCH   1   8
HETATM    8  C   UNL     1      42.036   3.189  11.775  1.00  0.00    -0.025 A 
HETATM    9  C   UNL     1      42.305   2.434  10.603  1.00  0.00     0.015 A 
HETATM   10  C   UNL     1      42.330   1.050  10.586  1.00  0.00     0.039 A 
HETATM   11  C   UNL     1      42.078   0.431  11.787  1.00  0.00     0.086 A 
HETATM   12  O   UNL     1      42.054  -0.933  12.016  1.00  0.00    -0.314 OA
HETATM   13  C   UNL     1      41.804   1.120  12.961  1.00  0.00     0.007 A 
HETATM   14  C   UNL     1      41.749  -1.077  13.361  1.00  0.00     0.056 A 
HETATM   15  C   UNL     1      41.554   0.120  13.964  1.00  0.00    -0.020 A 
HETATM   16  C   UNL     1      41.674  -2.443  13.922  1.00  0.00     0.077 C 
HETATM   17  C   UNL     1      41.272   0.422  15.403  1.00  0.00     0.052 C 
HETATM   18  C   UNL     1      41.782   2.510  12.958  1.00  0.00     0.027 A 
ENDBRANCH   1   8
BRANCH   6  19
HETATM   19  N   UNL     1      42.722   7.547  13.925  1.00  0.00    -0.385 N 
ATOM     20  HN2 UNL     1      43.332   7.099  14.608  1.00  0.00     0.157 HD
ATOM     21  HN1 UNL     1      42.376   8.500  14.038  1.00  0.00     0.157 HD
ENDBRANCH   6  19
BRANCH   3  22
HETATM   22  N   UNL     1      41.202   7.533   9.588  1.00  0.00    -0.385 N 
ATOM     23  HN2 UNL     1      40.475   8.243   9.681  1.00  0.00     0.157 HD
ATOM     24  HN1 UNL     1      41.689   7.391   8.703  1.00  0.00     0.157 HD
ENDBRANCH   3  22
TORSDOF 3
ENDMDL
MODEL 19
REMARK VINA RESULT:    -7.643      3.904      5.901
REMARK INTER + INTRA:          -8.867
REMARK INTER:                  -8.537
REMARK INTRA:                  -0.330
REMARK UNBOUND:                -0.330
REMARK  3 active torsions:
REMARK  status: ('A' for Active; 'I' for Inactive)
REMARK    1  A    between atoms: C_7  and  C_12 
REMARK    2  A    between atoms: C_14  and  N_15 
REMARK    3  A    between atoms: C_20  and  N_21 
ROOT
HETATM    1  C   UNL     1      40.311   1.461  10.238  1.00  0.00    -0.019 A 
HETATM    2  C   UNL     1      39.792   1.195   8.967  1.00  0.00     0.060 A 
HETATM    3  C   UNL     1      39.059   0.020   8.728  1.00  0.00     0.101 A 
HETATM    4  N   UNL     1      38.942  -0.929   9.671  1.00  0.00    -0.329 N 
ATOM      5  HN  UNL     1      38.453  -1.800   9.470  1.00  0.00     0.169 HD
HETATM    6  C   UNL     1      39.482  -0.712  10.886  1.00  0.00     0.101 A 
HETATM    7  C   UNL     1      40.163   0.475  11.212  1.00  0.00     0.060 A 
ENDROOT
BRANCH   1   8
HETATM    8  C   UNL     1      41.117   2.692  10.505  1.00  0.00    -0.025 A 
HETATM    9  C   UNL     1      41.238   3.713   9.525  1.00  0.00     0.015 A 
HETATM   10  C   UNL     1      41.930   4.892   9.745  1.00  0.00     0.039 A 
HETATM   11  C   UNL     1      42.505   5.027  10.986  1.00  0.00     0.086 A 
HETATM   12  O   UNL     1      43.236   6.112  11.435  1.00  0.00    -0.314 OA
HETATM   13  C   UNL     1      42.423   4.059  11.978  1.00  0.00     0.007 A 
HETATM   14  C   UNL     1      43.617   5.790  12.729  1.00  0.00     0.056 A 
HETATM   15  C   UNL     1      43.187   4.558  13.089  1.00  0.00    -0.020 A 
HETATM   16  C   UNL     1      44.405   6.779  13.495  1.00  0.00     0.077 C 
HETATM   17  C   UNL     1      43.321   3.853  14.404  1.00  0.00     0.052 C 
HETATM   18  C   UNL     1      41.725   2.881  11.738  1.00  0.00     0.027 A 
ENDBRANCH   1   8
BRANCH   6  19
HETATM   19  N   UNL     1      39.337  -1.696  11.791  1.00  0.00    -0.385 N 
ATOM     20  HN2 UNL     1      38.469  -2.230  11.749  1.00  0.00     0.157 HD
ATOM     21  HN1 UNL     1      40.066  -1.886  12.479  1.00  0.00     0.157 HD
ENDBRANCH   6  19
BRANCH   3  22
HETATM   22  N   UNL     1      38.525  -0.247   7.506  1.00  0.00    -0.385 N 
ATOM     23  HN2 UNL     1      37.515  -0.269   7.360  1.00  0.00     0.157 HD
ATOM     24  HN1 UNL     1      39.173  -0.349   6.726  1.00  0.00     0.157 HD
ENDBRANCH   3  22
TORSDOF 3
ENDMDL
MODEL 20
REMARK VINA RESULT:    -7.624      3.319      5.378
REMARK INTER + INTRA:          -8.845
REMARK INTER:                  -8.516
REMARK INTRA:                  -0.330
REMARK UNBOUND:                -0.330
REMARK  3 active torsions:
REMARK  status: ('A' for Active; 'I' for Inactive)
REMARK    1  A    between atoms: C_7  and  C_12 
REMARK    2  A    between atoms: C_14  and  N_15 
REMARK    3  A    between atoms: C_20  and  N_21 
ROOT
HETATM    1  C   UNL     1      41.680   1.344  11.363  1.00  0.00    -0.019 A 
HETATM    2  C   UNL     1      41.820  -0.032  11.571  1.00  0.00     0.060 A 
HETATM    3  C   UNL     1      41.344  -0.949  10.618  1.00  0.00     0.101 A 
HETATM    4  N   UNL     1      40.640  -0.538   9.551  1.00  0.00    -0.329 N 
ATOM      5  HN  UNL     1      40.254  -1.214   8.893  1.00  0.00     0.169 HD
HETATM    6  C   UNL     1      40.450   0.782   9.363  1.00  0.00     0.101 A 
HETATM    7  C   UNL     1      40.966   1.755  10.239  1.00  0.00     0.060 A 
ENDROOT
BRANCH   1   8
HETATM    8  C   UNL     1      42.155   2.334  12.378  1.00  0.00    -0.025 A 
HETATM    9  C   UNL     1      42.773   1.906  13.583  1.00  0.00     0.015 A 
HETATM   10  C   UNL     1      43.274   2.784  14.528  1.00  0.00     0.039 A 
HETATM   11  C   UNL     1      43.142   4.120  14.233  1.00  0.00     0.086 A 
HETATM   12  O   UNL     1      43.568   5.177  15.018  1.00  0.00    -0.314 OA
HETATM   13  C   UNL     1      42.541   4.594  13.075  1.00  0.00     0.007 A 
HETATM   14  C   UNL     1      43.208   6.322  14.323  1.00  0.00     0.056 A 
HETATM   15  C   UNL     1      42.559   6.029  13.172  1.00  0.00    -0.020 A 
HETATM   16  C   UNL     1      43.557   7.635  14.905  1.00  0.00     0.077 C 
HETATM   17  C   UNL     1      42.059   6.951  12.103  1.00  0.00     0.052 C 
HETATM   18  C   UNL     1      42.043   3.696  12.138  1.00  0.00     0.027 A 
ENDBRANCH   1   8
BRANCH   6  19
HETATM   19  N   UNL     1      39.736   1.138   8.279  1.00  0.00    -0.385 N 
ATOM     20  HN2 UNL     1      39.390   2.097   8.257  1.00  0.00     0.157 HD
ATOM     21  HN1 UNL     1      39.557   0.471   7.529  1.00  0.00     0.157 HD
ENDBRANCH   6  19
BRANCH   3  22
HETATM   22  N   UNL     1      41.490  -2.290  10.788  1.00  0.00    -0.385 N 
ATOM     23  HN2 UNL     1      40.687  -2.919  10.767  1.00  0.00     0.157 HD
ATOM     24  HN1 UNL     1      42.440  -2.650  10.864  1.00  0.00     0.157 HD
ENDBRANCH   3  22
TORSDOF 3
ENDMDL
