MODEL 1
REMARK VINA RESULT:   -12.125      0.000      0.000
REMARK INTER + INTRA:         -18.285
REMARK INTER:                 -17.087
REMARK INTRA:                  -1.198
REMARK UNBOUND:                -1.198
REMARK  7 active torsions:
REMARK  status: ('A' for Active; 'I' for Inactive)
REMARK    1  A    between atoms: C_1  and  N_13 
REMARK    2  A    between atoms: N_4  and  C_22 
REMARK    3  A    between atoms: C_7  and  N_13 
REMARK    4  A    between atoms: N_13  and  C_15 
REMARK    5  A    between atoms: C_17  and  C_21 
REMARK    6  A    between atoms: C_21  and  C_22 
REMARK       I    between atoms: N_32  and  C_34 
REMARK    7  A    between atoms: C_34  and  C_36 
ROOT
HETATM    1  N   UNL     1      -7.298 -16.157  37.436  1.00  0.00    -0.268 N 
HETATM    2  C   UNL     1      -6.328 -15.871  38.414  1.00  0.00     0.326 A 
HETATM    3  O   UNL     1      -5.189 -15.475  38.213  1.00  0.00    -0.247 OA
HETATM    4  N   UNL     1      -6.901 -16.050  39.602  1.00  0.00    -0.323 N 
ATOM      5  HN  UNL     1      -6.412 -15.906  40.486  1.00  0.00     0.165 HD
HETATM    6  C   UNL     1      -8.291 -16.472  39.518  1.00  0.00     0.133 A 
HETATM    7  C   UNL     1      -8.509 -16.468  38.024  1.00  0.00     0.258 A 
HETATM    8  O   UNL     1      -9.558 -16.719  37.455  1.00  0.00    -0.270 OA
HETATM    9  C   UNL     1      -9.255 -15.526  40.261  1.00  0.00     0.063 C 
HETATM   10  C   UNL     1      -9.341 -16.088  41.666  1.00  0.00     0.129 C 
HETATM   11  N   UNL     1      -8.936 -17.485  41.506  1.00  0.00    -0.344 N 
HETATM   12  C   UNL     1      -8.540 -17.841  40.152  1.00  0.00     0.167 C 
HETATM   13  C   UNL     1      -8.835 -18.398  42.472  1.00  0.00     0.271 C 
HETATM   14  O   UNL     1      -8.484 -19.559  42.215  1.00  0.00    -0.266 OA
ENDROOT
BRANCH   1  15
HETATM   15  C   UNL     1      -7.071 -16.035  35.997  1.00  0.00     0.141 C 
BRANCH  15  16
HETATM   16  C   UNL     1      -6.932 -17.388  35.309  1.00  0.00     0.066 C 
BRANCH  16  17
HETATM   17  C   UNL     1      -5.652 -18.138  35.613  1.00  0.00     0.026 A 
HETATM   18  C   UNL     1      -5.791 -19.240  36.561  1.00  0.00     0.295 A 
HETATM   19  O   UNL     1      -6.748 -19.432  37.281  1.00  0.00    -0.259 OA
HETATM   20  O   UNL     1      -4.730 -20.113  36.707  1.00  0.00    -0.274 OA
HETATM   21  C   UNL     1      -3.555 -19.938  36.035  1.00  0.00     0.092 A 
HETATM   22  C   UNL     1      -2.579 -20.876  36.267  1.00  0.00     0.067 A 
HETATM   23  C   UNL     1      -3.373 -18.874  35.162  1.00  0.00     0.005 A 
HETATM   24  C   UNL     1      -1.354 -20.788  35.605  1.00  0.00     0.032 A 
HETATM   25  C   UNL     1      -1.159 -19.733  34.725  1.00  0.00     0.030 A 
HETATM   26  C   UNL     1      -2.144 -18.788  34.519  1.00  0.00     0.017 A 
HETATM   27  C   UNL     1      -4.478 -17.935  34.944  1.00  0.00    -0.037 A 
HETATM   28  C   UNL     1      -4.267 -16.790  34.002  1.00  0.00     0.050 C 
BRANCH  24  29
HETATM   29  N   UNL     1      -0.325 -21.699  35.881  1.00  0.00    -0.382 N 
BRANCH  29  30
HETATM   30  C   UNL     1      -0.395 -22.613  36.994  1.00  0.00     0.118 C 
HETATM   31  C   UNL     1      -0.416 -24.022  36.559  1.00  0.00     0.026 C 
ENDBRANCH  29  30
BRANCH  29  32
HETATM   32  C   UNL     1       0.817 -21.866  34.960  1.00  0.00     0.118 C 
HETATM   33  C   UNL     1       2.008 -21.511  35.720  1.00  0.00     0.026 C 
ENDBRANCH  29  32
ENDBRANCH  24  29
ENDBRANCH  16  17
ENDBRANCH  15  16
ENDBRANCH   1  15
BRANCH  13  34
HETATM   34  C   UNL     1      -9.088 -17.977  43.884  1.00  0.00     0.117 A 
HETATM   35  C   UNL     1      -8.362 -17.737  45.023  1.00  0.00     0.124 A 
HETATM   36  N   UNL     1      -9.176 -17.341  46.054  1.00  0.00    -0.360 N 
HETATM   37  C   UNL     1     -10.393 -17.354  45.543  1.00  0.00     0.180 A 
ATOM     38  HN  UNL     1      -8.902 -17.092  47.004  1.00  0.00     0.166 HD
HETATM   39  N   UNL     1     -10.392 -17.731  44.244  1.00  0.00    -0.347 N 
ATOM     40  HN  UNL     1     -11.211 -17.818  43.642  1.00  0.00     0.167 HD
ENDBRANCH  13  34
TORSDOF 7
ENDMDL
MODEL 2
REMARK VINA RESULT:   -11.343      1.271      2.151
REMARK INTER + INTRA:         -17.183
REMARK INTER:                 -15.885
REMARK INTRA:                  -1.298
REMARK UNBOUND:                -1.198
REMARK  7 active torsions:
REMARK  status: ('A' for Active; 'I' for Inactive)
REMARK    1  A    between atoms: C_1  and  N_13 
REMARK    2  A    between atoms: N_4  and  C_22 
REMARK    3  A    between atoms: C_7  and  N_13 
REMARK    4  A    between atoms: N_13  and  C_15 
REMARK    5  A    between atoms: C_17  and  C_21 
REMARK    6  A    between atoms: C_21  and  C_22 
REMARK       I    between atoms: N_32  and  C_34 
REMARK    7  A    between atoms: C_34  and  C_36 
ROOT
HETATM    1  N   UNL     1      -7.772 -16.375  37.289  1.00  0.00    -0.268 N 
HETATM    2  C   UNL     1      -9.108 -16.763  37.495  1.00  0.00     0.326 A 
HETATM    3  O   UNL     1      -9.946 -16.974  36.628  1.00  0.00    -0.247 OA
HETATM    4  N   UNL     1      -9.276 -16.922  38.805  1.00  0.00    -0.323 N 
ATOM      5  HN  UNL     1     -10.161 -17.206  39.226  1.00  0.00     0.165 HD
HETATM    6  C   UNL     1      -8.075 -16.650  39.580  1.00  0.00     0.133 A 
HETATM    7  C   UNL     1      -7.082 -16.341  38.485  1.00  0.00     0.258 A 
HETATM    8  O   UNL     1      -5.900 -16.088  38.644  1.00  0.00    -0.270 OA
HETATM    9  C   UNL     1      -7.639 -17.841  40.457  1.00  0.00     0.063 C 
HETATM   10  C   UNL     1      -8.345 -17.623  41.781  1.00  0.00     0.129 C 
HETATM   11  N   UNL     1      -8.640 -16.189  41.786  1.00  0.00    -0.344 N 
HETATM   12  C   UNL     1      -8.249 -15.496  40.568  1.00  0.00     0.167 C 
HETATM   13  C   UNL     1      -9.274 -15.513  42.743  1.00  0.00     0.271 C 
HETATM   14  O   UNL     1      -9.464 -14.292  42.639  1.00  0.00    -0.266 OA
ENDROOT
BRANCH   1  15
HETATM   15  C   UNL     1      -7.180 -16.143  35.972  1.00  0.00     0.141 C 
BRANCH  15  16
HETATM   16  C   UNL     1      -6.944 -17.436  35.200  1.00  0.00     0.066 C 
BRANCH  16  17
HETATM   17  C   UNL     1      -5.656 -18.160  35.532  1.00  0.00     0.026 A 
HETATM   18  C   UNL     1      -5.793 -19.266  36.476  1.00  0.00     0.295 A 
HETATM   19  O   UNL     1      -6.760 -19.477  37.175  1.00  0.00    -0.259 OA
HETATM   20  O   UNL     1      -4.717 -20.116  36.644  1.00  0.00    -0.274 OA
HETATM   21  C   UNL     1      -3.532 -19.917  35.998  1.00  0.00     0.092 A 
HETATM   22  C   UNL     1      -2.542 -20.835  36.250  1.00  0.00     0.067 A 
HETATM   23  C   UNL     1      -3.354 -18.848  35.129  1.00  0.00     0.005 A 
HETATM   24  C   UNL     1      -1.305 -20.721  35.614  1.00  0.00     0.032 A 
HETATM   25  C   UNL     1      -1.113 -19.661  34.739  1.00  0.00     0.030 A 
HETATM   26  C   UNL     1      -2.113 -18.736  34.513  1.00  0.00     0.017 A 
HETATM   27  C   UNL     1      -4.472 -17.932  34.888  1.00  0.00    -0.037 A 
HETATM   28  C   UNL     1      -4.265 -16.782  33.951  1.00  0.00     0.050 C 
BRANCH  24  29
HETATM   29  N   UNL     1      -0.264 -21.611  35.912  1.00  0.00    -0.382 N 
BRANCH  29  30
HETATM   30  C   UNL     1       1.114 -21.294  35.629  1.00  0.00     0.118 C 
HETATM   31  C   UNL     1       1.713 -22.228  34.656  1.00  0.00     0.026 C 
ENDBRANCH  29  30
BRANCH  29  32
HETATM   32  C   UNL     1      -0.514 -22.858  36.662  1.00  0.00     0.118 C 
HETATM   33  C   UNL     1       0.029 -22.648  37.996  1.00  0.00     0.026 C 
ENDBRANCH  29  32
ENDBRANCH  24  29
ENDBRANCH  16  17
ENDBRANCH  15  16
ENDBRANCH   1  15
BRANCH  13  34
HETATM   34  C   UNL     1      -9.814 -16.267  43.915  1.00  0.00     0.117 A 
HETATM   35  C   UNL     1     -10.950 -16.959  44.248  1.00  0.00     0.124 A 
HETATM   36  N   UNL     1     -10.863 -17.472  45.517  1.00  0.00    -0.360 N 
HETATM   37  C   UNL     1      -9.681 -17.081  45.956  1.00  0.00     0.180 A 
ATOM     38  HN  UNL     1     -11.557 -18.032  46.012  1.00  0.00     0.166 HD
HETATM   39  N   UNL     1      -9.015 -16.352  45.032  1.00  0.00    -0.347 N 
ATOM     40  HN  UNL     1      -8.089 -15.941  45.143  1.00  0.00     0.167 HD
ENDBRANCH  13  34
TORSDOF 7
ENDMDL
MODEL 3
REMARK VINA RESULT:   -10.405      2.493      3.295
REMARK INTER + INTRA:         -15.862
REMARK INTER:                 -15.174
REMARK INTRA:                  -0.688
REMARK UNBOUND:                -1.198
REMARK  7 active torsions:
REMARK  status: ('A' for Active; 'I' for Inactive)
REMARK    1  A    between atoms: C_1  and  N_13 
REMARK    2  A    between atoms: N_4  and  C_22 
REMARK    3  A    between atoms: C_7  and  N_13 
REMARK    4  A    between atoms: N_13  and  C_15 
REMARK    5  A    between atoms: C_17  and  C_21 
REMARK    6  A    between atoms: C_21  and  C_22 
REMARK       I    between atoms: N_32  and  C_34 
REMARK    7  A    between atoms: C_34  and  C_36 
ROOT
HETATM    1  N   UNL     1      -6.880 -15.753  36.129  1.00  0.00    -0.268 N 
HETATM    2  C   UNL     1      -8.139 -15.241  35.768  1.00  0.00     0.326 A 
HETATM    3  O   UNL     1      -8.548 -15.050  34.631  1.00  0.00    -0.247 OA
HETATM    4  N   UNL     1      -8.829 -15.063  36.892  1.00  0.00    -0.323 N 
ATOM      5  HN  UNL     1      -9.782 -14.701  36.912  1.00  0.00     0.165 HD
HETATM    6  C   UNL     1      -8.092 -15.435  38.090  1.00  0.00     0.133 A 
HETATM    7  C   UNL     1      -6.802 -15.947  37.494  1.00  0.00     0.258 A 
HETATM    8  O   UNL     1      -5.865 -16.418  38.117  1.00  0.00    -0.270 OA
HETATM    9  C   UNL     1      -8.816 -16.499  38.940  1.00  0.00     0.063 C 
HETATM   10  C   UNL     1      -9.667 -15.703  39.909  1.00  0.00     0.129 C 
HETATM   11  N   UNL     1      -9.016 -14.393  39.948  1.00  0.00    -0.344 N 
HETATM   12  C   UNL     1      -7.879 -14.264  39.050  1.00  0.00     0.167 C 
HETATM   13  C   UNL     1      -9.408 -13.333  40.655  1.00  0.00     0.271 C 
HETATM   14  O   UNL     1      -8.771 -12.270  40.613  1.00  0.00    -0.266 OA
ENDROOT
BRANCH   1  15
HETATM   15  C   UNL     1      -5.841 -16.125  35.168  1.00  0.00     0.141 C 
BRANCH  15  16
HETATM   16  C   UNL     1      -5.882 -17.604  34.804  1.00  0.00     0.066 C 
BRANCH  16  17
HETATM   17  C   UNL     1      -4.696 -18.419  35.279  1.00  0.00     0.026 A 
HETATM   18  C   UNL     1      -4.995 -19.398  36.320  1.00  0.00     0.295 A 
HETATM   19  O   UNL     1      -6.011 -19.434  36.981  1.00  0.00    -0.259 OA
HETATM   20  O   UNL     1      -4.028 -20.333  36.633  1.00  0.00    -0.274 OA
HETATM   21  C   UNL     1      -2.800 -20.327  36.038  1.00  0.00     0.092 A 
HETATM   22  C   UNL     1      -1.928 -21.311  36.436  1.00  0.00     0.067 A 
HETATM   23  C   UNL     1      -2.467 -19.380  35.078  1.00  0.00     0.005 A 
HETATM   24  C   UNL     1      -0.658 -21.393  35.863  1.00  0.00     0.032 A 
HETATM   25  C   UNL     1      -0.312 -20.457  34.898  1.00  0.00     0.030 A 
HETATM   26  C   UNL     1      -1.195 -19.463  34.524  1.00  0.00     0.017 A 
HETATM   27  C   UNL     1      -3.467 -18.384  34.684  1.00  0.00    -0.037 A 
HETATM   28  C   UNL     1      -3.093 -17.367  33.649  1.00  0.00     0.050 C 
BRANCH  24  29
HETATM   29  N   UNL     1       0.265 -22.350  36.307  1.00  0.00    -0.382 N 
BRANCH  29  30
HETATM   30  C   UNL     1       1.686 -22.106  36.282  1.00  0.00     0.118 C 
HETATM   31  C   UNL     1       2.252 -22.238  34.926  1.00  0.00     0.026 C 
ENDBRANCH  29  30
BRANCH  29  32
HETATM   32  C   UNL     1      -0.180 -23.600  36.954  1.00  0.00     0.118 C 
HETATM   33  C   UNL     1      -0.480 -24.533  35.878  1.00  0.00     0.026 C 
ENDBRANCH  29  32
ENDBRANCH  24  29
ENDBRANCH  16  17
ENDBRANCH  15  16
ENDBRANCH   1  15
BRANCH  13  34
HETATM   34  C   UNL     1     -10.670 -13.429  41.449  1.00  0.00     0.117 A 
HETATM   35  C   UNL     1     -12.022 -13.459  41.217  1.00  0.00     0.124 A 
HETATM   36  N   UNL     1     -12.723 -13.581  42.390  1.00  0.00    -0.360 N 
HETATM   37  C   UNL     1     -11.797 -13.612  43.331  1.00  0.00     0.180 A 
ATOM     38  HN  UNL     1     -13.735 -13.637  42.509  1.00  0.00     0.166 HD
HETATM   39  N   UNL     1     -10.550 -13.521  42.816  1.00  0.00    -0.347 N 
ATOM     40  HN  UNL     1      -9.679 -13.521  43.346  1.00  0.00     0.167 HD
ENDBRANCH  13  34
TORSDOF 7
ENDMDL
MODEL 4
REMARK VINA RESULT:   -10.366      1.951      2.274
REMARK INTER + INTRA:         -15.806
REMARK INTER:                 -15.092
REMARK INTRA:                  -0.714
REMARK UNBOUND:                -1.198
REMARK  7 active torsions:
REMARK  status: ('A' for Active; 'I' for Inactive)
REMARK    1  A    between atoms: C_1  and  N_13 
REMARK    2  A    between atoms: N_4  and  C_22 
REMARK    3  A    between atoms: C_7  and  N_13 
REMARK    4  A    between atoms: N_13  and  C_15 
REMARK    5  A    between atoms: C_17  and  C_21 
REMARK    6  A    between atoms: C_21  and  C_22 
REMARK       I    between atoms: N_32  and  C_34 
REMARK    7  A    between atoms: C_34  and  C_36 
ROOT
HETATM    1  N   UNL     1      -7.074 -15.810  36.719  1.00  0.00    -0.268 N 
HETATM    2  C   UNL     1      -6.383 -15.722  37.941  1.00  0.00     0.326 A 
HETATM    3  O   UNL     1      -5.182 -15.878  38.109  1.00  0.00    -0.247 OA
HETATM    4  N   UNL     1      -7.269 -15.374  38.871  1.00  0.00    -0.323 N 
ATOM      5  HN  UNL     1      -7.026 -15.238  39.852  1.00  0.00     0.165 HD
HETATM    6  C   UNL     1      -8.618 -15.204  38.352  1.00  0.00     0.133 A 
HETATM    7  C   UNL     1      -8.401 -15.460  36.880  1.00  0.00     0.258 A 
HETATM    8  O   UNL     1      -9.252 -15.390  36.010  1.00  0.00    -0.270 OA
HETATM    9  C   UNL     1      -9.202 -13.805  38.632  1.00  0.00     0.063 C 
HETATM   10  C   UNL     1      -9.909 -13.943  39.966  1.00  0.00     0.129 C 
HETATM   11  N   UNL     1     -10.161 -15.380  40.079  1.00  0.00    -0.344 N 
HETATM   12  C   UNL     1      -9.626 -16.168  38.980  1.00  0.00     0.167 C 
HETATM   13  C   UNL     1     -10.753 -16.004  41.098  1.00  0.00     0.271 C 
HETATM   14  O   UNL     1     -10.917 -17.233  41.081  1.00  0.00    -0.266 OA
ENDROOT
BRANCH   1  15
HETATM   15  C   UNL     1      -6.440 -16.128  35.440  1.00  0.00     0.141 C 
BRANCH  15  16
HETATM   16  C   UNL     1      -6.447 -17.621  35.138  1.00  0.00     0.066 C 
BRANCH  16  17
HETATM   17  C   UNL     1      -5.191 -18.367  35.538  1.00  0.00     0.026 A 
HETATM   18  C   UNL     1      -5.376 -19.378  36.576  1.00  0.00     0.295 A 
HETATM   19  O   UNL     1      -6.353 -19.485  37.286  1.00  0.00    -0.259 OA
HETATM   20  O   UNL     1      -4.338 -20.255  36.825  1.00  0.00    -0.274 OA
HETATM   21  C   UNL     1      -3.145 -20.164  36.169  1.00  0.00     0.092 A 
HETATM   22  C   UNL     1      -2.195 -21.097  36.506  1.00  0.00     0.067 A 
HETATM   23  C   UNL     1      -2.920 -19.185  35.210  1.00  0.00     0.005 A 
HETATM   24  C   UNL     1      -0.953 -21.093  35.869  1.00  0.00     0.032 A 
HETATM   25  C   UNL     1      -0.715 -20.124  34.905  1.00  0.00     0.030 A 
HETATM   26  C   UNL     1      -1.675 -19.181  34.593  1.00  0.00     0.017 A 
HETATM   27  C   UNL     1      -3.998 -18.248  34.884  1.00  0.00    -0.037 A 
HETATM   28  C   UNL     1      -3.740 -17.196  33.849  1.00  0.00     0.050 C 
BRANCH  24  29
HETATM   29  N   UNL     1       0.048 -21.997  36.250  1.00  0.00    -0.382 N 
BRANCH  29  30
HETATM   30  C   UNL     1       1.447 -21.717  36.039  1.00  0.00     0.118 C 
HETATM   31  C   UNL     1       1.921 -22.198  34.728  1.00  0.00     0.026 C 
ENDBRANCH  29  30
BRANCH  29  32
HETATM   32  C   UNL     1      -0.274 -23.217  37.016  1.00  0.00     0.118 C 
HETATM   33  C   UNL     1      -0.615 -24.237  36.034  1.00  0.00     0.026 C 
ENDBRANCH  29  32
ENDBRANCH  24  29
ENDBRANCH  16  17
ENDBRANCH  15  16
ENDBRANCH   1  15
BRANCH  13  34
HETATM   34  C   UNL     1     -11.153 -15.202  42.293  1.00  0.00     0.117 A 
HETATM   35  C   UNL     1     -10.549 -14.437  43.259  1.00  0.00     0.124 A 
HETATM   36  N   UNL     1     -11.473 -13.911  44.125  1.00  0.00    -0.360 N 
HETATM   37  C   UNL     1     -12.634 -14.367  43.691  1.00  0.00     0.180 A 
ATOM     38  HN  UNL     1     -11.302 -13.303  44.926  1.00  0.00     0.166 HD
HETATM   39  N   UNL     1     -12.494 -15.148  42.597  1.00  0.00    -0.347 N 
ATOM     40  HN  UNL     1     -13.246 -15.612  42.088  1.00  0.00     0.167 HD
ENDBRANCH  13  34
TORSDOF 7
ENDMDL
MODEL 5
REMARK VINA RESULT:   -10.025      1.448      2.226
REMARK INTER + INTRA:         -15.326
REMARK INTER:                 -14.192
REMARK INTRA:                  -1.133
REMARK UNBOUND:                -1.198
REMARK  7 active torsions:
REMARK  status: ('A' for Active; 'I' for Inactive)
REMARK    1  A    between atoms: C_1  and  N_13 
REMARK    2  A    between atoms: N_4  and  C_22 
REMARK    3  A    between atoms: C_7  and  N_13 
REMARK    4  A    between atoms: N_13  and  C_15 
REMARK    5  A    between atoms: C_17  and  C_21 
REMARK    6  A    between atoms: C_21  and  C_22 
REMARK       I    between atoms: N_32  and  C_34 
REMARK    7  A    between atoms: C_34  and  C_36 
ROOT
HETATM    1  N   UNL     1      -7.139 -15.324  36.865  1.00  0.00    -0.268 N 
HETATM    2  C   UNL     1      -6.286 -15.045  37.948  1.00  0.00     0.326 A 
HETATM    3  O   UNL     1      -5.165 -14.561  37.884  1.00  0.00    -0.247 OA
HETATM    4  N   UNL     1      -6.950 -15.345  39.061  1.00  0.00    -0.323 N 
ATOM      5  HN  UNL     1      -6.557 -15.231  39.995  1.00  0.00     0.165 HD
HETATM    6  C   UNL     1      -8.293 -15.850  38.817  1.00  0.00     0.133 A 
HETATM    7  C   UNL     1      -8.373 -15.756  37.312  1.00  0.00     0.258 A 
HETATM    8  O   UNL     1      -9.344 -16.035  36.630  1.00  0.00    -0.270 OA
HETATM    9  C   UNL     1      -9.387 -15.025  39.523  1.00  0.00     0.063 C 
HETATM   10  C   UNL     1      -9.560 -15.690  40.874  1.00  0.00     0.129 C 
HETATM   11  N   UNL     1      -9.041 -17.042  40.665  1.00  0.00    -0.344 N 
HETATM   12  C   UNL     1      -8.499 -17.275  39.335  1.00  0.00     0.167 C 
HETATM   13  C   UNL     1      -8.964 -18.012  41.576  1.00  0.00     0.271 C 
HETATM   14  O   UNL     1      -8.507 -19.127  41.280  1.00  0.00    -0.266 OA
ENDROOT
BRANCH   1  15
HETATM   15  C   UNL     1      -6.790 -15.086  35.465  1.00  0.00     0.141 C 
BRANCH  15  16
HETATM   16  C   UNL     1      -6.965 -16.328  34.599  1.00  0.00     0.066 C 
BRANCH  16  17
HETATM   17  C   UNL     1      -5.825 -17.324  34.660  1.00  0.00     0.026 A 
HETATM   18  C   UNL     1      -4.652 -16.972  33.864  1.00  0.00     0.295 A 
HETATM   19  O   UNL     1      -4.617 -16.119  33.003  1.00  0.00    -0.259 OA
HETATM   20  O   UNL     1      -3.494 -17.700  34.053  1.00  0.00    -0.274 OA
HETATM   21  C   UNL     1      -3.439 -18.758  34.914  1.00  0.00     0.092 A 
HETATM   22  C   UNL     1      -2.228 -19.399  35.012  1.00  0.00     0.067 A 
HETATM   23  C   UNL     1      -4.550 -19.148  35.650  1.00  0.00     0.005 A 
HETATM   24  C   UNL     1      -2.076 -20.477  35.884  1.00  0.00     0.032 A 
HETATM   25  C   UNL     1      -3.175 -20.875  36.632  1.00  0.00     0.030 A 
HETATM   26  C   UNL     1      -4.391 -20.232  36.506  1.00  0.00     0.017 A 
HETATM   27  C   UNL     1      -5.797 -18.390  35.514  1.00  0.00    -0.037 A 
HETATM   28  C   UNL     1      -6.987 -18.824  36.312  1.00  0.00     0.050 C 
BRANCH  24  29
HETATM   29  N   UNL     1      -0.866 -21.181  35.946  1.00  0.00    -0.382 N 
BRANCH  29  30
HETATM   30  C   UNL     1       0.250 -20.854  35.093  1.00  0.00     0.118 C 
HETATM   31  C   UNL     1       1.502 -20.679  35.853  1.00  0.00     0.026 C 
ENDBRANCH  29  30
BRANCH  29  32
HETATM   32  C   UNL     1      -0.626 -22.200  36.986  1.00  0.00     0.118 C 
HETATM   33  C   UNL     1      -0.594 -23.484  36.300  1.00  0.00     0.026 C 
ENDBRANCH  29  32
ENDBRANCH  24  29
ENDBRANCH  16  17
ENDBRANCH  15  16
ENDBRANCH   1  15
BRANCH  13  34
HETATM   34  C   UNL     1      -9.375 -17.710  42.980  1.00  0.00     0.117 A 
HETATM   35  C   UNL     1     -10.492 -17.834  43.766  1.00  0.00     0.124 A 
HETATM   36  N   UNL     1     -10.256 -17.380  45.039  1.00  0.00    -0.360 N 
HETATM   37  C   UNL     1      -9.001 -16.969  45.019  1.00  0.00     0.180 A 
ATOM     38  HN  UNL     1     -10.905 -17.363  45.825  1.00  0.00     0.166 HD
HETATM   39  N   UNL     1      -8.431 -17.144  43.806  1.00  0.00    -0.347 N 
ATOM     40  HN  UNL     1      -7.475 -16.900  43.549  1.00  0.00     0.167 HD
ENDBRANCH  13  34
TORSDOF 7
ENDMDL
MODEL 6
REMARK VINA RESULT:    -9.752      1.581      2.130
REMARK INTER + INTRA:         -14.942
REMARK INTER:                 -16.250
REMARK INTRA:                   1.308
REMARK UNBOUND:                -1.198
REMARK  7 active torsions:
REMARK  status: ('A' for Active; 'I' for Inactive)
REMARK    1  A    between atoms: C_1  and  N_13 
REMARK    2  A    between atoms: N_4  and  C_22 
REMARK    3  A    between atoms: C_7  and  N_13 
REMARK    4  A    between atoms: N_13  and  C_15 
REMARK    5  A    between atoms: C_17  and  C_21 
REMARK    6  A    between atoms: C_21  and  C_22 
REMARK       I    between atoms: N_32  and  C_34 
REMARK    7  A    between atoms: C_34  and  C_36 
ROOT
HETATM    1  N   UNL     1      -8.139 -17.697  36.822  1.00  0.00    -0.268 N 
HETATM    2  C   UNL     1      -8.104 -16.308  37.040  1.00  0.00     0.326 A 
HETATM    3  O   UNL     1      -7.621 -15.467  36.295  1.00  0.00    -0.247 OA
HETATM    4  N   UNL     1      -8.751 -16.071  38.179  1.00  0.00    -0.323 N 
ATOM      5  HN  UNL     1      -8.874 -15.136  38.568  1.00  0.00     0.165 HD
HETATM    6  C   UNL     1      -9.265 -17.274  38.814  1.00  0.00     0.133 A 
HETATM    7  C   UNL     1      -8.864 -18.331  37.812  1.00  0.00     0.258 A 
HETATM    8  O   UNL     1      -9.118 -19.520  37.889  1.00  0.00    -0.270 OA
HETATM    9  C   UNL     1     -10.788 -17.229  39.051  1.00  0.00     0.063 C 
HETATM   10  C   UNL     1     -10.946 -16.629  40.434  1.00  0.00     0.129 C 
HETATM   11  N   UNL     1      -9.652 -16.879  41.070  1.00  0.00    -0.344 N 
HETATM   12  C   UNL     1      -8.673 -17.517  40.204  1.00  0.00     0.167 C 
HETATM   13  C   UNL     1      -9.290 -16.519  42.302  1.00  0.00     0.271 C 
HETATM   14  O   UNL     1      -8.161 -16.790  42.738  1.00  0.00    -0.266 OA
ENDROOT
BRANCH   1  15
HETATM   15  C   UNL     1      -7.571 -18.356  35.646  1.00  0.00     0.141 C 
BRANCH  15  16
HETATM   16  C   UNL     1      -6.279 -17.699  35.174  1.00  0.00     0.066 C 
BRANCH  16  17
HETATM   17  C   UNL     1      -5.010 -18.454  35.513  1.00  0.00     0.026 A 
HETATM   18  C   UNL     1      -5.175 -19.545  36.469  1.00  0.00     0.295 A 
HETATM   19  O   UNL     1      -6.147 -19.723  37.171  1.00  0.00    -0.259 OA
HETATM   20  O   UNL     1      -4.122 -20.421  36.646  1.00  0.00    -0.274 OA
HETATM   21  C   UNL     1      -2.933 -20.261  35.997  1.00  0.00     0.092 A 
HETATM   22  C   UNL     1      -1.967 -21.201  36.258  1.00  0.00     0.067 A 
HETATM   23  C   UNL     1      -2.727 -19.206  35.116  1.00  0.00     0.005 A 
HETATM   24  C   UNL     1      -0.728 -21.127  35.621  1.00  0.00     0.032 A 
HETATM   25  C   UNL     1      -0.509 -20.083  34.734  1.00  0.00     0.030 A 
HETATM   26  C   UNL     1      -1.485 -19.134  34.498  1.00  0.00     0.017 A 
HETATM   27  C   UNL     1      -3.821 -18.264  34.866  1.00  0.00    -0.037 A 
HETATM   28  C   UNL     1      -3.584 -17.131  33.916  1.00  0.00     0.050 C 
BRANCH  24  29
HETATM   29  N   UNL     1       0.290 -22.041  35.928  1.00  0.00    -0.382 N 
BRANCH  29  30
HETATM   30  C   UNL     1       1.607 -21.937  35.350  1.00  0.00     0.118 C 
HETATM   31  C   UNL     1       1.701 -22.624  34.048  1.00  0.00     0.026 C 
ENDBRANCH  29  30
BRANCH  29  32
HETATM   32  C   UNL     1       0.104 -23.072  36.968  1.00  0.00     0.118 C 
HETATM   33  C   UNL     1      -0.387 -24.259  36.283  1.00  0.00     0.026 C 
ENDBRANCH  29  32
ENDBRANCH  24  29
ENDBRANCH  16  17
ENDBRANCH  15  16
ENDBRANCH   1  15
BRANCH  13  34
HETATM   34  C   UNL     1     -10.249 -15.721  43.125  1.00  0.00     0.117 A 
HETATM   35  C   UNL     1     -10.642 -14.412  43.252  1.00  0.00     0.124 A 
HETATM   36  N   UNL     1     -11.618 -14.280  44.206  1.00  0.00    -0.360 N 
HETATM   37  C   UNL     1     -11.807 -15.503  44.665  1.00  0.00     0.180 A 
ATOM     38  HN  UNL     1     -12.094 -13.425  44.497  1.00  0.00     0.166 HD
HETATM   39  N   UNL     1     -11.006 -16.402  44.049  1.00  0.00    -0.347 N 
ATOM     40  HN  UNL     1     -10.971 -17.404  44.236  1.00  0.00     0.167 HD
ENDBRANCH  13  34
TORSDOF 7
ENDMDL
MODEL 7
REMARK VINA RESULT:    -9.606      3.993      5.792
REMARK INTER + INTRA:         -14.735
REMARK INTER:                 -14.229
REMARK INTRA:                  -0.507
REMARK UNBOUND:                -1.198
REMARK  7 active torsions:
REMARK  status: ('A' for Active; 'I' for Inactive)
REMARK    1  A    between atoms: C_1  and  N_13 
REMARK    2  A    between atoms: N_4  and  C_22 
REMARK    3  A    between atoms: C_7  and  N_13 
REMARK    4  A    between atoms: N_13  and  C_15 
REMARK    5  A    between atoms: C_17  and  C_21 
REMARK    6  A    between atoms: C_21  and  C_22 
REMARK       I    between atoms: N_32  and  C_34 
REMARK    7  A    between atoms: C_34  and  C_36 
ROOT
HETATM    1  N   UNL     1      -7.496 -15.676  36.559  1.00  0.00    -0.268 N 
HETATM    2  C   UNL     1      -6.615 -14.848  37.277  1.00  0.00     0.326 A 
HETATM    3  O   UNL     1      -5.613 -15.204  37.882  1.00  0.00    -0.247 OA
HETATM    4  N   UNL     1      -7.038 -13.595  37.124  1.00  0.00    -0.323 N 
ATOM      5  HN  UNL     1      -6.570 -12.792  37.544  1.00  0.00     0.165 HD
HETATM    6  C   UNL     1      -8.231 -13.483  36.299  1.00  0.00     0.133 A 
HETATM    7  C   UNL     1      -8.452 -14.924  35.904  1.00  0.00     0.258 A 
HETATM    8  O   UNL     1      -9.329 -15.335  35.164  1.00  0.00    -0.270 OA
HETATM    9  C   UNL     1      -8.039 -12.557  35.081  1.00  0.00     0.063 C 
HETATM   10  C   UNL     1      -8.449 -11.184  35.573  1.00  0.00     0.129 C 
HETATM   11  N   UNL     1      -9.306 -11.469  36.725  1.00  0.00    -0.344 N 
HETATM   12  C   UNL     1      -9.422 -12.883  37.047  1.00  0.00     0.167 C 
HETATM   13  C   UNL     1      -9.902 -10.573  37.512  1.00  0.00     0.271 C 
HETATM   14  O   UNL     1     -10.612 -10.935  38.462  1.00  0.00    -0.266 OA
ENDROOT
BRANCH   1  15
HETATM   15  C   UNL     1      -7.345 -17.127  36.443  1.00  0.00     0.141 C 
BRANCH  15  16
HETATM   16  C   UNL     1      -6.520 -17.535  35.229  1.00  0.00     0.066 C 
BRANCH  16  17
HETATM   17  C   UNL     1      -5.234 -18.272  35.540  1.00  0.00     0.026 A 
HETATM   18  C   UNL     1      -5.369 -19.383  36.477  1.00  0.00     0.295 A 
HETATM   19  O   UNL     1      -6.330 -19.592  37.186  1.00  0.00    -0.259 OA
HETATM   20  O   UNL     1      -4.299 -20.243  36.627  1.00  0.00    -0.274 OA
HETATM   21  C   UNL     1      -3.119 -20.049  35.969  1.00  0.00     0.092 A 
HETATM   22  C   UNL     1      -2.134 -20.977  36.203  1.00  0.00     0.067 A 
HETATM   23  C   UNL     1      -2.942 -18.975  35.106  1.00  0.00     0.005 A 
HETATM   24  C   UNL     1      -0.903 -20.868  35.554  1.00  0.00     0.032 A 
HETATM   25  C   UNL     1      -0.712 -19.803  34.685  1.00  0.00     0.030 A 
HETATM   26  C   UNL     1      -1.708 -18.869  34.477  1.00  0.00     0.017 A 
HETATM   27  C   UNL     1      -4.055 -18.049  34.885  1.00  0.00    -0.037 A 
HETATM   28  C   UNL     1      -3.849 -16.894  33.954  1.00  0.00     0.050 C 
BRANCH  24  29
HETATM   29  N   UNL     1       0.134 -21.769  35.834  1.00  0.00    -0.382 N 
BRANCH  29  30
HETATM   30  C   UNL     1       1.427 -21.661  35.204  1.00  0.00     0.118 C 
HETATM   31  C   UNL     1       1.587 -22.617  34.092  1.00  0.00     0.026 C 
ENDBRANCH  29  30
BRANCH  29  32
HETATM   32  C   UNL     1      -0.002 -22.787  36.894  1.00  0.00     0.118 C 
HETATM   33  C   UNL     1       0.732 -22.279  38.044  1.00  0.00     0.026 C 
ENDBRANCH  29  32
ENDBRANCH  24  29
ENDBRANCH  16  17
ENDBRANCH  15  16
ENDBRANCH   1  15
BRANCH  13  34
HETATM   34  C   UNL     1      -9.644  -9.122  37.268  1.00  0.00     0.117 A 
HETATM   35  C   UNL     1     -10.125  -8.120  36.463  1.00  0.00     0.124 A 
HETATM   36  N   UNL     1      -9.481  -6.934  36.709  1.00  0.00    -0.360 N 
HETATM   37  C   UNL     1      -8.603  -7.221  37.653  1.00  0.00     0.180 A 
ATOM     38  HN  UNL     1      -9.644  -6.032  36.263  1.00  0.00     0.166 HD
HETATM   39  N   UNL     1      -8.661  -8.521  38.019  1.00  0.00    -0.347 N 
ATOM     40  HN  UNL     1      -8.080  -8.974  38.724  1.00  0.00     0.167 HD
ENDBRANCH  13  34
TORSDOF 7
ENDMDL
MODEL 8
REMARK VINA RESULT:    -9.604      3.984      5.267
REMARK INTER + INTRA:         -14.733
REMARK INTER:                 -14.140
REMARK INTRA:                  -0.593
REMARK UNBOUND:                -1.198
REMARK  7 active torsions:
REMARK  status: ('A' for Active; 'I' for Inactive)
REMARK    1  A    between atoms: C_1  and  N_13 
REMARK    2  A    between atoms: N_4  and  C_22 
REMARK    3  A    between atoms: C_7  and  N_13 
REMARK    4  A    between atoms: N_13  and  C_15 
REMARK    5  A    between atoms: C_17  and  C_21 
REMARK    6  A    between atoms: C_21  and  C_22 
REMARK       I    between atoms: N_32  and  C_34 
REMARK    7  A    between atoms: C_34  and  C_36 
ROOT
HETATM    1  N   UNL     1      -8.125 -16.316  35.952  1.00  0.00    -0.268 N 
HETATM    2  C   UNL     1      -8.626 -15.161  35.324  1.00  0.00     0.326 A 
HETATM    3  O   UNL     1      -7.966 -14.278  34.795  1.00  0.00    -0.247 OA
HETATM    4  N   UNL     1      -9.954 -15.240  35.355  1.00  0.00    -0.323 N 
ATOM      5  HN  UNL     1     -10.566 -14.526  34.960  1.00  0.00     0.165 HD
HETATM    6  C   UNL     1     -10.448 -16.444  36.005  1.00  0.00     0.133 A 
HETATM    7  C   UNL     1      -9.156 -17.152  36.334  1.00  0.00     0.258 A 
HETATM    8  O   UNL     1      -9.056 -18.247  36.860  1.00  0.00    -0.270 OA
HETATM    9  C   UNL     1     -11.372 -17.284  35.101  1.00  0.00     0.063 C 
HETATM   10  C   UNL     1     -12.766 -16.757  35.380  1.00  0.00     0.129 C 
HETATM   11  N   UNL     1     -12.644 -16.129  36.696  1.00  0.00    -0.344 N 
HETATM   12  C   UNL     1     -11.296 -16.149  37.244  1.00  0.00     0.167 C 
HETATM   13  C   UNL     1     -13.609 -15.504  37.370  1.00  0.00     0.271 C 
HETATM   14  O   UNL     1     -13.388 -15.010  38.486  1.00  0.00    -0.266 OA
ENDROOT
BRANCH   1  15
HETATM   15  C   UNL     1      -6.701 -16.625  36.083  1.00  0.00     0.141 C 
BRANCH  15  16
HETATM   16  C   UNL     1      -6.243 -17.696  35.100  1.00  0.00     0.066 C 
BRANCH  16  17
HETATM   17  C   UNL     1      -5.011 -18.473  35.519  1.00  0.00     0.026 A 
HETATM   18  C   UNL     1      -5.241 -19.495  36.536  1.00  0.00     0.295 A 
HETATM   19  O   UNL     1      -6.236 -19.594  37.221  1.00  0.00    -0.259 OA
HETATM   20  O   UNL     1      -4.226 -20.395  36.796  1.00  0.00    -0.274 OA
HETATM   21  C   UNL     1      -3.015 -20.318  36.171  1.00  0.00     0.092 A 
HETATM   22  C   UNL     1      -2.092 -21.274  36.516  1.00  0.00     0.067 A 
HETATM   23  C   UNL     1      -2.749 -19.329  35.233  1.00  0.00     0.005 A 
HETATM   24  C   UNL     1      -0.835 -21.284  35.910  1.00  0.00     0.032 A 
HETATM   25  C   UNL     1      -0.555 -20.305  34.966  1.00  0.00     0.030 A 
HETATM   26  C   UNL     1      -1.489 -19.340  34.646  1.00  0.00     0.017 A 
HETATM   27  C   UNL     1      -3.800 -18.366  34.895  1.00  0.00    -0.037 A 
HETATM   28  C   UNL     1      -3.498 -17.303  33.884  1.00  0.00     0.050 C 
BRANCH  24  29
HETATM   29  N   UNL     1       0.139 -22.212  36.300  1.00  0.00    -0.382 N 
BRANCH  29  30
HETATM   30  C   UNL     1       1.548 -21.915  36.224  1.00  0.00     0.118 C 
HETATM   31  C   UNL     1       2.107 -22.200  34.889  1.00  0.00     0.026 C 
ENDBRANCH  29  30
BRANCH  29  32
HETATM   32  C   UNL     1      -0.233 -23.488  36.944  1.00  0.00     0.118 C 
HETATM   33  C   UNL     1      -0.472 -24.435  35.864  1.00  0.00     0.026 C 
ENDBRANCH  29  32
ENDBRANCH  24  29
ENDBRANCH  16  17
ENDBRANCH  15  16
ENDBRANCH   1  15
BRANCH  13  34
HETATM   34  C   UNL     1     -14.948 -15.349  36.724  1.00  0.00     0.117 A 
HETATM   35  C   UNL     1     -15.548 -14.528  35.803  1.00  0.00     0.124 A 
HETATM   36  N   UNL     1     -16.851 -14.898  35.586  1.00  0.00    -0.360 N 
HETATM   37  C   UNL     1     -17.043 -15.933  36.383  1.00  0.00     0.180 A 
ATOM     38  HN  UNL     1     -17.523 -14.470  34.949  1.00  0.00     0.166 HD
HETATM   39  N   UNL     1     -15.931 -16.240  37.088  1.00  0.00    -0.347 N 
ATOM     40  HN  UNL     1     -15.837 -16.995  37.768  1.00  0.00     0.167 HD
ENDBRANCH  13  34
TORSDOF 7
ENDMDL
MODEL 9
REMARK VINA RESULT:    -9.521      1.805      2.676
REMARK INTER + INTRA:         -14.616
REMARK INTER:                 -13.812
REMARK INTRA:                  -0.804
REMARK UNBOUND:                -1.198
REMARK  7 active torsions:
REMARK  status: ('A' for Active; 'I' for Inactive)
REMARK    1  A    between atoms: C_1  and  N_13 
REMARK    2  A    between atoms: N_4  and  C_22 
REMARK    3  A    between atoms: C_7  and  N_13 
REMARK    4  A    between atoms: N_13  and  C_15 
REMARK    5  A    between atoms: C_17  and  C_21 
REMARK    6  A    between atoms: C_21  and  C_22 
REMARK       I    between atoms: N_32  and  C_34 
REMARK    7  A    between atoms: C_34  and  C_36 
ROOT
HETATM    1  N   UNL     1      -7.494 -15.650  37.239  1.00  0.00    -0.268 N 
HETATM    2  C   UNL     1      -8.891 -15.767  37.122  1.00  0.00     0.326 A 
HETATM    3  O   UNL     1      -9.552 -15.603  36.106  1.00  0.00    -0.247 OA
HETATM    4  N   UNL     1      -9.355 -16.154  38.308  1.00  0.00    -0.323 N 
ATOM      5  HN  UNL     1     -10.344 -16.316  38.496  1.00  0.00     0.165 HD
HETATM    6  C   UNL     1      -8.314 -16.322  39.311  1.00  0.00     0.133 A 
HETATM    7  C   UNL     1      -7.075 -16.020  38.502  1.00  0.00     0.258 A 
HETATM    8  O   UNL     1      -5.927 -16.073  38.908  1.00  0.00    -0.270 OA
HETATM    9  C   UNL     1      -8.290 -17.735  39.927  1.00  0.00     0.063 C 
HETATM   10  C   UNL     1      -9.207 -17.646  41.130  1.00  0.00     0.129 C 
HETATM   11  N   UNL     1      -9.236 -16.216  41.440  1.00  0.00    -0.344 N 
HETATM   12  C   UNL     1      -8.482 -15.389  40.511  1.00  0.00     0.167 C 
HETATM   13  C   UNL     1      -9.926 -15.630  42.418  1.00  0.00     0.271 C 
HETATM   14  O   UNL     1      -9.870 -14.403  42.588  1.00  0.00    -0.266 OA
ENDROOT
BRANCH   1  15
HETATM   15  C   UNL     1      -6.608 -15.287  36.133  1.00  0.00     0.141 C 
BRANCH  15  16
HETATM   16  C   UNL     1      -6.689 -16.268  34.970  1.00  0.00     0.066 C 
BRANCH  16  17
HETATM   17  C   UNL     1      -5.589 -17.308  34.923  1.00  0.00     0.026 A 
HETATM   18  C   UNL     1      -4.427 -16.942  34.118  1.00  0.00     0.295 A 
HETATM   19  O   UNL     1      -4.383 -16.031  33.319  1.00  0.00    -0.259 OA
HETATM   20  O   UNL     1      -3.293 -17.725  34.216  1.00  0.00    -0.274 OA
HETATM   21  C   UNL     1      -3.255 -18.845  34.996  1.00  0.00     0.092 A 
HETATM   22  C   UNL     1      -2.068 -19.535  35.009  1.00  0.00     0.067 A 
HETATM   23  C   UNL     1      -4.358 -19.246  35.738  1.00  0.00     0.005 A 
HETATM   24  C   UNL     1      -1.933 -20.679  35.797  1.00  0.00     0.032 A 
HETATM   25  C   UNL     1      -3.025 -21.090  36.548  1.00  0.00     0.030 A 
HETATM   26  C   UNL     1      -4.217 -20.395  36.508  1.00  0.00     0.017 A 
HETATM   27  C   UNL     1      -5.578 -18.434  35.696  1.00  0.00    -0.037 A 
HETATM   28  C   UNL     1      -6.761 -18.881  36.500  1.00  0.00     0.050 C 
BRANCH  24  29
HETATM   29  N   UNL     1      -0.750 -21.431  35.768  1.00  0.00    -0.382 N 
BRANCH  29  30
HETATM   30  C   UNL     1      -0.661 -22.733  36.380  1.00  0.00     0.118 C 
HETATM   31  C   UNL     1      -0.141 -22.668  37.759  1.00  0.00     0.026 C 
ENDBRANCH  29  30
BRANCH  29  32
HETATM   32  C   UNL     1       0.420 -20.986  34.985  1.00  0.00     0.118 C 
HETATM   33  C   UNL     1       1.348 -20.396  35.939  1.00  0.00     0.026 C 
ENDBRANCH  29  32
ENDBRANCH  24  29
ENDBRANCH  16  17
ENDBRANCH  15  16
ENDBRANCH   1  15
BRANCH  13  34
HETATM   34  C   UNL     1     -10.825 -16.472  43.265  1.00  0.00     0.117 A 
HETATM   35  C   UNL     1     -10.738 -17.228  44.407  1.00  0.00     0.124 A 
HETATM   36  N   UNL     1     -11.952 -17.780  44.728  1.00  0.00    -0.360 N 
HETATM   37  C   UNL     1     -12.769 -17.369  43.776  1.00  0.00     0.180 A 
ATOM     38  HN  UNL     1     -12.174 -18.375  45.527  1.00  0.00     0.166 HD
HETATM   39  N   UNL     1     -12.138 -16.585  42.873  1.00  0.00    -0.347 N 
ATOM     40  HN  UNL     1     -12.561 -16.154  42.051  1.00  0.00     0.167 HD
ENDBRANCH  13  34
TORSDOF 7
ENDMDL
MODEL 10
REMARK VINA RESULT:    -9.411      4.579      8.174
REMARK INTER + INTRA:         -14.460
REMARK INTER:                 -13.413
REMARK INTRA:                  -1.047
REMARK UNBOUND:                -1.198
REMARK  7 active torsions:
REMARK  status: ('A' for Active; 'I' for Inactive)
REMARK    1  A    between atoms: C_1  and  N_13 
REMARK    2  A    between atoms: N_4  and  C_22 
REMARK    3  A    between atoms: C_7  and  N_13 
REMARK    4  A    between atoms: N_13  and  C_15 
REMARK    5  A    between atoms: C_17  and  C_21 
REMARK    6  A    between atoms: C_21  and  C_22 
REMARK       I    between atoms: N_32  and  C_34 
REMARK    7  A    between atoms: C_34  and  C_36 
ROOT
HETATM    1  N   UNL     1      -7.211 -14.988  35.193  1.00  0.00    -0.268 N 
HETATM    2  C   UNL     1      -8.271 -14.645  34.333  1.00  0.00     0.326 A 
HETATM    3  O   UNL     1      -9.313 -15.267  34.181  1.00  0.00    -0.247 OA
HETATM    4  N   UNL     1      -7.957 -13.484  33.764  1.00  0.00    -0.323 N 
ATOM      5  HN  UNL     1      -8.562 -13.008  33.095  1.00  0.00     0.165 HD
HETATM    6  C   UNL     1      -6.669 -12.959  34.190  1.00  0.00     0.133 A 
HETATM    7  C   UNL     1      -6.246 -14.000  35.199  1.00  0.00     0.258 A 
HETATM    8  O   UNL     1      -5.229 -13.972  35.870  1.00  0.00    -0.270 OA
HETATM    9  C   UNL     1      -6.763 -11.546  34.799  1.00  0.00     0.063 C 
HETATM   10  C   UNL     1      -6.574 -10.607  33.625  1.00  0.00     0.129 C 
HETATM   11  N   UNL     1      -5.880 -11.428  32.631  1.00  0.00    -0.344 N 
HETATM   12  C   UNL     1      -5.674 -12.809  33.038  1.00  0.00     0.167 C 
HETATM   13  C   UNL     1      -5.505 -11.049  31.410  1.00  0.00     0.271 C 
HETATM   14  O   UNL     1      -4.917 -11.835  30.653  1.00  0.00    -0.266 OA
ENDROOT
BRANCH   1  15
HETATM   15  C   UNL     1      -7.195 -16.182  36.038  1.00  0.00     0.141 C 
BRANCH  15  16
HETATM   16  C   UNL     1      -6.948 -17.459  35.244  1.00  0.00     0.066 C 
BRANCH  16  17
HETATM   17  C   UNL     1      -5.651 -18.175  35.560  1.00  0.00     0.026 A 
HETATM   18  C   UNL     1      -5.763 -19.252  36.540  1.00  0.00     0.295 A 
HETATM   19  O   UNL     1      -6.711 -19.442  37.272  1.00  0.00    -0.259 OA
HETATM   20  O   UNL     1      -4.684 -20.099  36.704  1.00  0.00    -0.274 OA
HETATM   21  C   UNL     1      -3.517 -19.920  36.019  1.00  0.00     0.092 A 
HETATM   22  C   UNL     1      -2.521 -20.832  36.270  1.00  0.00     0.067 A 
HETATM   23  C   UNL     1      -3.362 -18.878  35.115  1.00  0.00     0.005 A 
HETATM   24  C   UNL     1      -1.301 -20.739  35.597  1.00  0.00     0.032 A 
HETATM   25  C   UNL     1      -1.133 -19.705  34.687  1.00  0.00     0.030 A 
HETATM   26  C   UNL     1      -2.139 -18.786  34.461  1.00  0.00     0.017 A 
HETATM   27  C   UNL     1      -4.486 -17.968  34.878  1.00  0.00    -0.037 A 
HETATM   28  C   UNL     1      -4.303 -16.846  33.902  1.00  0.00     0.050 C 
BRANCH  24  29
HETATM   29  N   UNL     1      -0.253 -21.621  35.892  1.00  0.00    -0.382 N 
BRANCH  29  30
HETATM   30  C   UNL     1      -0.315 -22.531  37.009  1.00  0.00     0.118 C 
HETATM   31  C   UNL     1      -0.462 -23.934  36.578  1.00  0.00     0.026 C 
ENDBRANCH  29  30
BRANCH  29  32
HETATM   32  C   UNL     1       0.906 -21.762  34.988  1.00  0.00     0.118 C 
HETATM   33  C   UNL     1       2.084 -21.816  35.841  1.00  0.00     0.026 C 
ENDBRANCH  29  32
ENDBRANCH  24  29
ENDBRANCH  16  17
ENDBRANCH  15  16
ENDBRANCH   1  15
BRANCH  13  34
HETATM   34  C   UNL     1      -5.867  -9.675  30.944  1.00  0.00     0.117 A 
HETATM   35  C   UNL     1      -6.967  -9.023  30.449  1.00  0.00     0.124 A 
HETATM   36  N   UNL     1      -6.691  -7.701  30.206  1.00  0.00    -0.360 N 
HETATM   37  C   UNL     1      -5.423  -7.557  30.543  1.00  0.00     0.180 A 
ATOM     38  HN  UNL     1      -7.326  -6.988  29.846  1.00  0.00     0.166 HD
HETATM   39  N   UNL     1      -4.884  -8.714  30.989  1.00  0.00    -0.347 N 
ATOM     40  HN  UNL     1      -3.923  -8.850  31.302  1.00  0.00     0.167 HD
ENDBRANCH  13  34
TORSDOF 7
ENDMDL
MODEL 11
REMARK VINA RESULT:    -9.361      5.164      8.706
REMARK INTER + INTRA:         -14.390
REMARK INTER:                 -13.963
REMARK INTRA:                  -0.427
REMARK UNBOUND:                -1.198
REMARK  7 active torsions:
REMARK  status: ('A' for Active; 'I' for Inactive)
REMARK    1  A    between atoms: C_1  and  N_13 
REMARK    2  A    between atoms: N_4  and  C_22 
REMARK    3  A    between atoms: C_7  and  N_13 
REMARK    4  A    between atoms: N_13  and  C_15 
REMARK    5  A    between atoms: C_17  and  C_21 
REMARK    6  A    between atoms: C_21  and  C_22 
REMARK       I    between atoms: N_32  and  C_34 
REMARK    7  A    between atoms: C_34  and  C_36 
ROOT
HETATM    1  N   UNL     1      -6.754 -16.405  33.049  1.00  0.00    -0.268 N 
HETATM    2  C   UNL     1      -6.187 -16.514  31.766  1.00  0.00     0.326 A 
HETATM    3  O   UNL     1      -5.906 -17.551  31.181  1.00  0.00    -0.247 OA
HETATM    4  N   UNL     1      -6.072 -15.281  31.280  1.00  0.00    -0.323 N 
ATOM      5  HN  UNL     1      -5.689 -15.077  30.356  1.00  0.00     0.165 HD
HETATM    6  C   UNL     1      -6.545 -14.251  32.192  1.00  0.00     0.133 A 
HETATM    7  C   UNL     1      -7.044 -15.088  33.346  1.00  0.00     0.258 A 
HETATM    8  O   UNL     1      -7.581 -14.664  34.355  1.00  0.00    -0.270 OA
HETATM    9  C   UNL     1      -7.648 -13.363  31.582  1.00  0.00     0.063 C 
HETATM   10  C   UNL     1      -6.901 -12.214  30.933  1.00  0.00     0.129 C 
HETATM   11  N   UNL     1      -5.613 -12.200  31.628  1.00  0.00    -0.344 N 
HETATM   12  C   UNL     1      -5.449 -13.266  32.603  1.00  0.00     0.167 C 
HETATM   13  C   UNL     1      -4.596 -11.369  31.397  1.00  0.00     0.271 C 
HETATM   14  O   UNL     1      -3.549 -11.449  32.055  1.00  0.00    -0.266 OA
ENDROOT
BRANCH   1  15
HETATM   15  C   UNL     1      -7.082 -17.549  33.899  1.00  0.00     0.141 C 
BRANCH  15  16
HETATM   16  C   UNL     1      -6.554 -17.393  35.320  1.00  0.00     0.066 C 
BRANCH  16  17
HETATM   17  C   UNL     1      -5.330 -18.223  35.650  1.00  0.00     0.026 A 
HETATM   18  C   UNL     1      -5.569 -19.346  36.552  1.00  0.00     0.295 A 
HETATM   19  O   UNL     1      -6.564 -19.507  37.225  1.00  0.00    -0.259 OA
HETATM   20  O   UNL     1      -4.564 -20.280  36.710  1.00  0.00    -0.274 OA
HETATM   21  C   UNL     1      -3.353 -20.149  36.093  1.00  0.00     0.092 A 
HETATM   22  C   UNL     1      -2.440 -21.147  36.331  1.00  0.00     0.067 A 
HETATM   23  C   UNL     1      -3.078 -19.068  35.266  1.00  0.00     0.005 A 
HETATM   24  C   UNL     1      -1.185 -21.105  35.723  1.00  0.00     0.032 A 
HETATM   25  C   UNL     1      -0.896 -20.034  34.889  1.00  0.00     0.030 A 
HETATM   26  C   UNL     1      -1.820 -19.029  34.677  1.00  0.00     0.017 A 
HETATM   27  C   UNL     1      -4.119 -18.063  35.037  1.00  0.00    -0.037 A 
HETATM   28  C   UNL     1      -3.807 -16.902  34.144  1.00  0.00     0.050 C 
BRANCH  24  29
HETATM   29  N   UNL     1      -0.220 -22.080  36.009  1.00  0.00    -0.382 N 
BRANCH  29  30
HETATM   30  C   UNL     1      -0.507 -23.212  36.855  1.00  0.00     0.118 C 
HETATM   31  C   UNL     1      -0.601 -24.470  36.091  1.00  0.00     0.026 C 
ENDBRANCH  29  30
BRANCH  29  32
HETATM   32  C   UNL     1       1.097 -22.072  35.341  1.00  0.00     0.118 C 
HETATM   33  C   UNL     1       2.088 -22.257  36.392  1.00  0.00     0.026 C 
ENDBRANCH  29  32
ENDBRANCH  24  29
ENDBRANCH  16  17
ENDBRANCH  15  16
ENDBRANCH   1  15
BRANCH  13  34
HETATM   34  C   UNL     1      -4.717 -10.382  30.282  1.00  0.00     0.117 A 
HETATM   35  C   UNL     1      -5.345  -9.186  30.041  1.00  0.00     0.124 A 
HETATM   36  N   UNL     1      -5.059  -8.722  28.782  1.00  0.00    -0.360 N 
HETATM   37  C   UNL     1      -4.270  -9.642  28.257  1.00  0.00     0.180 A 
ATOM     38  HN  UNL     1      -5.384  -7.858  28.347  1.00  0.00     0.166 HD
HETATM   39  N   UNL     1      -4.039 -10.659  29.118  1.00  0.00    -0.347 N 
ATOM     40  HN  UNL     1      -3.465 -11.482  28.937  1.00  0.00     0.167 HD
ENDBRANCH  13  34
TORSDOF 7
ENDMDL
MODEL 12
REMARK VINA RESULT:    -9.218      1.630      2.444
REMARK INTER + INTRA:         -14.189
REMARK INTER:                 -15.567
REMARK INTRA:                   1.378
REMARK UNBOUND:                -1.198
REMARK  7 active torsions:
REMARK  status: ('A' for Active; 'I' for Inactive)
REMARK    1  A    between atoms: C_1  and  N_13 
REMARK    2  A    between atoms: N_4  and  C_22 
REMARK    3  A    between atoms: C_7  and  N_13 
REMARK    4  A    between atoms: N_13  and  C_15 
REMARK    5  A    between atoms: C_17  and  C_21 
REMARK    6  A    between atoms: C_21  and  C_22 
REMARK       I    between atoms: N_32  and  C_34 
REMARK    7  A    between atoms: C_34  and  C_36 
ROOT
HETATM    1  N   UNL     1      -6.962 -17.641  36.875  1.00  0.00    -0.268 N 
HETATM    2  C   UNL     1      -6.540 -16.492  37.567  1.00  0.00     0.326 A 
HETATM    3  O   UNL     1      -5.758 -15.644  37.160  1.00  0.00    -0.247 OA
HETATM    4  N   UNL     1      -7.199 -16.464  38.723  1.00  0.00    -0.323 N 
ATOM      5  HN  UNL     1      -7.079 -15.726  39.417  1.00  0.00     0.165 HD
HETATM    6  C   UNL     1      -8.107 -17.587  38.900  1.00  0.00     0.133 A 
HETATM    7  C   UNL     1      -7.936 -18.312  37.587  1.00  0.00     0.258 A 
HETATM    8  O   UNL     1      -8.538 -19.316  37.242  1.00  0.00    -0.270 OA
HETATM    9  C   UNL     1      -9.564 -17.152  39.154  1.00  0.00     0.063 C 
HETATM   10  C   UNL     1      -9.675 -17.036  40.661  1.00  0.00     0.129 C 
HETATM   11  N   UNL     1      -8.583 -17.876  41.155  1.00  0.00    -0.344 N 
HETATM   12  C   UNL     1      -7.755 -18.456  40.109  1.00  0.00     0.167 C 
HETATM   13  C   UNL     1      -8.256 -18.084  42.431  1.00  0.00     0.271 C 
HETATM   14  O   UNL     1      -7.307 -18.824  42.731  1.00  0.00    -0.266 OA
ENDROOT
BRANCH   1  15
HETATM   15  C   UNL     1      -6.498 -18.008  35.536  1.00  0.00     0.141 C 
BRANCH  15  16
HETATM   16  C   UNL     1      -5.155 -17.377  35.189  1.00  0.00     0.066 C 
BRANCH  16  17
HETATM   17  C   UNL     1      -4.007 -18.352  35.026  1.00  0.00     0.026 A 
HETATM   18  C   UNL     1      -2.975 -17.940  34.079  1.00  0.00     0.295 A 
HETATM   19  O   UNL     1      -3.083 -17.047  33.265  1.00  0.00    -0.259 OA
HETATM   20  O   UNL     1      -1.793 -18.653  34.052  1.00  0.00    -0.274 OA
HETATM   21  C   UNL     1      -1.593 -19.749  34.841  1.00  0.00     0.092 A 
HETATM   22  C   UNL     1      -0.373 -20.369  34.721  1.00  0.00     0.067 A 
HETATM   23  C   UNL     1      -2.573 -20.195  35.718  1.00  0.00     0.005 A 
HETATM   24  C   UNL     1      -0.075 -21.484  35.506  1.00  0.00     0.032 A 
HETATM   25  C   UNL     1      -1.042 -21.939  36.391  1.00  0.00     0.030 A 
HETATM   26  C   UNL     1      -2.271 -21.315  36.485  1.00  0.00     0.017 A 
HETATM   27  C   UNL     1      -3.835 -19.457  35.811  1.00  0.00    -0.037 A 
HETATM   28  C   UNL     1      -4.883 -19.951  36.760  1.00  0.00     0.050 C 
BRANCH  24  29
HETATM   29  N   UNL     1       1.138 -22.166  35.346  1.00  0.00    -0.382 N 
BRANCH  29  30
HETATM   30  C   UNL     1       1.745 -22.349  34.051  1.00  0.00     0.118 C 
HETATM   31  C   UNL     1       3.218 -22.311  34.114  1.00  0.00     0.026 C 
ENDBRANCH  29  30
BRANCH  29  32
HETATM   32  C   UNL     1       1.928 -22.606  36.514  1.00  0.00     0.118 C 
HETATM   33  C   UNL     1       1.485 -21.791  37.636  1.00  0.00     0.026 C 
ENDBRANCH  29  32
ENDBRANCH  24  29
ENDBRANCH  16  17
ENDBRANCH  15  16
ENDBRANCH   1  15
BRANCH  13  34
HETATM   34  C   UNL     1      -9.014 -17.354  43.492  1.00  0.00     0.117 A 
HETATM   35  C   UNL     1      -8.989 -16.125  44.101  1.00  0.00     0.124 A 
HETATM   36  N   UNL     1      -9.989 -16.015  45.034  1.00  0.00    -0.360 N 
HETATM   37  C   UNL     1     -10.610 -17.179  44.998  1.00  0.00     0.180 A 
ATOM     38  HN  UNL     1     -10.206 -15.211  45.624  1.00  0.00     0.166 HD
HETATM   39  N   UNL     1     -10.060 -18.017  44.090  1.00  0.00    -0.347 N 
ATOM     40  HN  UNL     1     -10.365 -18.969  43.886  1.00  0.00     0.167 HD
ENDBRANCH  13  34
TORSDOF 7
ENDMDL
MODEL 13
REMARK VINA RESULT:    -9.172      3.336      4.053
REMARK INTER + INTRA:         -14.124
REMARK INTER:                 -13.118
REMARK INTRA:                  -1.006
REMARK UNBOUND:                -1.198
REMARK  7 active torsions:
REMARK  status: ('A' for Active; 'I' for Inactive)
REMARK    1  A    between atoms: C_1  and  N_13 
REMARK    2  A    between atoms: N_4  and  C_22 
REMARK    3  A    between atoms: C_7  and  N_13 
REMARK    4  A    between atoms: N_13  and  C_15 
REMARK    5  A    between atoms: C_17  and  C_21 
REMARK    6  A    between atoms: C_21  and  C_22 
REMARK       I    between atoms: N_32  and  C_34 
REMARK    7  A    between atoms: C_34  and  C_36 
ROOT
HETATM    1  N   UNL     1      -7.247 -15.412  36.298  1.00  0.00    -0.268 N 
HETATM    2  C   UNL     1      -7.317 -15.590  37.692  1.00  0.00     0.326 A 
HETATM    3  O   UNL     1      -6.457 -16.088  38.405  1.00  0.00    -0.247 OA
HETATM    4  N   UNL     1      -8.466 -15.057  38.100  1.00  0.00    -0.323 N 
ATOM      5  HN  UNL     1      -8.763 -15.050  39.076  1.00  0.00     0.165 HD
HETATM    6  C   UNL     1      -9.256 -14.486  37.020  1.00  0.00     0.133 A 
HETATM    7  C   UNL     1      -8.345 -14.712  35.838  1.00  0.00     0.258 A 
HETATM    8  O   UNL     1      -8.561 -14.357  34.691  1.00  0.00    -0.270 OA
HETATM    9  C   UNL     1      -9.590 -12.996  37.237  1.00  0.00     0.063 C 
HETATM   10  C   UNL     1     -10.910 -13.002  37.981  1.00  0.00     0.129 C 
HETATM   11  N   UNL     1     -11.480 -14.313  37.668  1.00  0.00    -0.344 N 
HETATM   12  C   UNL     1     -10.620 -15.159  36.856  1.00  0.00     0.167 C 
HETATM   13  C   UNL     1     -12.640 -14.800  38.109  1.00  0.00     0.271 C 
HETATM   14  O   UNL     1     -13.024 -15.930  37.772  1.00  0.00    -0.266 OA
ENDROOT
BRANCH   1  15
HETATM   15  C   UNL     1      -6.110 -15.826  35.476  1.00  0.00     0.141 C 
BRANCH  15  16
HETATM   16  C   UNL     1      -6.205 -17.282  35.035  1.00  0.00     0.066 C 
BRANCH  16  17
HETATM   17  C   UNL     1      -5.023 -18.149  35.413  1.00  0.00     0.026 A 
HETATM   18  C   UNL     1      -5.313 -19.204  36.380  1.00  0.00     0.295 A 
HETATM   19  O   UNL     1      -6.314 -19.277  37.062  1.00  0.00    -0.259 OA
HETATM   20  O   UNL     1      -4.355 -20.175  36.594  1.00  0.00    -0.274 OA
HETATM   21  C   UNL     1      -3.141 -20.140  35.971  1.00  0.00     0.092 A 
HETATM   22  C   UNL     1      -2.277 -21.165  36.268  1.00  0.00     0.067 A 
HETATM   23  C   UNL     1      -2.815 -19.124  35.081  1.00  0.00     0.005 A 
HETATM   24  C   UNL     1      -1.022 -21.221  35.659  1.00  0.00     0.032 A 
HETATM   25  C   UNL     1      -0.684 -20.216  34.763  1.00  0.00     0.030 A 
HETATM   26  C   UNL     1      -1.558 -19.182  34.492  1.00  0.00     0.017 A 
HETATM   27  C   UNL     1      -3.807 -18.085  34.793  1.00  0.00    -0.037 A 
HETATM   28  C   UNL     1      -3.441 -16.995  33.833  1.00  0.00     0.050 C 
BRANCH  24  29
HETATM   29  N   UNL     1      -0.105 -22.224  36.002  1.00  0.00    -0.382 N 
BRANCH  29  30
HETATM   30  C   UNL     1       1.272 -22.173  35.579  1.00  0.00     0.118 C 
HETATM   31  C   UNL     1       2.208 -22.241  36.717  1.00  0.00     0.026 C 
ENDBRANCH  29  30
BRANCH  29  32
HETATM   32  C   UNL     1      -0.471 -23.309  36.934  1.00  0.00     0.118 C 
HETATM   33  C   UNL     1      -0.551 -24.523  36.134  1.00  0.00     0.026 C 
ENDBRANCH  29  32
ENDBRANCH  24  29
ENDBRANCH  16  17
ENDBRANCH  15  16
ENDBRANCH   1  15
BRANCH  13  34
HETATM   34  C   UNL     1     -13.439 -13.984  39.073  1.00  0.00     0.117 A 
HETATM   35  C   UNL     1     -14.418 -13.024  39.032  1.00  0.00     0.124 A 
HETATM   36  N   UNL     1     -14.791 -12.643  40.296  1.00  0.00    -0.360 N 
HETATM   37  C   UNL     1     -14.030 -13.362  41.100  1.00  0.00     0.180 A 
ATOM     38  HN  UNL     1     -15.500 -11.957  40.557  1.00  0.00     0.166 HD
HETATM   39  N   UNL     1     -13.200 -14.179  40.414  1.00  0.00    -0.347 N 
ATOM     40  HN  UNL     1     -12.520 -14.824  40.817  1.00  0.00     0.167 HD
ENDBRANCH  13  34
TORSDOF 7
ENDMDL
