REMARK  9 active torsions:
REMARK  status: ('A' for Active; 'I' for Inactive)
REMARK    1  A    between atoms: P_1  and  O_2 
REMARK    2  A    between atoms: P_1  and  O_4 
REMARK    3  A    between atoms: P_1  and  O_6 
REMARK    4  A    between atoms: O_2  and  P_3 
REMARK    5  A    between atoms: P_3  and  O_8 
REMARK    6  A    between atoms: P_3  and  S_9 
REMARK    7  A    between atoms: S_9  and  C_10 
REMARK    8  A    between atoms: C_10  and  C_11 
REMARK    9  A    between atoms: C_11  and  C_12 
ROOT
HETATM    1  P   UNL     1       0.456   1.146   1.933  1.00  0.00     0.312 P 
HETATM    2  O   UNL     1      -0.139   1.847   3.135  1.00  0.00    -0.645 OA
ENDROOT
BRANCH   1   3
HETATM    3  O   UNL     1      -0.239   1.708   0.480  1.00  0.00    -0.209 OA
BRANCH   3   4
HETATM    4  P   UNL     1      -1.922   1.840   0.708  1.00  0.00     0.398 P 
HETATM    5  O   UNL     1      -2.565   2.111  -0.632  1.00  0.00    -0.631 OA
BRANCH   4   6
HETATM    6  O   UNL     1      -2.571   0.407   1.337  1.00  0.00    -0.307 OA
HETATM    7  H   UNL     1      -2.638   0.560   2.313  1.00  0.00     0.222 HD
ENDBRANCH   4   6
BRANCH   4   8
HETATM    8  O   UNL     1      -2.263   3.135   1.746  1.00  0.00    -0.307 OA
HETATM    9  H   UNL     1      -3.247   3.124   1.851  1.00  0.00     0.222 HD
ENDBRANCH   4   8
ENDBRANCH   3   4
ENDBRANCH   1   3
BRANCH   1  10
HETATM   10  O   UNL     1       2.117   1.475   1.905  1.00  0.00    -0.321 OA
HETATM   11  H   UNL     1       2.331   1.639   0.952  1.00  0.00     0.221 HD
ENDBRANCH   1  10
BRANCH   1  12
HETATM   12  S   UNL     1       0.192  -0.952   2.146  1.00  0.00    -0.051 SA
BRANCH  12  13
HETATM   13  C   UNL     1       0.955  -1.406   0.548  1.00  0.00     0.090 C 
BRANCH  13  14
HETATM   14  C   UNL     1      -0.120  -1.587  -0.524  1.00  0.00     0.043 C 
BRANCH  14  15
HETATM   15  C   UNL     1       0.501  -1.909  -1.863  1.00  0.00    -0.092 C 
HETATM   16  C   UNL     1       0.561  -0.864  -2.945  1.00  0.00     0.042 C 
HETATM   17  C   UNL     1       0.994  -3.134  -2.101  1.00  0.00     0.014 C 
ENDBRANCH  14  15
ENDBRANCH  13  14
ENDBRANCH  12  13
ENDBRANCH   1  12
TORSDOF 9
