MODEL 1
REMARK VINA RESULT:   -12.658      0.000      0.000
REMARK INTER + INTRA:         -16.830
REMARK INTER:                 -15.987
REMARK INTRA:                  -0.843
REMARK UNBOUND:                -0.843
REMARK  5 active torsions:
REMARK  status: ('A' for Active; 'I' for Inactive)
REMARK    1  A    between atoms: C_1  and  O_31 
REMARK    2  A    between atoms: C_1  and  C_2 
REMARK    3  A    between atoms: C_4  and  C_17 
REMARK    4  A    between atoms: C_8  and  C_9 
REMARK    5  A    between atoms: C_16  and  C_17 
ROOT
HETATM    1  C   UNL     1      81.845  50.574  55.568  1.00  0.00     0.064 C 
HETATM    2  C   UNL     1      82.307  51.992  55.075  1.00  0.00     0.037 A 
HETATM    3  C   UNL     1      81.978  52.855  54.122  1.00  0.00     0.034 A 
HETATM    4  C   UNL     1      80.876  52.710  53.063  1.00  0.00     0.070 C 
HETATM    5  C   UNL     1      83.448  52.617  55.812  1.00  0.00     0.173 A 
HETATM    6  C   UNL     1      84.083  50.783  56.995  1.00  0.00     0.177 C 
HETATM    7  C   UNL     1      82.956  49.985  56.478  1.00  0.00     0.089 C 
HETATM    8  C   UNL     1      83.030  48.475  56.629  1.00  0.00     0.100 C 
HETATM    9  N   UNL     1      82.729  53.934  54.145  1.00  0.00    -0.303 N 
ATOM     10  HN  UNL     1      82.629  54.723  53.505  1.00  0.00     0.186 HD
HETATM   11  N   UNL     1      83.672  53.858  55.149  1.00  0.00    -0.279 N 
ATOM     12  HN  UNL     1      84.386  54.550  55.373  1.00  0.00     0.189 HD
HETATM   13  N   UNL     1      84.811  50.267  58.134  1.00  0.00    -0.073 NA
HETATM   14  N   UNL     1      83.046  47.363  56.801  1.00  0.00    -0.191 NA
HETATM   15  O   UNL     1      84.108  52.091  56.865  1.00  0.00    -0.276 OA
ENDROOT
BRANCH   1  16
HETATM   16  C   UNL     1      81.689  49.611  54.414  1.00  0.00    -0.037 A 
HETATM   17  C   UNL     1      80.611  48.739  54.334  1.00  0.00     0.018 A 
HETATM   18  C   UNL     1      80.468  47.848  53.287  1.00  0.00    -0.033 A 
HETATM   19  C   UNL     1      81.445  47.800  52.299  1.00  0.00     0.021 A 
HETATM   20  C   UNL     1      82.533  48.665  52.373  1.00  0.00    -0.025 A 
HETATM   21  C   UNL     1      82.663  49.558  53.430  1.00  0.00     0.021 A 
BRANCH  18  22
HETATM   22  C   UNL     1      79.214  46.963  53.279  1.00  0.00     0.202 C 
BRANCH  22  23
HETATM   23  O   UNL     1      78.169  47.524  54.001  1.00  0.00    -0.396 OA
ATOM     24  HO  UNL     1      78.437  47.798  54.870  1.00  0.00     0.209 HD
ENDBRANCH  22  23
ENDBRANCH  18  22
BRANCH  20  25
HETATM   25  C   UNL     1      83.636  48.632  51.315  1.00  0.00    -0.026 A 
HETATM   26  C   UNL     1      83.289  48.199  49.897  1.00  0.00     0.012 A 
HETATM   27  C   UNL     1      84.206  48.173  48.955  1.00  0.00     0.001 A 
HETATM   28  C   UNL     1      85.634  48.576  49.291  1.00  0.00     0.000 A 
HETATM   29  C   UNL     1      85.934  48.952  50.516  1.00  0.00     0.001 A 
HETATM   30  C   UNL     1      84.863  48.984  51.605  1.00  0.00     0.012 A 
ENDBRANCH  20  25
ENDBRANCH   1  16
BRANCH   1  31
HETATM   31  C   UNL     1      80.575  50.652  56.452  1.00  0.00     0.001 C 
HETATM   32  C   UNL     1      79.310  51.178  55.755  1.00  0.00     0.011 C 
HETATM   33  C   UNL     1      80.831  51.523  57.692  1.00  0.00     0.011 C 
ENDBRANCH   1  31
TORSDOF 5
ENDMDL
