MODEL 1
REMARK VINA RESULT:     0.000      0.000      0.000
REMARK INTER + INTRA:          -6.301
REMARK INTER:                   0.000
REMARK INTRA:                  -6.301
REMARK UNBOUND:                -6.301
REMARK  16 active torsions:
REMARK  status: ('A' for Active; 'I' for Inactive)
REMARK       I    between atoms: C_2  and  N_3 
REMARK    1  A    between atoms: C_2  and  C_6 
REMARK    2  A    between atoms: C_11  and  N_56 
REMARK    3  A    between atoms: C_12  and  N_56 
REMARK    4  A    between atoms: C_14  and  O_15 
REMARK    5  A    between atoms: C_17  and  O_18 
REMARK    6  A    between atoms: C_20  and  C_21 
REMARK    7  A    between atoms: C_21  and  O_22 
REMARK    8  A    between atoms: O_22  and  P_23 
REMARK    9  A    between atoms: P_23  and  O_26 
REMARK   10  A    between atoms: O_26  and  P_27 
REMARK   11  A    between atoms: P_27  and  O_30 
REMARK   12  A    between atoms: O_30  and  C_31 
REMARK   13  A    between atoms: C_31  and  C_32 
REMARK   14  A    between atoms: C_33  and  O_34 
REMARK   15  A    between atoms: C_36  and  O_37 
REMARK   16  A    between atoms: C_39  and  N_41 
ROOT
HETATM    1  P   UNL     1     -12.921  61.697  26.431  1.00  0.00     0.417 P 
HETATM    2  O   UNL     1     -13.856  60.635  26.926  1.00  0.00    -0.624 OA
HETATM    3  O   UNL     1     -13.364  63.132  26.510  1.00  0.00    -0.624 OA
ENDROOT
BRANCH   1   4
HETATM    4  O   UNL     1     -11.513  61.478  27.177  1.00  0.00    -0.287 OA
BRANCH   4   5
HETATM    5  C   UNL     1     -10.320  61.230  26.456  1.00  0.00     0.216 C 
BRANCH   5   6
HETATM    6  C   UNL     1      -9.343  62.338  26.805  1.00  0.00     0.180 C 
HETATM    7  C   UNL     1      -9.720  63.736  26.316  1.00  0.00     0.182 C 
HETATM    8  C   UNL     1      -8.385  64.438  26.367  1.00  0.00     0.198 C 
HETATM    9  C   UNL     1      -7.475  63.356  25.849  1.00  0.00     0.262 C 
HETATM   10  O   UNL     1      -8.053  62.081  26.222  1.00  0.00    -0.353 OA
BRANCH   7  11
HETATM   11  O   UNL     1     -10.642  64.440  27.144  1.00  0.00    -0.390 OA
ATOM     12  HO  UNL     1     -11.410  64.660  26.631  1.00  0.00     0.210 HD
ENDBRANCH   7  11
BRANCH   8  13
HETATM   13  O   UNL     1      -7.966  64.698  27.718  1.00  0.00    -0.388 OA
ATOM     14  HO  UNL     1      -7.648  63.871  28.059  1.00  0.00     0.210 HD
ENDBRANCH   8  13
BRANCH   9  15
HETATM   15  N   UNL     1      -7.218  63.278  24.393  1.00  0.00    -0.297 N 
HETATM   16  C   UNL     1      -6.633  62.252  23.800  1.00  0.00     0.142 A 
HETATM   17  N   UNL     1      -5.983  61.152  24.240  1.00  0.00    -0.336 N 
HETATM   18  C   UNL     1      -6.733  62.543  22.376  1.00  0.00     0.122 A 
HETATM   19  C   UNL     1      -5.467  60.333  23.326  1.00  0.00     0.183 A 
ATOM     20  HN  UNL     1      -5.892  60.956  25.237  1.00  0.00     0.168 HD
HETATM   21  N   UNL     1      -5.531  60.532  21.994  1.00  0.00    -0.337 N 
HETATM   22  C   UNL     1      -6.138  61.593  21.453  1.00  0.00     0.131 A 
ATOM     23  HN  UNL     1      -5.099  59.846  21.375  1.00  0.00     0.168 HD
HETATM   24  N   UNL     1      -6.181  61.781  20.132  1.00  0.00    -0.383 N 
ATOM     25  HN2 UNL     1      -5.763  61.114  19.483  1.00  0.00     0.157 HD
ATOM     26  HN1 UNL     1      -6.643  62.590  19.719  1.00  0.00     0.157 HD
HETATM   27  N   UNL     1      -7.417  63.685  22.208  1.00  0.00    -0.346 N 
HETATM   28  C   UNL     1      -7.702  64.115  23.446  1.00  0.00     0.188 A 
ATOM     29  HN  UNL     1      -7.667  64.131  21.326  1.00  0.00     0.167 HD
ENDBRANCH   9  15
ENDBRANCH   5   6
ENDBRANCH   4   5
ENDBRANCH   1   4
BRANCH   1  30
HETATM   30  O   UNL     1     -12.583  61.404  24.871  1.00  0.00    -0.180 OA
BRANCH  30  31
HETATM   31  P   UNL     1     -13.489  61.489  23.561  1.00  0.00     0.417 P 
HETATM   32  O   UNL     1     -14.867  61.947  23.926  1.00  0.00    -0.624 OA
HETATM   33  O   UNL     1     -13.316  60.230  22.751  1.00  0.00    -0.624 OA
BRANCH  31  34
HETATM   34  O   UNL     1     -12.675  62.633  22.798  1.00  0.00    -0.287 OA
BRANCH  34  35
HETATM   35  C   UNL     1     -12.242  62.414  21.464  1.00  0.00     0.216 C 
BRANCH  35  36
HETATM   36  C   UNL     1     -10.738  62.649  21.361  1.00  0.00     0.180 C 
HETATM   37  O   UNL     1     -10.039  61.776  22.251  1.00  0.00    -0.354 OA
HETATM   38  C   UNL     1     -10.063  60.499  21.606  1.00  0.00     0.253 C 
HETATM   39  C   UNL     1     -10.026  60.782  20.095  1.00  0.00     0.198 C 
HETATM   40  C   UNL     1     -10.229  62.277  19.990  1.00  0.00     0.182 C 
BRANCH  38  41
HETATM   41  N   UNL     1      -8.996  59.659  22.097  1.00  0.00    -0.361 N 
ATOM     42  HN  UNL     1      -8.084  59.701  21.642  1.00  0.00     0.162 HD
BRANCH  41  43
HETATM   43  C   UNL     1      -9.171  58.805  23.160  1.00  0.00     0.030 A 
HETATM   44  C   UNL     1     -10.346  58.759  23.878  1.00  0.00     0.046 A 
HETATM   45  C   UNL     1     -10.500  57.812  24.887  1.00  0.00     0.034 A 
HETATM   46  C   UNL     1      -9.503  56.884  25.136  1.00  0.00     0.017 A 
HETATM   47  C   UNL     1      -8.340  56.909  24.393  1.00  0.00     0.003 A 
HETATM   48  C   UNL     1      -8.170  57.868  23.400  1.00  0.00     0.029 A 
BRANCH  45  49
HETATM   49  C   UNL     1     -11.740  57.770  25.716  1.00  0.00     0.249 C 
HETATM   50  N   UNL     1     -12.900  58.191  25.238  1.00  0.00    -0.366 N 
ATOM     51  HN2 UNL     1     -12.979  58.562  24.291  1.00  0.00     0.159 HD
ATOM     52  HN1 UNL     1     -13.747  58.163  25.806  1.00  0.00     0.159 HD
HETATM   53  O   UNL     1     -11.644  57.320  26.866  1.00  0.00    -0.268 OA
ENDBRANCH  45  49
ENDBRANCH  41  43
ENDBRANCH  38  41
BRANCH  39  54
HETATM   54  O   UNL     1      -8.819  60.441  19.453  1.00  0.00    -0.389 OA
ATOM     55  HO  UNL     1      -8.048  60.461  20.007  1.00  0.00     0.210 HD
ENDBRANCH  39  54
BRANCH  40  56
HETATM   56  O   UNL     1      -9.001  62.950  19.772  1.00  0.00    -0.390 OA
ATOM     57  HO  UNL     1      -8.992  63.387  18.928  1.00  0.00     0.210 HD
ENDBRANCH  40  56
ENDBRANCH  35  36
ENDBRANCH  34  35
ENDBRANCH  31  34
ENDBRANCH  30  31
ENDBRANCH   1  30
TORSDOF 16
ENDMDL
MODEL 2
REMARK VINA RESULT:     0.002      3.755      7.403
REMARK INTER + INTRA:          -6.297
REMARK INTER:                   0.000
REMARK INTRA:                  -6.297
REMARK UNBOUND:                -6.301
REMARK  16 active torsions:
REMARK  status: ('A' for Active; 'I' for Inactive)
REMARK       I    between atoms: C_2  and  N_3 
REMARK    1  A    between atoms: C_2  and  C_6 
REMARK    2  A    between atoms: C_11  and  N_56 
REMARK    3  A    between atoms: C_12  and  N_56 
REMARK    4  A    between atoms: C_14  and  O_15 
REMARK    5  A    between atoms: C_17  and  O_18 
REMARK    6  A    between atoms: C_20  and  C_21 
REMARK    7  A    between atoms: C_21  and  O_22 
REMARK    8  A    between atoms: O_22  and  P_23 
REMARK    9  A    between atoms: P_23  and  O_26 
REMARK   10  A    between atoms: O_26  and  P_27 
REMARK   11  A    between atoms: P_27  and  O_30 
REMARK   12  A    between atoms: O_30  and  C_31 
REMARK   13  A    between atoms: C_31  and  C_32 
REMARK   14  A    between atoms: C_33  and  O_34 
REMARK   15  A    between atoms: C_36  and  O_37 
REMARK   16  A    between atoms: C_39  and  N_41 
ROOT
HETATM    1  P   UNL     1      -8.600  60.641  21.478  1.00  0.00     0.417 P 
HETATM    2  O   UNL     1      -9.955  60.851  20.873  1.00  0.00    -0.624 OA
HETATM    3  O   UNL     1      -8.243  59.266  21.973  1.00  0.00    -0.624 OA
ENDROOT
BRANCH   1   4
HETATM    4  O   UNL     1      -7.517  61.182  20.420  1.00  0.00    -0.287 OA
BRANCH   4   5
HETATM    5  C   UNL     1      -6.607  62.216  20.750  1.00  0.00     0.216 C 
BRANCH   5   6
HETATM    6  C   UNL     1      -5.206  61.653  20.589  1.00  0.00     0.180 C 
HETATM    7  C   UNL     1      -4.811  60.558  21.581  1.00  0.00     0.182 C 
HETATM    8  C   UNL     1      -3.305  60.601  21.484  1.00  0.00     0.198 C 
HETATM    9  C   UNL     1      -3.067  62.085  21.412  1.00  0.00     0.262 C 
HETATM   10  O   UNL     1      -4.219  62.683  20.769  1.00  0.00    -0.353 OA
BRANCH   7  11
HETATM   11  O   UNL     1      -5.257  59.246  21.245  1.00  0.00    -0.390 OA
ATOM     12  HO  UNL     1      -4.549  58.632  21.398  1.00  0.00     0.210 HD
ENDBRANCH   7  11
BRANCH   8  13
HETATM   13  O   UNL     1      -2.831  60.059  20.239  1.00  0.00    -0.388 OA
ATOM     14  HO  UNL     1      -3.518  59.485  19.923  1.00  0.00     0.210 HD
ENDBRANCH   8  13
BRANCH   9  15
HETATM   15  N   UNL     1      -2.865  62.836  22.671  1.00  0.00    -0.297 N 
HETATM   16  C   UNL     1      -2.869  64.155  22.754  1.00  0.00     0.142 A 
HETATM   17  N   UNL     1      -2.868  65.158  21.848  1.00  0.00    -0.336 N 
HETATM   18  C   UNL     1      -2.791  64.436  24.181  1.00  0.00     0.122 A 
HETATM   19  C   UNL     1      -2.823  66.407  22.309  1.00  0.00     0.183 A 
ATOM     20  HN  UNL     1      -2.901  64.964  20.847  1.00  0.00     0.168 HD
HETATM   21  N   UNL     1      -2.760  66.740  23.613  1.00  0.00    -0.337 N 
HETATM   22  C   UNL     1      -2.743  65.828  24.591  1.00  0.00     0.131 A 
ATOM     23  HN  UNL     1      -2.724  67.728  23.865  1.00  0.00     0.168 HD
HETATM   24  N   UNL     1      -2.668  66.177  25.877  1.00  0.00    -0.383 N 
ATOM     25  HN2 UNL     1      -2.635  67.154  26.165  1.00  0.00     0.157 HD
ATOM     26  HN1 UNL     1      -2.655  65.481  26.622  1.00  0.00     0.157 HD
HETATM   27  N   UNL     1      -2.804  63.277  24.858  1.00  0.00    -0.346 N 
HETATM   28  C   UNL     1      -2.849  62.318  23.922  1.00  0.00     0.188 A 
ATOM     29  HN  UNL     1      -2.784  63.152  25.870  1.00  0.00     0.167 HD
ENDBRANCH   9  15
ENDBRANCH   5   6
ENDBRANCH   4   5
ENDBRANCH   1   4
BRANCH   1  30
HETATM   30  O   UNL     1      -8.438  61.642  22.746  1.00  0.00    -0.180 OA
BRANCH  30  31
HETATM   31  P   UNL     1      -9.166  61.675  24.164  1.00  0.00     0.417 P 
HETATM   32  O   UNL     1     -10.117  60.523  24.273  1.00  0.00    -0.624 OA
HETATM   33  O   UNL     1      -9.657  63.072  24.443  1.00  0.00    -0.624 OA
BRANCH  31  34
HETATM   34  O   UNL     1      -7.876  61.457  25.083  1.00  0.00    -0.287 OA
BRANCH  34  35
HETATM   35  C   UNL     1      -7.604  62.369  26.136  1.00  0.00     0.216 C 
BRANCH  35  36
HETATM   36  C   UNL     1      -6.187  62.916  25.995  1.00  0.00     0.180 C 
HETATM   37  O   UNL     1      -6.030  63.567  24.732  1.00  0.00    -0.354 OA
HETATM   38  C   UNL     1      -6.692  64.826  24.885  1.00  0.00     0.253 C 
HETATM   39  C   UNL     1      -6.506  65.232  26.355  1.00  0.00     0.198 C 
HETATM   40  C   UNL     1      -5.925  63.999  27.012  1.00  0.00     0.182 C 
BRANCH  38  41
HETATM   41  N   UNL     1      -6.198  65.781  23.919  1.00  0.00    -0.361 N 
ATOM     42  HN  UNL     1      -5.386  66.350  24.158  1.00  0.00     0.162 HD
BRANCH  41  43
HETATM   43  C   UNL     1      -6.791  65.948  22.690  1.00  0.00     0.030 A 
HETATM   44  C   UNL     1      -7.860  65.180  22.281  1.00  0.00     0.046 A 
HETATM   45  C   UNL     1      -8.477  65.452  21.063  1.00  0.00     0.034 A 
HETATM   46  C   UNL     1      -8.058  66.519  20.288  1.00  0.00     0.017 A 
HETATM   47  C   UNL     1      -7.010  67.309  20.714  1.00  0.00     0.003 A 
HETATM   48  C   UNL     1      -6.373  67.029  21.919  1.00  0.00     0.029 A 
BRANCH  45  49
HETATM   49  C   UNL     1      -9.603  64.606  20.568  1.00  0.00     0.249 C 
HETATM   50  N   UNL     1     -10.351  63.903  21.403  1.00  0.00    -0.366 N 
ATOM     51  HN2 UNL     1     -10.176  63.915  22.409  1.00  0.00     0.159 HD
ATOM     52  HN1 UNL     1     -11.120  63.326  21.065  1.00  0.00     0.159 HD
HETATM   53  O   UNL     1      -9.814  64.593  19.349  1.00  0.00    -0.268 OA
ENDBRANCH  45  49
ENDBRANCH  41  43
ENDBRANCH  38  41
BRANCH  39  54
HETATM   54  O   UNL     1      -5.631  66.316  26.570  1.00  0.00    -0.389 OA
ATOM     55  HO  UNL     1      -4.769  66.221  26.183  1.00  0.00     0.210 HD
ENDBRANCH  39  54
BRANCH  40  56
HETATM   56  O   UNL     1      -4.523  64.120  27.186  1.00  0.00    -0.390 OA
ATOM     57  HO  UNL     1      -4.259  63.849  28.057  1.00  0.00     0.210 HD
ENDBRANCH  40  56
ENDBRANCH  35  36
ENDBRANCH  34  35
ENDBRANCH  31  34
ENDBRANCH  30  31
ENDBRANCH   1  30
TORSDOF 16
ENDMDL
MODEL 3
REMARK VINA RESULT:     0.007      7.364     10.954
REMARK INTER + INTRA:          -6.288
REMARK INTER:                   0.000
REMARK INTRA:                  -6.288
REMARK UNBOUND:                -6.301
REMARK  16 active torsions:
REMARK  status: ('A' for Active; 'I' for Inactive)
REMARK       I    between atoms: C_2  and  N_3 
REMARK    1  A    between atoms: C_2  and  C_6 
REMARK    2  A    between atoms: C_11  and  N_56 
REMARK    3  A    between atoms: C_12  and  N_56 
REMARK    4  A    between atoms: C_14  and  O_15 
REMARK    5  A    between atoms: C_17  and  O_18 
REMARK    6  A    between atoms: C_20  and  C_21 
REMARK    7  A    between atoms: C_21  and  O_22 
REMARK    8  A    between atoms: O_22  and  P_23 
REMARK    9  A    between atoms: P_23  and  O_26 
REMARK   10  A    between atoms: O_26  and  P_27 
REMARK   11  A    between atoms: P_27  and  O_30 
REMARK   12  A    between atoms: O_30  and  C_31 
REMARK   13  A    between atoms: C_31  and  C_32 
REMARK   14  A    between atoms: C_33  and  O_34 
REMARK   15  A    between atoms: C_36  and  O_37 
REMARK   16  A    between atoms: C_39  and  N_41 
ROOT
HETATM    1  P   UNL     1      -8.979  52.422  17.091  1.00  0.00     0.417 P 
HETATM    2  O   UNL     1      -8.571  51.794  18.390  1.00  0.00    -0.624 OA
HETATM    3  O   UNL     1      -9.034  51.553  15.864  1.00  0.00    -0.624 OA
ENDROOT
BRANCH   1   4
HETATM    4  O   UNL     1     -10.380  53.169  17.343  1.00  0.00    -0.287 OA
BRANCH   4   5
HETATM    5  C   UNL     1     -10.533  54.558  17.114  1.00  0.00     0.216 C 
BRANCH   5   6
HETATM    6  C   UNL     1     -11.600  54.726  16.048  1.00  0.00     0.180 C 
HETATM    7  C   UNL     1     -11.233  54.219  14.653  1.00  0.00     0.182 C 
HETATM    8  C   UNL     1     -12.227  54.964  13.796  1.00  0.00     0.198 C 
HETATM    9  C   UNL     1     -12.214  56.316  14.456  1.00  0.00     0.262 C 
HETATM   10  O   UNL     1     -11.918  56.117  15.859  1.00  0.00    -0.353 OA
BRANCH   7  11
HETATM   11  O   UNL     1     -11.409  52.818  14.451  1.00  0.00    -0.390 OA
ATOM     12  HO  UNL     1     -11.163  52.603  13.560  1.00  0.00     0.210 HD
ENDBRANCH   7  11
BRANCH   8  13
HETATM   13  O   UNL     1     -13.562  54.454  13.955  1.00  0.00    -0.388 OA
ATOM     14  HO  UNL     1     -13.469  53.546  14.217  1.00  0.00     0.210 HD
ENDBRANCH   8  13
BRANCH   9  15
HETATM   15  N   UNL     1     -11.254  57.335  13.975  1.00  0.00    -0.297 N 
HETATM   16  C   UNL     1     -10.998  58.466  14.608  1.00  0.00     0.142 A 
HETATM   17  N   UNL     1     -11.557  59.108  15.657  1.00  0.00    -0.336 N 
HETATM   18  C   UNL     1      -9.898  59.065  13.864  1.00  0.00     0.122 A 
HETATM   19  C   UNL     1     -11.048  60.291  16.000  1.00  0.00     0.183 A 
ATOM     20  HN  UNL     1     -12.341  58.702  16.167  1.00  0.00     0.168 HD
HETATM   21  N   UNL     1     -10.026  60.899  15.365  1.00  0.00    -0.337 N 
HETATM   22  C   UNL     1      -9.409  60.358  14.310  1.00  0.00     0.131 A 
ATOM     23  HN  UNL     1      -9.711  61.808  15.704  1.00  0.00     0.168 HD
HETATM   24  N   UNL     1      -8.407  60.980  13.686  1.00  0.00    -0.383 N 
ATOM     25  HN2 UNL     1      -8.064  61.888  13.999  1.00  0.00     0.157 HD
ATOM     26  HN1 UNL     1      -7.937  60.568  12.881  1.00  0.00     0.157 HD
HETATM   27  N   UNL     1      -9.531  58.233  12.877  1.00  0.00    -0.346 N 
HETATM   28  C   UNL     1     -10.367  57.188  12.963  1.00  0.00     0.188 A 
ATOM     29  HN  UNL     1      -8.776  58.367  12.205  1.00  0.00     0.167 HD
ENDBRANCH   9  15
ENDBRANCH   5   6
ENDBRANCH   4   5
ENDBRANCH   1   4
BRANCH   1  30
HETATM   30  O   UNL     1      -7.949  53.630  16.754  1.00  0.00    -0.180 OA
BRANCH  30  31
HETATM   31  P   UNL     1      -6.394  53.623  16.400  1.00  0.00     0.417 P 
HETATM   32  O   UNL     1      -5.895  52.213  16.331  1.00  0.00    -0.624 OA
HETATM   33  O   UNL     1      -5.677  54.621  17.273  1.00  0.00    -0.624 OA
BRANCH  31  34
HETATM   34  O   UNL     1      -6.491  54.281  14.947  1.00  0.00    -0.287 OA
BRANCH  34  35
HETATM   35  C   UNL     1      -5.722  55.436  14.648  1.00  0.00     0.216 C 
BRANCH  35  36
HETATM   36  C   UNL     1      -6.632  56.544  14.127  1.00  0.00     0.180 C 
HETATM   37  O   UNL     1      -7.598  56.899  15.120  1.00  0.00    -0.354 OA
HETATM   38  C   UNL     1      -6.877  57.691  16.067  1.00  0.00     0.253 C 
HETATM   39  C   UNL     1      -5.804  58.446  15.265  1.00  0.00     0.198 C 
HETATM   40  C   UNL     1      -5.851  57.814  13.891  1.00  0.00     0.182 C 
BRANCH  38  41
HETATM   41  N   UNL     1      -7.779  58.530  16.822  1.00  0.00    -0.361 N 
ATOM     42  HN  UNL     1      -8.002  59.460  16.468  1.00  0.00     0.162 HD
BRANCH  41  43
HETATM   43  C   UNL     1      -8.346  58.112  18.003  1.00  0.00     0.030 A 
HETATM   44  C   UNL     1      -8.137  56.848  18.510  1.00  0.00     0.046 A 
HETATM   45  C   UNL     1      -8.663  56.509  19.754  1.00  0.00     0.034 A 
HETATM   46  C   UNL     1      -9.345  57.450  20.506  1.00  0.00     0.017 A 
HETATM   47  C   UNL     1      -9.524  58.727  20.013  1.00  0.00     0.003 A 
HETATM   48  C   UNL     1      -9.022  59.064  18.760  1.00  0.00     0.029 A 
BRANCH  45  49
HETATM   49  C   UNL     1      -8.500  55.133  20.306  1.00  0.00     0.249 C 
HETATM   50  N   UNL     1      -7.536  54.332  19.879  1.00  0.00    -0.366 N 
ATOM     51  HN2 UNL     1      -6.881  54.630  19.155  1.00  0.00     0.159 HD
ATOM     52  HN1 UNL     1      -7.425  53.391  20.257  1.00  0.00     0.159 HD
HETATM   53  O   UNL     1      -9.294  54.771  21.184  1.00  0.00    -0.268 OA
ENDBRANCH  45  49
ENDBRANCH  41  43
ENDBRANCH  38  41
BRANCH  39  54
HETATM   54  O   UNL     1      -6.021  59.832  15.135  1.00  0.00    -0.389 OA
ATOM     55  HO  UNL     1      -6.750  60.175  15.637  1.00  0.00     0.210 HD
ENDBRANCH  39  54
BRANCH  40  56
HETATM   56  O   UNL     1      -6.575  58.620  12.978  1.00  0.00    -0.390 OA
ATOM     57  HO  UNL     1      -6.714  59.494  13.324  1.00  0.00     0.210 HD
ENDBRANCH  40  56
ENDBRANCH  35  36
ENDBRANCH  34  35
ENDBRANCH  31  34
ENDBRANCH  30  31
ENDBRANCH   1  30
TORSDOF 16
ENDMDL
MODEL 4
REMARK VINA RESULT:     0.013      4.404      8.300
REMARK INTER + INTRA:          -6.277
REMARK INTER:                   0.000
REMARK INTRA:                  -6.277
REMARK UNBOUND:                -6.301
REMARK  16 active torsions:
REMARK  status: ('A' for Active; 'I' for Inactive)
REMARK       I    between atoms: C_2  and  N_3 
REMARK    1  A    between atoms: C_2  and  C_6 
REMARK    2  A    between atoms: C_11  and  N_56 
REMARK    3  A    between atoms: C_12  and  N_56 
REMARK    4  A    between atoms: C_14  and  O_15 
REMARK    5  A    between atoms: C_17  and  O_18 
REMARK    6  A    between atoms: C_20  and  C_21 
REMARK    7  A    between atoms: C_21  and  O_22 
REMARK    8  A    between atoms: O_22  and  P_23 
REMARK    9  A    between atoms: P_23  and  O_26 
REMARK   10  A    between atoms: O_26  and  P_27 
REMARK   11  A    between atoms: P_27  and  O_30 
REMARK   12  A    between atoms: O_30  and  C_31 
REMARK   13  A    between atoms: C_31  and  C_32 
REMARK   14  A    between atoms: C_33  and  O_34 
REMARK   15  A    between atoms: C_36  and  O_37 
REMARK   16  A    between atoms: C_39  and  N_41 
ROOT
HETATM    1  P   UNL     1     -11.894  60.285  18.505  1.00  0.00     0.417 P 
HETATM    2  O   UNL     1     -11.453  60.791  17.164  1.00  0.00    -0.624 OA
HETATM    3  O   UNL     1     -11.958  58.798  18.722  1.00  0.00    -0.624 OA
ENDROOT
BRANCH   1   4
HETATM    4  O   UNL     1     -10.969  60.999  19.610  1.00  0.00    -0.287 OA
BRANCH   4   5
HETATM    5  C   UNL     1     -11.525  61.776  20.654  1.00  0.00     0.216 C 
BRANCH   5   6
HETATM    6  C   UNL     1     -11.109  61.135  21.966  1.00  0.00     0.180 C 
HETATM    7  C   UNL     1     -11.695  59.751  22.246  1.00  0.00     0.182 C 
HETATM    8  C   UNL     1     -11.516  59.650  23.741  1.00  0.00     0.198 C 
HETATM    9  C   UNL     1     -11.879  61.047  24.165  1.00  0.00     0.262 C 
HETATM   10  O   UNL     1     -11.525  61.941  23.082  1.00  0.00    -0.353 OA
BRANCH   7  11
HETATM   11  O   UNL     1     -11.010  58.665  21.625  1.00  0.00    -0.390 OA
ATOM     12  HO  UNL     1     -11.408  58.494  20.780  1.00  0.00     0.210 HD
ENDBRANCH   7  11
BRANCH   8  13
HETATM   13  O   UNL     1     -10.136  59.468  24.105  1.00  0.00    -0.388 OA
ATOM     14  HO  UNL     1     -10.128  58.799  24.779  1.00  0.00     0.210 HD
ENDBRANCH   8  13
BRANCH   9  15
HETATM   15  N   UNL     1     -13.290  61.346  24.499  1.00  0.00    -0.297 N 
HETATM   16  C   UNL     1     -13.760  62.566  24.694  1.00  0.00     0.142 A 
HETATM   17  N   UNL     1     -13.194  63.785  24.832  1.00  0.00    -0.336 N 
HETATM   18  C   UNL     1     -15.199  62.388  24.838  1.00  0.00     0.122 A 
HETATM   19  C   UNL     1     -14.001  64.818  25.072  1.00  0.00     0.183 A 
ATOM     20  HN  UNL     1     -12.185  63.911  24.754  1.00  0.00     0.168 HD
HETATM   21  N   UNL     1     -15.340  64.729  25.205  1.00  0.00    -0.337 N 
HETATM   22  C   UNL     1     -15.999  63.571  25.101  1.00  0.00     0.131 A 
ATOM     23  HN  UNL     1     -15.870  65.580  25.393  1.00  0.00     0.168 HD
HETATM   24  N   UNL     1     -17.324  63.500  25.248  1.00  0.00    -0.383 N 
ATOM     25  HN2 UNL     1     -17.887  64.330  25.433  1.00  0.00     0.157 HD
ATOM     26  HN1 UNL     1     -17.827  62.617  25.169  1.00  0.00     0.157 HD
HETATM   27  N   UNL     1     -15.501  61.093  24.661  1.00  0.00    -0.346 N 
HETATM   28  C   UNL     1     -14.327  60.478  24.457  1.00  0.00     0.188 A 
ATOM     29  HN  UNL     1     -16.427  60.666  24.679  1.00  0.00     0.167 HD
ENDBRANCH   9  15
ENDBRANCH   5   6
ENDBRANCH   4   5
ENDBRANCH   1   4
BRANCH   1  30
HETATM   30  O   UNL     1     -13.380  60.860  18.813  1.00  0.00    -0.180 OA
BRANCH  30  31
HETATM   31  P   UNL     1     -14.786  60.579  18.113  1.00  0.00     0.417 P 
HETATM   32  O   UNL     1     -14.616  59.571  17.019  1.00  0.00    -0.624 OA
HETATM   33  O   UNL     1     -15.467  61.890  17.815  1.00  0.00    -0.624 OA
BRANCH  31  34
HETATM   34  O   UNL     1     -15.542  59.952  19.373  1.00  0.00    -0.287 OA
BRANCH  34  35
HETATM   35  C   UNL     1     -16.781  60.505  19.793  1.00  0.00     0.216 C 
BRANCH  35  36
HETATM   36  C   UNL     1     -16.713  60.866  21.273  1.00  0.00     0.180 C 
HETATM   37  O   UNL     1     -15.666  61.812  21.505  1.00  0.00    -0.354 OA
HETATM   38  C   UNL     1     -16.192  63.059  21.042  1.00  0.00     0.253 C 
HETATM   39  C   UNL     1     -17.705  63.013  21.311  1.00  0.00     0.198 C 
HETATM   40  C   UNL     1     -17.968  61.578  21.711  1.00  0.00     0.182 C 
BRANCH  38  41
HETATM   41  N   UNL     1     -15.495  64.166  21.656  1.00  0.00    -0.361 N 
ATOM     42  HN  UNL     1     -15.808  64.502  22.567  1.00  0.00     0.162 HD
BRANCH  41  43
HETATM   43  C   UNL     1     -14.423  64.779  21.051  1.00  0.00     0.030 A 
HETATM   44  C   UNL     1     -13.931  64.361  19.834  1.00  0.00     0.046 A 
HETATM   45  C   UNL     1     -12.901  65.075  19.226  1.00  0.00     0.034 A 
HETATM   46  C   UNL     1     -12.408  66.229  19.810  1.00  0.00     0.017 A 
HETATM   47  C   UNL     1     -12.926  66.666  21.013  1.00  0.00     0.003 A 
HETATM   48  C   UNL     1     -13.938  65.945  21.637  1.00  0.00     0.029 A 
BRANCH  45  49
HETATM   49  C   UNL     1     -12.311  64.619  17.934  1.00  0.00     0.249 C 
HETATM   50  N   UNL     1     -12.841  63.614  17.254  1.00  0.00    -0.366 N 
ATOM     51  HN2 UNL     1     -13.664  63.118  17.598  1.00  0.00     0.159 HD
ATOM     52  HN1 UNL     1     -12.437  63.302  16.371  1.00  0.00     0.159 HD
HETATM   53  O   UNL     1     -11.313  65.220  17.518  1.00  0.00    -0.268 OA
ENDBRANCH  45  49
ENDBRANCH  41  43
ENDBRANCH  38  41
BRANCH  39  54
HETATM   54  O   UNL     1     -18.155  63.863  22.341  1.00  0.00    -0.389 OA
ATOM     55  HO  UNL     1     -17.914  64.776  22.244  1.00  0.00     0.210 HD
ENDBRANCH  39  54
BRANCH  40  56
HETATM   56  O   UNL     1     -18.089  61.450  23.118  1.00  0.00    -0.390 OA
ATOM     57  HO  UNL     1     -18.676  62.106  23.475  1.00  0.00     0.210 HD
ENDBRANCH  40  56
ENDBRANCH  35  36
ENDBRANCH  34  35
ENDBRANCH  31  34
ENDBRANCH  30  31
ENDBRANCH   1  30
TORSDOF 16
ENDMDL
MODEL 5
REMARK VINA RESULT:     0.015     10.989     13.969
REMARK INTER + INTRA:          -6.274
REMARK INTER:                   0.000
REMARK INTRA:                  -6.274
REMARK UNBOUND:                -6.301
REMARK  16 active torsions:
REMARK  status: ('A' for Active; 'I' for Inactive)
REMARK       I    between atoms: C_2  and  N_3 
REMARK    1  A    between atoms: C_2  and  C_6 
REMARK    2  A    between atoms: C_11  and  N_56 
REMARK    3  A    between atoms: C_12  and  N_56 
REMARK    4  A    between atoms: C_14  and  O_15 
REMARK    5  A    between atoms: C_17  and  O_18 
REMARK    6  A    between atoms: C_20  and  C_21 
REMARK    7  A    between atoms: C_21  and  O_22 
REMARK    8  A    between atoms: O_22  and  P_23 
REMARK    9  A    between atoms: P_23  and  O_26 
REMARK   10  A    between atoms: O_26  and  P_27 
REMARK   11  A    between atoms: P_27  and  O_30 
REMARK   12  A    between atoms: O_30  and  C_31 
REMARK   13  A    between atoms: C_31  and  C_32 
REMARK   14  A    between atoms: C_33  and  O_34 
REMARK   15  A    between atoms: C_36  and  O_37 
REMARK   16  A    between atoms: C_39  and  N_41 
ROOT
HETATM    1  P   UNL     1     -18.110  51.466  23.200  1.00  0.00     0.417 P 
HETATM    2  O   UNL     1     -19.499  51.127  22.750  1.00  0.00    -0.624 OA
HETATM    3  O   UNL     1     -17.471  52.719  22.666  1.00  0.00    -0.624 OA
ENDROOT
BRANCH   1   4
HETATM    4  O   UNL     1     -18.115  51.451  24.808  1.00  0.00    -0.287 OA
BRANCH   4   5
HETATM    5  C   UNL     1     -17.256  50.601  25.546  1.00  0.00     0.216 C 
BRANCH   5   6
HETATM    6  C   UNL     1     -16.408  51.484  26.444  1.00  0.00     0.180 C 
HETATM    7  C   UNL     1     -15.412  52.398  25.730  1.00  0.00     0.182 C 
HETATM    8  C   UNL     1     -14.448  52.715  26.846  1.00  0.00     0.198 C 
HETATM    9  C   UNL     1     -14.342  51.374  27.520  1.00  0.00     0.262 C 
HETATM   10  O   UNL     1     -15.603  50.687  27.330  1.00  0.00    -0.353 OA
BRANCH   7  11
HETATM   11  O   UNL     1     -15.958  53.618  25.231  1.00  0.00    -0.390 OA
ATOM     12  HO  UNL     1     -16.380  54.079  25.945  1.00  0.00     0.210 HD
ENDBRANCH   7  11
BRANCH   8  13
HETATM   13  O   UNL     1     -15.024  53.606  27.817  1.00  0.00    -0.388 OA
ATOM     14  HO  UNL     1     -15.939  53.363  27.887  1.00  0.00     0.210 HD
ENDBRANCH   8  13
BRANCH   9  15
HETATM   15  N   UNL     1     -13.291  50.433  27.073  1.00  0.00    -0.297 N 
HETATM   16  C   UNL     1     -13.251  49.156  27.410  1.00  0.00     0.142 A 
HETATM   17  N   UNL     1     -13.927  48.391  28.294  1.00  0.00    -0.336 N 
HETATM   18  C   UNL     1     -12.154  48.601  26.627  1.00  0.00     0.122 A 
HETATM   19  C   UNL     1     -13.575  47.110  28.401  1.00  0.00     0.183 A 
ATOM     20  HN  UNL     1     -14.681  48.780  28.861  1.00  0.00     0.168 HD
HETATM   21  N   UNL     1     -12.581  46.529  27.702  1.00  0.00    -0.337 N 
HETATM   22  C   UNL     1     -11.840  47.196  26.811  1.00  0.00     0.131 A 
ATOM     23  HN  UNL     1     -12.385  45.540  27.859  1.00  0.00     0.168 HD
HETATM   24  N   UNL     1     -10.850  46.606  26.136  1.00  0.00    -0.383 N 
ATOM     25  HN2 UNL     1     -10.630  45.619  26.265  1.00  0.00     0.157 HD
ATOM     26  HN1 UNL     1     -10.286  47.115  25.457  1.00  0.00     0.157 HD
HETATM   27  N   UNL     1     -11.652  49.561  25.835  1.00  0.00    -0.346 N 
HETATM   28  C   UNL     1     -12.356  50.665  26.122  1.00  0.00     0.188 A 
ATOM     29  HN  UNL     1     -10.894  49.470  25.158  1.00  0.00     0.167 HD
ENDBRANCH   9  15
ENDBRANCH   5   6
ENDBRANCH   4   5
ENDBRANCH   1   4
BRANCH   1  30
HETATM   30  O   UNL     1     -17.123  50.240  22.804  1.00  0.00    -0.180 OA
BRANCH  30  31
HETATM   31  P   UNL     1     -16.552  49.759  21.395  1.00  0.00     0.417 P 
HETATM   32  O   UNL     1     -17.122  50.607  20.300  1.00  0.00    -0.624 OA
HETATM   33  O   UNL     1     -16.653  48.258  21.299  1.00  0.00    -0.624 OA
BRANCH  31  34
HETATM   34  O   UNL     1     -15.010  50.093  21.651  1.00  0.00    -0.287 OA
BRANCH  34  35
HETATM   35  C   UNL     1     -14.027  49.100  21.402  1.00  0.00     0.216 C 
BRANCH  35  36
HETATM   36  C   UNL     1     -13.152  48.915  22.638  1.00  0.00     0.180 C 
HETATM   37  O   UNL     1     -13.957  48.576  23.769  1.00  0.00    -0.354 OA
HETATM   38  C   UNL     1     -14.290  47.198  23.581  1.00  0.00     0.253 C 
HETATM   39  C   UNL     1     -13.090  46.561  22.861  1.00  0.00     0.198 C 
HETATM   40  C   UNL     1     -12.224  47.738  22.468  1.00  0.00     0.182 C 
BRANCH  38  41
HETATM   41  N   UNL     1     -14.644  46.583  24.839  1.00  0.00    -0.361 N 
ATOM     42  HN  UNL     1     -13.903  46.217  25.436  1.00  0.00     0.162 HD
BRANCH  41  43
HETATM   43  C   UNL     1     -15.950  46.475  25.256  1.00  0.00     0.030 A 
HETATM   44  C   UNL     1     -16.984  47.107  24.598  1.00  0.00     0.046 A 
HETATM   45  C   UNL     1     -18.296  46.890  25.011  1.00  0.00     0.034 A 
HETATM   46  C   UNL     1     -18.571  46.006  26.039  1.00  0.00     0.017 A 
HETATM   47  C   UNL     1     -17.538  45.347  26.674  1.00  0.00     0.003 A 
HETATM   48  C   UNL     1     -16.223  45.576  26.283  1.00  0.00     0.029 A 
BRANCH  45  49
HETATM   49  C   UNL     1     -19.433  47.599  24.354  1.00  0.00     0.249 C 
HETATM   50  N   UNL     1     -19.361  47.989  23.091  1.00  0.00    -0.366 N 
ATOM     51  HN2 UNL     1     -18.524  47.820  22.532  1.00  0.00     0.159 HD
ATOM     52  HN1 UNL     1     -20.138  48.473  22.642  1.00  0.00     0.159 HD
HETATM   53  O   UNL     1     -20.448  47.804  25.032  1.00  0.00    -0.268 OA
ENDBRANCH  45  49
ENDBRANCH  41  43
ENDBRANCH  38  41
BRANCH  39  54
HETATM   54  O   UNL     1     -12.325  45.675  23.644  1.00  0.00    -0.389 OA
ATOM     55  HO  UNL     1     -12.557  45.646  24.564  1.00  0.00     0.210 HD
ENDBRANCH  39  54
BRANCH  40  56
HETATM   56  O   UNL     1     -11.134  47.895  23.360  1.00  0.00    -0.390 OA
ATOM     57  HO  UNL     1     -10.382  47.386  23.079  1.00  0.00     0.210 HD
ENDBRANCH  40  56
ENDBRANCH  35  36
ENDBRANCH  34  35
ENDBRANCH  31  34
ENDBRANCH  30  31
ENDBRANCH   1  30
TORSDOF 16
ENDMDL
MODEL 6
REMARK VINA RESULT:     0.022      4.215      7.817
REMARK INTER + INTRA:          -6.260
REMARK INTER:                   0.000
REMARK INTRA:                  -6.260
REMARK UNBOUND:                -6.301
REMARK  16 active torsions:
REMARK  status: ('A' for Active; 'I' for Inactive)
REMARK       I    between atoms: C_2  and  N_3 
REMARK    1  A    between atoms: C_2  and  C_6 
REMARK    2  A    between atoms: C_11  and  N_56 
REMARK    3  A    between atoms: C_12  and  N_56 
REMARK    4  A    between atoms: C_14  and  O_15 
REMARK    5  A    between atoms: C_17  and  O_18 
REMARK    6  A    between atoms: C_20  and  C_21 
REMARK    7  A    between atoms: C_21  and  O_22 
REMARK    8  A    between atoms: O_22  and  P_23 
REMARK    9  A    between atoms: P_23  and  O_26 
REMARK   10  A    between atoms: O_26  and  P_27 
REMARK   11  A    between atoms: P_27  and  O_30 
REMARK   12  A    between atoms: O_30  and  C_31 
REMARK   13  A    between atoms: C_31  and  C_32 
REMARK   14  A    between atoms: C_33  and  O_34 
REMARK   15  A    between atoms: C_36  and  O_37 
REMARK   16  A    between atoms: C_39  and  N_41 
ROOT
HETATM    1  P   UNL     1      -9.226  59.297  17.245  1.00  0.00     0.417 P 
HETATM    2  O   UNL     1      -8.951  60.013  15.957  1.00  0.00    -0.624 OA
HETATM    3  O   UNL     1      -8.964  57.817  17.311  1.00  0.00    -0.624 OA
ENDROOT
BRANCH   1   4
HETATM    4  O   UNL     1      -8.437  60.083  18.405  1.00  0.00    -0.287 OA
BRANCH   4   5
HETATM    5  C   UNL     1      -9.109  60.613  19.533  1.00  0.00     0.216 C 
BRANCH   5   6
HETATM    6  C   UNL     1      -8.514  59.954  20.764  1.00  0.00     0.180 C 
HETATM    7  C   UNL     1      -8.773  58.454  20.906  1.00  0.00     0.182 C 
HETATM    8  C   UNL     1      -8.521  58.248  22.380  1.00  0.00     0.198 C 
HETATM    9  C   UNL     1      -9.165  59.481  22.953  1.00  0.00     0.262 C 
HETATM   10  O   UNL     1      -9.055  60.534  21.965  1.00  0.00    -0.353 OA
BRANCH   7  11
HETATM   11  O   UNL     1      -7.890  57.613  20.166  1.00  0.00    -0.390 OA
ATOM     12  HO  UNL     1      -8.272  57.442  19.314  1.00  0.00     0.210 HD
ENDBRANCH   7  11
BRANCH   8  13
HETATM   13  O   UNL     1      -7.123  58.340  22.704  1.00  0.00    -0.388 OA
ATOM     14  HO  UNL     1      -6.944  57.627  23.304  1.00  0.00     0.210 HD
ENDBRANCH   8  13
BRANCH   9  15
HETATM   15  N   UNL     1     -10.594  59.426  23.336  1.00  0.00    -0.297 N 
HETATM   16  C   UNL     1     -11.312  60.486  23.666  1.00  0.00     0.142 A 
HETATM   17  N   UNL     1     -11.022  61.780  23.924  1.00  0.00    -0.336 N 
HETATM   18  C   UNL     1     -12.671  59.981  23.810  1.00  0.00     0.122 A 
HETATM   19  C   UNL     1     -12.025  62.579  24.283  1.00  0.00     0.183 A 
ATOM     20  HN  UNL     1     -10.067  62.133  23.845  1.00  0.00     0.168 HD
HETATM   21  N   UNL     1     -13.306  62.184  24.424  1.00  0.00    -0.337 N 
HETATM   22  C   UNL     1     -13.700  60.925  24.207  1.00  0.00     0.131 A 
ATOM     23  HN  UNL     1     -14.002  62.873  24.709  1.00  0.00     0.168 HD
HETATM   24  N   UNL     1     -14.971  60.549  24.365  1.00  0.00    -0.383 N 
ATOM     25  HN2 UNL     1     -15.694  61.212  24.644  1.00  0.00     0.157 HD
ATOM     26  HN1 UNL     1     -15.272  59.589  24.199  1.00  0.00     0.157 HD
HETATM   27  N   UNL     1     -12.689  58.675  23.501  1.00  0.00    -0.346 N 
HETATM   28  C   UNL     1     -11.417  58.359  23.217  1.00  0.00     0.188 A 
ATOM     29  HN  UNL     1     -13.498  58.055  23.486  1.00  0.00     0.167 HD
ENDBRANCH   9  15
ENDBRANCH   5   6
ENDBRANCH   4   5
ENDBRANCH   1   4
BRANCH   1  30
HETATM   30  O   UNL     1     -10.789  59.505  17.630  1.00  0.00    -0.180 OA
BRANCH  30  31
HETATM   31  P   UNL     1     -12.126  58.992  16.927  1.00  0.00     0.417 P 
HETATM   32  O   UNL     1     -11.783  58.158  15.731  1.00  0.00    -0.624 OA
HETATM   33  O   UNL     1     -13.086  60.144  16.777  1.00  0.00    -0.624 OA
BRANCH  31  34
HETATM   34  O   UNL     1     -12.681  58.094  18.126  1.00  0.00    -0.287 OA
BRANCH  34  35
HETATM   35  C   UNL     1     -13.993  58.316  18.619  1.00  0.00     0.216 C 
BRANCH  35  36
HETATM   36  C   UNL     1     -13.952  58.535  20.128  1.00  0.00     0.180 C 
HETATM   37  O   UNL     1     -13.122  59.655  20.443  1.00  0.00    -0.354 OA
HETATM   38  C   UNL     1     -13.916  60.801  20.119  1.00  0.00     0.253 C 
HETATM   39  C   UNL     1     -15.374  60.405  20.401  1.00  0.00     0.198 C 
HETATM   40  C   UNL     1     -15.314  58.915  20.653  1.00  0.00     0.182 C 
BRANCH  38  41
HETATM   41  N   UNL     1     -13.448  61.964  20.837  1.00  0.00    -0.361 N 
ATOM     42  HN  UNL     1     -13.793  62.134  21.781  1.00  0.00     0.162 HD
BRANCH  41  43
HETATM   43  C   UNL     1     -12.552  62.849  20.286  1.00  0.00     0.030 A 
HETATM   44  C   UNL     1     -12.051  62.688  19.012  1.00  0.00     0.046 A 
HETATM   45  C   UNL     1     -11.216  63.663  18.472  1.00  0.00     0.034 A 
HETATM   46  C   UNL     1     -10.931  64.815  19.184  1.00  0.00     0.017 A 
HETATM   47  C   UNL     1     -11.462  64.992  20.446  1.00  0.00     0.003 A 
HETATM   48  C   UNL     1     -12.277  64.011  21.001  1.00  0.00     0.029 A 
BRANCH  45  49
HETATM   49  C   UNL     1     -10.615  63.492  17.117  1.00  0.00     0.249 C 
HETATM   50  N   UNL     1     -10.902  62.440  16.367  1.00  0.00    -0.366 N 
ATOM     51  HN2 UNL     1     -11.537  61.712  16.695  1.00  0.00     0.159 HD
ATOM     52  HN1 UNL     1     -10.491  62.324  15.440  1.00  0.00     0.159 HD
HETATM   53  O   UNL     1      -9.845  64.375  16.718  1.00  0.00    -0.268 OA
ENDBRANCH  45  49
ENDBRANCH  41  43
ENDBRANCH  38  41
BRANCH  39  54
HETATM   54  O   UNL     1     -15.957  61.032  21.520  1.00  0.00    -0.389 OA
ATOM     55  HO  UNL     1     -15.393  61.641  21.981  1.00  0.00     0.210 HD
ENDBRANCH  39  54
BRANCH  40  56
HETATM   56  O   UNL     1     -15.355  58.625  22.040  1.00  0.00    -0.390 OA
ATOM     57  HO  UNL     1     -16.055  59.101  22.471  1.00  0.00     0.210 HD
ENDBRANCH  40  56
ENDBRANCH  35  36
ENDBRANCH  34  35
ENDBRANCH  31  34
ENDBRANCH  30  31
ENDBRANCH   1  30
TORSDOF 16
ENDMDL
MODEL 7
REMARK VINA RESULT:     0.033      3.629      7.422
REMARK INTER + INTRA:          -6.242
REMARK INTER:                   0.000
REMARK INTRA:                  -6.242
REMARK UNBOUND:                -6.301
REMARK  16 active torsions:
REMARK  status: ('A' for Active; 'I' for Inactive)
REMARK       I    between atoms: C_2  and  N_3 
REMARK    1  A    between atoms: C_2  and  C_6 
REMARK    2  A    between atoms: C_11  and  N_56 
REMARK    3  A    between atoms: C_12  and  N_56 
REMARK    4  A    between atoms: C_14  and  O_15 
REMARK    5  A    between atoms: C_17  and  O_18 
REMARK    6  A    between atoms: C_20  and  C_21 
REMARK    7  A    between atoms: C_21  and  O_22 
REMARK    8  A    between atoms: O_22  and  P_23 
REMARK    9  A    between atoms: P_23  and  O_26 
REMARK   10  A    between atoms: O_26  and  P_27 
REMARK   11  A    between atoms: P_27  and  O_30 
REMARK   12  A    between atoms: O_30  and  C_31 
REMARK   13  A    between atoms: C_31  and  C_32 
REMARK   14  A    between atoms: C_33  and  O_34 
REMARK   15  A    between atoms: C_36  and  O_37 
REMARK   16  A    between atoms: C_39  and  N_41 
ROOT
HETATM    1  P   UNL     1      -7.998  59.534  25.154  1.00  0.00     0.417 P 
HETATM    2  O   UNL     1      -6.938  58.969  24.257  1.00  0.00    -0.624 OA
HETATM    3  O   UNL     1      -7.573  60.168  26.451  1.00  0.00    -0.624 OA
ENDROOT
BRANCH   1   4
HETATM    4  O   UNL     1      -8.882  60.545  24.270  1.00  0.00    -0.287 OA
BRANCH   4   5
HETATM    5  C   UNL     1     -10.280  60.377  24.124  1.00  0.00     0.216 C 
BRANCH   5   6
HETATM    6  C   UNL     1     -10.943  61.634  24.657  1.00  0.00     0.180 C 
HETATM    7  C   UNL     1     -10.796  61.879  26.159  1.00  0.00     0.182 C 
HETATM    8  C   UNL     1     -11.928  62.844  26.414  1.00  0.00     0.198 C 
HETATM    9  C   UNL     1     -13.008  62.251  25.551  1.00  0.00     0.262 C 
HETATM   10  O   UNL     1     -12.364  61.597  24.430  1.00  0.00    -0.353 OA
BRANCH   7  11
HETATM   11  O   UNL     1      -9.571  62.491  26.556  1.00  0.00    -0.390 OA
ATOM     12  HO  UNL     1      -8.865  62.136  26.029  1.00  0.00     0.210 HD
ENDBRANCH   7  11
BRANCH   8  13
HETATM   13  O   UNL     1     -11.655  64.148  25.872  1.00  0.00    -0.388 OA
ATOM     14  HO  UNL     1     -10.951  64.031  25.246  1.00  0.00     0.210 HD
ENDBRANCH   8  13
BRANCH   9  15
HETATM   15  N   UNL     1     -13.921  61.246  26.141  1.00  0.00    -0.297 N 
HETATM   16  C   UNL     1     -14.799  60.546  25.444  1.00  0.00     0.142 A 
HETATM   17  N   UNL     1     -15.258  60.602  24.175  1.00  0.00    -0.336 N 
HETATM   18  C   UNL     1     -15.352  59.593  26.398  1.00  0.00     0.122 A 
HETATM   19  C   UNL     1     -16.209  59.738  23.823  1.00  0.00     0.183 A 
ATOM     20  HN  UNL     1     -14.889  61.282  23.510  1.00  0.00     0.168 HD
HETATM   21  N   UNL     1     -16.757  58.824  24.647  1.00  0.00    -0.337 N 
HETATM   22  C   UNL     1     -16.386  58.691  25.925  1.00  0.00     0.131 A 
ATOM     23  HN  UNL     1     -17.484  58.209  24.282  1.00  0.00     0.168 HD
HETATM   24  N   UNL     1     -16.950  57.789  26.731  1.00  0.00    -0.383 N 
ATOM     25  HN2 UNL     1     -17.676  57.155  26.398  1.00  0.00     0.157 HD
ATOM     26  HN1 UNL     1     -16.667  57.688  27.705  1.00  0.00     0.157 HD
HETATM   27  N   UNL     1     -14.732  59.745  27.579  1.00  0.00    -0.346 N 
HETATM   28  C   UNL     1     -13.867  60.754  27.401  1.00  0.00     0.188 A 
ATOM     29  HN  UNL     1     -14.886  59.206  28.431  1.00  0.00     0.167 HD
ENDBRANCH   9  15
ENDBRANCH   5   6
ENDBRANCH   4   5
ENDBRANCH   1   4
BRANCH   1  30
HETATM   30  O   UNL     1      -9.036  58.347  25.541  1.00  0.00    -0.180 OA
BRANCH  30  31
HETATM   31  P   UNL     1      -8.846  57.018  26.401  1.00  0.00     0.417 P 
HETATM   32  O   UNL     1      -7.444  56.948  26.925  1.00  0.00    -0.624 OA
HETATM   33  O   UNL     1      -9.413  55.846  25.642  1.00  0.00    -0.624 OA
BRANCH  31  34
HETATM   34  O   UNL     1      -9.889  57.351  27.564  1.00  0.00    -0.287 OA
BRANCH  34  35
HETATM   35  C   UNL     1     -10.928  56.430  27.859  1.00  0.00     0.216 C 
BRANCH  35  36
HETATM   36  C   UNL     1     -12.279  57.135  27.801  1.00  0.00     0.180 C 
HETATM   37  O   UNL     1     -12.486  57.703  26.506  1.00  0.00    -0.354 OA
HETATM   38  C   UNL     1     -12.829  56.594  25.670  1.00  0.00     0.253 C 
HETATM   39  C   UNL     1     -13.590  55.602  26.564  1.00  0.00     0.198 C 
HETATM   40  C   UNL     1     -13.408  56.147  27.963  1.00  0.00     0.182 C 
BRANCH  38  41
HETATM   41  N   UNL     1     -13.550  57.041  24.500  1.00  0.00    -0.361 N 
ATOM     42  HN  UNL     1     -14.565  57.127  24.548  1.00  0.00     0.162 HD
BRANCH  41  43
HETATM   43  C   UNL     1     -12.909  57.354  23.324  1.00  0.00     0.030 A 
HETATM   44  C   UNL     1     -11.558  57.145  23.147  1.00  0.00     0.046 A 
HETATM   45  C   UNL     1     -10.980  57.397  21.906  1.00  0.00     0.034 A 
HETATM   46  C   UNL     1     -11.761  57.802  20.837  1.00  0.00     0.017 A 
HETATM   47  C   UNL     1     -13.120  57.977  21.007  1.00  0.00     0.003 A 
HETATM   48  C   UNL     1     -13.701  57.751  22.250  1.00  0.00     0.029 A 
BRANCH  45  49
HETATM   49  C   UNL     1      -9.512  57.231  21.696  1.00  0.00     0.249 C 
HETATM   50  N   UNL     1      -8.709  56.903  22.696  1.00  0.00    -0.366 N 
ATOM     51  HN2 UNL     1      -9.070  56.760  23.640  1.00  0.00     0.159 HD
ATOM     52  HN1 UNL     1      -7.706  56.790  22.552  1.00  0.00     0.159 HD
HETATM   53  O   UNL     1      -9.075  57.405  20.551  1.00  0.00    -0.268 OA
ENDBRANCH  45  49
ENDBRANCH  41  43
ENDBRANCH  38  41
BRANCH  39  54
HETATM   54  O   UNL     1     -14.969  55.492  26.295  1.00  0.00    -0.389 OA
ATOM     55  HO  UNL     1     -15.525  55.422  27.062  1.00  0.00     0.210 HD
ENDBRANCH  39  54
BRANCH  40  56
HETATM   56  O   UNL     1     -14.560  56.851  28.396  1.00  0.00    -0.390 OA
ATOM     57  HO  UNL     1     -14.325  57.615  28.909  1.00  0.00     0.210 HD
ENDBRANCH  40  56
ENDBRANCH  35  36
ENDBRANCH  34  35
ENDBRANCH  31  34
ENDBRANCH  30  31
ENDBRANCH   1  30
TORSDOF 16
ENDMDL
MODEL 8
REMARK VINA RESULT:     0.039      5.271      7.710
REMARK INTER + INTRA:          -6.230
REMARK INTER:                   0.000
REMARK INTRA:                  -6.230
REMARK UNBOUND:                -6.301
REMARK  16 active torsions:
REMARK  status: ('A' for Active; 'I' for Inactive)
REMARK       I    between atoms: C_2  and  N_3 
REMARK    1  A    between atoms: C_2  and  C_6 
REMARK    2  A    between atoms: C_11  and  N_56 
REMARK    3  A    between atoms: C_12  and  N_56 
REMARK    4  A    between atoms: C_14  and  O_15 
REMARK    5  A    between atoms: C_17  and  O_18 
REMARK    6  A    between atoms: C_20  and  C_21 
REMARK    7  A    between atoms: C_21  and  O_22 
REMARK    8  A    between atoms: O_22  and  P_23 
REMARK    9  A    between atoms: P_23  and  O_26 
REMARK   10  A    between atoms: O_26  and  P_27 
REMARK   11  A    between atoms: P_27  and  O_30 
REMARK   12  A    between atoms: O_30  and  C_31 
REMARK   13  A    between atoms: C_31  and  C_32 
REMARK   14  A    between atoms: C_33  and  O_34 
REMARK   15  A    between atoms: C_36  and  O_37 
REMARK   16  A    between atoms: C_39  and  N_41 
ROOT
HETATM    1  P   UNL     1      -6.444  60.822  23.669  1.00  0.00     0.417 P 
HETATM    2  O   UNL     1      -7.551  60.944  22.665  1.00  0.00    -0.624 OA
HETATM    3  O   UNL     1      -5.191  61.627  23.454  1.00  0.00    -0.624 OA
ENDROOT
BRANCH   1   4
HETATM    4  O   UNL     1      -7.082  61.109  25.117  1.00  0.00    -0.287 OA
BRANCH   4   5
HETATM    5  C   UNL     1      -6.985  60.168  26.171  1.00  0.00     0.216 C 
BRANCH   5   6
HETATM    6  C   UNL     1      -6.238  60.841  27.309  1.00  0.00     0.180 C 
HETATM    7  C   UNL     1      -4.776  61.189  27.032  1.00  0.00     0.182 C 
HETATM    8  C   UNL     1      -4.236  61.342  28.433  1.00  0.00     0.198 C 
HETATM    9  C   UNL     1      -4.927  60.201  29.129  1.00  0.00     0.262 C 
HETATM   10  O   UNL     1      -6.197  59.987  28.467  1.00  0.00    -0.353 OA
BRANCH   7  11
HETATM   11  O   UNL     1      -4.567  62.408  26.322  1.00  0.00    -0.390 OA
ATOM     12  HO  UNL     1      -3.906  62.266  25.656  1.00  0.00     0.210 HD
ENDBRANCH   7  11
BRANCH   8  13
HETATM   13  O   UNL     1      -4.713  62.543  29.064  1.00  0.00    -0.388 OA
ATOM     14  HO  UNL     1      -4.983  62.292  29.939  1.00  0.00     0.210 HD
ENDBRANCH   8  13
BRANCH   9  15
HETATM   15  N   UNL     1      -4.259  58.881  29.170  1.00  0.00    -0.297 N 
HETATM   16  C   UNL     1      -4.838  57.773  29.598  1.00  0.00     0.142 A 
HETATM   17  N   UNL     1      -5.998  57.498  30.235  1.00  0.00    -0.336 N 
HETATM   18  C   UNL     1      -3.873  56.718  29.313  1.00  0.00     0.122 A 
HETATM   19  C   UNL     1      -6.238  56.230  30.563  1.00  0.00     0.183 A 
ATOM     20  HN  UNL     1      -6.666  58.237  30.456  1.00  0.00     0.168 HD
HETATM   21  N   UNL     1      -5.398  55.204  30.320  1.00  0.00    -0.337 N 
HETATM   22  C   UNL     1      -4.220  55.365  29.709  1.00  0.00     0.131 A 
ATOM     23  HN  UNL     1      -5.672  54.266  30.615  1.00  0.00     0.168 HD
HETATM   24  N   UNL     1      -3.395  54.339  29.488  1.00  0.00    -0.383 N 
ATOM     25  HN2 UNL     1      -3.638  53.389  29.766  1.00  0.00     0.157 HD
ATOM     26  HN1 UNL     1      -2.497  54.462  29.022  1.00  0.00     0.157 HD
HETATM   27  N   UNL     1      -2.814  57.251  28.684  1.00  0.00    -0.346 N 
HETATM   28  C   UNL     1      -3.069  58.565  28.608  1.00  0.00     0.188 A 
ATOM     29  HN  UNL     1      -1.990  56.760  28.338  1.00  0.00     0.167 HD
ENDBRANCH   9  15
ENDBRANCH   5   6
ENDBRANCH   4   5
ENDBRANCH   1   4
BRANCH   1  30
HETATM   30  O   UNL     1      -5.985  59.268  23.748  1.00  0.00    -0.180 OA
BRANCH  30  31
HETATM   31  P   UNL     1      -5.306  58.312  22.667  1.00  0.00     0.417 P 
HETATM   32  O   UNL     1      -5.057  59.074  21.402  1.00  0.00    -0.624 OA
HETATM   33  O   UNL     1      -6.057  57.007  22.611  1.00  0.00    -0.624 OA
BRANCH  31  34
HETATM   34  O   UNL     1      -3.944  58.017  23.450  1.00  0.00    -0.287 OA
BRANCH  34  35
HETATM   35  C   UNL     1      -3.557  56.675  23.701  1.00  0.00     0.216 C 
BRANCH  35  36
HETATM   36  C   UNL     1      -3.301  56.479  25.192  1.00  0.00     0.180 C 
HETATM   37  O   UNL     1      -4.471  56.810  25.943  1.00  0.00    -0.354 OA
HETATM   38  C   UNL     1      -5.348  55.694  25.765  1.00  0.00     0.253 C 
HETATM   39  C   UNL     1      -4.445  54.456  25.634  1.00  0.00     0.198 C 
HETATM   40  C   UNL     1      -3.049  55.025  25.507  1.00  0.00     0.182 C 
BRANCH  38  41
HETATM   41  N   UNL     1      -6.318  55.632  26.834  1.00  0.00    -0.361 N 
ATOM     42  HN  UNL     1      -6.071  55.149  27.698  1.00  0.00     0.162 HD
BRANCH  41  43
HETATM   43  C   UNL     1      -7.563  56.204  26.723  1.00  0.00     0.030 A 
HETATM   44  C   UNL     1      -8.005  56.776  25.549  1.00  0.00     0.046 A 
HETATM   45  C   UNL     1      -9.307  57.260  25.467  1.00  0.00     0.034 A 
HETATM   46  C   UNL     1     -10.175  57.123  26.536  1.00  0.00     0.017 A 
HETATM   47  C   UNL     1      -9.743  56.518  27.700  1.00  0.00     0.003 A 
HETATM   48  C   UNL     1      -8.435  56.054  27.797  1.00  0.00     0.029 A 
BRANCH  45  49
HETATM   49  C   UNL     1      -9.799  57.931  24.228  1.00  0.00     0.249 C 
HETATM   50  N   UNL     1      -8.979  58.212  23.228  1.00  0.00    -0.366 N 
ATOM     51  HN2 UNL     1      -7.986  57.983  23.278  1.00  0.00     0.159 HD
ATOM     52  HN1 UNL     1      -9.315  58.671  22.382  1.00  0.00     0.159 HD
HETATM   53  O   UNL     1     -11.004  58.209  24.168  1.00  0.00    -0.268 OA
ENDBRANCH  45  49
ENDBRANCH  41  43
ENDBRANCH  38  41
BRANCH  39  54
HETATM   54  O   UNL     1      -4.478  53.574  26.732  1.00  0.00    -0.389 OA
ATOM     55  HO  UNL     1      -4.656  53.980  27.571  1.00  0.00     0.210 HD
ENDBRANCH  39  54
BRANCH  40  56
HETATM   56  O   UNL     1      -2.348  54.949  26.737  1.00  0.00    -0.390 OA
ATOM     57  HO  UNL     1      -2.946  54.879  27.471  1.00  0.00     0.210 HD
ENDBRANCH  40  56
ENDBRANCH  35  36
ENDBRANCH  34  35
ENDBRANCH  31  34
ENDBRANCH  30  31
ENDBRANCH   1  30
TORSDOF 16
ENDMDL
MODEL 9
REMARK VINA RESULT:     0.040      8.366     10.818
REMARK INTER + INTRA:          -6.229
REMARK INTER:                   0.000
REMARK INTRA:                  -6.229
REMARK UNBOUND:                -6.301
REMARK  16 active torsions:
REMARK  status: ('A' for Active; 'I' for Inactive)
REMARK       I    between atoms: C_2  and  N_3 
REMARK    1  A    between atoms: C_2  and  C_6 
REMARK    2  A    between atoms: C_11  and  N_56 
REMARK    3  A    between atoms: C_12  and  N_56 
REMARK    4  A    between atoms: C_14  and  O_15 
REMARK    5  A    between atoms: C_17  and  O_18 
REMARK    6  A    between atoms: C_20  and  C_21 
REMARK    7  A    between atoms: C_21  and  O_22 
REMARK    8  A    between atoms: O_22  and  P_23 
REMARK    9  A    between atoms: P_23  and  O_26 
REMARK   10  A    between atoms: O_26  and  P_27 
REMARK   11  A    between atoms: P_27  and  O_30 
REMARK   12  A    between atoms: O_30  and  C_31 
REMARK   13  A    between atoms: C_31  and  C_32 
REMARK   14  A    between atoms: C_33  and  O_34 
REMARK   15  A    between atoms: C_36  and  O_37 
REMARK   16  A    between atoms: C_39  and  N_41 
ROOT
HETATM    1  P   UNL     1      -5.567  56.955  20.123  1.00  0.00     0.417 P 
HETATM    2  O   UNL     1      -4.917  56.233  21.265  1.00  0.00    -0.624 OA
HETATM    3  O   UNL     1      -6.368  58.192  20.424  1.00  0.00    -0.624 OA
ENDROOT
BRANCH   1   4
HETATM    4  O   UNL     1      -4.421  57.250  19.034  1.00  0.00    -0.287 OA
BRANCH   4   5
HETATM    5  C   UNL     1      -4.530  56.792  17.699  1.00  0.00     0.216 C 
BRANCH   5   6
HETATM    6  C   UNL     1      -4.489  58.013  16.797  1.00  0.00     0.180 C 
HETATM    7  C   UNL     1      -5.684  58.960  16.905  1.00  0.00     0.182 C 
HETATM    8  C   UNL     1      -5.582  59.715  15.602  1.00  0.00     0.198 C 
HETATM    9  C   UNL     1      -5.208  58.604  14.659  1.00  0.00     0.262 C 
HETATM   10  O   UNL     1      -4.455  57.623  15.413  1.00  0.00    -0.353 OA
BRANCH   7  11
HETATM   11  O   UNL     1      -5.623  59.891  17.983  1.00  0.00    -0.390 OA
ATOM     12  HO  UNL     1      -6.188  60.628  17.784  1.00  0.00     0.210 HD
ENDBRANCH   7  11
BRANCH   8  13
HETATM   13  O   UNL     1      -4.475  60.632  15.598  1.00  0.00    -0.388 OA
ATOM     14  HO  UNL     1      -4.006  60.476  14.787  1.00  0.00     0.210 HD
ENDBRANCH   8  13
BRANCH   9  15
HETATM   15  N   UNL     1      -6.287  57.855  13.976  1.00  0.00    -0.297 N 
HETATM   16  C   UNL     1      -6.090  56.762  13.261  1.00  0.00     0.142 A 
HETATM   17  N   UNL     1      -4.994  56.122  12.796  1.00  0.00    -0.336 N 
HETATM   18  C   UNL     1      -7.428  56.296  12.920  1.00  0.00     0.122 A 
HETATM   19  C   UNL     1      -5.182  55.039  12.045  1.00  0.00     0.183 A 
ATOM     20  HN  UNL     1      -4.055  56.458  13.014  1.00  0.00     0.168 HD
HETATM   21  N   UNL     1      -6.388  54.545  11.700  1.00  0.00    -0.337 N 
HETATM   22  C   UNL     1      -7.536  55.107  12.094  1.00  0.00     0.131 A 
ATOM     23  HN  UNL     1      -6.427  53.710  11.116  1.00  0.00     0.168 HD
HETATM   24  N   UNL     1      -8.722  54.612  11.733  1.00  0.00    -0.383 N 
ATOM     25  HN2 UNL     1      -8.798  53.777  11.153  1.00  0.00     0.157 HD
ATOM     26  HN1 UNL     1      -9.597  55.040  12.033  1.00  0.00     0.157 HD
HETATM   27  N   UNL     1      -8.332  57.101  13.499  1.00  0.00    -0.346 N 
HETATM   28  C   UNL     1      -7.619  58.041  14.134  1.00  0.00     0.188 A 
ATOM     29  HN  UNL     1      -9.348  57.015  13.462  1.00  0.00     0.167 HD
ENDBRANCH   9  15
ENDBRANCH   5   6
ENDBRANCH   4   5
ENDBRANCH   1   4
BRANCH   1  30
HETATM   30  O   UNL     1      -6.570  55.930  19.364  1.00  0.00    -0.180 OA
BRANCH  30  31
HETATM   31  P   UNL     1      -7.921  55.229  19.840  1.00  0.00     0.417 P 
HETATM   32  O   UNL     1      -8.255  55.665  21.233  1.00  0.00    -0.624 OA
HETATM   33  O   UNL     1      -7.863  53.758  19.517  1.00  0.00    -0.624 OA
BRANCH  31  34
HETATM   34  O   UNL     1      -8.906  55.889  18.769  1.00  0.00    -0.287 OA
BRANCH  34  35
HETATM   35  C   UNL     1      -9.701  55.054  17.940  1.00  0.00     0.216 C 
BRANCH  35  36
HETATM   36  C   UNL     1      -9.460  55.398  16.474  1.00  0.00     0.180 C 
HETATM   37  O   UNL     1      -8.074  55.258  16.153  1.00  0.00    -0.354 OA
HETATM   38  C   UNL     1      -7.865  53.847  16.042  1.00  0.00     0.253 C 
HETATM   39  C   UNL     1      -9.178  53.261  15.499  1.00  0.00     0.198 C 
HETATM   40  C   UNL     1     -10.157  54.412  15.570  1.00  0.00     0.182 C 
BRANCH  38  41
HETATM   41  N   UNL     1      -6.694  53.568  15.243  1.00  0.00    -0.361 N 
ATOM     42  HN  UNL     1      -6.791  53.502  14.230  1.00  0.00     0.162 HD
BRANCH  41  43
HETATM   43  C   UNL     1      -5.453  53.386  15.807  1.00  0.00     0.030 A 
HETATM   44  C   UNL     1      -5.269  53.327  17.171  1.00  0.00     0.046 A 
HETATM   45  C   UNL     1      -4.004  53.052  17.684  1.00  0.00     0.034 A 
HETATM   46  C   UNL     1      -2.945  52.786  16.833  1.00  0.00     0.017 A 
HETATM   47  C   UNL     1      -3.138  52.812  15.467  1.00  0.00     0.003 A 
HETATM   48  C   UNL     1      -4.393  53.110  14.947  1.00  0.00     0.029 A 
BRANCH  45  49
HETATM   49  C   UNL     1      -3.761  53.032  19.156  1.00  0.00     0.249 C 
HETATM   50  N   UNL     1      -4.712  53.371  20.013  1.00  0.00    -0.366 N 
ATOM     51  HN2 UNL     1      -5.636  53.662  19.691  1.00  0.00     0.159 HD
ATOM     52  HN1 UNL     1      -4.545  53.358  21.019  1.00  0.00     0.159 HD
HETATM   53  O   UNL     1      -2.641  52.680  19.546  1.00  0.00    -0.268 OA
ENDBRANCH  45  49
ENDBRANCH  41  43
ENDBRANCH  38  41
BRANCH  39  54
HETATM   54  O   UNL     1      -9.120  52.794  14.171  1.00  0.00    -0.389 OA
ATOM     55  HO  UNL     1      -9.923  52.407  13.844  1.00  0.00     0.210 HD
ENDBRANCH  39  54
BRANCH  40  56
HETATM   56  O   UNL     1     -10.334  55.016  14.300  1.00  0.00    -0.390 OA
ATOM     57  HO  UNL     1     -10.508  55.947  14.382  1.00  0.00     0.210 HD
ENDBRANCH  40  56
ENDBRANCH  35  36
ENDBRANCH  34  35
ENDBRANCH  31  34
ENDBRANCH  30  31
ENDBRANCH   1  30
TORSDOF 16
ENDMDL
MODEL 10
REMARK VINA RESULT:     0.043      5.698      8.344
REMARK INTER + INTRA:          -6.223
REMARK INTER:                   0.000
REMARK INTRA:                  -6.223
REMARK UNBOUND:                -6.301
REMARK  16 active torsions:
REMARK  status: ('A' for Active; 'I' for Inactive)
REMARK       I    between atoms: C_2  and  N_3 
REMARK    1  A    between atoms: C_2  and  C_6 
REMARK    2  A    between atoms: C_11  and  N_56 
REMARK    3  A    between atoms: C_12  and  N_56 
REMARK    4  A    between atoms: C_14  and  O_15 
REMARK    5  A    between atoms: C_17  and  O_18 
REMARK    6  A    between atoms: C_20  and  C_21 
REMARK    7  A    between atoms: C_21  and  O_22 
REMARK    8  A    between atoms: O_22  and  P_23 
REMARK    9  A    between atoms: P_23  and  O_26 
REMARK   10  A    between atoms: O_26  and  P_27 
REMARK   11  A    between atoms: P_27  and  O_30 
REMARK   12  A    between atoms: O_30  and  C_31 
REMARK   13  A    between atoms: C_31  and  C_32 
REMARK   14  A    between atoms: C_33  and  O_34 
REMARK   15  A    between atoms: C_36  and  O_37 
REMARK   16  A    between atoms: C_39  and  N_41 
ROOT
HETATM    1  P   UNL     1     -14.030  59.456  20.299  1.00  0.00     0.417 P 
HETATM    2  O   UNL     1     -15.210  60.176  19.717  1.00  0.00    -0.624 OA
HETATM    3  O   UNL     1     -13.475  59.939  21.611  1.00  0.00    -0.624 OA
ENDROOT
BRANCH   1   4
HETATM    4  O   UNL     1     -14.409  57.895  20.363  1.00  0.00    -0.287 OA
BRANCH   4   5
HETATM    5  C   UNL     1     -13.597  56.907  19.755  1.00  0.00     0.216 C 
BRANCH   5   6
HETATM    6  C   UNL     1     -13.150  55.954  20.848  1.00  0.00     0.180 C 
HETATM    7  C   UNL     1     -12.216  56.544  21.905  1.00  0.00     0.182 C 
HETATM    8  C   UNL     1     -11.597  55.295  22.484  1.00  0.00     0.198 C 
HETATM    9  C   UNL     1     -11.385  54.479  21.237  1.00  0.00     0.262 C 
HETATM   10  O   UNL     1     -12.419  54.847  20.292  1.00  0.00    -0.353 OA
BRANCH   7  11
HETATM   11  O   UNL     1     -12.864  57.265  22.952  1.00  0.00    -0.390 OA
ATOM     12  HO  UNL     1     -12.383  58.067  23.115  1.00  0.00     0.210 HD
ENDBRANCH   7  11
BRANCH   8  13
HETATM   13  O   UNL     1     -12.531  54.556  23.291  1.00  0.00    -0.388 OA
ATOM     14  HO  UNL     1     -13.347  55.040  23.258  1.00  0.00     0.210 HD
ENDBRANCH   8  13
BRANCH   9  15
HETATM   15  N   UNL     1     -10.101  54.607  20.511  1.00  0.00    -0.297 N 
HETATM   16  C   UNL     1      -9.865  54.067  19.329  1.00  0.00     0.142 A 
HETATM   17  N   UNL     1     -10.520  53.182  18.547  1.00  0.00    -0.336 N 
HETATM   18  C   UNL     1      -8.555  54.578  18.945  1.00  0.00     0.122 A 
HETATM   19  C   UNL     1      -9.940  52.819  17.403  1.00  0.00     0.183 A 
ATOM     20  HN  UNL     1     -11.427  52.805  18.822  1.00  0.00     0.168 HD
HETATM   21  N   UNL     1      -8.738  53.259  16.981  1.00  0.00    -0.337 N 
HETATM   22  C   UNL     1      -8.000  54.125  17.682  1.00  0.00     0.131 A 
ATOM     23  HN  UNL     1      -8.378  52.917  16.090  1.00  0.00     0.168 HD
HETATM   24  N   UNL     1      -6.806  54.540  17.254  1.00  0.00    -0.383 N 
ATOM     25  HN2 UNL     1      -6.417  54.222  16.367  1.00  0.00     0.157 HD
ATOM     26  HN1 UNL     1      -6.243  55.200  17.789  1.00  0.00     0.157 HD
HETATM   27  N   UNL     1      -8.123  55.429  19.888  1.00  0.00    -0.346 N 
HETATM   28  C   UNL     1      -9.077  55.432  20.830  1.00  0.00     0.188 A 
ATOM     29  HN  UNL     1      -7.253  55.962  19.888  1.00  0.00     0.167 HD
ENDBRANCH   9  15
ENDBRANCH   5   6
ENDBRANCH   4   5
ENDBRANCH   1   4
BRANCH   1  30
HETATM   30  O   UNL     1     -12.809  59.516  19.231  1.00  0.00    -0.180 OA
BRANCH  30  31
HETATM   31  P   UNL     1     -11.903  60.730  18.732  1.00  0.00     0.417 P 
HETATM   32  O   UNL     1     -12.373  62.006  19.360  1.00  0.00    -0.624 OA
HETATM   33  O   UNL     1     -11.746  60.654  17.235  1.00  0.00    -0.624 OA
BRANCH  31  34
HETATM   34  O   UNL     1     -10.515  60.247  19.358  1.00  0.00    -0.287 OA
BRANCH  34  35
HETATM   35  C   UNL     1      -9.372  60.135  18.524  1.00  0.00     0.216 C 
BRANCH  35  36
HETATM   36  C   UNL     1      -8.767  58.741  18.657  1.00  0.00     0.180 C 
HETATM   37  O   UNL     1      -9.740  57.746  18.332  1.00  0.00    -0.354 OA
HETATM   38  C   UNL     1      -9.825  57.767  16.905  1.00  0.00     0.253 C 
HETATM   39  C   UNL     1      -8.419  58.129  16.398  1.00  0.00     0.198 C 
HETATM   40  C   UNL     1      -7.666  58.534  17.646  1.00  0.00     0.182 C 
BRANCH  38  41
HETATM   41  N   UNL     1     -10.351  56.517  16.406  1.00  0.00    -0.361 N 
ATOM     42  HN  UNL     1      -9.704  55.759  16.191  1.00  0.00     0.162 HD
BRANCH  41  43
HETATM   43  C   UNL     1     -11.698  56.319  16.213  1.00  0.00     0.030 A 
HETATM   44  C   UNL     1     -12.611  57.348  16.304  1.00  0.00     0.046 A 
HETATM   45  C   UNL     1     -13.951  57.107  16.011  1.00  0.00     0.034 A 
HETATM   46  C   UNL     1     -14.360  55.857  15.578  1.00  0.00     0.017 A 
HETATM   47  C   UNL     1     -13.439  54.837  15.454  1.00  0.00     0.003 A 
HETATM   48  C   UNL     1     -12.103  55.064  15.769  1.00  0.00     0.029 A 
BRANCH  45  49
HETATM   49  C   UNL     1     -14.972  58.186  16.150  1.00  0.00     0.249 C 
HETATM   50  N   UNL     1     -14.660  59.362  16.671  1.00  0.00    -0.366 N 
ATOM     51  HN2 UNL     1     -13.715  59.563  16.998  1.00  0.00     0.159 HD
ATOM     52  HN1 UNL     1     -15.359  60.099  16.766  1.00  0.00     0.159 HD
HETATM   53  O   UNL     1     -16.119  57.942  15.754  1.00  0.00    -0.268 OA
ENDBRANCH  45  49
ENDBRANCH  41  43
ENDBRANCH  38  41
BRANCH  39  54
HETATM   54  O   UNL     1      -7.723  57.079  15.768  1.00  0.00    -0.389 OA
ATOM     55  HO  UNL     1      -8.152  56.711  15.004  1.00  0.00     0.210 HD
ENDBRANCH  39  54
BRANCH  40  56
HETATM   56  O   UNL     1      -6.828  57.487  18.105  1.00  0.00    -0.390 OA
ATOM     57  HO  UNL     1      -6.808  57.452  19.054  1.00  0.00     0.210 HD
ENDBRANCH  40  56
ENDBRANCH  35  36
ENDBRANCH  34  35
ENDBRANCH  31  34
ENDBRANCH  30  31
ENDBRANCH   1  30
TORSDOF 16
ENDMDL
MODEL 11
REMARK VINA RESULT:     0.047      6.685      9.259
REMARK INTER + INTRA:          -6.216
REMARK INTER:                   0.000
REMARK INTRA:                  -6.216
REMARK UNBOUND:                -6.301
REMARK  16 active torsions:
REMARK  status: ('A' for Active; 'I' for Inactive)
REMARK       I    between atoms: C_2  and  N_3 
REMARK    1  A    between atoms: C_2  and  C_6 
REMARK    2  A    between atoms: C_11  and  N_56 
REMARK    3  A    between atoms: C_12  and  N_56 
REMARK    4  A    between atoms: C_14  and  O_15 
REMARK    5  A    between atoms: C_17  and  O_18 
REMARK    6  A    between atoms: C_20  and  C_21 
REMARK    7  A    between atoms: C_21  and  O_22 
REMARK    8  A    between atoms: O_22  and  P_23 
REMARK    9  A    between atoms: P_23  and  O_26 
REMARK   10  A    between atoms: O_26  and  P_27 
REMARK   11  A    between atoms: P_27  and  O_30 
REMARK   12  A    between atoms: O_30  and  C_31 
REMARK   13  A    between atoms: C_31  and  C_32 
REMARK   14  A    between atoms: C_33  and  O_34 
REMARK   15  A    between atoms: C_36  and  O_37 
REMARK   16  A    between atoms: C_39  and  N_41 
ROOT
HETATM    1  P   UNL     1      -8.458  51.747  29.553  1.00  0.00     0.417 P 
HETATM    2  O   UNL     1      -9.250  50.554  29.999  1.00  0.00    -0.624 OA
HETATM    3  O   UNL     1      -8.322  52.908  30.499  1.00  0.00    -0.624 OA
ENDROOT
BRANCH   1   4
HETATM    4  O   UNL     1      -7.020  51.210  29.075  1.00  0.00    -0.287 OA
BRANCH   4   5
HETATM    5  C   UNL     1      -6.528  51.464  27.771  1.00  0.00     0.216 C 
BRANCH   5   6
HETATM    6  C   UNL     1      -5.233  52.242  27.921  1.00  0.00     0.180 C 
HETATM    7  C   UNL     1      -5.365  53.647  28.508  1.00  0.00     0.182 C 
HETATM    8  C   UNL     1      -4.071  54.280  28.057  1.00  0.00     0.198 C 
HETATM    9  C   UNL     1      -3.961  53.735  26.659  1.00  0.00     0.262 C 
HETATM   10  O   UNL     1      -4.606  52.438  26.641  1.00  0.00    -0.353 OA
BRANCH   7  11
HETATM   11  O   UNL     1      -5.434  53.705  29.932  1.00  0.00    -0.390 OA
ATOM     12  HO  UNL     1      -5.849  52.913  30.251  1.00  0.00     0.210 HD
ENDBRANCH   7  11
BRANCH   8  13
HETATM   13  O   UNL     1      -2.939  53.761  28.777  1.00  0.00    -0.388 OA
ATOM     14  HO  UNL     1      -2.909  54.237  29.599  1.00  0.00     0.210 HD
ENDBRANCH   8  13
BRANCH   9  15
HETATM   15  N   UNL     1      -4.560  54.505  25.545  1.00  0.00    -0.297 N 
HETATM   16  C   UNL     1      -4.685  54.045  24.312  1.00  0.00     0.142 A 
HETATM   17  N   UNL     1      -4.223  52.956  23.659  1.00  0.00    -0.336 N 
HETATM   18  C   UNL     1      -5.455  55.066  23.613  1.00  0.00     0.122 A 
HETATM   19  C   UNL     1      -4.521  52.838  22.366  1.00  0.00     0.183 A 
ATOM     20  HN  UNL     1      -3.666  52.250  24.139  1.00  0.00     0.168 HD
HETATM   21  N   UNL     1      -5.236  53.737  21.660  1.00  0.00    -0.337 N 
HETATM   22  C   UNL     1      -5.729  54.853  22.204  1.00  0.00     0.131 A 
ATOM     23  HN  UNL     1      -5.407  53.557  20.670  1.00  0.00     0.168 HD
HETATM   24  N   UNL     1      -6.424  55.738  21.486  1.00  0.00    -0.383 N 
ATOM     25  HN2 UNL     1      -6.618  55.589  20.496  1.00  0.00     0.157 HD
ATOM     26  HN1 UNL     1      -6.801  56.590  21.901  1.00  0.00     0.157 HD
HETATM   27  N   UNL     1      -5.787  56.035  24.481  1.00  0.00    -0.346 N 
HETATM   28  C   UNL     1      -5.233  55.674  25.647  1.00  0.00     0.188 A 
ATOM     29  HN  UNL     1      -6.343  56.869  24.292  1.00  0.00     0.167 HD
ENDBRANCH   9  15
ENDBRANCH   5   6
ENDBRANCH   4   5
ENDBRANCH   1   4
BRANCH   1  30
HETATM   30  O   UNL     1      -9.125  52.334  28.195  1.00  0.00    -0.180 OA
BRANCH  30  31
HETATM   31  P   UNL     1     -10.535  53.030  27.928  1.00  0.00     0.417 P 
HETATM   32  O   UNL     1     -11.307  53.122  29.208  1.00  0.00    -0.624 OA
HETATM   33  O   UNL     1     -11.179  52.406  26.716  1.00  0.00    -0.624 OA
BRANCH  31  34
HETATM   34  O   UNL     1      -9.995  54.462  27.466  1.00  0.00    -0.287 OA
BRANCH  34  35
HETATM   35  C   UNL     1     -10.415  55.002  26.223  1.00  0.00     0.216 C 
BRANCH  35  36
HETATM   36  C   UNL     1      -9.199  55.377  25.382  1.00  0.00     0.180 C 
HETATM   37  O   UNL     1      -8.367  54.234  25.177  1.00  0.00    -0.354 OA
HETATM   38  C   UNL     1      -9.042  53.464  24.178  1.00  0.00     0.253 C 
HETATM   39  C   UNL     1      -9.755  54.475  23.267  1.00  0.00     0.198 C 
HETATM   40  C   UNL     1      -9.614  55.795  23.993  1.00  0.00     0.182 C 
BRANCH  38  41
HETATM   41  N   UNL     1      -8.118  52.580  23.505  1.00  0.00    -0.361 N 
ATOM     42  HN  UNL     1      -7.575  52.938  22.719  1.00  0.00     0.162 HD
BRANCH  41  43
HETATM   43  C   UNL     1      -7.949  51.271  23.891  1.00  0.00     0.030 A 
HETATM   44  C   UNL     1      -8.698  50.701  24.897  1.00  0.00     0.046 A 
HETATM   45  C   UNL     1      -8.546  49.347  25.186  1.00  0.00     0.034 A 
HETATM   46  C   UNL     1      -7.689  48.562  24.434  1.00  0.00     0.017 A 
HETATM   47  C   UNL     1      -6.965  49.127  23.403  1.00  0.00     0.003 A 
HETATM   48  C   UNL     1      -7.094  50.483  23.125  1.00  0.00     0.029 A 
BRANCH  45  49
HETATM   49  C   UNL     1      -9.304  48.711  26.303  1.00  0.00     0.249 C 
HETATM   50  N   UNL     1      -9.974  49.442  27.180  1.00  0.00    -0.366 N 
ATOM     51  HN2 UNL     1      -9.988  50.460  27.120  1.00  0.00     0.159 HD
ATOM     52  HN1 UNL     1     -10.492  49.007  27.944  1.00  0.00     0.159 HD
HETATM   53  O   UNL     1      -9.287  47.476  26.375  1.00  0.00    -0.268 OA
ENDBRANCH  45  49
ENDBRANCH  41  43
ENDBRANCH  38  41
BRANCH  39  54
HETATM   54  O   UNL     1      -9.208  54.607  21.976  1.00  0.00    -0.389 OA
ATOM     55  HO  UNL     1      -8.462  55.192  21.911  1.00  0.00     0.210 HD
ENDBRANCH  39  54
BRANCH  40  56
HETATM   56  O   UNL     1      -8.577  56.583  23.434  1.00  0.00    -0.390 OA
ATOM     57  HO  UNL     1      -8.657  57.493  23.693  1.00  0.00     0.210 HD
ENDBRANCH  40  56
ENDBRANCH  35  36
ENDBRANCH  34  35
ENDBRANCH  31  34
ENDBRANCH  30  31
ENDBRANCH   1  30
TORSDOF 16
ENDMDL
MODEL 12
REMARK VINA RESULT:     0.047      4.661      7.569
REMARK INTER + INTRA:          -6.216
REMARK INTER:                   0.000
REMARK INTRA:                  -6.216
REMARK UNBOUND:                -6.301
REMARK  16 active torsions:
REMARK  status: ('A' for Active; 'I' for Inactive)
REMARK       I    between atoms: C_2  and  N_3 
REMARK    1  A    between atoms: C_2  and  C_6 
REMARK    2  A    between atoms: C_11  and  N_56 
REMARK    3  A    between atoms: C_12  and  N_56 
REMARK    4  A    between atoms: C_14  and  O_15 
REMARK    5  A    between atoms: C_17  and  O_18 
REMARK    6  A    between atoms: C_20  and  C_21 
REMARK    7  A    between atoms: C_21  and  O_22 
REMARK    8  A    between atoms: O_22  and  P_23 
REMARK    9  A    between atoms: P_23  and  O_26 
REMARK   10  A    between atoms: O_26  and  P_27 
REMARK   11  A    between atoms: P_27  and  O_30 
REMARK   12  A    between atoms: O_30  and  C_31 
REMARK   13  A    between atoms: C_31  and  C_32 
REMARK   14  A    between atoms: C_33  and  O_34 
REMARK   15  A    between atoms: C_36  and  O_37 
REMARK   16  A    between atoms: C_39  and  N_41 
ROOT
HETATM    1  P   UNL     1     -12.214  55.217  24.101  1.00  0.00     0.417 P 
HETATM    2  O   UNL     1     -13.243  55.608  23.084  1.00  0.00    -0.624 OA
HETATM    3  O   UNL     1     -12.634  55.124  25.543  1.00  0.00    -0.624 OA
ENDROOT
BRANCH   1   4
HETATM    4  O   UNL     1     -11.545  53.844  23.597  1.00  0.00    -0.287 OA
BRANCH   4   5
HETATM    5  C   UNL     1     -10.184  53.780  23.209  1.00  0.00     0.216 C 
BRANCH   5   6
HETATM    6  C   UNL     1      -9.493  52.807  24.147  1.00  0.00     0.180 C 
HETATM    7  C   UNL     1      -9.354  53.267  25.598  1.00  0.00     0.182 C 
HETATM    8  C   UNL     1      -8.243  52.371  26.089  1.00  0.00     0.198 C 
HETATM    9  C   UNL     1      -7.326  52.375  24.896  1.00  0.00     0.262 C 
HETATM   10  O   UNL     1      -8.145  52.552  23.714  1.00  0.00    -0.353 OA
BRANCH   7  11
HETATM   11  O   UNL     1     -10.506  53.062  26.413  1.00  0.00    -0.390 OA
ATOM     12  HO  UNL     1     -10.896  53.904  26.612  1.00  0.00     0.210 HD
ENDBRANCH   7  11
BRANCH   8  13
HETATM   13  O   UNL     1      -8.682  51.010  26.249  1.00  0.00    -0.388 OA
ATOM     14  HO  UNL     1      -9.541  51.056  26.651  1.00  0.00     0.210 HD
ENDBRANCH   8  13
BRANCH   9  15
HETATM   15  N   UNL     1      -6.266  53.405  24.816  1.00  0.00    -0.297 N 
HETATM   16  C   UNL     1      -5.573  53.670  23.722  1.00  0.00     0.142 A 
HETATM   17  N   UNL     1      -5.452  53.076  22.515  1.00  0.00    -0.336 N 
HETATM   18  C   UNL     1      -4.771  54.837  24.066  1.00  0.00     0.122 A 
HETATM   19  C   UNL     1      -4.597  53.613  21.645  1.00  0.00     0.183 A 
ATOM     20  HN  UNL     1      -5.996  52.246  22.278  1.00  0.00     0.168 HD
HETATM   21  N   UNL     1      -3.833  54.695  21.891  1.00  0.00    -0.337 N 
HETATM   22  C   UNL     1      -3.865  55.351  23.055  1.00  0.00     0.131 A 
ATOM     23  HN  UNL     1      -3.205  55.027  21.158  1.00  0.00     0.168 HD
HETATM   24  N   UNL     1      -3.091  56.414  23.285  1.00  0.00    -0.383 N 
ATOM     25  HN2 UNL     1      -2.454  56.775  22.575  1.00  0.00     0.157 HD
ATOM     26  HN1 UNL     1      -3.115  56.914  24.173  1.00  0.00     0.157 HD
HETATM   27  N   UNL     1      -5.076  55.226  25.313  1.00  0.00    -0.346 N 
HETATM   28  C   UNL     1      -5.986  54.344  25.750  1.00  0.00     0.188 A 
ATOM     29  HN  UNL     1      -4.697  56.025  25.821  1.00  0.00     0.167 HD
ENDBRANCH   9  15
ENDBRANCH   5   6
ENDBRANCH   4   5
ENDBRANCH   1   4
BRANCH   1  30
HETATM   30  O   UNL     1     -10.995  56.287  24.044  1.00  0.00    -0.180 OA
BRANCH  30  31
HETATM   31  P   UNL     1     -10.974  57.871  24.224  1.00  0.00     0.417 P 
HETATM   32  O   UNL     1     -12.239  58.325  24.883  1.00  0.00    -0.624 OA
HETATM   33  O   UNL     1     -10.538  58.515  22.932  1.00  0.00    -0.624 OA
BRANCH  31  34
HETATM   34  O   UNL     1      -9.728  57.968  25.220  1.00  0.00    -0.287 OA
BRANCH  34  35
HETATM   35  C   UNL     1      -8.626  58.798  24.885  1.00  0.00     0.216 C 
BRANCH  35  36
HETATM   36  C   UNL     1      -7.341  57.975  24.872  1.00  0.00     0.180 C 
HETATM   37  O   UNL     1      -7.411  56.965  23.862  1.00  0.00    -0.354 OA
HETATM   38  C   UNL     1      -7.187  57.661  22.633  1.00  0.00     0.253 C 
HETATM   39  C   UNL     1      -6.227  58.816  22.962  1.00  0.00     0.198 C 
HETATM   40  C   UNL     1      -6.162  58.826  24.473  1.00  0.00     0.182 C 
BRANCH  38  41
HETATM   41  N   UNL     1      -6.723  56.753  21.610  1.00  0.00    -0.361 N 
ATOM     42  HN  UNL     1      -5.722  56.580  21.520  1.00  0.00     0.162 HD
BRANCH  41  43
HETATM   43  C   UNL     1      -7.589  56.116  20.753  1.00  0.00     0.030 A 
HETATM   44  C   UNL     1      -8.957  56.203  20.894  1.00  0.00     0.046 A 
HETATM   45  C   UNL     1      -9.787  55.610  19.946  1.00  0.00     0.034 A 
HETATM   46  C   UNL     1      -9.247  54.983  18.837  1.00  0.00     0.017 A 
HETATM   47  C   UNL     1      -7.877  54.926  18.678  1.00  0.00     0.003 A 
HETATM   48  C   UNL     1      -7.042  55.494  19.634  1.00  0.00     0.029 A 
BRANCH  45  49
HETATM   49  C   UNL     1     -11.271  55.643  20.098  1.00  0.00     0.249 C 
HETATM   50  N   UNL     1     -11.888  56.711  20.577  1.00  0.00    -0.366 N 
ATOM     51  HN2 UNL     1     -11.367  57.541  20.862  1.00  0.00     0.159 HD
ATOM     52  HN1 UNL     1     -12.903  56.732  20.681  1.00  0.00     0.159 HD
HETATM   53  O   UNL     1     -11.903  54.636  19.753  1.00  0.00    -0.268 OA
ENDBRANCH  45  49
ENDBRANCH  41  43
ENDBRANCH  38  41
BRANCH  39  54
HETATM   54  O   UNL     1      -4.922  58.672  22.451  1.00  0.00    -0.389 OA
ATOM     55  HO  UNL     1      -4.239  58.596  23.107  1.00  0.00     0.210 HD
ENDBRANCH  39  54
BRANCH  40  56
HETATM   56  O   UNL     1      -4.979  58.200  24.942  1.00  0.00    -0.390 OA
ATOM     57  HO  UNL     1      -5.014  58.054  25.880  1.00  0.00     0.210 HD
ENDBRANCH  40  56
ENDBRANCH  35  36
ENDBRANCH  34  35
ENDBRANCH  31  34
ENDBRANCH  30  31
ENDBRANCH   1  30
TORSDOF 16
ENDMDL
MODEL 13
REMARK VINA RESULT:     0.047     10.682     14.308
REMARK INTER + INTRA:          -6.216
REMARK INTER:                   0.000
REMARK INTRA:                  -6.216
REMARK UNBOUND:                -6.301
REMARK  16 active torsions:
REMARK  status: ('A' for Active; 'I' for Inactive)
REMARK       I    between atoms: C_2  and  N_3 
REMARK    1  A    between atoms: C_2  and  C_6 
REMARK    2  A    between atoms: C_11  and  N_56 
REMARK    3  A    between atoms: C_12  and  N_56 
REMARK    4  A    between atoms: C_14  and  O_15 
REMARK    5  A    between atoms: C_17  and  O_18 
REMARK    6  A    between atoms: C_20  and  C_21 
REMARK    7  A    between atoms: C_21  and  O_22 
REMARK    8  A    between atoms: O_22  and  P_23 
REMARK    9  A    between atoms: P_23  and  O_26 
REMARK   10  A    between atoms: O_26  and  P_27 
REMARK   11  A    between atoms: P_27  and  O_30 
REMARK   12  A    between atoms: O_30  and  C_31 
REMARK   13  A    between atoms: C_31  and  C_32 
REMARK   14  A    between atoms: C_33  and  O_34 
REMARK   15  A    between atoms: C_36  and  O_37 
REMARK   16  A    between atoms: C_39  and  N_41 
ROOT
HETATM    1  P   UNL     1      -6.432  60.787  12.035  1.00  0.00     0.417 P 
HETATM    2  O   UNL     1      -7.456  60.357  13.042  1.00  0.00    -0.624 OA
HETATM    3  O   UNL     1      -6.910  61.411  10.752  1.00  0.00    -0.624 OA
ENDROOT
BRANCH   1   4
HETATM    4  O   UNL     1      -5.387  61.742  12.796  1.00  0.00    -0.287 OA
BRANCH   4   5
HETATM    5  C   UNL     1      -4.034  61.365  12.983  1.00  0.00     0.216 C 
BRANCH   5   6
HETATM    6  C   UNL     1      -3.176  62.396  12.272  1.00  0.00     0.180 C 
HETATM    7  C   UNL     1      -3.276  62.408  10.747  1.00  0.00     0.182 C 
HETATM    8  C   UNL     1      -2.003  63.127  10.372  1.00  0.00     0.198 C 
HETATM    9  C   UNL     1      -1.036  62.522  11.353  1.00  0.00     0.262 C 
HETATM   10  O   UNL     1      -1.781  62.173  12.545  1.00  0.00    -0.353 OA
BRANCH   7  11
HETATM   11  O   UNL     1      -4.386  63.131  10.218  1.00  0.00    -0.390 OA
ATOM     12  HO  UNL     1      -4.749  62.644   9.487  1.00  0.00     0.210 HD
ENDBRANCH   7  11
BRANCH   8  13
HETATM   13  O   UNL     1      -2.066  64.529  10.685  1.00  0.00    -0.388 OA
ATOM     14  HO  UNL     1      -1.197  64.875  10.518  1.00  0.00     0.210 HD
ENDBRANCH   8  13
BRANCH   9  15
HETATM   15  N   UNL     1      -0.293  61.303  10.963  1.00  0.00    -0.297 N 
HETATM   16  C   UNL     1       0.380  60.545  11.810  1.00  0.00     0.142 A 
HETATM   17  N   UNL     1       0.748  60.672  13.104  1.00  0.00    -0.336 N 
HETATM   18  C   UNL     1       0.806  59.397  11.020  1.00  0.00     0.122 A 
HETATM   19  C   UNL     1       1.486  59.698  13.635  1.00  0.00     0.183 A 
ATOM     20  HN  UNL     1       0.470  61.484  13.654  1.00  0.00     0.168 HD
HETATM   21  N   UNL     1       1.906  58.605  12.968  1.00  0.00    -0.337 N 
HETATM   22  C   UNL     1       1.611  58.386  11.683  1.00  0.00     0.131 A 
ATOM     23  HN  UNL     1       2.473  57.917  13.465  1.00  0.00     0.168 HD
HETATM   24  N   UNL     1       2.046  57.303  11.035  1.00  0.00    -0.383 N 
ATOM     25  HN2 UNL     1       2.611  56.593  11.501  1.00  0.00     0.157 HD
ATOM     26  HN1 UNL     1       1.821  57.136  10.055  1.00  0.00     0.157 HD
HETATM   27  N   UNL     1       0.315  59.513   9.777  1.00  0.00    -0.346 N 
HETATM   28  C   UNL     1      -0.350  60.677   9.764  1.00  0.00     0.188 A 
ATOM     29  HN  UNL     1       0.423  58.854   9.006  1.00  0.00     0.167 HD
ENDBRANCH   9  15
ENDBRANCH   5   6
ENDBRANCH   4   5
ENDBRANCH   1   4
BRANCH   1  30
HETATM   30  O   UNL     1      -5.543  59.495  11.616  1.00  0.00    -0.180 OA
BRANCH  30  31
HETATM   31  P   UNL     1      -5.955  58.095  10.972  1.00  0.00     0.417 P 
HETATM   32  O   UNL     1      -7.341  58.182  10.411  1.00  0.00    -0.624 OA
HETATM   33  O   UNL     1      -5.611  56.983  11.929  1.00  0.00    -0.624 OA
BRANCH  31  34
HETATM   34  O   UNL     1      -4.857  58.049   9.812  1.00  0.00    -0.287 OA
BRANCH  34  35
HETATM   35  C   UNL     1      -4.006  56.919   9.697  1.00  0.00     0.216 C 
BRANCH  35  36
HETATM   36  C   UNL     1      -2.547  57.360   9.753  1.00  0.00     0.180 C 
HETATM   37  O   UNL     1      -2.264  57.978  11.010  1.00  0.00    -0.354 OA
HETATM   38  C   UNL     1      -2.156  56.892  11.936  1.00  0.00     0.253 C 
HETATM   39  C   UNL     1      -1.577  55.709  11.143  1.00  0.00     0.198 C 
HETATM   40  C   UNL     1      -1.623  56.168   9.702  1.00  0.00     0.182 C 
BRANCH  38  41
HETATM   41  N   UNL     1      -1.389  57.285  13.095  1.00  0.00    -0.361 N 
ATOM     42  HN  UNL     1      -0.376  57.168  13.080  1.00  0.00     0.162 HD
BRANCH  41  43
HETATM   43  C   UNL     1      -1.982  57.811  14.218  1.00  0.00     0.030 A 
HETATM   44  C   UNL     1      -3.329  58.098  14.270  1.00  0.00     0.046 A 
HETATM   45  C   UNL     1      -3.893  58.545  15.462  1.00  0.00     0.034 A 
HETATM   46  C   UNL     1      -3.121  58.652  16.606  1.00  0.00     0.017 A 
HETATM   47  C   UNL     1      -1.779  58.331  16.562  1.00  0.00     0.003 A 
HETATM   48  C   UNL     1      -1.204  57.907  15.369  1.00  0.00     0.029 A 
BRANCH  45  49
HETATM   49  C   UNL     1      -5.337  58.914  15.536  1.00  0.00     0.249 C 
HETATM   50  N   UNL     1      -6.257  58.219  14.885  1.00  0.00    -0.366 N 
ATOM     51  HN2 UNL     1      -6.004  57.415  14.309  1.00  0.00     0.159 HD
ATOM     52  HN1 UNL     1      -7.244  58.471  14.936  1.00  0.00     0.159 HD
HETATM   53  O   UNL     1      -5.643  59.889  16.234  1.00  0.00    -0.268 OA
ENDBRANCH  45  49
ENDBRANCH  41  43
ENDBRANCH  38  41
BRANCH  39  54
HETATM   54  O   UNL     1      -0.251  55.363  11.468  1.00  0.00    -0.389 OA
ATOM     55  HO  UNL     1       0.029  54.509  11.164  1.00  0.00     0.210 HD
ENDBRANCH  39  54
BRANCH  40  56
HETATM   56  O   UNL     1      -0.349  56.608   9.262  1.00  0.00    -0.390 OA
ATOM     57  HO  UNL     1       0.301  55.920   9.345  1.00  0.00     0.210 HD
ENDBRANCH  40  56
ENDBRANCH  35  36
ENDBRANCH  34  35
ENDBRANCH  31  34
ENDBRANCH  30  31
ENDBRANCH   1  30
TORSDOF 16
ENDMDL
MODEL 14
REMARK VINA RESULT:     0.048      4.005      7.651
REMARK INTER + INTRA:          -6.214
REMARK INTER:                   0.000
REMARK INTRA:                  -6.214
REMARK UNBOUND:                -6.301
REMARK  16 active torsions:
REMARK  status: ('A' for Active; 'I' for Inactive)
REMARK       I    between atoms: C_2  and  N_3 
REMARK    1  A    between atoms: C_2  and  C_6 
REMARK    2  A    between atoms: C_11  and  N_56 
REMARK    3  A    between atoms: C_12  and  N_56 
REMARK    4  A    between atoms: C_14  and  O_15 
REMARK    5  A    between atoms: C_17  and  O_18 
REMARK    6  A    between atoms: C_20  and  C_21 
REMARK    7  A    between atoms: C_21  and  O_22 
REMARK    8  A    between atoms: O_22  and  P_23 
REMARK    9  A    between atoms: P_23  and  O_26 
REMARK   10  A    between atoms: O_26  and  P_27 
REMARK   11  A    between atoms: P_27  and  O_30 
REMARK   12  A    between atoms: O_30  and  C_31 
REMARK   13  A    between atoms: C_31  and  C_32 
REMARK   14  A    between atoms: C_33  and  O_34 
REMARK   15  A    between atoms: C_36  and  O_37 
REMARK   16  A    between atoms: C_39  and  N_41 
ROOT
HETATM    1  P   UNL     1      -6.216  57.953  24.082  1.00  0.00     0.417 P 
HETATM    2  O   UNL     1      -5.156  57.389  23.185  1.00  0.00    -0.624 OA
HETATM    3  O   UNL     1      -5.791  58.588  25.379  1.00  0.00    -0.624 OA
ENDROOT
BRANCH   1   4
HETATM    4  O   UNL     1      -7.099  58.964  23.198  1.00  0.00    -0.287 OA
BRANCH   4   5
HETATM    5  C   UNL     1      -8.501  58.809  23.068  1.00  0.00     0.216 C 
BRANCH   5   6
HETATM    6  C   UNL     1      -9.147  60.074  23.603  1.00  0.00     0.180 C 
HETATM    7  C   UNL     1      -8.981  60.324  25.102  1.00  0.00     0.182 C 
HETATM    8  C   UNL     1     -10.102  61.301  25.365  1.00  0.00     0.198 C 
HETATM    9  C   UNL     1     -11.196  60.713  24.516  1.00  0.00     0.262 C 
HETATM   10  O   UNL     1     -10.570  60.048  23.392  1.00  0.00    -0.353 OA
BRANCH   7  11
HETATM   11  O   UNL     1      -7.746  60.927  25.483  1.00  0.00    -0.390 OA
ATOM     12  HO  UNL     1      -7.809  61.865  25.351  1.00  0.00     0.210 HD
ENDBRANCH   7  11
BRANCH   8  13
HETATM   13  O   UNL     1      -9.823  62.600  24.814  1.00  0.00    -0.388 OA
ATOM     14  HO  UNL     1      -9.127  62.474  24.180  1.00  0.00     0.210 HD
ENDBRANCH   8  13
BRANCH   9  15
HETATM   15  N   UNL     1     -12.112  59.719  25.121  1.00  0.00    -0.297 N 
HETATM   16  C   UNL     1     -13.009  59.030  24.439  1.00  0.00     0.142 A 
HETATM   17  N   UNL     1     -13.488  59.092  23.177  1.00  0.00    -0.336 N 
HETATM   18  C   UNL     1     -13.558  58.083  25.402  1.00  0.00     0.122 A 
HETATM   19  C   UNL     1     -14.455  58.240  22.840  1.00  0.00     0.183 A 
ATOM     20  HN  UNL     1     -13.122  59.768  22.506  1.00  0.00     0.168 HD
HETATM   21  N   UNL     1     -15.001  57.332  23.674  1.00  0.00    -0.337 N 
HETATM   22  C   UNL     1     -14.611  57.194  24.945  1.00  0.00     0.131 A 
ATOM     23  HN  UNL     1     -15.741  56.726  23.320  1.00  0.00     0.168 HD
HETATM   24  N   UNL     1     -15.172  56.299  25.760  1.00  0.00    -0.383 N 
ATOM     25  HN2 UNL     1     -15.911  55.674  25.439  1.00  0.00     0.157 HD
ATOM     26  HN1 UNL     1     -14.875  56.194  26.729  1.00  0.00     0.157 HD
HETATM   27  N   UNL     1     -12.917  58.227  26.572  1.00  0.00    -0.346 N 
HETATM   28  C   UNL     1     -12.043  59.226  26.379  1.00  0.00     0.188 A 
ATOM     29  HN  UNL     1     -13.063  57.690  27.426  1.00  0.00     0.167 HD
ENDBRANCH   9  15
ENDBRANCH   5   6
ENDBRANCH   4   5
ENDBRANCH   1   4
BRANCH   1  30
HETATM   30  O   UNL     1      -7.254  56.767  24.469  1.00  0.00    -0.180 OA
BRANCH  30  31
HETATM   31  P   UNL     1      -7.063  55.437  25.328  1.00  0.00     0.417 P 
HETATM   32  O   UNL     1      -5.656  55.357  25.834  1.00  0.00    -0.624 OA
HETATM   33  O   UNL     1      -7.650  54.268  24.578  1.00  0.00    -0.624 OA
BRANCH  31  34
HETATM   34  O   UNL     1      -8.089  55.780  26.504  1.00  0.00    -0.287 OA
BRANCH  34  35
HETATM   35  C   UNL     1      -9.136  54.871  26.809  1.00  0.00     0.216 C 
BRANCH  35  36
HETATM   36  C   UNL     1     -10.479  55.593  26.766  1.00  0.00     0.180 C 
HETATM   37  O   UNL     1     -10.682  56.185  25.481  1.00  0.00    -0.354 OA
HETATM   38  C   UNL     1     -11.040  55.094  24.628  1.00  0.00     0.253 C 
HETATM   39  C   UNL     1     -11.812  54.097  25.508  1.00  0.00     0.198 C 
HETATM   40  C   UNL     1     -11.619  54.617  26.915  1.00  0.00     0.182 C 
BRANCH  38  41
HETATM   41  N   UNL     1     -11.759  55.569  23.468  1.00  0.00    -0.361 N 
ATOM     42  HN  UNL     1     -12.771  55.682  23.525  1.00  0.00     0.162 HD
BRANCH  41  43
HETATM   43  C   UNL     1     -11.120  55.872  22.288  1.00  0.00     0.030 A 
HETATM   44  C   UNL     1      -9.784  55.601  22.087  1.00  0.00     0.046 A 
HETATM   45  C   UNL     1      -9.212  55.848  20.842  1.00  0.00     0.034 A 
HETATM   46  C   UNL     1      -9.986  56.311  19.793  1.00  0.00     0.017 A 
HETATM   47  C   UNL     1     -11.332  56.550  19.986  1.00  0.00     0.003 A 
HETATM   48  C   UNL     1     -11.906  56.329  21.234  1.00  0.00     0.029 A 
BRANCH  45  49
HETATM   49  C   UNL     1      -7.757  55.614  20.607  1.00  0.00     0.249 C 
HETATM   50  N   UNL     1      -6.935  55.340  21.609  1.00  0.00    -0.366 N 
ATOM     51  HN2 UNL     1      -7.272  55.287  22.571  1.00  0.00     0.159 HD
ATOM     52  HN1 UNL     1      -5.941  55.181  21.448  1.00  0.00     0.159 HD
HETATM   53  O   UNL     1      -7.348  55.678  19.441  1.00  0.00    -0.268 OA
ENDBRANCH  45  49
ENDBRANCH  41  43
ENDBRANCH  38  41
BRANCH  39  54
HETATM   54  O   UNL     1     -13.192  54.008  25.241  1.00  0.00    -0.389 OA
ATOM     55  HO  UNL     1     -13.416  53.687  24.375  1.00  0.00     0.210 HD
ENDBRANCH  39  54
BRANCH  40  56
HETATM   56  O   UNL     1     -12.761  55.327  27.363  1.00  0.00    -0.390 OA
ATOM     57  HO  UNL     1     -12.516  56.080  27.887  1.00  0.00     0.210 HD
ENDBRANCH  40  56
ENDBRANCH  35  36
ENDBRANCH  34  35
ENDBRANCH  31  34
ENDBRANCH  30  31
ENDBRANCH   1  30
TORSDOF 16
ENDMDL
MODEL 15
REMARK VINA RESULT:     0.054      9.379     11.752
REMARK INTER + INTRA:          -6.203
REMARK INTER:                   0.000
REMARK INTRA:                  -6.203
REMARK UNBOUND:                -6.301
REMARK  16 active torsions:
REMARK  status: ('A' for Active; 'I' for Inactive)
REMARK       I    between atoms: C_2  and  N_3 
REMARK    1  A    between atoms: C_2  and  C_6 
REMARK    2  A    between atoms: C_11  and  N_56 
REMARK    3  A    between atoms: C_12  and  N_56 
REMARK    4  A    between atoms: C_14  and  O_15 
REMARK    5  A    between atoms: C_17  and  O_18 
REMARK    6  A    between atoms: C_20  and  C_21 
REMARK    7  A    between atoms: C_21  and  O_22 
REMARK    8  A    between atoms: O_22  and  P_23 
REMARK    9  A    between atoms: P_23  and  O_26 
REMARK   10  A    between atoms: O_26  and  P_27 
REMARK   11  A    between atoms: P_27  and  O_30 
REMARK   12  A    between atoms: O_30  and  C_31 
REMARK   13  A    between atoms: C_31  and  C_32 
REMARK   14  A    between atoms: C_33  and  O_34 
REMARK   15  A    between atoms: C_36  and  O_37 
REMARK   16  A    between atoms: C_39  and  N_41 
ROOT
HETATM    1  P   UNL     1      -8.044  60.847  15.309  1.00  0.00     0.417 P 
HETATM    2  O   UNL     1      -9.506  60.608  15.081  1.00  0.00    -0.624 OA
HETATM    3  O   UNL     1      -7.601  62.224  15.721  1.00  0.00    -0.624 OA
ENDROOT
BRANCH   1   4
HETATM    4  O   UNL     1      -7.537  59.733  16.352  1.00  0.00    -0.287 OA
BRANCH   4   5
HETATM    5  C   UNL     1      -6.617  58.725  15.974  1.00  0.00     0.216 C 
BRANCH   5   6
HETATM    6  C   UNL     1      -5.375  58.904  16.828  1.00  0.00     0.180 C 
HETATM    7  C   UNL     1      -4.549  60.160  16.548  1.00  0.00     0.182 C 
HETATM    8  C   UNL     1      -3.219  59.781  17.151  1.00  0.00     0.198 C 
HETATM    9  C   UNL     1      -3.114  58.342  16.726  1.00  0.00     0.262 C 
HETATM   10  O   UNL     1      -4.459  57.813  16.631  1.00  0.00    -0.353 OA
BRANCH   7  11
HETATM   11  O   UNL     1      -5.020  61.349  17.179  1.00  0.00    -0.390 OA
ATOM     12  HO  UNL     1      -4.361  61.654  17.790  1.00  0.00     0.210 HD
ENDBRANCH   7  11
BRANCH   8  13
HETATM   13  O   UNL     1      -3.265  59.771  18.589  1.00  0.00    -0.388 OA
ATOM     14  HO  UNL     1      -2.386  59.982  18.882  1.00  0.00     0.210 HD
ENDBRANCH   8  13
BRANCH   9  15
HETATM   15  N   UNL     1      -2.457  58.026  15.438  1.00  0.00    -0.297 N 
HETATM   16  C   UNL     1      -2.514  56.843  14.850  1.00  0.00     0.142 A 
HETATM   17  N   UNL     1      -2.956  55.623  15.225  1.00  0.00    -0.336 N 
HETATM   18  C   UNL     1      -1.869  57.041  13.558  1.00  0.00     0.122 A 
HETATM   19  C   UNL     1      -2.806  54.619  14.362  1.00  0.00     0.183 A 
ATOM     20  HN  UNL     1      -3.388  55.475  16.137  1.00  0.00     0.168 HD
HETATM   21  N   UNL     1      -2.230  54.732  13.148  1.00  0.00    -0.337 N 
HETATM   22  C   UNL     1      -1.748  55.889  12.684  1.00  0.00     0.131 A 
ATOM     23  HN  UNL     1      -2.159  53.900  12.561  1.00  0.00     0.168 HD
HETATM   24  N   UNL     1      -1.170  55.979  11.484  1.00  0.00    -0.383 N 
ATOM     25  HN2 UNL     1      -1.085  55.170  10.870  1.00  0.00     0.157 HD
ATOM     26  HN1 UNL     1      -0.802  56.862  11.130  1.00  0.00     0.157 HD
HETATM   27  N   UNL     1      -1.523  58.332  13.434  1.00  0.00    -0.346 N 
HETATM   28  C   UNL     1      -1.889  58.912  14.586  1.00  0.00     0.188 A 
ATOM     29  HN  UNL     1      -1.077  58.778  12.633  1.00  0.00     0.167 HD
ENDBRANCH   9  15
ENDBRANCH   5   6
ENDBRANCH   4   5
ENDBRANCH   1   4
BRANCH   1  30
HETATM   30  O   UNL     1      -7.241  60.494  13.943  1.00  0.00    -0.180 OA
BRANCH  30  31
HETATM   31  P   UNL     1      -7.413  61.028  12.451  1.00  0.00     0.417 P 
HETATM   32  O   UNL     1      -8.162  62.325  12.459  1.00  0.00    -0.624 OA
HETATM   33  O   UNL     1      -7.888  59.903  11.567  1.00  0.00    -0.624 OA
BRANCH  31  34
HETATM   34  O   UNL     1      -5.867  61.248  12.111  1.00  0.00    -0.287 OA
BRANCH  34  35
HETATM   35  C   UNL     1      -5.303  60.616  10.972  1.00  0.00     0.216 C 
BRANCH  35  36
HETATM   36  C   UNL     1      -4.107  59.766  11.389  1.00  0.00     0.180 C 
HETATM   37  O   UNL     1      -4.528  58.714  12.261  1.00  0.00    -0.354 OA
HETATM   38  C   UNL     1      -5.140  57.749  11.401  1.00  0.00     0.253 C 
HETATM   39  C   UNL     1      -4.386  57.826  10.063  1.00  0.00     0.198 C 
HETATM   40  C   UNL     1      -3.513  59.055  10.199  1.00  0.00     0.182 C 
BRANCH  38  41
HETATM   41  N   UNL     1      -5.149  56.445  12.023  1.00  0.00    -0.361 N 
ATOM     42  HN  UNL     1      -4.346  55.830  11.893  1.00  0.00     0.162 HD
BRANCH  41  43
HETATM   43  C   UNL     1      -6.207  56.007  12.784  1.00  0.00     0.030 A 
HETATM   44  C   UNL     1      -7.309  56.798  13.032  1.00  0.00     0.046 A 
HETATM   45  C   UNL     1      -8.390  56.272  13.734  1.00  0.00     0.034 A 
HETATM   46  C   UNL     1      -8.388  54.948  14.135  1.00  0.00     0.017 A 
HETATM   47  C   UNL     1      -7.299  54.146  13.856  1.00  0.00     0.003 A 
HETATM   48  C   UNL     1      -6.205  54.672  13.177  1.00  0.00     0.029 A 
BRANCH  45  49
HETATM   49  C   UNL     1      -9.574  57.118  14.063  1.00  0.00     0.249 C 
HETATM   50  N   UNL     1      -9.897  58.165  13.322  1.00  0.00    -0.366 N 
ATOM     51  HN2 UNL     1      -9.343  58.428  12.506  1.00  0.00     0.159 HD
ATOM     52  HN1 UNL     1     -10.707  58.743  13.548  1.00  0.00     0.159 HD
HETATM   53  O   UNL     1     -10.247  56.799  15.052  1.00  0.00    -0.268 OA
ENDBRANCH  45  49
ENDBRANCH  41  43
ENDBRANCH  38  41
BRANCH  39  54
HETATM   54  O   UNL     1      -3.567  56.717   9.774  1.00  0.00    -0.389 OA
ATOM     55  HO  UNL     1      -3.782  55.923  10.248  1.00  0.00     0.210 HD
ENDBRANCH  39  54
BRANCH  40  56
HETATM   56  O   UNL     1      -2.175  58.704  10.510  1.00  0.00    -0.390 OA
ATOM     57  HO  UNL     1      -1.974  58.883  11.421  1.00  0.00     0.210 HD
ENDBRANCH  40  56
ENDBRANCH  35  36
ENDBRANCH  34  35
ENDBRANCH  31  34
ENDBRANCH  30  31
ENDBRANCH   1  30
TORSDOF 16
ENDMDL
MODEL 16
REMARK VINA RESULT:     0.111      5.380      8.893
REMARK INTER + INTRA:          -6.098
REMARK INTER:                   0.000
REMARK INTRA:                  -6.098
REMARK UNBOUND:                -6.301
REMARK  16 active torsions:
REMARK  status: ('A' for Active; 'I' for Inactive)
REMARK       I    between atoms: C_2  and  N_3 
REMARK    1  A    between atoms: C_2  and  C_6 
REMARK    2  A    between atoms: C_11  and  N_56 
REMARK    3  A    between atoms: C_12  and  N_56 
REMARK    4  A    between atoms: C_14  and  O_15 
REMARK    5  A    between atoms: C_17  and  O_18 
REMARK    6  A    between atoms: C_20  and  C_21 
REMARK    7  A    between atoms: C_21  and  O_22 
REMARK    8  A    between atoms: O_22  and  P_23 
REMARK    9  A    between atoms: P_23  and  O_26 
REMARK   10  A    between atoms: O_26  and  P_27 
REMARK   11  A    between atoms: P_27  and  O_30 
REMARK   12  A    between atoms: O_30  and  C_31 
REMARK   13  A    between atoms: C_31  and  C_32 
REMARK   14  A    between atoms: C_33  and  O_34 
REMARK   15  A    between atoms: C_36  and  O_37 
REMARK   16  A    between atoms: C_39  and  N_41 
ROOT
HETATM    1  P   UNL     1      -6.697  58.637  15.294  1.00  0.00     0.417 P 
HETATM    2  O   UNL     1      -6.552  57.258  15.866  1.00  0.00    -0.624 OA
HETATM    3  O   UNL     1      -5.970  58.960  14.017  1.00  0.00    -0.624 OA
ENDROOT
BRANCH   1   4
HETATM    4  O   UNL     1      -8.272  58.934  15.163  1.00  0.00    -0.287 OA
BRANCH   4   5
HETATM    5  C   UNL     1      -8.919  59.887  15.986  1.00  0.00     0.216 C 
BRANCH   5   6
HETATM    6  C   UNL     1      -9.435  60.990  15.080  1.00  0.00     0.180 C 
HETATM    7  C   UNL     1      -8.372  61.904  14.472  1.00  0.00     0.182 C 
HETATM    8  C   UNL     1      -9.198  63.108  14.091  1.00  0.00     0.198 C 
HETATM    9  C   UNL     1     -10.113  63.213  15.281  1.00  0.00     0.262 C 
HETATM   10  O   UNL     1     -10.309  61.876  15.803  1.00  0.00    -0.353 OA
BRANCH   7  11
HETATM   11  O   UNL     1      -7.732  61.396  13.303  1.00  0.00    -0.390 OA
ATOM     12  HO  UNL     1      -7.065  60.774  13.565  1.00  0.00     0.210 HD
ENDBRANCH   7  11
BRANCH   8  13
HETATM   13  O   UNL     1     -10.045  62.843  12.959  1.00  0.00    -0.388 OA
ATOM     14  HO  UNL     1     -10.760  63.465  13.012  1.00  0.00     0.210 HD
ENDBRANCH   8  13
BRANCH   9  15
HETATM   15  N   UNL     1      -9.693  64.044  16.431  1.00  0.00    -0.297 N 
HETATM   16  C   UNL     1     -10.332  64.082  17.588  1.00  0.00     0.142 A 
HETATM   17  N   UNL     1     -11.518  63.608  18.027  1.00  0.00    -0.336 N 
HETATM   18  C   UNL     1      -9.486  64.897  18.451  1.00  0.00     0.122 A 
HETATM   19  C   UNL     1     -11.869  63.886  19.282  1.00  0.00     0.183 A 
ATOM     20  HN  UNL     1     -12.124  63.055  17.419  1.00  0.00     0.168 HD
HETATM   21  N   UNL     1     -11.133  64.622  20.138  1.00  0.00    -0.337 N 
HETATM   22  C   UNL     1      -9.951  65.150  19.802  1.00  0.00     0.131 A 
ATOM     23  HN  UNL     1     -11.492  64.783  21.079  1.00  0.00     0.168 HD
HETATM   24  N   UNL     1      -9.242  65.888  20.659  1.00  0.00    -0.383 N 
ATOM     25  HN2 UNL     1      -9.568  66.065  21.609  1.00  0.00     0.157 HD
ATOM     26  HN1 UNL     1      -8.341  66.290  20.404  1.00  0.00     0.157 HD
HETATM   27  N   UNL     1      -8.377  65.241  17.778  1.00  0.00    -0.346 N 
HETATM   28  C   UNL     1      -8.523  64.714  16.555  1.00  0.00     0.188 A 
ATOM     29  HN  UNL     1      -7.590  65.789  18.125  1.00  0.00     0.167 HD
ENDBRANCH   9  15
ENDBRANCH   5   6
ENDBRANCH   4   5
ENDBRANCH   1   4
BRANCH   1  30
HETATM   30  O   UNL     1      -6.189  59.712  16.398  1.00  0.00    -0.180 OA
BRANCH  30  31
HETATM   31  P   UNL     1      -5.022  59.640  17.482  1.00  0.00     0.417 P 
HETATM   32  O   UNL     1      -3.830  58.946  16.900  1.00  0.00    -0.624 OA
HETATM   33  O   UNL     1      -5.588  59.165  18.796  1.00  0.00    -0.624 OA
BRANCH  31  34
HETATM   34  O   UNL     1      -4.765  61.209  17.642  1.00  0.00    -0.287 OA
BRANCH  34  35
HETATM   35  C   UNL     1      -4.830  61.803  18.930  1.00  0.00     0.216 C 
BRANCH  35  36
HETATM   36  C   UNL     1      -5.846  62.940  18.927  1.00  0.00     0.180 C 
HETATM   37  O   UNL     1      -7.171  62.420  18.807  1.00  0.00    -0.354 OA
HETATM   38  C   UNL     1      -7.483  61.907  20.105  1.00  0.00     0.253 C 
HETATM   39  C   UNL     1      -6.748  62.810  21.110  1.00  0.00     0.198 C 
HETATM   40  C   UNL     1      -5.844  63.665  20.250  1.00  0.00     0.182 C 
BRANCH  38  41
HETATM   41  N   UNL     1      -8.913  61.824  20.291  1.00  0.00    -0.361 N 
ATOM     42  HN  UNL     1      -9.426  62.661  20.568  1.00  0.00     0.162 HD
BRANCH  41  43
HETATM   43  C   UNL     1      -9.605  60.650  20.106  1.00  0.00     0.030 A 
HETATM   44  C   UNL     1      -8.997  59.508  19.631  1.00  0.00     0.046 A 
HETATM   45  C   UNL     1      -9.725  58.324  19.548  1.00  0.00     0.034 A 
HETATM   46  C   UNL     1     -11.036  58.274  19.989  1.00  0.00     0.017 A 
HETATM   47  C   UNL     1     -11.633  59.410  20.498  1.00  0.00     0.003 A 
HETATM   48  C   UNL     1     -10.920  60.602  20.561  1.00  0.00     0.029 A 
BRANCH  45  49
HETATM   49  C   UNL     1      -9.111  57.084  18.989  1.00  0.00     0.249 C 
HETATM   50  N   UNL     1      -7.865  57.076  18.543  1.00  0.00    -0.366 N 
ATOM     51  HN2 UNL     1      -7.290  57.918  18.564  1.00  0.00     0.159 HD
ATOM     52  HN1 UNL     1      -7.446  56.228  18.161  1.00  0.00     0.159 HD
HETATM   53  O   UNL     1      -9.809  56.062  18.965  1.00  0.00    -0.268 OA
ENDBRANCH  45  49
ENDBRANCH  41  43
ENDBRANCH  38  41
BRANCH  39  54
HETATM   54  O   UNL     1      -7.579  63.653  21.874  1.00  0.00    -0.389 OA
ATOM     55  HO  UNL     1      -8.506  63.591  21.678  1.00  0.00     0.210 HD
ENDBRANCH  39  54
BRANCH  40  56
HETATM   56  O   UNL     1      -6.392  64.958  20.053  1.00  0.00    -0.390 OA
ATOM     57  HO  UNL     1      -5.724  65.630  20.120  1.00  0.00     0.210 HD
ENDBRANCH  40  56
ENDBRANCH  35  36
ENDBRANCH  34  35
ENDBRANCH  31  34
ENDBRANCH  30  31
ENDBRANCH   1  30
TORSDOF 16
ENDMDL
MODEL 17
REMARK VINA RESULT:     0.132      5.685      9.644
REMARK INTER + INTRA:          -6.062
REMARK INTER:                   0.000
REMARK INTRA:                  -6.062
REMARK UNBOUND:                -6.301
REMARK  16 active torsions:
REMARK  status: ('A' for Active; 'I' for Inactive)
REMARK       I    between atoms: C_2  and  N_3 
REMARK    1  A    between atoms: C_2  and  C_6 
REMARK    2  A    between atoms: C_11  and  N_56 
REMARK    3  A    between atoms: C_12  and  N_56 
REMARK    4  A    between atoms: C_14  and  O_15 
REMARK    5  A    between atoms: C_17  and  O_18 
REMARK    6  A    between atoms: C_20  and  C_21 
REMARK    7  A    between atoms: C_21  and  O_22 
REMARK    8  A    between atoms: O_22  and  P_23 
REMARK    9  A    between atoms: P_23  and  O_26 
REMARK   10  A    between atoms: O_26  and  P_27 
REMARK   11  A    between atoms: P_27  and  O_30 
REMARK   12  A    between atoms: O_30  and  C_31 
REMARK   13  A    between atoms: C_31  and  C_32 
REMARK   14  A    between atoms: C_33  and  O_34 
REMARK   15  A    between atoms: C_36  and  O_37 
REMARK   16  A    between atoms: C_39  and  N_41 
ROOT
HETATM    1  P   UNL     1      -9.155  57.957  20.054  1.00  0.00     0.417 P 
HETATM    2  O   UNL     1      -7.672  57.739  20.021  1.00  0.00    -0.624 OA
HETATM    3  O   UNL     1      -9.747  58.977  19.120  1.00  0.00    -0.624 OA
ENDROOT
BRANCH   1   4
HETATM    4  O   UNL     1      -9.851  56.520  19.868  1.00  0.00    -0.287 OA
BRANCH   4   5
HETATM    5  C   UNL     1     -10.930  56.326  18.971  1.00  0.00     0.216 C 
BRANCH   5   6
HETATM    6  C   UNL     1     -12.060  55.684  19.755  1.00  0.00     0.180 C 
HETATM    7  C   UNL     1     -11.799  55.472  21.246  1.00  0.00     0.182 C 
HETATM    8  C   UNL     1     -12.827  54.419  21.580  1.00  0.00     0.198 C 
HETATM    9  C   UNL     1     -12.734  53.536  20.365  1.00  0.00     0.262 C 
HETATM   10  O   UNL     1     -12.352  54.371  19.245  1.00  0.00    -0.353 OA
BRANCH   7  11
HETATM   11  O   UNL     1     -12.026  56.614  22.070  1.00  0.00    -0.390 OA
ATOM     12  HO  UNL     1     -11.403  57.291  21.834  1.00  0.00     0.210 HD
ENDBRANCH   7  11
BRANCH   8  13
HETATM   13  O   UNL     1     -14.162  54.953  21.585  1.00  0.00    -0.388 OA
ATOM     14  HO  UNL     1     -14.451  54.948  20.680  1.00  0.00     0.210 HD
ENDBRANCH   8  13
BRANCH   9  15
HETATM   15  N   UNL     1     -11.780  52.405  20.377  1.00  0.00    -0.297 N 
HETATM   16  C   UNL     1     -11.835  51.400  21.235  1.00  0.00     0.142 A 
HETATM   17  N   UNL     1     -12.544  51.156  22.359  1.00  0.00    -0.336 N 
HETATM   18  C   UNL     1     -10.814  50.467  20.777  1.00  0.00     0.122 A 
HETATM   19  C   UNL     1     -12.297  50.022  23.012  1.00  0.00     0.183 A 
ATOM     20  HN  UNL     1     -13.245  51.818  22.694  1.00  0.00     0.168 HD
HETATM   21  N   UNL     1     -11.376  49.110  22.641  1.00  0.00    -0.337 N 
HETATM   22  C   UNL     1     -10.612  49.257  21.554  1.00  0.00     0.131 A 
ATOM     23  HN  UNL     1     -11.259  48.273  23.213  1.00  0.00     0.168 HD
HETATM   24  N   UNL     1      -9.697  48.349  21.209  1.00  0.00    -0.383 N 
ATOM     25  HN2 UNL     1      -9.555  47.500  21.754  1.00  0.00     0.157 HD
ATOM     26  HN1 UNL     1      -9.114  48.462  20.380  1.00  0.00     0.157 HD
HETATM   27  N   UNL     1     -10.259  50.942  19.651  1.00  0.00    -0.346 N 
HETATM   28  C   UNL     1     -10.860  52.119  19.426  1.00  0.00     0.188 A 
ATOM     29  HN  UNL     1      -9.534  50.500  19.086  1.00  0.00     0.167 HD
ENDBRANCH   9  15
ENDBRANCH   5   6
ENDBRANCH   4   5
ENDBRANCH   1   4
BRANCH   1  30
HETATM   30  O   UNL     1      -9.581  58.404  21.555  1.00  0.00    -0.180 OA
BRANCH  30  31
HETATM   31  P   UNL     1      -8.923  58.092  22.974  1.00  0.00     0.417 P 
HETATM   32  O   UNL     1      -8.006  59.209  23.365  1.00  0.00    -0.624 OA
HETATM   33  O   UNL     1      -8.413  56.674  22.989  1.00  0.00    -0.624 OA
BRANCH  31  34
HETATM   34  O   UNL     1     -10.261  58.101  23.848  1.00  0.00    -0.287 OA
BRANCH  34  35
HETATM   35  C   UNL     1     -10.208  57.722  25.215  1.00  0.00     0.216 C 
BRANCH  35  36
HETATM   36  C   UNL     1     -11.382  56.807  25.547  1.00  0.00     0.180 C 
HETATM   37  O   UNL     1     -11.370  55.658  24.697  1.00  0.00    -0.354 OA
HETATM   38  C   UNL     1     -10.339  54.822  25.227  1.00  0.00     0.253 C 
HETATM   39  C   UNL     1     -10.332  55.059  26.746  1.00  0.00     0.198 C 
HETATM   40  C   UNL     1     -11.250  56.246  26.941  1.00  0.00     0.182 C 
BRANCH  38  41
HETATM   41  N   UNL     1     -10.538  53.449  24.824  1.00  0.00    -0.361 N 
ATOM     42  HN  UNL     1     -11.355  52.945  25.172  1.00  0.00     0.162 HD
BRANCH  41  43
HETATM   43  C   UNL     1      -9.662  52.799  23.988  1.00  0.00     0.030 A 
HETATM   44  C   UNL     1      -9.165  53.389  22.845  1.00  0.00     0.046 A 
HETATM   45  C   UNL     1      -8.212  52.719  22.083  1.00  0.00     0.034 A 
HETATM   46  C   UNL     1      -7.722  51.492  22.493  1.00  0.00     0.017 A 
HETATM   47  C   UNL     1      -8.194  50.918  23.656  1.00  0.00     0.003 A 
HETATM   48  C   UNL     1      -9.164  51.570  24.410  1.00  0.00     0.029 A 
BRANCH  45  49
HETATM   49  C   UNL     1      -7.694  53.308  20.813  1.00  0.00     0.249 C 
HETATM   50  N   UNL     1      -7.530  54.615  20.680  1.00  0.00    -0.366 N 
ATOM     51  HN2 UNL     1      -7.759  55.258  21.439  1.00  0.00     0.159 HD
ATOM     52  HN1 UNL     1      -7.176  55.017  19.812  1.00  0.00     0.159 HD
HETATM   53  O   UNL     1      -7.417  52.529  19.893  1.00  0.00    -0.268 OA
ENDBRANCH  45  49
ENDBRANCH  41  43
ENDBRANCH  38  41
BRANCH  39  54
HETATM   54  O   UNL     1     -10.809  53.984  27.521  1.00  0.00    -0.389 OA
ATOM     55  HO  UNL     1     -11.131  54.220  28.383  1.00  0.00     0.210 HD
ENDBRANCH  39  54
BRANCH  40  56
HETATM   56  O   UNL     1     -12.533  55.838  27.383  1.00  0.00    -0.390 OA
ATOM     57  HO  UNL     1     -12.478  55.346  28.194  1.00  0.00     0.210 HD
ENDBRANCH  40  56
ENDBRANCH  35  36
ENDBRANCH  34  35
ENDBRANCH  31  34
ENDBRANCH  30  31
ENDBRANCH   1  30
TORSDOF 16
ENDMDL
MODEL 18
REMARK VINA RESULT:     0.132      5.378      8.635
REMARK INTER + INTRA:          -6.062
REMARK INTER:                   0.000
REMARK INTRA:                  -6.062
REMARK UNBOUND:                -6.301
REMARK  16 active torsions:
REMARK  status: ('A' for Active; 'I' for Inactive)
REMARK       I    between atoms: C_2  and  N_3 
REMARK    1  A    between atoms: C_2  and  C_6 
REMARK    2  A    between atoms: C_11  and  N_56 
REMARK    3  A    between atoms: C_12  and  N_56 
REMARK    4  A    between atoms: C_14  and  O_15 
REMARK    5  A    between atoms: C_17  and  O_18 
REMARK    6  A    between atoms: C_20  and  C_21 
REMARK    7  A    between atoms: C_21  and  O_22 
REMARK    8  A    between atoms: O_22  and  P_23 
REMARK    9  A    between atoms: P_23  and  O_26 
REMARK   10  A    between atoms: O_26  and  P_27 
REMARK   11  A    between atoms: P_27  and  O_30 
REMARK   12  A    between atoms: O_30  and  C_31 
REMARK   13  A    between atoms: C_31  and  C_32 
REMARK   14  A    between atoms: C_33  and  O_34 
REMARK   15  A    between atoms: C_36  and  O_37 
REMARK   16  A    between atoms: C_39  and  N_41 
ROOT
HETATM    1  P   UNL     1     -12.542  62.007  21.132  1.00  0.00     0.417 P 
HETATM    2  O   UNL     1     -12.843  62.959  20.012  1.00  0.00    -0.624 OA
HETATM    3  O   UNL     1     -12.820  62.453  22.542  1.00  0.00    -0.624 OA
ENDROOT
BRANCH   1   4
HETATM    4  O   UNL     1     -13.292  60.625  20.796  1.00  0.00    -0.287 OA
BRANCH   4   5
HETATM    5  C   UNL     1     -14.051  59.935  21.772  1.00  0.00     0.216 C 
BRANCH   5   6
HETATM    6  C   UNL     1     -13.520  58.515  21.836  1.00  0.00     0.180 C 
HETATM    7  C   UNL     1     -12.325  58.209  20.934  1.00  0.00     0.182 C 
HETATM    8  C   UNL     1     -12.389  56.703  20.856  1.00  0.00     0.198 C 
HETATM    9  C   UNL     1     -13.874  56.488  20.738  1.00  0.00     0.262 C 
HETATM   10  O   UNL     1     -14.532  57.574  21.436  1.00  0.00    -0.353 OA
BRANCH   7  11
HETATM   11  O   UNL     1     -11.055  58.590  21.459  1.00  0.00    -0.390 OA
ATOM     12  HO  UNL     1     -10.382  58.364  20.829  1.00  0.00     0.210 HD
ENDBRANCH   7  11
BRANCH   8  13
HETATM   13  O   UNL     1     -11.993  56.084  22.093  1.00  0.00    -0.388 OA
ATOM     14  HO  UNL     1     -12.747  56.140  22.669  1.00  0.00     0.210 HD
ENDBRANCH   8  13
BRANCH   9  15
HETATM   15  N   UNL     1     -14.482  56.440  19.389  1.00  0.00    -0.297 N 
HETATM   16  C   UNL     1     -14.163  55.548  18.467  1.00  0.00     0.142 A 
HETATM   17  N   UNL     1     -13.192  54.617  18.349  1.00  0.00    -0.336 N 
HETATM   18  C   UNL     1     -15.107  55.786  17.382  1.00  0.00     0.122 A 
HETATM   19  C   UNL     1     -13.148  53.908  17.222  1.00  0.00     0.183 A 
ATOM     20  HN  UNL     1     -12.515  54.463  19.097  1.00  0.00     0.168 HD
HETATM   21  N   UNL     1     -13.994  54.066  16.185  1.00  0.00    -0.337 N 
HETATM   22  C   UNL     1     -14.982  54.966  16.191  1.00  0.00     0.131 A 
ATOM     23  HN  UNL     1     -13.875  53.475  15.362  1.00  0.00     0.168 HD
HETATM   24  N   UNL     1     -15.803  55.117  15.149  1.00  0.00    -0.383 N 
ATOM     25  HN2 UNL     1     -15.715  54.541  14.312  1.00  0.00     0.157 HD
ATOM     26  HN1 UNL     1     -16.556  55.804  15.153  1.00  0.00     0.157 HD
HETATM   27  N   UNL     1     -15.959  56.756  17.747  1.00  0.00    -0.346 N 
HETATM   28  C   UNL     1     -15.561  57.139  18.969  1.00  0.00     0.188 A 
ATOM     29  HN  UNL     1     -16.743  57.125  17.209  1.00  0.00     0.167 HD
ENDBRANCH   9  15
ENDBRANCH   5   6
ENDBRANCH   4   5
ENDBRANCH   1   4
BRANCH   1  30
HETATM   30  O   UNL     1     -10.967  61.619  21.073  1.00  0.00    -0.180 OA
BRANCH  30  31
HETATM   31  P   UNL     1      -9.937  61.574  19.857  1.00  0.00     0.417 P 
HETATM   32  O   UNL     1      -9.205  62.878  19.763  1.00  0.00    -0.624 OA
HETATM   33  O   UNL     1     -10.626  61.021  18.637  1.00  0.00    -0.624 OA
BRANCH  31  34
HETATM   34  O   UNL     1      -8.989  60.411  20.408  1.00  0.00    -0.287 OA
BRANCH  34  35
HETATM   35  C   UNL     1      -7.993  59.858  19.561  1.00  0.00     0.216 C 
BRANCH  35  36
HETATM   36  C   UNL     1      -7.999  58.337  19.676  1.00  0.00     0.180 C 
HETATM   37  O   UNL     1      -9.276  57.817  19.300  1.00  0.00    -0.354 OA
HETATM   38  C   UNL     1      -9.294  57.887  17.872  1.00  0.00     0.253 C 
HETATM   39  C   UNL     1      -7.843  57.664  17.414  1.00  0.00     0.198 C 
HETATM   40  C   UNL     1      -7.036  57.720  18.692  1.00  0.00     0.182 C 
BRANCH  38  41
HETATM   41  N   UNL     1     -10.256  56.957  17.328  1.00  0.00    -0.361 N 
ATOM     42  HN  UNL     1     -10.084  55.956  17.422  1.00  0.00     0.162 HD
BRANCH  41  43
HETATM   43  C   UNL     1     -11.397  57.379  16.687  1.00  0.00     0.030 A 
HETATM   44  C   UNL     1     -12.187  58.391  17.188  1.00  0.00     0.046 A 
HETATM   45  C   UNL     1     -13.281  58.839  16.453  1.00  0.00     0.034 A 
HETATM   46  C   UNL     1     -13.547  58.313  15.201  1.00  0.00     0.017 A 
HETATM   47  C   UNL     1     -12.734  57.323  14.684  1.00  0.00     0.003 A 
HETATM   48  C   UNL     1     -11.654  56.854  15.424  1.00  0.00     0.029 A 
BRANCH  45  49
HETATM   49  C   UNL     1     -14.186  59.897  16.991  1.00  0.00     0.249 C 
HETATM   50  N   UNL     1     -13.718  60.886  17.735  1.00  0.00    -0.366 N 
ATOM     51  HN2 UNL     1     -12.726  60.952  17.966  1.00  0.00     0.159 HD
ATOM     52  HN1 UNL     1     -14.337  61.609  18.102  1.00  0.00     0.159 HD
HETATM   53  O   UNL     1     -15.389  59.817  16.709  1.00  0.00    -0.268 OA
ENDBRANCH  45  49
ENDBRANCH  41  43
ENDBRANCH  38  41
BRANCH  39  54
HETATM   54  O   UNL     1      -7.600  56.430  16.778  1.00  0.00    -0.389 OA
ATOM     55  HO  UNL     1      -8.226  55.744  16.977  1.00  0.00     0.210 HD
ENDBRANCH  39  54
BRANCH  40  56
HETATM   56  O   UNL     1      -6.702  56.421  19.148  1.00  0.00    -0.390 OA
ATOM     57  HO  UNL     1      -7.480  55.915  19.350  1.00  0.00     0.210 HD
ENDBRANCH  40  56
ENDBRANCH  35  36
ENDBRANCH  34  35
ENDBRANCH  31  34
ENDBRANCH  30  31
ENDBRANCH   1  30
TORSDOF 16
ENDMDL
MODEL 19
REMARK VINA RESULT:     0.134      5.335      8.878
REMARK INTER + INTRA:          -6.057
REMARK INTER:                   0.000
REMARK INTRA:                  -6.057
REMARK UNBOUND:                -6.301
REMARK  16 active torsions:
REMARK  status: ('A' for Active; 'I' for Inactive)
REMARK       I    between atoms: C_2  and  N_3 
REMARK    1  A    between atoms: C_2  and  C_6 
REMARK    2  A    between atoms: C_11  and  N_56 
REMARK    3  A    between atoms: C_12  and  N_56 
REMARK    4  A    between atoms: C_14  and  O_15 
REMARK    5  A    between atoms: C_17  and  O_18 
REMARK    6  A    between atoms: C_20  and  C_21 
REMARK    7  A    between atoms: C_21  and  O_22 
REMARK    8  A    between atoms: O_22  and  P_23 
REMARK    9  A    between atoms: P_23  and  O_26 
REMARK   10  A    between atoms: O_26  and  P_27 
REMARK   11  A    between atoms: P_27  and  O_30 
REMARK   12  A    between atoms: O_30  and  C_31 
REMARK   13  A    between atoms: C_31  and  C_32 
REMARK   14  A    between atoms: C_33  and  O_34 
REMARK   15  A    between atoms: C_36  and  O_37 
REMARK   16  A    between atoms: C_39  and  N_41 
ROOT
HETATM    1  P   UNL     1     -10.999  56.376  30.563  1.00  0.00     0.417 P 
HETATM    2  O   UNL     1      -9.545  56.613  30.285  1.00  0.00    -0.624 OA
HETATM    3  O   UNL     1     -11.556  56.827  31.886  1.00  0.00    -0.624 OA
ENDROOT
BRANCH   1   4
HETATM    4  O   UNL     1     -11.827  57.002  29.335  1.00  0.00    -0.287 OA
BRANCH   4   5
HETATM    5  C   UNL     1     -12.956  57.829  29.545  1.00  0.00     0.216 C 
BRANCH   5   6
HETATM    6  C   UNL     1     -14.105  57.238  28.748  1.00  0.00     0.180 C 
HETATM    7  C   UNL     1     -13.794  55.946  27.992  1.00  0.00     0.182 C 
HETATM    8  C   UNL     1     -14.903  55.928  26.968  1.00  0.00     0.198 C 
HETATM    9  C   UNL     1     -14.956  57.381  26.582  1.00  0.00     0.262 C 
HETATM   10  O   UNL     1     -14.548  58.157  27.735  1.00  0.00    -0.353 OA
BRANCH   7  11
HETATM   11  O   UNL     1     -13.868  54.754  28.772  1.00  0.00    -0.390 OA
ATOM     12  HO  UNL     1     -14.573  54.843  29.402  1.00  0.00     0.210 HD
ENDBRANCH   7  11
BRANCH   8  13
HETATM   13  O   UNL     1     -16.178  55.626  27.562  1.00  0.00    -0.388 OA
ATOM     14  HO  UNL     1     -16.818  56.145  27.091  1.00  0.00     0.210 HD
ENDBRANCH   8  13
BRANCH   9  15
HETATM   15  N   UNL     1     -14.118  57.850  25.455  1.00  0.00    -0.297 N 
HETATM   16  C   UNL     1     -14.222  57.396  24.218  1.00  0.00     0.142 A 
HETATM   17  N   UNL     1     -14.884  56.369  23.642  1.00  0.00    -0.336 N 
HETATM   18  C   UNL     1     -13.325  58.240  23.439  1.00  0.00     0.122 A 
HETATM   19  C   UNL     1     -14.711  56.177  22.335  1.00  0.00     0.183 A 
ATOM     20  HN  UNL     1     -15.496  55.762  24.188  1.00  0.00     0.168 HD
HETATM   21  N   UNL     1     -13.908  56.924  21.551  1.00  0.00    -0.337 N 
HETATM   22  C   UNL     1     -13.198  57.955  22.021  1.00  0.00     0.131 A 
ATOM     23  HN  UNL     1     -13.839  56.693  20.560  1.00  0.00     0.168 HD
HETATM   24  N   UNL     1     -12.397  58.676  21.232  1.00  0.00    -0.383 N 
ATOM     25  HN2 UNL     1     -12.308  58.476  20.236  1.00  0.00     0.157 HD
ATOM     26  HN1 UNL     1     -11.856  59.461  21.590  1.00  0.00     0.157 HD
HETATM   27  N   UNL     1     -12.793  59.174  24.242  1.00  0.00    -0.346 N 
HETATM   28  C   UNL     1     -13.288  58.919  25.462  1.00  0.00     0.188 A 
ATOM     29  HN  UNL     1     -12.149  59.920  23.980  1.00  0.00     0.167 HD
ENDBRANCH   9  15
ENDBRANCH   5   6
ENDBRANCH   4   5
ENDBRANCH   1   4
BRANCH   1  30
HETATM   30  O   UNL     1     -11.294  54.783  30.459  1.00  0.00    -0.180 OA
BRANCH  30  31
HETATM   31  P   UNL     1     -10.594  53.635  29.601  1.00  0.00     0.417 P 
HETATM   32  O   UNL     1      -9.555  52.943  30.429  1.00  0.00    -0.624 OA
HETATM   33  O   UNL     1     -10.221  54.180  28.246  1.00  0.00    -0.624 OA
BRANCH  31  34
HETATM   34  O   UNL     1     -11.877  52.708  29.377  1.00  0.00    -0.287 OA
BRANCH  34  35
HETATM   35  C   UNL     1     -11.786  51.582  28.517  1.00  0.00     0.216 C 
BRANCH  35  36
HETATM   36  C   UNL     1     -13.023  51.509  27.627  1.00  0.00     0.180 C 
HETATM   37  O   UNL     1     -13.158  52.711  26.866  1.00  0.00    -0.354 OA
HETATM   38  C   UNL     1     -12.183  52.597  25.826  1.00  0.00     0.253 C 
HETATM   39  C   UNL     1     -12.081  51.099  25.496  1.00  0.00     0.198 C 
HETATM   40  C   UNL     1     -12.875  50.422  26.591  1.00  0.00     0.182 C 
BRANCH  38  41
HETATM   41  N   UNL     1     -12.528  53.447  24.709  1.00  0.00    -0.361 N 
ATOM     42  HN  UNL     1     -13.362  53.232  24.164  1.00  0.00     0.162 HD
BRANCH  41  43
HETATM   43  C   UNL     1     -11.765  54.536  24.359  1.00  0.00     0.030 A 
HETATM   44  C   UNL     1     -11.287  55.428  25.295  1.00  0.00     0.046 A 
HETATM   45  C   UNL     1     -10.445  56.462  24.894  1.00  0.00     0.034 A 
HETATM   46  C   UNL     1     -10.044  56.567  23.573  1.00  0.00     0.017 A 
HETATM   47  C   UNL     1     -10.495  55.653  22.643  1.00  0.00     0.003 A 
HETATM   48  C   UNL     1     -11.356  54.632  23.032  1.00  0.00     0.029 A 
BRANCH  45  49
HETATM   49  C   UNL     1      -9.953  57.474  25.874  1.00  0.00     0.249 C 
HETATM   50  N   UNL     1      -9.670  57.138  27.123  1.00  0.00    -0.366 N 
ATOM     51  HN2 UNL     1      -9.785  56.180  27.453  1.00  0.00     0.159 HD
ATOM     52  HN1 UNL     1      -9.334  57.830  27.792  1.00  0.00     0.159 HD
HETATM   53  O   UNL     1      -9.813  58.636  25.473  1.00  0.00    -0.268 OA
ENDBRANCH  45  49
ENDBRANCH  41  43
ENDBRANCH  38  41
BRANCH  39  54
HETATM   54  O   UNL     1     -12.618  50.724  24.248  1.00  0.00    -0.389 OA
ATOM     55  HO  UNL     1     -13.525  50.443  24.267  1.00  0.00     0.210 HD
ENDBRANCH  39  54
BRANCH  40  56
HETATM   56  O   UNL     1     -14.168  50.056  26.139  1.00  0.00    -0.390 OA
ATOM     57  HO  UNL     1     -14.308  50.325  25.239  1.00  0.00     0.210 HD
ENDBRANCH  40  56
ENDBRANCH  35  36
ENDBRANCH  34  35
ENDBRANCH  31  34
ENDBRANCH  30  31
ENDBRANCH   1  30
TORSDOF 16
ENDMDL
MODEL 20
REMARK VINA RESULT:     0.135      9.310     12.182
REMARK INTER + INTRA:          -6.055
REMARK INTER:                   0.000
REMARK INTRA:                  -6.055
REMARK UNBOUND:                -6.301
REMARK  16 active torsions:
REMARK  status: ('A' for Active; 'I' for Inactive)
REMARK       I    between atoms: C_2  and  N_3 
REMARK    1  A    between atoms: C_2  and  C_6 
REMARK    2  A    between atoms: C_11  and  N_56 
REMARK    3  A    between atoms: C_12  and  N_56 
REMARK    4  A    between atoms: C_14  and  O_15 
REMARK    5  A    between atoms: C_17  and  O_18 
REMARK    6  A    between atoms: C_20  and  C_21 
REMARK    7  A    between atoms: C_21  and  O_22 
REMARK    8  A    between atoms: O_22  and  P_23 
REMARK    9  A    between atoms: P_23  and  O_26 
REMARK   10  A    between atoms: O_26  and  P_27 
REMARK   11  A    between atoms: P_27  and  O_30 
REMARK   12  A    between atoms: O_30  and  C_31 
REMARK   13  A    between atoms: C_31  and  C_32 
REMARK   14  A    between atoms: C_33  and  O_34 
REMARK   15  A    between atoms: C_36  and  O_37 
REMARK   16  A    between atoms: C_39  and  N_41 
ROOT
HETATM    1  P   UNL     1      -9.161  51.157  20.229  1.00  0.00     0.417 P 
HETATM    2  O   UNL     1      -9.767  51.975  21.330  1.00  0.00    -0.624 OA
HETATM    3  O   UNL     1      -8.773  49.734  20.527  1.00  0.00    -0.624 OA
ENDROOT
BRANCH   1   4
HETATM    4  O   UNL     1     -10.159  51.240  18.970  1.00  0.00    -0.287 OA
BRANCH   4   5
HETATM    5  C   UNL     1     -10.527  50.087  18.236  1.00  0.00     0.216 C 
BRANCH   5   6
HETATM    6  C   UNL     1     -10.225  50.366  16.775  1.00  0.00     0.180 C 
HETATM    7  C   UNL     1      -9.582  51.720  16.475  1.00  0.00     0.182 C 
HETATM    8  C   UNL     1      -9.885  51.872  15.004  1.00  0.00     0.198 C 
HETATM    9  C   UNL     1     -11.293  51.346  14.948  1.00  0.00     0.262 C 
HETATM   10  O   UNL     1     -11.432  50.353  15.993  1.00  0.00    -0.353 OA
BRANCH   7  11
HETATM   11  O   UNL     1      -8.169  51.775  16.663  1.00  0.00    -0.390 OA
ATOM     12  HO  UNL     1      -7.774  52.183  15.902  1.00  0.00     0.210 HD
ENDBRANCH   7  11
BRANCH   8  13
HETATM   13  O   UNL     1      -9.093  50.982  14.198  1.00  0.00    -0.388 OA
ATOM     14  HO  UNL     1      -8.892  51.458  13.401  1.00  0.00     0.210 HD
ENDBRANCH   8  13
BRANCH   9  15
HETATM   15  N   UNL     1     -12.416  52.294  15.131  1.00  0.00    -0.297 N 
HETATM   16  C   UNL     1     -12.652  53.321  14.335  1.00  0.00     0.142 A 
HETATM   17  N   UNL     1     -11.969  53.916  13.332  1.00  0.00    -0.336 N 
HETATM   18  C   UNL     1     -13.921  53.865  14.800  1.00  0.00     0.122 A 
HETATM   19  C   UNL     1     -12.512  54.994  12.769  1.00  0.00     0.183 A 
ATOM     20  HN  UNL     1     -11.070  53.551  13.017  1.00  0.00     0.168 HD
HETATM   21  N   UNL     1     -13.685  55.544  13.140  1.00  0.00    -0.337 N 
HETATM   22  C   UNL     1     -14.435  55.045  14.128  1.00  0.00     0.131 A 
ATOM     23  HN  UNL     1     -14.013  56.375  12.647  1.00  0.00     0.168 HD
HETATM   24  N   UNL     1     -15.588  55.611  14.490  1.00  0.00    -0.383 N 
ATOM     25  HN2 UNL     1     -15.949  56.439  14.018  1.00  0.00     0.157 HD
ATOM     26  HN1 UNL     1     -16.160  55.230  15.244  1.00  0.00     0.157 HD
HETATM   27  N   UNL     1     -14.387  53.099  15.799  1.00  0.00    -0.346 N 
HETATM   28  C   UNL     1     -13.457  52.150  15.983  1.00  0.00     0.188 A 
ATOM     29  HN  UNL     1     -15.262  53.213  16.309  1.00  0.00     0.167 HD
ENDBRANCH   9  15
ENDBRANCH   5   6
ENDBRANCH   4   5
ENDBRANCH   1   4
BRANCH   1  30
HETATM   30  O   UNL     1      -7.816  51.902  19.708  1.00  0.00    -0.180 OA
BRANCH  30  31
HETATM   31  P   UNL     1      -7.397  53.440  19.706  1.00  0.00     0.417 P 
HETATM   32  O   UNL     1      -6.586  53.748  20.927  1.00  0.00    -0.624 OA
HETATM   33  O   UNL     1      -8.601  54.287  19.382  1.00  0.00    -0.624 OA
BRANCH  31  34
HETATM   34  O   UNL     1      -6.489  53.424  18.390  1.00  0.00    -0.287 OA
BRANCH  34  35
HETATM   35  C   UNL     1      -5.986  54.645  17.871  1.00  0.00     0.216 C 
BRANCH  35  36
HETATM   36  C   UNL     1      -6.139  54.666  16.353  1.00  0.00     0.180 C 
HETATM   37  O   UNL     1      -7.511  54.487  15.992  1.00  0.00    -0.354 OA
HETATM   38  C   UNL     1      -8.126  55.752  16.250  1.00  0.00     0.253 C 
HETATM   39  C   UNL     1      -7.051  56.816  15.973  1.00  0.00     0.198 C 
HETATM   40  C   UNL     1      -5.777  56.020  15.796  1.00  0.00     0.182 C 
BRANCH  38  41
HETATM   41  N   UNL     1      -9.340  55.894  15.480  1.00  0.00    -0.361 N 
ATOM     42  HN  UNL     1      -9.278  55.947  14.464  1.00  0.00     0.162 HD
BRANCH  41  43
HETATM   43  C   UNL     1     -10.578  55.962  16.076  1.00  0.00     0.030 A 
HETATM   44  C   UNL     1     -10.949  55.110  17.094  1.00  0.00     0.046 A 
HETATM   45  C   UNL     1     -12.180  55.282  17.721  1.00  0.00     0.034 A 
HETATM   46  C   UNL     1     -13.007  56.333  17.366  1.00  0.00     0.017 A 
HETATM   47  C   UNL     1     -12.619  57.208  16.371  1.00  0.00     0.003 A 
HETATM   48  C   UNL     1     -11.401  57.027  15.723  1.00  0.00     0.029 A 
BRANCH  45  49
HETATM   49  C   UNL     1     -12.634  54.344  18.790  1.00  0.00     0.249 C 
HETATM   50  N   UNL     1     -11.773  53.803  19.638  1.00  0.00    -0.366 N 
ATOM     51  HN2 UNL     1     -10.775  54.008  19.583  1.00  0.00     0.159 HD
ATOM     52  HN1 UNL     1     -12.084  53.162  20.368  1.00  0.00     0.159 HD
HETATM   53  O   UNL     1     -13.844  54.097  18.857  1.00  0.00    -0.268 OA
ENDBRANCH  45  49
ENDBRANCH  41  43
ENDBRANCH  38  41
BRANCH  39  54
HETATM   54  O   UNL     1      -7.265  57.594  14.818  1.00  0.00    -0.389 OA
ATOM     55  HO  UNL     1      -6.498  57.729  14.275  1.00  0.00     0.210 HD
ENDBRANCH  39  54
BRANCH  40  56
HETATM   56  O   UNL     1      -5.452  55.866  14.424  1.00  0.00    -0.390 OA
ATOM     57  HO  UNL     1      -5.827  56.565  13.901  1.00  0.00     0.210 HD
ENDBRANCH  40  56
ENDBRANCH  35  36
ENDBRANCH  34  35
ENDBRANCH  31  34
ENDBRANCH  30  31
ENDBRANCH   1  30
TORSDOF 16
ENDMDL
