MODEL 1
REMARK VINA RESULT:    -6.537      0.000      0.000
REMARK INTER + INTRA:          -7.351
REMARK INTER:                  -7.301
REMARK INTRA:                  -0.050
REMARK UNBOUND:                -0.050
REMARK  3 active torsions:
REMARK  status: ('A' for Active; 'I' for Inactive)
REMARK    1  A    between atoms: C_1  and  O_7 
REMARK    2  A    between atoms: C_2  and  O_9 
REMARK    3  A    between atoms: C_4  and  N_11 
ROOT
HETATM    1  C   UNL     1      32.961 -28.510  -7.884  1.00  0.00     0.098 A 
HETATM    2  C   UNL     1      33.140 -27.429  -7.062  1.00  0.00     0.101 A 
HETATM    3  C   UNL     1      33.342 -26.179  -7.599  1.00  0.00     0.075 A 
HETATM    4  C   UNL     1      33.364 -26.026  -8.980  1.00  0.00     0.105 A 
HETATM    5  C   UNL     1      33.181 -27.111  -9.816  1.00  0.00     0.039 A 
HETATM    6  C   UNL     1      32.985 -28.371  -9.268  1.00  0.00     0.042 A 
ENDROOT
BRANCH   4   7
HETATM    7  N   UNL     1      33.474 -24.696  -9.525  1.00  0.00    -0.116 N 
HETATM    8  O   UNL     1      32.978 -23.655  -8.742  1.00  0.00    -0.532 OA
HETATM    9  O   UNL     1      33.742 -24.477 -10.664  1.00  0.00    -0.532 OA
ENDBRANCH   4   7
BRANCH   2  10
HETATM   10  O   UNL     1      33.127 -27.615  -5.689  1.00  0.00    -0.358 OA
ATOM     11  HO  UNL     1      33.787 -27.210  -5.138  1.00  0.00     0.217 HD
ENDBRANCH   2  10
BRANCH   1  12
HETATM   12  O   UNL     1      32.674 -29.737  -7.349  1.00  0.00    -0.358 OA
ATOM     13  HO  UNL     1      33.253 -30.466  -7.537  1.00  0.00     0.217 HD
ENDBRANCH   1  12
TORSDOF 3
ENDMDL
MODEL 2
REMARK VINA RESULT:    -5.958      1.518      4.125
REMARK INTER + INTRA:          -6.704
REMARK INTER:                  -6.655
REMARK INTRA:                  -0.049
REMARK UNBOUND:                -0.050
REMARK  3 active torsions:
REMARK  status: ('A' for Active; 'I' for Inactive)
REMARK    1  A    between atoms: C_1  and  O_7 
REMARK    2  A    between atoms: C_2  and  O_9 
REMARK    3  A    between atoms: C_4  and  N_11 
ROOT
HETATM    1  C   UNL     1      33.503 -25.486  -9.895  1.00  0.00     0.098 A 
HETATM    2  C   UNL     1      33.294 -25.114  -8.593  1.00  0.00     0.101 A 
HETATM    3  C   UNL     1      33.128 -26.072  -7.619  1.00  0.00     0.075 A 
HETATM    4  C   UNL     1      33.171 -27.415  -7.970  1.00  0.00     0.105 A 
HETATM    5  C   UNL     1      33.385 -27.799  -9.281  1.00  0.00     0.039 A 
HETATM    6  C   UNL     1      33.545 -26.828 -10.259  1.00  0.00     0.042 A 
ENDROOT
BRANCH   4   7
HETATM    7  N   UNL     1      33.097 -28.404  -6.923  1.00  0.00    -0.116 N 
HETATM    8  O   UNL     1      32.548 -29.638  -7.265  1.00  0.00    -0.532 OA
HETATM    9  O   UNL     1      33.258 -28.149  -5.771  1.00  0.00    -0.532 OA
ENDBRANCH   4   7
BRANCH   2  10
HETATM   10  O   UNL     1      33.241 -23.766  -8.276  1.00  0.00    -0.358 OA
ATOM     11  HO  UNL     1      34.038 -23.275  -8.114  1.00  0.00     0.217 HD
ENDBRANCH   2  10
BRANCH   1  12
HETATM   12  O   UNL     1      33.755 -24.535 -10.846  1.00  0.00    -0.358 OA
ATOM     13  HO  UNL     1      33.126 -23.833 -10.971  1.00  0.00     0.217 HD
ENDBRANCH   1  12
TORSDOF 3
ENDMDL
MODEL 3
REMARK VINA RESULT:    -5.931      1.751      4.479
REMARK INTER + INTRA:          -6.675
REMARK INTER:                  -6.623
REMARK INTRA:                  -0.052
REMARK UNBOUND:                -0.050
REMARK  3 active torsions:
REMARK  status: ('A' for Active; 'I' for Inactive)
REMARK    1  A    between atoms: C_1  and  O_7 
REMARK    2  A    between atoms: C_2  and  O_9 
REMARK    3  A    between atoms: C_4  and  N_11 
ROOT
HETATM    1  C   UNL     1      33.677 -25.506  -9.681  1.00  0.00     0.098 A 
HETATM    2  C   UNL     1      33.512 -26.825 -10.010  1.00  0.00     0.101 A 
HETATM    3  C   UNL     1      33.386 -27.773  -9.021  1.00  0.00     0.075 A 
HETATM    4  C   UNL     1      33.429 -27.380  -7.690  1.00  0.00     0.105 A 
HETATM    5  C   UNL     1      33.592 -26.049  -7.350  1.00  0.00     0.039 A 
HETATM    6  C   UNL     1      33.726 -25.099  -8.352  1.00  0.00     0.042 A 
ENDROOT
BRANCH   4   7
HETATM    7  N   UNL     1      33.193 -28.370  -6.669  1.00  0.00    -0.116 N 
HETATM    8  O   UNL     1      32.629 -29.575  -7.083  1.00  0.00    -0.532 OA
HETATM    9  O   UNL     1      33.237 -28.130  -5.503  1.00  0.00    -0.532 OA
ENDBRANCH   4   7
BRANCH   2  10
HETATM   10  O   UNL     1      33.486 -27.190 -11.347  1.00  0.00    -0.358 OA
ATOM     11  HO  UNL     1      33.814 -26.601 -12.017  1.00  0.00     0.217 HD
ENDBRANCH   2  10
BRANCH   1  12
HETATM   12  O   UNL     1      33.714 -24.556 -10.665  1.00  0.00    -0.358 OA
ATOM     13  HO  UNL     1      33.462 -23.664 -10.452  1.00  0.00     0.217 HD
ENDBRANCH   1  12
TORSDOF 3
ENDMDL
MODEL 4
REMARK VINA RESULT:    -5.792      1.967      3.715
REMARK INTER + INTRA:          -6.520
REMARK INTER:                  -6.467
REMARK INTRA:                  -0.052
REMARK UNBOUND:                -0.050
REMARK  3 active torsions:
REMARK  status: ('A' for Active; 'I' for Inactive)
REMARK    1  A    between atoms: C_1  and  O_7 
REMARK    2  A    between atoms: C_2  and  O_9 
REMARK    3  A    between atoms: C_4  and  N_11 
ROOT
HETATM    1  C   UNL     1      33.295 -28.021 -10.213  1.00  0.00     0.098 A 
HETATM    2  C   UNL     1      33.720 -26.810  -9.737  1.00  0.00     0.101 A 
HETATM    3  C   UNL     1      33.720 -26.561  -8.384  1.00  0.00     0.075 A 
HETATM    4  C   UNL     1      33.284 -27.548  -7.509  1.00  0.00     0.105 A 
HETATM    5  C   UNL     1      32.857 -28.775  -7.982  1.00  0.00     0.039 A 
HETATM    6  C   UNL     1      32.852 -29.017  -9.349  1.00  0.00     0.042 A 
ENDROOT
BRANCH   4   7
HETATM    7  N   UNL     1      33.387 -27.309  -6.092  1.00  0.00    -0.116 N 
HETATM    8  O   UNL     1      33.835 -26.049  -5.700  1.00  0.00    -0.532 OA
HETATM    9  O   UNL     1      33.336 -28.177  -5.277  1.00  0.00    -0.532 OA
ENDBRANCH   4   7
BRANCH   2  10
HETATM   10  O   UNL     1      34.136 -25.839 -10.634  1.00  0.00    -0.358 OA
ATOM     11  HO  UNL     1      33.541 -25.500 -11.293  1.00  0.00     0.217 HD
ENDBRANCH   2  10
BRANCH   1  12
HETATM   12  O   UNL     1      33.377 -28.297 -11.551  1.00  0.00    -0.358 OA
ATOM     13  HO  UNL     1      33.673 -27.615 -12.143  1.00  0.00     0.217 HD
ENDBRANCH   1  12
TORSDOF 3
ENDMDL
MODEL 5
REMARK VINA RESULT:    -5.788      0.824      2.001
REMARK INTER + INTRA:          -6.515
REMARK INTER:                  -6.464
REMARK INTRA:                  -0.052
REMARK UNBOUND:                -0.050
REMARK  3 active torsions:
REMARK  status: ('A' for Active; 'I' for Inactive)
REMARK    1  A    between atoms: C_1  and  O_7 
REMARK    2  A    between atoms: C_2  and  O_9 
REMARK    3  A    between atoms: C_4  and  N_11 
ROOT
HETATM    1  C   UNL     1      33.048 -28.485  -7.549  1.00  0.00     0.098 A 
HETATM    2  C   UNL     1      32.934 -28.389  -8.911  1.00  0.00     0.101 A 
HETATM    3  C   UNL     1      33.100 -27.173  -9.533  1.00  0.00     0.075 A 
HETATM    4  C   UNL     1      33.380 -26.048  -8.768  1.00  0.00     0.105 A 
HETATM    5  C   UNL     1      33.500 -26.138  -7.394  1.00  0.00     0.039 A 
HETATM    6  C   UNL     1      33.325 -27.366  -6.771  1.00  0.00     0.042 A 
ENDROOT
BRANCH   4   7
HETATM    7  N   UNL     1      33.652 -24.804  -9.444  1.00  0.00    -0.116 N 
HETATM    8  O   UNL     1      33.707 -23.659  -8.652  1.00  0.00    -0.532 OA
HETATM    9  O   UNL     1      33.599 -24.679 -10.628  1.00  0.00    -0.532 OA
ENDBRANCH   4   7
BRANCH   2  10
HETATM   10  O   UNL     1      32.640 -29.526  -9.646  1.00  0.00    -0.358 OA
ATOM     11  HO  UNL     1      32.999 -29.645 -10.519  1.00  0.00     0.217 HD
ENDBRANCH   2  10
BRANCH   1  12
HETATM   12  O   UNL     1      32.969 -29.709  -6.941  1.00  0.00    -0.358 OA
ATOM     13  HO  UNL     1      33.139 -30.489  -7.457  1.00  0.00     0.217 HD
ENDBRANCH   1  12
TORSDOF 3
ENDMDL
MODEL 6
REMARK VINA RESULT:    -5.731      2.237      3.666
REMARK INTER + INTRA:          -6.451
REMARK INTER:                  -6.399
REMARK INTRA:                  -0.051
REMARK UNBOUND:                -0.050
REMARK  3 active torsions:
REMARK  status: ('A' for Active; 'I' for Inactive)
REMARK    1  A    between atoms: C_1  and  O_7 
REMARK    2  A    between atoms: C_2  and  O_9 
REMARK    3  A    between atoms: C_4  and  N_11 
ROOT
HETATM    1  C   UNL     1      33.334 -27.991 -10.528  1.00  0.00     0.098 A 
HETATM    2  C   UNL     1      32.799 -28.841  -9.596  1.00  0.00     0.101 A 
HETATM    3  C   UNL     1      32.909 -28.553  -8.256  1.00  0.00     0.075 A 
HETATM    4  C   UNL     1      33.570 -27.398  -7.859  1.00  0.00     0.105 A 
HETATM    5  C   UNL     1      34.110 -26.534  -8.793  1.00  0.00     0.039 A 
HETATM    6  C   UNL     1      34.001 -26.833 -10.144  1.00  0.00     0.042 A 
ENDROOT
BRANCH   4   7
HETATM    7  N   UNL     1      33.588 -27.060  -6.457  1.00  0.00    -0.116 N 
HETATM    8  O   UNL     1      33.172 -28.050  -5.569  1.00  0.00    -0.532 OA
HETATM    9  O   UNL     1      33.710 -25.946  -6.055  1.00  0.00    -0.532 OA
ENDBRANCH   4   7
BRANCH   2  10
HETATM   10  O   UNL     1      32.158 -29.993 -10.022  1.00  0.00    -0.358 OA
ATOM     11  HO  UNL     1      32.520 -30.518 -10.727  1.00  0.00     0.217 HD
ENDBRANCH   2  10
BRANCH   1  12
HETATM   12  O   UNL     1      33.148 -28.234 -11.862  1.00  0.00    -0.358 OA
ATOM     13  HO  UNL     1      32.936 -27.506 -12.435  1.00  0.00     0.217 HD
ENDBRANCH   1  12
TORSDOF 3
ENDMDL
MODEL 7
REMARK VINA RESULT:    -5.727      1.762      4.482
REMARK INTER + INTRA:          -6.447
REMARK INTER:                  -6.394
REMARK INTRA:                  -0.052
REMARK UNBOUND:                -0.050
REMARK  3 active torsions:
REMARK  status: ('A' for Active; 'I' for Inactive)
REMARK    1  A    between atoms: C_1  and  O_7 
REMARK    2  A    between atoms: C_2  and  O_9 
REMARK    3  A    between atoms: C_4  and  N_11 
ROOT
HETATM    1  C   UNL     1      33.749 -25.081  -8.446  1.00  0.00     0.098 A 
HETATM    2  C   UNL     1      33.562 -25.771  -9.614  1.00  0.00     0.101 A 
HETATM    3  C   UNL     1      33.276 -27.116  -9.585  1.00  0.00     0.075 A 
HETATM    4  C   UNL     1      33.181 -27.766  -8.361  1.00  0.00     0.105 A 
HETATM    5  C   UNL     1      33.366 -27.076  -7.176  1.00  0.00     0.039 A 
HETATM    6  C   UNL     1      33.661 -25.721  -7.214  1.00  0.00     0.042 A 
ENDROOT
BRANCH   4   7
HETATM    7  N   UNL     1      32.781 -29.150  -8.344  1.00  0.00    -0.116 N 
HETATM    8  O   UNL     1      32.540 -29.748  -9.579  1.00  0.00    -0.532 OA
HETATM    9  O   UNL     1      32.433 -29.718  -7.356  1.00  0.00    -0.532 OA
ENDBRANCH   4   7
BRANCH   2  10
HETATM   10  O   UNL     1      33.677 -25.099 -10.821  1.00  0.00    -0.358 OA
ATOM     11  HO  UNL     1      34.530 -24.861 -11.165  1.00  0.00     0.217 HD
ENDBRANCH   2  10
BRANCH   1  12
HETATM   12  O   UNL     1      33.947 -23.728  -8.475  1.00  0.00    -0.358 OA
ATOM     13  HO  UNL     1      33.757 -23.219  -7.694  1.00  0.00     0.217 HD
ENDBRANCH   1  12
TORSDOF 3
ENDMDL
MODEL 8
REMARK VINA RESULT:    -5.712      2.250      3.271
REMARK INTER + INTRA:          -6.430
REMARK INTER:                  -6.379
REMARK INTRA:                  -0.051
REMARK UNBOUND:                -0.050
REMARK  3 active torsions:
REMARK  status: ('A' for Active; 'I' for Inactive)
REMARK    1  A    between atoms: C_1  and  O_7 
REMARK    2  A    between atoms: C_2  and  O_9 
REMARK    3  A    between atoms: C_4  and  N_11 
ROOT
HETATM    1  C   UNL     1      33.740 -26.331  -6.621  1.00  0.00     0.098 A 
HETATM    2  C   UNL     1      33.339 -27.638  -6.541  1.00  0.00     0.101 A 
HETATM    3  C   UNL     1      33.060 -28.347  -7.687  1.00  0.00     0.075 A 
HETATM    4  C   UNL     1      33.187 -27.723  -8.921  1.00  0.00     0.105 A 
HETATM    5  C   UNL     1      33.594 -26.404  -9.011  1.00  0.00     0.039 A 
HETATM    6  C   UNL     1      33.867 -25.694  -7.850  1.00  0.00     0.042 A 
ENDROOT
BRANCH   4   7
HETATM    7  N   UNL     1      32.990 -28.507 -10.115  1.00  0.00    -0.116 N 
HETATM    8  O   UNL     1      32.424 -29.770  -9.948  1.00  0.00    -0.532 OA
HETATM    9  O   UNL     1      33.483 -28.235 -11.164  1.00  0.00    -0.532 OA
ENDBRANCH   4   7
BRANCH   2  10
HETATM   10  O   UNL     1      33.208 -28.230  -5.295  1.00  0.00    -0.358 OA
ATOM     11  HO  UNL     1      33.005 -29.155  -5.216  1.00  0.00     0.217 HD
ENDBRANCH   2  10
BRANCH   1  12
HETATM   12  O   UNL     1      34.100 -25.656  -5.487  1.00  0.00    -0.358 OA
ATOM     13  HO  UNL     1      34.996 -25.353  -5.398  1.00  0.00     0.217 HD
ENDBRANCH   1  12
TORSDOF 3
ENDMDL
MODEL 9
REMARK VINA RESULT:    -5.346      1.521      2.016
REMARK INTER + INTRA:          -6.021
REMARK INTER:                  -5.971
REMARK INTRA:                  -0.050
REMARK UNBOUND:                -0.050
REMARK  3 active torsions:
REMARK  status: ('A' for Active; 'I' for Inactive)
REMARK    1  A    between atoms: C_1  and  O_7 
REMARK    2  A    between atoms: C_2  and  O_9 
REMARK    3  A    between atoms: C_4  and  N_11 
ROOT
HETATM    1  C   UNL     1      32.766 -29.010  -9.832  1.00  0.00     0.098 A 
HETATM    2  C   UNL     1      32.698 -28.763  -8.487  1.00  0.00     0.101 A 
HETATM    3  C   UNL     1      33.143 -27.564  -7.981  1.00  0.00     0.075 A 
HETATM    4  C   UNL     1      33.664 -26.610  -8.847  1.00  0.00     0.105 A 
HETATM    5  C   UNL     1      33.733 -26.851 -10.207  1.00  0.00     0.039 A 
HETATM    6  C   UNL     1      33.288 -28.065 -10.709  1.00  0.00     0.042 A 
ENDROOT
BRANCH   4   7
HETATM    7  N   UNL     1      34.031 -25.322  -8.315  1.00  0.00    -0.116 N 
HETATM    8  O   UNL     1      34.270 -25.255  -6.943  1.00  0.00    -0.532 OA
HETATM    9  O   UNL     1      33.915 -24.306  -8.925  1.00  0.00    -0.532 OA
ENDBRANCH   4   7
BRANCH   2  10
HETATM   10  O   UNL     1      32.186 -29.739  -7.645  1.00  0.00    -0.358 OA
ATOM     11  HO  UNL     1      32.689 -30.049  -6.901  1.00  0.00     0.217 HD
ENDBRANCH   2  10
BRANCH   1  12
HETATM   12  O   UNL     1      32.242 -30.167 -10.342  1.00  0.00    -0.358 OA
ATOM     13  HO  UNL     1      31.426 -30.126 -10.828  1.00  0.00     0.217 HD
ENDBRANCH   1  12
TORSDOF 3
ENDMDL
MODEL 10
REMARK VINA RESULT:    -5.312      2.268      3.678
REMARK INTER + INTRA:          -5.983
REMARK INTER:                  -5.930
REMARK INTRA:                  -0.052
REMARK UNBOUND:                -0.050
REMARK  3 active torsions:
REMARK  status: ('A' for Active; 'I' for Inactive)
REMARK    1  A    between atoms: C_1  and  O_7 
REMARK    2  A    between atoms: C_2  and  O_9 
REMARK    3  A    between atoms: C_4  and  N_11 
ROOT
HETATM    1  C   UNL     1      33.699 -26.748  -6.909  1.00  0.00     0.098 A 
HETATM    2  C   UNL     1      33.981 -26.279  -8.165  1.00  0.00     0.101 A 
HETATM    3  C   UNL     1      33.708 -27.051  -9.269  1.00  0.00     0.075 A 
HETATM    4  C   UNL     1      33.146 -28.310  -9.098  1.00  0.00     0.105 A 
HETATM    5  C   UNL     1      32.855 -28.790  -7.834  1.00  0.00     0.039 A 
HETATM    6  C   UNL     1      33.140 -28.008  -6.724  1.00  0.00     0.042 A 
ENDROOT
BRANCH   4   7
HETATM    7  N   UNL     1      32.772 -29.064 -10.268  1.00  0.00    -0.116 N 
HETATM    8  O   UNL     1      32.992 -28.455 -11.503  1.00  0.00    -0.532 OA
HETATM    9  O   UNL     1      32.095 -30.043 -10.226  1.00  0.00    -0.532 OA
ENDBRANCH   4   7
BRANCH   2  10
HETATM   10  O   UNL     1      34.554 -25.024  -8.304  1.00  0.00    -0.358 OA
ATOM     11  HO  UNL     1      35.328 -24.786  -7.806  1.00  0.00     0.217 HD
ENDBRANCH   2  10
BRANCH   1  12
HETATM   12  O   UNL     1      33.891 -25.944  -5.819  1.00  0.00    -0.358 OA
ATOM     13  HO  UNL     1      33.224 -25.304  -5.598  1.00  0.00     0.217 HD
ENDBRANCH   1  12
TORSDOF 3
ENDMDL
MODEL 11
REMARK VINA RESULT:    -4.757     11.850     12.964
REMARK INTER + INTRA:          -5.363
REMARK INTER:                  -5.324
REMARK INTRA:                  -0.039
REMARK UNBOUND:                -0.050
REMARK  3 active torsions:
REMARK  status: ('A' for Active; 'I' for Inactive)
REMARK    1  A    between atoms: C_1  and  O_7 
REMARK    2  A    between atoms: C_2  and  O_9 
REMARK    3  A    between atoms: C_4  and  N_11 
ROOT
HETATM    1  C   UNL     1      23.709 -18.629  -3.837  1.00  0.00     0.098 A 
HETATM    2  C   UNL     1      24.384 -18.954  -4.983  1.00  0.00     0.101 A 
HETATM    3  C   UNL     1      24.000 -20.048  -5.724  1.00  0.00     0.075 A 
HETATM    4  C   UNL     1      22.925 -20.817  -5.296  1.00  0.00     0.105 A 
HETATM    5  C   UNL     1      22.237 -20.493  -4.141  1.00  0.00     0.039 A 
HETATM    6  C   UNL     1      22.634 -19.393  -3.395  1.00  0.00     0.042 A 
ENDROOT
BRANCH   4   7
HETATM    7  N   UNL     1      22.473 -21.898  -6.136  1.00  0.00    -0.116 N 
HETATM    8  O   UNL     1      23.311 -23.007  -6.237  1.00  0.00    -0.532 OA
HETATM    9  O   UNL     1      21.566 -21.794  -6.902  1.00  0.00    -0.532 OA
ENDBRANCH   4   7
BRANCH   2  10
HETATM   10  O   UNL     1      25.461 -18.176  -5.377  1.00  0.00    -0.358 OA
ATOM     11  HO  UNL     1      25.902 -17.608  -4.756  1.00  0.00     0.217 HD
ENDBRANCH   2  10
BRANCH   1  12
HETATM   12  O   UNL     1      24.037 -17.491  -3.149  1.00  0.00    -0.358 OA
ATOM     13  HO  UNL     1      24.348 -16.736  -3.635  1.00  0.00     0.217 HD
ENDBRANCH   1  12
TORSDOF 3
ENDMDL
MODEL 12
REMARK VINA RESULT:    -4.531      1.921      3.986
REMARK INTER + INTRA:          -5.111
REMARK INTER:                  -5.060
REMARK INTRA:                  -0.051
REMARK UNBOUND:                -0.050
REMARK  3 active torsions:
REMARK  status: ('A' for Active; 'I' for Inactive)
REMARK    1  A    between atoms: C_1  and  O_7 
REMARK    2  A    between atoms: C_2  and  O_9 
REMARK    3  A    between atoms: C_4  and  N_11 
ROOT
HETATM    1  C   UNL     1      33.745 -25.171  -8.767  1.00  0.00     0.098 A 
HETATM    2  C   UNL     1      33.736 -25.836  -7.570  1.00  0.00     0.101 A 
HETATM    3  C   UNL     1      33.356 -27.156  -7.515  1.00  0.00     0.075 A 
HETATM    4  C   UNL     1      32.979 -27.806  -8.684  1.00  0.00     0.105 A 
HETATM    5  C   UNL     1      32.988 -27.143  -9.897  1.00  0.00     0.039 A 
HETATM    6  C   UNL     1      33.366 -25.808  -9.944  1.00  0.00     0.042 A 
ENDROOT
BRANCH   4   7
HETATM    7  N   UNL     1      32.682 -29.215  -8.625  1.00  0.00    -0.116 N 
HETATM    8  O   UNL     1      32.523 -29.874  -9.843  1.00  0.00    -0.532 OA
HETATM    9  O   UNL     1      32.346 -29.771  -7.626  1.00  0.00    -0.532 OA
ENDBRANCH   4   7
BRANCH   2  10
HETATM   10  O   UNL     1      34.104 -25.158  -6.418  1.00  0.00    -0.358 OA
ATOM     11  HO  UNL     1      34.616 -25.589  -5.743  1.00  0.00     0.217 HD
ENDBRANCH   2  10
BRANCH   1  12
HETATM   12  O   UNL     1      34.206 -23.884  -8.832  1.00  0.00    -0.358 OA
ATOM     13  HO  UNL     1      34.096 -23.319  -8.076  1.00  0.00     0.217 HD
ENDBRANCH   1  12
TORSDOF 3
ENDMDL
MODEL 13
REMARK VINA RESULT:    -4.312     12.140     12.658
REMARK INTER + INTRA:          -4.866
REMARK INTER:                  -4.827
REMARK INTRA:                  -0.039
REMARK UNBOUND:                -0.050
REMARK  3 active torsions:
REMARK  status: ('A' for Active; 'I' for Inactive)
REMARK    1  A    between atoms: C_1  and  O_7 
REMARK    2  A    between atoms: C_2  and  O_9 
REMARK    3  A    between atoms: C_4  and  N_11 
ROOT
HETATM    1  C   UNL     1      21.575 -23.794  -2.466  1.00  0.00     0.098 A 
HETATM    2  C   UNL     1      22.197 -24.395  -3.528  1.00  0.00     0.101 A 
HETATM    3  C   UNL     1      22.482 -23.669  -4.661  1.00  0.00     0.075 A 
HETATM    4  C   UNL     1      22.131 -22.327  -4.718  1.00  0.00     0.105 A 
HETATM    5  C   UNL     1      21.505 -21.713  -3.649  1.00  0.00     0.039 A 
HETATM    6  C   UNL     1      21.214 -22.452  -2.511  1.00  0.00     0.042 A 
ENDROOT
BRANCH   4   7
HETATM    7  N   UNL     1      22.527 -21.558  -5.871  1.00  0.00    -0.116 N 
HETATM    8  O   UNL     1      21.727 -21.673  -7.006  1.00  0.00    -0.532 OA
HETATM    9  O   UNL     1      23.592 -21.033  -5.972  1.00  0.00    -0.532 OA
ENDBRANCH   4   7
BRANCH   2  10
HETATM   10  O   UNL     1      22.524 -25.739  -3.448  1.00  0.00    -0.358 OA
ATOM     11  HO  UNL     1      22.971 -26.085  -2.684  1.00  0.00     0.217 HD
ENDBRANCH   2  10
BRANCH   1  12
HETATM   12  O   UNL     1      21.372 -24.494  -1.307  1.00  0.00    -0.358 OA
ATOM     13  HO  UNL     1      21.020 -24.038  -0.551  1.00  0.00     0.217 HD
ENDBRANCH   1  12
TORSDOF 3
ENDMDL
MODEL 14
REMARK VINA RESULT:    -4.275     12.093     13.033
REMARK INTER + INTRA:          -4.825
REMARK INTER:                  -4.786
REMARK INTRA:                  -0.039
REMARK UNBOUND:                -0.050
REMARK  3 active torsions:
REMARK  status: ('A' for Active; 'I' for Inactive)
REMARK    1  A    between atoms: C_1  and  O_7 
REMARK    2  A    between atoms: C_2  and  O_9 
REMARK    3  A    between atoms: C_4  and  N_11 
ROOT
HETATM    1  C   UNL     1      23.856 -18.695  -3.697  1.00  0.00     0.098 A 
HETATM    2  C   UNL     1      22.867 -19.532  -3.254  1.00  0.00     0.101 A 
HETATM    3  C   UNL     1      22.405 -20.544  -4.063  1.00  0.00     0.075 A 
HETATM    4  C   UNL     1      22.948 -20.705  -5.331  1.00  0.00     0.105 A 
HETATM    5  C   UNL     1      23.949 -19.866  -5.784  1.00  0.00     0.039 A 
HETATM    6  C   UNL     1      24.406 -18.843  -4.966  1.00  0.00     0.042 A 
ENDROOT
BRANCH   4   7
HETATM    7  N   UNL     1      22.525 -21.831  -6.125  1.00  0.00    -0.116 N 
HETATM    8  O   UNL     1      23.374 -22.936  -6.148  1.00  0.00    -0.532 OA
HETATM    9  O   UNL     1      21.637 -21.775  -6.917  1.00  0.00    -0.532 OA
ENDBRANCH   4   7
BRANCH   2  10
HETATM   10  O   UNL     1      22.334 -19.338  -1.989  1.00  0.00    -0.358 OA
ATOM     11  HO  UNL     1      21.456 -18.991  -1.881  1.00  0.00     0.217 HD
ENDBRANCH   2  10
BRANCH   1  12
HETATM   12  O   UNL     1      24.374 -17.745  -2.859  1.00  0.00    -0.358 OA
ATOM     13  HO  UNL     1      23.862 -17.466  -2.109  1.00  0.00     0.217 HD
ENDBRANCH   1  12
TORSDOF 3
ENDMDL
MODEL 15
REMARK VINA RESULT:    -4.125     13.723     14.837
REMARK INTER + INTRA:          -4.657
REMARK INTER:                  -4.618
REMARK INTRA:                  -0.039
REMARK UNBOUND:                -0.050
REMARK  3 active torsions:
REMARK  status: ('A' for Active; 'I' for Inactive)
REMARK    1  A    between atoms: C_1  and  O_7 
REMARK    2  A    between atoms: C_2  and  O_9 
REMARK    3  A    between atoms: C_4  and  N_11 
ROOT
HETATM    1  C   UNL     1      31.798 -16.997   1.655  1.00  0.00     0.098 A 
HETATM    2  C   UNL     1      32.305 -15.912   2.319  1.00  0.00     0.101 A 
HETATM    3  C   UNL     1      33.641 -15.861   2.640  1.00  0.00     0.075 A 
HETATM    4  C   UNL     1      34.468 -16.920   2.286  1.00  0.00     0.105 A 
HETATM    5  C   UNL     1      33.964 -18.017   1.612  1.00  0.00     0.039 A 
HETATM    6  C   UNL     1      32.614 -18.065   1.298  1.00  0.00     0.042 A 
ENDROOT
BRANCH   4   7
HETATM    7  N   UNL     1      35.882 -16.805   2.539  1.00  0.00    -0.116 N 
HETATM    8  O   UNL     1      36.704 -16.616   1.429  1.00  0.00    -0.532 OA
HETATM    9  O   UNL     1      36.385 -17.089   3.581  1.00  0.00    -0.532 OA
ENDBRANCH   4   7
BRANCH   2  10
HETATM   10  O   UNL     1      31.453 -14.877   2.672  1.00  0.00    -0.358 OA
ATOM     11  HO  UNL     1      30.581 -14.818   2.299  1.00  0.00     0.217 HD
ENDBRANCH   2  10
BRANCH   1  12
HETATM   12  O   UNL     1      30.487 -17.006   1.260  1.00  0.00    -0.358 OA
ATOM     13  HO  UNL     1      30.025 -17.836   1.223  1.00  0.00     0.217 HD
ENDBRANCH   1  12
TORSDOF 3
ENDMDL
MODEL 16
REMARK VINA RESULT:    -4.109     11.698     12.279
REMARK INTER + INTRA:          -4.639
REMARK INTER:                  -4.597
REMARK INTRA:                  -0.042
REMARK UNBOUND:                -0.050
REMARK  3 active torsions:
REMARK  status: ('A' for Active; 'I' for Inactive)
REMARK    1  A    between atoms: C_1  and  O_7 
REMARK    2  A    between atoms: C_2  and  O_9 
REMARK    3  A    between atoms: C_4  and  N_11 
ROOT
HETATM    1  C   UNL     1      21.935 -22.592  -4.923  1.00  0.00     0.098 A 
HETATM    2  C   UNL     1      23.101 -22.537  -5.640  1.00  0.00     0.101 A 
HETATM    3  C   UNL     1      23.729 -21.331  -5.846  1.00  0.00     0.075 A 
HETATM    4  C   UNL     1      23.168 -20.173  -5.323  1.00  0.00     0.105 A 
HETATM    5  C   UNL     1      21.992 -20.220  -4.596  1.00  0.00     0.039 A 
HETATM    6  C   UNL     1      21.361 -21.440  -4.398  1.00  0.00     0.042 A 
ENDROOT
BRANCH   4   7
HETATM    7  N   UNL     1      23.890 -18.933  -5.461  1.00  0.00    -0.116 N 
HETATM    8  O   UNL     1      23.275 -17.929  -6.207  1.00  0.00    -0.532 OA
HETATM    9  O   UNL     1      25.041 -18.813  -5.179  1.00  0.00    -0.532 OA
ENDBRANCH   4   7
BRANCH   2  10
HETATM   10  O   UNL     1      23.630 -23.708  -6.161  1.00  0.00    -0.358 OA
ATOM     11  HO  UNL     1      24.520 -23.732  -6.493  1.00  0.00     0.217 HD
ENDBRANCH   2  10
BRANCH   1  12
HETATM   12  O   UNL     1      21.359 -23.803  -4.645  1.00  0.00    -0.358 OA
ATOM     13  HO  UNL     1      20.490 -23.985  -4.982  1.00  0.00     0.217 HD
ENDBRANCH   1  12
TORSDOF 3
ENDMDL
MODEL 17
REMARK VINA RESULT:    -4.068     12.346     13.276
REMARK INTER + INTRA:          -4.594
REMARK INTER:                  -4.543
REMARK INTRA:                  -0.051
REMARK UNBOUND:                -0.050
REMARK  3 active torsions:
REMARK  status: ('A' for Active; 'I' for Inactive)
REMARK    1  A    between atoms: C_1  and  O_7 
REMARK    2  A    between atoms: C_2  and  O_9 
REMARK    3  A    between atoms: C_4  and  N_11 
ROOT
HETATM    1  C   UNL     1      24.579 -18.336  -4.263  1.00  0.00     0.098 A 
HETATM    2  C   UNL     1      23.569 -18.664  -3.398  1.00  0.00     0.101 A 
HETATM    3  C   UNL     1      22.675 -19.657  -3.723  1.00  0.00     0.075 A 
HETATM    4  C   UNL     1      22.806 -20.321  -4.936  1.00  0.00     0.105 A 
HETATM    5  C   UNL     1      23.825 -19.999  -5.814  1.00  0.00     0.039 A 
HETATM    6  C   UNL     1      24.718 -18.991  -5.482  1.00  0.00     0.042 A 
ENDROOT
BRANCH   4   7
HETATM    7  N   UNL     1      21.925 -21.427  -5.216  1.00  0.00    -0.116 N 
HETATM    8  O   UNL     1      21.843 -21.843  -6.544  1.00  0.00    -0.532 OA
HETATM    9  O   UNL     1      21.118 -21.833  -4.439  1.00  0.00    -0.532 OA
ENDBRANCH   4   7
BRANCH   2  10
HETATM   10  O   UNL     1      23.455 -17.974  -2.201  1.00  0.00    -0.358 OA
ATOM     11  HO  UNL     1      22.687 -17.445  -2.016  1.00  0.00     0.217 HD
ENDBRANCH   2  10
BRANCH   1  12
HETATM   12  O   UNL     1      25.517 -17.409  -3.900  1.00  0.00    -0.358 OA
ATOM     13  HO  UNL     1      25.339 -16.489  -4.060  1.00  0.00     0.217 HD
ENDBRANCH   1  12
TORSDOF 3
ENDMDL
MODEL 18
REMARK VINA RESULT:    -3.984     12.350     13.070
REMARK INTER + INTRA:          -4.500
REMARK INTER:                  -4.450
REMARK INTRA:                  -0.049
REMARK UNBOUND:                -0.050
REMARK  3 active torsions:
REMARK  status: ('A' for Active; 'I' for Inactive)
REMARK    1  A    between atoms: C_1  and  O_7 
REMARK    2  A    between atoms: C_2  and  O_9 
REMARK    3  A    between atoms: C_4  and  N_11 
ROOT
HETATM    1  C   UNL     1      22.402 -21.308  -5.340  1.00  0.00     0.098 A 
HETATM    2  C   UNL     1      21.988 -21.068  -4.057  1.00  0.00     0.101 A 
HETATM    3  C   UNL     1      22.580 -20.072  -3.315  1.00  0.00     0.075 A 
HETATM    4  C   UNL     1      23.601 -19.318  -3.879  1.00  0.00     0.105 A 
HETATM    5  C   UNL     1      24.023 -19.552  -5.174  1.00  0.00     0.039 A 
HETATM    6  C   UNL     1      23.426 -20.563  -5.915  1.00  0.00     0.042 A 
ENDROOT
BRANCH   4   7
HETATM    7  N   UNL     1      24.140 -18.214  -3.125  1.00  0.00    -0.116 N 
HETATM    8  O   UNL     1      25.464 -17.864  -3.385  1.00  0.00    -0.532 OA
HETATM    9  O   UNL     1      23.606 -17.756  -2.163  1.00  0.00    -0.532 OA
ENDBRANCH   4   7
BRANCH   2  10
HETATM   10  O   UNL     1      20.977 -21.846  -3.516  1.00  0.00    -0.358 OA
ATOM     11  HO  UNL     1      20.154 -21.454  -3.248  1.00  0.00     0.217 HD
ENDBRANCH   2  10
BRANCH   1  12
HETATM   12  O   UNL     1      21.754 -22.239  -6.105  1.00  0.00    -0.358 OA
ATOM     13  HO  UNL     1      21.820 -22.182  -7.051  1.00  0.00     0.217 HD
ENDBRANCH   1  12
TORSDOF 3
ENDMDL
MODEL 19
REMARK VINA RESULT:    -3.840     12.600     13.059
REMARK INTER + INTRA:          -4.339
REMARK INTER:                  -4.300
REMARK INTRA:                  -0.039
REMARK UNBOUND:                -0.050
REMARK  3 active torsions:
REMARK  status: ('A' for Active; 'I' for Inactive)
REMARK    1  A    between atoms: C_1  and  O_7 
REMARK    2  A    between atoms: C_2  and  O_9 
REMARK    3  A    between atoms: C_4  and  N_11 
ROOT
HETATM    1  C   UNL     1      21.398 -23.858  -2.048  1.00  0.00     0.098 A 
HETATM    2  C   UNL     1      21.529 -22.495  -2.046  1.00  0.00     0.101 A 
HETATM    3  C   UNL     1      21.891 -21.834  -3.197  1.00  0.00     0.075 A 
HETATM    4  C   UNL     1      22.124 -22.563  -4.356  1.00  0.00     0.105 A 
HETATM    5  C   UNL     1      21.991 -23.939  -4.367  1.00  0.00     0.039 A 
HETATM    6  C   UNL     1      21.633 -24.600  -3.201  1.00  0.00     0.042 A 
ENDROOT
BRANCH   4   7
HETATM    7  N   UNL     1      22.402 -21.848  -5.577  1.00  0.00    -0.116 N 
HETATM    8  O   UNL     1      21.403 -21.852  -6.548  1.00  0.00    -0.532 OA
HETATM    9  O   UNL     1      23.491 -21.468  -5.878  1.00  0.00    -0.532 OA
ENDBRANCH   4   7
BRANCH   2  10
HETATM   10  O   UNL     1      21.303 -21.796  -0.871  1.00  0.00    -0.358 OA
ATOM     11  HO  UNL     1      21.279 -22.247  -0.035  1.00  0.00     0.217 HD
ENDBRANCH   2  10
BRANCH   1  12
HETATM   12  O   UNL     1      20.954 -24.504  -0.926  1.00  0.00    -0.358 OA
ATOM     13  HO  UNL     1      21.589 -24.924  -0.356  1.00  0.00     0.217 HD
ENDBRANCH   1  12
TORSDOF 3
ENDMDL
