REMARK  10 active torsions:
REMARK  status: ('A' for Active; 'I' for Inactive)
REMARK    1  A    between atoms: C_2  and  C_17 
REMARK    2  A    between atoms: C_2  and  N_24 
REMARK    3  A    between atoms: O_3  and  P_4 
REMARK    4  A    between atoms: P_4  and  O_6 
REMARK    5  A    between atoms: P_4  and  O_7 
REMARK    6  A    between atoms: O_7  and  C_8 
REMARK    7  A    between atoms: C_8  and  C_9 
REMARK    8  A    between atoms: C_10  and  O_11 
REMARK    9  A    between atoms: C_12  and  O_13 
REMARK   10  A    between atoms: C_15  and  N_16 
ROOT
HETATM    1  C   UNL     1       0.903  -2.046   0.375  1.00  0.00     0.180 C 
HETATM    2  C   UNL     1      -0.511  -2.397   0.868  1.00  0.00     0.182 C 
HETATM    3  C   UNL     1      -1.096  -1.042   1.206  1.00  0.00     0.198 C 
HETATM    4  O   UNL     1       1.186  -0.695   0.695  1.00  0.00    -0.353 OA
HETATM    5  C   UNL     1       0.152  -0.249   1.545  1.00  0.00     0.265 C 
ENDROOT
BRANCH   5   6
HETATM    6  N   UNL     1      -0.086   1.215   1.427  1.00  0.00    -0.266 N 
HETATM    7  C   UNL     1      -0.403   1.923   2.566  1.00  0.00     0.332 A 
HETATM    8  N   UNL     1      -0.724   3.244   2.499  1.00  0.00    -0.275 N 
HETATM    9  O   UNL     1      -0.417   1.355   3.694  1.00  0.00    -0.246 OA
HETATM   10  C   UNL     1      -0.765   3.899   1.313  1.00  0.00     0.251 A 
HETATM   11  H   UNL     1      -0.956   3.766   3.390  1.00  0.00     0.173 HD
HETATM   12  C   UNL     1      -0.459   3.226   0.149  1.00  0.00     0.107 A 
HETATM   13  O   UNL     1      -1.074   5.121   1.276  1.00  0.00    -0.268 OA
HETATM   14  C   UNL     1      -0.116   1.872   0.209  1.00  0.00     0.084 A 
BRANCH  14  15
HETATM   15  C   UNL     1       0.212   1.217  -1.066  1.00  0.00     0.121 C 
HETATM   16  S   UNL     1       1.756   1.288  -1.616  1.00  0.00    -0.059 SA
BRANCH  15  17
HETATM   17  N   UNL     1      -0.841   0.830  -1.954  1.00  0.00    -0.388 N 
HETATM   18  H   UNL     1      -0.623   0.448  -2.896  1.00  0.00     0.157 HD
HETATM   19  H   UNL     1      -1.831   0.855  -1.626  1.00  0.00     0.157 HD
ENDBRANCH  15  17
ENDBRANCH  14  15
ENDBRANCH   5   6
BRANCH   3  20
HETATM   20  O   UNL     1      -1.982  -1.086   2.292  1.00  0.00    -0.388 OA
HETATM   21  H   UNL     1      -2.837  -1.419   1.923  1.00  0.00     0.210 HD
ENDBRANCH   3  20
BRANCH   2  22
HETATM   22  O   UNL     1      -0.409  -3.198   2.013  1.00  0.00    -0.390 OA
HETATM   23  H   UNL     1      -1.290  -3.653   2.128  1.00  0.00     0.210 HD
ENDBRANCH   2  22
BRANCH   1  24
HETATM   24  C   UNL     1       1.047  -2.252  -1.138  1.00  0.00     0.215 C 
BRANCH  24  25
HETATM   25  O   UNL     1       0.878  -3.615  -1.452  1.00  0.00    -0.294 OA
BRANCH  25  26
HETATM   26  P   UNL     1       0.776  -3.772  -3.150  1.00  0.00     0.390 P 
HETATM   27  O   UNL     1       2.017  -3.213  -3.814  1.00  0.00    -0.632 OA
BRANCH  26  28
HETATM   28  O   UNL     1       0.639  -5.414  -3.540  1.00  0.00    -0.307 OA
HETATM   29  H   UNL     1       0.376  -5.423  -4.499  1.00  0.00     0.222 HD
ENDBRANCH  26  28
BRANCH  26  30
HETATM   30  O   UNL     1      -0.605  -2.950  -3.724  1.00  0.00    -0.307 OA
HETATM   31  H   UNL     1      -0.269  -2.266  -4.348  1.00  0.00     0.222 HD
ENDBRANCH  26  30
ENDBRANCH  25  26
ENDBRANCH  24  25
ENDBRANCH   1  24
TORSDOF 10
