REMARK  6 active torsions:
REMARK  status: ('A' for Active; 'I' for Inactive)
REMARK    1  A    between atoms: C_1  and  O_7 
REMARK    2  A    between atoms: C_2  and  O_9 
REMARK    3  A    between atoms: C_3  and  O_11 
REMARK    4  A    between atoms: C_4  and  O_13 
REMARK    5  A    between atoms: C_5  and  C_6 
REMARK    6  A    between atoms: C_6  and  O_16 
ROOT
HETATM    1  C   UNL     1     -29.721   0.311  -9.450  1.00  0.00     0.288 C 
HETATM    2  C   UNL     1     -28.702   1.441  -9.540  1.00  0.00     0.204 C 
HETATM    3  C   UNL     1     -28.699   2.297  -8.290  1.00  0.00     0.183 C 
HETATM    4  C   UNL     1     -30.150   2.708  -7.921  1.00  0.00     0.180 C 
HETATM    5  C   UNL     1     -31.043   1.484  -7.889  1.00  0.00     0.179 C 
HETATM    6  O   UNL     1     -31.003   0.819  -9.156  1.00  0.00    -0.349 OA
ENDROOT
BRANCH   5   7
HETATM    7  C   UNL     1     -32.501   1.793  -7.628  1.00  0.00     0.198 C 
BRANCH   7   8
HETATM    8  O   UNL     1     -33.277   0.600  -7.564  1.00  0.00    -0.398 OA
ATOM      9  HO  UNL     1     -34.192   0.794  -7.400  1.00  0.00     0.209 HD
ENDBRANCH   7   8
ENDBRANCH   5   7
BRANCH   4  10
HETATM   10  O   UNL     1     -30.660   3.597  -8.894  1.00  0.00    -0.390 OA
ATOM     11  HO  UNL     1     -30.100   4.364  -8.914  1.00  0.00     0.210 HD
ENDBRANCH   4  10
BRANCH   3  12
HETATM   12  O   UNL     1     -27.934   3.480  -8.506  1.00  0.00    -0.390 OA
ATOM     13  HO  UNL     1     -27.046   3.229  -8.732  1.00  0.00     0.210 HD
ENDBRANCH   3  12
BRANCH   1  14
HETATM   14  O   UNL     1     -29.808  -0.345 -10.668  1.00  0.00    -0.369 OA
ATOM     15  HO  UNL     1     -28.944  -0.687 -10.866  1.00  0.00     0.212 HD
ENDBRANCH   1  14
BRANCH   2  16
HETATM   16  O   UNL     1     -27.392   0.896  -9.681  1.00  0.00    -0.388 OA
ATOM     17  HO  UNL     1     -27.394   0.359 -10.465  1.00  0.00     0.210 HD
ENDBRANCH   2  16
TORSDOF 6
