REMARK  3 active torsions:
REMARK  status: ('A' for Active; 'I' for Inactive)
REMARK    1  A    between atoms: S_2  and  N_5 
REMARK    2  A    between atoms: N_5  and  C_7 
REMARK    3  A    between atoms: C_13  and  C_14 
ROOT
HETATM    1  C   UNL     1     -20.152  35.725   4.548  1.00  0.00     0.059 A 
HETATM    2  C   UNL     1     -20.771  35.955   3.324  1.00  0.00     0.034 A 
HETATM    3  C   UNL     1     -22.153  35.853   3.209  1.00  0.00     0.044 A 
HETATM    4  C   UNL     1     -22.922  35.534   4.323  1.00  0.00     0.117 A 
HETATM    5  F   UNL     1     -24.261  35.436   4.222  1.00  0.00    -0.206 F 
HETATM    6  C   UNL     1     -22.306  35.311   5.547  1.00  0.00     0.063 A 
HETATM    7  C   UNL     1     -20.924  35.411   5.663  1.00  0.00     0.070 A 
ENDROOT
BRANCH   1   8
HETATM    8  N   UNL     1     -18.829  35.828   4.655  1.00  0.00    -0.284 N 
ATOM      9  HN  UNL     1     -18.419  36.628   5.137  1.00  0.00     0.178 HD
BRANCH   8  10
HETATM   10  S   UNL     1     -17.860  34.680   4.018  1.00  0.00     0.227 S 
HETATM   11  O   UNL     1     -16.425  35.074   4.205  1.00  0.00    -0.206 OA
HETATM   12  O   UNL     1     -18.155  34.532   2.556  1.00  0.00    -0.206 OA
HETATM   13  C   UNL     1     -18.157  33.129   4.841  1.00  0.00     0.186 C 
ENDBRANCH   8  10
ENDBRANCH   1   8
BRANCH   7  14
HETATM   14  C   UNL     1     -20.272  35.166   7.021  1.00  0.00     0.211 C 
HETATM   15  O   UNL     1     -20.897  34.458   7.840  1.00  0.00    -0.644 OA
HETATM   16  O   UNL     1     -19.173  35.715   7.253  1.00  0.00    -0.644 OA
ENDBRANCH   7  14
TORSDOF 3
