MODEL 1
REMARK VINA RESULT:    -5.657      0.000      0.000
REMARK INTER + INTRA:          -6.020
REMARK INTER:                  -5.988
REMARK INTRA:                  -0.032
REMARK UNBOUND:                -0.032
REMARK  1 active torsions:
REMARK  status: ('A' for Active; 'I' for Inactive)
REMARK    1  A    between atoms: N_2  and  C_4 
ROOT
HETATM    1  C   UNL     1       0.761  13.707  10.195  1.00  0.00     0.072 A 
HETATM    2  C   UNL     1       1.378  13.863  11.510  1.00  0.00     0.138 A 
HETATM    3  N   UNL     1       0.731  13.832  12.649  1.00  0.00    -0.305 N 
ATOM      4  HN  UNL     1       1.213  14.001  13.533  1.00  0.00     0.186 HD
HETATM    5  N   UNL     1      -0.614  13.565  12.616  1.00  0.00    -0.261 N 
HETATM    6  C   UNL     1      -1.222  13.481  13.930  1.00  0.00     0.181 C 
HETATM    7  C   UNL     1      -1.393  13.354  11.467  1.00  0.00     0.285 A 
HETATM    8  O   UNL     1      -2.618  13.127  11.525  1.00  0.00    -0.265 OA
HETATM    9  C   UNL     1      -0.632  13.470  10.240  1.00  0.00     0.131 A 
HETATM   10 CL   UNL     1      -1.562  13.249   8.810  1.00  0.00    -0.076 Cl
ENDROOT
BRANCH   1  11
HETATM   11  N   UNL     1       1.462  13.788   9.070  1.00  0.00    -0.392 N 
HETATM   12  C   UNL     1       2.575  14.718   8.902  1.00  0.00     0.146 C 
ATOM     13  HN  UNL     1       1.212  13.176   8.293  1.00  0.00     0.159 HD
ENDBRANCH   1  11
TORSDOF 1
ENDMDL
MODEL 2
REMARK VINA RESULT:    -5.149      2.443      4.102
REMARK INTER + INTRA:          -5.482
REMARK INTER:                  -5.428
REMARK INTRA:                  -0.055
REMARK UNBOUND:                -0.032
REMARK  1 active torsions:
REMARK  status: ('A' for Active; 'I' for Inactive)
REMARK    1  A    between atoms: N_2  and  C_4 
ROOT
HETATM    1  C   UNL     1      -1.636  12.877  10.750  1.00  0.00     0.072 A 
HETATM    2  C   UNL     1      -0.956  12.979   9.461  1.00  0.00     0.138 A 
HETATM    3  N   UNL     1       0.261  13.435   9.290  1.00  0.00    -0.305 N 
ATOM      4  HN  UNL     1       0.661  13.531   8.356  1.00  0.00     0.186 HD
HETATM    5  N   UNL     1       0.979  13.780  10.406  1.00  0.00    -0.261 N 
HETATM    6  C   UNL     1       2.335  14.204  10.116  1.00  0.00     0.181 C 
HETATM    7  C   UNL     1       0.528  13.729  11.735  1.00  0.00     0.285 A 
HETATM    8  O   UNL     1       1.246  14.073  12.695  1.00  0.00    -0.265 OA
HETATM    9  C   UNL     1      -0.845  13.283  11.849  1.00  0.00     0.131 A 
HETATM   10 CL   UNL     1      -1.442  13.239  13.461  1.00  0.00    -0.076 Cl
ENDROOT
BRANCH   1  11
HETATM   11  N   UNL     1      -2.886  12.443  10.858  1.00  0.00    -0.392 N 
HETATM   12  C   UNL     1      -3.216  11.033  11.047  1.00  0.00     0.146 C 
ATOM     13  HN  UNL     1      -3.646  13.122  10.807  1.00  0.00     0.159 HD
ENDBRANCH   1  11
TORSDOF 1
ENDMDL
MODEL 3
REMARK VINA RESULT:    -4.743      2.206      2.692
REMARK INTER + INTRA:          -5.053
REMARK INTER:                  -5.021
REMARK INTRA:                  -0.032
REMARK UNBOUND:                -0.032
REMARK  1 active torsions:
REMARK  status: ('A' for Active; 'I' for Inactive)
REMARK    1  A    between atoms: N_2  and  C_4 
ROOT
HETATM    1  C   UNL     1       0.998  13.761  10.716  1.00  0.00     0.072 A 
HETATM    2  C   UNL     1       0.314  13.371   9.486  1.00  0.00     0.138 A 
HETATM    3  N   UNL     1      -0.938  12.992   9.414  1.00  0.00    -0.305 N 
ATOM      4  HN  UNL     1      -1.344  12.680   8.530  1.00  0.00     0.186 HD
HETATM    5  N   UNL     1      -1.687  13.027  10.563  1.00  0.00    -0.261 N 
HETATM    6  C   UNL     1      -3.075  12.659  10.363  1.00  0.00     0.181 C 
HETATM    7  C   UNL     1      -1.235  13.398  11.839  1.00  0.00     0.285 A 
HETATM    8  O   UNL     1      -1.982  13.392  12.837  1.00  0.00    -0.265 OA
HETATM    9  C   UNL     1       0.172  13.739  11.863  1.00  0.00     0.131 A 
HETATM   10 CL   UNL     1       0.768  14.168  13.419  1.00  0.00    -0.076 Cl
ENDROOT
BRANCH   1  11
HETATM   11  N   UNL     1       2.283  14.098  10.736  1.00  0.00    -0.392 N 
HETATM   12  C   UNL     1       3.029  14.424   9.523  1.00  0.00     0.146 C 
ATOM     13  HN  UNL     1       2.767  14.130  11.633  1.00  0.00     0.159 HD
ENDBRANCH   1  11
TORSDOF 1
ENDMDL
MODEL 4
REMARK VINA RESULT:    -4.599      2.158      3.490
REMARK INTER + INTRA:          -4.900
REMARK INTER:                  -4.881
REMARK INTRA:                  -0.018
REMARK UNBOUND:                -0.032
REMARK  1 active torsions:
REMARK  status: ('A' for Active; 'I' for Inactive)
REMARK    1  A    between atoms: N_2  and  C_4 
ROOT
HETATM    1  C   UNL     1       0.374  13.804  12.588  1.00  0.00     0.072 A 
HETATM    2  C   UNL     1       0.983  13.977  11.272  1.00  0.00     0.138 A 
HETATM    3  N   UNL     1       0.394  13.709  10.133  1.00  0.00    -0.305 N 
ATOM      4  HN  UNL     1       0.892  13.801   9.247  1.00  0.00     0.186 HD
HETATM    5  N   UNL     1      -0.916  13.301  10.169  1.00  0.00    -0.261 N 
HETATM    6  C   UNL     1      -1.498  13.101   8.856  1.00  0.00     0.181 C 
HETATM    7  C   UNL     1      -1.694  13.102  11.321  1.00  0.00     0.285 A 
HETATM    8  O   UNL     1      -2.879  12.718  11.264  1.00  0.00    -0.265 OA
HETATM    9  C   UNL     1      -0.963  13.348  12.546  1.00  0.00     0.131 A 
HETATM   10 CL   UNL     1      -1.877  13.082  13.979  1.00  0.00    -0.076 Cl
ENDROOT
BRANCH   1  11
HETATM   11  N   UNL     1       1.036  14.054  13.713  1.00  0.00    -0.392 N 
HETATM   12  C   UNL     1       0.819  15.265  14.500  1.00  0.00     0.146 C 
ATOM     13  HN  UNL     1       1.722  13.373  14.039  1.00  0.00     0.159 HD
ENDBRANCH   1  11
TORSDOF 1
ENDMDL
MODEL 5
REMARK VINA RESULT:    -4.373      2.285      3.485
REMARK INTER + INTRA:          -4.661
REMARK INTER:                  -4.609
REMARK INTRA:                  -0.052
REMARK UNBOUND:                -0.032
REMARK  1 active torsions:
REMARK  status: ('A' for Active; 'I' for Inactive)
REMARK    1  A    between atoms: N_2  and  C_4 
ROOT
HETATM    1  C   UNL     1      -2.057  12.684  11.522  1.00  0.00     0.072 A 
HETATM    2  C   UNL     1      -2.058  12.782  12.980  1.00  0.00     0.138 A 
HETATM    3  N   UNL     1      -1.082  13.282  13.697  1.00  0.00    -0.305 N 
ATOM      4  HN  UNL     1      -1.120  13.273  14.717  1.00  0.00     0.186 HD
HETATM    5  N   UNL     1      -0.007  13.817  13.034  1.00  0.00    -0.261 N 
HETATM    6  C   UNL     1       0.982  14.409  13.913  1.00  0.00     0.181 C 
HETATM    7  C   UNL     1       0.178  13.854  11.642  1.00  0.00     0.285 A 
HETATM    8  O   UNL     1       1.195  14.352  11.119  1.00  0.00    -0.265 OA
HETATM    9  C   UNL     1      -0.902  13.224  10.912  1.00  0.00     0.131 A 
HETATM   10 CL   UNL     1      -0.693  13.222   9.205  1.00  0.00    -0.076 Cl
ENDROOT
BRANCH   1  11
HETATM   11  N   UNL     1      -3.059  12.129  10.849  1.00  0.00    -0.392 N 
HETATM   12  C   UNL     1      -3.049  10.728  10.437  1.00  0.00     0.146 C 
ATOM     13  HN  UNL     1      -3.867  12.705  10.611  1.00  0.00     0.159 HD
ENDBRANCH   1  11
TORSDOF 1
ENDMDL
MODEL 6
REMARK VINA RESULT:    -4.318      3.899      4.954
REMARK INTER + INTRA:          -4.603
REMARK INTER:                  -4.571
REMARK INTRA:                  -0.032
REMARK UNBOUND:                -0.032
REMARK  1 active torsions:
REMARK  status: ('A' for Active; 'I' for Inactive)
REMARK    1  A    between atoms: N_2  and  C_4 
ROOT
HETATM    1  C   UNL     1       3.994  14.138   7.313  1.00  0.00     0.072 A 
HETATM    2  C   UNL     1       3.320  15.084   8.198  1.00  0.00     0.138 A 
HETATM    3  N   UNL     1       2.683  14.759   9.296  1.00  0.00    -0.305 N 
ATOM      4  HN  UNL     1       2.186  15.462   9.844  1.00  0.00     0.186 HD
HETATM    5  N   UNL     1       2.705  13.444   9.685  1.00  0.00    -0.261 N 
HETATM    6  C   UNL     1       2.035  13.200  10.947  1.00  0.00     0.181 C 
HETATM    7  C   UNL     1       3.319  12.383   8.998  1.00  0.00     0.285 A 
HETATM    8  O   UNL     1       3.282  11.210   9.418  1.00  0.00    -0.265 OA
HETATM    9  C   UNL     1       3.944  12.798   7.761  1.00  0.00     0.131 A 
HETATM   10 CL   UNL     1       4.679  11.518   6.877  1.00  0.00    -0.076 Cl
ENDROOT
BRANCH   1  11
HETATM   11  N   UNL     1       4.591  14.521   6.189  1.00  0.00    -0.392 N 
HETATM   12  C   UNL     1       4.755  15.926   5.826  1.00  0.00     0.146 C 
ATOM     13  HN  UNL     1       4.948  13.806   5.556  1.00  0.00     0.159 HD
ENDBRANCH   1  11
TORSDOF 1
ENDMDL
MODEL 7
REMARK VINA RESULT:    -4.315      2.463      3.579
REMARK INTER + INTRA:          -4.599
REMARK INTER:                  -4.567
REMARK INTRA:                  -0.033
REMARK UNBOUND:                -0.032
REMARK  1 active torsions:
REMARK  status: ('A' for Active; 'I' for Inactive)
REMARK    1  A    between atoms: N_2  and  C_4 
ROOT
HETATM    1  C   UNL     1      -0.017  13.897  13.033  1.00  0.00     0.072 A 
HETATM    2  C   UNL     1      -1.285  13.359  13.521  1.00  0.00     0.138 A 
HETATM    3  N   UNL     1      -2.191  12.780  12.772  1.00  0.00    -0.305 N 
ATOM      4  HN  UNL     1      -3.081  12.472  13.165  1.00  0.00     0.186 HD
HETATM    5  N   UNL     1      -1.904  12.600  11.442  1.00  0.00    -0.261 N 
HETATM    6  C   UNL     1      -2.937  11.886  10.718  1.00  0.00     0.181 C 
HETATM    7  C   UNL     1      -0.737  13.012  10.780  1.00  0.00     0.285 A 
HETATM    8  O   UNL     1      -0.561  12.817   9.561  1.00  0.00    -0.265 OA
HETATM    9  C   UNL     1       0.191  13.706  11.648  1.00  0.00     0.131 A 
HETATM   10 CL   UNL     1       1.619  14.253  10.861  1.00  0.00    -0.076 Cl
ENDROOT
BRANCH   1  11
HETATM   11  N   UNL     1       0.846  14.511  13.834  1.00  0.00    -0.392 N 
HETATM   12  C   UNL     1       0.429  15.474  14.849  1.00  0.00     0.146 C 
ATOM     13  HN  UNL     1       1.840  14.302  13.735  1.00  0.00     0.159 HD
ENDBRANCH   1  11
TORSDOF 1
ENDMDL
MODEL 8
REMARK VINA RESULT:    -4.234      4.548      6.083
REMARK INTER + INTRA:          -4.514
REMARK INTER:                  -4.460
REMARK INTRA:                  -0.054
REMARK UNBOUND:                -0.032
REMARK  1 active torsions:
REMARK  status: ('A' for Active; 'I' for Inactive)
REMARK    1  A    between atoms: N_2  and  C_4 
ROOT
HETATM    1  C   UNL     1       2.928  12.858   9.428  1.00  0.00     0.072 A 
HETATM    2  C   UNL     1       3.059  11.432   9.140  1.00  0.00     0.138 A 
HETATM    3  N   UNL     1       4.197  10.799   8.989  1.00  0.00    -0.305 N 
ATOM      4  HN  UNL     1       4.220   9.811   8.736  1.00  0.00     0.186 HD
HETATM    5  N   UNL     1       5.355  11.508   9.182  1.00  0.00    -0.261 N 
HETATM    6  C   UNL     1       6.555  10.703   9.064  1.00  0.00     0.181 C 
HETATM    7  C   UNL     1       5.453  12.874   9.494  1.00  0.00     0.285 A 
HETATM    8  O   UNL     1       6.551  13.445   9.643  1.00  0.00    -0.265 OA
HETATM    9  C   UNL     1       4.164  13.528   9.578  1.00  0.00     0.131 A 
HETATM   10 CL   UNL     1       4.247  15.210   9.928  1.00  0.00    -0.076 Cl
ENDROOT
BRANCH   1  11
HETATM   11  N   UNL     1       1.746  13.454   9.531  1.00  0.00    -0.392 N 
HETATM   12  C   UNL     1       1.050  13.607  10.806  1.00  0.00     0.146 C 
ATOM     13  HN  UNL     1       1.307  13.820   8.686  1.00  0.00     0.159 HD
ENDBRANCH   1  11
TORSDOF 1
ENDMDL
MODEL 9
REMARK VINA RESULT:    -4.154      1.831      2.341
REMARK INTER + INTRA:          -4.429
REMARK INTER:                  -4.401
REMARK INTRA:                  -0.028
REMARK UNBOUND:                -0.032
REMARK  1 active torsions:
REMARK  status: ('A' for Active; 'I' for Inactive)
REMARK    1  A    between atoms: N_2  and  C_4 
ROOT
HETATM    1  C   UNL     1      -0.646  13.008  10.062  1.00  0.00     0.072 A 
HETATM    2  C   UNL     1       0.675  13.560  10.351  1.00  0.00     0.138 A 
HETATM    3  N   UNL     1       1.048  14.043  11.511  1.00  0.00    -0.305 N 
ATOM      4  HN  UNL     1       1.969  14.464  11.634  1.00  0.00     0.186 HD
HETATM    5  N   UNL     1       0.160  13.964  12.554  1.00  0.00    -0.261 N 
HETATM    6  C   UNL     1       0.693  14.458  13.808  1.00  0.00     0.181 C 
HETATM    7  C   UNL     1      -1.144  13.445  12.499  1.00  0.00     0.285 A 
HETATM    8  O   UNL     1      -1.892  13.421  13.496  1.00  0.00    -0.265 OA
HETATM    9  C   UNL     1      -1.517  12.993  11.175  1.00  0.00     0.131 A 
HETATM   10 CL   UNL     1      -3.120  12.379  11.065  1.00  0.00    -0.076 Cl
ENDROOT
BRANCH   1  11
HETATM   11  N   UNL     1      -0.981  12.569   8.854  1.00  0.00    -0.392 N 
HETATM   12  C   UNL     1      -1.011  11.149   8.513  1.00  0.00     0.146 C 
ATOM     13  HN  UNL     1      -1.227  13.251   8.136  1.00  0.00     0.159 HD
ENDBRANCH   1  11
TORSDOF 1
ENDMDL
MODEL 10
REMARK VINA RESULT:    -4.012      3.894      5.833
REMARK INTER + INTRA:          -4.279
REMARK INTER:                  -4.247
REMARK INTRA:                  -0.032
REMARK UNBOUND:                -0.032
REMARK  1 active torsions:
REMARK  status: ('A' for Active; 'I' for Inactive)
REMARK    1  A    between atoms: N_2  and  C_4 
ROOT
HETATM    1  C   UNL     1       2.572  13.480  10.194  1.00  0.00     0.072 A 
HETATM    2  C   UNL     1       2.198  14.380   9.106  1.00  0.00     0.138 A 
HETATM    3  N   UNL     1       2.941  14.635   8.057  1.00  0.00    -0.305 N 
ATOM      4  HN  UNL     1       2.645  15.316   7.356  1.00  0.00     0.186 HD
HETATM    5  N   UNL     1       4.128  13.960   7.932  1.00  0.00    -0.261 N 
HETATM    6  C   UNL     1       4.839  14.258   6.704  1.00  0.00     0.181 C 
HETATM    7  C   UNL     1       4.658  13.033   8.844  1.00  0.00     0.285 A 
HETATM    8  O   UNL     1       5.755  12.469   8.657  1.00  0.00    -0.265 OA
HETATM    9  C   UNL     1       3.823  12.848  10.012  1.00  0.00     0.131 A 
HETATM   10 CL   UNL     1       4.458  11.742  11.166  1.00  0.00    -0.076 Cl
ENDROOT
BRANCH   1  11
HETATM   11  N   UNL     1       1.794  13.290  11.254  1.00  0.00    -0.392 N 
HETATM   12  C   UNL     1       0.373  13.626  11.258  1.00  0.00     0.146 C 
ATOM     13  HN  UNL     1       2.207  12.894  12.099  1.00  0.00     0.159 HD
ENDBRANCH   1  11
TORSDOF 1
ENDMDL
MODEL 11
REMARK VINA RESULT:    -4.008      4.094      5.452
REMARK INTER + INTRA:          -4.275
REMARK INTER:                  -4.247
REMARK INTRA:                  -0.028
REMARK UNBOUND:                -0.032
REMARK  1 active torsions:
REMARK  status: ('A' for Active; 'I' for Inactive)
REMARK    1  A    between atoms: N_2  and  C_4 
ROOT
HETATM    1  C   UNL     1       4.548  12.780   6.960  1.00  0.00     0.072 A 
HETATM    2  C   UNL     1       4.220  11.674   7.857  1.00  0.00     0.138 A 
HETATM    3  N   UNL     1       3.539  11.789   8.970  1.00  0.00    -0.305 N 
ATOM      4  HN  UNL     1       3.389  10.985   9.581  1.00  0.00     0.186 HD
HETATM    5  N   UNL     1       3.034  13.024   9.289  1.00  0.00    -0.261 N 
HETATM    6  C   UNL     1       2.235  13.030  10.499  1.00  0.00     0.181 C 
HETATM    7  C   UNL     1       3.204  14.208   8.552  1.00  0.00     0.285 A 
HETATM    8  O   UNL     1       2.718  15.295   8.920  1.00  0.00    -0.265 OA
HETATM    9  C   UNL     1       4.023  14.026   7.372  1.00  0.00     0.131 A 
HETATM   10 CL   UNL     1       4.279  15.463   6.463  1.00  0.00    -0.076 Cl
ENDROOT
BRANCH   1  11
HETATM   11  N   UNL     1       5.278  12.610   5.864  1.00  0.00    -0.392 N 
HETATM   12  C   UNL     1       6.692  12.969   5.798  1.00  0.00     0.146 C 
ATOM     13  HN  UNL     1       4.833  12.213   5.036  1.00  0.00     0.159 HD
ENDBRANCH   1  11
TORSDOF 1
ENDMDL
MODEL 12
REMARK VINA RESULT:    -3.953      5.499      6.809
REMARK INTER + INTRA:          -4.216
REMARK INTER:                  -4.176
REMARK INTRA:                  -0.041
REMARK UNBOUND:                -0.032
REMARK  1 active torsions:
REMARK  status: ('A' for Active; 'I' for Inactive)
REMARK    1  A    between atoms: N_2  and  C_4 
ROOT
HETATM    1  C   UNL     1       3.930  11.735   9.392  1.00  0.00     0.072 A 
HETATM    2  C   UNL     1       4.633  11.725  10.672  1.00  0.00     0.138 A 
HETATM    3  N   UNL     1       5.917  11.508  10.820  1.00  0.00    -0.305 N 
ATOM      4  HN  UNL     1       6.340  11.462  11.747  1.00  0.00     0.186 HD
HETATM    5  N   UNL     1       6.675  11.346   9.687  1.00  0.00    -0.261 N 
HETATM    6  C   UNL     1       8.091  11.186   9.954  1.00  0.00     0.181 C 
HETATM    7  C   UNL     1       6.205  11.352   8.364  1.00  0.00     0.285 A 
HETATM    8  O   UNL     1       6.964  11.185   7.388  1.00  0.00    -0.265 OA
HETATM    9  C   UNL     1       4.771  11.526   8.274  1.00  0.00     0.131 A 
HETATM   10 CL   UNL     1       4.156  11.505   6.668  1.00  0.00    -0.076 Cl
ENDROOT
BRANCH   1  11
HETATM   11  N   UNL     1       2.618  11.920   9.306  1.00  0.00    -0.392 N 
HETATM   12  C   UNL     1       1.971  13.166   9.709  1.00  0.00     0.146 C 
ATOM     13  HN  UNL     1       2.039  11.161   8.945  1.00  0.00     0.159 HD
ENDBRANCH   1  11
TORSDOF 1
ENDMDL
MODEL 13
REMARK VINA RESULT:    -3.918      1.665      3.677
REMARK INTER + INTRA:          -4.179
REMARK INTER:                  -4.147
REMARK INTRA:                  -0.032
REMARK UNBOUND:                -0.032
REMARK  1 active torsions:
REMARK  status: ('A' for Active; 'I' for Inactive)
REMARK    1  A    between atoms: N_2  and  C_4 
ROOT
HETATM    1  C   UNL     1      -0.351  13.768  12.595  1.00  0.00     0.072 A 
HETATM    2  C   UNL     1       1.069  14.095  12.487  1.00  0.00     0.138 A 
HETATM    3  N   UNL     1       1.764  14.056  11.377  1.00  0.00    -0.305 N 
ATOM      4  HN  UNL     1       2.767  14.245  11.378  1.00  0.00     0.186 HD
HETATM    5  N   UNL     1       1.101  13.754  10.215  1.00  0.00    -0.261 N 
HETATM    6  C   UNL     1       1.943  13.808   9.035  1.00  0.00     0.181 C 
HETATM    7  C   UNL     1      -0.262  13.440  10.092  1.00  0.00     0.285 A 
HETATM    8  O   UNL     1      -0.785  13.165   8.994  1.00  0.00    -0.265 OA
HETATM    9  C   UNL     1      -0.957  13.432  11.362  1.00  0.00     0.131 A 
HETATM   10 CL   UNL     1      -2.623  13.020  11.253  1.00  0.00    -0.076 Cl
ENDROOT
BRANCH   1  11
HETATM   11  N   UNL     1      -0.996  13.785  13.756  1.00  0.00    -0.392 N 
HETATM   12  C   UNL     1      -0.735  14.788  14.785  1.00  0.00     0.146 C 
ATOM     13  HN  UNL     1      -1.701  13.070  13.935  1.00  0.00     0.159 HD
ENDBRANCH   1  11
TORSDOF 1
ENDMDL
MODEL 14
REMARK VINA RESULT:    -3.877      5.238      7.169
REMARK INTER + INTRA:          -4.136
REMARK INTER:                  -4.083
REMARK INTRA:                  -0.053
REMARK UNBOUND:                -0.032
REMARK  1 active torsions:
REMARK  status: ('A' for Active; 'I' for Inactive)
REMARK    1  A    between atoms: N_2  and  C_4 
ROOT
HETATM    1  C   UNL     1       3.946  12.658   7.664  1.00  0.00     0.072 A 
HETATM    2  C   UNL     1       4.895  12.074   6.719  1.00  0.00     0.138 A 
HETATM    3  N   UNL     1       5.576  12.751   5.828  1.00  0.00    -0.305 N 
ATOM      4  HN  UNL     1       6.185  12.277   5.160  1.00  0.00     0.186 HD
HETATM    5  N   UNL     1       5.445  14.116   5.821  1.00  0.00    -0.261 N 
HETATM    6  C   UNL     1       6.294  14.776   4.848  1.00  0.00     0.181 C 
HETATM    7  C   UNL     1       4.615  14.877   6.660  1.00  0.00     0.285 A 
HETATM    8  O   UNL     1       4.547  16.119   6.580  1.00  0.00    -0.265 OA
HETATM    9  C   UNL     1       3.838  14.065   7.573  1.00  0.00     0.131 A 
HETATM   10 CL   UNL     1       2.786  14.962   8.595  1.00  0.00    -0.076 Cl
ENDROOT
BRANCH   1  11
HETATM   11  N   UNL     1       3.252  11.916   8.520  1.00  0.00    -0.392 N 
HETATM   12  C   UNL     1       3.698  11.670   9.889  1.00  0.00     0.146 C 
ATOM     13  HN  UNL     1       2.372  11.503   8.209  1.00  0.00     0.159 HD
ENDBRANCH   1  11
TORSDOF 1
ENDMDL
MODEL 15
REMARK VINA RESULT:    -3.840      4.212      5.293
REMARK INTER + INTRA:          -4.097
REMARK INTER:                  -4.043
REMARK INTRA:                  -0.054
REMARK UNBOUND:                -0.032
REMARK  1 active torsions:
REMARK  status: ('A' for Active; 'I' for Inactive)
REMARK    1  A    between atoms: N_2  and  C_4 
ROOT
HETATM    1  C   UNL     1       4.858  12.234   8.888  1.00  0.00     0.072 A 
HETATM    2  C   UNL     1       3.632  11.439   8.852  1.00  0.00     0.138 A 
HETATM    3  N   UNL     1       2.455  11.859   9.247  1.00  0.00    -0.305 N 
ATOM      4  HN  UNL     1       1.647  11.236   9.246  1.00  0.00     0.186 HD
HETATM    5  N   UNL     1       2.345  13.162   9.662  1.00  0.00    -0.261 N 
HETATM    6  C   UNL     1       0.990  13.548  10.008  1.00  0.00     0.181 C 
HETATM    7  C   UNL     1       3.386  14.100   9.745  1.00  0.00     0.285 A 
HETATM    8  O   UNL     1       3.200  15.266  10.145  1.00  0.00    -0.265 OA
HETATM    9  C   UNL     1       4.671  13.554   9.361  1.00  0.00     0.131 A 
HETATM   10 CL   UNL     1       5.976  14.668   9.480  1.00  0.00    -0.076 Cl
ENDROOT
BRANCH   1  11
HETATM   11  N   UNL     1       6.032  11.743   8.512  1.00  0.00    -0.392 N 
HETATM   12  C   UNL     1       6.890  10.979   9.415  1.00  0.00     0.146 C 
ATOM     13  HN  UNL     1       6.348  11.905   7.556  1.00  0.00     0.159 HD
ENDBRANCH   1  11
TORSDOF 1
ENDMDL
MODEL 16
REMARK VINA RESULT:    -3.838      5.507      6.546
REMARK INTER + INTRA:          -4.095
REMARK INTER:                  -4.050
REMARK INTRA:                  -0.045
REMARK UNBOUND:                -0.032
REMARK  1 active torsions:
REMARK  status: ('A' for Active; 'I' for Inactive)
REMARK    1  A    between atoms: N_2  and  C_4 
ROOT
HETATM    1  C   UNL     1       4.756  11.819   7.949  1.00  0.00     0.072 A 
HETATM    2  C   UNL     1       5.405  12.257   6.715  1.00  0.00     0.138 A 
HETATM    3  N   UNL     1       5.213  13.419   6.140  1.00  0.00    -0.305 N 
ATOM      4  HN  UNL     1       5.657  13.645   5.249  1.00  0.00     0.186 HD
HETATM    5  N   UNL     1       4.398  14.322   6.774  1.00  0.00    -0.261 N 
HETATM    6  C   UNL     1       4.309  15.601   6.096  1.00  0.00     0.181 C 
HETATM    7  C   UNL     1       3.705  14.115   7.978  1.00  0.00     0.285 A 
HETATM    8  O   UNL     1       2.972  14.989   8.482  1.00  0.00    -0.265 OA
HETATM    9  C   UNL     1       3.904  12.789   8.524  1.00  0.00     0.131 A 
HETATM   10 CL   UNL     1       3.044  12.490   9.983  1.00  0.00    -0.076 Cl
ENDROOT
BRANCH   1  11
HETATM   11  N   UNL     1       4.958  10.612   8.464  1.00  0.00    -0.392 N 
HETATM   12  C   UNL     1       6.222  10.224   9.086  1.00  0.00     0.146 C 
ATOM     13  HN  UNL     1       4.201   9.929   8.424  1.00  0.00     0.159 HD
ENDBRANCH   1  11
TORSDOF 1
ENDMDL
MODEL 17
REMARK VINA RESULT:    -3.800      5.024      6.202
REMARK INTER + INTRA:          -4.055
REMARK INTER:                  -4.015
REMARK INTRA:                  -0.039
REMARK UNBOUND:                -0.032
REMARK  1 active torsions:
REMARK  status: ('A' for Active; 'I' for Inactive)
REMARK    1  A    between atoms: N_2  and  C_4 
ROOT
HETATM    1  C   UNL     1       5.550  12.202   7.840  1.00  0.00     0.072 A 
HETATM    2  C   UNL     1       4.256  12.852   7.639  1.00  0.00     0.138 A 
HETATM    3  N   UNL     1       3.329  12.976   8.557  1.00  0.00    -0.305 N 
ATOM      4  HN  UNL     1       2.424  13.393   8.338  1.00  0.00     0.186 HD
HETATM    5  N   UNL     1       3.615  12.526   9.821  1.00  0.00    -0.261 N 
HETATM    6  C   UNL     1       2.554  12.774  10.778  1.00  0.00     0.181 C 
HETATM    7  C   UNL     1       4.803  11.902  10.234  1.00  0.00     0.285 A 
HETATM    8  O   UNL     1       4.977  11.512  11.406  1.00  0.00    -0.265 OA
HETATM    9  C   UNL     1       5.756  11.734   9.157  1.00  0.00     0.131 A 
HETATM   10 CL   UNL     1       7.212  10.943   9.621  1.00  0.00    -0.076 Cl
ENDROOT
BRANCH   1  11
HETATM   11  N   UNL     1       6.436  12.070   6.860  1.00  0.00    -0.392 N 
HETATM   12  C   UNL     1       7.044  13.216   6.189  1.00  0.00     0.146 C 
ATOM     13  HN  UNL     1       6.701  11.130   6.564  1.00  0.00     0.159 HD
ENDBRANCH   1  11
TORSDOF 1
ENDMDL
MODEL 18
REMARK VINA RESULT:    -3.737     11.690     12.679
REMARK INTER + INTRA:          -3.988
REMARK INTER:                  -3.948
REMARK INTRA:                  -0.040
REMARK UNBOUND:                -0.032
REMARK  1 active torsions:
REMARK  status: ('A' for Active; 'I' for Inactive)
REMARK    1  A    between atoms: N_2  and  C_4 
ROOT
HETATM    1  C   UNL     1      -5.442  21.196   4.249  1.00  0.00     0.072 A 
HETATM    2  C   UNL     1      -4.031  20.833   4.145  1.00  0.00     0.138 A 
HETATM    3  N   UNL     1      -3.391  20.626   3.020  1.00  0.00    -0.305 N 
ATOM      4  HN  UNL     1      -2.417  20.322   3.016  1.00  0.00     0.186 HD
HETATM    5  N   UNL     1      -4.074  20.831   1.848  1.00  0.00    -0.261 N 
HETATM    6  C   UNL     1      -3.260  20.647   0.662  1.00  0.00     0.181 C 
HETATM    7  C   UNL     1      -5.420  21.210   1.724  1.00  0.00     0.285 A 
HETATM    8  O   UNL     1      -5.968  21.365   0.614  1.00  0.00    -0.265 OA
HETATM    9  C   UNL     1      -6.086  21.355   3.001  1.00  0.00     0.131 A 
HETATM   10 CL   UNL     1      -7.747  21.788   2.886  1.00  0.00    -0.076 Cl
ENDROOT
BRANCH   1  11
HETATM   11  N   UNL     1      -6.048  21.354   5.420  1.00  0.00    -0.392 N 
HETATM   12  C   UNL     1      -6.266  22.667   6.023  1.00  0.00     0.146 C 
ATOM     13  HN  UNL     1      -6.374  20.526   5.919  1.00  0.00     0.159 HD
ENDBRANCH   1  11
TORSDOF 1
ENDMDL
MODEL 19
REMARK VINA RESULT:    -3.716      5.693      6.802
REMARK INTER + INTRA:          -3.966
REMARK INTER:                  -3.912
REMARK INTRA:                  -0.054
REMARK UNBOUND:                -0.032
REMARK  1 active torsions:
REMARK  status: ('A' for Active; 'I' for Inactive)
REMARK    1  A    between atoms: N_2  and  C_4 
ROOT
HETATM    1  C   UNL     1       4.263  13.906   7.022  1.00  0.00     0.072 A 
HETATM    2  C   UNL     1       5.427  14.375   6.273  1.00  0.00     0.138 A 
HETATM    3  N   UNL     1       5.916  15.590   6.332  1.00  0.00    -0.305 N 
ATOM      4  HN  UNL     1       6.700  15.870   5.743  1.00  0.00     0.186 HD
HETATM    5  N   UNL     1       5.340  16.471   7.212  1.00  0.00    -0.261 N 
HETATM    6  C   UNL     1       5.998  17.762   7.255  1.00  0.00     0.181 C 
HETATM    7  C   UNL     1       4.238  16.216   8.044  1.00  0.00     0.285 A 
HETATM    8  O   UNL     1       3.768  17.081   8.809  1.00  0.00    -0.265 OA
HETATM    9  C   UNL     1       3.703  14.881   7.880  1.00  0.00     0.131 A 
HETATM   10 CL   UNL     1       2.331  14.544   8.862  1.00  0.00    -0.076 Cl
ENDROOT
BRANCH   1  11
HETATM   11  N   UNL     1       3.787  12.674   6.892  1.00  0.00    -0.392 N 
HETATM   12  C   UNL     1       4.301  11.546   7.664  1.00  0.00     0.146 C 
ATOM     13  HN  UNL     1       3.032  12.509   6.225  1.00  0.00     0.159 HD
ENDBRANCH   1  11
TORSDOF 1
ENDMDL
