REMARK  4 active torsions:
REMARK  status: ('A' for Active; 'I' for Inactive)
REMARK    1  A    between atoms: C_1  and  C_4 
REMARK    2  A    between atoms: C_4  and  O_5 
REMARK    3  A    between atoms: C_4  and  C_7 
REMARK    4  A    between atoms: C_7  and  C_8 
ROOT
HETATM    1  C   UNL     1      32.192  51.669  -1.533  1.00  0.00     0.228 C 
ENDROOT
BRANCH   1   2
HETATM    2  C   UNL     1      33.379  50.822  -1.995  1.00  0.00     0.203 C 
HETATM    3  O   UNL     1      33.156  49.644  -2.400  1.00  0.00    -0.646 OA
HETATM    4  O   UNL     1      34.478  51.382  -1.950  1.00  0.00    -0.646 OA
ENDBRANCH   1   2
BRANCH   1   5
HETATM    5  O   UNL     1      32.634  52.714  -0.694  1.00  0.00    -0.384 OA
ATOM      6  HO  UNL     1      31.897  53.240  -0.407  1.00  0.00     0.210 HD
ENDBRANCH   1   5
BRANCH   1   7
HETATM    7  C   UNL     1      31.441  52.259  -2.733  1.00  0.00     0.156 C 
BRANCH   7   8
HETATM    8  C   UNL     1      30.253  53.094  -2.283  1.00  0.00     0.175 C 
HETATM    9  O   UNL     1      29.801  52.918  -1.133  1.00  0.00    -0.648 OA
HETATM   10  O   UNL     1      29.801  53.938  -3.074  1.00  0.00    -0.648 OA
ENDBRANCH   7   8
ENDBRANCH   1   7
TORSDOF 4
