REMARK  12 active torsions:
REMARK  status: ('A' for Active; 'I' for Inactive)
REMARK    1  A    between atoms: C_1  and  C_4 
REMARK    2  A    between atoms: C_5  and  C_9 
REMARK    3  A    between atoms: C_7  and  C_14 
REMARK    4  A    between atoms: C_9  and  C_10 
REMARK    5  A    between atoms: C_10  and  C_11 
REMARK    6  A    between atoms: C_14  and  C_17 
REMARK    7  A    between atoms: C_19  and  C_23 
REMARK    8  A    between atoms: C_29  and  C_33 
REMARK    9  A    between atoms: C_35  and  C_38 
REMARK   10  A    between atoms: C_40  and  C_43 
REMARK   11  A    between atoms: C_43  and  C_44 
REMARK   12  A    between atoms: C_44  and  C_45 
ROOT
HETATM    1  C   UNL     1      -6.027 -25.424 -22.452  1.00  0.00     0.060 C 
HETATM    2  N   UNL     1      -7.745 -23.662 -22.002  1.00  0.00    -0.355 N 
ATOM      3  HN  UNL     1      -7.730 -23.639 -20.982  1.00  0.00     0.166 HD
HETATM    4  C   UNL     1      -8.577 -22.832 -22.845  1.00  0.00     0.041 A 
HETATM    5  C   UNL     1      -8.329 -23.184 -24.234  1.00  0.00    -0.027 A 
HETATM    6  C   UNL     1      -7.336 -24.235 -24.258  1.00  0.00    -0.023 A 
HETATM    7  C   UNL     1      -6.919 -24.549 -22.848  1.00  0.00     0.041 A 
HETATM    8  C   UNL     1      -9.019 -22.567 -25.427  1.00  0.00     0.051 C 
ENDROOT
BRANCH   1   9
HETATM    9  C   UNL     1      -5.547 -25.455 -21.029  1.00  0.00     0.041 A 
HETATM   10  N   UNL     1      -5.980 -24.621 -20.066  1.00  0.00    -0.355 N 
HETATM   11  C   UNL     1      -5.331 -24.946 -18.935  1.00  0.00     0.041 A 
ATOM     12  HN  UNL     1      -6.672 -23.880 -20.174  1.00  0.00     0.166 HD
HETATM   13  C   UNL     1      -4.495 -26.011 -19.187  1.00  0.00    -0.027 A 
HETATM   14  C   UNL     1      -4.617 -26.324 -20.495  1.00  0.00    -0.023 A 
HETATM   15  C   UNL     1      -3.581 -26.682 -18.161  1.00  0.00     0.051 C 
BRANCH  11  16
HETATM   16  C   UNL     1      -5.546 -24.323 -17.588  1.00  0.00     0.060 C 
BRANCH  16  17
HETATM   17  C   UNL     1      -6.101 -23.167 -17.398  1.00  0.00     0.044 A 
HETATM   18  N   UNL     1      -6.508 -22.158 -18.426  1.00  0.00    -0.322 N 
HETATM   19  C   UNL     1      -7.046 -20.953 -17.711  1.00  0.00     0.256 A 
ATOM     20  HN  UNL     1      -6.433 -22.270 -19.437  1.00  0.00     0.169 HD
HETATM   21  O   UNL     1      -7.433 -19.980 -18.263  1.00  0.00    -0.267 OA
HETATM   22  C   UNL     1      -6.978 -21.296 -16.262  1.00  0.00     0.039 A 
HETATM   23  C   UNL     1      -6.425 -22.571 -16.098  1.00  0.00    -0.019 A 
HETATM   24  C   UNL     1      -6.198 -23.279 -14.781  1.00  0.00     0.052 C 
BRANCH  22  25
HETATM   25  C   UNL     1      -7.414 -20.384 -15.133  1.00  0.00     0.007 C 
HETATM   26  C   UNL     1      -7.452 -19.086 -15.291  1.00  0.00     0.012 C 
ENDBRANCH  22  25
ENDBRANCH  16  17
ENDBRANCH  11  16
BRANCH  14  27
HETATM   27  C   UNL     1      -3.878 -27.431 -21.250  1.00  0.00     0.052 C 
BRANCH  27  28
HETATM   28  C   UNL     1      -2.477 -26.974 -21.632  1.00  0.00     0.118 C 
BRANCH  28  29
HETATM   29  C   UNL     1      -1.728 -28.062 -22.407  1.00  0.00     0.172 C 
HETATM   30  O   UNL     1      -0.606 -27.801 -22.912  1.00  0.00    -0.648 OA
HETATM   31  O   UNL     1      -2.211 -29.213 -22.552  1.00  0.00    -0.648 OA
ENDBRANCH  28  29
ENDBRANCH  27  28
ENDBRANCH  14  27
ENDBRANCH   1   9
BRANCH   6  32
HETATM   32  C   UNL     1      -6.758 -24.914 -25.476  1.00  0.00     0.052 C 
BRANCH  32  33
HETATM   33  C   UNL     1      -5.718 -24.014 -26.148  1.00  0.00     0.118 C 
BRANCH  33  34
HETATM   34  C   UNL     1      -4.453 -23.853 -25.307  1.00  0.00     0.172 C 
HETATM   35  O   UNL     1      -3.993 -22.700 -25.084  1.00  0.00    -0.648 OA
HETATM   36  O   UNL     1      -3.863 -24.862 -24.846  1.00  0.00    -0.648 OA
ENDBRANCH  33  34
ENDBRANCH  32  33
ENDBRANCH   6  32
BRANCH   4  37
HETATM   37  C   UNL     1      -9.514 -21.779 -22.356  1.00  0.00     0.060 C 
HETATM   38  C   UNL     1      -9.749 -21.648 -21.092  1.00  0.00     0.048 A 
HETATM   39  N   UNL     1      -9.387 -22.647 -20.026  1.00  0.00    -0.322 N 
HETATM   40  C   UNL     1     -10.376 -20.513 -20.385  1.00  0.00     0.001 A 
HETATM   41  C   UNL     1      -9.841 -22.104 -18.705  1.00  0.00     0.252 A 
ATOM     42  HN  UNL     1      -8.915 -23.539 -20.176  1.00  0.00     0.169 HD
HETATM   43  O   UNL     1      -9.706 -22.672 -17.688  1.00  0.00    -0.268 OA
HETATM   44  C   UNL     1     -10.419 -20.775 -19.001  1.00  0.00     0.018 A 
HETATM   45  C   UNL     1     -10.995 -19.840 -17.954  1.00  0.00     0.055 C 
BRANCH  40  46
HETATM   46  C   UNL     1     -10.870 -19.206 -21.004  1.00  0.00     0.004 C 
HETATM   47  C   UNL     1     -11.520 -19.166 -22.134  1.00  0.00     0.012 C 
ENDBRANCH  40  46
ENDBRANCH   4  37
TORSDOF 12
