REMARK  4 active torsions:
REMARK  status: ('A' for Active; 'I' for Inactive)
REMARK    1  A    between atoms: C_2  and  S_7 
REMARK    2  A    between atoms: C_6  and  S_13 
REMARK    3  A    between atoms: S_7  and  N_8 
REMARK    4  A    between atoms: S_13  and  N_14 
ROOT
HETATM    1  C   UNL     1      -4.819   9.753   0.344  1.00  0.00     0.054 A 
HETATM    2  C   UNL     1      -5.066   9.587   1.695  1.00  0.00     0.105 A 
HETATM    3  C   UNL     1      -6.030   8.729   2.143  1.00  0.00     0.071 A 
HETATM    4  C   UNL     1      -6.795   8.034   1.235  1.00  0.00     0.053 A 
HETATM    5  C   UNL     1      -6.555   8.191  -0.121  1.00  0.00     0.059 A 
HETATM    6  C   UNL     1      -5.588   9.050  -0.593  1.00  0.00     0.102 A 
HETATM    7  N   UNL     1      -6.262   8.569   3.513  1.00  0.00    -0.101 NA
HETATM    8 CL   UNL     1      -7.488   7.325  -1.130  1.00  0.00    -0.083 Cl
ENDROOT
BRANCH   2   9
HETATM    9  S   UNL     1      -4.053  10.533   2.793  1.00  0.00     0.258 S 
HETATM   10  O   UNL     1      -3.046   9.550   3.508  1.00  0.00    -0.201 OA
HETATM   11  O   UNL     1      -3.228  11.495   1.993  1.00  0.00    -0.201 OA
BRANCH   9  12
HETATM   12  N   UNL     1      -4.939  11.252   3.774  1.00  0.00    -0.324 N 
ATOM     13  HN2 UNL     1      -4.883  11.110   4.782  1.00  0.00     0.169 HD
ATOM     14  HN1 UNL     1      -5.590  11.887   3.312  1.00  0.00     0.169 HD
ENDBRANCH   9  12
ENDBRANCH   2   9
BRANCH   6  15
HETATM   15  S   UNL     1      -5.240   9.275  -2.340  1.00  0.00     0.258 S 
HETATM   16  O   UNL     1      -6.507   9.555  -3.097  1.00  0.00    -0.201 OA
HETATM   17  O   UNL     1      -4.227  10.440  -2.410  1.00  0.00    -0.201 OA
BRANCH  15  18
HETATM   18  N   UNL     1      -4.579   8.011  -2.849  1.00  0.00    -0.324 N 
ATOM     19  HN2 UNL     1      -4.374   7.185  -2.286  1.00  0.00     0.169 HD
ATOM     20  HN1 UNL     1      -4.381   8.139  -3.841  1.00  0.00     0.169 HD
ENDBRANCH  15  18
ENDBRANCH   6  15
TORSDOF 4
