REMARK  9 active torsions:
REMARK  status: ('A' for Active; 'I' for Inactive)
REMARK    1  A    between atoms: C_3  and  C_7 
REMARK    2  A    between atoms: C_7  and  C_25 
REMARK    3  A    between atoms: C_9  and  N_21 
REMARK       I    between atoms: C_18  and  N_21 
REMARK    4  A    between atoms: C_25  and  C_26 
REMARK    5  A    between atoms: C_29  and  C_30 
REMARK    6  A    between atoms: C_30  and  C_31 
REMARK    7  A    between atoms: C_31  and  C_32 
REMARK    8  A    between atoms: C_32  and  C_33 
REMARK    9  A    between atoms: C_33  and  N_45 
ROOT
HETATM    1  C   UNL     1       5.777 -16.101   5.743  1.00  0.00     0.240 C 
HETATM    2  C   UNL     1       6.540 -16.599   4.512  1.00  0.00     0.176 C 
HETATM    3  O   UNL     1       6.496  -8.051   7.028  1.00  0.00    -0.272 OA
HETATM    4  C   UNL     1       3.095 -11.625   4.494  1.00  0.00     0.176 C 
HETATM    5  C   UNL     1       2.710 -15.008   6.411  1.00  0.00     0.020 C 
HETATM    6  C   UNL     1       3.636 -16.085   6.937  1.00  0.00     0.122 C 
HETATM    7  N   UNL     1       4.538 -16.570   5.899  1.00  0.00    -0.359 N 
ATOM      8  HN  UNL     1       4.208 -17.298   5.266  1.00  0.00     0.162 HD
HETATM    9  C   UNL     1       3.428 -13.811   5.810  1.00  0.00     0.004 C 
HETATM   10  O   UNL     1       6.287 -15.282   6.508  1.00  0.00    -0.271 OA
HETATM   11  C   UNL     1       2.460 -12.789   5.255  1.00  0.00     0.035 C 
HETATM   12  O   UNL     1       5.016 -16.790   2.115  1.00  0.00    -0.271 OA
HETATM   13  N   UNL     1       6.430 -15.619   3.441  1.00  0.00    -0.346 N 
ATOM     14  HN  UNL     1       6.906 -14.725   3.561  1.00  0.00     0.163 HD
HETATM   15  C   UNL     1       4.037 -10.849   5.424  1.00  0.00     0.240 C 
HETATM   16  O   UNL     1       5.226 -11.164   5.529  1.00  0.00    -0.271 OA
HETATM   17  C   UNL     1       5.743 -15.817   2.308  1.00  0.00     0.241 C 
HETATM   18  C   UNL     1       5.903 -14.756   1.219  1.00  0.00     0.176 C 
HETATM   19  C   UNL     1       6.350 -12.424   1.852  1.00  0.00     0.222 C 
HETATM   20  C   UNL     1       7.462 -11.411   2.055  1.00  0.00     0.141 C 
HETATM   21  C   UNL     1       7.022  -9.969   1.970  1.00  0.00    -0.049 A 
HETATM   22  C   UNL     1       6.802  -9.236   3.130  1.00  0.00     0.016 A 
HETATM   23  C   UNL     1       6.405  -7.897   3.091  1.00  0.00    -0.040 A 
HETATM   24  C   UNL     1       6.176  -7.144   4.370  1.00  0.00     0.161 C 
HETATM   25  C   UNL     1       5.455  -8.298   6.418  1.00  0.00     0.235 C 
HETATM   26  C   UNL     1       4.349  -9.119   7.061  1.00  0.00     0.225 C 
HETATM   27  C   UNL     1       6.220  -7.309   1.847  1.00  0.00     0.009 A 
HETATM   28  C   UNL     1       6.427  -8.022   0.679  1.00  0.00     0.001 A 
HETATM   29  C   UNL     1       6.831  -9.347   0.746  1.00  0.00     0.007 A 
HETATM   30  N   UNL     1       6.779 -13.665   1.607  1.00  0.00    -0.348 N 
ATOM     31  HN  UNL     1       7.777 -13.857   1.697  1.00  0.00     0.163 HD
HETATM   32  N   UNL     1       5.201  -7.846   5.193  1.00  0.00    -0.355 N 
ATOM     33  HN  UNL     1       4.269  -8.000   4.808  1.00  0.00     0.162 HD
HETATM   34  N   UNL     1       3.518  -9.839   6.117  1.00  0.00    -0.351 N 
ATOM     35  HN  UNL     1       2.542  -9.573   5.985  1.00  0.00     0.163 HD
HETATM   36  O   UNL     1       5.157 -12.127   1.925  1.00  0.00    -0.273 OA
ENDROOT
BRANCH  18  37
HETATM   37  C   UNL     1       6.415 -15.393  -0.071  1.00  0.00     0.035 C 
BRANCH  37  38
HETATM   38  C   UNL     1       6.378 -14.411  -1.240  1.00  0.00     0.004 C 
BRANCH  38  39
HETATM   39  C   UNL     1       6.610 -15.034  -2.608  1.00  0.00     0.027 C 
BRANCH  39  40
HETATM   40  C   UNL     1       7.986 -15.650  -2.751  1.00  0.00     0.229 C 
BRANCH  40  41
HETATM   41  N   UNL     1       8.239 -16.079  -4.147  1.00  0.00    -0.079 N 
ATOM     42  HN3 UNL     1       7.510 -16.708  -4.484  1.00  0.00     0.274 HD
ATOM     43  HN2 UNL     1       8.101 -15.312  -4.806  1.00  0.00     0.274 HD
ATOM     44  HN1 UNL     1       9.166 -16.494  -4.243  1.00  0.00     0.274 HD
ENDBRANCH  40  41
ENDBRANCH  39  40
ENDBRANCH  38  39
ENDBRANCH  37  38
ENDBRANCH  18  37
BRANCH   2  45
HETATM   45  C   UNL     1       8.012 -16.839   4.859  1.00  0.00     0.035 C 
BRANCH  45  46
HETATM   46  C   UNL     1       8.786 -17.544   3.752  1.00  0.00     0.002 C 
BRANCH  46  47
HETATM   47  C   UNL     1      10.284 -17.671   4.087  1.00  0.00    -0.004 C 
HETATM   48  C   UNL     1      11.090 -18.339   2.996  1.00  0.00     0.005 C 
ENDBRANCH  46  47
ENDBRANCH  45  46
ENDBRANCH   2  45
BRANCH   4  49
HETATM   49  N   UNL     1       2.025 -10.809   3.941  1.00  0.00    -0.352 N 
HETATM   50  C   UNL     1       2.154  -9.845   2.941  1.00  0.00     0.182 C 
HETATM   51  N   UNL     1       3.386  -9.768   2.322  1.00  0.00    -0.064 NA
HETATM   52  N   UNL     1       1.146  -9.099   2.652  1.00  0.00    -0.374 N 
ATOM     53  HN2 UNL     1       1.240  -8.394   1.921  1.00  0.00     0.158 HD
ATOM     54  HN1 UNL     1       0.236  -9.156   3.109  1.00  0.00     0.158 HD
ATOM     55  HN  UNL     1       1.090 -10.956   4.321  1.00  0.00     0.163 HD
ENDBRANCH   4  49
TORSDOF 9
