REMARK  9 active torsions:
REMARK  status: ('A' for Active; 'I' for Inactive)
REMARK    1  A    between atoms: C_4  and  C_6 
REMARK       I    between atoms: N_5  and  C_16 
REMARK    2  A    between atoms: C_6  and  C_21 
REMARK    3  A    between atoms: C_8  and  N_18 
REMARK       I    between atoms: C_16  and  N_18 
REMARK    4  A    between atoms: C_21  and  C_22 
REMARK    5  A    between atoms: C_25  and  C_26 
REMARK    6  A    between atoms: C_26  and  C_27 
REMARK    7  A    between atoms: C_27  and  C_28 
REMARK    8  A    between atoms: C_28  and  C_29 
REMARK    9  A    between atoms: C_29  and  N_41 
ROOT
HETATM    1  C   UNL     1       3.144   1.580  -1.624  1.00  0.00     0.240 C 
HETATM    2  C   UNL     1       4.185   1.799  -0.552  1.00  0.00     0.176 C 
HETATM    3  O   UNL     1      -6.918  -2.781  -0.180  1.00  0.00    -0.272 OA
HETATM    4  C   UNL     1      -3.061  -2.268  -3.673  1.00  0.00     0.191 C 
HETATM    5  C   UNL     1       0.003  -0.553  -1.985  1.00  0.00     0.020 C 
HETATM    6  C   UNL     1       1.167   0.286  -2.519  1.00  0.00     0.122 C 
HETATM    7  N   UNL     1       2.133   0.579  -1.460  1.00  0.00    -0.359 N 
HETATM    8  C   UNL     1      -0.934  -0.977  -3.122  1.00  0.00     0.004 C 
HETATM    9  O   UNL     1       3.176   2.283  -2.670  1.00  0.00    -0.271 OA
HETATM   10  C   UNL     1      -2.203  -1.631  -2.564  1.00  0.00     0.035 C 
HETATM   11  O   UNL     1       2.318   3.781   0.322  1.00  0.00    -0.271 OA
HETATM   12  N   UNL     1       3.541   1.835   0.768  1.00  0.00    -0.346 N 
HETATM   13  C   UNL     1      -4.423  -2.584  -3.108  1.00  0.00     0.241 C 
HETATM   14  O   UNL     1      -4.674  -3.736  -2.661  1.00  0.00    -0.271 OA
HETATM   15  C   UNL     1       2.549   2.818   1.105  1.00  0.00     0.241 C 
HETATM   16  C   UNL     1       1.812   2.750   2.415  1.00  0.00     0.176 C 
HETATM   17  C   UNL     1       0.018   0.955   2.346  1.00  0.00     0.222 C 
HETATM   18  C   UNL     1      -0.598  -0.184   3.109  1.00  0.00     0.141 C 
HETATM   19  C   UNL     1      -1.546  -0.991   2.261  1.00  0.00    -0.049 A 
HETATM   20  C   UNL     1      -2.886  -0.585   2.120  1.00  0.00     0.016 A 
HETATM   21  C   UNL     1      -3.789  -1.350   1.362  1.00  0.00    -0.040 A 
HETATM   22  C   UNL     1      -5.232  -0.934   1.245  1.00  0.00     0.161 C 
HETATM   23  C   UNL     1      -6.413  -1.824  -0.828  1.00  0.00     0.235 C 
HETATM   24  C   UNL     1      -6.667  -1.720  -2.301  1.00  0.00     0.225 C 
HETATM   25  C   UNL     1      -3.342  -2.538   0.761  1.00  0.00     0.009 A 
HETATM   26  C   UNL     1      -2.007  -2.934   0.882  1.00  0.00     0.001 A 
HETATM   27  C   UNL     1      -1.107  -2.157   1.618  1.00  0.00     0.007 A 
HETATM   28  N   UNL     1       1.347   1.381   2.666  1.00  0.00    -0.348 N 
HETATM   29  N   UNL     1      -5.621  -0.829  -0.161  1.00  0.00    -0.355 N 
HETATM   30  N   UNL     1      -5.409  -1.547  -3.020  1.00  0.00    -0.351 N 
HETATM   31  O   UNL     1      -0.663   1.592   1.498  1.00  0.00    -0.273 OA
HETATM   32  H   UNL     1       2.096   0.044  -0.563  1.00  0.00     0.162 HD
HETATM   33  H   UNL     1       3.784   1.112   1.478  1.00  0.00     0.163 HD
HETATM   34  H   UNL     1       1.978   0.713   3.166  1.00  0.00     0.163 HD
HETATM   35  H   UNL     1      -5.223  -0.038  -0.722  1.00  0.00     0.162 HD
HETATM   36  H   UNL     1      -5.205  -0.615  -3.451  1.00  0.00     0.163 HD
ENDROOT
BRANCH   4  37
HETATM   37  N   UNL     1      -2.423  -3.486  -4.197  1.00  0.00    -0.214 N 
HETATM   38  C   UNL     1      -2.900  -4.228  -5.337  1.00  0.00     0.666 C 
HETATM   39  N   UNL     1      -3.874  -3.792  -6.077  1.00  0.00    -0.235 N 
HETATM   40  N   UNL     1      -2.301  -5.487  -5.649  1.00  0.00    -0.235 N 
HETATM   41  H   UNL     1      -4.362  -2.884  -5.919  1.00  0.00     0.174 HD
ATOM     42  HN  UNL     1      -4.180  -4.372  -6.859  1.00  0.00     0.174 HD
HETATM   43  H   UNL     1      -2.680  -6.080  -6.422  1.00  0.00     0.174 HD
HETATM   44  H   UNL     1      -1.509  -5.860  -5.073  1.00  0.00     0.174 HD
HETATM   45  H   UNL     1      -1.591  -3.873  -3.696  1.00  0.00     0.178 HD
ENDBRANCH   4  37
BRANCH   2  46
HETATM   46  C   UNL     1       5.259   0.693  -0.598  1.00  0.00     0.035 C 
BRANCH  46  47
HETATM   47  C   UNL     1       6.128   0.771  -1.867  1.00  0.00     0.002 C 
BRANCH  47  48
HETATM   48  C   UNL     1       7.058  -0.442  -2.021  1.00  0.00    -0.004 C 
HETATM   49  C   UNL     1       8.189  -0.456  -0.996  1.00  0.00     0.005 C 
ENDBRANCH  47  48
ENDBRANCH  46  47
ENDBRANCH   2  46
BRANCH  16  50
HETATM   50  C   UNL     1       2.720   3.245   3.558  1.00  0.00     0.035 C 
BRANCH  50  51
HETATM   51  C   UNL     1       2.075   3.139   4.952  1.00  0.00     0.004 C 
BRANCH  51  52
HETATM   52  C   UNL     1       0.802   3.989   5.094  1.00  0.00     0.030 C 
BRANCH  52  53
HETATM   53  C   UNL     1       0.321   4.087   6.553  1.00  0.00     0.267 C 
BRANCH  53  54
HETATM   54  N   UNL     1      -0.096   2.794   7.091  1.00  0.00     0.078 N 
HETATM   55  H   UNL     1      -0.718   2.312   6.403  1.00  0.00     0.312 HD
HETATM   56  H   UNL     1       0.750   2.191   7.238  1.00  0.00     0.312 HD
ENDBRANCH  53  54
ENDBRANCH  52  53
ENDBRANCH  51  52
ENDBRANCH  50  51
ENDBRANCH  16  50
TORSDOF 9
