MODEL 1
REMARK VINA RESULT:     0.000      0.000      0.000
REMARK INTER + INTRA:          -0.757
REMARK INTER:                   0.000
REMARK INTRA:                  -0.757
REMARK UNBOUND:                -0.757
REMARK  3 active torsions:
REMARK  status: ('A' for Active; 'I' for Inactive)
REMARK    1  A    between atoms: C_4  and  N_6 
REMARK    2  A    between atoms: C_5  and  N_12 
REMARK    3  A    between atoms: N_6  and  N_12 
ROOT
HETATM    1  N   UNL     1      20.932  -1.120  61.861  1.00  0.00    -0.385 N 
ATOM      2  HN1 UNL     1      21.009  -1.875  62.542  1.00  0.00     0.157 HD
ATOM      3  HN2 UNL     1      20.816  -0.230  62.347  1.00  0.00     0.157 HD
HETATM    4  C   UNL     1      20.926  -0.844  58.353  1.00  0.00     0.132 A 
HETATM    5  C   UNL     1      21.127  -2.572  59.864  1.00  0.00     0.021 A 
HETATM    6  C   UNL     1      21.323  -3.308  57.572  1.00  0.00     0.016 A 
HETATM    7  C   UNL     1      21.125  -2.291  58.504  1.00  0.00     0.023 A 
HETATM    8  C   UNL     1      21.517  -4.607  58.033  1.00  0.00     0.001 A 
HETATM    9  C   UNL     1      21.501  -4.890  59.397  1.00  0.00     0.001 A 
HETATM   10  C   UNL     1      21.305  -3.880  60.322  1.00  0.00     0.016 A 
HETATM   11  N   UNL     1      20.860  -0.318  59.663  1.00  0.00    -0.327 N 
ATOM     12  HN  UNL     1      20.751   0.670  59.894  1.00  0.00     0.169 HD
HETATM   13  C   UNL     1      20.961  -1.308  60.556  1.00  0.00     0.111 A 
ENDROOT
BRANCH   4  14
HETATM   14  N   UNL     1      20.818  -0.227  57.254  1.00  0.00    -0.284 N 
ATOM     15  HN  UNL     1      19.951  -0.231  56.717  1.00  0.00     0.188 HD
BRANCH  14  16
HETATM   16  N   UNL     1      21.908   0.433  56.838  1.00  0.00    -0.299 N 
ATOM     17  HN  UNL     1      21.969   1.444  56.960  1.00  0.00     0.187 HD
BRANCH  16  18
HETATM   18  C   UNL     1      22.969  -0.266  56.234  1.00  0.00     0.048 A 
HETATM   19  C   UNL     1      24.239  -0.285  56.799  1.00  0.00     0.031 A 
HETATM   20  C   UNL     1      25.265  -0.977  56.172  1.00  0.00     0.002 A 
HETATM   21  C   UNL     1      25.028  -1.683  55.014  1.00  0.00     0.000 A 
HETATM   22  C   UNL     1      23.775  -1.659  54.445  1.00  0.00     0.002 A 
HETATM   23  C   UNL     1      22.751  -0.941  55.039  1.00  0.00     0.031 A 
ENDBRANCH  16  18
ENDBRANCH  14  16
ENDBRANCH   4  14
TORSDOF 3
ENDMDL
MODEL 2
REMARK VINA RESULT:     0.000      8.088     10.549
REMARK INTER + INTRA:          -0.756
REMARK INTER:                   0.000
REMARK INTRA:                  -0.756
REMARK UNBOUND:                -0.757
REMARK  3 active torsions:
REMARK  status: ('A' for Active; 'I' for Inactive)
REMARK    1  A    between atoms: C_4  and  N_6 
REMARK    2  A    between atoms: C_5  and  N_12 
REMARK    3  A    between atoms: N_6  and  N_12 
ROOT
HETATM    1  N   UNL     1      25.860   3.408  55.835  1.00  0.00    -0.385 N 
ATOM      2  HN1 UNL     1      25.015   3.977  55.784  1.00  0.00     0.157 HD
ATOM      3  HN2 UNL     1      25.790   2.630  55.179  1.00  0.00     0.157 HD
HETATM    4  C   UNL     1      28.849   3.450  57.692  1.00  0.00     0.132 A 
HETATM    5  C   UNL     1      26.963   4.769  57.587  1.00  0.00     0.021 A 
HETATM    6  C   UNL     1      28.608   5.614  59.140  1.00  0.00     0.016 A 
HETATM    7  C   UNL     1      28.194   4.655  58.218  1.00  0.00     0.023 A 
HETATM    8  C   UNL     1      27.760   6.683  59.416  1.00  0.00     0.001 A 
HETATM    9  C   UNL     1      26.517   6.787  58.796  1.00  0.00     0.001 A 
HETATM   10  C   UNL     1      26.106   5.834  57.880  1.00  0.00     0.016 A 
HETATM   11  N   UNL     1      27.970   2.917  56.722  1.00  0.00    -0.327 N 
ATOM     12  HN  UNL     1      28.154   2.089  56.156  1.00  0.00     0.169 HD
HETATM   13  C   UNL     1      26.862   3.662  56.654  1.00  0.00     0.111 A 
ENDROOT
BRANCH   4  14
HETATM   14  N   UNL     1      29.966   2.994  58.071  1.00  0.00    -0.284 N 
ATOM     15  HN  UNL     1      30.068   2.467  58.938  1.00  0.00     0.188 HD
BRANCH  14  16
HETATM   16  N   UNL     1      31.009   3.246  57.267  1.00  0.00    -0.299 N 
ATOM     17  HN  UNL     1      31.358   2.519  56.643  1.00  0.00     0.187 HD
BRANCH  16  18
HETATM   18  C   UNL     1      31.624   4.511  57.284  1.00  0.00     0.048 A 
HETATM   19  C   UNL     1      31.649   5.319  56.153  1.00  0.00     0.031 A 
HETATM   20  C   UNL     1      32.273   6.558  56.201  1.00  0.00     0.002 A 
HETATM   21  C   UNL     1      32.831   7.015  57.373  1.00  0.00     0.000 A 
HETATM   22  C   UNL     1      32.818   6.216  58.493  1.00  0.00     0.002 A 
HETATM   23  C   UNL     1      32.234   4.961  58.449  1.00  0.00     0.031 A 
ENDBRANCH  16  18
ENDBRANCH  14  16
ENDBRANCH   4  14
TORSDOF 3
ENDMDL
MODEL 3
REMARK VINA RESULT:     0.000     12.308     13.914
REMARK INTER + INTRA:          -0.756
REMARK INTER:                   0.000
REMARK INTRA:                  -0.756
REMARK UNBOUND:                -0.757
REMARK  3 active torsions:
REMARK  status: ('A' for Active; 'I' for Inactive)
REMARK    1  A    between atoms: C_4  and  N_6 
REMARK    2  A    between atoms: C_5  and  N_12 
REMARK    3  A    between atoms: N_6  and  N_12 
ROOT
HETATM    1  N   UNL     1      33.889   6.906  58.480  1.00  0.00    -0.385 N 
ATOM      2  HN1 UNL     1      34.691   7.014  57.859  1.00  0.00     0.157 HD
ATOM      3  HN2 UNL     1      34.209   6.612  59.403  1.00  0.00     0.157 HD
HETATM    4  C   UNL     1      30.397   7.248  58.216  1.00  0.00     0.132 A 
HETATM    5  C   UNL     1      32.186   7.524  56.791  1.00  0.00     0.021 A 
HETATM    6  C   UNL     1      30.075   8.075  55.756  1.00  0.00     0.016 A 
HETATM    7  C   UNL     1      30.804   7.633  56.858  1.00  0.00     0.023 A 
HETATM    8  C   UNL     1      30.761   8.399  54.589  1.00  0.00     0.001 A 
HETATM    9  C   UNL     1      32.146   8.273  54.517  1.00  0.00     0.001 A 
HETATM   10  C   UNL     1      32.870   7.835  55.612  1.00  0.00     0.016 A 
HETATM   11  N   UNL     1      31.591   6.964  58.918  1.00  0.00    -0.327 N 
ATOM     12  HN  UNL     1      31.643   6.691  59.899  1.00  0.00     0.169 HD
HETATM   13  C   UNL     1      32.641   7.105  58.104  1.00  0.00     0.111 A 
ENDROOT
BRANCH   4  14
HETATM   14  N   UNL     1      29.206   7.176  58.635  1.00  0.00    -0.284 N 
ATOM     15  HN  UNL     1      28.604   6.383  58.412  1.00  0.00     0.188 HD
BRANCH  14  16
HETATM   16  N   UNL     1      28.781   8.200  59.388  1.00  0.00    -0.299 N 
ATOM     17  HN  UNL     1      28.738   8.103  60.403  1.00  0.00     0.187 HD
BRANCH  16  18
HETATM   18  C   UNL     1      28.396   9.410  58.782  1.00  0.00     0.048 A 
HETATM   19  C   UNL     1      29.062  10.599  59.052  1.00  0.00     0.031 A 
HETATM   20  C   UNL     1      28.650  11.777  58.444  1.00  0.00     0.002 A 
HETATM   21  C   UNL     1      27.612  11.772  57.541  1.00  0.00     0.000 A 
HETATM   22  C   UNL     1      26.942  10.599  57.278  1.00  0.00     0.002 A 
HETATM   23  C   UNL     1      27.317   9.424  57.906  1.00  0.00     0.031 A 
ENDBRANCH  16  18
ENDBRANCH  14  16
ENDBRANCH   4  14
TORSDOF 3
ENDMDL
MODEL 4
REMARK VINA RESULT:     0.001     14.871     16.671
REMARK INTER + INTRA:          -0.756
REMARK INTER:                   0.000
REMARK INTRA:                  -0.756
REMARK UNBOUND:                -0.757
REMARK  3 active torsions:
REMARK  status: ('A' for Active; 'I' for Inactive)
REMARK    1  A    between atoms: C_4  and  N_6 
REMARK    2  A    between atoms: C_5  and  N_12 
REMARK    3  A    between atoms: N_6  and  N_12 
ROOT
HETATM    1  N   UNL     1      16.374  15.707  52.866  1.00  0.00    -0.385 N 
ATOM      2  HN1 UNL     1      15.631  16.403  52.927  1.00  0.00     0.157 HD
ATOM      3  HN2 UNL     1      16.901  15.842  52.002  1.00  0.00     0.157 HD
HETATM    4  C   UNL     1      17.503  13.009  54.822  1.00  0.00     0.132 A 
HETATM    5  C   UNL     1      15.828  14.581  55.004  1.00  0.00     0.021 A 
HETATM    6  C   UNL     1      15.937  13.107  56.914  1.00  0.00     0.016 A 
HETATM    7  C   UNL     1      16.406  13.505  55.664  1.00  0.00     0.023 A 
HETATM    8  C   UNL     1      14.876  13.808  57.482  1.00  0.00     0.001 A 
HETATM    9  C   UNL     1      14.286  14.877  56.811  1.00  0.00     0.001 A 
HETATM   10  C   UNL     1      14.753  15.272  55.569  1.00  0.00     0.016 A 
HETATM   11  N   UNL     1      17.550  13.862  53.696  1.00  0.00    -0.327 N 
ATOM     12  HN  UNL     1      18.226  13.792  52.936  1.00  0.00     0.169 HD
HETATM   13  C   UNL     1      16.577  14.775  53.776  1.00  0.00     0.111 A 
ENDROOT
BRANCH   4  14
HETATM   14  N   UNL     1      18.226  12.002  55.074  1.00  0.00    -0.284 N 
ATOM     15  HN  UNL     1      17.898  11.050  54.917  1.00  0.00     0.188 HD
BRANCH  14  16
HETATM   16  N   UNL     1      19.449  12.261  55.558  1.00  0.00    -0.299 N 
ATOM     17  HN  UNL     1      20.262  12.211  54.944  1.00  0.00     0.187 HD
BRANCH  16  18
HETATM   18  C   UNL     1      19.614  12.601  56.913  1.00  0.00     0.048 A 
HETATM   19  C   UNL     1      20.136  13.832  57.293  1.00  0.00     0.031 A 
HETATM   20  C   UNL     1      20.295  14.131  58.639  1.00  0.00     0.002 A 
HETATM   21  C   UNL     1      19.899  13.236  59.606  1.00  0.00     0.000 A 
HETATM   22  C   UNL     1      19.391  12.012  59.237  1.00  0.00     0.002 A 
HETATM   23  C   UNL     1      19.264  11.684  57.897  1.00  0.00     0.031 A 
ENDBRANCH  16  18
ENDBRANCH  14  16
ENDBRANCH   4  14
TORSDOF 3
ENDMDL
MODEL 5
REMARK VINA RESULT:     0.001      8.674     10.711
REMARK INTER + INTRA:          -0.756
REMARK INTER:                   0.000
REMARK INTRA:                  -0.756
REMARK UNBOUND:                -0.757
REMARK  3 active torsions:
REMARK  status: ('A' for Active; 'I' for Inactive)
REMARK    1  A    between atoms: C_4  and  N_6 
REMARK    2  A    between atoms: C_5  and  N_12 
REMARK    3  A    between atoms: N_6  and  N_12 
ROOT
HETATM    1  N   UNL     1      21.595   4.235  56.322  1.00  0.00    -0.385 N 
ATOM      2  HN1 UNL     1      21.058   4.307  57.186  1.00  0.00     0.157 HD
ATOM      3  HN2 UNL     1      21.825   3.258  56.141  1.00  0.00     0.157 HD
HETATM    4  C   UNL     1      22.848   6.469  53.908  1.00  0.00     0.132 A 
HETATM    5  C   UNL     1      21.614   6.666  55.844  1.00  0.00     0.021 A 
HETATM    6  C   UNL     1      21.959   8.785  54.737  1.00  0.00     0.016 A 
HETATM    7  C   UNL     1      22.154   7.406  54.802  1.00  0.00     0.023 A 
HETATM    8  C   UNL     1      21.216   9.400  55.741  1.00  0.00     0.001 A 
HETATM    9  C   UNL     1      20.688   8.658  56.795  1.00  0.00     0.001 A 
HETATM   10  C   UNL     1      20.882   7.290  56.859  1.00  0.00     0.016 A 
HETATM   11  N   UNL     1      22.644   5.182  54.455  1.00  0.00    -0.327 N 
ATOM     12  HN  UNL     1      22.982   4.311  54.047  1.00  0.00     0.169 HD
HETATM   13  C   UNL     1      21.940   5.275  55.588  1.00  0.00     0.111 A 
ENDROOT
BRANCH   4  14
HETATM   14  N   UNL     1      23.505   6.787  52.876  1.00  0.00    -0.284 N 
ATOM     15  HN  UNL     1      24.450   7.167  52.934  1.00  0.00     0.188 HD
BRANCH  14  16
HETATM   16  N   UNL     1      22.889   6.595  51.701  1.00  0.00    -0.299 N 
ATOM     17  HN  UNL     1      23.121   5.782  51.130  1.00  0.00     0.187 HD
BRANCH  16  18
HETATM   18  C   UNL     1      21.921   7.513  51.253  1.00  0.00     0.048 A 
HETATM   19  C   UNL     1      20.603   7.129  51.039  1.00  0.00     0.031 A 
HETATM   20  C   UNL     1      19.676   8.058  50.588  1.00  0.00     0.002 A 
HETATM   21  C   UNL     1      20.040   9.371  50.391  1.00  0.00     0.000 A 
HETATM   22  C   UNL     1      21.346   9.754  50.591  1.00  0.00     0.002 A 
HETATM   23  C   UNL     1      22.290   8.829  51.004  1.00  0.00     0.031 A 
ENDBRANCH  16  18
ENDBRANCH  14  16
ENDBRANCH   4  14
TORSDOF 3
ENDMDL
MODEL 6
REMARK VINA RESULT:     0.001      5.622      7.701
REMARK INTER + INTRA:          -0.756
REMARK INTER:                   0.000
REMARK INTRA:                  -0.756
REMARK UNBOUND:                -0.757
REMARK  3 active torsions:
REMARK  status: ('A' for Active; 'I' for Inactive)
REMARK    1  A    between atoms: C_4  and  N_6 
REMARK    2  A    between atoms: C_5  and  N_12 
REMARK    3  A    between atoms: N_6  and  N_12 
ROOT
HETATM    1  N   UNL     1      22.252   7.825  61.420  1.00  0.00    -0.385 N 
ATOM      2  HN1 UNL     1      23.199   8.128  61.190  1.00  0.00     0.157 HD
ATOM      3  HN2 UNL     1      21.629   8.632  61.438  1.00  0.00     0.157 HD
HETATM    4  C   UNL     1      20.669   4.777  62.187  1.00  0.00     0.132 A 
HETATM    5  C   UNL     1      22.814   5.423  61.647  1.00  0.00     0.021 A 
HETATM    6  C   UNL     1      22.604   3.035  61.944  1.00  0.00     0.016 A 
HETATM    7  C   UNL     1      22.041   4.310  61.946  1.00  0.00     0.023 A 
HETATM    8  C   UNL     1      23.957   2.905  61.641  1.00  0.00     0.001 A 
HETATM    9  C   UNL     1      24.736   4.025  61.359  1.00  0.00     0.001 A 
HETATM   10  C   UNL     1      24.176   5.290  61.361  1.00  0.00     0.016 A 
HETATM   11  N   UNL     1      20.688   6.175  61.974  1.00  0.00    -0.327 N 
ATOM     12  HN  UNL     1      19.876   6.789  62.040  1.00  0.00     0.169 HD
HETATM   13  C   UNL     1      21.928   6.572  61.672  1.00  0.00     0.111 A 
ENDROOT
BRANCH   4  14
HETATM   14  N   UNL     1      19.695   4.051  62.537  1.00  0.00    -0.284 N 
ATOM     15  HN  UNL     1      19.576   3.734  63.499  1.00  0.00     0.188 HD
BRANCH  14  16
HETATM   16  N   UNL     1      18.826   3.723  61.569  1.00  0.00    -0.299 N 
ATOM     17  HN  UNL     1      17.936   4.215  61.495  1.00  0.00     0.187 HD
BRANCH  16  18
HETATM   18  C   UNL     1      19.141   2.700  60.656  1.00  0.00     0.048 A 
HETATM   19  C   UNL     1      19.250   2.953  59.294  1.00  0.00     0.031 A 
HETATM   20  C   UNL     1      19.552   1.918  58.420  1.00  0.00     0.002 A 
HETATM   21  C   UNL     1      19.788   0.648  58.894  1.00  0.00     0.000 A 
HETATM   22  C   UNL     1      19.671   0.389  60.240  1.00  0.00     0.002 A 
HETATM   23  C   UNL     1      19.332   1.403  61.120  1.00  0.00     0.031 A 
ENDBRANCH  16  18
ENDBRANCH  14  16
ENDBRANCH   4  14
TORSDOF 3
ENDMDL
MODEL 7
REMARK VINA RESULT:     0.001      6.094      8.420
REMARK INTER + INTRA:          -0.756
REMARK INTER:                   0.000
REMARK INTRA:                  -0.756
REMARK UNBOUND:                -0.757
REMARK  3 active torsions:
REMARK  status: ('A' for Active; 'I' for Inactive)
REMARK    1  A    between atoms: C_4  and  N_6 
REMARK    2  A    between atoms: C_5  and  N_12 
REMARK    3  A    between atoms: N_6  and  N_12 
ROOT
HETATM    1  N   UNL     1      26.320   4.497  57.723  1.00  0.00    -0.385 N 
ATOM      2  HN1 UNL     1      26.037   5.424  57.404  1.00  0.00     0.157 HD
ATOM      3  HN2 UNL     1      27.131   4.184  57.189  1.00  0.00     0.157 HD
HETATM    4  C   UNL     1      25.190   2.170  60.108  1.00  0.00     0.132 A 
HETATM    5  C   UNL     1      24.538   4.273  59.429  1.00  0.00     0.021 A 
HETATM    6  C   UNL     1      23.196   3.421  61.247  1.00  0.00     0.016 A 
HETATM    7  C   UNL     1      24.234   3.263  60.331  1.00  0.00     0.023 A 
HETATM    8  C   UNL     1      22.470   4.609  61.233  1.00  0.00     0.001 A 
HETATM    9  C   UNL     1      22.764   5.614  60.315  1.00  0.00     0.001 A 
HETATM   10  C   UNL     1      23.796   5.457  59.406  1.00  0.00     0.016 A 
HETATM   11  N   UNL     1      26.062   2.613  59.087  1.00  0.00    -0.327 N 
ATOM     12  HN  UNL     1      26.855   2.086  58.724  1.00  0.00     0.169 HD
HETATM   13  C   UNL     1      25.692   3.828  58.670  1.00  0.00     0.111 A 
ENDROOT
BRANCH   4  14
HETATM   14  N   UNL     1      25.191   1.058  60.711  1.00  0.00    -0.284 N 
ATOM     15  HN  UNL     1      24.539   0.313  60.469  1.00  0.00     0.188 HD
BRANCH  14  16
HETATM   16  N   UNL     1      26.099   0.917  61.687  1.00  0.00    -0.299 N 
ATOM     17  HN  UNL     1      26.955   0.390  61.515  1.00  0.00     0.187 HD
BRANCH  16  18
HETATM   18  C   UNL     1      25.874   1.495  62.950  1.00  0.00     0.048 A 
HETATM   19  C   UNL     1      26.727   2.464  63.465  1.00  0.00     0.031 A 
HETATM   20  C   UNL     1      26.481   3.007  64.719  1.00  0.00     0.002 A 
HETATM   21  C   UNL     1      25.373   2.626  65.441  1.00  0.00     0.000 A 
HETATM   22  C   UNL     1      24.531   1.660  64.940  1.00  0.00     0.002 A 
HETATM   23  C   UNL     1      24.786   1.081  63.708  1.00  0.00     0.031 A 
ENDBRANCH  16  18
ENDBRANCH  14  16
ENDBRANCH   4  14
TORSDOF 3
ENDMDL
MODEL 8
REMARK VINA RESULT:     0.001      7.825      9.433
REMARK INTER + INTRA:          -0.756
REMARK INTER:                   0.000
REMARK INTRA:                  -0.756
REMARK UNBOUND:                -0.757
REMARK  3 active torsions:
REMARK  status: ('A' for Active; 'I' for Inactive)
REMARK    1  A    between atoms: C_4  and  N_6 
REMARK    2  A    between atoms: C_5  and  N_12 
REMARK    3  A    between atoms: N_6  and  N_12 
ROOT
HETATM    1  N   UNL     1      20.088   3.429  60.554  1.00  0.00    -0.385 N 
ATOM      2  HN1 UNL     1      20.555   2.636  60.115  1.00  0.00     0.157 HD
ATOM      3  HN2 UNL     1      20.665   3.788  61.315  1.00  0.00     0.157 HD
HETATM    4  C   UNL     1      17.050   5.152  60.126  1.00  0.00     0.132 A 
HETATM    5  C   UNL     1      18.086   3.370  59.096  1.00  0.00     0.021 A 
HETATM    6  C   UNL     1      15.983   3.952  58.063  1.00  0.00     0.016 A 
HETATM    7  C   UNL     1      16.948   4.162  59.046  1.00  0.00     0.023 A 
HETATM    8  C   UNL     1      16.184   2.930  57.139  1.00  0.00     0.001 A 
HETATM    9  C   UNL     1      17.319   2.124  57.202  1.00  0.00     0.001 A 
HETATM   10  C   UNL     1      18.277   2.334  58.178  1.00  0.00     0.016 A 
HETATM   11  N   UNL     1      18.295   4.920  60.754  1.00  0.00    -0.327 N 
ATOM     12  HN  UNL     1      18.671   5.465  61.530  1.00  0.00     0.169 HD
HETATM   13  C   UNL     1      18.907   3.880  60.179  1.00  0.00     0.111 A 
ENDROOT
BRANCH   4  14
HETATM   14  N   UNL     1      16.172   6.012  60.422  1.00  0.00    -0.284 N 
ATOM     15  HN  UNL     1      15.335   5.768  60.952  1.00  0.00     0.188 HD
BRANCH  14  16
HETATM   16  N   UNL     1      16.403   7.263  59.998  1.00  0.00    -0.299 N 
ATOM     17  HN  UNL     1      16.759   7.964  60.649  1.00  0.00     0.187 HD
BRANCH  16  18
HETATM   18  C   UNL     1      16.158   7.611  58.658  1.00  0.00     0.048 A 
HETATM   19  C   UNL     1      17.179   8.052  57.825  1.00  0.00     0.031 A 
HETATM   20  C   UNL     1      16.900   8.396  56.510  1.00  0.00     0.002 A 
HETATM   21  C   UNL     1      15.626   8.265  56.007  1.00  0.00     0.000 A 
HETATM   22  C   UNL     1      14.608   7.839  56.830  1.00  0.00     0.002 A 
HETATM   23  C   UNL     1      14.865   7.529  58.155  1.00  0.00     0.031 A 
ENDBRANCH  16  18
ENDBRANCH  14  16
ENDBRANCH   4  14
TORSDOF 3
ENDMDL
MODEL 9
REMARK VINA RESULT:     0.001      5.253      8.119
REMARK INTER + INTRA:          -0.756
REMARK INTER:                   0.000
REMARK INTRA:                  -0.756
REMARK UNBOUND:                -0.757
REMARK  3 active torsions:
REMARK  status: ('A' for Active; 'I' for Inactive)
REMARK    1  A    between atoms: C_4  and  N_6 
REMARK    2  A    between atoms: C_5  and  N_12 
REMARK    3  A    between atoms: N_6  and  N_12 
ROOT
HETATM    1  N   UNL     1      26.455  -0.676  49.232  1.00  0.00    -0.385 N 
ATOM      2  HN1 UNL     1      27.397  -0.811  48.864  1.00  0.00     0.157 HD
ATOM      3  HN2 UNL     1      25.896  -0.150  48.560  1.00  0.00     0.157 HD
HETATM    4  C   UNL     1      24.730  -1.516  52.182  1.00  0.00     0.132 A 
HETATM    5  C   UNL     1      26.859  -1.860  51.371  1.00  0.00     0.021 A 
HETATM    6  C   UNL     1      26.503  -2.889  53.526  1.00  0.00     0.016 A 
HETATM    7  C   UNL     1      26.036  -2.129  52.456  1.00  0.00     0.023 A 
HETATM    8  C   UNL     1      27.811  -3.366  53.484  1.00  0.00     0.001 A 
HETATM    9  C   UNL     1      28.640  -3.081  52.403  1.00  0.00     0.001 A 
HETATM   10  C   UNL     1      28.176  -2.326  51.340  1.00  0.00     0.016 A 
HETATM   11  N   UNL     1      24.831  -0.935  50.897  1.00  0.00    -0.327 N 
ATOM     12  HN  UNL     1      24.075  -0.452  50.411  1.00  0.00     0.169 HD
HETATM   13  C   UNL     1      26.064  -1.112  50.414  1.00  0.00     0.111 A 
ENDROOT
BRANCH   4  14
HETATM   14  N   UNL     1      23.740  -1.509  52.969  1.00  0.00    -0.284 N 
ATOM     15  HN  UNL     1      23.686  -0.870  53.762  1.00  0.00     0.188 HD
BRANCH  14  16
HETATM   16  N   UNL     1      22.767  -2.391  52.701  1.00  0.00    -0.299 N 
ATOM     17  HN  UNL     1      21.912  -2.082  52.238  1.00  0.00     0.187 HD
BRANCH  16  18
HETATM   18  C   UNL     1      22.921  -3.743  53.057  1.00  0.00     0.048 A 
HETATM   19  C   UNL     1      22.924  -4.749  52.098  1.00  0.00     0.031 A 
HETATM   20  C   UNL     1      23.069  -6.074  52.485  1.00  0.00     0.002 A 
HETATM   21  C   UNL     1      23.254  -6.400  53.810  1.00  0.00     0.000 A 
HETATM   22  C   UNL     1      23.242  -5.410  54.765  1.00  0.00     0.002 A 
HETATM   23  C   UNL     1      23.059  -4.087  54.397  1.00  0.00     0.031 A 
ENDBRANCH  16  18
ENDBRANCH  14  16
ENDBRANCH   4  14
TORSDOF 3
ENDMDL
MODEL 10
REMARK VINA RESULT:     0.001     12.706     14.606
REMARK INTER + INTRA:          -0.756
REMARK INTER:                   0.000
REMARK INTRA:                  -0.756
REMARK UNBOUND:                -0.757
REMARK  3 active torsions:
REMARK  status: ('A' for Active; 'I' for Inactive)
REMARK    1  A    between atoms: C_4  and  N_6 
REMARK    2  A    between atoms: C_5  and  N_12 
REMARK    3  A    between atoms: N_6  and  N_12 
ROOT
HETATM    1  N   UNL     1      29.648  -0.973  47.591  1.00  0.00    -0.385 N 
ATOM      2  HN1 UNL     1      29.377  -1.049  46.610  1.00  0.00     0.157 HD
ATOM      3  HN2 UNL     1      29.483  -1.864  48.061  1.00  0.00     0.157 HD
HETATM    4  C   UNL     1      30.933   1.540  49.692  1.00  0.00     0.132 A 
HETATM    5  C   UNL     1      30.352   1.399  47.467  1.00  0.00     0.021 A 
HETATM    6  C   UNL     1      31.256   3.558  48.060  1.00  0.00     0.016 A 
HETATM    7  C   UNL     1      30.873   2.266  48.416  1.00  0.00     0.023 A 
HETATM    8  C   UNL     1      31.100   3.958  46.736  1.00  0.00     0.001 A 
HETATM    9  C   UNL     1      30.560   3.092  45.788  1.00  0.00     0.001 A 
HETATM   10  C   UNL     1      30.180   1.810  46.142  1.00  0.00     0.016 A 
HETATM   11  N   UNL     1      30.472   0.231  49.420  1.00  0.00    -0.327 N 
ATOM     12  HN  UNL     1      30.419  -0.525  50.102  1.00  0.00     0.169 HD
HETATM   13  C   UNL     1      30.117   0.132  48.135  1.00  0.00     0.111 A 
ENDROOT
BRANCH   4  14
HETATM   14  N   UNL     1      31.307   2.025  50.798  1.00  0.00    -0.284 N 
ATOM     15  HN  UNL     1      30.699   2.620  51.359  1.00  0.00     0.188 HD
BRANCH  14  16
HETATM   16  N   UNL     1      32.550   1.711  51.190  1.00  0.00    -0.299 N 
ATOM     17  HN  UNL     1      32.695   0.988  51.895  1.00  0.00     0.187 HD
BRANCH  16  18
HETATM   18  C   UNL     1      33.656   2.376  50.631  1.00  0.00     0.048 A 
HETATM   19  C   UNL     1      34.627   1.690  49.911  1.00  0.00     0.031 A 
HETATM   20  C   UNL     1      35.710   2.376  49.381  1.00  0.00     0.002 A 
HETATM   21  C   UNL     1      35.813   3.741  49.525  1.00  0.00     0.000 A 
HETATM   22  C   UNL     1      34.860   4.425  50.245  1.00  0.00     0.002 A 
HETATM   23  C   UNL     1      33.794   3.747  50.813  1.00  0.00     0.031 A 
ENDBRANCH  16  18
ENDBRANCH  14  16
ENDBRANCH   4  14
TORSDOF 3
ENDMDL
MODEL 11
REMARK VINA RESULT:     0.001     16.088     17.639
REMARK INTER + INTRA:          -0.755
REMARK INTER:                   0.000
REMARK INTRA:                  -0.755
REMARK UNBOUND:                -0.757
REMARK  3 active torsions:
REMARK  status: ('A' for Active; 'I' for Inactive)
REMARK    1  A    between atoms: C_4  and  N_6 
REMARK    2  A    between atoms: C_5  and  N_12 
REMARK    3  A    between atoms: N_6  and  N_12 
ROOT
HETATM    1  N   UNL     1      28.173   6.778  67.355  1.00  0.00    -0.385 N 
ATOM      2  HN1 UNL     1      27.225   7.007  67.057  1.00  0.00     0.157 HD
ATOM      3  HN2 UNL     1      28.283   5.765  67.400  1.00  0.00     0.157 HD
HETATM    4  C   UNL     1      31.055   8.573  68.280  1.00  0.00     0.132 A 
HETATM    5  C   UNL     1      28.929   9.126  67.587  1.00  0.00     0.021 A 
HETATM    6  C   UNL     1      30.329  11.062  67.939  1.00  0.00     0.016 A 
HETATM    7  C   UNL     1      30.146   9.680  67.956  1.00  0.00     0.023 A 
HETATM    8  C   UNL     1      29.265  11.870  67.550  1.00  0.00     0.001 A 
HETATM    9  C   UNL     1      28.038  11.313  67.196  1.00  0.00     0.001 A 
HETATM   10  C   UNL     1      27.857   9.942  67.213  1.00  0.00     0.016 A 
HETATM   11  N   UNL     1      30.327   7.385  68.042  1.00  0.00    -0.327 N 
ATOM     12  HN  UNL     1      30.695   6.440  68.151  1.00  0.00     0.169 HD
HETATM   13  C   UNL     1      29.085   7.685  67.650  1.00  0.00     0.111 A 
ENDROOT
BRANCH   4  14
HETATM   14  N   UNL     1      32.240   8.693  68.707  1.00  0.00    -0.284 N 
ATOM     15  HN  UNL     1      32.442   8.923  69.680  1.00  0.00     0.188 HD
BRANCH  14  16
HETATM   16  N   UNL     1      33.214   8.502  67.806  1.00  0.00    -0.299 N 
ATOM     17  HN  UNL     1      33.720   7.617  67.783  1.00  0.00     0.187 HD
BRANCH  16  18
HETATM   18  C   UNL     1      33.540   9.520  66.892  1.00  0.00     0.048 A 
HETATM   19  C   UNL     1      33.407   9.333  65.521  1.00  0.00     0.031 A 
HETATM   20  C   UNL     1      33.746  10.355  64.646  1.00  0.00     0.002 A 
HETATM   21  C   UNL     1      34.174  11.572  65.125  1.00  0.00     0.000 A 
HETATM   22  C   UNL     1      34.318  11.760  66.481  1.00  0.00     0.002 A 
HETATM   23  C   UNL     1      34.020  10.736  67.363  1.00  0.00     0.031 A 
ENDBRANCH  16  18
ENDBRANCH  14  16
ENDBRANCH   4  14
TORSDOF 3
ENDMDL
MODEL 12
REMARK VINA RESULT:     0.001      5.166      6.248
REMARK INTER + INTRA:          -0.755
REMARK INTER:                   0.000
REMARK INTRA:                  -0.755
REMARK UNBOUND:                -0.757
REMARK  3 active torsions:
REMARK  status: ('A' for Active; 'I' for Inactive)
REMARK    1  A    between atoms: C_4  and  N_6 
REMARK    2  A    between atoms: C_5  and  N_12 
REMARK    3  A    between atoms: N_6  and  N_12 
ROOT
HETATM    1  N   UNL     1      21.144   3.984  62.240  1.00  0.00    -0.385 N 
ATOM      2  HN1 UNL     1      20.873   3.260  62.905  1.00  0.00     0.157 HD
ATOM      3  HN2 UNL     1      20.670   4.858  62.474  1.00  0.00     0.157 HD
HETATM    4  C   UNL     1      23.213   4.193  59.402  1.00  0.00     0.132 A 
HETATM    5  C   UNL     1      22.641   2.537  60.898  1.00  0.00     0.021 A 
HETATM    6  C   UNL     1      24.244   1.795  59.252  1.00  0.00     0.016 A 
HETATM    7  C   UNL     1      23.425   2.790  59.782  1.00  0.00     0.023 A 
HETATM    8  C   UNL     1      24.252   0.543  59.862  1.00  0.00     0.001 A 
HETATM    9  C   UNL     1      23.451   0.286  60.972  1.00  0.00     0.001 A 
HETATM   10  C   UNL     1      22.639   1.275  61.499  1.00  0.00     0.016 A 
HETATM   11  N   UNL     1      22.322   4.728  60.360  1.00  0.00    -0.327 N 
ATOM     12  HN  UNL     1      21.999   5.696  60.384  1.00  0.00     0.169 HD
HETATM   13  C   UNL     1      21.967   3.779  61.232  1.00  0.00     0.111 A 
ENDROOT
BRANCH   4  14
HETATM   14  N   UNL     1      23.723   4.769  58.398  1.00  0.00    -0.284 N 
ATOM     15  HN  UNL     1      23.358   4.634  57.456  1.00  0.00     0.188 HD
BRANCH  14  16
HETATM   16  N   UNL     1      24.770   5.569  58.646  1.00  0.00    -0.299 N 
ATOM     17  HN  UNL     1      24.643   6.580  58.680  1.00  0.00     0.187 HD
BRANCH  16  18
HETATM   18  C   UNL     1      26.046   5.015  58.859  1.00  0.00     0.048 A 
HETATM   19  C   UNL     1      26.719   5.187  60.062  1.00  0.00     0.031 A 
HETATM   20  C   UNL     1      27.980   4.635  60.235  1.00  0.00     0.002 A 
HETATM   21  C   UNL     1      28.556   3.880  59.239  1.00  0.00     0.000 A 
HETATM   22  C   UNL     1      27.900   3.715  58.041  1.00  0.00     0.002 A 
HETATM   23  C   UNL     1      26.657   4.293  57.840  1.00  0.00     0.031 A 
ENDBRANCH  16  18
ENDBRANCH  14  16
ENDBRANCH   4  14
TORSDOF 3
ENDMDL
MODEL 13
REMARK VINA RESULT:     0.001      9.816     11.611
REMARK INTER + INTRA:          -0.755
REMARK INTER:                   0.000
REMARK INTRA:                  -0.755
REMARK UNBOUND:                -0.757
REMARK  3 active torsions:
REMARK  status: ('A' for Active; 'I' for Inactive)
REMARK    1  A    between atoms: C_4  and  N_6 
REMARK    2  A    between atoms: C_5  and  N_12 
REMARK    3  A    between atoms: N_6  and  N_12 
ROOT
HETATM    1  N   UNL     1      25.204   4.200  59.480  1.00  0.00    -0.385 N 
ATOM      2  HN1 UNL     1      25.501   3.411  60.055  1.00  0.00     0.157 HD
ATOM      3  HN2 UNL     1      24.717   3.856  58.652  1.00  0.00     0.157 HD
HETATM    4  C   UNL     1      25.478   7.705  59.628  1.00  0.00     0.132 A 
HETATM    5  C   UNL     1      26.144   5.949  60.962  1.00  0.00     0.021 A 
HETATM    6  C   UNL     1      26.699   8.101  61.906  1.00  0.00     0.016 A 
HETATM    7  C   UNL     1      26.148   7.334  60.881  1.00  0.00     0.023 A 
HETATM    8  C   UNL     1      27.248   7.448  63.006  1.00  0.00     0.001 A 
HETATM    9  C   UNL     1      27.259   6.057  63.078  1.00  0.00     0.001 A 
HETATM   10  C   UNL     1      26.711   5.296  62.060  1.00  0.00     0.016 A 
HETATM   11  N   UNL     1      25.062   6.492  59.032  1.00  0.00    -0.327 N 
ATOM     12  HN  UNL     1      24.543   6.417  58.157  1.00  0.00     0.169 HD
HETATM   13  C   UNL     1      25.451   5.459  59.785  1.00  0.00     0.111 A 
ENDROOT
BRANCH   4  14
HETATM   14  N   UNL     1      25.338   8.882  59.188  1.00  0.00    -0.284 N 
ATOM     15  HN  UNL     1      26.101   9.382  58.732  1.00  0.00     0.188 HD
BRANCH  14  16
HETATM   16  N   UNL     1      24.128   9.435  59.357  1.00  0.00    -0.299 N 
ATOM     17  HN  UNL     1      23.474   9.477  58.576  1.00  0.00     0.187 HD
BRANCH  16  18
HETATM   18  C   UNL     1      23.760   9.959  60.609  1.00  0.00     0.048 A 
HETATM   19  C   UNL     1      22.682   9.446  61.320  1.00  0.00     0.031 A 
HETATM   20  C   UNL     1      22.340   9.993  62.549  1.00  0.00     0.002 A 
HETATM   21  C   UNL     1      23.085  11.014  63.093  1.00  0.00     0.000 A 
HETATM   22  C   UNL     1      24.148  11.533  62.389  1.00  0.00     0.002 A 
HETATM   23  C   UNL     1      24.477  11.023  61.144  1.00  0.00     0.031 A 
ENDBRANCH  16  18
ENDBRANCH  14  16
ENDBRANCH   4  14
TORSDOF 3
ENDMDL
MODEL 14
REMARK VINA RESULT:     0.001      9.566     11.072
REMARK INTER + INTRA:          -0.755
REMARK INTER:                   0.000
REMARK INTRA:                  -0.755
REMARK UNBOUND:                -0.757
REMARK  3 active torsions:
REMARK  status: ('A' for Active; 'I' for Inactive)
REMARK    1  A    between atoms: C_4  and  N_6 
REMARK    2  A    between atoms: C_5  and  N_12 
REMARK    3  A    between atoms: N_6  and  N_12 
ROOT
HETATM    1  N   UNL     1      30.280   6.789  56.496  1.00  0.00    -0.385 N 
ATOM      2  HN1 UNL     1      31.122   7.300  56.759  1.00  0.00     0.157 HD
ATOM      3  HN2 UNL     1      29.459   7.371  56.666  1.00  0.00     0.157 HD
HETATM    4  C   UNL     1      29.531   3.596  55.220  1.00  0.00     0.132 A 
HETATM    5  C   UNL     1      31.457   4.729  55.785  1.00  0.00     0.021 A 
HETATM    6  C   UNL     1      31.896   2.534  54.879  1.00  0.00     0.016 A 
HETATM    7  C   UNL     1      30.998   3.525  55.268  1.00  0.00     0.023 A 
HETATM    8  C   UNL     1      33.260   2.776  55.024  1.00  0.00     0.001 A 
HETATM    9  C   UNL     1      33.718   3.978  55.558  1.00  0.00     0.001 A 
HETATM   10  C   UNL     1      32.826   4.962  55.944  1.00  0.00     0.016 A 
HETATM   11  N   UNL     1      29.186   4.887  55.682  1.00  0.00    -0.327 N 
ATOM     12  HN  UNL     1      28.236   5.253  55.743  1.00  0.00     0.169 HD
HETATM   13  C   UNL     1      30.290   5.557  56.028  1.00  0.00     0.111 A 
ENDROOT
BRANCH   4  14
HETATM   14  N   UNL     1      28.761   2.663  54.853  1.00  0.00    -0.284 N 
ATOM     15  HN  UNL     1      28.535   1.879  55.465  1.00  0.00     0.188 HD
BRANCH  14  16
HETATM   16  N   UNL     1      28.258   2.765  53.615  1.00  0.00    -0.299 N 
ATOM     17  HN  UNL     1      27.301   3.091  53.478  1.00  0.00     0.187 HD
BRANCH  16  18
HETATM   18  C   UNL     1      29.048   2.423  52.502  1.00  0.00     0.048 A 
HETATM   19  C   UNL     1      29.371   3.360  51.528  1.00  0.00     0.031 A 
HETATM   20  C   UNL     1      30.145   2.986  50.438  1.00  0.00     0.002 A 
HETATM   21  C   UNL     1      30.633   1.704  50.333  1.00  0.00     0.000 A 
HETATM   22  C   UNL     1      30.308   0.769  51.289  1.00  0.00     0.002 A 
HETATM   23  C   UNL     1      29.505   1.118  52.362  1.00  0.00     0.031 A 
ENDBRANCH  16  18
ENDBRANCH  14  16
ENDBRANCH   4  14
TORSDOF 3
ENDMDL
MODEL 15
REMARK VINA RESULT:     0.001      8.199      9.662
REMARK INTER + INTRA:          -0.755
REMARK INTER:                   0.000
REMARK INTRA:                  -0.755
REMARK UNBOUND:                -0.757
REMARK  3 active torsions:
REMARK  status: ('A' for Active; 'I' for Inactive)
REMARK    1  A    between atoms: C_4  and  N_6 
REMARK    2  A    between atoms: C_5  and  N_12 
REMARK    3  A    between atoms: N_6  and  N_12 
ROOT
HETATM    1  N   UNL     1      28.267   6.706  56.322  1.00  0.00    -0.385 N 
ATOM      2  HN1 UNL     1      29.109   7.217  56.586  1.00  0.00     0.157 HD
ATOM      3  HN2 UNL     1      27.446   7.287  56.493  1.00  0.00     0.157 HD
HETATM    4  C   UNL     1      27.519   3.513  55.046  1.00  0.00     0.132 A 
HETATM    5  C   UNL     1      29.444   4.645  55.611  1.00  0.00     0.021 A 
HETATM    6  C   UNL     1      29.883   2.450  54.705  1.00  0.00     0.016 A 
HETATM    7  C   UNL     1      28.985   3.442  55.095  1.00  0.00     0.023 A 
HETATM    8  C   UNL     1      31.247   2.692  54.850  1.00  0.00     0.001 A 
HETATM    9  C   UNL     1      31.706   3.894  55.385  1.00  0.00     0.001 A 
HETATM   10  C   UNL     1      30.813   4.878  55.771  1.00  0.00     0.016 A 
HETATM   11  N   UNL     1      27.173   4.803  55.509  1.00  0.00    -0.327 N 
ATOM     12  HN  UNL     1      26.223   5.169  55.569  1.00  0.00     0.169 HD
HETATM   13  C   UNL     1      28.277   5.473  55.854  1.00  0.00     0.111 A 
ENDROOT
BRANCH   4  14
HETATM   14  N   UNL     1      26.748   2.579  54.680  1.00  0.00    -0.284 N 
ATOM     15  HN  UNL     1      26.522   1.795  55.291  1.00  0.00     0.188 HD
BRANCH  14  16
HETATM   16  N   UNL     1      26.245   2.681  53.441  1.00  0.00    -0.299 N 
ATOM     17  HN  UNL     1      25.288   3.007  53.305  1.00  0.00     0.187 HD
BRANCH  16  18
HETATM   18  C   UNL     1      27.035   2.339  52.329  1.00  0.00     0.048 A 
HETATM   19  C   UNL     1      27.358   3.276  51.354  1.00  0.00     0.031 A 
HETATM   20  C   UNL     1      28.132   2.902  50.264  1.00  0.00     0.002 A 
HETATM   21  C   UNL     1      28.620   1.620  50.159  1.00  0.00     0.000 A 
HETATM   22  C   UNL     1      28.295   0.686  51.115  1.00  0.00     0.002 A 
HETATM   23  C   UNL     1      27.492   1.034  52.188  1.00  0.00     0.031 A 
ENDBRANCH  16  18
ENDBRANCH  14  16
ENDBRANCH   4  14
TORSDOF 3
ENDMDL
MODEL 16
REMARK VINA RESULT:     0.002      6.637      8.555
REMARK INTER + INTRA:          -0.755
REMARK INTER:                   0.000
REMARK INTRA:                  -0.755
REMARK UNBOUND:                -0.757
REMARK  3 active torsions:
REMARK  status: ('A' for Active; 'I' for Inactive)
REMARK    1  A    between atoms: C_4  and  N_6 
REMARK    2  A    between atoms: C_5  and  N_12 
REMARK    3  A    between atoms: N_6  and  N_12 
ROOT
HETATM    1  N   UNL     1      22.466   4.372  59.926  1.00  0.00    -0.385 N 
ATOM      2  HN1 UNL     1      22.968   3.574  59.538  1.00  0.00     0.157 HD
ATOM      3  HN2 UNL     1      23.110   5.154  60.051  1.00  0.00     0.157 HD
HETATM    4  C   UNL     1      19.169   5.055  60.948  1.00  0.00     0.132 A 
HETATM    5  C   UNL     1      20.266   3.239  60.050  1.00  0.00     0.021 A 
HETATM    6  C   UNL     1      17.907   2.838  60.374  1.00  0.00     0.016 A 
HETATM    7  C   UNL     1      19.018   3.673  60.475  1.00  0.00     0.023 A 
HETATM    8  C   UNL     1      18.079   1.561  59.845  1.00  0.00     0.001 A 
HETATM    9  C   UNL     1      19.335   1.121  59.435  1.00  0.00     0.001 A 
HETATM   10  C   UNL     1      20.438   1.951  59.535  1.00  0.00     0.016 A 
HETATM   11  N   UNL     1      20.524   5.397  60.737  1.00  0.00    -0.327 N 
ATOM     12  HN  UNL     1      20.938   6.306  60.942  1.00  0.00     0.169 HD
HETATM   13  C   UNL     1      21.182   4.351  60.228  1.00  0.00     0.111 A 
ENDROOT
BRANCH   4  14
HETATM   14  N   UNL     1      18.253   5.762  61.458  1.00  0.00    -0.284 N 
ATOM     15  HN  UNL     1      17.953   5.642  62.425  1.00  0.00     0.188 HD
BRANCH  14  16
HETATM   16  N   UNL     1      17.699   6.680  60.653  1.00  0.00    -0.299 N 
ATOM     17  HN  UNL     1      17.972   7.660  60.733  1.00  0.00     0.187 HD
BRANCH  16  18
HETATM   18  C   UNL     1      16.741   6.295  59.698  1.00  0.00     0.048 A 
HETATM   19  C   UNL     1      16.960   6.477  58.337  1.00  0.00     0.031 A 
HETATM   20  C   UNL     1      15.989   6.095  57.422  1.00  0.00     0.002 A 
HETATM   21  C   UNL     1      14.825   5.495  57.846  1.00  0.00     0.000 A 
HETATM   22  C   UNL     1      14.598   5.322  59.192  1.00  0.00     0.002 A 
HETATM   23  C   UNL     1      15.541   5.735  60.119  1.00  0.00     0.031 A 
ENDBRANCH  16  18
ENDBRANCH  14  16
ENDBRANCH   4  14
TORSDOF 3
ENDMDL
MODEL 17
REMARK VINA RESULT:     0.002      3.113      5.972
REMARK INTER + INTRA:          -0.755
REMARK INTER:                   0.000
REMARK INTRA:                  -0.755
REMARK UNBOUND:                -0.757
REMARK  3 active torsions:
REMARK  status: ('A' for Active; 'I' for Inactive)
REMARK    1  A    between atoms: C_4  and  N_6 
REMARK    2  A    between atoms: C_5  and  N_12 
REMARK    3  A    between atoms: N_6  and  N_12 
ROOT
HETATM    1  N   UNL     1      22.190  -0.907  54.681  1.00  0.00    -0.385 N 
ATOM      2  HN1 UNL     1      22.048  -0.952  53.672  1.00  0.00     0.157 HD
ATOM      3  HN2 UNL     1      22.875  -0.182  54.898  1.00  0.00     0.157 HD
HETATM    4  C   UNL     1      20.968  -2.612  57.505  1.00  0.00     0.132 A 
HETATM    5  C   UNL     1      20.605  -2.728  55.233  1.00  0.00     0.021 A 
HETATM    6  C   UNL     1      19.230  -4.274  56.478  1.00  0.00     0.016 A 
HETATM    7  C   UNL     1      20.210  -3.284  56.441  1.00  0.00     0.023 A 
HETATM    8  C   UNL     1      18.663  -4.695  55.278  1.00  0.00     0.001 A 
HETATM    9  C   UNL     1      19.073  -4.148  54.064  1.00  0.00     0.001 A 
HETATM   10  C   UNL     1      20.045  -3.165  54.029  1.00  0.00     0.016 A 
HETATM   11  N   UNL     1      21.765  -1.637  56.863  1.00  0.00    -0.327 N 
ATOM     12  HN  UNL     1      22.389  -0.985  57.338  1.00  0.00     0.169 HD
HETATM   13  C   UNL     1      21.579  -1.697  55.541  1.00  0.00     0.111 A 
ENDROOT
BRANCH   4  14
HETATM   14  N   UNL     1      20.911  -2.890  58.737  1.00  0.00    -0.284 N 
ATOM     15  HN  UNL     1      21.397  -3.696  59.131  1.00  0.00     0.188 HD
BRANCH  14  16
HETATM   16  N   UNL     1      20.176  -2.064  59.496  1.00  0.00    -0.299 N 
ATOM     17  HN  UNL     1      20.634  -1.356  60.069  1.00  0.00     0.187 HD
BRANCH  16  18
HETATM   18  C   UNL     1      18.774  -2.173  59.503  1.00  0.00     0.048 A 
HETATM   19  C   UNL     1      17.964  -1.125  59.081  1.00  0.00     0.031 A 
HETATM   20  C   UNL     1      16.583  -1.263  59.110  1.00  0.00     0.002 A 
HETATM   21  C   UNL     1      16.006  -2.445  59.513  1.00  0.00     0.000 A 
HETATM   22  C   UNL     1      16.802  -3.482  59.941  1.00  0.00     0.002 A 
HETATM   23  C   UNL     1      18.180  -3.345  59.955  1.00  0.00     0.031 A 
ENDBRANCH  16  18
ENDBRANCH  14  16
ENDBRANCH   4  14
TORSDOF 3
ENDMDL
MODEL 18
REMARK VINA RESULT:     0.002     14.036     15.669
REMARK INTER + INTRA:          -0.755
REMARK INTER:                   0.000
REMARK INTRA:                  -0.755
REMARK UNBOUND:                -0.757
REMARK  3 active torsions:
REMARK  status: ('A' for Active; 'I' for Inactive)
REMARK    1  A    between atoms: C_4  and  N_6 
REMARK    2  A    between atoms: C_5  and  N_12 
REMARK    3  A    between atoms: N_6  and  N_12 
ROOT
HETATM    1  N   UNL     1      33.234   3.958  53.774  1.00  0.00    -0.385 N 
ATOM      2  HN1 UNL     1      32.843   4.680  54.380  1.00  0.00     0.157 HD
ATOM      3  HN2 UNL     1      33.318   3.084  54.294  1.00  0.00     0.157 HD
HETATM    4  C   UNL     1      34.367   3.762  50.449  1.00  0.00     0.132 A 
HETATM    5  C   UNL     1      33.465   5.411  51.782  1.00  0.00     0.021 A 
HETATM    6  C   UNL     1      33.888   6.161  49.525  1.00  0.00     0.016 A 
HETATM    7  C   UNL     1      33.929   5.163  50.497  1.00  0.00     0.023 A 
HETATM    8  C   UNL     1      33.380   7.409  49.873  1.00  0.00     0.001 A 
HETATM    9  C   UNL     1      32.931   7.662  51.167  1.00  0.00     0.001 A 
HETATM   10  C   UNL     1      32.971   6.671  52.131  1.00  0.00     0.016 A 
HETATM   11  N   UNL     1      34.097   3.222  51.727  1.00  0.00    -0.327 N 
ATOM     12  HN  UNL     1      34.267   2.255  52.003  1.00  0.00     0.169 HD
HETATM   13  C   UNL     1      33.585   4.168  52.521  1.00  0.00     0.111 A 
ENDROOT
BRANCH   4  14
HETATM   14  N   UNL     1      34.897   3.190  49.453  1.00  0.00    -0.284 N 
ATOM     15  HN  UNL     1      35.877   3.330  49.209  1.00  0.00     0.188 HD
BRANCH  14  16
HETATM   16  N   UNL     1      34.095   2.389  48.737  1.00  0.00    -0.299 N 
ATOM     17  HN  UNL     1      34.144   1.378  48.859  1.00  0.00     0.187 HD
BRANCH  16  18
HETATM   18  C   UNL     1      33.185   2.942  47.817  1.00  0.00     0.048 A 
HETATM   19  C   UNL     1      31.814   2.764  47.958  1.00  0.00     0.031 A 
HETATM   20  C   UNL     1      30.945   3.314  47.027  1.00  0.00     0.002 A 
HETATM   21  C   UNL     1      31.426   4.074  45.984  1.00  0.00     0.000 A 
HETATM   22  C   UNL     1      32.783   4.245  45.833  1.00  0.00     0.002 A 
HETATM   23  C   UNL     1      33.664   3.668  46.733  1.00  0.00     0.031 A 
ENDBRANCH  16  18
ENDBRANCH  14  16
ENDBRANCH   4  14
TORSDOF 3
ENDMDL
MODEL 19
REMARK VINA RESULT:     0.002      7.170      9.660
REMARK INTER + INTRA:          -0.755
REMARK INTER:                   0.000
REMARK INTRA:                  -0.755
REMARK UNBOUND:                -0.757
REMARK  3 active torsions:
REMARK  status: ('A' for Active; 'I' for Inactive)
REMARK    1  A    between atoms: C_4  and  N_6 
REMARK    2  A    between atoms: C_5  and  N_12 
REMARK    3  A    between atoms: N_6  and  N_12 
ROOT
HETATM    1  N   UNL     1      26.753   0.589  54.945  1.00  0.00    -0.385 N 
ATOM      2  HN1 UNL     1      26.247  -0.290  54.838  1.00  0.00     0.157 HD
ATOM      3  HN2 UNL     1      27.293   0.571  55.811  1.00  0.00     0.157 HD
HETATM    4  C   UNL     1      27.051   3.592  53.136  1.00  0.00     0.132 A 
HETATM    5  C   UNL     1      25.911   1.610  52.851  1.00  0.00     0.021 A 
HETATM    6  C   UNL     1      25.592   3.144  51.013  1.00  0.00     0.016 A 
HETATM    7  C   UNL     1      26.151   2.839  52.252  1.00  0.00     0.023 A 
HETATM    8  C   UNL     1      24.785   2.192  50.394  1.00  0.00     0.001 A 
HETATM    9  C   UNL     1      24.531   0.966  51.004  1.00  0.00     0.001 A 
HETATM   10  C   UNL     1      25.088   0.664  52.234  1.00  0.00     0.016 A 
HETATM   11  N   UNL     1      27.341   2.736  54.222  1.00  0.00    -0.327 N 
ATOM     12  HN  UNL     1      27.964   2.963  54.998  1.00  0.00     0.169 HD
HETATM   13  C   UNL     1      26.678   1.584  54.082  1.00  0.00     0.111 A 
ENDROOT
BRANCH   4  14
HETATM   14  N   UNL     1      27.449   4.777  52.944  1.00  0.00    -0.284 N 
ATOM     15  HN  UNL     1      26.856   5.584  53.138  1.00  0.00     0.188 HD
BRANCH  14  16
HETATM   16  N   UNL     1      28.696   4.912  52.471  1.00  0.00    -0.299 N 
ATOM     17  HN  UNL     1      29.456   5.166  53.102  1.00  0.00     0.187 HD
BRANCH  16  18
HETATM   18  C   UNL     1      28.959   4.702  51.105  1.00  0.00     0.048 A 
HETATM   19  C   UNL     1      29.820   3.698  50.679  1.00  0.00     0.031 A 
HETATM   20  C   UNL     1      30.065   3.525  49.324  1.00  0.00     0.002 A 
HETATM   21  C   UNL     1      29.429   4.312  48.391  1.00  0.00     0.000 A 
HETATM   22  C   UNL     1      28.583   5.315  48.808  1.00  0.00     0.002 A 
HETATM   23  C   UNL     1      28.360   5.524  50.158  1.00  0.00     0.031 A 
ENDBRANCH  16  18
ENDBRANCH  14  16
ENDBRANCH   4  14
TORSDOF 3
ENDMDL
MODEL 20
REMARK VINA RESULT:     0.002      5.086      8.758
REMARK INTER + INTRA:          -0.755
REMARK INTER:                   0.000
REMARK INTRA:                  -0.755
REMARK UNBOUND:                -0.757
REMARK  3 active torsions:
REMARK  status: ('A' for Active; 'I' for Inactive)
REMARK    1  A    between atoms: C_4  and  N_6 
REMARK    2  A    between atoms: C_5  and  N_12 
REMARK    3  A    between atoms: N_6  and  N_12 
ROOT
HETATM    1  N   UNL     1      24.541   0.494  48.262  1.00  0.00    -0.385 N 
ATOM      2  HN1 UNL     1      25.381   0.436  47.686  1.00  0.00     0.157 HD
ATOM      3  HN2 UNL     1      23.765   0.036  47.784  1.00  0.00     0.157 HD
HETATM    4  C   UNL     1      23.683   1.881  51.380  1.00  0.00     0.132 A 
HETATM    5  C   UNL     1      25.604   1.749  50.115  1.00  0.00     0.021 A 
HETATM    6  C   UNL     1      25.957   2.849  52.236  1.00  0.00     0.016 A 
HETATM    7  C   UNL     1      25.112   2.219  51.324  1.00  0.00     0.023 A 
HETATM    8  C   UNL     1      27.300   3.001  51.903  1.00  0.00     0.001 A 
HETATM    9  C   UNL     1      27.789   2.546  50.681  1.00  0.00     0.001 A 
HETATM   10  C   UNL     1      26.950   1.919  49.777  1.00  0.00     0.016 A 
HETATM   11  N   UNL     1      23.401   1.174  50.189  1.00  0.00    -0.327 N 
ATOM     12  HN  UNL     1      22.492   0.780  49.943  1.00  0.00     0.169 HD
HETATM   13  C   UNL     1      24.500   1.098  49.434  1.00  0.00     0.111 A 
ENDROOT
BRANCH   4  14
HETATM   14  N   UNL     1      22.888   2.195  52.313  1.00  0.00    -0.284 N 
ATOM     15  HN  UNL     1      22.498   3.134  52.395  1.00  0.00     0.188 HD
BRANCH  14  16
HETATM   16  N   UNL     1      22.589   1.223  53.186  1.00  0.00    -0.299 N 
ATOM     17  HN  UNL     1      21.699   0.728  53.112  1.00  0.00     0.187 HD
BRANCH  16  18
HETATM   18  C   UNL     1      23.499   0.882  54.203  1.00  0.00     0.048 A 
HETATM   19  C   UNL     1      24.053  -0.390  54.283  1.00  0.00     0.031 A 
HETATM   20  C   UNL     1      24.941  -0.695  55.306  1.00  0.00     0.002 A 
HETATM   21  C   UNL     1      25.312   0.265  56.220  1.00  0.00     0.000 A 
HETATM   22  C   UNL     1      24.758   1.523  56.151  1.00  0.00     0.002 A 
HETATM   23  C   UNL     1      23.842   1.830  55.160  1.00  0.00     0.031 A 
ENDBRANCH  16  18
ENDBRANCH  14  16
ENDBRANCH   4  14
TORSDOF 3
ENDMDL
