MODEL 1
REMARK VINA RESULT:    -8.260      0.000      0.000
REMARK INTER + INTRA:          -9.504
REMARK INTER:                  -9.225
REMARK INTRA:                  -0.279
REMARK UNBOUND:                -0.279
REMARK  2 active torsions:
REMARK  status: ('A' for Active; 'I' for Inactive)
REMARK    1  A    between atoms: C_7  and  N_14 
REMARK    2  A    between atoms: S_10  and  N_13 
ROOT
HETATM    1  C   UNL     1      15.853  15.194  18.446  1.00  0.00     0.053 A 
HETATM    2  C   UNL     1      16.500  14.032  18.056  1.00  0.00     0.055 A 
HETATM    3  C   UNL     1      15.970  16.390  17.715  1.00  0.00     0.118 A 
HETATM    4  C   UNL     1      18.054  15.243  15.231  1.00  0.00     0.225 A 
HETATM    5  N   UNL     1      16.754  16.498  16.577  1.00  0.00    -0.276 N 
ATOM      6  HN  UNL     1      16.855  17.344  16.016  1.00  0.00     0.189 HD
HETATM    7  C   UNL     1      17.246  14.229  16.927  1.00  0.00     0.142 A 
HETATM    8  N   UNL     1      18.011  13.321  16.356  1.00  0.00    -0.283 N 
ATOM      9  HN  UNL     1      18.213  12.370  16.665  1.00  0.00     0.188 HD
HETATM   10  N   UNL     1      18.445  13.950  15.292  1.00  0.00    -0.293 N 
ATOM     11  HN  UNL     1      19.022  13.506  14.578  1.00  0.00     0.187 HD
HETATM   12  N   UNL     1      17.325  15.402  16.334  1.00  0.00    -0.231 N 
ENDROOT
BRANCH   3  13
HETATM   13  N   UNL     1      15.375  17.610  18.053  1.00  0.00    -0.364 N 
HETATM   14  C   UNL     1      13.996  17.550  18.593  1.00  0.00     0.140 C 
HETATM   15  C   UNL     1      13.300  18.916  18.655  1.00  0.00     0.127 C 
HETATM   16  N   UNL     1      14.183  19.835  19.403  1.00  0.00    -0.208 NA
HETATM   17  C   UNL     1      15.458  19.974  18.621  1.00  0.00     0.127 C 
HETATM   18  C   UNL     1      16.131  18.644  18.708  1.00  0.00     0.140 C 
BRANCH  16  19
HETATM   19  S   UNL     1      13.506  21.148  19.993  1.00  0.00     0.207 S 
HETATM   20  O   UNL     1      12.536  21.474  19.046  1.00  0.00    -0.212 OA
HETATM   21  C   UNL     1      14.765  22.401  20.226  1.00  0.00     0.180 C 
HETATM   22  O   UNL     1      13.213  20.698  21.305  1.00  0.00    -0.212 OA
ENDBRANCH  16  19
ENDBRANCH   3  13
TORSDOF 2
ENDMDL
MODEL 2
REMARK VINA RESULT:    -8.173      4.287      5.844
REMARK INTER + INTRA:          -9.407
REMARK INTER:                  -9.097
REMARK INTRA:                  -0.311
REMARK UNBOUND:                -0.279
REMARK  2 active torsions:
REMARK  status: ('A' for Active; 'I' for Inactive)
REMARK    1  A    between atoms: C_7  and  N_14 
REMARK    2  A    between atoms: S_10  and  N_13 
ROOT
HETATM    1  C   UNL     1      14.615  17.522  22.090  1.00  0.00     0.053 A 
HETATM    2  C   UNL     1      15.536  16.923  21.245  1.00  0.00     0.055 A 
HETATM    3  C   UNL     1      14.183  18.846  21.899  1.00  0.00     0.118 A 
HETATM    4  C   UNL     1      16.042  19.567  19.097  1.00  0.00     0.225 A 
HETATM    5  N   UNL     1      14.662  19.649  20.876  1.00  0.00    -0.276 N 
ATOM      6  HN  UNL     1      14.364  20.609  20.700  1.00  0.00     0.189 HD
HETATM    7  C   UNL     1      15.951  17.784  20.267  1.00  0.00     0.142 A 
HETATM    8  N   UNL     1      16.861  17.512  19.354  1.00  0.00    -0.283 N 
ATOM      9  HN  UNL     1      17.427  16.671  19.247  1.00  0.00     0.188 HD
HETATM   10  N   UNL     1      16.853  18.597  18.619  1.00  0.00    -0.293 N 
ATOM     11  HN  UNL     1      17.406  18.699  17.768  1.00  0.00     0.187 HD
HETATM   12  N   UNL     1      15.517  19.025  20.193  1.00  0.00    -0.231 N 
ENDROOT
BRANCH   3  13
HETATM   13  N   UNL     1      13.281  19.532  22.719  1.00  0.00    -0.364 N 
HETATM   14  C   UNL     1      13.237  19.126  24.144  1.00  0.00     0.140 C 
HETATM   15  C   UNL     1      12.034  19.694  24.909  1.00  0.00     0.127 C 
HETATM   16  N   UNL     1      12.032  21.159  24.717  1.00  0.00    -0.208 NA
HETATM   17  C   UNL     1      11.846  21.423  23.250  1.00  0.00     0.127 C 
HETATM   18  C   UNL     1      13.101  20.953  22.592  1.00  0.00     0.140 C 
BRANCH  16  19
HETATM   19  S   UNL     1      11.183  22.011  25.757  1.00  0.00     0.207 S 
HETATM   20  O   UNL     1      11.769  21.711  26.986  1.00  0.00    -0.212 OA
HETATM   21  C   UNL     1       9.459  21.546  25.624  1.00  0.00     0.180 C 
HETATM   22  O   UNL     1      11.251  23.284  25.136  1.00  0.00    -0.212 OA
ENDBRANCH  16  19
ENDBRANCH   3  13
TORSDOF 2
ENDMDL
MODEL 3
REMARK VINA RESULT:    -7.954      4.250      6.014
REMARK INTER + INTRA:          -9.163
REMARK INTER:                  -8.860
REMARK INTRA:                  -0.303
REMARK UNBOUND:                -0.279
REMARK  2 active torsions:
REMARK  status: ('A' for Active; 'I' for Inactive)
REMARK    1  A    between atoms: C_7  and  N_14 
REMARK    2  A    between atoms: S_10  and  N_13 
ROOT
HETATM    1  C   UNL     1      14.757  17.694  21.925  1.00  0.00     0.053 A 
HETATM    2  C   UNL     1      15.449  17.164  20.848  1.00  0.00     0.055 A 
HETATM    3  C   UNL     1      14.311  19.027  21.939  1.00  0.00     0.118 A 
HETATM    4  C   UNL     1      15.483  19.965  18.844  1.00  0.00     0.225 A 
HETATM    5  N   UNL     1      14.552  19.907  20.895  1.00  0.00    -0.276 N 
ATOM      6  HN  UNL     1      14.236  20.877  20.866  1.00  0.00     0.189 HD
HETATM    7  C   UNL     1      15.639  18.098  19.867  1.00  0.00     0.142 A 
HETATM    8  N   UNL     1      16.310  17.899  18.751  1.00  0.00    -0.283 N 
ATOM      9  HN  UNL     1      16.824  17.071  18.453  1.00  0.00     0.188 HD
HETATM   10  N   UNL     1      16.148  19.037  18.121  1.00  0.00    -0.293 N 
ATOM     11  HN  UNL     1      16.491  19.205  17.175  1.00  0.00     0.187 HD
HETATM   12  N   UNL     1      15.217  19.339  19.989  1.00  0.00    -0.231 N 
ENDROOT
BRANCH   3  13
HETATM   13  N   UNL     1      13.633  19.646  22.994  1.00  0.00    -0.364 N 
HETATM   14  C   UNL     1      13.507  21.122  22.928  1.00  0.00     0.140 C 
HETATM   15  C   UNL     1      13.031  21.757  24.242  1.00  0.00     0.127 C 
HETATM   16  N   UNL     1      11.780  21.079  24.641  1.00  0.00    -0.208 NA
HETATM   17  C   UNL     1      12.109  19.634  24.890  1.00  0.00     0.127 C 
HETATM   18  C   UNL     1      12.444  19.061  23.553  1.00  0.00     0.140 C 
BRANCH  16  19
HETATM   19  S   UNL     1      10.862  21.842  25.691  1.00  0.00     0.207 S 
HETATM   20  O   UNL     1      11.577  21.748  26.885  1.00  0.00    -0.212 OA
HETATM   21  C   UNL     1       9.249  21.065  25.730  1.00  0.00     0.180 C 
HETATM   22  O   UNL     1      10.650  23.055  24.988  1.00  0.00    -0.212 OA
ENDBRANCH  16  19
ENDBRANCH   3  13
TORSDOF 2
ENDMDL
MODEL 4
REMARK VINA RESULT:    -7.778      5.959      7.926
REMARK INTER + INTRA:          -8.966
REMARK INTER:                  -8.656
REMARK INTRA:                  -0.311
REMARK UNBOUND:                -0.279
REMARK  2 active torsions:
REMARK  status: ('A' for Active; 'I' for Inactive)
REMARK    1  A    between atoms: C_7  and  N_14 
REMARK    2  A    between atoms: S_10  and  N_13 
ROOT
HETATM    1  C   UNL     1      13.363  15.192  19.289  1.00  0.00     0.053 A 
HETATM    2  C   UNL     1      13.389  16.556  19.044  1.00  0.00     0.055 A 
HETATM    3  C   UNL     1      14.393  14.339  18.852  1.00  0.00     0.118 A 
HETATM    4  C   UNL     1      16.379  16.704  17.338  1.00  0.00     0.225 A 
HETATM    5  N   UNL     1      15.485  14.793  18.130  1.00  0.00    -0.276 N 
ATOM      6  HN  UNL     1      16.254  14.206  17.806  1.00  0.00     0.189 HD
HETATM    7  C   UNL     1      14.500  16.914  18.330  1.00  0.00     0.142 A 
HETATM    8  N   UNL     1      14.767  18.132  17.905  1.00  0.00    -0.283 N 
ATOM      9  HN  UNL     1      14.199  18.976  17.984  1.00  0.00     0.188 HD
HETATM   10  N   UNL     1      15.946  17.984  17.354  1.00  0.00    -0.293 N 
ATOM     11  HN  UNL     1      16.487  18.762  16.974  1.00  0.00     0.187 HD
HETATM   12  N   UNL     1      15.392  16.033  17.930  1.00  0.00    -0.231 N 
ENDROOT
BRANCH   3  13
HETATM   13  N   UNL     1      14.429  12.952  19.033  1.00  0.00    -0.364 N 
HETATM   14  C   UNL     1      13.125  12.247  19.029  1.00  0.00     0.140 C 
HETATM   15  C   UNL     1      13.208  10.798  19.529  1.00  0.00     0.127 C 
HETATM   16  N   UNL     1      14.249  10.110  18.738  1.00  0.00    -0.208 NA
HETATM   17  C   UNL     1      15.556  10.797  19.017  1.00  0.00     0.127 C 
HETATM   18  C   UNL     1      15.440  12.151  18.399  1.00  0.00     0.140 C 
BRANCH  16  19
HETATM   19  S   UNL     1      14.210   8.520  18.741  1.00  0.00     0.207 S 
HETATM   20  O   UNL     1      13.021   8.218  18.077  1.00  0.00    -0.212 OA
HETATM   21  C   UNL     1      14.283   7.937  20.433  1.00  0.00     0.180 C 
HETATM   22  O   UNL     1      15.500   8.247  18.221  1.00  0.00    -0.212 OA
ENDBRANCH  16  19
ENDBRANCH   3  13
TORSDOF 2
ENDMDL
MODEL 5
REMARK VINA RESULT:    -7.678      5.865      7.943
REMARK INTER + INTRA:          -8.854
REMARK INTER:                  -8.552
REMARK INTRA:                  -0.302
REMARK UNBOUND:                -0.279
REMARK  2 active torsions:
REMARK  status: ('A' for Active; 'I' for Inactive)
REMARK    1  A    between atoms: C_7  and  N_14 
REMARK    2  A    between atoms: S_10  and  N_13 
ROOT
HETATM    1  C   UNL     1      16.894  14.421  17.481  1.00  0.00     0.053 A 
HETATM    2  C   UNL     1      17.129  15.741  17.128  1.00  0.00     0.055 A 
HETATM    3  C   UNL     1      15.737  14.034  18.181  1.00  0.00     0.118 A 
HETATM    4  C   UNL     1      14.270  17.133  18.453  1.00  0.00     0.225 A 
HETATM    5  N   UNL     1      14.770  14.940  18.587  1.00  0.00    -0.276 N 
ATOM      6  HN  UNL     1      13.914  14.695  19.086  1.00  0.00     0.189 HD
HETATM    7  C   UNL     1      16.126  16.561  17.565  1.00  0.00     0.142 A 
HETATM    8  N   UNL     1      16.103  17.871  17.424  1.00  0.00    -0.283 N 
ATOM      9  HN  UNL     1      16.815  18.484  17.028  1.00  0.00     0.188 HD
HETATM   10  N   UNL     1      14.933  18.186  17.923  1.00  0.00    -0.293 N 
ATOM     11  HN  UNL     1      14.557  19.134  17.911  1.00  0.00     0.187 HD
HETATM   12  N   UNL     1      15.097  16.109  18.252  1.00  0.00    -0.231 N 
ENDROOT
BRANCH   3  13
HETATM   13  N   UNL     1      15.438  12.733  18.599  1.00  0.00    -0.364 N 
HETATM   14  C   UNL     1      14.018  12.316  18.508  1.00  0.00     0.140 C 
HETATM   15  C   UNL     1      13.713  11.010  19.254  1.00  0.00     0.127 C 
HETATM   16  N   UNL     1      14.657   9.984  18.767  1.00  0.00    -0.208 NA
HETATM   17  C   UNL     1      16.043  10.438  19.127  1.00  0.00     0.127 C 
HETATM   18  C   UNL     1      16.309  11.635  18.278  1.00  0.00     0.140 C 
BRANCH  16  19
HETATM   19  S   UNL     1      14.259   8.467  19.034  1.00  0.00     0.207 S 
HETATM   20  O   UNL     1      13.162   8.262  18.199  1.00  0.00    -0.212 OA
HETATM   21  C   UNL     1      13.914   8.253  20.779  1.00  0.00     0.180 C 
HETATM   22  O   UNL     1      15.523   7.852  18.849  1.00  0.00    -0.212 OA
ENDBRANCH  16  19
ENDBRANCH   3  13
TORSDOF 2
ENDMDL
MODEL 6
REMARK VINA RESULT:    -7.648      4.305      7.290
REMARK INTER + INTRA:          -8.821
REMARK INTER:                  -8.550
REMARK INTRA:                  -0.271
REMARK UNBOUND:                -0.279
REMARK  2 active torsions:
REMARK  status: ('A' for Active; 'I' for Inactive)
REMARK    1  A    between atoms: C_7  and  N_14 
REMARK    2  A    between atoms: S_10  and  N_13 
ROOT
HETATM    1  C   UNL     1      14.788  17.829  21.585  1.00  0.00     0.053 A 
HETATM    2  C   UNL     1      14.233  18.904  22.262  1.00  0.00     0.055 A 
HETATM    3  C   UNL     1      15.158  17.915  20.230  1.00  0.00     0.118 A 
HETATM    4  C   UNL     1      14.243  21.185  19.681  1.00  0.00     0.225 A 
HETATM    5  N   UNL     1      14.972  19.063  19.475  1.00  0.00    -0.276 N 
ATOM      6  HN  UNL     1      15.237  19.165  18.495  1.00  0.00     0.189 HD
HETATM    7  C   UNL     1      14.090  19.990  21.443  1.00  0.00     0.142 A 
HETATM    8  N   UNL     1      13.542  21.136  21.794  1.00  0.00    -0.283 N 
ATOM      9  HN  UNL     1      13.105  21.391  22.679  1.00  0.00     0.188 HD
HETATM   10  N   UNL     1      13.703  21.864  20.717  1.00  0.00    -0.293 N 
ATOM     11  HN  UNL     1      13.445  22.850  20.666  1.00  0.00     0.187 HD
HETATM   12  N   UNL     1      14.430  19.961  20.172  1.00  0.00    -0.231 N 
ENDROOT
BRANCH   3  13
HETATM   13  N   UNL     1      15.696  16.873  19.468  1.00  0.00    -0.364 N 
HETATM   14  C   UNL     1      17.172  16.842  19.331  1.00  0.00     0.140 C 
HETATM   15  C   UNL     1      17.669  15.873  18.251  1.00  0.00     0.127 C 
HETATM   16  N   UNL     1      17.079  14.548  18.532  1.00  0.00    -0.208 NA
HETATM   17  C   UNL     1      15.587  14.684  18.415  1.00  0.00     0.127 C 
HETATM   18  C   UNL     1      15.168  15.539  19.564  1.00  0.00     0.140 C 
BRANCH  16  19
HETATM   19  S   UNL     1      17.785  13.296  17.850  1.00  0.00     0.207 S 
HETATM   20  O   UNL     1      17.954  13.695  16.524  1.00  0.00    -0.212 OA
HETATM   21  C   UNL     1      16.747  11.852  18.063  1.00  0.00     0.180 C 
HETATM   22  O   UNL     1      18.852  13.098  18.761  1.00  0.00    -0.212 OA
ENDBRANCH  16  19
ENDBRANCH   3  13
TORSDOF 2
ENDMDL
MODEL 7
REMARK VINA RESULT:    -7.607      1.806      2.253
REMARK INTER + INTRA:          -8.776
REMARK INTER:                  -8.503
REMARK INTRA:                  -0.273
REMARK UNBOUND:                -0.279
REMARK  2 active torsions:
REMARK  status: ('A' for Active; 'I' for Inactive)
REMARK    1  A    between atoms: C_7  and  N_14 
REMARK    2  A    between atoms: S_10  and  N_13 
ROOT
HETATM    1  C   UNL     1      13.894  15.223  19.080  1.00  0.00     0.053 A 
HETATM    2  C   UNL     1      14.091  13.899  18.721  1.00  0.00     0.055 A 
HETATM    3  C   UNL     1      14.919  16.181  18.976  1.00  0.00     0.118 A 
HETATM    4  C   UNL     1      17.386  14.127  17.741  1.00  0.00     0.225 A 
HETATM    5  N   UNL     1      16.195  15.867  18.535  1.00  0.00    -0.276 N 
ATOM      6  HN  UNL     1      16.959  16.536  18.438  1.00  0.00     0.189 HD
HETATM    7  C   UNL     1      15.373  13.681  18.297  1.00  0.00     0.142 A 
HETATM    8  N   UNL     1      15.867  12.511  17.945  1.00  0.00    -0.283 N 
ATOM      9  HN  UNL     1      15.419  11.595  17.970  1.00  0.00     0.188 HD
HETATM   10  N   UNL     1      17.078  12.824  17.555  1.00  0.00    -0.293 N 
ATOM     11  HN  UNL     1      17.726  12.149  17.150  1.00  0.00     0.187 HD
HETATM   12  N   UNL     1      16.277  14.638  18.273  1.00  0.00    -0.231 N 
ENDROOT
BRANCH   3  13
HETATM   13  N   UNL     1      14.812  17.527  19.342  1.00  0.00    -0.364 N 
HETATM   14  C   UNL     1      14.578  18.497  18.245  1.00  0.00     0.140 C 
HETATM   15  C   UNL     1      14.773  19.960  18.667  1.00  0.00     0.127 C 
HETATM   16  N   UNL     1      13.926  20.201  19.854  1.00  0.00    -0.208 NA
HETATM   17  C   UNL     1      14.424  19.307  20.953  1.00  0.00     0.127 C 
HETATM   18  C   UNL     1      14.092  17.916  20.524  1.00  0.00     0.140 C 
BRANCH  16  19
HETATM   19  S   UNL     1      13.599  21.719  20.197  1.00  0.00     0.207 S 
HETATM   20  O   UNL     1      14.856  22.318  20.275  1.00  0.00    -0.212 OA
HETATM   21  C   UNL     1      12.651  21.784  21.715  1.00  0.00     0.180 C 
HETATM   22  O   UNL     1      12.652  21.996  19.180  1.00  0.00    -0.212 OA
ENDBRANCH  16  19
ENDBRANCH   3  13
TORSDOF 2
ENDMDL
MODEL 8
REMARK VINA RESULT:    -7.607      4.164      6.070
REMARK INTER + INTRA:          -8.775
REMARK INTER:                  -8.474
REMARK INTRA:                  -0.301
REMARK UNBOUND:                -0.279
REMARK  2 active torsions:
REMARK  status: ('A' for Active; 'I' for Inactive)
REMARK    1  A    between atoms: C_7  and  N_14 
REMARK    2  A    between atoms: S_10  and  N_13 
ROOT
HETATM    1  C   UNL     1      14.484  20.708  20.232  1.00  0.00     0.053 A 
HETATM    2  C   UNL     1      15.418  20.304  19.291  1.00  0.00     0.055 A 
HETATM    3  C   UNL     1      14.099  19.878  21.300  1.00  0.00     0.118 A 
HETATM    4  C   UNL     1      16.090  17.172  20.559  1.00  0.00     0.225 A 
HETATM    5  N   UNL     1      14.602  18.597  21.472  1.00  0.00    -0.276 N 
ATOM      6  HN  UNL     1      14.354  17.972  22.238  1.00  0.00     0.189 HD
HETATM    7  C   UNL     1      15.861  19.034  19.539  1.00  0.00     0.142 A 
HETATM    8  N   UNL     1      16.709  18.366  18.783  1.00  0.00    -0.283 N 
ATOM      9  HN  UNL     1      17.129  18.642  17.896  1.00  0.00     0.188 HD
HETATM   10  N   UNL     1      16.874  17.257  19.461  1.00  0.00    -0.293 N 
ATOM     11  HN  UNL     1      17.532  16.528  19.187  1.00  0.00     0.187 HD
HETATM   12  N   UNL     1      15.409  18.316  20.546  1.00  0.00    -0.231 N 
ENDROOT
BRANCH   3  13
HETATM   13  N   UNL     1      13.146  20.196  22.274  1.00  0.00    -0.364 N 
HETATM   14  C   UNL     1      13.485  19.848  23.674  1.00  0.00     0.140 C 
HETATM   15  C   UNL     1      12.293  19.942  24.636  1.00  0.00     0.127 C 
HETATM   16  N   UNL     1      11.707  21.290  24.493  1.00  0.00    -0.208 NA
HETATM   17  C   UNL     1      11.205  21.418  23.083  1.00  0.00     0.127 C 
HETATM   18  C   UNL     1      12.424  21.438  22.221  1.00  0.00     0.140 C 
BRANCH  16  19
HETATM   19  S   UNL     1      10.774  21.789  25.681  1.00  0.00     0.207 S 
HETATM   20  O   UNL     1      11.625  21.804  26.785  1.00  0.00    -0.212 OA
HETATM   21  C   UNL     1       9.379  20.677  25.835  1.00  0.00     0.180 C 
HETATM   22  O   UNL     1      10.229  22.954  25.084  1.00  0.00    -0.212 OA
ENDBRANCH  16  19
ENDBRANCH   3  13
TORSDOF 2
ENDMDL
MODEL 9
REMARK VINA RESULT:    -7.200      5.167      7.188
REMARK INTER + INTRA:          -8.321
REMARK INTER:                  -8.041
REMARK INTRA:                  -0.280
REMARK UNBOUND:                -0.279
REMARK  2 active torsions:
REMARK  status: ('A' for Active; 'I' for Inactive)
REMARK    1  A    between atoms: C_7  and  N_14 
REMARK    2  A    between atoms: S_10  and  N_13 
ROOT
HETATM    1  C   UNL     1      17.333  16.143  19.286  1.00  0.00     0.053 A 
HETATM    2  C   UNL     1      17.657  17.487  19.391  1.00  0.00     0.055 A 
HETATM    3  C   UNL     1      16.314  15.689  18.430  1.00  0.00     0.118 A 
HETATM    4  C   UNL     1      15.365  18.734  17.142  1.00  0.00     0.225 A 
HETATM    5  N   UNL     1      15.550  16.548  17.656  1.00  0.00    -0.276 N 
ATOM      6  HN  UNL     1      14.810  16.254  17.017  1.00  0.00     0.189 HD
HETATM    7  C   UNL     1      16.858  18.258  18.592  1.00  0.00     0.142 A 
HETATM    8  N   UNL     1      16.897  19.573  18.525  1.00  0.00    -0.283 N 
ATOM      9  HN  UNL     1      17.468  20.224  19.064  1.00  0.00     0.188 HD
HETATM   10  N   UNL     1      16.016  19.831  17.589  1.00  0.00    -0.293 N 
ATOM     11  HN  UNL     1      15.840  20.770  17.233  1.00  0.00     0.187 HD
HETATM   12  N   UNL     1      15.898  17.742  17.853  1.00  0.00    -0.231 N 
ENDROOT
BRANCH   3  13
HETATM   13  N   UNL     1      15.906  14.359  18.287  1.00  0.00    -0.364 N 
HETATM   14  C   UNL     1      16.972  13.330  18.323  1.00  0.00     0.140 C 
HETATM   15  C   UNL     1      16.504  11.943  17.862  1.00  0.00     0.127 C 
HETATM   16  N   UNL     1      15.315  11.583  18.662  1.00  0.00    -0.208 NA
HETATM   17  C   UNL     1      14.241  12.587  18.352  1.00  0.00     0.127 C 
HETATM   18  C   UNL     1      14.715  13.877  18.933  1.00  0.00     0.140 C 
BRANCH  16  19
HETATM   19  S   UNL     1      14.925  10.041  18.702  1.00  0.00     0.207 S 
HETATM   20  O   UNL     1      15.064   9.631  17.376  1.00  0.00    -0.212 OA
HETATM   21  C   UNL     1      13.268   9.874  19.360  1.00  0.00     0.180 C 
HETATM   22  O   UNL     1      15.767   9.610  19.758  1.00  0.00    -0.212 OA
ENDBRANCH  16  19
ENDBRANCH   3  13
TORSDOF 2
ENDMDL
MODEL 10
REMARK VINA RESULT:    -7.195      6.149      9.750
REMARK INTER + INTRA:          -8.316
REMARK INTER:                  -8.012
REMARK INTRA:                  -0.304
REMARK UNBOUND:                -0.279
REMARK  2 active torsions:
REMARK  status: ('A' for Active; 'I' for Inactive)
REMARK    1  A    between atoms: C_7  and  N_14 
REMARK    2  A    between atoms: S_10  and  N_13 
ROOT
HETATM    1  C   UNL     1      10.776  19.095  25.318  1.00  0.00     0.053 A 
HETATM    2  C   UNL     1       9.752  18.866  26.224  1.00  0.00     0.055 A 
HETATM    3  C   UNL     1      10.790  20.227  24.483  1.00  0.00     0.118 A 
HETATM    4  C   UNL     1       7.857  21.665  25.558  1.00  0.00     0.225 A 
HETATM    5  N   UNL     1       9.777  21.173  24.488  1.00  0.00    -0.276 N 
ATOM      6  HN  UNL     1       9.759  22.010  23.904  1.00  0.00     0.189 HD
HETATM    7  C   UNL     1       8.801  19.848  26.162  1.00  0.00     0.142 A 
HETATM    8  N   UNL     1       7.687  19.869  26.864  1.00  0.00    -0.283 N 
ATOM      9  HN  UNL     1       7.327  19.168  27.513  1.00  0.00     0.188 HD
HETATM   10  N   UNL     1       7.160  21.017  26.519  1.00  0.00    -0.293 N 
ATOM     11  HN  UNL     1       6.305  21.387  26.935  1.00  0.00     0.187 HD
HETATM   12  N   UNL     1       8.883  20.852  25.314  1.00  0.00    -0.231 N 
ENDROOT
BRANCH   3  13
HETATM   13  N   UNL     1      11.768  20.517  23.526  1.00  0.00    -0.364 N 
HETATM   14  C   UNL     1      12.662  19.403  23.129  1.00  0.00     0.140 C 
HETATM   15  C   UNL     1      13.885  19.854  22.320  1.00  0.00     0.127 C 
HETATM   16  N   UNL     1      13.396  20.649  21.174  1.00  0.00    -0.208 NA
HETATM   17  C   UNL     1      12.704  21.862  21.729  1.00  0.00     0.127 C 
HETATM   18  C   UNL     1      11.470  21.354  22.395  1.00  0.00     0.140 C 
BRANCH  16  19
HETATM   19  S   UNL     1      14.403  20.836  19.958  1.00  0.00     0.207 S 
HETATM   20  O   UNL     1      13.600  20.647  18.833  1.00  0.00    -0.212 OA
HETATM   21  C   UNL     1      15.742  19.658  20.120  1.00  0.00     0.180 C 
HETATM   22  O   UNL     1      14.984  22.078  20.317  1.00  0.00    -0.212 OA
ENDBRANCH  16  19
ENDBRANCH   3  13
TORSDOF 2
ENDMDL
MODEL 11
REMARK VINA RESULT:    -7.145      3.652      4.585
REMARK INTER + INTRA:          -8.259
REMARK INTER:                  -7.951
REMARK INTRA:                  -0.308
REMARK UNBOUND:                -0.279
REMARK  2 active torsions:
REMARK  status: ('A' for Active; 'I' for Inactive)
REMARK    1  A    between atoms: C_7  and  N_14 
REMARK    2  A    between atoms: S_10  and  N_13 
ROOT
HETATM    1  C   UNL     1      15.493  12.579  17.915  1.00  0.00     0.053 A 
HETATM    2  C   UNL     1      15.289  11.210  17.852  1.00  0.00     0.055 A 
HETATM    3  C   UNL     1      14.656  13.421  18.669  1.00  0.00     0.118 A 
HETATM    4  C   UNL     1      12.517  11.019  19.888  1.00  0.00     0.225 A 
HETATM    5  N   UNL     1      13.561  12.949  19.376  1.00  0.00    -0.276 N 
ATOM      6  HN  UNL     1      12.938  13.528  19.941  1.00  0.00     0.189 HD
HETATM    7  C   UNL     1      14.193  10.834  18.579  1.00  0.00     0.142 A 
HETATM    8  N   UNL     1      13.724   9.605  18.661  1.00  0.00    -0.283 N 
ATOM      9  HN  UNL     1      14.047   8.764  18.183  1.00  0.00     0.188 HD
HETATM   10  N   UNL     1      12.737   9.739  19.512  1.00  0.00    -0.293 N 
ATOM     11  HN  UNL     1      12.187   8.953  19.859  1.00  0.00     0.187 HD
HETATM   12  N   UNL     1      13.444  11.705  19.222  1.00  0.00    -0.231 N 
ENDROOT
BRANCH   3  13
HETATM   13  N   UNL     1      14.774  14.812  18.762  1.00  0.00    -0.364 N 
HETATM   14  C   UNL     1      15.759  15.457  17.861  1.00  0.00     0.140 C 
HETATM   15  C   UNL     1      16.056  16.919  18.221  1.00  0.00     0.127 C 
HETATM   16  N   UNL     1      14.766  17.635  18.288  1.00  0.00    -0.208 NA
HETATM   17  C   UNL     1      13.961  17.015  19.395  1.00  0.00     0.127 C 
HETATM   18  C   UNL     1      13.612  15.644  18.921  1.00  0.00     0.140 C 
BRANCH  16  19
HETATM   19  S   UNL     1      14.827  19.221  18.189  1.00  0.00     0.207 S 
HETATM   20  O   UNL     1      15.332  19.453  16.909  1.00  0.00    -0.212 OA
HETATM   21  C   UNL     1      15.853  19.851  19.515  1.00  0.00     0.180 C 
HETATM   22  O   UNL     1      13.505  19.538  18.588  1.00  0.00    -0.212 OA
ENDBRANCH  16  19
ENDBRANCH   3  13
TORSDOF 2
ENDMDL
MODEL 12
REMARK VINA RESULT:    -7.106      4.844      7.172
REMARK INTER + INTRA:          -8.216
REMARK INTER:                  -7.920
REMARK INTRA:                  -0.296
REMARK UNBOUND:                -0.279
REMARK  2 active torsions:
REMARK  status: ('A' for Active; 'I' for Inactive)
REMARK    1  A    between atoms: C_7  and  N_14 
REMARK    2  A    between atoms: S_10  and  N_13 
ROOT
HETATM    1  C   UNL     1      13.453  17.221  18.612  1.00  0.00     0.053 A 
HETATM    2  C   UNL     1      13.258  18.593  18.666  1.00  0.00     0.055 A 
HETATM    3  C   UNL     1      14.704  16.638  18.881  1.00  0.00     0.118 A 
HETATM    4  C   UNL     1      16.458  19.522  19.539  1.00  0.00     0.225 A 
HETATM    5  N   UNL     1      15.828  17.387  19.191  1.00  0.00    -0.276 N 
ATOM      6  HN  UNL     1      16.747  16.998  19.402  1.00  0.00     0.189 HD
HETATM    7  C   UNL     1      14.415  19.250  18.980  1.00  0.00     0.142 A 
HETATM    8  N   UNL     1      14.549  20.559  19.049  1.00  0.00    -0.283 N 
ATOM      9  HN  UNL     1      13.861  21.283  18.843  1.00  0.00     0.188 HD
HETATM   10  N   UNL     1      15.789  20.693  19.449  1.00  0.00    -0.293 N 
ATOM     11  HN  UNL     1      16.210  21.596  19.671  1.00  0.00     0.187 HD
HETATM   12  N   UNL     1      15.552  18.616  19.176  1.00  0.00    -0.231 N 
ENDROOT
BRANCH   3  13
HETATM   13  N   UNL     1      14.991  15.270  18.822  1.00  0.00    -0.364 N 
HETATM   14  C   UNL     1      13.836  14.344  18.909  1.00  0.00     0.140 C 
HETATM   15  C   UNL     1      14.238  12.881  19.143  1.00  0.00     0.127 C 
HETATM   16  N   UNL     1      15.209  12.510  18.093  1.00  0.00    -0.208 NA
HETATM   17  C   UNL     1      16.420  13.381  18.269  1.00  0.00     0.127 C 
HETATM   18  C   UNL     1      15.980  14.761  17.910  1.00  0.00     0.140 C 
BRANCH  16  19
HETATM   19  S   UNL     1      15.421  10.954  17.839  1.00  0.00     0.207 S 
HETATM   20  O   UNL     1      15.461  10.849  16.449  1.00  0.00    -0.212 OA
HETATM   21  C   UNL     1      14.085  10.048  18.614  1.00  0.00     0.180 C 
HETATM   22  O   UNL     1      16.537  10.724  18.683  1.00  0.00    -0.212 OA
ENDBRANCH  16  19
ENDBRANCH   3  13
TORSDOF 2
ENDMDL
MODEL 13
REMARK VINA RESULT:    -7.035      3.856      7.663
REMARK INTER + INTRA:          -8.137
REMARK INTER:                  -7.827
REMARK INTRA:                  -0.310
REMARK UNBOUND:                -0.279
REMARK  2 active torsions:
REMARK  status: ('A' for Active; 'I' for Inactive)
REMARK    1  A    between atoms: C_7  and  N_14 
REMARK    2  A    between atoms: S_10  and  N_13 
ROOT
HETATM    1  C   UNL     1      13.301  21.141  20.282  1.00  0.00     0.053 A 
HETATM    2  C   UNL     1      12.574  21.915  21.171  1.00  0.00     0.055 A 
HETATM    3  C   UNL     1      14.040  20.021  20.704  1.00  0.00     0.118 A 
HETATM    4  C   UNL     1      13.301  20.184  24.059  1.00  0.00     0.225 A 
HETATM    5  N   UNL     1      14.114  19.630  22.031  1.00  0.00    -0.276 N 
ATOM      6  HN  UNL     1      14.630  18.819  22.372  1.00  0.00     0.189 HD
HETATM    7  C   UNL     1      12.701  21.457  22.454  1.00  0.00     0.142 A 
HETATM    8  N   UNL     1      12.169  22.024  23.517  1.00  0.00    -0.283 N 
ATOM      9  HN  UNL     1      11.633  22.889  23.580  1.00  0.00     0.188 HD
HETATM   10  N   UNL     1      12.502  21.192  24.474  1.00  0.00    -0.293 N 
ATOM     11  HN  UNL     1      12.189  21.297  25.439  1.00  0.00     0.187 HD
HETATM   12  N   UNL     1      13.452  20.419  22.757  1.00  0.00    -0.231 N 
ENDROOT
BRANCH   3  13
HETATM   13  N   UNL     1      14.821  19.205  19.878  1.00  0.00    -0.364 N 
HETATM   14  C   UNL     1      15.635  18.164  20.550  1.00  0.00     0.140 C 
HETATM   15  C   UNL     1      16.683  17.517  19.634  1.00  0.00     0.127 C 
HETATM   16  N   UNL     1      15.984  17.027  18.429  1.00  0.00    -0.208 NA
HETATM   17  C   UNL     1      15.397  18.221  17.730  1.00  0.00     0.127 C 
HETATM   18  C   UNL     1      14.311  18.718  18.625  1.00  0.00     0.140 C 
BRANCH  16  19
HETATM   19  S   UNL     1      16.746  15.935  17.559  1.00  0.00     0.207 S 
HETATM   20  O   UNL     1      16.469  16.308  16.244  1.00  0.00    -0.212 OA
HETATM   21  C   UNL     1      16.149  14.308  18.010  1.00  0.00     0.180 C 
HETATM   22  O   UNL     1      18.032  16.013  18.151  1.00  0.00    -0.212 OA
ENDBRANCH  16  19
ENDBRANCH   3  13
TORSDOF 2
ENDMDL
MODEL 14
REMARK VINA RESULT:    -6.999      4.789      8.509
REMARK INTER + INTRA:          -8.096
REMARK INTER:                  -7.790
REMARK INTRA:                  -0.306
REMARK UNBOUND:                -0.279
REMARK  2 active torsions:
REMARK  status: ('A' for Active; 'I' for Inactive)
REMARK    1  A    between atoms: C_7  and  N_14 
REMARK    2  A    between atoms: S_10  and  N_13 
ROOT
HETATM    1  C   UNL     1      12.630  18.946  24.267  1.00  0.00     0.053 A 
HETATM    2  C   UNL     1      11.749  19.149  25.317  1.00  0.00     0.055 A 
HETATM    3  C   UNL     1      12.950  19.969  23.356  1.00  0.00     0.118 A 
HETATM    4  C   UNL     1      10.996  22.455  24.708  1.00  0.00     0.225 A 
HETATM    5  N   UNL     1      12.391  21.235  23.427  1.00  0.00    -0.276 N 
ATOM      6  HN  UNL     1      12.607  22.004  22.791  1.00  0.00     0.189 HD
HETATM    7  C   UNL     1      11.250  20.423  25.311  1.00  0.00     0.142 A 
HETATM    8  N   UNL     1      10.352  20.889  26.155  1.00  0.00    -0.283 N 
ATOM      9  HN  UNL     1       9.855  20.395  26.896  1.00  0.00     0.188 HD
HETATM   10  N   UNL     1      10.260  22.147  25.799  1.00  0.00    -0.293 N 
ATOM     11  HN  UNL     1       9.688  22.828  26.299  1.00  0.00     0.187 HD
HETATM   12  N   UNL     1      11.580  21.302  24.388  1.00  0.00    -0.231 N 
ENDROOT
BRANCH   3  13
HETATM   13  N   UNL     1      13.805  19.839  22.256  1.00  0.00    -0.364 N 
HETATM   14  C   UNL     1      14.213  18.461  21.891  1.00  0.00     0.140 C 
HETATM   15  C   UNL     1      15.372  18.410  20.887  1.00  0.00     0.127 C 
HETATM   16  N   UNL     1      14.994  19.237  19.722  1.00  0.00    -0.208 NA
HETATM   17  C   UNL     1      14.831  20.650  20.206  1.00  0.00     0.127 C 
HETATM   18  C   UNL     1      13.620  20.641  21.078  1.00  0.00     0.140 C 
BRANCH  16  19
HETATM   19  S   UNL     1      15.802  18.982  18.376  1.00  0.00     0.207 S 
HETATM   20  O   UNL     1      15.312  19.957  17.508  1.00  0.00    -0.212 OA
HETATM   21  C   UNL     1      15.520  17.298  17.836  1.00  0.00     0.180 C 
HETATM   22  O   UNL     1      17.123  18.969  18.889  1.00  0.00    -0.212 OA
ENDBRANCH  16  19
ENDBRANCH   3  13
TORSDOF 2
ENDMDL
MODEL 15
REMARK VINA RESULT:    -6.970      6.172      8.195
REMARK INTER + INTRA:          -8.064
REMARK INTER:                  -7.754
REMARK INTRA:                  -0.310
REMARK UNBOUND:                -0.279
REMARK  2 active torsions:
REMARK  status: ('A' for Active; 'I' for Inactive)
REMARK    1  A    between atoms: C_7  and  N_14 
REMARK    2  A    between atoms: S_10  and  N_13 
ROOT
HETATM    1  C   UNL     1      13.650  19.333  22.164  1.00  0.00     0.053 A 
HETATM    2  C   UNL     1      14.618  19.540  21.193  1.00  0.00     0.055 A 
HETATM    3  C   UNL     1      12.825  20.374  22.625  1.00  0.00     0.118 A 
HETATM    4  C   UNL     1      14.093  22.904  20.671  1.00  0.00     0.225 A 
HETATM    5  N   UNL     1      12.938  21.677  22.166  1.00  0.00    -0.276 N 
ATOM      6  HN  UNL     1      12.352  22.455  22.470  1.00  0.00     0.189 HD
HETATM    7  C   UNL     1      14.656  20.849  20.797  1.00  0.00     0.142 A 
HETATM    8  N   UNL     1      15.509  21.353  19.929  1.00  0.00    -0.283 N 
ATOM      9  HN  UNL     1      16.287  20.893  19.457  1.00  0.00     0.188 HD
HETATM   10  N   UNL     1      15.105  22.595  19.829  1.00  0.00    -0.293 N 
ATOM     11  HN  UNL     1      15.513  23.265  19.177  1.00  0.00     0.187 HD
HETATM   12  N   UNL     1      13.867  21.764  21.320  1.00  0.00    -0.231 N 
ENDROOT
BRANCH   3  13
HETATM   13  N   UNL     1      11.847  20.256  23.618  1.00  0.00    -0.364 N 
HETATM   14  C   UNL     1      10.701  21.192  23.537  1.00  0.00     0.140 C 
HETATM   15  C   UNL     1       9.835  21.216  24.804  1.00  0.00     0.127 C 
HETATM   16  N   UNL     1       9.436  19.824  25.101  1.00  0.00    -0.208 NA
HETATM   17  C   UNL     1      10.690  19.045  25.381  1.00  0.00     0.127 C 
HETATM   18  C   UNL     1      11.415  18.965  24.080  1.00  0.00     0.140 C 
BRANCH  16  19
HETATM   19  S   UNL     1       8.189  19.634  26.068  1.00  0.00     0.207 S 
HETATM   20  O   UNL     1       8.712  18.918  27.145  1.00  0.00    -0.212 OA
HETATM   21  C   UNL     1       6.884  18.787  25.180  1.00  0.00     0.180 C 
HETATM   22  O   UNL     1       7.742  20.976  26.151  1.00  0.00    -0.212 OA
ENDBRANCH  16  19
ENDBRANCH   3  13
TORSDOF 2
ENDMDL
MODEL 16
REMARK VINA RESULT:    -6.888      2.691      3.923
REMARK INTER + INTRA:          -7.972
REMARK INTER:                  -7.665
REMARK INTRA:                  -0.306
REMARK UNBOUND:                -0.279
REMARK  2 active torsions:
REMARK  status: ('A' for Active; 'I' for Inactive)
REMARK    1  A    between atoms: C_7  and  N_14 
REMARK    2  A    between atoms: S_10  and  N_13 
ROOT
HETATM    1  C   UNL     1      15.268  17.359  19.072  1.00  0.00     0.053 A 
HETATM    2  C   UNL     1      15.737  16.743  17.923  1.00  0.00     0.055 A 
HETATM    3  C   UNL     1      14.847  18.701  19.077  1.00  0.00     0.118 A 
HETATM    4  C   UNL     1      15.418  19.404  15.759  1.00  0.00     0.225 A 
HETATM    5  N   UNL     1      14.894  19.504  17.948  1.00  0.00    -0.276 N 
ATOM      6  HN  UNL     1      14.588  20.476  17.911  1.00  0.00     0.189 HD
HETATM    7  C   UNL     1      15.746  17.605  16.861  1.00  0.00     0.142 A 
HETATM    8  N   UNL     1      16.190  17.317  15.655  1.00  0.00    -0.283 N 
ATOM      9  HN  UNL     1      16.630  16.459  15.324  1.00  0.00     0.188 HD
HETATM   10  N   UNL     1      15.923  18.414  14.989  1.00  0.00    -0.293 N 
ATOM     11  HN  UNL     1      16.081  18.511  13.986  1.00  0.00     0.187 HD
HETATM   12  N   UNL     1      15.369  18.861  16.974  1.00  0.00    -0.231 N 
ENDROOT
BRANCH   3  13
HETATM   13  N   UNL     1      14.389  19.404  20.196  1.00  0.00    -0.364 N 
HETATM   14  C   UNL     1      13.534  20.587  19.933  1.00  0.00     0.140 C 
HETATM   15  C   UNL     1      13.322  21.477  21.165  1.00  0.00     0.127 C 
HETATM   16  N   UNL     1      12.816  20.619  22.257  1.00  0.00    -0.208 NA
HETATM   17  C   UNL     1      13.882  19.606  22.566  1.00  0.00     0.127 C 
HETATM   18  C   UNL     1      13.945  18.710  21.374  1.00  0.00     0.140 C 
BRANCH  16  19
HETATM   19  S   UNL     1      12.095  21.358  23.466  1.00  0.00     0.207 S 
HETATM   20  O   UNL     1      13.026  22.315  23.870  1.00  0.00    -0.212 OA
HETATM   21  C   UNL     1      11.679  20.152  24.724  1.00  0.00     0.180 C 
HETATM   22  O   UNL     1      10.855  21.668  22.853  1.00  0.00    -0.212 OA
ENDBRANCH  16  19
ENDBRANCH   3  13
TORSDOF 2
ENDMDL
MODEL 17
REMARK VINA RESULT:    -6.843      6.064      7.963
REMARK INTER + INTRA:          -7.921
REMARK INTER:                  -7.613
REMARK INTRA:                  -0.309
REMARK UNBOUND:                -0.279
REMARK  2 active torsions:
REMARK  status: ('A' for Active; 'I' for Inactive)
REMARK    1  A    between atoms: C_7  and  N_14 
REMARK    2  A    between atoms: S_10  and  N_13 
ROOT
HETATM    1  C   UNL     1      17.075  12.552  17.333  1.00  0.00     0.053 A 
HETATM    2  C   UNL     1      17.698  13.648  16.757  1.00  0.00     0.055 A 
HETATM    3  C   UNL     1      15.919  12.685  18.124  1.00  0.00     0.118 A 
HETATM    4  C   UNL     1      15.580  16.102  17.922  1.00  0.00     0.225 A 
HETATM    5  N   UNL     1      15.342  13.913  18.403  1.00  0.00    -0.276 N 
ATOM      6  HN  UNL     1      14.500  14.048  18.964  1.00  0.00     0.189 HD
HETATM    7  C   UNL     1      17.061  14.813  17.083  1.00  0.00     0.142 A 
HETATM    8  N   UNL     1      17.457  16.018  16.726  1.00  0.00    -0.283 N 
ATOM      9  HN  UNL     1      18.294  16.289  16.211  1.00  0.00     0.188 HD
HETATM   10  N   UNL     1      16.503  16.779  17.202  1.00  0.00    -0.293 N 
ATOM     11  HN  UNL     1      16.460  17.786  17.045  1.00  0.00     0.187 HD
HETATM   12  N   UNL     1      16.004  14.841  17.868  1.00  0.00    -0.231 N 
ENDROOT
BRANCH   3  13
HETATM   13  N   UNL     1      15.247  11.637  18.762  1.00  0.00    -0.364 N 
HETATM   14  C   UNL     1      16.090  10.592  19.391  1.00  0.00     0.140 C 
HETATM   15  C   UNL     1      15.308   9.336  19.799  1.00  0.00     0.127 C 
HETATM   16  N   UNL     1      14.178   9.767  20.648  1.00  0.00    -0.208 NA
HETATM   17  C   UNL     1      13.291  10.642  19.809  1.00  0.00     0.127 C 
HETATM   18  C   UNL     1      14.074  11.887  19.555  1.00  0.00     0.140 C 
BRANCH  16  19
HETATM   19  S   UNL     1      13.506   8.650  21.558  1.00  0.00     0.207 S 
HETATM   20  O   UNL     1      12.148   8.752  21.256  1.00  0.00    -0.212 OA
HETATM   21  C   UNL     1      13.910   8.970  23.273  1.00  0.00     0.180 C 
HETATM   22  O   UNL     1      14.313   7.539  21.209  1.00  0.00    -0.212 OA
ENDBRANCH  16  19
ENDBRANCH   3  13
TORSDOF 2
ENDMDL
MODEL 18
REMARK VINA RESULT:    -6.822      4.676      8.241
REMARK INTER + INTRA:          -7.898
REMARK INTER:                  -7.596
REMARK INTRA:                  -0.302
REMARK UNBOUND:                -0.279
REMARK  2 active torsions:
REMARK  status: ('A' for Active; 'I' for Inactive)
REMARK    1  A    between atoms: C_7  and  N_14 
REMARK    2  A    between atoms: S_10  and  N_13 
ROOT
HETATM    1  C   UNL     1      13.570  20.990  22.497  1.00  0.00     0.053 A 
HETATM    2  C   UNL     1      12.927  21.728  23.478  1.00  0.00     0.055 A 
HETATM    3  C   UNL     1      13.611  19.584  22.532  1.00  0.00     0.118 A 
HETATM    4  C   UNL     1      11.824  19.116  25.433  1.00  0.00     0.225 A 
HETATM    5  N   UNL     1      13.039  18.844  23.555  1.00  0.00    -0.276 N 
ATOM      6  HN  UNL     1      13.040  17.826  23.609  1.00  0.00     0.189 HD
HETATM    7  C   UNL     1      12.391  20.919  24.442  1.00  0.00     0.142 A 
HETATM    8  N   UNL     1      11.770  21.340  25.525  1.00  0.00    -0.283 N 
ATOM      9  HN  UNL     1      11.626  22.297  25.849  1.00  0.00     0.188 HD
HETATM   10  N   UNL     1      11.384  20.218  26.081  1.00  0.00    -0.293 N 
ATOM     11  HN  UNL     1      10.807  20.180  26.921  1.00  0.00     0.187 HD
HETATM   12  N   UNL     1      12.517  19.609  24.410  1.00  0.00    -0.231 N 
ENDROOT
BRANCH   3  13
HETATM   13  N   UNL     1      14.260  18.767  21.600  1.00  0.00    -0.364 N 
HETATM   14  C   UNL     1      14.956  19.454  20.486  1.00  0.00     0.140 C 
HETATM   15  C   UNL     1      15.378  18.511  19.351  1.00  0.00     0.127 C 
HETATM   16  N   UNL     1      16.169  17.415  19.950  1.00  0.00    -0.208 NA
HETATM   17  C   UNL     1      15.267  16.670  20.893  1.00  0.00     0.127 C 
HETATM   18  C   UNL     1      14.999  17.609  22.022  1.00  0.00     0.140 C 
BRANCH  16  19
HETATM   19  S   UNL     1      17.092  16.581  18.960  1.00  0.00     0.207 S 
HETATM   20  O   UNL     1      18.315  17.249  19.006  1.00  0.00    -0.212 OA
HETATM   21  C   UNL     1      16.327  16.544  17.340  1.00  0.00     0.180 C 
HETATM   22  O   UNL     1      16.880  15.278  19.477  1.00  0.00    -0.212 OA
ENDBRANCH  16  19
ENDBRANCH   3  13
TORSDOF 2
ENDMDL
MODEL 19
REMARK VINA RESULT:    -6.794      4.965      7.086
REMARK INTER + INTRA:          -7.868
REMARK INTER:                  -7.565
REMARK INTRA:                  -0.302
REMARK UNBOUND:                -0.279
REMARK  2 active torsions:
REMARK  status: ('A' for Active; 'I' for Inactive)
REMARK    1  A    between atoms: C_7  and  N_14 
REMARK    2  A    between atoms: S_10  and  N_13 
ROOT
HETATM    1  C   UNL     1      13.517  17.195  18.595  1.00  0.00     0.053 A 
HETATM    2  C   UNL     1      13.859  18.538  18.561  1.00  0.00     0.055 A 
HETATM    3  C   UNL     1      14.482  16.187  18.766  1.00  0.00     0.118 A 
HETATM    4  C   UNL     1      17.260  18.202  18.986  1.00  0.00     0.225 A 
HETATM    5  N   UNL     1      15.836  16.459  18.885  1.00  0.00    -0.276 N 
ATOM      6  HN  UNL     1      16.562  15.756  19.019  1.00  0.00     0.189 HD
HETATM    7  C   UNL     1      15.209  18.713  18.687  1.00  0.00     0.142 A 
HETATM    8  N   UNL     1      15.831  19.874  18.635  1.00  0.00    -0.283 N 
ATOM      9  HN  UNL     1      15.443  20.799  18.452  1.00  0.00     0.188 HD
HETATM   10  N   UNL     1      17.074  19.537  18.879  1.00  0.00    -0.293 N 
ATOM     11  HN  UNL     1      17.827  20.216  18.979  1.00  0.00     0.187 HD
HETATM   12  N   UNL     1      16.041  17.699  18.802  1.00  0.00    -0.231 N 
ENDROOT
BRANCH   3  13
HETATM   13  N   UNL     1      14.225  14.812  18.784  1.00  0.00    -0.364 N 
HETATM   14  C   UNL     1      15.396  13.915  18.636  1.00  0.00     0.140 C 
HETATM   15  C   UNL     1      15.020  12.453  18.360  1.00  0.00     0.127 C 
HETATM   16  N   UNL     1      14.083  12.024  19.420  1.00  0.00    -0.208 NA
HETATM   17  C   UNL     1      12.850  12.874  19.304  1.00  0.00     0.127 C 
HETATM   18  C   UNL     1      13.270  14.250  19.701  1.00  0.00     0.140 C 
BRANCH  16  19
HETATM   19  S   UNL     1      13.910  10.456  19.623  1.00  0.00     0.207 S 
HETATM   20  O   UNL     1      14.745  10.169  20.703  1.00  0.00    -0.212 OA
HETATM   21  C   UNL     1      14.350   9.617  18.103  1.00  0.00     0.180 C 
HETATM   22  O   UNL     1      12.496  10.376  19.672  1.00  0.00    -0.212 OA
ENDBRANCH  16  19
ENDBRANCH   3  13
TORSDOF 2
ENDMDL
MODEL 20
REMARK VINA RESULT:    -6.743      5.030      9.113
REMARK INTER + INTRA:          -7.810
REMARK INTER:                  -7.521
REMARK INTRA:                  -0.289
REMARK UNBOUND:                -0.279
REMARK  2 active torsions:
REMARK  status: ('A' for Active; 'I' for Inactive)
REMARK    1  A    between atoms: C_7  and  N_14 
REMARK    2  A    between atoms: S_10  and  N_13 
ROOT
HETATM    1  C   UNL     1      12.100  22.347  24.239  1.00  0.00     0.053 A 
HETATM    2  C   UNL     1      11.215  22.612  25.272  1.00  0.00     0.055 A 
HETATM    3  C   UNL     1      11.986  21.195  23.440  1.00  0.00     0.118 A 
HETATM    4  C   UNL     1       9.211  19.830  24.944  1.00  0.00     0.225 A 
HETATM    5  N   UNL     1      11.004  20.238  23.643  1.00  0.00    -0.276 N 
ATOM      6  HN  UNL     1      10.885  19.397  23.078  1.00  0.00     0.189 HD
HETATM    7  C   UNL     1      10.282  21.621  25.397  1.00  0.00     0.142 A 
HETATM    8  N   UNL     1       9.347  21.573  26.325  1.00  0.00    -0.283 N 
ATOM      9  HN  UNL     1       9.188  22.209  27.106  1.00  0.00     0.188 HD
HETATM   10  N   UNL     1       8.673  20.501  25.987  1.00  0.00    -0.293 N 
ATOM     11  HN  UNL     1       7.824  20.201  26.466  1.00  0.00     0.187 HD
HETATM   12  N   UNL     1      10.281  20.555  24.624  1.00  0.00    -0.231 N 
ENDROOT
BRANCH   3  13
HETATM   13  N   UNL     1      12.852  20.840  22.400  1.00  0.00    -0.364 N 
HETATM   14  C   UNL     1      13.328  19.436  22.382  1.00  0.00     0.140 C 
HETATM   15  C   UNL     1      14.493  19.195  21.413  1.00  0.00     0.127 C 
HETATM   16  N   UNL     1      14.080  19.691  20.084  1.00  0.00    -0.208 NA
HETATM   17  C   UNL     1      13.847  21.170  20.206  1.00  0.00     0.127 C 
HETATM   18  C   UNL     1      12.633  21.318  21.062  1.00  0.00     0.140 C 
BRANCH  16  19
HETATM   19  S   UNL     1      14.906  19.151  18.836  1.00  0.00     0.207 S 
HETATM   20  O   UNL     1      14.201  18.014  18.441  1.00  0.00    -0.212 OA
HETATM   21  C   UNL     1      16.595  18.837  19.344  1.00  0.00     0.180 C 
HETATM   22  O   UNL     1      14.986  20.341  18.069  1.00  0.00    -0.212 OA
ENDBRANCH  16  19
ENDBRANCH   3  13
TORSDOF 2
ENDMDL
