REMARK  5 active torsions:
REMARK  status: ('A' for Active; 'I' for Inactive)
REMARK    1  A    between atoms: C_1  and  N_13 
REMARK    2  A    between atoms: C_2  and  O_7 
REMARK    3  A    between atoms: C_3  and  O_8 
REMARK    4  A    between atoms: C_4  and  O_9 
REMARK       I    between atoms: C_12  and  N_13 
REMARK    5  A    between atoms: C_12  and  C_14 
ROOT
HETATM    1  C   UNL     1      -0.137   0.955  -1.213  1.00  0.00     0.255 C 
HETATM    2  C   UNL     1      -0.062   2.288  -0.410  1.00  0.00     0.198 C 
HETATM    3  C   UNL     1       1.062   2.261   0.651  1.00  0.00     0.182 C 
HETATM    4  C   UNL     1       1.299   0.824   1.148  1.00  0.00     0.178 C 
HETATM    5  C   UNL     1       1.612  -0.134  -0.050  1.00  0.00     0.151 C 
HETATM    6  C   UNL     1       3.109  -0.427  -0.194  1.00  0.00     0.042 C 
HETATM    7  O   UNL     1       1.147   0.359  -1.304  1.00  0.00    -0.356 OA
ENDROOT
BRANCH   1   8
HETATM    8  N   UNL     1      -1.120  -0.001  -0.676  1.00  0.00    -0.328 N 
HETATM    9  C   UNL     1      -1.445  -1.212  -1.378  1.00  0.00     0.253 C 
HETATM   10  O   UNL     1      -1.101  -1.344  -2.584  1.00  0.00    -0.268 OA
HETATM   11  H   UNL     1      -1.599   0.194   0.231  1.00  0.00     0.165 HD
BRANCH   9  12
HETATM   12  C   UNL     1      -2.186  -2.307  -0.709  1.00  0.00     0.032 A 
HETATM   13  C   UNL     1      -2.933  -3.222  -1.473  1.00  0.00     0.017 A 
HETATM   14  C   UNL     1      -3.628  -4.264  -0.851  1.00  0.00     0.001 A 
HETATM   15  C   UNL     1      -3.579  -4.408   0.537  1.00  0.00     0.000 A 
HETATM   16  C   UNL     1      -2.831  -3.514   1.305  1.00  0.00     0.001 A 
HETATM   17  C   UNL     1      -2.134  -2.470   0.689  1.00  0.00     0.017 A 
ENDBRANCH   9  12
ENDBRANCH   1   8
BRANCH   2  18
HETATM   18  O   UNL     1      -1.291   2.590   0.202  1.00  0.00    -0.389 OA
HETATM   19  H   UNL     1      -1.925   2.817  -0.528  1.00  0.00     0.210 HD
ENDBRANCH   2  18
BRANCH   3  20
HETATM   20  O   UNL     1       2.244   2.778   0.089  1.00  0.00    -0.390 OA
HETATM   21  H   UNL     1       2.824   3.063   0.843  1.00  0.00     0.210 HD
ENDBRANCH   3  20
BRANCH   4  22
HETATM   22  O   UNL     1       2.318   0.795   2.116  1.00  0.00    -0.390 OA
HETATM   23  H   UNL     1       1.948   1.210   2.939  1.00  0.00     0.210 HD
ENDBRANCH   4  22
TORSDOF 5
