MODEL 1
REMARK VINA RESULT:   -12.262      0.000      0.000
REMARK INTER + INTRA:         -16.625
REMARK INTER:                 -14.771
REMARK INTRA:                  -1.854
REMARK UNBOUND:                -1.854
REMARK  5 active torsions:
REMARK  status: ('A' for Active; 'I' for Inactive)
REMARK    1  A    between atoms: C_10  and  O_11 
REMARK    2  A    between atoms: C_13  and  N_14 
REMARK    3  A    between atoms: C_19  and  N_20 
REMARK    4  A    between atoms: C_38  and  O_39 
REMARK    5  A    between atoms: C_41  and  N_42 
ROOT
HETATM    1  P   UNL     1       0.287   1.994  12.230  1.00  0.00     0.408 P 
HETATM    2  O   UNL     1       0.085   1.177  10.968  1.00  0.00    -0.624 OA
HETATM    3  O   UNL     1      -0.127   3.430  12.343  1.00  0.00    -0.624 OA
HETATM    4  O   UNL     1       1.793   1.828  12.784  1.00  0.00    -0.287 OA
HETATM    5  C   UNL     1       2.554   0.668  12.510  1.00  0.00     0.216 C 
HETATM    6  C   UNL     1       3.851   0.809  13.309  1.00  0.00     0.180 C 
HETATM    7  O   UNL     1       4.604   1.884  12.758  1.00  0.00    -0.353 OA
HETATM    8  C   UNL     1       3.700   1.199  14.775  1.00  0.00     0.198 C 
HETATM    9  O   UNL     1       3.474   0.026  15.526  1.00  0.00    -0.279 OA
HETATM   10  C   UNL     1       5.056   1.825  15.081  1.00  0.00     0.199 C 
HETATM   11  C   UNL     1       5.369   2.531  13.781  1.00  0.00     0.262 C 
HETATM   12  P   UNL     1       2.753   0.084  16.953  1.00  0.00     0.408 P 
HETATM   13  O   UNL     1       3.469   1.137  17.758  1.00  0.00    -0.624 OA
HETATM   14  O   UNL     1       2.592  -1.334  17.452  1.00  0.00    -0.624 OA
HETATM   15  O   UNL     1       1.286   0.651  16.619  1.00  0.00    -0.287 OA
HETATM   16  C   UNL     1       0.355  -0.238  16.005  1.00  0.00     0.216 C 
HETATM   17  C   UNL     1      -0.917   0.522  15.638  1.00  0.00     0.180 C 
HETATM   18  O   UNL     1      -1.512   1.123  16.790  1.00  0.00    -0.353 OA
HETATM   19  C   UNL     1      -0.675   1.679  14.683  1.00  0.00     0.198 C 
HETATM   20  O   UNL     1      -0.535   1.194  13.347  1.00  0.00    -0.279 OA
HETATM   21  C   UNL     1      -1.903   2.539  14.925  1.00  0.00     0.199 C 
HETATM   22  C   UNL     1      -2.174   2.324  16.415  1.00  0.00     0.262 C 
ENDROOT
BRANCH  11  23
HETATM   23  N   UNL     1       4.888   3.922  13.748  1.00  0.00    -0.297 N 
HETATM   24  C   UNL     1       5.690   4.962  13.920  1.00  0.00     0.142 A 
HETATM   25  N   UNL     1       7.003   5.072  14.196  1.00  0.00    -0.336 N 
HETATM   26  C   UNL     1       4.841   6.148  13.772  1.00  0.00     0.122 A 
HETATM   27  C   UNL     1       7.543   6.293  14.334  1.00  0.00     0.183 A 
ATOM     28  HN  UNL     1       7.581   4.238  14.300  1.00  0.00     0.168 HD
HETATM   29  N   UNL     1       6.831   7.417  14.191  1.00  0.00    -0.337 N 
HETATM   30  C   UNL     1       5.498   7.444  13.930  1.00  0.00     0.131 A 
ATOM     31  HN  UNL     1       7.319   8.308  14.283  1.00  0.00     0.168 HD
HETATM   32  N   UNL     1       3.584   5.720  13.513  1.00  0.00    -0.346 N 
HETATM   33  C   UNL     1       3.636   4.361  13.483  1.00  0.00     0.188 A 
ATOM     34  HN  UNL     1       2.759   6.303  13.368  1.00  0.00     0.167 HD
BRANCH  30  35
HETATM   35  N   UNL     1       4.781   8.600  13.782  1.00  0.00    -0.383 N 
ATOM     36  HN2 UNL     1       4.996   9.241  13.018  1.00  0.00     0.157 HD
ATOM     37  HN1 UNL     1       4.038   8.887  14.419  1.00  0.00     0.157 HD
ENDBRANCH  30  35
ENDBRANCH  11  23
BRANCH  10  38
HETATM   38  O   UNL     1       6.006   0.740  15.173  1.00  0.00    -0.388 OA
ATOM     39  HO  UNL     1       5.518   0.002  15.520  1.00  0.00     0.210 HD
ENDBRANCH  10  38
BRANCH  21  40
HETATM   40  O   UNL     1      -3.026   2.043  14.179  1.00  0.00    -0.388 OA
ATOM     41  HO  UNL     1      -3.003   2.362  13.285  1.00  0.00     0.210 HD
ENDBRANCH  21  40
BRANCH  22  42
HETATM   42  N   UNL     1      -1.513   3.429  17.140  1.00  0.00    -0.297 N 
HETATM   43  C   UNL     1      -0.654   3.250  18.135  1.00  0.00     0.142 A 
HETATM   44  C   UNL     1      -0.260   4.593  18.587  1.00  0.00     0.122 A 
HETATM   45  N   UNL     1      -0.140   2.160  18.743  1.00  0.00    -0.336 N 
HETATM   46  N   UNL     1      -0.927   5.476  17.820  1.00  0.00    -0.346 N 
HETATM   47  C   UNL     1       0.712   4.659  19.706  1.00  0.00     0.131 A 
HETATM   48  C   UNL     1      -1.695   4.751  16.956  1.00  0.00     0.188 A 
ATOM     49  HN  UNL     1      -0.868   6.493  17.874  1.00  0.00     0.167 HD
HETATM   50  N   UNL     1       1.142   5.853  20.194  1.00  0.00    -0.383 N 
HETATM   51  N   UNL     1       1.158   3.485  20.215  1.00  0.00    -0.337 N 
ATOM     52  HN2 UNL     1       0.807   6.737  19.811  1.00  0.00     0.157 HD
ATOM     53  HN1 UNL     1       1.811   5.898  20.964  1.00  0.00     0.157 HD
HETATM   54  C   UNL     1       0.746   2.290  19.750  1.00  0.00     0.183 A 
ATOM     55  HN  UNL     1       1.832   3.507  20.980  1.00  0.00     0.168 HD
ATOM     56  HN  UNL     1      -0.425   1.229  18.438  1.00  0.00     0.168 HD
ENDBRANCH  22  42
TORSDOF 5
ENDMDL
MODEL 2
REMARK VINA RESULT:   -11.696      0.288      7.148
REMARK INTER + INTRA:         -15.944
REMARK INTER:                 -14.324
REMARK INTRA:                  -1.620
REMARK UNBOUND:                -1.854
REMARK  5 active torsions:
REMARK  status: ('A' for Active; 'I' for Inactive)
REMARK    1  A    between atoms: C_10  and  O_11 
REMARK    2  A    between atoms: C_13  and  N_14 
REMARK    3  A    between atoms: C_19  and  N_20 
REMARK    4  A    between atoms: C_38  and  O_39 
REMARK    5  A    between atoms: C_41  and  N_42 
ROOT
HETATM    1  P   UNL     1       2.800   0.287  16.832  1.00  0.00     0.408 P 
HETATM    2  O   UNL     1       2.797  -1.134  17.361  1.00  0.00    -0.624 OA
HETATM    3  O   UNL     1       3.488   1.416  17.538  1.00  0.00    -0.624 OA
HETATM    4  O   UNL     1       1.309   0.747  16.419  1.00  0.00    -0.287 OA
HETATM    5  C   UNL     1       0.329  -0.197  16.034  1.00  0.00     0.216 C 
HETATM    6  C   UNL     1      -0.889   0.612  15.582  1.00  0.00     0.180 C 
HETATM    7  O   UNL     1      -1.436   1.272  16.717  1.00  0.00    -0.353 OA
HETATM    8  C   UNL     1      -0.616   1.753  14.608  1.00  0.00     0.198 C 
HETATM    9  O   UNL     1      -0.597   1.226  13.299  1.00  0.00    -0.279 OA
HETATM   10  C   UNL     1      -1.814   2.667  14.842  1.00  0.00     0.199 C 
HETATM   11  C   UNL     1      -2.027   2.518  16.331  1.00  0.00     0.262 C 
HETATM   12  P   UNL     1       0.169   1.980  12.114  1.00  0.00     0.408 P 
HETATM   13  O   UNL     1      -0.301   3.412  12.137  1.00  0.00    -0.624 OA
HETATM   14  O   UNL     1       0.068   1.123  10.873  1.00  0.00    -0.624 OA
HETATM   15  O   UNL     1       1.707   1.974  12.587  1.00  0.00    -0.287 OA
HETATM   16  C   UNL     1       2.426   0.747  12.486  1.00  0.00     0.216 C 
HETATM   17  C   UNL     1       3.809   0.908  13.113  1.00  0.00     0.180 C 
HETATM   18  O   UNL     1       4.547   1.954  12.478  1.00  0.00    -0.353 OA
HETATM   19  C   UNL     1       3.764   1.307  14.579  1.00  0.00     0.198 C 
HETATM   20  O   UNL     1       3.487   0.165  15.392  1.00  0.00    -0.279 OA
HETATM   21  C   UNL     1       5.142   1.912  14.775  1.00  0.00     0.199 C 
HETATM   22  C   UNL     1       5.416   2.567  13.421  1.00  0.00     0.262 C 
ENDROOT
BRANCH  11  23
HETATM   23  N   UNL     1      -1.286   3.514  17.123  1.00  0.00    -0.297 N 
HETATM   24  C   UNL     1      -0.500   3.182  18.137  1.00  0.00     0.142 A 
HETATM   25  N   UNL     1      -0.207   2.007  18.725  1.00  0.00    -0.336 N 
HETATM   26  C   UNL     1       0.077   4.439  18.621  1.00  0.00     0.122 A 
HETATM   27  C   UNL     1       0.633   1.989  19.772  1.00  0.00     0.183 A 
ATOM     28  HN  UNL     1      -0.619   1.140  18.379  1.00  0.00     0.168 HD
HETATM   29  N   UNL     1       1.211   3.096  20.251  1.00  0.00    -0.337 N 
HETATM   30  C   UNL     1       0.986   4.343  19.761  1.00  0.00     0.131 A 
ATOM     31  HN  UNL     1       1.859   2.998  21.032  1.00  0.00     0.168 HD
HETATM   32  N   UNL     1      -0.408   5.437  17.847  1.00  0.00    -0.346 N 
HETATM   33  C   UNL     1      -1.222   4.850  16.927  1.00  0.00     0.188 A 
ATOM     34  HN  UNL     1      -0.204   6.432  17.935  1.00  0.00     0.167 HD
BRANCH  30  35
HETATM   35  N   UNL     1       1.588   5.468  20.258  1.00  0.00    -0.383 N 
ATOM     36  HN2 UNL     1       2.543   5.425  20.611  1.00  0.00     0.157 HD
ATOM     37  HN1 UNL     1       1.120   6.373  20.324  1.00  0.00     0.157 HD
ENDBRANCH  30  35
ENDBRANCH  11  23
BRANCH  10  38
HETATM   38  O   UNL     1      -2.952   2.030  14.221  1.00  0.00    -0.388 OA
ATOM     39  HO  UNL     1      -2.704   1.120  14.103  1.00  0.00     0.210 HD
ENDBRANCH  10  38
BRANCH  21  40
HETATM   40  O   UNL     1       6.123   0.884  14.993  1.00  0.00    -0.388 OA
ATOM     41  HO  UNL     1       6.993   1.258  15.059  1.00  0.00     0.210 HD
ENDBRANCH  21  40
BRANCH  22  42
HETATM   42  N   UNL     1       5.006   3.982  13.533  1.00  0.00    -0.297 N 
HETATM   43  C   UNL     1       5.850   4.980  13.757  1.00  0.00     0.142 A 
HETATM   44  C   UNL     1       5.035   6.203  13.823  1.00  0.00     0.122 A 
HETATM   45  N   UNL     1       7.188   5.056  13.925  1.00  0.00    -0.336 N 
HETATM   46  N   UNL     1       3.755   5.832  13.635  1.00  0.00    -0.346 N 
HETATM   47  C   UNL     1       5.763   7.474  14.065  1.00  0.00     0.131 A 
HETATM   48  C   UNL     1       3.754   4.477  13.475  1.00  0.00     0.188 A 
ATOM     49  HN  UNL     1       2.941   6.447  13.616  1.00  0.00     0.167 HD
HETATM   50  N   UNL     1       5.101   8.660  14.140  1.00  0.00    -0.383 N 
HETATM   51  N   UNL     1       7.109   7.406  14.202  1.00  0.00    -0.337 N 
ATOM     52  HN2 UNL     1       4.087   8.711  14.037  1.00  0.00     0.157 HD
ATOM     53  HN1 UNL     1       5.601   9.533  14.306  1.00  0.00     0.157 HD
HETATM   54  C   UNL     1       7.787   6.245  14.133  1.00  0.00     0.183 A 
ATOM     55  HN  UNL     1       7.629   8.269  14.362  1.00  0.00     0.168 HD
ATOM     56  HN  UNL     1       7.750   4.205  13.893  1.00  0.00     0.168 HD
ENDBRANCH  22  42
TORSDOF 5
ENDMDL
MODEL 3
REMARK VINA RESULT:   -11.178      0.893      1.788
REMARK INTER + INTRA:         -15.319
REMARK INTER:                 -14.273
REMARK INTRA:                  -1.046
REMARK UNBOUND:                -1.854
REMARK  5 active torsions:
REMARK  status: ('A' for Active; 'I' for Inactive)
REMARK    1  A    between atoms: C_10  and  O_11 
REMARK    2  A    between atoms: C_13  and  N_14 
REMARK    3  A    between atoms: C_19  and  N_20 
REMARK    4  A    between atoms: C_38  and  O_39 
REMARK    5  A    between atoms: C_41  and  N_42 
ROOT
HETATM    1  P   UNL     1       0.293   1.975  12.251  1.00  0.00     0.408 P 
HETATM    2  O   UNL     1       0.095   1.141  10.999  1.00  0.00    -0.624 OA
HETATM    3  O   UNL     1      -0.106   3.417  12.338  1.00  0.00    -0.624 OA
HETATM    4  O   UNL     1       1.791   1.800  12.823  1.00  0.00    -0.287 OA
HETATM    5  C   UNL     1       2.542   0.628  12.575  1.00  0.00     0.216 C 
HETATM    6  C   UNL     1       3.832   0.767  13.385  1.00  0.00     0.180 C 
HETATM    7  O   UNL     1       4.602   1.824  12.827  1.00  0.00    -0.353 OA
HETATM    8  C   UNL     1       3.669   1.180  14.844  1.00  0.00     0.198 C 
HETATM    9  O   UNL     1       3.422   0.021  15.610  1.00  0.00    -0.279 OA
HETATM   10  C   UNL     1       5.030   1.795  15.156  1.00  0.00     0.199 C 
HETATM   11  C   UNL     1       5.364   2.477  13.848  1.00  0.00     0.262 C 
HETATM   12  P   UNL     1       2.687   0.108  17.028  1.00  0.00     0.408 P 
HETATM   13  O   UNL     1       3.406   1.165  17.825  1.00  0.00    -0.624 OA
HETATM   14  O   UNL     1       2.505  -1.301  17.546  1.00  0.00    -0.624 OA
HETATM   15  O   UNL     1       1.230   0.686  16.669  1.00  0.00    -0.287 OA
HETATM   16  C   UNL     1       0.296  -0.201  16.059  1.00  0.00     0.216 C 
HETATM   17  C   UNL     1      -0.964   0.567  15.667  1.00  0.00     0.180 C 
HETATM   18  O   UNL     1      -1.564   1.193  16.804  1.00  0.00    -0.353 OA
HETATM   19  C   UNL     1      -0.698   1.707  14.698  1.00  0.00     0.198 C 
HETATM   20  O   UNL     1      -0.550   1.201  13.371  1.00  0.00    -0.279 OA
HETATM   21  C   UNL     1      -1.919   2.585  14.914  1.00  0.00     0.199 C 
HETATM   22  C   UNL     1      -2.208   2.395  16.404  1.00  0.00     0.262 C 
ENDROOT
BRANCH  11  23
HETATM   23  N   UNL     1       4.899   3.873  13.790  1.00  0.00    -0.297 N 
HETATM   24  C   UNL     1       5.707   4.907  13.975  1.00  0.00     0.142 A 
HETATM   25  N   UNL     1       7.014   5.006  14.286  1.00  0.00    -0.336 N 
HETATM   26  C   UNL     1       4.876   6.100  13.792  1.00  0.00     0.122 A 
HETATM   27  C   UNL     1       7.563   6.222  14.428  1.00  0.00     0.183 A 
ATOM     28  HN  UNL     1       7.579   4.166  14.413  1.00  0.00     0.168 HD
HETATM   29  N   UNL     1       6.867   7.352  14.255  1.00  0.00    -0.337 N 
HETATM   30  C   UNL     1       5.542   7.390  13.957  1.00  0.00     0.131 A 
ATOM     31  HN  UNL     1       7.362   8.238  14.353  1.00  0.00     0.168 HD
HETATM   32  N   UNL     1       3.622   5.684  13.502  1.00  0.00    -0.346 N 
HETATM   33  C   UNL     1       3.660   4.323  13.486  1.00  0.00     0.188 A 
ATOM     34  HN  UNL     1       2.808   6.274  13.330  1.00  0.00     0.167 HD
BRANCH  30  35
HETATM   35  N   UNL     1       4.843   8.553  13.779  1.00  0.00    -0.383 N 
ATOM     36  HN2 UNL     1       3.977   8.552  13.239  1.00  0.00     0.157 HD
ATOM     37  HN1 UNL     1       5.151   9.456  14.139  1.00  0.00     0.157 HD
ENDBRANCH  30  35
ENDBRANCH  11  23
BRANCH  10  38
HETATM   38  O   UNL     1       5.966   0.701  15.273  1.00  0.00    -0.388 OA
ATOM     39  HO  UNL     1       5.923   0.237  14.445  1.00  0.00     0.210 HD
ENDBRANCH  10  38
BRANCH  21  40
HETATM   40  O   UNL     1      -3.040   2.090  14.164  1.00  0.00    -0.388 OA
ATOM     41  HO  UNL     1      -3.350   2.746  13.551  1.00  0.00     0.210 HD
ENDBRANCH  21  40
BRANCH  22  42
HETATM   42  N   UNL     1      -1.542   3.503  17.120  1.00  0.00    -0.297 N 
HETATM   43  C   UNL     1      -1.612   4.773  16.745  1.00  0.00     0.142 A 
HETATM   44  C   UNL     1      -0.794   5.532  17.703  1.00  0.00     0.122 A 
HETATM   45  N   UNL     1      -2.235   5.418  15.735  1.00  0.00    -0.336 N 
HETATM   46  N   UNL     1      -0.292   4.643  18.581  1.00  0.00    -0.346 N 
HETATM   47  C   UNL     1      -0.718   7.000  17.495  1.00  0.00     0.131 A 
HETATM   48  C   UNL     1      -0.745   3.413  18.203  1.00  0.00     0.188 A 
ATOM     49  HN  UNL     1       0.311   4.851  19.377  1.00  0.00     0.167 HD
HETATM   50  N   UNL     1       0.009   7.791  18.328  1.00  0.00    -0.383 N 
HETATM   51  N   UNL     1      -1.404   7.518  16.448  1.00  0.00    -0.337 N 
ATOM     52  HN2 UNL     1       0.526   7.401  19.116  1.00  0.00     0.157 HD
ATOM     53  HN1 UNL     1       0.062   8.800  18.185  1.00  0.00     0.157 HD
HETATM   54  C   UNL     1      -2.130   6.756  15.608  1.00  0.00     0.183 A 
ATOM     55  HN  UNL     1      -1.371   8.525  16.290  1.00  0.00     0.168 HD
ATOM     56  HN  UNL     1      -2.790   4.888  15.062  1.00  0.00     0.168 HD
ENDBRANCH  22  42
TORSDOF 5
ENDMDL
MODEL 4
REMARK VINA RESULT:   -10.770      0.920      7.119
REMARK INTER + INTRA:         -14.829
REMARK INTER:                 -13.671
REMARK INTRA:                  -1.158
REMARK UNBOUND:                -1.854
REMARK  5 active torsions:
REMARK  status: ('A' for Active; 'I' for Inactive)
REMARK    1  A    between atoms: C_10  and  O_11 
REMARK    2  A    between atoms: C_13  and  N_14 
REMARK    3  A    between atoms: C_19  and  N_20 
REMARK    4  A    between atoms: C_38  and  O_39 
REMARK    5  A    between atoms: C_41  and  N_42 
ROOT
HETATM    1  P   UNL     1       2.614   0.238  17.030  1.00  0.00     0.408 P 
HETATM    2  O   UNL     1       2.534  -1.163  17.604  1.00  0.00    -0.624 OA
HETATM    3  O   UNL     1       3.316   1.363  17.729  1.00  0.00    -0.624 OA
HETATM    4  O   UNL     1       1.161   0.739  16.539  1.00  0.00    -0.287 OA
HETATM    5  C   UNL     1       0.163  -0.179  16.142  1.00  0.00     0.216 C 
HETATM    6  C   UNL     1      -1.003   0.659  15.613  1.00  0.00     0.180 C 
HETATM    7  O   UNL     1      -1.572   1.377  16.701  1.00  0.00    -0.353 OA
HETATM    8  C   UNL     1      -0.645   1.756  14.616  1.00  0.00     0.198 C 
HETATM    9  O   UNL     1      -0.592   1.185  13.326  1.00  0.00    -0.279 OA
HETATM   10  C   UNL     1      -1.815   2.721  14.768  1.00  0.00     0.199 C 
HETATM   11  C   UNL     1      -2.097   2.630  16.251  1.00  0.00     0.262 C 
HETATM   12  P   UNL     1       0.252   1.870  12.152  1.00  0.00     0.408 P 
HETATM   13  O   UNL     1      -0.163   3.318  12.109  1.00  0.00    -0.624 OA
HETATM   14  O   UNL     1       0.170   0.976  10.936  1.00  0.00    -0.624 OA
HETATM   15  O   UNL     1       1.767   1.822  12.690  1.00  0.00    -0.287 OA
HETATM   16  C   UNL     1       2.441   0.566  12.660  1.00  0.00     0.216 C 
HETATM   17  C   UNL     1       3.802   0.696  13.340  1.00  0.00     0.180 C 
HETATM   18  O   UNL     1       4.606   1.692  12.704  1.00  0.00    -0.353 OA
HETATM   19  C   UNL     1       3.711   1.145  14.790  1.00  0.00     0.198 C 
HETATM   20  O   UNL     1       3.357   0.042  15.625  1.00  0.00    -0.279 OA
HETATM   21  C   UNL     1       5.103   1.704  15.026  1.00  0.00     0.199 C 
HETATM   22  C   UNL     1       5.459   2.303  13.664  1.00  0.00     0.262 C 
ENDROOT
BRANCH  11  23
HETATM   23  N   UNL     1      -1.351   3.624  17.042  1.00  0.00    -0.297 N 
HETATM   24  C   UNL     1      -1.464   4.929  16.845  1.00  0.00     0.142 A 
HETATM   25  N   UNL     1      -2.152   5.665  15.952  1.00  0.00    -0.336 N 
HETATM   26  C   UNL     1      -0.606   5.560  17.851  1.00  0.00     0.122 A 
HETATM   27  C   UNL     1      -2.052   7.003  15.990  1.00  0.00     0.183 A 
ATOM     28  HN  UNL     1      -2.743   5.212  15.254  1.00  0.00     0.168 HD
HETATM   29  N   UNL     1      -1.304   7.644  16.895  1.00  0.00    -0.337 N 
HETATM   30  C   UNL     1      -0.549   7.020  17.836  1.00  0.00     0.131 A 
ATOM     31  HN  UNL     1      -1.300   8.664  16.877  1.00  0.00     0.168 HD
HETATM   32  N   UNL     1      -0.045   4.573  18.587  1.00  0.00    -0.346 N 
HETATM   33  C   UNL     1      -0.527   3.400  18.091  1.00  0.00     0.188 A 
ATOM     34  HN  UNL     1       0.610   4.685  19.361  1.00  0.00     0.167 HD
BRANCH  30  35
HETATM   35  N   UNL     1       0.209   7.688  18.760  1.00  0.00    -0.383 N 
ATOM     36  HN2 UNL     1       0.827   7.171  19.385  1.00  0.00     0.157 HD
ATOM     37  HN1 UNL     1       0.178   8.700  18.887  1.00  0.00     0.157 HD
ENDBRANCH  30  35
ENDBRANCH  11  23
BRANCH  10  38
HETATM   38  O   UNL     1      -2.951   2.107  14.119  1.00  0.00    -0.388 OA
ATOM     39  HO  UNL     1      -2.609   1.710  13.327  1.00  0.00     0.210 HD
ENDBRANCH  10  38
BRANCH  21  40
HETATM   40  O   UNL     1       6.032   0.647  15.318  1.00  0.00    -0.388 OA
ATOM     41  HO  UNL     1       6.599   0.890  16.041  1.00  0.00     0.210 HD
ENDBRANCH  21  40
BRANCH  22  42
HETATM   42  N   UNL     1       5.100   3.735  13.713  1.00  0.00    -0.297 N 
HETATM   43  C   UNL     1       5.986   4.716  13.824  1.00  0.00     0.142 A 
HETATM   44  C   UNL     1       5.215   5.967  13.864  1.00  0.00     0.122 A 
HETATM   45  N   UNL     1       7.333   4.755  13.904  1.00  0.00    -0.336 N 
HETATM   46  N   UNL     1       3.914   5.629  13.778  1.00  0.00    -0.346 N 
HETATM   47  C   UNL     1       5.994   7.225  13.982  1.00  0.00     0.131 A 
HETATM   48  C   UNL     1       3.862   4.268  13.703  1.00  0.00     0.188 A 
ATOM     49  HN  UNL     1       3.119   6.269  13.771  1.00  0.00     0.167 HD
HETATM   50  N   UNL     1       5.375   8.435  14.023  1.00  0.00    -0.383 N 
HETATM   51  N   UNL     1       7.343   7.119  14.039  1.00  0.00    -0.337 N 
ATOM     52  HN2 UNL     1       4.359   8.514  13.980  1.00  0.00     0.157 HD
ATOM     53  HN1 UNL     1       5.910   9.299  14.104  1.00  0.00     0.157 HD
HETATM   54  C   UNL     1       7.980   5.934  14.001  1.00  0.00     0.183 A 
ATOM     55  HN  UNL     1       7.899   7.971  14.113  1.00  0.00     0.168 HD
ATOM     56  HN  UNL     1       7.866   3.885  13.890  1.00  0.00     0.168 HD
ENDBRANCH  22  42
TORSDOF 5
ENDMDL
