REMARK  11 active torsions:
REMARK  status: ('A' for Active; 'I' for Inactive)
REMARK    1  A    between atoms: C_1  and  O_32 
REMARK    2  A    between atoms: C_2  and  C_8 
REMARK    3  A    between atoms: C_2  and  C_9 
REMARK    4  A    between atoms: C_6  and  N_31 
REMARK    5  A    between atoms: C_8  and  O_32 
REMARK    6  A    between atoms: C_9  and  O_33 
REMARK    7  A    between atoms: C_10  and  O_33 
REMARK    8  A    between atoms: C_14  and  C_15 
REMARK    9  A    between atoms: C_16  and  N_23 
REMARK   10  A    between atoms: C_17  and  N_28 
REMARK   11  A    between atoms: C_18  and  C_20 
ROOT
HETATM    1  C   UNL     1       7.889   0.276  14.141  1.00  0.00     0.178 C 
ENDROOT
BRANCH   1   2
HETATM    2  C   UNL     1       6.924  -0.898  14.004  1.00  0.00     0.053 C 
BRANCH   2   3
HETATM    3  C   UNL     1       5.572  -0.537  14.598  1.00  0.00     0.178 C 
BRANCH   3   4
HETATM    4  O   UNL     1       5.013   0.488  13.721  1.00  0.00    -0.349 OA
BRANCH   4   5
HETATM    5  C   UNL     1       3.941   1.230  14.190  1.00  0.00     0.090 A 
HETATM    6  C   UNL     1       3.523   2.322  13.420  1.00  0.00     0.044 A 
HETATM    7  C   UNL     1       2.462   3.075  13.898  1.00  0.00     0.027 A 
HETATM    8  C   UNL     1       1.852   2.781  15.108  1.00  0.00     0.009 A 
HETATM    9  C   UNL     1       2.269   1.711  15.874  1.00  0.00    -0.059 A 
HETATM   10  C   UNL     1       1.592   1.375  17.193  1.00  0.00     0.048 C 
HETATM   11  C   UNL     1       3.326   0.939  15.388  1.00  0.00     0.045 A 
BRANCH   6  12
HETATM   12  N   UNL     1       4.124   2.578  12.206  1.00  0.00    -0.279 NA
HETATM   13  C   UNL     1       3.623   3.505  11.162  1.00  0.00     0.112 A 
HETATM   14  C   UNL     1       3.956   2.433  10.070  1.00  0.00     0.113 A 
HETATM   15  C   UNL     1       4.515   1.535  11.195  1.00  0.00     0.112 A 
BRANCH  14  16
HETATM   16  C   UNL     1       5.027   2.970   9.073  1.00  0.00     0.179 C 
HETATM   17  O   UNL     1       4.636   3.288   7.937  1.00  0.00    -0.648 OA
HETATM   18  O   UNL     1       6.230   3.028   9.484  1.00  0.00    -0.648 OA
ENDBRANCH  14  16
ENDBRANCH   6  12
ENDBRANCH   4   5
ENDBRANCH   3   4
ENDBRANCH   2   3
ENDBRANCH   1   2
BRANCH   1  19
HETATM   19  O   UNL     1       8.080   0.479  15.567  1.00  0.00    -0.345 OA
BRANCH  19  20
HETATM   20  C   UNL     1       8.754   1.634  15.943  1.00  0.00     0.136 A 
HETATM   21  C   UNL     1      10.179   1.667  15.943  1.00  0.00     0.150 A 
HETATM   22  N   UNL     1      10.819   2.787  16.327  1.00  0.00    -0.174 N 
HETATM   23  C   UNL     1      10.081   3.835  16.691  1.00  0.00     0.677 A 
ATOM     24  HN  UNL     1      11.838   2.832  16.339  1.00  0.00     0.186 HD
HETATM   25  N   UNL     1       8.753   3.851  16.736  1.00  0.00    -0.193 N 
HETATM   26  C   UNL     1       8.083   2.744  16.352  1.00  0.00     0.063 A 
ATOM     27  HN  UNL     1       8.252   4.681  17.053  1.00  0.00     0.184 HD
BRANCH  21  28
HETATM   28  N   UNL     1      10.909   0.623  15.576  1.00  0.00    -0.383 N 
ATOM     29  HN2 UNL     1      11.929   0.647  15.576  1.00  0.00     0.157 HD
ATOM     30  HN1 UNL     1      10.424  -0.226  15.285  1.00  0.00     0.157 HD
ENDBRANCH  21  28
BRANCH  23  31
HETATM   31  N   UNL     1      10.712   4.977  17.067  1.00  0.00    -0.234 N 
ATOM     32  HN2 UNL     1      11.731   4.965  17.032  1.00  0.00     0.174 HD
ATOM     33  HN1 UNL     1      10.147   5.779  17.346  1.00  0.00     0.174 HD
ENDBRANCH  23  31
BRANCH  26  34
HETATM   34  C   UNL     1       6.575   2.834  16.390  1.00  0.00     0.056 C 
HETATM   35  C   UNL     1       6.067   3.825  15.317  1.00  0.00     0.011 C 
ENDBRANCH  26  34
ENDBRANCH  19  20
ENDBRANCH   1  19
TORSDOF 11
