REMARK  4 active torsions:
REMARK  status: ('A' for Active; 'I' for Inactive)
REMARK    1  A    between atoms: C_1  and  O_7 
REMARK    2  A    between atoms: C_2  and  O_8 
REMARK    3  A    between atoms: C_3  and  O_9 
REMARK    4  A    between atoms: C_4  and  O_10 
ROOT
HETATM    1  C   UNL     1       0.838  -0.838   0.171  1.00  0.00     0.290 C 
HETATM    2  C   UNL     1      -0.281  -0.955   1.219  1.00  0.00     0.204 C 
HETATM    3  C   UNL     1      -1.590  -0.369   0.660  1.00  0.00     0.183 C 
HETATM    4  C   UNL     1      -1.343   1.048   0.106  1.00  0.00     0.178 C 
HETATM    5  C   UNL     1      -0.082   1.117  -0.795  1.00  0.00     0.152 C 
HETATM    6  C   UNL     1      -0.292   0.616  -2.236  1.00  0.00     0.042 C 
HETATM    7  O   UNL     1       1.054   0.523  -0.179  1.00  0.00    -0.351 OA
ENDROOT
BRANCH   1   8
HETATM    8  O   UNL     1       2.025  -1.366   0.733  1.00  0.00    -0.363 OA
HETATM    9  C   UNL     1       2.981  -1.599  -0.280  1.00  0.00     0.204 C 
ENDBRANCH   1   8
BRANCH   2  10
HETATM   10  O   UNL     1       0.098  -0.268   2.386  1.00  0.00    -0.388 OA
HETATM   11  H   UNL     1      -0.494  -0.593   3.114  1.00  0.00     0.210 HD
ENDBRANCH   2  10
BRANCH   3  12
HETATM   12  O   UNL     1      -2.109  -1.200  -0.347  1.00  0.00    -0.390 OA
HETATM   13  H   UNL     1      -2.500  -1.992   0.106  1.00  0.00     0.210 HD
ENDBRANCH   3  12
BRANCH   4  14
HETATM   14  O   UNL     1      -2.470   1.512  -0.593  1.00  0.00    -0.390 OA
HETATM   15  H   UNL     1      -3.171   1.699   0.085  1.00  0.00     0.210 HD
ENDBRANCH   4  14
TORSDOF 4
