MODEL 1
REMARK VINA RESULT:    -6.410      0.000      0.000
REMARK INTER + INTRA:          -9.664
REMARK INTER:                  -8.472
REMARK INTRA:                  -1.193
REMARK UNBOUND:                -1.193
REMARK  7 active torsions:
REMARK  status: ('A' for Active; 'I' for Inactive)
REMARK    1  A    between atoms: C_1  and  O_7 
REMARK    2  A    between atoms: C_2  and  N_13 
REMARK    3  A    between atoms: C_3  and  O_9 
REMARK    4  A    between atoms: C_4  and  O_22 
REMARK    5  A    between atoms: C_5  and  C_6 
REMARK    6  A    between atoms: C_6  and  O_12 
REMARK    7  A    between atoms: O_12  and  S_18 
REMARK       I    between atoms: N_13  and  C_15 
ROOT
HETATM    1  C   UNL     1      25.007  -7.302  -4.225  1.00  0.00     0.282 C 
HETATM    2  C   UNL     1      24.207  -6.129  -4.789  1.00  0.00     0.170 C 
HETATM    3  C   UNL     1      22.803  -6.139  -4.196  1.00  0.00     0.177 C 
HETATM    4  C   UNL     1      22.411  -7.512  -3.675  1.00  0.00     0.180 C 
HETATM    5  C   UNL     1      23.362  -7.963  -2.570  1.00  0.00     0.181 C 
HETATM    6  O   UNL     1      24.737  -7.962  -2.995  1.00  0.00    -0.349 OA
ENDROOT
BRANCH   5   7
HETATM    7  C   UNL     1      23.069  -9.357  -2.090  1.00  0.00     0.227 C 
BRANCH   7   8
HETATM    8  O   UNL     1      23.771 -10.250  -2.933  1.00  0.00    -0.254 OA
BRANCH   8   9
HETATM    9  S   UNL     1      22.909 -11.207  -3.818  1.00  0.00     0.251 S 
HETATM   10  O   UNL     1      22.988 -10.663  -5.136  1.00  0.00    -0.572 OA
HETATM   11  O   UNL     1      23.535 -12.483  -3.742  1.00  0.00    -0.572 OA
HETATM   12  O   UNL     1      21.583 -11.135  -3.277  1.00  0.00    -0.572 OA
ENDBRANCH   8   9
ENDBRANCH   7   8
ENDBRANCH   5   7
BRANCH   4  13
HETATM   13  O   UNL     1      21.083  -7.443  -3.168  1.00  0.00    -0.390 OA
ATOM     14  HO  UNL     1      20.777  -8.316  -2.953  1.00  0.00     0.210 HD
ENDBRANCH   4  13
BRANCH   3  15
HETATM   15  O   UNL     1      21.917  -5.740  -5.233  1.00  0.00    -0.391 OA
ATOM     16  HO  UNL     1      21.049  -5.590  -4.878  1.00  0.00     0.210 HD
ENDBRANCH   3  15
BRANCH   1  17
HETATM   17  O   UNL     1      24.669  -8.313  -5.125  1.00  0.00    -0.369 OA
ATOM     18  HO  UNL     1      25.469  -8.824  -5.111  1.00  0.00     0.212 HD
ENDBRANCH   1  17
BRANCH   2  19
HETATM   19  N   UNL     1      24.800  -4.821  -4.635  1.00  0.00    -0.349 N 
HETATM   20  C   UNL     1      24.773  -3.949  -5.660  1.00  0.00     0.214 C 
HETATM   21  O   UNL     1      24.218  -4.231  -6.726  1.00  0.00    -0.274 OA
HETATM   22  C   UNL     1      25.401  -2.606  -5.415  1.00  0.00     0.117 C 
ATOM     23  HN  UNL     1      25.239  -4.559  -3.752  1.00  0.00     0.163 HD
ENDBRANCH   2  19
TORSDOF 7
ENDMDL
MODEL 2
REMARK VINA RESULT:    -6.396      2.142      2.758
REMARK INTER + INTRA:          -9.646
REMARK INTER:                 -10.136
REMARK INTRA:                   0.490
REMARK UNBOUND:                -1.193
REMARK  7 active torsions:
REMARK  status: ('A' for Active; 'I' for Inactive)
REMARK    1  A    between atoms: C_1  and  O_7 
REMARK    2  A    between atoms: C_2  and  N_13 
REMARK    3  A    between atoms: C_3  and  O_9 
REMARK    4  A    between atoms: C_4  and  O_22 
REMARK    5  A    between atoms: C_5  and  C_6 
REMARK    6  A    between atoms: C_6  and  O_12 
REMARK    7  A    between atoms: O_12  and  S_18 
REMARK       I    between atoms: N_13  and  C_15 
ROOT
HETATM    1  C   UNL     1      24.664  -5.974  -5.734  1.00  0.00     0.282 C 
HETATM    2  C   UNL     1      24.066  -4.839  -6.563  1.00  0.00     0.170 C 
HETATM    3  C   UNL     1      22.643  -4.561  -6.094  1.00  0.00     0.177 C 
HETATM    4  C   UNL     1      22.036  -5.752  -5.369  1.00  0.00     0.180 C 
HETATM    5  C   UNL     1      22.852  -6.101  -4.126  1.00  0.00     0.181 C 
HETATM    6  O   UNL     1      24.236  -6.351  -4.432  1.00  0.00    -0.349 OA
ENDROOT
BRANCH   5   7
HETATM    7  C   UNL     1      22.344  -7.331  -3.429  1.00  0.00     0.227 C 
BRANCH   7   8
HETATM    8  O   UNL     1      22.781  -7.266  -2.085  1.00  0.00    -0.254 OA
BRANCH   8   9
HETATM    9  S   UNL     1      23.145  -8.621  -1.397  1.00  0.00     0.251 S 
HETATM   10  O   UNL     1      22.024  -9.472  -1.641  1.00  0.00    -0.572 OA
HETATM   11  O   UNL     1      24.314  -9.095  -2.058  1.00  0.00    -0.572 OA
HETATM   12  O   UNL     1      23.304  -8.312  -0.006  1.00  0.00    -0.572 OA
ENDBRANCH   8   9
ENDBRANCH   7   8
ENDBRANCH   5   7
BRANCH   4  13
HETATM   13  O   UNL     1      20.703  -5.424  -4.992  1.00  0.00    -0.390 OA
ATOM     14  HO  UNL     1      20.584  -4.483  -5.023  1.00  0.00     0.210 HD
ENDBRANCH   4  13
BRANCH   3  15
HETATM   15  O   UNL     1      21.880  -4.259  -7.254  1.00  0.00    -0.391 OA
ATOM     16  HO  UNL     1      21.579  -3.358  -7.219  1.00  0.00     0.210 HD
ENDBRANCH   3  15
BRANCH   1  17
HETATM   17  O   UNL     1      24.242  -7.087  -6.462  1.00  0.00    -0.369 OA
ATOM     18  HO  UNL     1      24.599  -7.784  -5.924  1.00  0.00     0.212 HD
ENDBRANCH   1  17
BRANCH   2  19
HETATM   19  N   UNL     1      24.823  -3.609  -6.599  1.00  0.00    -0.349 N 
HETATM   20  C   UNL     1      25.237  -3.045  -5.449  1.00  0.00     0.214 C 
HETATM   21  O   UNL     1      25.012  -3.575  -4.358  1.00  0.00    -0.274 OA
HETATM   22  C   UNL     1      26.028  -1.773  -5.574  1.00  0.00     0.117 C 
ATOM     23  HN  UNL     1      25.043  -3.169  -7.493  1.00  0.00     0.163 HD
ENDBRANCH   2  19
TORSDOF 7
ENDMDL
MODEL 3
REMARK VINA RESULT:    -6.100      3.116      3.941
REMARK INTER + INTRA:          -9.255
REMARK INTER:                  -8.063
REMARK INTRA:                  -1.192
REMARK UNBOUND:                -1.193
REMARK  7 active torsions:
REMARK  status: ('A' for Active; 'I' for Inactive)
REMARK    1  A    between atoms: C_1  and  O_7 
REMARK    2  A    between atoms: C_2  and  N_13 
REMARK    3  A    between atoms: C_3  and  O_9 
REMARK    4  A    between atoms: C_4  and  O_22 
REMARK    5  A    between atoms: C_5  and  C_6 
REMARK    6  A    between atoms: C_6  and  O_12 
REMARK    7  A    between atoms: O_12  and  S_18 
REMARK       I    between atoms: N_13  and  C_15 
ROOT
HETATM    1  C   UNL     1      22.836  -8.965  -6.114  1.00  0.00     0.282 C 
HETATM    2  C   UNL     1      22.300  -7.851  -7.011  1.00  0.00     0.170 C 
HETATM    3  C   UNL     1      22.747  -6.500  -6.467  1.00  0.00     0.177 C 
HETATM    4  C   UNL     1      23.104  -6.566  -4.990  1.00  0.00     0.180 C 
HETATM    5  C   UNL     1      24.255  -7.542  -4.756  1.00  0.00     0.181 C 
HETATM    6  O   UNL     1      23.970  -8.858  -5.263  1.00  0.00    -0.349 OA
ENDROOT
BRANCH   5   7
HETATM    7  C   UNL     1      24.579  -7.711  -3.299  1.00  0.00     0.227 C 
BRANCH   7   8
HETATM    8  O   UNL     1      23.363  -7.612  -2.582  1.00  0.00    -0.254 OA
BRANCH   8   9
HETATM    9  S   UNL     1      22.946  -8.855  -1.730  1.00  0.00     0.251 S 
HETATM   10  O   UNL     1      23.742  -9.930  -2.231  1.00  0.00    -0.572 OA
HETATM   11  O   UNL     1      23.282  -8.540  -0.384  1.00  0.00    -0.572 OA
HETATM   12  O   UNL     1      21.548  -9.044  -1.991  1.00  0.00    -0.572 OA
ENDBRANCH   8   9
ENDBRANCH   7   8
ENDBRANCH   5   7
BRANCH   4  13
HETATM   13  O   UNL     1      23.480  -5.265  -4.554  1.00  0.00    -0.390 OA
ATOM     14  HO  UNL     1      24.197  -4.943  -5.087  1.00  0.00     0.210 HD
ENDBRANCH   4  13
BRANCH   3  15
HETATM   15  O   UNL     1      21.666  -5.599  -6.665  1.00  0.00    -0.391 OA
ATOM     16  HO  UNL     1      21.192  -5.830  -7.456  1.00  0.00     0.210 HD
ENDBRANCH   3  15
BRANCH   1  17
HETATM   17  O   UNL     1      21.822  -9.050  -5.159  1.00  0.00    -0.369 OA
ATOM     18  HO  UNL     1      21.788  -9.991  -5.035  1.00  0.00     0.212 HD
ENDBRANCH   1  17
BRANCH   2  19
HETATM   19  N   UNL     1      22.626  -7.951  -8.415  1.00  0.00    -0.349 N 
HETATM   20  C   UNL     1      21.672  -7.739  -9.340  1.00  0.00     0.214 C 
HETATM   21  O   UNL     1      20.523  -7.425  -9.016  1.00  0.00    -0.274 OA
HETATM   22  C   UNL     1      22.096  -7.851 -10.777  1.00  0.00     0.117 C 
ATOM     23  HN  UNL     1      23.577  -8.182  -8.704  1.00  0.00     0.163 HD
ENDBRANCH   2  19
TORSDOF 7
ENDMDL
MODEL 4
REMARK VINA RESULT:    -5.917      2.084      2.904
REMARK INTER + INTRA:          -9.012
REMARK INTER:                  -8.823
REMARK INTRA:                  -0.189
REMARK UNBOUND:                -1.193
REMARK  7 active torsions:
REMARK  status: ('A' for Active; 'I' for Inactive)
REMARK    1  A    between atoms: C_1  and  O_7 
REMARK    2  A    between atoms: C_2  and  N_13 
REMARK    3  A    between atoms: C_3  and  O_9 
REMARK    4  A    between atoms: C_4  and  O_22 
REMARK    5  A    between atoms: C_5  and  C_6 
REMARK    6  A    between atoms: C_6  and  O_12 
REMARK    7  A    between atoms: O_12  and  S_18 
REMARK       I    between atoms: N_13  and  C_15 
ROOT
HETATM    1  C   UNL     1      23.705  -5.842  -4.271  1.00  0.00     0.282 C 
HETATM    2  C   UNL     1      23.853  -5.876  -5.791  1.00  0.00     0.170 C 
HETATM    3  C   UNL     1      22.958  -6.969  -6.364  1.00  0.00     0.177 C 
HETATM    4  C   UNL     1      22.608  -8.024  -5.328  1.00  0.00     0.180 C 
HETATM    5  C   UNL     1      21.851  -7.402  -4.157  1.00  0.00     0.181 C 
HETATM    6  O   UNL     1      22.580  -6.322  -3.546  1.00  0.00    -0.349 OA
ENDROOT
BRANCH   5   7
HETATM    7  C   UNL     1      21.566  -8.392  -3.064  1.00  0.00     0.227 C 
BRANCH   7   8
HETATM    8  O   UNL     1      22.390  -8.055  -1.964  1.00  0.00    -0.254 OA
BRANCH   8   9
HETATM    9  S   UNL     1      23.401  -9.146  -1.482  1.00  0.00     0.251 S 
HETATM   10  O   UNL     1      22.986  -9.473  -0.155  1.00  0.00    -0.572 OA
HETATM   11  O   UNL     1      23.239 -10.249  -2.367  1.00  0.00    -0.572 OA
HETATM   12  O   UNL     1      24.687  -8.513  -1.510  1.00  0.00    -0.572 OA
ENDBRANCH   8   9
ENDBRANCH   7   8
ENDBRANCH   5   7
BRANCH   4  13
HETATM   13  O   UNL     1      21.800  -9.019  -5.948  1.00  0.00    -0.390 OA
ATOM     14  HO  UNL     1      21.037  -9.193  -5.410  1.00  0.00     0.210 HD
ENDBRANCH   4  13
BRANCH   3  15
HETATM   15  O   UNL     1      23.673  -7.561  -7.440  1.00  0.00    -0.391 OA
ATOM     16  HO  UNL     1      23.330  -8.429  -7.619  1.00  0.00     0.210 HD
ENDBRANCH   3  15
BRANCH   1  17
HETATM   17  O   UNL     1      24.662  -6.781  -3.888  1.00  0.00    -0.369 OA
ATOM     18  HO  UNL     1      25.449  -6.254  -3.954  1.00  0.00     0.212 HD
ENDBRANCH   1  17
BRANCH   2  19
HETATM   19  N   UNL     1      23.617  -4.630  -6.483  1.00  0.00    -0.349 N 
HETATM   20  C   UNL     1      22.373  -4.118  -6.533  1.00  0.00     0.214 C 
HETATM   21  O   UNL     1      21.428  -4.676  -5.969  1.00  0.00    -0.274 OA
HETATM   22  C   UNL     1      22.214  -2.814  -7.262  1.00  0.00     0.117 C 
ATOM     23  HN  UNL     1      24.390  -4.139  -6.932  1.00  0.00     0.163 HD
ENDBRANCH   2  19
TORSDOF 7
ENDMDL
MODEL 5
REMARK VINA RESULT:    -5.430      8.035      9.371
REMARK INTER + INTRA:          -8.369
REMARK INTER:                  -7.265
REMARK INTRA:                  -1.105
REMARK UNBOUND:                -1.193
REMARK  7 active torsions:
REMARK  status: ('A' for Active; 'I' for Inactive)
REMARK    1  A    between atoms: C_1  and  O_7 
REMARK    2  A    between atoms: C_2  and  N_13 
REMARK    3  A    between atoms: C_3  and  O_9 
REMARK    4  A    between atoms: C_4  and  O_22 
REMARK    5  A    between atoms: C_5  and  C_6 
REMARK    6  A    between atoms: C_6  and  O_12 
REMARK    7  A    between atoms: O_12  and  S_18 
REMARK       I    between atoms: N_13  and  C_15 
ROOT
HETATM    1  C   UNL     1      19.316 -10.101 -10.398  1.00  0.00     0.282 C 
HETATM    2  C   UNL     1      18.278  -9.840 -11.488  1.00  0.00     0.170 C 
HETATM    3  C   UNL     1      18.799  -8.770 -12.440  1.00  0.00     0.177 C 
HETATM    4  C   UNL     1      19.875  -7.908 -11.801  1.00  0.00     0.180 C 
HETATM    5  C   UNL     1      21.075  -8.759 -11.391  1.00  0.00     0.181 C 
HETATM    6  O   UNL     1      20.708  -9.838 -10.512  1.00  0.00    -0.349 OA
ENDROOT
BRANCH   5   7
HETATM    7  C   UNL     1      22.126  -7.963 -10.669  1.00  0.00     0.227 C 
BRANCH   7   8
HETATM    8  O   UNL     1      21.512  -7.390  -9.530  1.00  0.00    -0.254 OA
BRANCH   8   9
HETATM    9  S   UNL     1      22.138  -7.741  -8.141  1.00  0.00     0.251 S 
HETATM   10  O   UNL     1      21.277  -8.737  -7.589  1.00  0.00    -0.572 OA
HETATM   11  O   UNL     1      23.433  -8.263  -8.416  1.00  0.00    -0.572 OA
HETATM   12  O   UNL     1      22.110  -6.519  -7.391  1.00  0.00    -0.572 OA
ENDBRANCH   8   9
ENDBRANCH   7   8
ENDBRANCH   5   7
BRANCH   4  13
HETATM   13  O   UNL     1      20.284  -6.920 -12.740  1.00  0.00    -0.390 OA
ATOM     14  HO  UNL     1      21.211  -7.018 -12.925  1.00  0.00     0.210 HD
ENDBRANCH   4  13
BRANCH   3  15
HETATM   15  O   UNL     1      17.684  -7.966 -12.803  1.00  0.00    -0.391 OA
ATOM     16  HO  UNL     1      16.914  -8.511 -12.914  1.00  0.00     0.210 HD
ENDBRANCH   3  15
BRANCH   1  17
HETATM   17  O   UNL     1      18.961  -9.135  -9.455  1.00  0.00    -0.369 OA
ATOM     18  HO  UNL     1      18.144  -9.502  -9.140  1.00  0.00     0.212 HD
ENDBRANCH   1  17
BRANCH   2  19
HETATM   19  N   UNL     1      17.835 -10.994 -12.235  1.00  0.00    -0.349 N 
HETATM   20  C   UNL     1      16.520 -11.201 -12.431  1.00  0.00     0.214 C 
HETATM   21  O   UNL     1      15.677 -10.402 -12.012  1.00  0.00    -0.274 OA
HETATM   22  C   UNL     1      16.144 -12.417 -13.227  1.00  0.00     0.117 C 
ATOM     23  HN  UNL     1      18.518 -11.651 -12.614  1.00  0.00     0.163 HD
ENDBRANCH   2  19
TORSDOF 7
ENDMDL
MODEL 6
REMARK VINA RESULT:    -5.419      6.559      8.168
REMARK INTER + INTRA:          -8.354
REMARK INTER:                  -7.517
REMARK INTRA:                  -0.838
REMARK UNBOUND:                -1.193
REMARK  7 active torsions:
REMARK  status: ('A' for Active; 'I' for Inactive)
REMARK    1  A    between atoms: C_1  and  O_7 
REMARK    2  A    between atoms: C_2  and  N_13 
REMARK    3  A    between atoms: C_3  and  O_9 
REMARK    4  A    between atoms: C_4  and  O_22 
REMARK    5  A    between atoms: C_5  and  C_6 
REMARK    6  A    between atoms: C_6  and  O_12 
REMARK    7  A    between atoms: O_12  and  S_18 
REMARK       I    between atoms: N_13  and  C_15 
ROOT
HETATM    1  C   UNL     1      19.318  -9.069  -8.771  1.00  0.00     0.282 C 
HETATM    2  C   UNL     1      19.199  -9.186 -10.290  1.00  0.00     0.170 C 
HETATM    3  C   UNL     1      20.514  -8.768 -10.937  1.00  0.00     0.177 C 
HETATM    4  C   UNL     1      21.345  -7.881 -10.023  1.00  0.00     0.180 C 
HETATM    5  C   UNL     1      21.700  -8.617  -8.733  1.00  0.00     0.181 C 
HETATM    6  O   UNL     1      20.536  -9.101  -8.039  1.00  0.00    -0.349 OA
ENDROOT
BRANCH   5   7
HETATM    7  C   UNL     1      22.442  -7.746  -7.759  1.00  0.00     0.227 C 
BRANCH   7   8
HETATM    8  O   UNL     1      21.759  -6.509  -7.693  1.00  0.00    -0.254 OA
BRANCH   8   9
HETATM    9  S   UNL     1      22.337  -5.437  -6.713  1.00  0.00     0.251 S 
HETATM   10  O   UNL     1      22.540  -4.274  -7.516  1.00  0.00    -0.572 OA
HETATM   11  O   UNL     1      21.331  -5.223  -5.729  1.00  0.00    -0.572 OA
HETATM   12  O   UNL     1      23.569  -5.988  -6.229  1.00  0.00    -0.572 OA
ENDBRANCH   8   9
ENDBRANCH   7   8
ENDBRANCH   5   7
BRANCH   4  13
HETATM   13  O   UNL     1      22.536  -7.511 -10.709  1.00  0.00    -0.390 OA
ATOM     14  HO  UNL     1      22.470  -7.761 -11.622  1.00  0.00     0.210 HD
ENDBRANCH   4  13
BRANCH   3  15
HETATM   15  O   UNL     1      20.181  -8.064 -12.125  1.00  0.00    -0.391 OA
ATOM     16  HO  UNL     1      20.514  -7.175 -12.081  1.00  0.00     0.210 HD
ENDBRANCH   3  15
BRANCH   1  17
HETATM   17  O   UNL     1      18.951  -7.736  -8.578  1.00  0.00    -0.369 OA
ATOM     18  HO  UNL     1      19.793  -7.313  -8.694  1.00  0.00     0.212 HD
ENDBRANCH   1  17
BRANCH   2  19
HETATM   19  N   UNL     1      18.786 -10.474 -10.799  1.00  0.00    -0.349 N 
HETATM   20  C   UNL     1      17.807 -10.547 -11.719  1.00  0.00     0.214 C 
HETATM   21  O   UNL     1      17.271  -9.529 -12.167  1.00  0.00    -0.274 OA
HETATM   22  C   UNL     1      17.444 -11.922 -12.204  1.00  0.00     0.117 C 
ATOM     23  HN  UNL     1      19.235 -11.325 -10.461  1.00  0.00     0.163 HD
ENDBRANCH   2  19
TORSDOF 7
ENDMDL
MODEL 7
REMARK VINA RESULT:    -5.388      3.721      4.574
REMARK INTER + INTRA:          -8.314
REMARK INTER:                  -7.080
REMARK INTRA:                  -1.234
REMARK UNBOUND:                -1.193
REMARK  7 active torsions:
REMARK  status: ('A' for Active; 'I' for Inactive)
REMARK    1  A    between atoms: C_1  and  O_7 
REMARK    2  A    between atoms: C_2  and  N_13 
REMARK    3  A    between atoms: C_3  and  O_9 
REMARK    4  A    between atoms: C_4  and  O_22 
REMARK    5  A    between atoms: C_5  and  C_6 
REMARK    6  A    between atoms: C_6  and  O_12 
REMARK    7  A    between atoms: O_12  and  S_18 
REMARK       I    between atoms: N_13  and  C_15 
ROOT
HETATM    1  C   UNL     1      22.194  -9.652  -7.087  1.00  0.00     0.282 C 
HETATM    2  C   UNL     1      21.917  -8.402  -7.920  1.00  0.00     0.170 C 
HETATM    3  C   UNL     1      22.953  -7.333  -7.593  1.00  0.00     0.177 C 
HETATM    4  C   UNL     1      23.598  -7.557  -6.234  1.00  0.00     0.180 C 
HETATM    5  C   UNL     1      24.320  -8.902  -6.195  1.00  0.00     0.181 C 
HETATM    6  O   UNL     1      23.452 -10.001  -6.525  1.00  0.00    -0.349 OA
ENDROOT
BRANCH   5   7
HETATM    7  C   UNL     1      24.893  -9.208  -4.840  1.00  0.00     0.227 C 
BRANCH   7   8
HETATM    8  O   UNL     1      24.108  -8.521  -3.884  1.00  0.00    -0.254 OA
BRANCH   8   9
HETATM    9  S   UNL     1      23.348  -9.397  -2.837  1.00  0.00     0.251 S 
HETATM   10  O   UNL     1      21.988  -8.969  -2.915  1.00  0.00    -0.572 OA
HETATM   11  O   UNL     1      23.496 -10.744  -3.271  1.00  0.00    -0.572 OA
HETATM   12  O   UNL     1      23.947  -9.085  -1.572  1.00  0.00    -0.572 OA
ENDBRANCH   8   9
ENDBRANCH   7   8
ENDBRANCH   5   7
BRANCH   4  13
HETATM   13  O   UNL     1      24.526  -6.505  -5.993  1.00  0.00    -0.390 OA
ATOM     14  HO  UNL     1      24.243  -5.719  -6.443  1.00  0.00     0.210 HD
ENDBRANCH   4  13
BRANCH   3  15
HETATM   15  O   UNL     1      22.274  -6.085  -7.608  1.00  0.00    -0.391 OA
ATOM     16  HO  UNL     1      21.650  -6.064  -8.325  1.00  0.00     0.210 HD
ENDBRANCH   3  15
BRANCH   1  17
HETATM   17  O   UNL     1      21.479  -9.361  -5.924  1.00  0.00    -0.369 OA
ATOM     18  HO  UNL     1      21.816 -10.036  -5.348  1.00  0.00     0.212 HD
ENDBRANCH   1  17
BRANCH   2  19
HETATM   19  N   UNL     1      21.839  -8.593  -9.350  1.00  0.00    -0.349 N 
HETATM   20  C   UNL     1      20.880  -7.967 -10.057  1.00  0.00     0.214 C 
HETATM   21  O   UNL     1      20.080  -7.200  -9.514  1.00  0.00    -0.274 OA
HETATM   22  C   UNL     1      20.875  -8.210 -11.540  1.00  0.00     0.117 C 
ATOM     23  HN  UNL     1      22.508  -9.201  -9.822  1.00  0.00     0.163 HD
ENDBRANCH   2  19
TORSDOF 7
ENDMDL
MODEL 8
REMARK VINA RESULT:    -5.362      4.218      5.064
REMARK INTER + INTRA:          -8.279
REMARK INTER:                  -7.005
REMARK INTRA:                  -1.274
REMARK UNBOUND:                -1.193
REMARK  7 active torsions:
REMARK  status: ('A' for Active; 'I' for Inactive)
REMARK    1  A    between atoms: C_1  and  O_7 
REMARK    2  A    between atoms: C_2  and  N_13 
REMARK    3  A    between atoms: C_3  and  O_9 
REMARK    4  A    between atoms: C_4  and  O_22 
REMARK    5  A    between atoms: C_5  and  C_6 
REMARK    6  A    between atoms: C_6  and  O_12 
REMARK    7  A    between atoms: O_12  and  S_18 
REMARK       I    between atoms: N_13  and  C_15 
ROOT
HETATM    1  C   UNL     1      22.269  -7.219  -8.282  1.00  0.00     0.282 C 
HETATM    2  C   UNL     1      22.633  -6.942  -6.825  1.00  0.00     0.170 C 
HETATM    3  C   UNL     1      22.738  -8.261  -6.068  1.00  0.00     0.177 C 
HETATM    4  C   UNL     1      21.970  -9.379  -6.755  1.00  0.00     0.180 C 
HETATM    5  C   UNL     1      22.518  -9.628  -8.158  1.00  0.00     0.181 C 
HETATM    6  O   UNL     1      22.508  -8.439  -8.970  1.00  0.00    -0.349 OA
ENDROOT
BRANCH   5   7
HETATM    7  C   UNL     1      21.728 -10.660  -8.911  1.00  0.00     0.227 C 
BRANCH   7   8
HETATM    8  O   UNL     1      20.376 -10.527  -8.516  1.00  0.00    -0.254 OA
BRANCH   8   9
HETATM    9  S   UNL     1      19.357 -10.105  -9.624  1.00  0.00     0.251 S 
HETATM   10  O   UNL     1      20.149  -9.904 -10.796  1.00  0.00    -0.572 OA
HETATM   11  O   UNL     1      18.466 -11.204  -9.778  1.00  0.00    -0.572 OA
HETATM   12  O   UNL     1      18.763  -8.888  -9.152  1.00  0.00    -0.572 OA
ENDBRANCH   8   9
ENDBRANCH   7   8
ENDBRANCH   5   7
BRANCH   4  13
HETATM   13  O   UNL     1      22.093 -10.562  -5.974  1.00  0.00    -0.390 OA
ATOM     14  HO  UNL     1      22.541 -11.232  -6.476  1.00  0.00     0.210 HD
ENDBRANCH   4  13
BRANCH   3  15
HETATM   15  O   UNL     1      22.207  -8.033  -4.770  1.00  0.00    -0.391 OA
ATOM     16  HO  UNL     1      21.792  -8.823  -4.445  1.00  0.00     0.210 HD
ENDBRANCH   3  15
BRANCH   1  17
HETATM   17  O   UNL     1      20.876  -7.249  -8.207  1.00  0.00    -0.369 OA
ATOM     18  HO  UNL     1      20.700  -8.048  -8.689  1.00  0.00     0.212 HD
ENDBRANCH   1  17
BRANCH   2  19
HETATM   19  N   UNL     1      23.821  -6.150  -6.604  1.00  0.00    -0.349 N 
HETATM   20  C   UNL     1      23.804  -5.158  -5.694  1.00  0.00     0.214 C 
HETATM   21  O   UNL     1      22.800  -4.930  -5.014  1.00  0.00    -0.274 OA
HETATM   22  C   UNL     1      25.083  -4.389  -5.518  1.00  0.00     0.117 C 
ATOM     23  HN  UNL     1      24.670  -6.341  -7.137  1.00  0.00     0.163 HD
ENDBRANCH   2  19
TORSDOF 7
ENDMDL
MODEL 9
REMARK VINA RESULT:    -5.359      3.507      4.544
REMARK INTER + INTRA:          -8.275
REMARK INTER:                  -7.419
REMARK INTRA:                  -0.856
REMARK UNBOUND:                -1.193
REMARK  7 active torsions:
REMARK  status: ('A' for Active; 'I' for Inactive)
REMARK    1  A    between atoms: C_1  and  O_7 
REMARK    2  A    between atoms: C_2  and  N_13 
REMARK    3  A    between atoms: C_3  and  O_9 
REMARK    4  A    between atoms: C_4  and  O_22 
REMARK    5  A    between atoms: C_5  and  C_6 
REMARK    6  A    between atoms: C_6  and  O_12 
REMARK    7  A    between atoms: O_12  and  S_18 
REMARK       I    between atoms: N_13  and  C_15 
ROOT
HETATM    1  C   UNL     1      22.427  -6.157  -6.691  1.00  0.00     0.282 C 
HETATM    2  C   UNL     1      22.323  -7.373  -7.610  1.00  0.00     0.170 C 
HETATM    3  C   UNL     1      22.620  -8.639  -6.814  1.00  0.00     0.177 C 
HETATM    4  C   UNL     1      23.425  -8.349  -5.557  1.00  0.00     0.180 C 
HETATM    5  C   UNL     1      22.657  -7.411  -4.628  1.00  0.00     0.181 C 
HETATM    6  O   UNL     1      22.282  -6.183  -5.277  1.00  0.00    -0.349 OA
ENDROOT
BRANCH   5   7
HETATM    7  C   UNL     1      23.454  -7.022  -3.415  1.00  0.00     0.227 C 
BRANCH   7   8
HETATM    8  O   UNL     1      22.700  -7.395  -2.277  1.00  0.00    -0.254 OA
BRANCH   8   9
HETATM    9  S   UNL     1      23.133  -8.706  -1.544  1.00  0.00     0.251 S 
HETATM   10  O   UNL     1      23.315  -8.323  -0.181  1.00  0.00    -0.572 OA
HETATM   11  O   UNL     1      22.047  -9.614  -1.692  1.00  0.00    -0.572 OA
HETATM   12  O   UNL     1      24.361  -9.103  -2.168  1.00  0.00    -0.572 OA
ENDBRANCH   8   9
ENDBRANCH   7   8
ENDBRANCH   5   7
BRANCH   4  13
HETATM   13  O   UNL     1      23.684  -9.580  -4.890  1.00  0.00    -0.390 OA
ATOM     14  HO  UNL     1      22.871  -9.945  -4.564  1.00  0.00     0.210 HD
ENDBRANCH   4  13
BRANCH   3  15
HETATM   15  O   UNL     1      23.353  -9.501  -7.672  1.00  0.00    -0.391 OA
ATOM     16  HO  UNL     1      22.760  -9.960  -8.256  1.00  0.00     0.210 HD
ENDBRANCH   3  15
BRANCH   1  17
HETATM   17  O   UNL     1      23.787  -5.863  -6.792  1.00  0.00    -0.369 OA
ATOM     18  HO  UNL     1      23.806  -5.454  -7.649  1.00  0.00     0.212 HD
ENDBRANCH   1  17
BRANCH   2  19
HETATM   19  N   UNL     1      21.080  -7.523  -8.330  1.00  0.00    -0.349 N 
HETATM   20  C   UNL     1      21.099  -7.835  -9.640  1.00  0.00     0.214 C 
HETATM   21  O   UNL     1      22.162  -8.030 -10.236  1.00  0.00    -0.274 OA
HETATM   22  C   UNL     1      19.764  -7.983 -10.313  1.00  0.00     0.117 C 
ATOM     23  HN  UNL     1      20.190  -7.393  -7.849  1.00  0.00     0.163 HD
ENDBRANCH   2  19
TORSDOF 7
ENDMDL
MODEL 10
REMARK VINA RESULT:    -5.354      3.162      6.295
REMARK INTER + INTRA:          -8.268
REMARK INTER:                  -7.386
REMARK INTRA:                  -0.882
REMARK UNBOUND:                -1.193
REMARK  7 active torsions:
REMARK  status: ('A' for Active; 'I' for Inactive)
REMARK    1  A    between atoms: C_1  and  O_7 
REMARK    2  A    between atoms: C_2  and  N_13 
REMARK    3  A    between atoms: C_3  and  O_9 
REMARK    4  A    between atoms: C_4  and  O_22 
REMARK    5  A    between atoms: C_5  and  C_6 
REMARK    6  A    between atoms: C_6  and  O_12 
REMARK    7  A    between atoms: O_12  and  S_18 
REMARK       I    between atoms: N_13  and  C_15 
ROOT
HETATM    1  C   UNL     1      22.226  -8.326  -3.359  1.00  0.00     0.282 C 
HETATM    2  C   UNL     1      21.911  -9.192  -4.577  1.00  0.00     0.170 C 
HETATM    3  C   UNL     1      22.611  -8.618  -5.804  1.00  0.00     0.177 C 
HETATM    4  C   UNL     1      22.952  -7.147  -5.632  1.00  0.00     0.180 C 
HETATM    5  C   UNL     1      23.896  -6.945  -4.449  1.00  0.00     0.181 C 
HETATM    6  O   UNL     1      23.362  -7.482  -3.225  1.00  0.00    -0.349 OA
ENDROOT
BRANCH   5   7
HETATM    7  C   UNL     1      24.186  -5.495  -4.184  1.00  0.00     0.227 C 
BRANCH   7   8
HETATM    8  O   UNL     1      25.172  -5.085  -5.112  1.00  0.00    -0.254 OA
BRANCH   8   9
HETATM    9  S   UNL     1      24.995  -3.669  -5.748  1.00  0.00     0.251 S 
HETATM   10  O   UNL     1      23.623  -3.610  -6.142  1.00  0.00    -0.572 OA
HETATM   11  O   UNL     1      25.281  -2.735  -4.713  1.00  0.00    -0.572 OA
HETATM   12  O   UNL     1      25.886  -3.641  -6.871  1.00  0.00    -0.572 OA
ENDBRANCH   8   9
ENDBRANCH   7   8
ENDBRANCH   5   7
BRANCH   4  13
HETATM   13  O   UNL     1      23.572  -6.682  -6.826  1.00  0.00    -0.390 OA
ATOM     14  HO  UNL     1      23.085  -6.990  -7.581  1.00  0.00     0.210 HD
ENDBRANCH   4  13
BRANCH   3  15
HETATM   15  O   UNL     1      21.722  -8.787  -6.899  1.00  0.00    -0.391 OA
ATOM     16  HO  UNL     1      21.456  -9.697  -6.965  1.00  0.00     0.210 HD
ENDBRANCH   3  15
BRANCH   1  17
HETATM   17  O   UNL     1      21.217  -7.366  -3.446  1.00  0.00    -0.369 OA
ATOM     18  HO  UNL     1      21.600  -6.779  -4.086  1.00  0.00     0.212 HD
ENDBRANCH   1  17
BRANCH   2  19
HETATM   19  N   UNL     1      22.208 -10.600  -4.452  1.00  0.00    -0.349 N 
HETATM   20  C   UNL     1      21.203 -11.494  -4.399  1.00  0.00     0.214 C 
HETATM   21  O   UNL     1      20.024 -11.138  -4.489  1.00  0.00    -0.274 OA
HETATM   22  C   UNL     1      21.597 -12.939  -4.279  1.00  0.00     0.117 C 
ATOM     23  HN  UNL     1      23.177 -10.917  -4.404  1.00  0.00     0.163 HD
ENDBRANCH   2  19
TORSDOF 7
ENDMDL
MODEL 11
REMARK VINA RESULT:    -5.313      9.210     10.439
REMARK INTER + INTRA:          -8.214
REMARK INTER:                  -7.030
REMARK INTRA:                  -1.184
REMARK UNBOUND:                -1.193
REMARK  7 active torsions:
REMARK  status: ('A' for Active; 'I' for Inactive)
REMARK    1  A    between atoms: C_1  and  O_7 
REMARK    2  A    between atoms: C_2  and  N_13 
REMARK    3  A    between atoms: C_3  and  O_9 
REMARK    4  A    between atoms: C_4  and  O_22 
REMARK    5  A    between atoms: C_5  and  C_6 
REMARK    6  A    between atoms: C_6  and  O_12 
REMARK    7  A    between atoms: O_12  and  S_18 
REMARK       I    between atoms: N_13  and  C_15 
ROOT
HETATM    1  C   UNL     1      20.879 -10.067 -13.078  1.00  0.00     0.282 C 
HETATM    2  C   UNL     1      19.884 -11.198 -13.335  1.00  0.00     0.170 C 
HETATM    3  C   UNL     1      18.493 -10.761 -12.893  1.00  0.00     0.177 C 
HETATM    4  C   UNL     1      18.542  -9.629 -11.880  1.00  0.00     0.180 C 
HETATM    5  C   UNL     1      19.224  -8.400 -12.477  1.00  0.00     0.181 C 
HETATM    6  O   UNL     1      20.545  -8.690 -12.970  1.00  0.00    -0.349 OA
ENDROOT
BRANCH   5   7
HETATM    7  C   UNL     1      19.380  -7.286 -11.480  1.00  0.00     0.227 C 
BRANCH   7   8
HETATM    8  O   UNL     1      20.572  -7.531 -10.757  1.00  0.00    -0.254 OA
BRANCH   8   9
HETATM    9  S   UNL     1      20.416  -7.896  -9.245  1.00  0.00     0.251 S 
HETATM   10  O   UNL     1      20.811  -9.266  -9.154  1.00  0.00    -0.572 OA
HETATM   11  O   UNL     1      21.314  -7.046  -8.542  1.00  0.00    -0.572 OA
HETATM   12  O   UNL     1      19.026  -7.708  -8.949  1.00  0.00    -0.572 OA
ENDBRANCH   8   9
ENDBRANCH   7   8
ENDBRANCH   5   7
BRANCH   4  13
HETATM   13  O   UNL     1      17.211  -9.302 -11.498  1.00  0.00    -0.390 OA
ATOM     14  HO  UNL     1      17.087  -8.362 -11.541  1.00  0.00     0.210 HD
ENDBRANCH   4  13
BRANCH   3  15
HETATM   15  O   UNL     1      17.869 -11.901 -12.318  1.00  0.00    -0.391 OA
ATOM     16  HO  UNL     1      17.349 -12.352 -12.974  1.00  0.00     0.210 HD
ENDBRANCH   3  15
BRANCH   1  17
HETATM   17  O   UNL     1      21.250 -10.334 -11.760  1.00  0.00    -0.369 OA
ATOM     18  HO  UNL     1      22.171 -10.530 -11.882  1.00  0.00     0.212 HD
ENDBRANCH   1  17
BRANCH   2  19
HETATM   19  N   UNL     1      19.836 -11.709 -14.686  1.00  0.00    -0.349 N 
HETATM   20  C   UNL     1      19.783 -13.037 -14.897  1.00  0.00     0.214 C 
HETATM   21  O   UNL     1      19.740 -13.834 -13.955  1.00  0.00    -0.274 OA
HETATM   22  C   UNL     1      19.724 -13.486 -16.329  1.00  0.00     0.117 C 
ATOM     23  HN  UNL     1      19.843 -11.065 -15.477  1.00  0.00     0.163 HD
ENDBRANCH   2  19
TORSDOF 7
ENDMDL
MODEL 12
REMARK VINA RESULT:    -5.290      4.191      6.005
REMARK INTER + INTRA:          -8.184
REMARK INTER:                  -7.184
REMARK INTRA:                  -1.000
REMARK UNBOUND:                -1.193
REMARK  7 active torsions:
REMARK  status: ('A' for Active; 'I' for Inactive)
REMARK    1  A    between atoms: C_1  and  O_7 
REMARK    2  A    between atoms: C_2  and  N_13 
REMARK    3  A    between atoms: C_3  and  O_9 
REMARK    4  A    between atoms: C_4  and  O_22 
REMARK    5  A    between atoms: C_5  and  C_6 
REMARK    6  A    between atoms: C_6  and  O_12 
REMARK    7  A    between atoms: O_12  and  S_18 
REMARK       I    between atoms: N_13  and  C_15 
ROOT
HETATM    1  C   UNL     1      20.311 -10.999  -3.798  1.00  0.00     0.282 C 
HETATM    2  C   UNL     1      21.730 -10.597  -3.397  1.00  0.00     0.170 C 
HETATM    3  C   UNL     1      22.652 -10.714  -4.605  1.00  0.00     0.177 C 
HETATM    4  C   UNL     1      22.096 -11.656  -5.661  1.00  0.00     0.180 C 
HETATM    5  C   UNL     1      20.750 -11.154  -6.178  1.00  0.00     0.181 C 
HETATM    6  O   UNL     1      19.792 -10.964  -5.120  1.00  0.00    -0.349 OA
ENDROOT
BRANCH   5   7
HETATM    7  C   UNL     1      20.118 -12.103  -7.156  1.00  0.00     0.227 C 
BRANCH   7   8
HETATM    8  O   UNL     1      18.941 -12.608  -6.554  1.00  0.00    -0.254 OA
BRANCH   8   9
HETATM    9  S   UNL     1      18.802 -14.163  -6.475  1.00  0.00     0.251 S 
HETATM   10  O   UNL     1      19.527 -14.656  -7.602  1.00  0.00    -0.572 OA
HETATM   11  O   UNL     1      19.415 -14.550  -5.250  1.00  0.00    -0.572 OA
HETATM   12  O   UNL     1      17.396 -14.425  -6.573  1.00  0.00    -0.572 OA
ENDBRANCH   8   9
ENDBRANCH   7   8
ENDBRANCH   5   7
BRANCH   4  13
HETATM   13  O   UNL     1      23.025 -11.733  -6.736  1.00  0.00    -0.390 OA
ATOM     14  HO  UNL     1      22.652 -12.241  -7.446  1.00  0.00     0.210 HD
ENDBRANCH   4  13
BRANCH   3  15
HETATM   15  O   UNL     1      23.897 -11.202  -4.125  1.00  0.00    -0.391 OA
ATOM     16  HO  UNL     1      23.836 -11.389  -3.195  1.00  0.00     0.210 HD
ENDBRANCH   3  15
BRANCH   1  17
HETATM   17  O   UNL     1      20.357 -12.378  -3.588  1.00  0.00    -0.369 OA
ATOM     18  HO  UNL     1      20.423 -12.401  -2.641  1.00  0.00     0.212 HD
ENDBRANCH   1  17
BRANCH   2  19
HETATM   19  N   UNL     1      21.875  -9.294  -2.789  1.00  0.00    -0.349 N 
HETATM   20  C   UNL     1      22.770  -9.114  -1.800  1.00  0.00     0.214 C 
HETATM   21  O   UNL     1      23.499 -10.034  -1.420  1.00  0.00    -0.274 OA
HETATM   22  C   UNL     1      22.867  -7.728  -1.229  1.00  0.00     0.117 C 
ATOM     23  HN  UNL     1      21.300  -8.514  -3.107  1.00  0.00     0.163 HD
ENDBRANCH   2  19
TORSDOF 7
ENDMDL
MODEL 13
REMARK VINA RESULT:    -5.234      3.409      6.512
REMARK INTER + INTRA:          -8.109
REMARK INTER:                  -7.196
REMARK INTRA:                  -0.913
REMARK UNBOUND:                -1.193
REMARK  7 active torsions:
REMARK  status: ('A' for Active; 'I' for Inactive)
REMARK    1  A    between atoms: C_1  and  O_7 
REMARK    2  A    between atoms: C_2  and  N_13 
REMARK    3  A    between atoms: C_3  and  O_9 
REMARK    4  A    between atoms: C_4  and  O_22 
REMARK    5  A    between atoms: C_5  and  C_6 
REMARK    6  A    between atoms: C_6  and  O_12 
REMARK    7  A    between atoms: O_12  and  S_18 
REMARK       I    between atoms: N_13  and  C_15 
ROOT
HETATM    1  C   UNL     1      20.920 -10.252  -4.050  1.00  0.00     0.282 C 
HETATM    2  C   UNL     1      21.905 -11.415  -4.159  1.00  0.00     0.170 C 
HETATM    3  C   UNL     1      23.280 -10.963  -3.681  1.00  0.00     0.177 C 
HETATM    4  C   UNL     1      23.441  -9.453  -3.745  1.00  0.00     0.180 C 
HETATM    5  C   UNL     1      22.413  -8.761  -2.854  1.00  0.00     0.181 C 
HETATM    6  O   UNL     1      21.062  -9.136  -3.182  1.00  0.00    -0.349 OA
ENDROOT
BRANCH   5   7
HETATM    7  C   UNL     1      22.474  -7.263  -2.959  1.00  0.00     0.227 C 
BRANCH   7   8
HETATM    8  O   UNL     1      21.720  -6.889  -4.096  1.00  0.00    -0.254 OA
BRANCH   8   9
HETATM    9  S   UNL     1      22.380  -5.860  -5.071  1.00  0.00     0.251 S 
HETATM   10  O   UNL     1      22.978  -6.654  -6.096  1.00  0.00    -0.572 OA
HETATM   11  O   UNL     1      21.316  -5.064  -5.580  1.00  0.00    -0.572 OA
HETATM   12  O   UNL     1      23.355  -5.162  -4.284  1.00  0.00    -0.572 OA
ENDBRANCH   8   9
ENDBRANCH   7   8
ENDBRANCH   5   7
BRANCH   4  13
HETATM   13  O   UNL     1      24.755  -9.117  -3.314  1.00  0.00    -0.390 OA
ATOM     14  HO  UNL     1      24.907  -9.470  -2.445  1.00  0.00     0.210 HD
ENDBRANCH   4  13
BRANCH   3  15
HETATM   15  O   UNL     1      24.234 -11.590  -4.526  1.00  0.00    -0.391 OA
ATOM     16  HO  UNL     1      24.867 -12.068  -4.003  1.00  0.00     0.210 HD
ENDBRANCH   3  15
BRANCH   1  17
HETATM   17  O   UNL     1      21.108  -9.627  -5.284  1.00  0.00    -0.369 OA
ATOM     18  HO  UNL     1      20.226  -9.679  -5.633  1.00  0.00     0.212 HD
ENDBRANCH   1  17
BRANCH   2  19
HETATM   19  N   UNL     1      21.525 -12.636  -3.488  1.00  0.00    -0.349 N 
HETATM   20  C   UNL     1      21.707 -13.821  -4.101  1.00  0.00     0.214 C 
HETATM   21  O   UNL     1      22.226 -13.891  -5.218  1.00  0.00    -0.274 OA
HETATM   22  C   UNL     1      21.296 -15.043  -3.331  1.00  0.00     0.117 C 
ATOM     23  HN  UNL     1      21.120 -12.601  -2.552  1.00  0.00     0.163 HD
ENDBRANCH   2  19
TORSDOF 7
ENDMDL
MODEL 14
REMARK VINA RESULT:    -5.232      2.691      3.236
REMARK INTER + INTRA:          -8.107
REMARK INTER:                  -6.921
REMARK INTRA:                  -1.186
REMARK UNBOUND:                -1.193
REMARK  7 active torsions:
REMARK  status: ('A' for Active; 'I' for Inactive)
REMARK    1  A    between atoms: C_1  and  O_7 
REMARK    2  A    between atoms: C_2  and  N_13 
REMARK    3  A    between atoms: C_3  and  O_9 
REMARK    4  A    between atoms: C_4  and  O_22 
REMARK    5  A    between atoms: C_5  and  C_6 
REMARK    6  A    between atoms: C_6  and  O_12 
REMARK    7  A    between atoms: O_12  and  S_18 
REMARK       I    between atoms: N_13  and  C_15 
ROOT
HETATM    1  C   UNL     1      23.070  -7.977  -7.193  1.00  0.00     0.282 C 
HETATM    2  C   UNL     1      23.005  -6.815  -6.203  1.00  0.00     0.170 C 
HETATM    3  C   UNL     1      22.729  -7.353  -4.804  1.00  0.00     0.177 C 
HETATM    4  C   UNL     1      22.085  -8.730  -4.837  1.00  0.00     0.180 C 
HETATM    5  C   UNL     1      23.000  -9.738  -5.527  1.00  0.00     0.181 C 
HETATM    6  O   UNL     1      23.369  -9.325  -6.856  1.00  0.00    -0.349 OA
ENDROOT
BRANCH   5   7
HETATM    7  C   UNL     1      22.365 -11.092  -5.666  1.00  0.00     0.227 C 
BRANCH   7   8
HETATM    8  O   UNL     1      20.970 -10.924  -5.495  1.00  0.00    -0.254 OA
BRANCH   8   9
HETATM    9  S   UNL     1      20.053 -11.424  -6.658  1.00  0.00     0.251 S 
HETATM   10  O   UNL     1      18.809 -11.745  -6.034  1.00  0.00    -0.572 OA
HETATM   11  O   UNL     1      19.920 -10.326  -7.553  1.00  0.00    -0.572 OA
HETATM   12  O   UNL     1      20.711 -12.581  -7.191  1.00  0.00    -0.572 OA
ENDBRANCH   8   9
ENDBRANCH   7   8
ENDBRANCH   5   7
BRANCH   4  13
HETATM   13  O   UNL     1      21.833  -9.146  -3.499  1.00  0.00    -0.390 OA
ATOM     14  HO  UNL     1      20.921  -8.995  -3.283  1.00  0.00     0.210 HD
ENDBRANCH   4  13
BRANCH   3  15
HETATM   15  O   UNL     1      21.859  -6.425  -4.172  1.00  0.00    -0.391 OA
ATOM     16  HO  UNL     1      21.042  -6.365  -4.653  1.00  0.00     0.210 HD
ENDBRANCH   3  15
BRANCH   1  17
HETATM   17  O   UNL     1      21.725  -8.104  -7.543  1.00  0.00    -0.369 OA
ATOM     18  HO  UNL     1      21.706  -9.018  -7.802  1.00  0.00     0.212 HD
ENDBRANCH   1  17
BRANCH   2  19
HETATM   19  N   UNL     1      24.151  -5.935  -6.177  1.00  0.00    -0.349 N 
HETATM   20  C   UNL     1      23.971  -4.606  -6.063  1.00  0.00     0.214 C 
HETATM   21  O   UNL     1      22.843  -4.120  -5.946  1.00  0.00    -0.274 OA
HETATM   22  C   UNL     1      25.214  -3.763  -6.033  1.00  0.00     0.117 C 
ATOM     23  HN  UNL     1      25.093  -6.320  -6.245  1.00  0.00     0.163 HD
ENDBRANCH   2  19
TORSDOF 7
ENDMDL
MODEL 15
REMARK VINA RESULT:    -5.213      3.274      5.223
REMARK INTER + INTRA:          -8.082
REMARK INTER:                  -6.987
REMARK INTRA:                  -1.094
REMARK UNBOUND:                -1.193
REMARK  7 active torsions:
REMARK  status: ('A' for Active; 'I' for Inactive)
REMARK    1  A    between atoms: C_1  and  O_7 
REMARK    2  A    between atoms: C_2  and  N_13 
REMARK    3  A    between atoms: C_3  and  O_9 
REMARK    4  A    between atoms: C_4  and  O_22 
REMARK    5  A    between atoms: C_5  and  C_6 
REMARK    6  A    between atoms: C_6  and  O_12 
REMARK    7  A    between atoms: O_12  and  S_18 
REMARK       I    between atoms: N_13  and  C_15 
ROOT
HETATM    1  C   UNL     1      20.244 -10.327  -3.966  1.00  0.00     0.282 C 
HETATM    2  C   UNL     1      21.550  -9.619  -3.608  1.00  0.00     0.170 C 
HETATM    3  C   UNL     1      22.722 -10.566  -3.840  1.00  0.00     0.177 C 
HETATM    4  C   UNL     1      22.291 -12.024  -3.829  1.00  0.00     0.180 C 
HETATM    5  C   UNL     1      21.276 -12.296  -4.937  1.00  0.00     0.181 C 
HETATM    6  O   UNL     1      20.127 -11.433  -4.852  1.00  0.00    -0.349 OA
ENDROOT
BRANCH   5   7
HETATM    7  C   UNL     1      20.751 -13.703  -4.905  1.00  0.00     0.227 C 
BRANCH   7   8
HETATM    8  O   UNL     1      20.724 -14.113  -3.551  1.00  0.00    -0.254 OA
BRANCH   8   9
HETATM    9  S   UNL     1      21.278 -15.540  -3.237  1.00  0.00     0.251 S 
HETATM   10  O   UNL     1      21.715 -15.476  -1.879  1.00  0.00    -0.572 OA
HETATM   11  O   UNL     1      20.178 -16.431  -3.390  1.00  0.00    -0.572 OA
HETATM   12  O   UNL     1      22.365 -15.737  -4.151  1.00  0.00    -0.572 OA
ENDBRANCH   8   9
ENDBRANCH   7   8
ENDBRANCH   5   7
BRANCH   4  13
HETATM   13  O   UNL     1      23.441 -12.840  -4.021  1.00  0.00    -0.390 OA
ATOM     14  HO  UNL     1      23.229 -13.744  -3.824  1.00  0.00     0.210 HD
ENDBRANCH   4  13
BRANCH   3  15
HETATM   15  O   UNL     1      23.654 -10.328  -2.795  1.00  0.00    -0.391 OA
ATOM     16  HO  UNL     1      23.289  -9.715  -2.167  1.00  0.00     0.210 HD
ENDBRANCH   3  15
BRANCH   1  17
HETATM   17  O   UNL     1      19.938 -10.950  -2.756  1.00  0.00    -0.369 OA
ATOM     18  HO  UNL     1      20.041 -10.217  -2.160  1.00  0.00     0.212 HD
ENDBRANCH   1  17
BRANCH   2  19
HETATM   19  N   UNL     1      21.794  -8.359  -4.271  1.00  0.00    -0.349 N 
HETATM   20  C   UNL     1      22.313  -7.329  -3.578  1.00  0.00     0.214 C 
HETATM   21  O   UNL     1      22.619  -7.446  -2.388  1.00  0.00    -0.274 OA
HETATM   22  C   UNL     1      22.547  -6.057  -4.344  1.00  0.00     0.117 C 
ATOM     23  HN  UNL     1      21.574  -8.251  -5.261  1.00  0.00     0.163 HD
ENDBRANCH   2  19
TORSDOF 7
ENDMDL
MODEL 16
REMARK VINA RESULT:    -5.185      7.677      9.077
REMARK INTER + INTRA:          -8.045
REMARK INTER:                  -7.110
REMARK INTRA:                  -0.935
REMARK UNBOUND:                -1.193
REMARK  7 active torsions:
REMARK  status: ('A' for Active; 'I' for Inactive)
REMARK    1  A    between atoms: C_1  and  O_7 
REMARK    2  A    between atoms: C_2  and  N_13 
REMARK    3  A    between atoms: C_3  and  O_9 
REMARK    4  A    between atoms: C_4  and  O_22 
REMARK    5  A    between atoms: C_5  and  C_6 
REMARK    6  A    between atoms: C_6  and  O_12 
REMARK    7  A    between atoms: O_12  and  S_18 
REMARK       I    between atoms: N_13  and  C_15 
ROOT
HETATM    1  C   UNL     1      18.992  -8.652 -12.186  1.00  0.00     0.282 C 
HETATM    2  C   UNL     1      18.098  -9.787 -11.688  1.00  0.00     0.170 C 
HETATM    3  C   UNL     1      18.547 -10.213 -10.295  1.00  0.00     0.177 C 
HETATM    4  C   UNL     1      19.989  -9.824 -10.014  1.00  0.00     0.180 C 
HETATM    5  C   UNL     1      20.165  -8.309 -10.091  1.00  0.00     0.181 C 
HETATM    6  O   UNL     1      19.737  -7.771 -11.356  1.00  0.00    -0.349 OA
ENDROOT
BRANCH   5   7
HETATM    7  C   UNL     1      21.595  -7.885  -9.913  1.00  0.00     0.227 C 
BRANCH   7   8
HETATM    8  O   UNL     1      21.725  -7.384  -8.596  1.00  0.00    -0.254 OA
BRANCH   8   9
HETATM    9  S   UNL     1      22.790  -8.075  -7.683  1.00  0.00     0.251 S 
HETATM   10  O   UNL     1      23.372  -7.013  -6.926  1.00  0.00    -0.572 OA
HETATM   11  O   UNL     1      22.069  -8.976  -6.850  1.00  0.00    -0.572 OA
HETATM   12  O   UNL     1      23.728  -8.680  -8.583  1.00  0.00    -0.572 OA
ENDBRANCH   8   9
ENDBRANCH   7   8
ENDBRANCH   5   7
BRANCH   4  13
HETATM   13  O   UNL     1      20.338 -10.282  -8.712  1.00  0.00    -0.390 OA
ATOM     14  HO  UNL     1      20.663  -9.556  -8.193  1.00  0.00     0.210 HD
ENDBRANCH   4  13
BRANCH   3  15
HETATM   15  O   UNL     1      18.404 -11.625 -10.233  1.00  0.00    -0.391 OA
ATOM     16  HO  UNL     1      17.773 -11.859  -9.562  1.00  0.00     0.210 HD
ENDBRANCH   3  15
BRANCH   1  17
HETATM   17  O   UNL     1      20.031  -9.371 -12.777  1.00  0.00    -0.369 OA
ATOM     18  HO  UNL     1      20.083  -8.930 -13.616  1.00  0.00     0.212 HD
ENDBRANCH   1  17
BRANCH   2  19
HETATM   19  N   UNL     1      16.677  -9.527 -11.691  1.00  0.00    -0.349 N 
HETATM   20  C   UNL     1      15.818 -10.510 -12.020  1.00  0.00     0.214 C 
HETATM   21  O   UNL     1      16.217 -11.646 -12.288  1.00  0.00    -0.274 OA
HETATM   22  C   UNL     1      14.357 -10.161 -11.988  1.00  0.00     0.117 C 
ATOM     23  HN  UNL     1      16.325  -8.601 -11.446  1.00  0.00     0.163 HD
ENDBRANCH   2  19
TORSDOF 7
ENDMDL
MODEL 17
REMARK VINA RESULT:    -5.142      2.074      3.066
REMARK INTER + INTRA:          -7.989
REMARK INTER:                  -6.973
REMARK INTRA:                  -1.015
REMARK UNBOUND:                -1.193
REMARK  7 active torsions:
REMARK  status: ('A' for Active; 'I' for Inactive)
REMARK    1  A    between atoms: C_1  and  O_7 
REMARK    2  A    between atoms: C_2  and  N_13 
REMARK    3  A    between atoms: C_3  and  O_9 
REMARK    4  A    between atoms: C_4  and  O_22 
REMARK    5  A    between atoms: C_5  and  C_6 
REMARK    6  A    between atoms: C_6  and  O_12 
REMARK    7  A    between atoms: O_12  and  S_18 
REMARK       I    between atoms: N_13  and  C_15 
ROOT
HETATM    1  C   UNL     1      22.528  -7.208  -5.796  1.00  0.00     0.282 C 
HETATM    2  C   UNL     1      23.825  -6.609  -5.254  1.00  0.00     0.170 C 
HETATM    3  C   UNL     1      24.822  -7.726  -4.970  1.00  0.00     0.177 C 
HETATM    4  C   UNL     1      24.137  -9.070  -4.780  1.00  0.00     0.180 C 
HETATM    5  C   UNL     1      23.371  -9.469  -6.039  1.00  0.00     0.181 C 
HETATM    6  O   UNL     1      22.415  -8.470  -6.439  1.00  0.00    -0.349 OA
ENDROOT
BRANCH   5   7
HETATM    7  C   UNL     1      22.601 -10.747  -5.865  1.00  0.00     0.227 C 
BRANCH   7   8
HETATM    8  O   UNL     1      22.104 -10.763  -4.540  1.00  0.00    -0.254 OA
BRANCH   8   9
HETATM    9  S   UNL     1      20.604 -11.162  -4.356  1.00  0.00     0.251 S 
HETATM   10  O   UNL     1      20.094 -10.246  -3.386  1.00  0.00    -0.572 OA
HETATM   11  O   UNL     1      19.989 -10.975  -5.626  1.00  0.00    -0.572 OA
HETATM   12  O   UNL     1      20.626 -12.512  -3.873  1.00  0.00    -0.572 OA
ENDBRANCH   8   9
ENDBRANCH   7   8
ENDBRANCH   5   7
BRANCH   4  13
HETATM   13  O   UNL     1      25.129 -10.049  -4.491  1.00  0.00    -0.390 OA
ATOM     14  HO  UNL     1      25.267 -10.098  -3.552  1.00  0.00     0.210 HD
ENDBRANCH   4  13
BRANCH   3  15
HETATM   15  O   UNL     1      25.517  -7.363  -3.785  1.00  0.00    -0.391 OA
ATOM     16  HO  UNL     1      26.330  -7.852  -3.723  1.00  0.00     0.210 HD
ENDBRANCH   3  15
BRANCH   1  17
HETATM   17  O   UNL     1      21.842  -7.475  -4.610  1.00  0.00    -0.369 OA
ATOM     18  HO  UNL     1      21.039  -7.840  -4.961  1.00  0.00     0.212 HD
ENDBRANCH   1  17
BRANCH   2  19
HETATM   19  N   UNL     1      24.444  -5.589  -6.068  1.00  0.00    -0.349 N 
HETATM   20  C   UNL     1      24.929  -4.474  -5.490  1.00  0.00     0.214 C 
HETATM   21  O   UNL     1      24.887  -4.317  -4.266  1.00  0.00    -0.274 OA
HETATM   22  C   UNL     1      25.568  -3.468  -6.405  1.00  0.00     0.117 C 
ATOM     23  HN  UNL     1      24.513  -5.712  -7.078  1.00  0.00     0.163 HD
ENDBRANCH   2  19
TORSDOF 7
ENDMDL
MODEL 18
REMARK VINA RESULT:    -5.116      3.693      5.516
REMARK INTER + INTRA:          -7.953
REMARK INTER:                  -7.327
REMARK INTRA:                  -0.626
REMARK UNBOUND:                -1.193
REMARK  7 active torsions:
REMARK  status: ('A' for Active; 'I' for Inactive)
REMARK    1  A    between atoms: C_1  and  O_7 
REMARK    2  A    between atoms: C_2  and  N_13 
REMARK    3  A    between atoms: C_3  and  O_9 
REMARK    4  A    between atoms: C_4  and  O_22 
REMARK    5  A    between atoms: C_5  and  C_6 
REMARK    6  A    between atoms: C_6  and  O_12 
REMARK    7  A    between atoms: O_12  and  S_18 
REMARK       I    between atoms: N_13  and  C_15 
ROOT
HETATM    1  C   UNL     1      23.613  -8.652  -5.566  1.00  0.00     0.282 C 
HETATM    2  C   UNL     1      23.442  -7.501  -4.576  1.00  0.00     0.170 C 
HETATM    3  C   UNL     1      22.631  -6.387  -5.227  1.00  0.00     0.177 C 
HETATM    4  C   UNL     1      22.678  -6.456  -6.745  1.00  0.00     0.180 C 
HETATM    5  C   UNL     1      22.097  -7.777  -7.244  1.00  0.00     0.181 C 
HETATM    6  O   UNL     1      22.757  -8.919  -6.669  1.00  0.00    -0.349 OA
ENDROOT
BRANCH   5   7
HETATM    7  C   UNL     1      22.208  -7.929  -8.734  1.00  0.00     0.227 C 
BRANCH   7   8
HETATM    8  O   UNL     1      21.226  -7.096  -9.319  1.00  0.00    -0.254 OA
BRANCH   8   9
HETATM    9  S   UNL     1      19.972  -7.805  -9.925  1.00  0.00     0.251 S 
HETATM   10  O   UNL     1      20.340  -9.181 -10.029  1.00  0.00    -0.572 OA
HETATM   11  O   UNL     1      18.920  -7.616  -8.985  1.00  0.00    -0.572 OA
HETATM   12  O   UNL     1      19.772  -7.196 -11.208  1.00  0.00    -0.572 OA
ENDBRANCH   8   9
ENDBRANCH   7   8
ENDBRANCH   5   7
BRANCH   4  13
HETATM   13  O   UNL     1      21.926  -5.370  -7.273  1.00  0.00    -0.390 OA
ATOM     14  HO  UNL     1      21.656  -4.794  -6.568  1.00  0.00     0.210 HD
ENDBRANCH   4  13
BRANCH   3  15
HETATM   15  O   UNL     1      23.189  -5.159  -4.779  1.00  0.00    -0.391 OA
ATOM     16  HO  UNL     1      23.167  -4.518  -5.480  1.00  0.00     0.210 HD
ENDBRANCH   3  15
BRANCH   1  17
HETATM   17  O   UNL     1      24.766  -8.253  -6.242  1.00  0.00    -0.369 OA
ATOM     18  HO  UNL     1      24.420  -7.527  -6.748  1.00  0.00     0.212 HD
ENDBRANCH   1  17
BRANCH   2  19
HETATM   19  N   UNL     1      22.871  -7.843  -3.294  1.00  0.00    -0.349 N 
HETATM   20  C   UNL     1      23.672  -8.253  -2.293  1.00  0.00     0.214 C 
HETATM   21  O   UNL     1      24.897  -8.312  -2.436  1.00  0.00    -0.274 OA
HETATM   22  C   UNL     1      23.001  -8.579  -0.989  1.00  0.00     0.117 C 
ATOM     23  HN  UNL     1      21.864  -7.775  -3.148  1.00  0.00     0.163 HD
ENDBRANCH   2  19
TORSDOF 7
ENDMDL
MODEL 19
REMARK VINA RESULT:    -5.090      4.347      5.881
REMARK INTER + INTRA:          -7.919
REMARK INTER:                  -6.918
REMARK INTRA:                  -1.001
REMARK UNBOUND:                -1.193
REMARK  7 active torsions:
REMARK  status: ('A' for Active; 'I' for Inactive)
REMARK    1  A    between atoms: C_1  and  O_7 
REMARK    2  A    between atoms: C_2  and  N_13 
REMARK    3  A    between atoms: C_3  and  O_9 
REMARK    4  A    between atoms: C_4  and  O_22 
REMARK    5  A    between atoms: C_5  and  C_6 
REMARK    6  A    between atoms: C_6  and  O_12 
REMARK    7  A    between atoms: O_12  and  S_18 
REMARK       I    between atoms: N_13  and  C_15 
ROOT
HETATM    1  C   UNL     1      22.908 -12.263  -3.718  1.00  0.00     0.282 C 
HETATM    2  C   UNL     1      22.604 -10.766  -3.713  1.00  0.00     0.170 C 
HETATM    3  C   UNL     1      21.279 -10.514  -4.424  1.00  0.00     0.177 C 
HETATM    4  C   UNL     1      20.910 -11.648  -5.367  1.00  0.00     0.180 C 
HETATM    5  C   UNL     1      20.759 -12.960  -4.601  1.00  0.00     0.181 C 
HETATM    6  O   UNL     1      21.940 -13.296  -3.850  1.00  0.00    -0.349 OA
ENDROOT
BRANCH   5   7
HETATM    7  C   UNL     1      20.486 -14.127  -5.506  1.00  0.00     0.227 C 
BRANCH   7   8
HETATM    8  O   UNL     1      19.096 -14.384  -5.457  1.00  0.00    -0.254 OA
BRANCH   8   9
HETATM    9  S   UNL     1      18.375 -14.615  -6.825  1.00  0.00     0.251 S 
HETATM   10  O   UNL     1      16.983 -14.468  -6.538  1.00  0.00    -0.572 OA
HETATM   11  O   UNL     1      18.841 -13.588  -7.693  1.00  0.00    -0.572 OA
HETATM   12  O   UNL     1      18.714 -15.954  -7.213  1.00  0.00    -0.572 OA
ENDBRANCH   8   9
ENDBRANCH   7   8
ENDBRANCH   5   7
BRANCH   4  13
HETATM   13  O   UNL     1      19.683 -11.323  -6.011  1.00  0.00    -0.390 OA
ATOM     14  HO  UNL     1      19.852 -11.060  -6.907  1.00  0.00     0.210 HD
ENDBRANCH   4  13
BRANCH   3  15
HETATM   15  O   UNL     1      21.430  -9.304  -5.155  1.00  0.00    -0.391 OA
ATOM     16  HO  UNL     1      21.101  -8.573  -4.644  1.00  0.00     0.210 HD
ENDBRANCH   3  15
BRANCH   1  17
HETATM   17  O   UNL     1      23.574 -12.395  -4.937  1.00  0.00    -0.369 OA
ATOM     18  HO  UNL     1      24.475 -12.377  -4.637  1.00  0.00     0.212 HD
ENDBRANCH   1  17
BRANCH   2  19
HETATM   19  N   UNL     1      22.601 -10.121  -2.421  1.00  0.00    -0.349 N 
HETATM   20  C   UNL     1      23.206  -8.928  -2.267  1.00  0.00     0.214 C 
HETATM   21  O   UNL     1      23.738  -8.352  -3.221  1.00  0.00    -0.274 OA
HETATM   22  C   UNL     1      23.149  -8.320  -0.895  1.00  0.00     0.117 C 
ATOM     23  HN  UNL     1      22.143 -10.568  -1.626  1.00  0.00     0.163 HD
ENDBRANCH   2  19
TORSDOF 7
ENDMDL
