MODEL 1
REMARK VINA RESULT:    -8.008      0.000      0.000
REMARK INTER + INTRA:         -15.113
REMARK INTER:                 -13.158
REMARK INTRA:                  -1.955
REMARK UNBOUND:                -1.955
REMARK  11 active torsions:
REMARK  status: ('A' for Active; 'I' for Inactive)
REMARK    1  A    between atoms: C_1  and  O_39 
REMARK    2  A    between atoms: C_2  and  C_16 
REMARK    3  A    between atoms: C_2  and  N_32 
REMARK    4  A    between atoms: C_6  and  N_35 
REMARK    5  A    between atoms: C_7  and  N_35 
REMARK    6  A    between atoms: C_12  and  N_30 
REMARK    7  A    between atoms: C_13  and  N_30 
REMARK    8  A    between atoms: C_16  and  O_39 
REMARK    9  A    between atoms: C_22  and  N_37 
REMARK   10  A    between atoms: C_23  and  S_42 
REMARK   11  A    between atoms: N_37  and  S_42 
ROOT
HETATM    1  C   UNL     1      13.547  -6.018  -0.112  1.00  0.00     0.128 A 
HETATM    2  C   UNL     1      15.434  -4.392   0.488  1.00  0.00     0.054 C 
HETATM    3  C   UNL     1      13.964  -4.829   0.464  1.00  0.00    -0.001 A 
HETATM    4  C   UNL     1      12.993  -4.062   1.102  1.00  0.00     0.116 A 
HETATM    5  C   UNL     1      11.418  -5.590   0.490  1.00  0.00     0.684 A 
HETATM    6  N   UNL     1      11.735  -4.459   1.089  1.00  0.00    -0.201 N 
ATOM      7  HN  UNL     1      11.013  -3.896   1.539  1.00  0.00     0.183 HD
HETATM    8  N   UNL     1      12.279  -6.386  -0.142  1.00  0.00    -0.176 N 
ATOM      9  HN  UNL     1      11.975  -7.233  -0.623  1.00  0.00     0.186 HD
ENDROOT
BRANCH   1  10
HETATM   10  N   UNL     1      14.515  -6.822  -0.772  1.00  0.00    -0.342 N 
ATOM     11  HN  UNL     1      15.254  -7.250  -0.214  1.00  0.00     0.167 HD
BRANCH  10  12
HETATM   12  C   UNL     1      14.501  -7.063  -2.203  1.00  0.00     0.035 A 
HETATM   13  C   UNL     1      13.593  -6.468  -3.071  1.00  0.00     0.061 A 
HETATM   14  C   UNL     1      13.655  -6.792  -4.419  1.00  0.00     0.066 A 
HETATM   15  C   UNL     1      14.621  -7.670  -4.845  1.00  0.00     0.061 A 
HETATM   16 CL   UNL     1      14.713  -8.106  -6.570  1.00  0.00    -0.082 Cl
HETATM   17  C   UNL     1      15.491  -8.269  -3.992  1.00  0.00     0.028 A 
HETATM   18  C   UNL     1      15.449  -7.963  -2.645  1.00  0.00     0.031 A 
BRANCH  14  19
HETATM   19  N   UNL     1      12.772  -6.214  -5.407  1.00  0.00    -0.282 N 
ATOM     20  HN  UNL     1      13.095  -5.427  -5.968  1.00  0.00     0.178 HD
BRANCH  19  21
HETATM   21  S   UNL     1      11.223  -6.817  -5.647  1.00  0.00     0.238 S 
HETATM   22  O   UNL     1      10.895  -6.982  -7.077  1.00  0.00    -0.205 OA
HETATM   23  O   UNL     1      11.224  -8.149  -5.009  1.00  0.00    -0.205 OA
BRANCH  21  24
HETATM   24  C   UNL     1      10.022  -5.761  -4.843  1.00  0.00     0.072 C 
HETATM   25  C   UNL     1      10.141  -5.845  -3.331  1.00  0.00     0.033 C 
HETATM   26  C   UNL     1       8.657  -6.236  -5.283  1.00  0.00     0.033 C 
HETATM   27  C   UNL     1      10.208  -4.359  -5.378  1.00  0.00     0.033 C 
ENDBRANCH  21  24
ENDBRANCH  19  21
ENDBRANCH  14  19
ENDBRANCH  10  12
ENDBRANCH   1  10
BRANCH   5  28
HETATM   28  N   UNL     1      10.048  -5.931   0.559  1.00  0.00    -0.192 N 
ATOM     29  HN  UNL     1       9.437  -5.490  -0.129  1.00  0.00     0.184 HD
BRANCH  28  30
HETATM   30  C   UNL     1       9.413  -6.835   1.498  1.00  0.00     0.049 A 
HETATM   31  C   UNL     1       8.401  -7.579   0.910  1.00  0.00     0.033 A 
HETATM   32  C   UNL     1       7.699  -8.508   1.668  1.00  0.00     0.039 A 
HETATM   33  C   UNL     1       8.034  -8.700   2.993  1.00  0.00     0.069 A 
HETATM   34  C   UNL     1       9.052  -7.971   3.561  1.00  0.00     0.039 A 
HETATM   35  C   UNL     1       9.762  -7.027   2.805  1.00  0.00     0.033 A 
BRANCH  33  36
HETATM   36  O   UNL     1       7.351  -9.655   3.801  1.00  0.00    -0.349 OA
BRANCH  36  37
HETATM   37  C   UNL     1       6.009  -9.920   3.462  1.00  0.00     0.206 C 
BRANCH  37  38
HETATM   38  C   UNL     1       5.079  -8.938   4.207  1.00  0.00     0.299 C 
BRANCH  38  39
HETATM   39  N   UNL     1       4.069  -8.677   3.600  1.00  0.00     0.090 N 
HETATM   40  C   UNL     1       3.832  -7.415   3.619  1.00  0.00     0.272 C 
HETATM   41  C   UNL     1       4.257  -6.813   2.173  1.00  0.00     0.032 C 
HETATM   42  C   UNL     1       4.049  -7.726   1.338  1.00  0.00     0.032 C 
HETATM   43  C   UNL     1       4.158  -9.046   2.135  1.00  0.00     0.272 C 
ENDBRANCH  38  39
ENDBRANCH  37  38
ENDBRANCH  36  37
ENDBRANCH  33  36
ENDBRANCH  28  30
ENDBRANCH   5  28
TORSDOF 11
ENDMDL
MODEL 2
REMARK VINA RESULT:    -7.902      2.945      8.254
REMARK INTER + INTRA:         -14.939
REMARK INTER:                 -13.011
REMARK INTRA:                  -1.928
REMARK UNBOUND:                -1.955
REMARK  11 active torsions:
REMARK  status: ('A' for Active; 'I' for Inactive)
REMARK    1  A    between atoms: C_1  and  O_39 
REMARK    2  A    between atoms: C_2  and  C_16 
REMARK    3  A    between atoms: C_2  and  N_32 
REMARK    4  A    between atoms: C_6  and  N_35 
REMARK    5  A    between atoms: C_7  and  N_35 
REMARK    6  A    between atoms: C_12  and  N_30 
REMARK    7  A    between atoms: C_13  and  N_30 
REMARK    8  A    between atoms: C_16  and  O_39 
REMARK    9  A    between atoms: C_22  and  N_37 
REMARK   10  A    between atoms: C_23  and  S_42 
REMARK   11  A    between atoms: N_37  and  S_42 
ROOT
HETATM    1  C   UNL     1      12.905  -5.125   0.524  1.00  0.00     0.128 A 
HETATM    2  C   UNL     1      12.992  -2.998   1.950  1.00  0.00     0.054 C 
HETATM    3  C   UNL     1      13.629  -4.072   1.058  1.00  0.00    -0.001 A 
HETATM    4  C   UNL     1      14.968  -3.974   0.690  1.00  0.00     0.116 A 
HETATM    5  C   UNL     1      14.745  -5.884  -0.533  1.00  0.00     0.684 A 
HETATM    6  N   UNL     1      15.498  -4.895  -0.093  1.00  0.00    -0.201 N 
ATOM      7  HN  UNL     1      16.482  -4.842  -0.355  1.00  0.00     0.183 HD
HETATM    8  N   UNL     1      13.459  -6.055  -0.234  1.00  0.00    -0.176 N 
ATOM      9  HN  UNL     1      12.930  -6.860  -0.571  1.00  0.00     0.186 HD
ENDROOT
BRANCH   1  10
HETATM   10  N   UNL     1      11.536  -5.252   0.883  1.00  0.00    -0.342 N 
ATOM     11  HN  UNL     1      11.211  -4.786   1.730  1.00  0.00     0.167 HD
BRANCH  10  12
HETATM   12  C   UNL     1      10.580  -6.014   0.102  1.00  0.00     0.035 A 
HETATM   13  C   UNL     1       9.571  -6.786   0.666  1.00  0.00     0.061 A 
HETATM   14  C   UNL     1       8.729  -7.495  -0.179  1.00  0.00     0.066 A 
HETATM   15  C   UNL     1       8.911  -7.392  -1.535  1.00  0.00     0.061 A 
HETATM   16 CL   UNL     1       7.847  -8.301  -2.637  1.00  0.00    -0.082 Cl
HETATM   17  C   UNL     1       9.913  -6.658  -2.083  1.00  0.00     0.028 A 
HETATM   18  C   UNL     1      10.765  -5.943  -1.264  1.00  0.00     0.031 A 
BRANCH  14  19
HETATM   19  N   UNL     1       7.637  -8.310   0.305  1.00  0.00    -0.282 N 
ATOM     20  HN  UNL     1       7.396  -9.169  -0.188  1.00  0.00     0.178 HD
BRANCH  19  21
HETATM   21  S   UNL     1       6.758  -7.866   1.665  1.00  0.00     0.238 S 
HETATM   22  O   UNL     1       6.753  -6.406   1.885  1.00  0.00    -0.205 OA
HETATM   23  O   UNL     1       5.374  -8.304   1.390  1.00  0.00    -0.205 OA
BRANCH  21  24
HETATM   24  C   UNL     1       7.387  -8.718   3.108  1.00  0.00     0.072 C 
HETATM   25  C   UNL     1       8.489  -7.919   3.783  1.00  0.00     0.033 C 
HETATM   26  C   UNL     1       7.928 -10.046   2.632  1.00  0.00     0.033 C 
HETATM   27  C   UNL     1       6.217  -9.006   4.022  1.00  0.00     0.033 C 
ENDBRANCH  21  24
ENDBRANCH  19  21
ENDBRANCH  14  19
ENDBRANCH  10  12
ENDBRANCH   1  10
BRANCH   5  28
HETATM   28  N   UNL     1      15.409  -6.798  -1.383  1.00  0.00    -0.192 N 
ATOM     29  HN  UNL     1      16.239  -7.250  -1.000  1.00  0.00     0.184 HD
BRANCH  28  30
HETATM   30  C   UNL     1      15.042  -7.165  -2.737  1.00  0.00     0.049 A 
HETATM   31  C   UNL     1      15.747  -8.269  -3.192  1.00  0.00     0.033 A 
HETATM   32  C   UNL     1      15.504  -8.763  -4.468  1.00  0.00     0.039 A 
HETATM   33  C   UNL     1      14.544  -8.166  -5.259  1.00  0.00     0.069 A 
HETATM   34  C   UNL     1      13.837  -7.084  -4.791  1.00  0.00     0.039 A 
HETATM   35  C   UNL     1      14.080  -6.575  -3.506  1.00  0.00     0.033 A 
BRANCH  33  36
HETATM   36  O   UNL     1      14.252  -8.653  -6.567  1.00  0.00    -0.349 OA
BRANCH  36  37
HETATM   37  C   UNL     1      13.024  -9.325  -6.728  1.00  0.00     0.206 C 
BRANCH  37  38
HETATM   38  C   UNL     1      13.135 -10.756  -6.160  1.00  0.00     0.299 C 
BRANCH  38  39
HETATM   39  N   UNL     1      12.229 -11.050  -5.419  1.00  0.00     0.090 N 
HETATM   40  C   UNL     1      12.675 -11.545  -4.319  1.00  0.00     0.272 C 
HETATM   41  C   UNL     1      12.563 -10.393  -3.181  1.00  0.00     0.032 C 
HETATM   42  C   UNL     1      11.562  -9.699  -3.482  1.00  0.00     0.032 C 
HETATM   43  C   UNL     1      11.397  -9.854  -5.011  1.00  0.00     0.272 C 
ENDBRANCH  38  39
ENDBRANCH  37  38
ENDBRANCH  36  37
ENDBRANCH  33  36
ENDBRANCH  28  30
ENDBRANCH   5  28
TORSDOF 11
ENDMDL
MODEL 3
REMARK VINA RESULT:    -7.758      2.115      3.624
REMARK INTER + INTRA:         -14.701
REMARK INTER:                 -12.802
REMARK INTRA:                  -1.900
REMARK UNBOUND:                -1.955
REMARK  11 active torsions:
REMARK  status: ('A' for Active; 'I' for Inactive)
REMARK    1  A    between atoms: C_1  and  O_39 
REMARK    2  A    between atoms: C_2  and  C_16 
REMARK    3  A    between atoms: C_2  and  N_32 
REMARK    4  A    between atoms: C_6  and  N_35 
REMARK    5  A    between atoms: C_7  and  N_35 
REMARK    6  A    between atoms: C_12  and  N_30 
REMARK    7  A    between atoms: C_13  and  N_30 
REMARK    8  A    between atoms: C_16  and  O_39 
REMARK    9  A    between atoms: C_22  and  N_37 
REMARK   10  A    between atoms: C_23  and  S_42 
REMARK   11  A    between atoms: N_37  and  S_42 
ROOT
HETATM    1  C   UNL     1      12.732  -6.596  -0.763  1.00  0.00     0.128 A 
HETATM    2  C   UNL     1      15.023  -5.466  -0.558  1.00  0.00     0.054 C 
HETATM    3  C   UNL     1      13.537  -5.615  -0.206  1.00  0.00    -0.001 A 
HETATM    4  C   UNL     1      12.960  -4.799   0.763  1.00  0.00     0.116 A 
HETATM    5  C   UNL     1      10.981  -5.889   0.468  1.00  0.00     0.684 A 
HETATM    6  N   UNL     1      11.685  -4.951   1.069  1.00  0.00    -0.201 N 
ATOM      7  HN  UNL     1      11.249  -4.347   1.765  1.00  0.00     0.183 HD
HETATM    8  N   UNL     1      11.450  -6.714  -0.467  1.00  0.00    -0.176 N 
ATOM      9  HN  UNL     1      10.852  -7.400  -0.929  1.00  0.00     0.186 HD
ENDROOT
BRANCH   1  10
HETATM   10  N   UNL     1      13.292  -7.443  -1.756  1.00  0.00    -0.342 N 
ATOM     11  HN  UNL     1      13.612  -8.372  -1.479  1.00  0.00     0.167 HD
BRANCH  10  12
HETATM   12  C   UNL     1      13.431  -7.050  -3.146  1.00  0.00     0.035 A 
HETATM   13  C   UNL     1      14.627  -7.133  -3.849  1.00  0.00     0.061 A 
HETATM   14  C   UNL     1      14.650  -6.703  -5.169  1.00  0.00     0.066 A 
HETATM   15  C   UNL     1      13.490  -6.233  -5.733  1.00  0.00     0.061 A 
HETATM   16 CL   UNL     1      13.500  -5.669  -7.422  1.00  0.00    -0.082 Cl
HETATM   17  C   UNL     1      12.330  -6.130  -5.036  1.00  0.00     0.028 A 
HETATM   18  C   UNL     1      12.281  -6.551  -3.721  1.00  0.00     0.031 A 
BRANCH  14  19
HETATM   19  N   UNL     1      15.836  -6.766  -5.994  1.00  0.00    -0.282 N 
ATOM     20  HN  UNL     1      16.397  -5.925  -6.129  1.00  0.00     0.178 HD
BRANCH  19  21
HETATM   21  S   UNL     1      16.307  -8.199  -6.732  1.00  0.00     0.238 S 
HETATM   22  O   UNL     1      15.240  -9.220  -6.719  1.00  0.00    -0.205 OA
HETATM   23  O   UNL     1      16.590  -7.835  -8.135  1.00  0.00    -0.205 OA
BRANCH  21  24
HETATM   24  C   UNL     1      17.792  -8.829  -5.958  1.00  0.00     0.072 C 
HETATM   25  C   UNL     1      18.504  -9.823  -6.861  1.00  0.00     0.033 C 
HETATM   26  C   UNL     1      17.364  -9.507  -4.677  1.00  0.00     0.033 C 
HETATM   27  C   UNL     1      18.654  -7.646  -5.579  1.00  0.00     0.033 C 
ENDBRANCH  21  24
ENDBRANCH  19  21
ENDBRANCH  14  19
ENDBRANCH  10  12
ENDBRANCH   1  10
BRANCH   5  28
HETATM   28  N   UNL     1       9.635  -5.979   0.890  1.00  0.00    -0.192 N 
ATOM     29  HN  UNL     1       9.009  -5.244   0.562  1.00  0.00     0.184 HD
BRANCH  28  30
HETATM   30  C   UNL     1       9.045  -6.998   1.737  1.00  0.00     0.049 A 
HETATM   31  C   UNL     1       8.255  -7.884   1.021  1.00  0.00     0.033 A 
HETATM   32  C   UNL     1       7.625  -8.933   1.681  1.00  0.00     0.039 A 
HETATM   33  C   UNL     1       7.817  -9.098   3.037  1.00  0.00     0.069 A 
HETATM   34  C   UNL     1       8.619  -8.225   3.734  1.00  0.00     0.039 A 
HETATM   35  C   UNL     1       9.252  -7.159   3.077  1.00  0.00     0.033 A 
BRANCH  33  36
HETATM   36  O   UNL     1       7.205 -10.171   3.749  1.00  0.00    -0.349 OA
BRANCH  36  37
HETATM   37  C   UNL     1       5.811 -10.312   3.596  1.00  0.00     0.206 C 
BRANCH  37  38
HETATM   38  C   UNL     1       5.091  -9.119   4.261  1.00  0.00     0.299 C 
BRANCH  38  39
HETATM   39  N   UNL     1       4.087  -8.781   3.684  1.00  0.00     0.090 N 
HETATM   40  C   UNL     1       3.964  -7.501   3.681  1.00  0.00     0.272 C 
HETATM   41  C   UNL     1       4.389  -6.969   2.208  1.00  0.00     0.032 C 
HETATM   42  C   UNL     1       4.070  -7.877   1.402  1.00  0.00     0.032 C 
HETATM   43  C   UNL     1       4.089  -9.185   2.225  1.00  0.00     0.272 C 
ENDBRANCH  38  39
ENDBRANCH  37  38
ENDBRANCH  36  37
ENDBRANCH  33  36
ENDBRANCH  28  30
ENDBRANCH   5  28
TORSDOF 11
ENDMDL
MODEL 4
REMARK VINA RESULT:    -7.727      3.626      7.378
REMARK INTER + INTRA:         -14.651
REMARK INTER:                 -11.952
REMARK INTRA:                  -2.699
REMARK UNBOUND:                -1.955
REMARK  11 active torsions:
REMARK  status: ('A' for Active; 'I' for Inactive)
REMARK    1  A    between atoms: C_1  and  O_39 
REMARK    2  A    between atoms: C_2  and  C_16 
REMARK    3  A    between atoms: C_2  and  N_32 
REMARK    4  A    between atoms: C_6  and  N_35 
REMARK    5  A    between atoms: C_7  and  N_35 
REMARK    6  A    between atoms: C_12  and  N_30 
REMARK    7  A    between atoms: C_13  and  N_30 
REMARK    8  A    between atoms: C_16  and  O_39 
REMARK    9  A    between atoms: C_22  and  N_37 
REMARK   10  A    between atoms: C_23  and  S_42 
REMARK   11  A    between atoms: N_37  and  S_42 
ROOT
HETATM    1  C   UNL     1      12.815  -5.104   0.508  1.00  0.00     0.128 A 
HETATM    2  C   UNL     1      12.870  -3.044   2.032  1.00  0.00     0.054 C 
HETATM    3  C   UNL     1      13.532  -4.096   1.133  1.00  0.00    -0.001 A 
HETATM    4  C   UNL     1      14.893  -4.022   0.852  1.00  0.00     0.116 A 
HETATM    5  C   UNL     1      14.697  -5.869  -0.468  1.00  0.00     0.684 A 
HETATM    6  N   UNL     1      15.446  -4.923   0.062  1.00  0.00    -0.201 N 
ATOM      7  HN  UNL     1      16.446  -4.887  -0.137  1.00  0.00     0.183 HD
HETATM    8  N   UNL     1      13.390  -6.015  -0.256  1.00  0.00    -0.176 N 
ATOM      9  HN  UNL     1      12.862  -6.788  -0.661  1.00  0.00     0.186 HD
ENDROOT
BRANCH   1  10
HETATM   10  N   UNL     1      11.424  -5.206   0.777  1.00  0.00    -0.342 N 
ATOM     11  HN  UNL     1      11.049  -4.718   1.591  1.00  0.00     0.167 HD
BRANCH  10  12
HETATM   12  C   UNL     1      10.512  -5.972  -0.052  1.00  0.00     0.035 A 
HETATM   13  C   UNL     1      10.589  -6.013  -1.439  1.00  0.00     0.061 A 
HETATM   14  C   UNL     1       9.646  -6.758  -2.133  1.00  0.00     0.066 A 
HETATM   15  C   UNL     1       8.688  -7.440  -1.424  1.00  0.00     0.061 A 
HETATM   16 CL   UNL     1       7.463  -8.396  -2.295  1.00  0.00    -0.082 Cl
HETATM   17  C   UNL     1       8.599  -7.378  -0.071  1.00  0.00     0.028 A 
HETATM   18  C   UNL     1       9.526  -6.642   0.643  1.00  0.00     0.031 A 
BRANCH  14  19
HETATM   19  N   UNL     1       9.650  -6.884  -3.573  1.00  0.00    -0.282 N 
ATOM     20  HN  UNL     1       9.759  -7.806  -3.995  1.00  0.00     0.178 HD
BRANCH  19  21
HETATM   21  S   UNL     1       9.478  -5.539  -4.564  1.00  0.00     0.238 S 
HETATM   22  O   UNL     1       8.698  -4.461  -3.924  1.00  0.00    -0.205 OA
HETATM   23  O   UNL     1      10.853  -5.051  -4.794  1.00  0.00    -0.205 OA
BRANCH  21  24
HETATM   24  C   UNL     1       8.736  -6.015  -6.121  1.00  0.00     0.072 C 
HETATM   25  C   UNL     1       9.696  -6.842  -6.960  1.00  0.00     0.033 C 
HETATM   26  C   UNL     1       8.383  -4.737  -6.846  1.00  0.00     0.033 C 
HETATM   27  C   UNL     1       7.442  -6.735  -5.816  1.00  0.00     0.033 C 
ENDBRANCH  21  24
ENDBRANCH  19  21
ENDBRANCH  14  19
ENDBRANCH  10  12
ENDBRANCH   1  10
BRANCH   5  28
HETATM   28  N   UNL     1      15.388  -6.763  -1.316  1.00  0.00    -0.192 N 
ATOM     29  HN  UNL     1      16.216  -7.211  -0.923  1.00  0.00     0.184 HD
BRANCH  28  30
HETATM   30  C   UNL     1      15.052  -7.116  -2.682  1.00  0.00     0.049 A 
HETATM   31  C   UNL     1      15.795  -8.192  -3.145  1.00  0.00     0.033 A 
HETATM   32  C   UNL     1      15.586  -8.669  -4.434  1.00  0.00     0.039 A 
HETATM   33  C   UNL     1      14.621  -8.086  -5.229  1.00  0.00     0.069 A 
HETATM   34  C   UNL     1      13.876  -7.033  -4.753  1.00  0.00     0.039 A 
HETATM   35  C   UNL     1      14.085  -6.540  -3.456  1.00  0.00     0.033 A 
BRANCH  33  36
HETATM   36  O   UNL     1      14.363  -8.556  -6.550  1.00  0.00    -0.349 OA
BRANCH  36  37
HETATM   37  C   UNL     1      13.155  -9.256  -6.743  1.00  0.00     0.206 C 
BRANCH  37  38
HETATM   38  C   UNL     1      13.304 -10.704  -6.231  1.00  0.00     0.299 C 
BRANCH  38  39
HETATM   39  N   UNL     1      12.399 -11.057  -5.514  1.00  0.00     0.090 N 
HETATM   40  C   UNL     1      12.847 -11.604  -4.441  1.00  0.00     0.272 C 
HETATM   41  C   UNL     1      12.706 -10.521  -3.241  1.00  0.00     0.032 C 
HETATM   42  C   UNL     1      11.694  -9.829  -3.510  1.00  0.00     0.032 C 
HETATM   43  C   UNL     1      11.542  -9.901  -5.046  1.00  0.00     0.272 C 
ENDBRANCH  38  39
ENDBRANCH  37  38
ENDBRANCH  36  37
ENDBRANCH  33  36
ENDBRANCH  28  30
ENDBRANCH   5  28
TORSDOF 11
ENDMDL
MODEL 5
REMARK VINA RESULT:    -7.717      1.373      2.099
REMARK INTER + INTRA:         -14.634
REMARK INTER:                 -12.922
REMARK INTRA:                  -1.713
REMARK UNBOUND:                -1.955
REMARK  11 active torsions:
REMARK  status: ('A' for Active; 'I' for Inactive)
REMARK    1  A    between atoms: C_1  and  O_39 
REMARK    2  A    between atoms: C_2  and  C_16 
REMARK    3  A    between atoms: C_2  and  N_32 
REMARK    4  A    between atoms: C_6  and  N_35 
REMARK    5  A    between atoms: C_7  and  N_35 
REMARK    6  A    between atoms: C_12  and  N_30 
REMARK    7  A    between atoms: C_13  and  N_30 
REMARK    8  A    between atoms: C_16  and  O_39 
REMARK    9  A    between atoms: C_22  and  N_37 
REMARK   10  A    between atoms: C_23  and  S_42 
REMARK   11  A    between atoms: N_37  and  S_42 
ROOT
HETATM    1  C   UNL     1      13.738  -5.721  -0.048  1.00  0.00     0.128 A 
HETATM    2  C   UNL     1      15.641  -4.156   0.657  1.00  0.00     0.054 C 
HETATM    3  C   UNL     1      14.165  -4.568   0.591  1.00  0.00    -0.001 A 
HETATM    4  C   UNL     1      13.197  -3.817   1.252  1.00  0.00     0.116 A 
HETATM    5  C   UNL     1      11.607  -5.290   0.546  1.00  0.00     0.684 A 
HETATM    6  N   UNL     1      11.933  -4.194   1.203  1.00  0.00    -0.201 N 
ATOM      7  HN  UNL     1      11.214  -3.642   1.670  1.00  0.00     0.183 HD
HETATM    8  N   UNL     1      12.465  -6.067  -0.113  1.00  0.00    -0.176 N 
ATOM      9  HN  UNL     1      12.156  -6.885  -0.639  1.00  0.00     0.186 HD
ENDROOT
BRANCH   1  10
HETATM   10  N   UNL     1      14.703  -6.507  -0.733  1.00  0.00    -0.342 N 
ATOM     11  HN  UNL     1      15.527  -6.822  -0.220  1.00  0.00     0.167 HD
BRANCH  10  12
HETATM   12  C   UNL     1      14.572  -6.882  -2.129  1.00  0.00     0.035 A 
HETATM   13  C   UNL     1      13.606  -6.351  -2.977  1.00  0.00     0.061 A 
HETATM   14  C   UNL     1      13.556  -6.804  -4.288  1.00  0.00     0.066 A 
HETATM   15  C   UNL     1      14.471  -7.740  -4.702  1.00  0.00     0.061 A 
HETATM   16 CL   UNL     1      14.419  -8.340  -6.378  1.00  0.00    -0.082 Cl
HETATM   17  C   UNL     1      15.397  -8.275  -3.864  1.00  0.00     0.028 A 
HETATM   18  C   UNL     1      15.467  -7.841  -2.555  1.00  0.00     0.031 A 
BRANCH  14  19
HETATM   19  N   UNL     1      12.606  -6.302  -5.255  1.00  0.00    -0.282 N 
ATOM     20  HN  UNL     1      12.883  -5.552  -5.887  1.00  0.00     0.178 HD
BRANCH  19  21
HETATM   21  S   UNL     1      11.053  -6.934  -5.357  1.00  0.00     0.238 S 
HETATM   22  O   UNL     1      10.658  -7.246  -6.745  1.00  0.00    -0.205 OA
HETATM   23  O   UNL     1      11.098  -8.194  -4.588  1.00  0.00    -0.205 OA
BRANCH  21  24
HETATM   24  C   UNL     1       9.882  -5.808  -4.607  1.00  0.00     0.072 C 
HETATM   25  C   UNL     1       9.946  -5.876  -3.090  1.00  0.00     0.033 C 
HETATM   26  C   UNL     1       8.510  -6.219  -5.086  1.00  0.00     0.033 C 
HETATM   27  C   UNL     1      10.157  -4.424  -5.152  1.00  0.00     0.033 C 
ENDBRANCH  21  24
ENDBRANCH  19  21
ENDBRANCH  14  19
ENDBRANCH  10  12
ENDBRANCH   1  10
BRANCH   5  28
HETATM   28  N   UNL     1      10.232  -5.611   0.579  1.00  0.00    -0.192 N 
ATOM     29  HN  UNL     1       9.617  -5.028   0.012  1.00  0.00     0.184 HD
BRANCH  28  30
HETATM   30  C   UNL     1       9.596  -6.677   1.330  1.00  0.00     0.049 A 
HETATM   31  C   UNL     1       8.652  -7.360   0.578  1.00  0.00     0.033 A 
HETATM   32  C   UNL     1       7.959  -8.424   1.144  1.00  0.00     0.039 A 
HETATM   33  C   UNL     1       8.238  -8.807   2.440  1.00  0.00     0.069 A 
HETATM   34  C   UNL     1       9.190  -8.135   3.170  1.00  0.00     0.039 A 
HETATM   35  C   UNL     1       9.889  -7.056   2.610  1.00  0.00     0.033 A 
BRANCH  33  36
HETATM   36  O   UNL     1       7.563  -9.903   3.051  1.00  0.00    -0.349 OA
BRANCH  36  37
HETATM   37  C   UNL     1       6.210  -9.699   3.390  1.00  0.00     0.206 C 
BRANCH  37  38
HETATM   38  C   UNL     1       6.091  -9.398   4.899  1.00  0.00     0.299 C 
BRANCH  38  39
HETATM   39  N   UNL     1       6.575 -10.252   5.600  1.00  0.00     0.090 N 
HETATM   40  C   UNL     1       7.168  -9.735   6.616  1.00  0.00     0.272 C 
HETATM   41  C   UNL     1       6.202  -9.935   7.904  1.00  0.00     0.032 C 
HETATM   42  C   UNL     1       5.577 -11.006   7.712  1.00  0.00     0.032 C 
HETATM   43  C   UNL     1       5.536 -11.190   6.178  1.00  0.00     0.272 C 
ENDBRANCH  38  39
ENDBRANCH  37  38
ENDBRANCH  36  37
ENDBRANCH  33  36
ENDBRANCH  28  30
ENDBRANCH   5  28
TORSDOF 11
ENDMDL
MODEL 6
REMARK VINA RESULT:    -7.622      2.873      8.217
REMARK INTER + INTRA:         -14.479
REMARK INTER:                 -12.563
REMARK INTRA:                  -1.916
REMARK UNBOUND:                -1.955
REMARK  11 active torsions:
REMARK  status: ('A' for Active; 'I' for Inactive)
REMARK    1  A    between atoms: C_1  and  O_39 
REMARK    2  A    between atoms: C_2  and  C_16 
REMARK    3  A    between atoms: C_2  and  N_32 
REMARK    4  A    between atoms: C_6  and  N_35 
REMARK    5  A    between atoms: C_7  and  N_35 
REMARK    6  A    between atoms: C_12  and  N_30 
REMARK    7  A    between atoms: C_13  and  N_30 
REMARK    8  A    between atoms: C_16  and  O_39 
REMARK    9  A    between atoms: C_22  and  N_37 
REMARK   10  A    between atoms: C_23  and  S_42 
REMARK   11  A    between atoms: N_37  and  S_42 
ROOT
HETATM    1  C   UNL     1      12.570  -5.384   0.509  1.00  0.00     0.128 A 
HETATM    2  C   UNL     1      13.215  -3.236   1.749  1.00  0.00     0.054 C 
HETATM    3  C   UNL     1      13.498  -4.392   0.780  1.00  0.00    -0.001 A 
HETATM    4  C   UNL     1      14.695  -4.436   0.071  1.00  0.00     0.116 A 
HETATM    5  C   UNL     1      13.992  -6.348  -0.950  1.00  0.00     0.684 A 
HETATM    6  N   UNL     1      14.917  -5.426  -0.773  1.00  0.00    -0.201 N 
ATOM      7  HN  UNL     1      15.798  -5.477  -1.285  1.00  0.00     0.183 HD
HETATM    8  N   UNL     1      12.820  -6.384  -0.317  1.00  0.00    -0.176 N 
ATOM      9  HN  UNL     1      12.154  -7.143  -0.462  1.00  0.00     0.186 HD
ENDROOT
BRANCH   1  10
HETATM   10  N   UNL     1      11.339  -5.367   1.218  1.00  0.00    -0.342 N 
ATOM     11  HN  UNL     1      11.241  -4.726   2.006  1.00  0.00     0.167 HD
BRANCH  10  12
HETATM   12  C   UNL     1      10.215  -6.218   0.875  1.00  0.00     0.035 A 
HETATM   13  C   UNL     1       9.337  -6.743   1.815  1.00  0.00     0.061 A 
HETATM   14  C   UNL     1       8.311  -7.568   1.375  1.00  0.00     0.066 A 
HETATM   15  C   UNL     1       8.192  -7.816   0.030  1.00  0.00     0.061 A 
HETATM   16 CL   UNL     1       6.888  -8.879  -0.555  1.00  0.00    -0.082 Cl
HETATM   17  C   UNL     1       9.066  -7.322  -0.884  1.00  0.00     0.028 A 
HETATM   18  C   UNL     1      10.096  -6.499  -0.471  1.00  0.00     0.031 A 
BRANCH  14  19
HETATM   19  N   UNL     1       7.333  -8.148   2.267  1.00  0.00    -0.282 N 
ATOM     20  HN  UNL     1       6.383  -7.777   2.278  1.00  0.00     0.178 HD
BRANCH  19  21
HETATM   21  S   UNL     1       7.732  -9.421   3.287  1.00  0.00     0.238 S 
HETATM   22  O   UNL     1       9.146  -9.828   3.157  1.00  0.00    -0.205 OA
HETATM   23  O   UNL     1       7.517  -8.903   4.653  1.00  0.00    -0.205 OA
BRANCH  21  24
HETATM   24  C   UNL     1       6.646 -10.811   2.987  1.00  0.00     0.072 C 
HETATM   25  C   UNL     1       6.438 -11.630   4.251  1.00  0.00     0.033 C 
HETATM   26  C   UNL     1       7.302 -11.659   1.923  1.00  0.00     0.033 C 
HETATM   27  C   UNL     1       5.356 -10.274   2.408  1.00  0.00     0.033 C 
ENDBRANCH  21  24
ENDBRANCH  19  21
ENDBRANCH  14  19
ENDBRANCH  10  12
ENDBRANCH   1  10
BRANCH   5  28
HETATM   28  N   UNL     1      14.325  -7.346  -1.893  1.00  0.00    -0.192 N 
ATOM     29  HN  UNL     1      15.183  -7.868  -1.715  1.00  0.00     0.184 HD
BRANCH  28  30
HETATM   30  C   UNL     1      13.586  -7.710  -3.087  1.00  0.00     0.049 A 
HETATM   31  C   UNL     1      13.596  -6.703  -4.040  1.00  0.00     0.033 A 
HETATM   32  C   UNL     1      12.945  -6.895  -5.252  1.00  0.00     0.039 A 
HETATM   33  C   UNL     1      12.318  -8.098  -5.506  1.00  0.00     0.069 A 
HETATM   34  C   UNL     1      12.331  -9.097  -4.562  1.00  0.00     0.039 A 
HETATM   35  C   UNL     1      12.980  -8.909  -3.332  1.00  0.00     0.033 A 
BRANCH  33  36
HETATM   36  O   UNL     1      11.654  -8.343  -6.743  1.00  0.00    -0.349 OA
BRANCH  36  37
HETATM   37  C   UNL     1      10.683  -7.398  -7.134  1.00  0.00     0.206 C 
BRANCH  37  38
HETATM   38  C   UNL     1       9.434  -7.534  -6.238  1.00  0.00     0.299 C 
BRANCH  38  39
HETATM   39  N   UNL     1       8.896  -6.481  -5.999  1.00  0.00     0.090 N 
HETATM   40  C   UNL     1       8.631  -6.371  -4.746  1.00  0.00     0.272 C 
HETATM   41  C   UNL     1       9.738  -5.380  -4.094  1.00  0.00     0.032 C 
HETATM   42  C   UNL     1      10.050  -4.563  -4.994  1.00  0.00     0.032 C 
HETATM   43  C   UNL     1       9.773  -5.291  -6.328  1.00  0.00     0.272 C 
ENDBRANCH  38  39
ENDBRANCH  37  38
ENDBRANCH  36  37
ENDBRANCH  33  36
ENDBRANCH  28  30
ENDBRANCH   5  28
TORSDOF 11
ENDMDL
MODEL 7
REMARK VINA RESULT:    -7.599      2.777      8.051
REMARK INTER + INTRA:         -14.441
REMARK INTER:                 -12.803
REMARK INTRA:                  -1.638
REMARK UNBOUND:                -1.955
REMARK  11 active torsions:
REMARK  status: ('A' for Active; 'I' for Inactive)
REMARK    1  A    between atoms: C_1  and  O_39 
REMARK    2  A    between atoms: C_2  and  C_16 
REMARK    3  A    between atoms: C_2  and  N_32 
REMARK    4  A    between atoms: C_6  and  N_35 
REMARK    5  A    between atoms: C_7  and  N_35 
REMARK    6  A    between atoms: C_12  and  N_30 
REMARK    7  A    between atoms: C_13  and  N_30 
REMARK    8  A    between atoms: C_16  and  O_39 
REMARK    9  A    between atoms: C_22  and  N_37 
REMARK   10  A    between atoms: C_23  and  S_42 
REMARK   11  A    between atoms: N_37  and  S_42 
ROOT
HETATM    1  C   UNL     1      12.929  -5.171   0.442  1.00  0.00     0.128 A 
HETATM    2  C   UNL     1      13.102  -2.998   1.790  1.00  0.00     0.054 C 
HETATM    3  C   UNL     1      13.691  -4.120   0.925  1.00  0.00    -0.001 A 
HETATM    4  C   UNL     1      15.024  -4.072   0.527  1.00  0.00     0.116 A 
HETATM    5  C   UNL     1      14.726  -6.016  -0.623  1.00  0.00     0.684 A 
HETATM    6  N   UNL     1      15.513  -5.033  -0.233  1.00  0.00    -0.201 N 
ATOM      7  HN  UNL     1      16.493  -5.016  -0.517  1.00  0.00     0.183 HD
HETATM    8  N   UNL     1      13.442  -6.141  -0.293  1.00  0.00    -0.176 N 
ATOM      9  HN  UNL     1      12.885  -6.943  -0.591  1.00  0.00     0.186 HD
ENDROOT
BRANCH   1  10
HETATM   10  N   UNL     1      11.565  -5.248   0.833  1.00  0.00    -0.342 N 
ATOM     11  HN  UNL     1      11.273  -4.759   1.680  1.00  0.00     0.167 HD
BRANCH  10  12
HETATM   12  C   UNL     1      10.567  -5.989   0.083  1.00  0.00     0.035 A 
HETATM   13  C   UNL     1       9.600  -6.789   0.679  1.00  0.00     0.061 A 
HETATM   14  C   UNL     1       8.712  -7.474  -0.139  1.00  0.00     0.066 A 
HETATM   15  C   UNL     1       8.810  -7.320  -1.499  1.00  0.00     0.061 A 
HETATM   16 CL   UNL     1       7.686  -8.198  -2.566  1.00  0.00    -0.082 Cl
HETATM   17  C   UNL     1       9.772  -6.558  -2.080  1.00  0.00     0.028 A 
HETATM   18  C   UNL     1      10.668  -5.866  -1.287  1.00  0.00     0.031 A 
BRANCH  14  19
HETATM   19  N   UNL     1       7.657  -8.316   0.381  1.00  0.00    -0.282 N 
ATOM     20  HN  UNL     1       7.434  -9.190  -0.094  1.00  0.00     0.178 HD
BRANCH  19  21
HETATM   21  S   UNL     1       6.792  -7.879   1.752  1.00  0.00     0.238 S 
HETATM   22  O   UNL     1       6.776  -6.418   1.970  1.00  0.00    -0.205 OA
HETATM   23  O   UNL     1       5.409  -8.330   1.496  1.00  0.00    -0.205 OA
BRANCH  21  24
HETATM   24  C   UNL     1       7.448  -8.723   3.187  1.00  0.00     0.072 C 
HETATM   25  C   UNL     1       8.562  -7.918   3.837  1.00  0.00     0.033 C 
HETATM   26  C   UNL     1       7.982 -10.052   2.707  1.00  0.00     0.033 C 
HETATM   27  C   UNL     1       6.295  -9.008   4.123  1.00  0.00     0.033 C 
ENDBRANCH  21  24
ENDBRANCH  19  21
ENDBRANCH  14  19
ENDBRANCH  10  12
ENDBRANCH   1  10
BRANCH   5  28
HETATM   28  N   UNL     1      15.347  -6.976  -1.453  1.00  0.00    -0.192 N 
ATOM     29  HN  UNL     1      16.351  -7.104  -1.324  1.00  0.00     0.184 HD
BRANCH  28  30
HETATM   30  C   UNL     1      14.718  -7.801  -2.467  1.00  0.00     0.049 A 
HETATM   31  C   UNL     1      13.420  -8.152  -2.128  1.00  0.00     0.033 A 
HETATM   32  C   UNL     1      12.668  -8.931  -3.000  1.00  0.00     0.039 A 
HETATM   33  C   UNL     1      13.211  -9.323  -4.206  1.00  0.00     0.069 A 
HETATM   34  C   UNL     1      14.493  -8.952  -4.540  1.00  0.00     0.039 A 
HETATM   35  C   UNL     1      15.262  -8.173  -3.664  1.00  0.00     0.033 A 
BRANCH  33  36
HETATM   36  O   UNL     1      12.468 -10.107  -5.136  1.00  0.00    -0.349 OA
BRANCH  36  37
HETATM   37  C   UNL     1      12.105  -9.474  -6.342  1.00  0.00     0.206 C 
BRANCH  37  38
HETATM   38  C   UNL     1      10.836  -8.623  -6.123  1.00  0.00     0.299 C 
BRANCH  38  39
HETATM   39  N   UNL     1      10.918  -7.509  -6.579  1.00  0.00     0.090 N 
HETATM   40  C   UNL     1      10.544  -6.630  -5.720  1.00  0.00     0.272 C 
HETATM   41  C   UNL     1      11.880  -5.936  -5.113  1.00  0.00     0.032 C 
HETATM   42  C   UNL     1      12.731  -5.948  -6.035  1.00  0.00     0.032 C 
HETATM   43  C   UNL     1      12.338  -7.133  -6.945  1.00  0.00     0.272 C 
ENDBRANCH  38  39
ENDBRANCH  37  38
ENDBRANCH  36  37
ENDBRANCH  33  36
ENDBRANCH  28  30
ENDBRANCH   5  28
TORSDOF 11
ENDMDL
MODEL 8
REMARK VINA RESULT:    -7.593      1.537      2.239
REMARK INTER + INTRA:         -14.432
REMARK INTER:                 -12.825
REMARK INTRA:                  -1.607
REMARK UNBOUND:                -1.955
REMARK  11 active torsions:
REMARK  status: ('A' for Active; 'I' for Inactive)
REMARK    1  A    between atoms: C_1  and  O_39 
REMARK    2  A    between atoms: C_2  and  C_16 
REMARK    3  A    between atoms: C_2  and  N_32 
REMARK    4  A    between atoms: C_6  and  N_35 
REMARK    5  A    between atoms: C_7  and  N_35 
REMARK    6  A    between atoms: C_12  and  N_30 
REMARK    7  A    between atoms: C_13  and  N_30 
REMARK    8  A    between atoms: C_16  and  O_39 
REMARK    9  A    between atoms: C_22  and  N_37 
REMARK   10  A    between atoms: C_23  and  S_42 
REMARK   11  A    between atoms: N_37  and  S_42 
ROOT
HETATM    1  C   UNL     1      13.572  -5.928  -0.125  1.00  0.00     0.128 A 
HETATM    2  C   UNL     1      15.438  -4.286   0.498  1.00  0.00     0.054 C 
HETATM    3  C   UNL     1      13.972  -4.740   0.464  1.00  0.00    -0.001 A 
HETATM    4  C   UNL     1      12.991  -3.990   1.106  1.00  0.00     0.116 A 
HETATM    5  C   UNL     1      11.435  -5.531   0.474  1.00  0.00     0.684 A 
HETATM    6  N   UNL     1      11.738  -4.402   1.084  1.00  0.00    -0.201 N 
ATOM      7  HN  UNL     1      11.008  -3.851   1.537  1.00  0.00     0.183 HD
HETATM    8  N   UNL     1      12.308  -6.310  -0.163  1.00  0.00    -0.176 N 
ATOM      9  HN  UNL     1      12.016  -7.156  -0.653  1.00  0.00     0.186 HD
ENDROOT
BRANCH   1  10
HETATM   10  N   UNL     1      14.551  -6.714  -0.789  1.00  0.00    -0.342 N 
ATOM     11  HN  UNL     1      15.324  -7.093  -0.241  1.00  0.00     0.167 HD
BRANCH  10  12
HETATM   12  C   UNL     1      14.503  -7.003  -2.211  1.00  0.00     0.035 A 
HETATM   13  C   UNL     1      13.564  -6.450  -3.073  1.00  0.00     0.061 A 
HETATM   14  C   UNL     1      13.596  -6.819  -4.411  1.00  0.00     0.066 A 
HETATM   15  C   UNL     1      14.563  -7.698  -4.833  1.00  0.00     0.061 A 
HETATM   16 CL   UNL     1      14.615  -8.191  -6.544  1.00  0.00    -0.082 Cl
HETATM   17  C   UNL     1      15.462  -8.257  -3.983  1.00  0.00     0.028 A 
HETATM   18  C   UNL     1      15.451  -7.906  -2.647  1.00  0.00     0.031 A 
BRANCH  14  19
HETATM   19  N   UNL     1      12.679  -6.286  -5.394  1.00  0.00    -0.282 N 
ATOM     20  HN  UNL     1      12.966  -5.493  -5.967  1.00  0.00     0.178 HD
BRANCH  19  21
HETATM   21  S   UNL     1      11.152  -6.950  -5.609  1.00  0.00     0.238 S 
HETATM   22  O   UNL     1      10.860  -7.253  -7.024  1.00  0.00    -0.205 OA
HETATM   23  O   UNL     1      11.173  -8.218  -4.852  1.00  0.00    -0.205 OA
BRANCH  21  24
HETATM   24  C   UNL     1       9.908  -5.859  -4.928  1.00  0.00     0.072 C 
HETATM   25  C   UNL     1       8.518  -6.239  -5.413  1.00  0.00     0.033 C 
HETATM   26  C   UNL     1      10.252  -4.461  -5.386  1.00  0.00     0.033 C 
HETATM   27  C   UNL     1      10.041  -5.888  -3.422  1.00  0.00     0.033 C 
ENDBRANCH  21  24
ENDBRANCH  19  21
ENDBRANCH  14  19
ENDBRANCH  10  12
ENDBRANCH   1  10
BRANCH   5  28
HETATM   28  N   UNL     1      10.069  -5.887   0.534  1.00  0.00    -0.192 N 
ATOM     29  HN  UNL     1       9.461  -5.467  -0.168  1.00  0.00     0.184 HD
BRANCH  28  30
HETATM   30  C   UNL     1       9.436  -6.783   1.483  1.00  0.00     0.049 A 
HETATM   31  C   UNL     1       8.352  -7.451   0.933  1.00  0.00     0.033 A 
HETATM   32  C   UNL     1       7.640  -8.361   1.705  1.00  0.00     0.039 A 
HETATM   33  C   UNL     1       8.036  -8.612   3.002  1.00  0.00     0.069 A 
HETATM   34  C   UNL     1       9.124  -7.959   3.531  1.00  0.00     0.039 A 
HETATM   35  C   UNL     1       9.845  -7.033   2.762  1.00  0.00     0.033 A 
BRANCH  33  36
HETATM   36  O   UNL     1       7.344  -9.551   3.822  1.00  0.00    -0.349 OA
BRANCH  36  37
HETATM   37  C   UNL     1       6.145 -10.077   3.301  1.00  0.00     0.206 C 
BRANCH  37  38
HETATM   38  C   UNL     1       6.386 -11.513   2.788  1.00  0.00     0.299 C 
BRANCH  38  39
HETATM   39  N   UNL     1       5.726 -11.795   1.818  1.00  0.00     0.090 N 
HETATM   40  C   UNL     1       6.415 -11.676   0.740  1.00  0.00     0.272 C 
HETATM   41  C   UNL     1       6.840 -13.167   0.260  1.00  0.00     0.032 C 
HETATM   42  C   UNL     1       5.911 -13.929   0.621  1.00  0.00     0.032 C 
HETATM   43  C   UNL     1       5.252 -13.233   1.833  1.00  0.00     0.272 C 
ENDBRANCH  38  39
ENDBRANCH  37  38
ENDBRANCH  36  37
ENDBRANCH  33  36
ENDBRANCH  28  30
ENDBRANCH   5  28
TORSDOF 11
ENDMDL
MODEL 9
REMARK VINA RESULT:    -7.508      3.521      8.115
REMARK INTER + INTRA:         -14.291
REMARK INTER:                 -11.933
REMARK INTRA:                  -2.358
REMARK UNBOUND:                -1.955
REMARK  11 active torsions:
REMARK  status: ('A' for Active; 'I' for Inactive)
REMARK    1  A    between atoms: C_1  and  O_39 
REMARK    2  A    between atoms: C_2  and  C_16 
REMARK    3  A    between atoms: C_2  and  N_32 
REMARK    4  A    between atoms: C_6  and  N_35 
REMARK    5  A    between atoms: C_7  and  N_35 
REMARK    6  A    between atoms: C_12  and  N_30 
REMARK    7  A    between atoms: C_13  and  N_30 
REMARK    8  A    between atoms: C_16  and  O_39 
REMARK    9  A    between atoms: C_22  and  N_37 
REMARK   10  A    between atoms: C_23  and  S_42 
REMARK   11  A    between atoms: N_37  and  S_42 
ROOT
HETATM    1  C   UNL     1      12.761  -5.333   0.526  1.00  0.00     0.128 A 
HETATM    2  C   UNL     1      12.803  -3.035   1.659  1.00  0.00     0.054 C 
HETATM    3  C   UNL     1      13.459  -4.196   0.899  1.00  0.00    -0.001 A 
HETATM    4  C   UNL     1      14.785  -4.103   0.485  1.00  0.00     0.116 A 
HETATM    5  C   UNL     1      14.604  -6.164  -0.471  1.00  0.00     0.684 A 
HETATM    6  N   UNL     1      15.330  -5.101  -0.184  1.00  0.00    -0.201 N 
ATOM      7  HN  UNL     1      16.305  -5.051  -0.478  1.00  0.00     0.183 HD
HETATM    8  N   UNL     1      13.331  -6.336  -0.118  1.00  0.00    -0.176 N 
ATOM      9  HN  UNL     1      12.824  -7.195  -0.333  1.00  0.00     0.186 HD
ENDROOT
BRANCH   1  10
HETATM   10  N   UNL     1      11.406  -5.457   0.935  1.00  0.00    -0.342 N 
ATOM     11  HN  UNL     1      11.111  -4.983   1.789  1.00  0.00     0.167 HD
BRANCH  10  12
HETATM   12  C   UNL     1      10.423  -6.225   0.195  1.00  0.00     0.035 A 
HETATM   13  C   UNL     1      10.493  -6.439  -1.177  1.00  0.00     0.061 A 
HETATM   14  C   UNL     1       9.481  -7.168  -1.785  1.00  0.00     0.066 A 
HETATM   15  C   UNL     1       8.463  -7.665  -1.009  1.00  0.00     0.061 A 
HETATM   16 CL   UNL     1       7.150  -8.595  -1.772  1.00  0.00    -0.082 Cl
HETATM   17  C   UNL     1       8.383  -7.432   0.326  1.00  0.00     0.028 A 
HETATM   18  C   UNL     1       9.379  -6.709   0.955  1.00  0.00     0.031 A 
BRANCH  14  19
HETATM   19  N   UNL     1       9.470  -7.465  -3.201  1.00  0.00    -0.282 N 
ATOM     20  HN  UNL     1       9.767  -8.386  -3.521  1.00  0.00     0.178 HD
BRANCH  19  21
HETATM   21  S   UNL     1       8.976  -6.320  -4.325  1.00  0.00     0.238 S 
HETATM   22  O   UNL     1       7.821  -6.775  -5.126  1.00  0.00    -0.205 OA
HETATM   23  O   UNL     1       8.561  -5.149  -3.527  1.00  0.00    -0.205 OA
BRANCH  21  24
HETATM   24  C   UNL     1      10.344  -5.875  -5.390  1.00  0.00     0.072 C 
HETATM   25  C   UNL     1      10.111  -4.527  -6.051  1.00  0.00     0.033 C 
HETATM   26  C   UNL     1      10.451  -6.955  -6.440  1.00  0.00     0.033 C 
HETATM   27  C   UNL     1      11.608  -5.921  -4.561  1.00  0.00     0.033 C 
ENDBRANCH  21  24
ENDBRANCH  19  21
ENDBRANCH  14  19
ENDBRANCH  10  12
ENDBRANCH   1  10
BRANCH   5  28
HETATM   28  N   UNL     1      15.281  -7.159  -1.212  1.00  0.00    -0.192 N 
ATOM     29  HN  UNL     1      16.228  -7.382  -0.908  1.00  0.00     0.184 HD
BRANCH  28  30
HETATM   30  C   UNL     1      14.780  -7.899  -2.354  1.00  0.00     0.049 A 
HETATM   31  C   UNL     1      15.785  -8.221  -3.254  1.00  0.00     0.033 A 
HETATM   32  C   UNL     1      15.477  -8.945  -4.400  1.00  0.00     0.039 A 
HETATM   33  C   UNL     1      14.179  -9.358  -4.617  1.00  0.00     0.069 A 
HETATM   34  C   UNL     1      13.194  -9.050  -3.709  1.00  0.00     0.039 A 
HETATM   35  C   UNL     1      13.494  -8.314  -2.553  1.00  0.00     0.033 A 
BRANCH  33  36
HETATM   36  O   UNL     1      13.824 -10.117  -5.771  1.00  0.00    -0.349 OA
BRANCH  36  37
HETATM   37  C   UNL     1      14.424  -9.730  -6.987  1.00  0.00     0.206 C 
BRANCH  37  38
HETATM   38  C   UNL     1      13.648  -8.542  -7.594  1.00  0.00     0.299 C 
BRANCH  38  39
HETATM   39  N   UNL     1      14.355  -7.612  -7.900  1.00  0.00     0.090 N 
HETATM   40  C   UNL     1      13.961  -7.074  -8.998  1.00  0.00     0.272 C 
HETATM   41  C   UNL     1      13.177  -5.703  -8.621  1.00  0.00     0.032 C 
HETATM   42  C   UNL     1      13.723  -5.262  -7.581  1.00  0.00     0.032 C 
HETATM   43  C   UNL     1      14.327  -6.498  -6.875  1.00  0.00     0.272 C 
ENDBRANCH  38  39
ENDBRANCH  37  38
ENDBRANCH  36  37
ENDBRANCH  33  36
ENDBRANCH  28  30
ENDBRANCH   5  28
TORSDOF 11
ENDMDL
MODEL 10
REMARK VINA RESULT:    -7.442      2.558      3.491
REMARK INTER + INTRA:         -14.182
REMARK INTER:                 -13.072
REMARK INTRA:                  -1.111
REMARK UNBOUND:                -1.955
REMARK  11 active torsions:
REMARK  status: ('A' for Active; 'I' for Inactive)
REMARK    1  A    between atoms: C_1  and  O_39 
REMARK    2  A    between atoms: C_2  and  C_16 
REMARK    3  A    between atoms: C_2  and  N_32 
REMARK    4  A    between atoms: C_6  and  N_35 
REMARK    5  A    between atoms: C_7  and  N_35 
REMARK    6  A    between atoms: C_12  and  N_30 
REMARK    7  A    between atoms: C_13  and  N_30 
REMARK    8  A    between atoms: C_16  and  O_39 
REMARK    9  A    between atoms: C_22  and  N_37 
REMARK   10  A    between atoms: C_23  and  S_42 
REMARK   11  A    between atoms: N_37  and  S_42 
ROOT
HETATM    1  C   UNL     1      13.716  -5.570  -0.579  1.00  0.00     0.128 A 
HETATM    2  C   UNL     1      15.377  -3.929   0.476  1.00  0.00     0.054 C 
HETATM    3  C   UNL     1      13.977  -4.531   0.299  1.00  0.00    -0.001 A 
HETATM    4  C   UNL     1      12.919  -4.091   1.090  1.00  0.00     0.116 A 
HETATM    5  C   UNL     1      11.554  -5.596   0.059  1.00  0.00     0.684 A 
HETATM    6  N   UNL     1      11.724  -4.631   0.940  1.00  0.00    -0.201 N 
ATOM      7  HN  UNL     1      10.939  -4.305   1.503  1.00  0.00     0.183 HD
HETATM    8  N   UNL     1      12.507  -6.079  -0.737  1.00  0.00    -0.176 N 
ATOM      9  HN  UNL     1      12.314  -6.802  -1.431  1.00  0.00     0.186 HD
ENDROOT
BRANCH   1  10
HETATM   10  N   UNL     1      14.775  -6.040  -1.400  1.00  0.00    -0.342 N 
ATOM     11  HN  UNL     1      15.733  -5.793  -1.148  1.00  0.00     0.167 HD
BRANCH  10  12
HETATM   12  C   UNL     1      14.559  -6.854  -2.582  1.00  0.00     0.035 A 
HETATM   13  C   UNL     1      13.942  -6.381  -3.735  1.00  0.00     0.061 A 
HETATM   14  C   UNL     1      13.764  -7.257  -4.796  1.00  0.00     0.066 A 
HETATM   15  C   UNL     1      14.221  -8.546  -4.676  1.00  0.00     0.061 A 
HETATM   16 CL   UNL     1      13.995  -9.688  -6.024  1.00  0.00    -0.082 Cl
HETATM   17  C   UNL     1      14.801  -9.012  -3.540  1.00  0.00     0.028 A 
HETATM   18  C   UNL     1      14.990  -8.160  -2.469  1.00  0.00     0.031 A 
BRANCH  14  19
HETATM   19  N   UNL     1      13.152  -6.862  -6.046  1.00  0.00    -0.282 N 
ATOM     20  HN  UNL     1      12.209  -7.181  -6.264  1.00  0.00     0.178 HD
BRANCH  19  21
HETATM   21  S   UNL     1      13.968  -5.887  -7.142  1.00  0.00     0.238 S 
HETATM   22  O   UNL     1      13.355  -4.550  -7.276  1.00  0.00    -0.205 OA
HETATM   23  O   UNL     1      15.325  -5.727  -6.582  1.00  0.00    -0.205 OA
BRANCH  21  24
HETATM   24  C   UNL     1      14.061  -6.698  -8.734  1.00  0.00     0.072 C 
HETATM   25  C   UNL     1      13.965  -5.694  -9.871  1.00  0.00     0.033 C 
HETATM   26  C   UNL     1      12.904  -7.668  -8.801  1.00  0.00     0.033 C 
HETATM   27  C   UNL     1      15.336  -7.511  -8.765  1.00  0.00     0.033 C 
ENDBRANCH  21  24
ENDBRANCH  19  21
ENDBRANCH  14  19
ENDBRANCH  10  12
ENDBRANCH   1  10
BRANCH   5  28
HETATM   28  N   UNL     1      10.242  -6.117  -0.000  1.00  0.00    -0.192 N 
ATOM     29  HN  UNL     1       9.790  -6.102  -0.914  1.00  0.00     0.184 HD
BRANCH  28  30
HETATM   30  C   UNL     1       9.466  -6.670   1.093  1.00  0.00     0.049 A 
HETATM   31  C   UNL     1       8.133  -6.848   0.754  1.00  0.00     0.033 A 
HETATM   32  C   UNL     1       7.251  -7.385   1.685  1.00  0.00     0.039 A 
HETATM   33  C   UNL     1       7.718  -7.761   2.928  1.00  0.00     0.069 A 
HETATM   34  C   UNL     1       9.046  -7.599   3.247  1.00  0.00     0.039 A 
HETATM   35  C   UNL     1       9.941  -7.051   2.315  1.00  0.00     0.033 A 
BRANCH  33  36
HETATM   36  O   UNL     1       6.851  -8.332   3.906  1.00  0.00    -0.349 OA
BRANCH  36  37
HETATM   37  C   UNL     1       7.449  -9.186   4.854  1.00  0.00     0.206 C 
BRANCH  37  38
HETATM   38  C   UNL     1       6.360 -10.018   5.564  1.00  0.00     0.299 C 
BRANCH  38  39
HETATM   39  N   UNL     1       6.279  -9.795   6.747  1.00  0.00     0.090 N 
HETATM   40  C   UNL     1       5.392 -10.544   7.299  1.00  0.00     0.272 C 
HETATM   41  C   UNL     1       6.172 -11.728   8.088  1.00  0.00     0.032 C 
HETATM   42  C   UNL     1       7.259 -11.236   8.474  1.00  0.00     0.032 C 
HETATM   43  C   UNL     1       7.567 -10.088   7.486  1.00  0.00     0.272 C 
ENDBRANCH  38  39
ENDBRANCH  37  38
ENDBRANCH  36  37
ENDBRANCH  33  36
ENDBRANCH  28  30
ENDBRANCH   5  28
TORSDOF 11
ENDMDL
MODEL 11
REMARK VINA RESULT:    -7.351      1.198      1.790
REMARK INTER + INTRA:         -14.033
REMARK INTER:                 -11.841
REMARK INTRA:                  -2.192
REMARK UNBOUND:                -1.955
REMARK  11 active torsions:
REMARK  status: ('A' for Active; 'I' for Inactive)
REMARK    1  A    between atoms: C_1  and  O_39 
REMARK    2  A    between atoms: C_2  and  C_16 
REMARK    3  A    between atoms: C_2  and  N_32 
REMARK    4  A    between atoms: C_6  and  N_35 
REMARK    5  A    between atoms: C_7  and  N_35 
REMARK    6  A    between atoms: C_12  and  N_30 
REMARK    7  A    between atoms: C_13  and  N_30 
REMARK    8  A    between atoms: C_16  and  O_39 
REMARK    9  A    between atoms: C_22  and  N_37 
REMARK   10  A    between atoms: C_23  and  S_42 
REMARK   11  A    between atoms: N_37  and  S_42 
ROOT
HETATM    1  C   UNL     1      13.436  -6.283  -0.108  1.00  0.00     0.128 A 
HETATM    2  C   UNL     1      15.438  -4.685  -0.193  1.00  0.00     0.054 C 
HETATM    3  C   UNL     1      13.996  -5.050   0.184  1.00  0.00    -0.001 A 
HETATM    4  C   UNL     1      13.215  -4.158   0.915  1.00  0.00     0.116 A 
HETATM    5  C   UNL     1      11.516  -5.676   0.904  1.00  0.00     0.684 A 
HETATM    6  N   UNL     1      11.983  -4.493   1.249  1.00  0.00    -0.201 N 
ATOM      7  HN  UNL     1      11.397  -3.840   1.770  1.00  0.00     0.183 HD
HETATM    8  N   UNL     1      12.190  -6.590   0.208  1.00  0.00    -0.176 N 
ATOM      9  HN  UNL     1      11.768  -7.477  -0.066  1.00  0.00     0.186 HD
ENDROOT
BRANCH   1  10
HETATM   10  N   UNL     1      14.208  -7.214  -0.854  1.00  0.00    -0.342 N 
ATOM     11  HN  UNL     1      14.776  -7.892  -0.346  1.00  0.00     0.167 HD
BRANCH  10  12
HETATM   12  C   UNL     1      14.225  -7.244  -2.305  1.00  0.00     0.035 A 
HETATM   13  C   UNL     1      13.277  -6.606  -3.095  1.00  0.00     0.061 A 
HETATM   14  C   UNL     1      13.377  -6.725  -4.475  1.00  0.00     0.066 A 
HETATM   15  C   UNL     1      14.417  -7.448  -5.004  1.00  0.00     0.061 A 
HETATM   16 CL   UNL     1      14.559  -7.620  -6.771  1.00  0.00    -0.082 Cl
HETATM   17  C   UNL     1      15.327  -8.092  -4.228  1.00  0.00     0.028 A 
HETATM   18  C   UNL     1      15.249  -7.989  -2.853  1.00  0.00     0.031 A 
BRANCH  14  19
HETATM   19  N   UNL     1      12.456  -6.084  -5.386  1.00  0.00    -0.282 N 
ATOM     20  HN  UNL     1      12.663  -5.147  -5.731  1.00  0.00     0.178 HD
BRANCH  19  21
HETATM   21  S   UNL     1      11.051  -6.855  -5.888  1.00  0.00     0.238 S 
HETATM   22  O   UNL     1      11.060  -7.167  -7.331  1.00  0.00    -0.205 OA
HETATM   23  O   UNL     1      11.017  -8.125  -5.134  1.00  0.00    -0.205 OA
BRANCH  21  24
HETATM   24  C   UNL     1       9.622  -5.863  -5.467  1.00  0.00     0.072 C 
HETATM   25  C   UNL     1       8.732  -6.577  -4.464  1.00  0.00     0.033 C 
HETATM   26  C   UNL     1       8.865  -5.619  -6.751  1.00  0.00     0.033 C 
HETATM   27  C   UNL     1      10.120  -4.523  -4.972  1.00  0.00     0.033 C 
ENDBRANCH  21  24
ENDBRANCH  19  21
ENDBRANCH  14  19
ENDBRANCH  10  12
ENDBRANCH   1  10
BRANCH   5  28
HETATM   28  N   UNL     1      10.195  -5.937   1.334  1.00  0.00    -0.192 N 
ATOM     29  HN  UNL     1       9.881  -5.432   2.163  1.00  0.00     0.184 HD
BRANCH  28  30
HETATM   30  C   UNL     1       9.236  -6.843   0.731  1.00  0.00     0.049 A 
HETATM   31  C   UNL     1       8.575  -7.614   1.674  1.00  0.00     0.033 A 
HETATM   32  C   UNL     1       7.609  -8.526   1.265  1.00  0.00     0.039 A 
HETATM   33  C   UNL     1       7.299  -8.634  -0.076  1.00  0.00     0.069 A 
HETATM   34  C   UNL     1       7.947  -7.851  -1.001  1.00  0.00     0.039 A 
HETATM   35  C   UNL     1       8.928  -6.933  -0.597  1.00  0.00     0.033 A 
BRANCH  33  36
HETATM   36  O   UNL     1       6.303  -9.544  -0.536  1.00  0.00    -0.349 OA
BRANCH  36  37
HETATM   37  C   UNL     1       4.961  -9.151  -0.355  1.00  0.00     0.206 C 
BRANCH  37  38
HETATM   38  C   UNL     1       4.372  -9.866   0.879  1.00  0.00     0.299 C 
BRANCH  38  39
HETATM   39  N   UNL     1       3.611  -9.178   1.516  1.00  0.00     0.090 N 
HETATM   40  C   UNL     1       3.798  -9.328   2.778  1.00  0.00     0.272 C 
HETATM   41  C   UNL     1       4.619  -8.034   3.311  1.00  0.00     0.032 C 
HETATM   42  C   UNL     1       4.260  -7.070   2.592  1.00  0.00     0.032 C 
HETATM   43  C   UNL     1       3.805  -7.699   1.256  1.00  0.00     0.272 C 
ENDBRANCH  38  39
ENDBRANCH  37  38
ENDBRANCH  36  37
ENDBRANCH  33  36
ENDBRANCH  28  30
ENDBRANCH   5  28
TORSDOF 11
ENDMDL
MODEL 12
REMARK VINA RESULT:    -7.332      2.684      4.296
REMARK INTER + INTRA:         -14.002
REMARK INTER:                 -12.533
REMARK INTRA:                  -1.470
REMARK UNBOUND:                -1.955
REMARK  11 active torsions:
REMARK  status: ('A' for Active; 'I' for Inactive)
REMARK    1  A    between atoms: C_1  and  O_39 
REMARK    2  A    between atoms: C_2  and  C_16 
REMARK    3  A    between atoms: C_2  and  N_32 
REMARK    4  A    between atoms: C_6  and  N_35 
REMARK    5  A    between atoms: C_7  and  N_35 
REMARK    6  A    between atoms: C_12  and  N_30 
REMARK    7  A    between atoms: C_13  and  N_30 
REMARK    8  A    between atoms: C_16  and  O_39 
REMARK    9  A    between atoms: C_22  and  N_37 
REMARK   10  A    between atoms: C_23  and  S_42 
REMARK   11  A    between atoms: N_37  and  S_42 
ROOT
HETATM    1  C   UNL     1      12.614  -6.594  -1.006  1.00  0.00     0.128 A 
HETATM    2  C   UNL     1      14.908  -5.454  -0.910  1.00  0.00     0.054 C 
HETATM    3  C   UNL     1      13.448  -5.627  -0.468  1.00  0.00    -0.001 A 
HETATM    4  C   UNL     1      12.931  -4.849   0.564  1.00  0.00     0.116 A 
HETATM    5  C   UNL     1      10.943  -5.944   0.360  1.00  0.00     0.684 A 
HETATM    6  N   UNL     1      11.680  -5.022   0.946  1.00  0.00    -0.201 N 
ATOM      7  HN  UNL     1      11.286  -4.446   1.690  1.00  0.00     0.183 HD
HETATM    8  N   UNL     1      11.355  -6.732  -0.632  1.00  0.00    -0.176 N 
ATOM      9  HN  UNL     1      10.732  -7.406  -1.078  1.00  0.00     0.186 HD
ENDROOT
BRANCH   1  10
HETATM   10  N   UNL     1      13.114  -7.402  -2.062  1.00  0.00    -0.342 N 
ATOM     11  HN  UNL     1      13.431  -8.347  -1.843  1.00  0.00     0.167 HD
BRANCH  10  12
HETATM   12  C   UNL     1      13.192  -6.947  -3.438  1.00  0.00     0.035 A 
HETATM   13  C   UNL     1      14.343  -7.044  -4.211  1.00  0.00     0.061 A 
HETATM   14  C   UNL     1      14.312  -6.551  -5.508  1.00  0.00     0.066 A 
HETATM   15  C   UNL     1      13.144  -6.007  -5.983  1.00  0.00     0.061 A 
HETATM   16 CL   UNL     1      13.086  -5.361  -7.642  1.00  0.00    -0.082 Cl
HETATM   17  C   UNL     1      12.029  -5.891  -5.217  1.00  0.00     0.028 A 
HETATM   18  C   UNL     1      12.035  -6.374  -3.922  1.00  0.00     0.031 A 
BRANCH  14  19
HETATM   19  N   UNL     1      15.447  -6.622  -6.402  1.00  0.00    -0.282 N 
ATOM     20  HN  UNL     1      16.056  -5.810  -6.502  1.00  0.00     0.178 HD
BRANCH  19  21
HETATM   21  S   UNL     1      15.779  -8.016  -7.277  1.00  0.00     0.238 S 
HETATM   22  O   UNL     1      14.564  -8.799  -7.578  1.00  0.00    -0.205 OA
HETATM   23  O   UNL     1      16.359  -7.543  -8.550  1.00  0.00    -0.205 OA
BRANCH  21  24
HETATM   24  C   UNL     1      16.974  -9.019  -6.402  1.00  0.00     0.072 C 
HETATM   25  C   UNL     1      16.296  -9.921  -5.384  1.00  0.00     0.033 C 
HETATM   26  C   UNL     1      17.918  -8.068  -5.704  1.00  0.00     0.033 C 
HETATM   27  C   UNL     1      17.778  -9.783  -7.430  1.00  0.00     0.033 C 
ENDBRANCH  21  24
ENDBRANCH  19  21
ENDBRANCH  14  19
ENDBRANCH  10  12
ENDBRANCH   1  10
BRANCH   5  28
HETATM   28  N   UNL     1       9.628  -6.059   0.865  1.00  0.00    -0.192 N 
ATOM     29  HN  UNL     1       8.987  -5.301   0.632  1.00  0.00     0.184 HD
BRANCH  28  30
HETATM   30  C   UNL     1       9.089  -7.132   1.677  1.00  0.00     0.049 A 
HETATM   31  C   UNL     1       8.175  -7.909   0.982  1.00  0.00     0.033 A 
HETATM   32  C   UNL     1       7.573  -8.993   1.610  1.00  0.00     0.039 A 
HETATM   33  C   UNL     1       7.912  -9.301   2.912  1.00  0.00     0.069 A 
HETATM   34  C   UNL     1       8.834  -8.535   3.585  1.00  0.00     0.039 A 
HETATM   35  C   UNL     1       9.442  -7.436   2.961  1.00  0.00     0.033 A 
BRANCH  33  36
HETATM   36  O   UNL     1       7.332 -10.414   3.587  1.00  0.00    -0.349 OA
BRANCH  36  37
HETATM   37  C   UNL     1       6.240 -10.136   4.434  1.00  0.00     0.206 C 
BRANCH  37  38
HETATM   38  C   UNL     1       6.196 -11.166   5.583  1.00  0.00     0.299 C 
BRANCH  38  39
HETATM   39  N   UNL     1       5.923 -10.681   6.654  1.00  0.00     0.090 N 
HETATM   40  C   UNL     1       5.864 -11.583   7.567  1.00  0.00     0.272 C 
HETATM   41  C   UNL     1       7.230 -11.490   8.439  1.00  0.00     0.032 C 
HETATM   42  C   UNL     1       7.573 -10.283   8.426  1.00  0.00     0.032 C 
HETATM   43  C   UNL     1       6.969  -9.696   7.131  1.00  0.00     0.272 C 
ENDBRANCH  38  39
ENDBRANCH  37  38
ENDBRANCH  36  37
ENDBRANCH  33  36
ENDBRANCH  28  30
ENDBRANCH   5  28
TORSDOF 11
ENDMDL
MODEL 13
REMARK VINA RESULT:    -7.325      2.672      4.275
REMARK INTER + INTRA:         -13.991
REMARK INTER:                 -12.905
REMARK INTRA:                  -1.085
REMARK UNBOUND:                -1.955
REMARK  11 active torsions:
REMARK  status: ('A' for Active; 'I' for Inactive)
REMARK    1  A    between atoms: C_1  and  O_39 
REMARK    2  A    between atoms: C_2  and  C_16 
REMARK    3  A    between atoms: C_2  and  N_32 
REMARK    4  A    between atoms: C_6  and  N_35 
REMARK    5  A    between atoms: C_7  and  N_35 
REMARK    6  A    between atoms: C_12  and  N_30 
REMARK    7  A    between atoms: C_13  and  N_30 
REMARK    8  A    between atoms: C_16  and  O_39 
REMARK    9  A    between atoms: C_22  and  N_37 
REMARK   10  A    between atoms: C_23  and  S_42 
REMARK   11  A    between atoms: N_37  and  S_42 
ROOT
HETATM    1  C   UNL     1      13.704  -6.126  -0.451  1.00  0.00     0.128 A 
HETATM    2  C   UNL     1      15.536  -4.506   0.316  1.00  0.00     0.054 C 
HETATM    3  C   UNL     1      14.079  -4.978   0.229  1.00  0.00    -0.001 A 
HETATM    4  C   UNL     1      13.077  -4.293   0.911  1.00  0.00     0.116 A 
HETATM    5  C   UNL     1      11.555  -5.806   0.147  1.00  0.00     0.684 A 
HETATM    6  N   UNL     1      11.831  -4.721   0.842  1.00  0.00    -0.201 N 
ATOM      7  HN  UNL     1      11.087  -4.217   1.325  1.00  0.00     0.183 HD
HETATM    8  N   UNL     1      12.447  -6.523  -0.534  1.00  0.00    -0.176 N 
ATOM      9  HN  UNL     1      12.175  -7.335  -1.089  1.00  0.00     0.186 HD
ENDROOT
BRANCH   1  10
HETATM   10  N   UNL     1      14.704  -6.846  -1.158  1.00  0.00    -0.342 N 
ATOM     11  HN  UNL     1      15.521  -7.177  -0.643  1.00  0.00     0.167 HD
BRANCH  10  12
HETATM   12  C   UNL     1      14.618  -7.134  -2.578  1.00  0.00     0.035 A 
HETATM   13  C   UNL     1      15.446  -8.042  -3.227  1.00  0.00     0.061 A 
HETATM   14  C   UNL     1      15.292  -8.218  -4.595  1.00  0.00     0.066 A 
HETATM   15  C   UNL     1      14.317  -7.507  -5.249  1.00  0.00     0.061 A 
HETATM   16 CL   UNL     1      14.108  -7.712  -7.006  1.00  0.00    -0.082 Cl
HETATM   17  C   UNL     1      13.526  -6.602  -4.617  1.00  0.00     0.028 A 
HETATM   18  C   UNL     1      13.660  -6.408  -3.255  1.00  0.00     0.031 A 
BRANCH  14  19
HETATM   19  N   UNL     1      16.087  -9.152  -5.360  1.00  0.00    -0.282 N 
ATOM     20  HN  UNL     1      15.867 -10.147  -5.322  1.00  0.00     0.178 HD
BRANCH  19  21
HETATM   21  S   UNL     1      17.368  -8.628  -6.311  1.00  0.00     0.238 S 
HETATM   22  O   UNL     1      17.218  -9.019  -7.728  1.00  0.00    -0.205 OA
HETATM   23  O   UNL     1      17.334  -7.154  -6.226  1.00  0.00    -0.205 OA
BRANCH  21  24
HETATM   24  C   UNL     1      18.914  -9.238  -5.649  1.00  0.00     0.072 C 
HETATM   25  C   UNL     1      19.768  -9.870  -6.736  1.00  0.00     0.033 C 
HETATM   26  C   UNL     1      18.566 -10.267  -4.600  1.00  0.00     0.033 C 
HETATM   27  C   UNL     1      19.602  -8.088  -4.947  1.00  0.00     0.033 C 
ENDBRANCH  21  24
ENDBRANCH  19  21
ENDBRANCH  14  19
ENDBRANCH  10  12
ENDBRANCH   1  10
BRANCH   5  28
HETATM   28  N   UNL     1      10.194  -6.187   0.162  1.00  0.00    -0.192 N 
ATOM     29  HN  UNL     1       9.682  -6.071  -0.712  1.00  0.00     0.184 HD
BRANCH  28  30
HETATM   30  C   UNL     1       9.444  -6.724   1.282  1.00  0.00     0.049 A 
HETATM   31  C   UNL     1       8.119  -6.973   0.957  1.00  0.00     0.033 A 
HETATM   32  C   UNL     1       7.263  -7.505   1.913  1.00  0.00     0.039 A 
HETATM   33  C   UNL     1       7.748  -7.806   3.170  1.00  0.00     0.069 A 
HETATM   34  C   UNL     1       9.068  -7.574   3.475  1.00  0.00     0.039 A 
HETATM   35  C   UNL     1       9.938  -7.031   2.518  1.00  0.00     0.033 A 
BRANCH  33  36
HETATM   36  O   UNL     1       6.908  -8.369   4.175  1.00  0.00    -0.349 OA
BRANCH  36  37
HETATM   37  C   UNL     1       7.059  -9.749   4.419  1.00  0.00     0.206 C 
BRANCH  37  38
HETATM   38  C   UNL     1       5.706 -10.465   4.214  1.00  0.00     0.299 C 
BRANCH  38  39
HETATM   39  N   UNL     1       5.770 -11.409   3.465  1.00  0.00     0.090 N 
HETATM   40  C   UNL     1       4.919 -11.299   2.509  1.00  0.00     0.272 C 
HETATM   41  C   UNL     1       5.728 -10.833   1.181  1.00  0.00     0.032 C 
HETATM   42  C   UNL     1       6.874 -11.335   1.275  1.00  0.00     0.032 C 
HETATM   43  C   UNL     1       7.120 -11.526   2.788  1.00  0.00     0.272 C 
ENDBRANCH  38  39
ENDBRANCH  37  38
ENDBRANCH  36  37
ENDBRANCH  33  36
ENDBRANCH  28  30
ENDBRANCH   5  28
TORSDOF 11
ENDMDL
MODEL 14
REMARK VINA RESULT:    -7.310      2.092      2.893
REMARK INTER + INTRA:         -13.966
REMARK INTER:                 -11.815
REMARK INTRA:                  -2.151
REMARK UNBOUND:                -1.955
REMARK  11 active torsions:
REMARK  status: ('A' for Active; 'I' for Inactive)
REMARK    1  A    between atoms: C_1  and  O_39 
REMARK    2  A    between atoms: C_2  and  C_16 
REMARK    3  A    between atoms: C_2  and  N_32 
REMARK    4  A    between atoms: C_6  and  N_35 
REMARK    5  A    between atoms: C_7  and  N_35 
REMARK    6  A    between atoms: C_12  and  N_30 
REMARK    7  A    between atoms: C_13  and  N_30 
REMARK    8  A    between atoms: C_16  and  O_39 
REMARK    9  A    between atoms: C_22  and  N_37 
REMARK   10  A    between atoms: C_23  and  S_42 
REMARK   11  A    between atoms: N_37  and  S_42 
ROOT
HETATM    1  C   UNL     1      13.819  -5.799   0.104  1.00  0.00     0.128 A 
HETATM    2  C   UNL     1      15.538  -3.899   0.052  1.00  0.00     0.054 C 
HETATM    3  C   UNL     1      14.158  -4.484   0.380  1.00  0.00    -0.001 A 
HETATM    4  C   UNL     1      13.211  -3.714   1.049  1.00  0.00     0.116 A 
HETATM    5  C   UNL     1      11.781  -5.488   1.016  1.00  0.00     0.684 A 
HETATM    6  N   UNL     1      12.035  -4.236   1.342  1.00  0.00    -0.201 N 
ATOM      7  HN  UNL     1      11.328  -3.676   1.818  1.00  0.00     0.183 HD
HETATM    8  N   UNL     1      12.626  -6.296   0.377  1.00  0.00    -0.176 N 
ATOM      9  HN  UNL     1      12.366  -7.247   0.114  1.00  0.00     0.186 HD
ENDROOT
BRANCH   1  10
HETATM   10  N   UNL     1      14.765  -6.609  -0.580  1.00  0.00    -0.342 N 
ATOM     11  HN  UNL     1      15.565  -6.968  -0.058  1.00  0.00     0.167 HD
BRANCH  10  12
HETATM   12  C   UNL     1      14.645  -6.950  -1.985  1.00  0.00     0.035 A 
HETATM   13  C   UNL     1      13.786  -6.297  -2.861  1.00  0.00     0.061 A 
HETATM   14  C   UNL     1      13.735  -6.726  -4.180  1.00  0.00     0.066 A 
HETATM   15  C   UNL     1      14.546  -7.761  -4.573  1.00  0.00     0.061 A 
HETATM   16 CL   UNL     1      14.489  -8.332  -6.259  1.00  0.00    -0.082 Cl
HETATM   17  C   UNL     1      15.365  -8.414  -3.709  1.00  0.00     0.028 A 
HETATM   18  C   UNL     1      15.435  -8.007  -2.391  1.00  0.00     0.031 A 
BRANCH  14  19
HETATM   19  N   UNL     1      12.892  -6.102  -5.176  1.00  0.00    -0.282 N 
ATOM     20  HN  UNL     1      13.314  -5.721  -6.022  1.00  0.00     0.178 HD
BRANCH  19  21
HETATM   21  S   UNL     1      11.230  -5.992  -4.963  1.00  0.00     0.238 S 
HETATM   22  O   UNL     1      10.862  -5.520  -3.613  1.00  0.00    -0.205 OA
HETATM   23  O   UNL     1      10.779  -4.990  -5.949  1.00  0.00    -0.205 OA
BRANCH  21  24
HETATM   24  C   UNL     1      10.461  -7.571  -5.308  1.00  0.00     0.072 C 
HETATM   25  C   UNL     1      10.923  -8.127  -6.645  1.00  0.00     0.033 C 
HETATM   26  C   UNL     1       8.969  -7.336  -5.332  1.00  0.00     0.033 C 
HETATM   27  C   UNL     1      10.757  -8.493  -4.147  1.00  0.00     0.033 C 
ENDBRANCH  21  24
ENDBRANCH  19  21
ENDBRANCH  14  19
ENDBRANCH  10  12
ENDBRANCH   1  10
BRANCH   5  28
HETATM   28  N   UNL     1      10.502  -5.950   1.399  1.00  0.00    -0.192 N 
ATOM     29  HN  UNL     1      10.213  -5.742   2.354  1.00  0.00     0.184 HD
BRANCH  28  30
HETATM   30  C   UNL     1       9.554  -6.689   0.586  1.00  0.00     0.049 A 
HETATM   31  C   UNL     1       8.635  -7.387   1.354  1.00  0.00     0.033 A 
HETATM   32  C   UNL     1       7.645  -8.137   0.731  1.00  0.00     0.039 A 
HETATM   33  C   UNL     1       7.569  -8.155  -0.647  1.00  0.00     0.069 A 
HETATM   34  C   UNL     1       8.473  -7.442  -1.399  1.00  0.00     0.039 A 
HETATM   35  C   UNL     1       9.481  -6.689  -0.778  1.00  0.00     0.033 A 
BRANCH  33  36
HETATM   36  O   UNL     1       6.558  -8.896  -1.326  1.00  0.00    -0.349 OA
BRANCH  36  37
HETATM   37  C   UNL     1       5.613  -9.558  -0.516  1.00  0.00     0.206 C 
BRANCH  37  38
HETATM   38  C   UNL     1       5.759 -11.085  -0.687  1.00  0.00     0.299 C 
BRANCH  38  39
HETATM   39  N   UNL     1       5.541 -11.705   0.325  1.00  0.00     0.090 N 
HETATM   40  C   UNL     1       6.546 -12.442   0.641  1.00  0.00     0.272 C 
HETATM   41  C   UNL     1       7.331 -11.708   1.857  1.00  0.00     0.032 C 
HETATM   42  C   UNL     1       6.459 -11.095   2.518  1.00  0.00     0.032 C 
HETATM   43  C   UNL     1       5.313 -10.806   1.522  1.00  0.00     0.272 C 
ENDBRANCH  38  39
ENDBRANCH  37  38
ENDBRANCH  36  37
ENDBRANCH  33  36
ENDBRANCH  28  30
ENDBRANCH   5  28
TORSDOF 11
ENDMDL
MODEL 15
REMARK VINA RESULT:    -7.292      2.070      2.604
REMARK INTER + INTRA:         -13.936
REMARK INTER:                 -12.261
REMARK INTRA:                  -1.675
REMARK UNBOUND:                -1.955
REMARK  11 active torsions:
REMARK  status: ('A' for Active; 'I' for Inactive)
REMARK    1  A    between atoms: C_1  and  O_39 
REMARK    2  A    between atoms: C_2  and  C_16 
REMARK    3  A    between atoms: C_2  and  N_32 
REMARK    4  A    between atoms: C_6  and  N_35 
REMARK    5  A    between atoms: C_7  and  N_35 
REMARK    6  A    between atoms: C_12  and  N_30 
REMARK    7  A    between atoms: C_13  and  N_30 
REMARK    8  A    between atoms: C_16  and  O_39 
REMARK    9  A    between atoms: C_22  and  N_37 
REMARK   10  A    between atoms: C_23  and  S_42 
REMARK   11  A    between atoms: N_37  and  S_42 
ROOT
HETATM    1  C   UNL     1      13.223  -6.232  -0.652  1.00  0.00     0.128 A 
HETATM    2  C   UNL     1      15.303  -4.864  -0.043  1.00  0.00     0.054 C 
HETATM    3  C   UNL     1      13.804  -5.181   0.040  1.00  0.00    -0.001 A 
HETATM    4  C   UNL     1      12.979  -4.453   0.892  1.00  0.00     0.116 A 
HETATM    5  C   UNL     1      11.216  -5.746   0.250  1.00  0.00     0.684 A 
HETATM    6  N   UNL     1      11.695  -4.749   0.967  1.00  0.00    -0.201 N 
ATOM      7  HN  UNL     1      11.079  -4.210   1.576  1.00  0.00     0.183 HD
HETATM    8  N   UNL     1      11.930  -6.495  -0.588  1.00  0.00    -0.176 N 
ATOM      9  HN  UNL     1      11.502  -7.232  -1.149  1.00  0.00     0.186 HD
ENDROOT
BRANCH   1  10
HETATM   10  N   UNL     1      14.040  -6.993  -1.531  1.00  0.00    -0.342 N 
ATOM     11  HN  UNL     1      15.006  -7.176  -1.260  1.00  0.00     0.167 HD
BRANCH  10  12
HETATM   12  C   UNL     1      13.564  -7.521  -2.796  1.00  0.00     0.035 A 
HETATM   13  C   UNL     1      13.241  -6.721  -3.886  1.00  0.00     0.061 A 
HETATM   14  C   UNL     1      12.769  -7.333  -5.039  1.00  0.00     0.066 A 
HETATM   15  C   UNL     1      12.658  -8.701  -5.065  1.00  0.00     0.061 A 
HETATM   16 CL   UNL     1      12.046  -9.506  -6.532  1.00  0.00    -0.082 Cl
HETATM   17  C   UNL     1      12.950  -9.478  -3.990  1.00  0.00     0.028 A 
HETATM   18  C   UNL     1      13.421  -8.892  -2.831  1.00  0.00     0.031 A 
BRANCH  14  19
HETATM   19  N   UNL     1      12.426  -6.596  -6.235  1.00  0.00    -0.282 N 
ATOM     20  HN  UNL     1      11.444  -6.464  -6.476  1.00  0.00     0.178 HD
BRANCH  19  21
HETATM   21  S   UNL     1      13.614  -5.954  -7.231  1.00  0.00     0.238 S 
HETATM   22  O   UNL     1      13.547  -4.481  -7.317  1.00  0.00    -0.205 OA
HETATM   23  O   UNL     1      14.894  -6.328  -6.597  1.00  0.00    -0.205 OA
BRANCH  21  24
HETATM   24  C   UNL     1      13.509  -6.684  -8.861  1.00  0.00     0.072 C 
HETATM   25  C   UNL     1      13.980  -5.713  -9.931  1.00  0.00     0.033 C 
HETATM   26  C   UNL     1      12.060  -7.042  -9.089  1.00  0.00     0.033 C 
HETATM   27  C   UNL     1      14.298  -7.975  -8.841  1.00  0.00     0.033 C 
ENDBRANCH  21  24
ENDBRANCH  19  21
ENDBRANCH  14  19
ENDBRANCH  10  12
ENDBRANCH   1  10
BRANCH   5  28
HETATM   28  N   UNL     1       9.835  -5.989   0.427  1.00  0.00    -0.192 N 
ATOM     29  HN  UNL     1       9.198  -5.359  -0.060  1.00  0.00     0.184 HD
BRANCH  28  30
HETATM   30  C   UNL     1       9.222  -7.035   1.223  1.00  0.00     0.049 A 
HETATM   31  C   UNL     1       9.604  -6.976   2.554  1.00  0.00     0.033 A 
HETATM   32  C   UNL     1       9.094  -7.899   3.459  1.00  0.00     0.039 A 
HETATM   33  C   UNL     1       8.191  -8.849   3.029  1.00  0.00     0.069 A 
HETATM   34  C   UNL     1       7.803  -8.886   1.710  1.00  0.00     0.039 A 
HETATM   35  C   UNL     1       8.318  -7.963   0.788  1.00  0.00     0.033 A 
BRANCH  33  36
HETATM   36  O   UNL     1       7.630  -9.802   3.927  1.00  0.00    -0.349 OA
BRANCH  36  37
HETATM   37  C   UNL     1       6.238 -10.004   3.843  1.00  0.00     0.206 C 
BRANCH  37  38
HETATM   38  C   UNL     1       5.500  -8.688   4.170  1.00  0.00     0.299 C 
BRANCH  38  39
HETATM   39  N   UNL     1       4.410  -8.608   3.660  1.00  0.00     0.090 N 
HETATM   40  C   UNL     1       4.167  -7.407   3.273  1.00  0.00     0.272 C 
HETATM   41  C   UNL     1       4.368  -7.360   1.663  1.00  0.00     0.032 C 
HETATM   42  C   UNL     1       4.046  -8.495   1.236  1.00  0.00     0.032 C 
HETATM   43  C   UNL     1       4.283  -9.463   2.417  1.00  0.00     0.272 C 
ENDBRANCH  38  39
ENDBRANCH  37  38
ENDBRANCH  36  37
ENDBRANCH  33  36
ENDBRANCH  28  30
ENDBRANCH   5  28
TORSDOF 11
ENDMDL
MODEL 16
REMARK VINA RESULT:    -7.290      5.841      9.545
REMARK INTER + INTRA:         -13.932
REMARK INTER:                 -12.429
REMARK INTRA:                  -1.503
REMARK UNBOUND:                -1.955
REMARK  11 active torsions:
REMARK  status: ('A' for Active; 'I' for Inactive)
REMARK    1  A    between atoms: C_1  and  O_39 
REMARK    2  A    between atoms: C_2  and  C_16 
REMARK    3  A    between atoms: C_2  and  N_32 
REMARK    4  A    between atoms: C_6  and  N_35 
REMARK    5  A    between atoms: C_7  and  N_35 
REMARK    6  A    between atoms: C_12  and  N_30 
REMARK    7  A    between atoms: C_13  and  N_30 
REMARK    8  A    between atoms: C_16  and  O_39 
REMARK    9  A    between atoms: C_22  and  N_37 
REMARK   10  A    between atoms: C_23  and  S_42 
REMARK   11  A    between atoms: N_37  and  S_42 
ROOT
HETATM    1  C   UNL     1      16.159  -9.401  -5.701  1.00  0.00     0.128 A 
HETATM    2  C   UNL     1      15.554 -11.871  -6.022  1.00  0.00     0.054 C 
HETATM    3  C   UNL     1      15.283 -10.455  -5.496  1.00  0.00    -0.001 A 
HETATM    4  C   UNL     1      14.086 -10.165  -4.849  1.00  0.00     0.116 A 
HETATM    5  C   UNL     1      14.759  -7.999  -4.627  1.00  0.00     0.684 A 
HETATM    6  N   UNL     1      13.858  -8.938  -4.419  1.00  0.00    -0.201 N 
ATOM      7  HN  UNL     1      12.990  -8.719  -3.928  1.00  0.00     0.183 HD
HETATM    8  N   UNL     1      15.928  -8.186  -5.237  1.00  0.00    -0.176 N 
ATOM      9  HN  UNL     1      16.608  -7.432  -5.340  1.00  0.00     0.186 HD
ENDROOT
BRANCH   1  10
HETATM   10  N   UNL     1      17.390  -9.667  -6.358  1.00  0.00    -0.342 N 
ATOM     11  HN  UNL     1      17.380  -9.821  -7.366  1.00  0.00     0.167 HD
BRANCH  10  12
HETATM   12  C   UNL     1      18.662  -9.729  -5.661  1.00  0.00     0.035 A 
HETATM   13  C   UNL     1      19.075 -10.830  -4.919  1.00  0.00     0.061 A 
HETATM   14  C   UNL     1      20.301 -10.768  -4.271  1.00  0.00     0.066 A 
HETATM   15  C   UNL     1      21.065  -9.636  -4.404  1.00  0.00     0.061 A 
HETATM   16 CL   UNL     1      22.637  -9.533  -3.573  1.00  0.00    -0.082 Cl
HETATM   17  C   UNL     1      20.647  -8.552  -5.108  1.00  0.00     0.028 A 
HETATM   18  C   UNL     1      19.431  -8.588  -5.762  1.00  0.00     0.031 A 
BRANCH  14  19
HETATM   19  N   UNL     1      20.832 -11.865  -3.492  1.00  0.00    -0.282 N 
ATOM     20  HN  UNL     1      20.884 -11.779  -2.478  1.00  0.00     0.178 HD
BRANCH  19  21
HETATM   21  S   UNL     1      21.366 -13.276  -4.229  1.00  0.00     0.238 S 
HETATM   22  O   UNL     1      21.018 -13.333  -5.663  1.00  0.00    -0.205 OA
HETATM   23  O   UNL     1      22.837 -13.245  -4.105  1.00  0.00    -0.205 OA
BRANCH  21  24
HETATM   24  C   UNL     1      20.715 -14.703  -3.366  1.00  0.00     0.072 C 
HETATM   25  C   UNL     1      21.697 -15.210  -2.323  1.00  0.00     0.033 C 
HETATM   26  C   UNL     1      20.468 -15.769  -4.407  1.00  0.00     0.033 C 
HETATM   27  C   UNL     1      19.374 -14.318  -2.783  1.00  0.00     0.033 C 
ENDBRANCH  21  24
ENDBRANCH  19  21
ENDBRANCH  14  19
ENDBRANCH  10  12
ENDBRANCH   1  10
BRANCH   5  28
HETATM   28  N   UNL     1      14.400  -6.719  -4.147  1.00  0.00    -0.192 N 
ATOM     29  HN  UNL     1      14.575  -5.935  -4.774  1.00  0.00     0.184 HD
BRANCH  28  30
HETATM   30  C   UNL     1      13.812  -6.396  -2.861  1.00  0.00     0.049 A 
HETATM   31  C   UNL     1      14.771  -6.120  -1.898  1.00  0.00     0.033 A 
HETATM   32  C   UNL     1      14.375  -5.776  -0.611  1.00  0.00     0.039 A 
HETATM   33  C   UNL     1      13.031  -5.686  -0.312  1.00  0.00     0.069 A 
HETATM   34  C   UNL     1      12.089  -5.942  -1.279  1.00  0.00     0.039 A 
HETATM   35  C   UNL     1      12.479  -6.297  -2.579  1.00  0.00     0.033 A 
BRANCH  33  36
HETATM   36  O   UNL     1      12.584  -5.319   0.991  1.00  0.00    -0.349 OA
BRANCH  36  37
HETATM   37  C   UNL     1      12.076  -4.012   1.137  1.00  0.00     0.206 C 
BRANCH  37  38
HETATM   38  C   UNL     1      13.242  -3.018   1.318  1.00  0.00     0.299 C 
BRANCH  38  39
HETATM   39  N   UNL     1      13.970  -3.293   2.241  1.00  0.00     0.090 N 
HETATM   40  C   UNL     1      15.164  -2.869   2.029  1.00  0.00     0.272 C 
HETATM   41  C   UNL     1      15.375  -1.528   2.919  1.00  0.00     0.032 C 
HETATM   42  C   UNL     1      14.672  -1.676   3.948  1.00  0.00     0.032 C 
HETATM   43  C   UNL     1      13.538  -2.643   3.538  1.00  0.00     0.272 C 
ENDBRANCH  38  39
ENDBRANCH  37  38
ENDBRANCH  36  37
ENDBRANCH  33  36
ENDBRANCH  28  30
ENDBRANCH   5  28
TORSDOF 11
ENDMDL
MODEL 17
REMARK VINA RESULT:    -7.271      3.917      9.495
REMARK INTER + INTRA:         -13.902
REMARK INTER:                 -12.917
REMARK INTRA:                  -0.985
REMARK UNBOUND:                -1.955
REMARK  11 active torsions:
REMARK  status: ('A' for Active; 'I' for Inactive)
REMARK    1  A    between atoms: C_1  and  O_39 
REMARK    2  A    between atoms: C_2  and  C_16 
REMARK    3  A    between atoms: C_2  and  N_32 
REMARK    4  A    between atoms: C_6  and  N_35 
REMARK    5  A    between atoms: C_7  and  N_35 
REMARK    6  A    between atoms: C_12  and  N_30 
REMARK    7  A    between atoms: C_13  and  N_30 
REMARK    8  A    between atoms: C_16  and  O_39 
REMARK    9  A    between atoms: C_22  and  N_37 
REMARK   10  A    between atoms: C_23  and  S_42 
REMARK   11  A    between atoms: N_37  and  S_42 
ROOT
HETATM    1  C   UNL     1       8.127  -8.431  -2.624  1.00  0.00     0.128 A 
HETATM    2  C   UNL     1       6.591 -10.251  -3.570  1.00  0.00     0.054 C 
HETATM    3  C   UNL     1       7.791  -9.299  -3.651  1.00  0.00    -0.001 A 
HETATM    4  C   UNL     1       8.642  -9.334  -4.752  1.00  0.00     0.116 A 
HETATM    5  C   UNL     1       9.912  -7.703  -3.793  1.00  0.00     0.684 A 
HETATM    6  N   UNL     1       9.681  -8.522  -4.800  1.00  0.00    -0.201 N 
ATOM      7  HN  UNL     1      10.301  -8.528  -5.610  1.00  0.00     0.183 HD
HETATM    8  N   UNL     1       9.154  -7.604  -2.702  1.00  0.00    -0.176 N 
ATOM      9  HN  UNL     1       9.355  -6.925  -1.967  1.00  0.00     0.186 HD
ENDROOT
BRANCH   1  10
HETATM   10  N   UNL     1       7.277  -8.371  -1.488  1.00  0.00    -0.342 N 
ATOM     11  HN  UNL     1       6.274  -8.504  -1.623  1.00  0.00     0.167 HD
BRANCH  10  12
HETATM   12  C   UNL     1       7.768  -8.130  -0.144  1.00  0.00     0.035 A 
HETATM   13  C   UNL     1       7.646  -9.050   0.892  1.00  0.00     0.061 A 
HETATM   14  C   UNL     1       8.129  -8.702   2.145  1.00  0.00     0.066 A 
HETATM   15  C   UNL     1       8.724  -7.476   2.310  1.00  0.00     0.061 A 
HETATM   16 CL   UNL     1       9.343  -7.006   3.913  1.00  0.00    -0.082 Cl
HETATM   17  C   UNL     1       8.818  -6.570   1.303  1.00  0.00     0.028 A 
HETATM   18  C   UNL     1       8.345  -6.892   0.046  1.00  0.00     0.031 A 
BRANCH  14  19
HETATM   19  N   UNL     1       8.071  -9.592   3.283  1.00  0.00    -0.282 N 
ATOM     20  HN  UNL     1       8.811 -10.281   3.418  1.00  0.00     0.178 HD
BRANCH  19  21
HETATM   21  S   UNL     1       6.809  -9.512   4.387  1.00  0.00     0.238 S 
HETATM   22  O   UNL     1       7.280  -9.334   5.775  1.00  0.00    -0.205 OA
HETATM   23  O   UNL     1       6.032  -8.317   3.999  1.00  0.00    -0.205 OA
BRANCH  21  24
HETATM   24  C   UNL     1       5.782 -10.972   4.253  1.00  0.00     0.072 C 
HETATM   25  C   UNL     1       5.593 -11.638   5.606  1.00  0.00     0.033 C 
HETATM   26  C   UNL     1       6.484 -11.916   3.305  1.00  0.00     0.033 C 
HETATM   27  C   UNL     1       4.479 -10.563   3.604  1.00  0.00     0.033 C 
ENDBRANCH  21  24
ENDBRANCH  19  21
ENDBRANCH  14  19
ENDBRANCH  10  12
ENDBRANCH   1  10
BRANCH   5  28
HETATM   28  N   UNL     1      11.063  -6.898  -3.939  1.00  0.00    -0.192 N 
ATOM     29  HN  UNL     1      11.237  -6.521  -4.871  1.00  0.00     0.184 HD
BRANCH  28  30
HETATM   30  C   UNL     1      12.026  -6.546  -2.913  1.00  0.00     0.049 A 
HETATM   31  C   UNL     1      13.309  -6.404  -3.421  1.00  0.00     0.033 A 
HETATM   32  C   UNL     1      14.352  -6.054  -2.572  1.00  0.00     0.039 A 
HETATM   33  C   UNL     1      14.095  -5.822  -1.236  1.00  0.00     0.069 A 
HETATM   34  C   UNL     1      12.816  -5.946  -0.746  1.00  0.00     0.039 A 
HETATM   35  C   UNL     1      11.758  -6.307  -1.595  1.00  0.00     0.033 A 
BRANCH  33  36
HETATM   36  O   UNL     1      15.132  -5.443  -0.335  1.00  0.00    -0.349 OA
BRANCH  36  37
HETATM   37  C   UNL     1      14.726  -4.863   0.883  1.00  0.00     0.206 C 
BRANCH  37  38
HETATM   38  C   UNL     1      15.562  -3.595   1.161  1.00  0.00     0.299 C 
BRANCH  38  39
HETATM   39  N   UNL     1      14.892  -2.617   1.388  1.00  0.00     0.090 N 
HETATM   40  C   UNL     1      13.700  -2.945   1.739  1.00  0.00     0.272 C 
HETATM   41  C   UNL     1      13.596  -2.771   3.349  1.00  0.00     0.032 C 
HETATM   42  C   UNL     1      14.365  -1.826   3.650  1.00  0.00     0.032 C 
HETATM   43  C   UNL     1      15.435  -1.793   2.536  1.00  0.00     0.272 C 
ENDBRANCH  38  39
ENDBRANCH  37  38
ENDBRANCH  36  37
ENDBRANCH  33  36
ENDBRANCH  28  30
ENDBRANCH   5  28
TORSDOF 11
ENDMDL
MODEL 18
REMARK VINA RESULT:    -7.260      1.429      2.072
REMARK INTER + INTRA:         -13.884
REMARK INTER:                 -11.974
REMARK INTRA:                  -1.910
REMARK UNBOUND:                -1.955
REMARK  11 active torsions:
REMARK  status: ('A' for Active; 'I' for Inactive)
REMARK    1  A    between atoms: C_1  and  O_39 
REMARK    2  A    between atoms: C_2  and  C_16 
REMARK    3  A    between atoms: C_2  and  N_32 
REMARK    4  A    between atoms: C_6  and  N_35 
REMARK    5  A    between atoms: C_7  and  N_35 
REMARK    6  A    between atoms: C_12  and  N_30 
REMARK    7  A    between atoms: C_13  and  N_30 
REMARK    8  A    between atoms: C_16  and  O_39 
REMARK    9  A    between atoms: C_22  and  N_37 
REMARK   10  A    between atoms: C_23  and  S_42 
REMARK   11  A    between atoms: N_37  and  S_42 
ROOT
HETATM    1  C   UNL     1      12.887  -6.605  -0.820  1.00  0.00     0.128 A 
HETATM    2  C   UNL     1      15.171  -5.457  -0.627  1.00  0.00     0.054 C 
HETATM    3  C   UNL     1      13.679  -5.596  -0.295  1.00  0.00    -0.001 A 
HETATM    4  C   UNL     1      13.082  -4.738   0.624  1.00  0.00     0.116 A 
HETATM    5  C   UNL     1      11.112  -5.850   0.345  1.00  0.00     0.684 A 
HETATM    6  N   UNL     1      11.803  -4.881   0.914  1.00  0.00    -0.201 N 
ATOM      7  HN  UNL     1      11.351  -4.248   1.574  1.00  0.00     0.183 HD
HETATM    8  N   UNL     1      11.601  -6.715  -0.542  1.00  0.00    -0.176 N 
ATOM      9  HN  UNL     1      11.013  -7.423  -0.982  1.00  0.00     0.186 HD
ENDROOT
BRANCH   1  10
HETATM   10  N   UNL     1      13.468  -7.495  -1.763  1.00  0.00    -0.342 N 
ATOM     11  HN  UNL     1      14.002  -8.292  -1.414  1.00  0.00     0.167 HD
BRANCH  10  12
HETATM   12  C   UNL     1      13.338  -7.324  -3.198  1.00  0.00     0.035 A 
HETATM   13  C   UNL     1      12.115  -7.297  -3.858  1.00  0.00     0.061 A 
HETATM   14  C   UNL     1      12.112  -7.154  -5.239  1.00  0.00     0.066 A 
HETATM   15  C   UNL     1      13.311  -7.025  -5.895  1.00  0.00     0.061 A 
HETATM   16 CL   UNL     1      13.329  -6.850  -7.667  1.00  0.00    -0.082 Cl
HETATM   17  C   UNL     1      14.505  -7.078  -5.250  1.00  0.00     0.028 A 
HETATM   18  C   UNL     1      14.535  -7.219  -3.876  1.00  0.00     0.031 A 
BRANCH  14  19
HETATM   19  N   UNL     1      10.895  -7.093  -6.018  1.00  0.00    -0.282 N 
ATOM     20  HN  UNL     1      10.504  -7.952  -6.402  1.00  0.00     0.178 HD
BRANCH  19  21
HETATM   21  S   UNL     1      10.116  -5.633  -6.301  1.00  0.00     0.238 S 
HETATM   22  O   UNL     1      11.004  -4.470  -6.101  1.00  0.00    -0.205 OA
HETATM   23  O   UNL     1       9.716  -5.678  -7.722  1.00  0.00    -0.205 OA
BRANCH  21  24
HETATM   24  C   UNL     1       8.663  -5.502  -5.266  1.00  0.00     0.072 C 
HETATM   25  C   UNL     1       7.514  -4.842  -6.010  1.00  0.00     0.033 C 
HETATM   26  C   UNL     1       9.052  -4.667  -4.068  1.00  0.00     0.033 C 
HETATM   27  C   UNL     1       8.327  -6.888  -4.763  1.00  0.00     0.033 C 
ENDBRANCH  21  24
ENDBRANCH  19  21
ENDBRANCH  14  19
ENDBRANCH  10  12
ENDBRANCH   1  10
BRANCH   5  28
HETATM   28  N   UNL     1       9.759  -5.925   0.747  1.00  0.00    -0.192 N 
ATOM     29  HN  UNL     1       9.174  -5.122   0.517  1.00  0.00     0.184 HD
BRANCH  28  30
HETATM   30  C   UNL     1       9.110  -7.016   1.449  1.00  0.00     0.049 A 
HETATM   31  C   UNL     1       9.535  -7.121   2.765  1.00  0.00     0.033 A 
HETATM   32  C   UNL     1       9.000  -8.107   3.585  1.00  0.00     0.039 A 
HETATM   33  C   UNL     1       8.030  -8.953   3.089  1.00  0.00     0.069 A 
HETATM   34  C   UNL     1       7.601  -8.827   1.789  1.00  0.00     0.039 A 
HETATM   35  C   UNL     1       8.141  -7.839   0.952  1.00  0.00     0.033 A 
BRANCH  33  36
HETATM   36  O   UNL     1       7.442  -9.966   3.902  1.00  0.00    -0.349 OA
BRANCH  36  37
HETATM   37  C   UNL     1       6.082 -10.252   3.665  1.00  0.00     0.206 C 
BRANCH  37  38
HETATM   38  C   UNL     1       5.247  -9.873   4.907  1.00  0.00     0.299 C 
BRANCH  38  39
HETATM   39  N   UNL     1       4.884  -8.722   4.910  1.00  0.00     0.090 N 
HETATM   40  C   UNL     1       4.397  -8.388   3.769  1.00  0.00     0.272 C 
HETATM   41  C   UNL     1       2.780  -8.372   3.909  1.00  0.00     0.032 C 
HETATM   42  C   UNL     1       2.534  -8.038   5.093  1.00  0.00     0.032 C 
HETATM   43  C   UNL     1       3.776  -8.463   5.909  1.00  0.00     0.272 C 
ENDBRANCH  38  39
ENDBRANCH  37  38
ENDBRANCH  36  37
ENDBRANCH  33  36
ENDBRANCH  28  30
ENDBRANCH   5  28
TORSDOF 11
ENDMDL
MODEL 19
REMARK VINA RESULT:    -7.240      4.840     10.473
REMARK INTER + INTRA:         -13.851
REMARK INTER:                 -12.029
REMARK INTRA:                  -1.822
REMARK UNBOUND:                -1.955
REMARK  11 active torsions:
REMARK  status: ('A' for Active; 'I' for Inactive)
REMARK    1  A    between atoms: C_1  and  O_39 
REMARK    2  A    between atoms: C_2  and  C_16 
REMARK    3  A    between atoms: C_2  and  N_32 
REMARK    4  A    between atoms: C_6  and  N_35 
REMARK    5  A    between atoms: C_7  and  N_35 
REMARK    6  A    between atoms: C_12  and  N_30 
REMARK    7  A    between atoms: C_13  and  N_30 
REMARK    8  A    between atoms: C_16  and  O_39 
REMARK    9  A    between atoms: C_22  and  N_37 
REMARK   10  A    between atoms: C_23  and  S_42 
REMARK   11  A    between atoms: N_37  and  S_42 
ROOT
HETATM    1  C   UNL     1       7.221  -9.410   1.876  1.00  0.00     0.128 A 
HETATM    2  C   UNL     1       5.734 -11.390   1.216  1.00  0.00     0.054 C 
HETATM    3  C   UNL     1       6.498 -10.094   0.912  1.00  0.00    -0.001 A 
HETATM    4  C   UNL     1       6.549  -9.599  -0.387  1.00  0.00     0.116 A 
HETATM    5  C   UNL     1       7.862  -7.886   0.344  1.00  0.00     0.684 A 
HETATM    6  N   UNL     1       7.225  -8.494  -0.638  1.00  0.00    -0.201 N 
ATOM      7  HN  UNL     1       7.256  -8.113  -1.584  1.00  0.00     0.183 HD
HETATM    8  N   UNL     1       7.868  -8.289   1.613  1.00  0.00    -0.176 N 
ATOM      9  HN  UNL     1       8.346  -7.759   2.343  1.00  0.00     0.186 HD
ENDROOT
BRANCH   1  10
HETATM   10  N   UNL     1       7.187  -9.891   3.212  1.00  0.00    -0.342 N 
ATOM     11  HN  UNL     1       7.924 -10.525   3.520  1.00  0.00     0.167 HD
BRANCH  10  12
HETATM   12  C   UNL     1       6.151  -9.522   4.159  1.00  0.00     0.035 A 
HETATM   13  C   UNL     1       5.150  -8.600   3.878  1.00  0.00     0.061 A 
HETATM   14  C   UNL     1       4.226  -8.303   4.871  1.00  0.00     0.066 A 
HETATM   15  C   UNL     1       4.324  -8.944   6.081  1.00  0.00     0.061 A 
HETATM   16 CL   UNL     1       3.154  -8.571   7.371  1.00  0.00    -0.082 Cl
HETATM   17  C   UNL     1       5.319  -9.825   6.361  1.00  0.00     0.028 A 
HETATM   18  C   UNL     1       6.251 -10.137   5.390  1.00  0.00     0.031 A 
BRANCH  14  19
HETATM   19  N   UNL     1       3.134  -7.375   4.675  1.00  0.00    -0.282 N 
ATOM     20  HN  UNL     1       3.047  -6.567   5.290  1.00  0.00     0.178 HD
BRANCH  19  21
HETATM   21  S   UNL     1       2.008  -7.605   3.451  1.00  0.00     0.238 S 
HETATM   22  O   UNL     1       1.794  -9.032   3.138  1.00  0.00    -0.205 OA
HETATM   23  O   UNL     1       0.746  -7.046   3.978  1.00  0.00    -0.205 OA
BRANCH  21  24
HETATM   24  C   UNL     1       2.502  -6.706   1.985  1.00  0.00     0.072 C 
HETATM   25  C   UNL     1       3.239  -7.609   1.008  1.00  0.00     0.033 C 
HETATM   26  C   UNL     1       3.409  -5.588   2.441  1.00  0.00     0.033 C 
HETATM   27  C   UNL     1       1.264  -6.073   1.390  1.00  0.00     0.033 C 
ENDBRANCH  21  24
ENDBRANCH  19  21
ENDBRANCH  14  19
ENDBRANCH  10  12
ENDBRANCH   1  10
BRANCH   5  28
HETATM   28  N   UNL     1       8.572  -6.727  -0.042  1.00  0.00    -0.192 N 
ATOM     29  HN  UNL     1       8.017  -5.886  -0.197  1.00  0.00     0.184 HD
BRANCH  28  30
HETATM   30  C   UNL     1      10.003  -6.599  -0.243  1.00  0.00     0.049 A 
HETATM   31  C   UNL     1      10.666  -6.226   0.916  1.00  0.00     0.033 A 
HETATM   32  C   UNL     1      12.047  -6.074   0.902  1.00  0.00     0.039 A 
HETATM   33  C   UNL     1      12.748  -6.322  -0.261  1.00  0.00     0.069 A 
HETATM   34  C   UNL     1      12.083  -6.711  -1.399  1.00  0.00     0.039 A 
HETATM   35  C   UNL     1      10.688  -6.860  -1.396  1.00  0.00     0.033 A 
BRANCH  33  36
HETATM   36  O   UNL     1      14.167  -6.195  -0.314  1.00  0.00    -0.349 OA
BRANCH  36  37
HETATM   37  C   UNL     1      14.673  -4.909  -0.593  1.00  0.00     0.206 C 
BRANCH  37  38
HETATM   38  C   UNL     1      15.339  -4.326   0.672  1.00  0.00     0.299 C 
BRANCH  38  39
HETATM   39  N   UNL     1      15.077  -3.164   0.861  1.00  0.00     0.090 N 
HETATM   40  C   UNL     1      13.816  -2.998   1.048  1.00  0.00     0.272 C 
HETATM   41  C   UNL     1      13.578  -2.790   2.640  1.00  0.00     0.032 C 
HETATM   42  C   UNL     1      14.607  -2.218   3.076  1.00  0.00     0.032 C 
HETATM   43  C   UNL     1      15.742  -2.611   2.104  1.00  0.00     0.272 C 
ENDBRANCH  38  39
ENDBRANCH  37  38
ENDBRANCH  36  37
ENDBRANCH  33  36
ENDBRANCH  28  30
ENDBRANCH   5  28
TORSDOF 11
ENDMDL
MODEL 20
REMARK VINA RESULT:    -7.180      2.803      7.450
REMARK INTER + INTRA:         -13.752
REMARK INTER:                 -11.600
REMARK INTRA:                  -2.152
REMARK UNBOUND:                -1.955
REMARK  11 active torsions:
REMARK  status: ('A' for Active; 'I' for Inactive)
REMARK    1  A    between atoms: C_1  and  O_39 
REMARK    2  A    between atoms: C_2  and  C_16 
REMARK    3  A    between atoms: C_2  and  N_32 
REMARK    4  A    between atoms: C_6  and  N_35 
REMARK    5  A    between atoms: C_7  and  N_35 
REMARK    6  A    between atoms: C_12  and  N_30 
REMARK    7  A    between atoms: C_13  and  N_30 
REMARK    8  A    between atoms: C_16  and  O_39 
REMARK    9  A    between atoms: C_22  and  N_37 
REMARK   10  A    between atoms: C_23  and  S_42 
REMARK   11  A    between atoms: N_37  and  S_42 
ROOT
HETATM    1  C   UNL     1       8.073  -7.428   1.352  1.00  0.00     0.128 A 
HETATM    2  C   UNL     1       6.889  -8.618   3.288  1.00  0.00     0.054 C 
HETATM    3  C   UNL     1       8.049  -7.816   2.682  1.00  0.00    -0.001 A 
HETATM    4  C   UNL     1       9.097  -7.381   3.487  1.00  0.00     0.116 A 
HETATM    5  C   UNL     1      10.040  -6.375   1.673  1.00  0.00     0.684 A 
HETATM    6  N   UNL     1      10.078  -6.676   2.956  1.00  0.00    -0.201 N 
ATOM      7  HN  UNL     1      10.859  -6.366   3.534  1.00  0.00     0.183 HD
HETATM    8  N   UNL     1       9.078  -6.747   0.831  1.00  0.00    -0.176 N 
ATOM      9  HN  UNL     1       9.116  -6.520  -0.163  1.00  0.00     0.186 HD
ENDROOT
BRANCH   1  10
HETATM   10  N   UNL     1       7.018  -7.858   0.505  1.00  0.00    -0.342 N 
ATOM     11  HN  UNL     1       6.058  -7.760   0.836  1.00  0.00     0.167 HD
BRANCH  10  12
HETATM   12  C   UNL     1       7.241  -8.432  -0.809  1.00  0.00     0.035 A 
HETATM   13  C   UNL     1       8.116  -7.888  -1.743  1.00  0.00     0.061 A 
HETATM   14  C   UNL     1       8.230  -8.506  -2.980  1.00  0.00     0.066 A 
HETATM   15  C   UNL     1       7.494  -9.638  -3.227  1.00  0.00     0.061 A 
HETATM   16 CL   UNL     1       7.620 -10.442  -4.811  1.00  0.00    -0.082 Cl
HETATM   17  C   UNL     1       6.621 -10.152  -2.322  1.00  0.00     0.028 A 
HETATM   18  C   UNL     1       6.489  -9.555  -1.083  1.00  0.00     0.031 A 
BRANCH  14  19
HETATM   19  N   UNL     1       9.126  -8.034  -4.013  1.00  0.00    -0.282 N 
ATOM     20  HN  UNL     1      10.110  -8.299  -3.982  1.00  0.00     0.178 HD
BRANCH  19  21
HETATM   21  S   UNL     1       8.574  -7.059  -5.263  1.00  0.00     0.238 S 
HETATM   22  O   UNL     1       8.865  -7.627  -6.595  1.00  0.00    -0.205 OA
HETATM   23  O   UNL     1       7.108  -7.000  -5.089  1.00  0.00    -0.205 OA
BRANCH  21  24
HETATM   24  C   UNL     1       9.269  -5.417  -5.114  1.00  0.00     0.072 C 
HETATM   25  C   UNL     1       8.693  -4.477  -6.160  1.00  0.00     0.033 C 
HETATM   26  C   UNL     1      10.761  -5.553  -5.306  1.00  0.00     0.033 C 
HETATM   27  C   UNL     1       9.036  -4.943  -3.697  1.00  0.00     0.033 C 
ENDBRANCH  21  24
ENDBRANCH  19  21
ENDBRANCH  14  19
ENDBRANCH  10  12
ENDBRANCH   1  10
BRANCH   5  28
HETATM   28  N   UNL     1      11.128  -5.597   1.217  1.00  0.00    -0.192 N 
ATOM     29  HN  UNL     1      11.387  -4.798   1.795  1.00  0.00     0.184 HD
BRANCH  28  30
HETATM   30  C   UNL     1      11.918  -5.807   0.019  1.00  0.00     0.049 A 
HETATM   31  C   UNL     1      13.265  -5.551   0.225  1.00  0.00     0.033 A 
HETATM   32  C   UNL     1      14.166  -5.718  -0.820  1.00  0.00     0.039 A 
HETATM   33  C   UNL     1      13.714  -6.165  -2.045  1.00  0.00     0.069 A 
HETATM   34  C   UNL     1      12.379  -6.434  -2.233  1.00  0.00     0.039 A 
HETATM   35  C   UNL     1      11.462  -6.261  -1.186  1.00  0.00     0.033 A 
BRANCH  33  36
HETATM   36  O   UNL     1      14.608  -6.367  -3.137  1.00  0.00    -0.349 OA
BRANCH  36  37
HETATM   37  C   UNL     1      14.060  -6.951  -4.297  1.00  0.00     0.206 C 
BRANCH  37  38
HETATM   38  C   UNL     1      14.772  -8.288  -4.592  1.00  0.00     0.299 C 
BRANCH  38  39
HETATM   39  N   UNL     1      14.024  -9.161  -4.960  1.00  0.00     0.090 N 
HETATM   40  C   UNL     1      14.261 -10.263  -4.343  1.00  0.00     0.272 C 
HETATM   41  C   UNL     1      13.113 -10.449  -3.211  1.00  0.00     0.032 C 
HETATM   42  C   UNL     1      12.076  -9.914  -3.671  1.00  0.00     0.032 C 
HETATM   43  C   UNL     1      12.572  -8.844  -4.670  1.00  0.00     0.272 C 
ENDBRANCH  38  39
ENDBRANCH  37  38
ENDBRANCH  36  37
ENDBRANCH  33  36
ENDBRANCH  28  30
ENDBRANCH   5  28
TORSDOF 11
ENDMDL
