REMARK  7 active torsions:
REMARK  status: ('A' for Active; 'I' for Inactive)
REMARK    1  A    between atoms: C_1  and  O_7 
REMARK    2  A    between atoms: C_2  and  O_9 
REMARK    3  A    between atoms: C_3  and  O_19 
REMARK    4  A    between atoms: C_4  and  O_11 
REMARK    5  A    between atoms: C_5  and  C_6 
REMARK    6  A    between atoms: C_6  and  O_14 
REMARK    7  A    between atoms: O_14  and  S_15 
ROOT
HETATM    1  C   UNL     1      15.069   0.865  19.460  1.00  0.00     0.288 C 
HETATM    2  C   UNL     1      15.261   1.018  20.990  1.00  0.00     0.204 C 
HETATM    3  C   UNL     1      16.212  -0.071  21.524  1.00  0.00     0.183 C 
HETATM    4  C   UNL     1      15.768  -1.489  21.112  1.00  0.00     0.180 C 
HETATM    5  C   UNL     1      15.614  -1.467  19.570  1.00  0.00     0.181 C 
HETATM    6  O   UNL     1      14.704  -0.486  19.128  1.00  0.00    -0.349 OA
ENDROOT
BRANCH   5   7
HETATM    7  C   UNL     1      15.196  -2.809  19.020  1.00  0.00     0.227 C 
BRANCH   7   8
HETATM    8  O   UNL     1      16.228  -3.798  19.190  1.00  0.00    -0.254 OA
BRANCH   8   9
HETATM    9  S   UNL     1      16.089  -5.154  18.413  1.00  0.00     0.251 S 
HETATM   10  O   UNL     1      14.778  -5.775  18.731  1.00  0.00    -0.572 OA
HETATM   11  O   UNL     1      17.239  -5.891  18.921  1.00  0.00    -0.572 OA
HETATM   12  O   UNL     1      16.224  -4.805  16.985  1.00  0.00    -0.572 OA
ENDBRANCH   8   9
ENDBRANCH   7   8
ENDBRANCH   5   7
BRANCH   4  13
HETATM   13  O   UNL     1      14.542  -1.991  21.741  1.00  0.00    -0.390 OA
ATOM     14  HO  UNL     1      14.636  -2.004  22.686  1.00  0.00     0.210 HD
ENDBRANCH   4  13
BRANCH   3  15
HETATM   15  O   UNL     1      16.332   0.003  22.955  1.00  0.00    -0.390 OA
ATOM     16  HO  UNL     1      16.606   0.877  23.209  1.00  0.00     0.210 HD
ENDBRANCH   3  15
BRANCH   1  17
HETATM   17  O   UNL     1      14.025   1.724  19.035  1.00  0.00    -0.369 OA
ATOM     18  HO  UNL     1      14.266   2.616  19.254  1.00  0.00     0.212 HD
ENDBRANCH   1  17
BRANCH   2  19
HETATM   19  O   UNL     1      15.763   2.307  21.281  1.00  0.00    -0.388 OA
ATOM     20  HO  UNL     1      15.177   2.978  20.952  1.00  0.00     0.210 HD
ENDBRANCH   2  19
TORSDOF 7
