MODEL 1
REMARK VINA RESULT:    -6.243      0.000      0.000
REMARK INTER + INTRA:          -6.625
REMARK INTER:                  -6.608
REMARK INTRA:                  -0.017
REMARK UNBOUND:                -0.017
REMARK  1 active torsions:
REMARK  status: ('A' for Active; 'I' for Inactive)
REMARK    1  A    between atoms: C_4  and  C_8 
ROOT
HETATM    1  N   UNL     1       2.169  28.844  -6.595  1.00  0.00    -0.374 N 
ATOM      2  HN  UNL     1       2.334  28.379  -5.702  1.00  0.00     0.164 HD
HETATM    3  C   UNL     1       1.365  28.301  -7.527  1.00  0.00     0.105 A 
HETATM    4  C   UNL     1       1.116  28.883  -8.761  1.00  0.00     0.056 A 
HETATM    5  C   UNL     1       1.746  30.091  -9.035  1.00  0.00     0.021 A 
HETATM    6  C   UNL     1       2.563  30.671  -8.083  1.00  0.00     0.018 A 
HETATM    7  C   UNL     1       2.744  30.015  -6.884  1.00  0.00     0.087 A 
ENDROOT
BRANCH   4   8
HETATM    8  C   UNL     1       0.220  28.230  -9.757  1.00  0.00     0.210 C 
HETATM    9  O   UNL     1      -0.962  28.542  -9.852  1.00  0.00    -0.644 OA
HETATM   10  O   UNL     1       0.788  27.330 -10.522  1.00  0.00    -0.644 OA
ENDBRANCH   4   8
TORSDOF 1
ENDMDL
MODEL 2
REMARK VINA RESULT:    -5.885      2.794      3.969
REMARK INTER + INTRA:          -6.246
REMARK INTER:                  -6.219
REMARK INTRA:                  -0.026
REMARK UNBOUND:                -0.017
REMARK  1 active torsions:
REMARK  status: ('A' for Active; 'I' for Inactive)
REMARK    1  A    between atoms: C_4  and  C_8 
ROOT
HETATM    1  N   UNL     1       0.979  29.221 -11.136  1.00  0.00    -0.374 N 
ATOM      2  HN  UNL     1       1.825  29.527 -11.615  1.00  0.00     0.164 HD
HETATM    3  C   UNL     1       0.922  29.152  -9.793  1.00  0.00     0.105 A 
HETATM    4  C   UNL     1      -0.197  28.731  -9.091  1.00  0.00     0.056 A 
HETATM    5  C   UNL     1      -1.311  28.357  -9.832  1.00  0.00     0.021 A 
HETATM    6  C   UNL     1      -1.277  28.437 -11.212  1.00  0.00     0.018 A 
HETATM    7  C   UNL     1      -0.117  28.873 -11.816  1.00  0.00     0.087 A 
ENDROOT
BRANCH   4   8
HETATM    8  C   UNL     1      -0.197  28.669  -7.602  1.00  0.00     0.210 C 
HETATM    9  O   UNL     1       0.849  28.615  -6.965  1.00  0.00    -0.644 OA
HETATM   10  O   UNL     1      -1.380  28.699  -7.037  1.00  0.00    -0.644 OA
ENDBRANCH   4   8
TORSDOF 1
ENDMDL
MODEL 3
REMARK VINA RESULT:    -5.873      1.027      1.976
REMARK INTER + INTRA:          -6.233
REMARK INTER:                  -6.216
REMARK INTRA:                  -0.018
REMARK UNBOUND:                -0.017
REMARK  1 active torsions:
REMARK  status: ('A' for Active; 'I' for Inactive)
REMARK    1  A    between atoms: C_4  and  C_8 
ROOT
HETATM    1  N   UNL     1       2.013  30.381  -8.000  1.00  0.00    -0.374 N 
ATOM      2  HN  UNL     1       2.291  31.361  -7.948  1.00  0.00     0.164 HD
HETATM    3  C   UNL     1       1.259  29.921  -9.015  1.00  0.00     0.105 A 
HETATM    4  C   UNL     1       0.843  28.603  -9.128  1.00  0.00     0.056 A 
HETATM    5  C   UNL     1       1.230  27.724  -8.124  1.00  0.00     0.021 A 
HETATM    6  C   UNL     1       2.017  28.175  -7.081  1.00  0.00     0.018 A 
HETATM    7  C   UNL     1       2.383  29.505  -7.062  1.00  0.00     0.087 A 
ENDROOT
BRANCH   4   8
HETATM    8  C   UNL     1       0.003  28.153 -10.274  1.00  0.00     0.210 C 
HETATM    9  O   UNL     1       0.455  27.423 -11.149  1.00  0.00    -0.644 OA
HETATM   10  O   UNL     1      -1.239  28.573 -10.261  1.00  0.00    -0.644 OA
ENDBRANCH   4   8
TORSDOF 1
ENDMDL
MODEL 4
REMARK VINA RESULT:    -5.421      1.914      2.374
REMARK INTER + INTRA:          -5.755
REMARK INTER:                  -5.738
REMARK INTRA:                  -0.017
REMARK UNBOUND:                -0.017
REMARK  1 active torsions:
REMARK  status: ('A' for Active; 'I' for Inactive)
REMARK    1  A    between atoms: C_4  and  C_8 
ROOT
HETATM    1  N   UNL     1       4.536  29.016  -5.697  1.00  0.00    -0.374 N 
ATOM      2  HN  UNL     1       5.198  28.518  -5.102  1.00  0.00     0.164 HD
HETATM    3  C   UNL     1       3.423  28.417  -6.158  1.00  0.00     0.105 A 
HETATM    4  C   UNL     1       2.497  29.042  -6.979  1.00  0.00     0.056 A 
HETATM    5  C   UNL     1       2.752  30.359  -7.341  1.00  0.00     0.021 A 
HETATM    6  C   UNL     1       3.883  30.996  -6.864  1.00  0.00     0.018 A 
HETATM    7  C   UNL     1       4.741  30.289  -6.049  1.00  0.00     0.087 A 
ENDROOT
BRANCH   4   8
HETATM    8  C   UNL     1       1.284  28.324  -7.463  1.00  0.00     0.210 C 
HETATM    9  O   UNL     1       0.209  28.424  -6.883  1.00  0.00    -0.644 OA
HETATM   10  O   UNL     1       1.449  27.609  -8.549  1.00  0.00    -0.644 OA
ENDBRANCH   4   8
TORSDOF 1
ENDMDL
MODEL 5
REMARK VINA RESULT:    -5.409      2.196      2.452
REMARK INTER + INTRA:          -5.743
REMARK INTER:                  -5.722
REMARK INTRA:                  -0.021
REMARK UNBOUND:                -0.017
REMARK  1 active torsions:
REMARK  status: ('A' for Active; 'I' for Inactive)
REMARK    1  A    between atoms: C_4  and  C_8 
ROOT
HETATM    1  N   UNL     1      -0.273  28.795  -7.333  1.00  0.00    -0.374 N 
ATOM      2  HN  UNL     1      -0.702  29.186  -6.495  1.00  0.00     0.164 HD
HETATM    3  C   UNL     1      -0.825  28.972  -8.547  1.00  0.00     0.105 A 
HETATM    4  C   UNL     1      -0.291  28.453  -9.717  1.00  0.00     0.056 A 
HETATM    5  C   UNL     1       0.876  27.706  -9.610  1.00  0.00     0.021 A 
HETATM    6  C   UNL     1       1.466  27.528  -8.372  1.00  0.00     0.018 A 
HETATM    7  C   UNL     1       0.859  28.089  -7.268  1.00  0.00     0.087 A 
ENDROOT
BRANCH   4   8
HETATM    8  C   UNL     1      -0.952  28.676 -11.034  1.00  0.00     0.210 C 
HETATM    9  O   UNL     1      -2.140  28.424 -11.203  1.00  0.00    -0.644 OA
HETATM   10  O   UNL     1      -0.185  29.175 -11.972  1.00  0.00    -0.644 OA
ENDBRANCH   4   8
TORSDOF 1
ENDMDL
MODEL 6
REMARK VINA RESULT:    -5.105      3.421      4.331
REMARK INTER + INTRA:          -5.420
REMARK INTER:                  -5.399
REMARK INTRA:                  -0.022
REMARK UNBOUND:                -0.017
REMARK  1 active torsions:
REMARK  status: ('A' for Active; 'I' for Inactive)
REMARK    1  A    between atoms: C_4  and  C_8 
ROOT
HETATM    1  N   UNL     1       1.619  30.244  -9.197  1.00  0.00    -0.374 N 
ATOM      2  HN  UNL     1       1.398  30.794 -10.027  1.00  0.00     0.164 HD
HETATM    3  C   UNL     1       2.542  30.659  -8.310  1.00  0.00     0.105 A 
HETATM    4  C   UNL     1       2.890  29.946  -7.172  1.00  0.00     0.056 A 
HETATM    5  C   UNL     1       2.244  28.736  -6.956  1.00  0.00     0.021 A 
HETATM    6  C   UNL     1       1.281  28.301  -7.848  1.00  0.00     0.018 A 
HETATM    7  C   UNL     1       1.003  29.086  -8.948  1.00  0.00     0.087 A 
ENDROOT
BRANCH   4   8
HETATM    8  C   UNL     1       3.926  30.453  -6.229  1.00  0.00     0.210 C 
HETATM    9  O   UNL     1       3.900  31.606  -5.811  1.00  0.00    -0.644 OA
HETATM   10  O   UNL     1       4.838  29.582  -5.871  1.00  0.00    -0.644 OA
ENDBRANCH   4   8
TORSDOF 1
ENDMDL
MODEL 7
REMARK VINA RESULT:    -5.011      2.104      2.881
REMARK INTER + INTRA:          -5.321
REMARK INTER:                  -5.303
REMARK INTRA:                  -0.018
REMARK UNBOUND:                -0.017
REMARK  1 active torsions:
REMARK  status: ('A' for Active; 'I' for Inactive)
REMARK    1  A    between atoms: C_4  and  C_8 
ROOT
HETATM    1  N   UNL     1       3.893  31.025  -6.815  1.00  0.00    -0.374 N 
ATOM      2  HN  UNL     1       4.010  32.011  -7.046  1.00  0.00     0.164 HD
HETATM    3  C   UNL     1       2.802  30.341  -7.206  1.00  0.00     0.105 A 
HETATM    4  C   UNL     1       2.586  29.003  -6.910  1.00  0.00     0.056 A 
HETATM    5  C   UNL     1       3.558  28.351  -6.161  1.00  0.00     0.021 A 
HETATM    6  C   UNL     1       4.693  29.034  -5.764  1.00  0.00     0.018 A 
HETATM    7  C   UNL     1       4.817  30.362  -6.114  1.00  0.00     0.087 A 
ENDROOT
BRANCH   4   8
HETATM    8  C   UNL     1       1.354  28.300  -7.365  1.00  0.00     0.210 C 
HETATM    9  O   UNL     1       0.270  28.499  -6.828  1.00  0.00    -0.644 OA
HETATM   10  O   UNL     1       1.512  27.486  -8.380  1.00  0.00    -0.644 OA
ENDBRANCH   4   8
TORSDOF 1
ENDMDL
MODEL 8
REMARK VINA RESULT:    -4.982      2.852      3.909
REMARK INTER + INTRA:          -5.290
REMARK INTER:                  -5.264
REMARK INTRA:                  -0.026
REMARK UNBOUND:                -0.017
REMARK  1 active torsions:
REMARK  status: ('A' for Active; 'I' for Inactive)
REMARK    1  A    between atoms: C_4  and  C_8 
ROOT
HETATM    1  N   UNL     1       1.014  29.792 -10.300  1.00  0.00    -0.374 N 
ATOM      2  HN  UNL     1       0.940  30.555 -10.973  1.00  0.00     0.164 HD
HETATM    3  C   UNL     1       1.680  29.946  -9.141  1.00  0.00     0.105 A 
HETATM    4  C   UNL     1       1.822  28.939  -8.197  1.00  0.00     0.056 A 
HETATM    5  C   UNL     1       1.243  27.710  -8.484  1.00  0.00     0.021 A 
HETATM    6  C   UNL     1       0.541  27.539  -9.663  1.00  0.00     0.018 A 
HETATM    7  C   UNL     1       0.453  28.603 -10.535  1.00  0.00     0.087 A 
ENDROOT
BRANCH   4   8
HETATM    8  C   UNL     1       2.578  29.167  -6.933  1.00  0.00     0.210 C 
HETATM    9  O   UNL     1       3.054  28.233  -6.297  1.00  0.00    -0.644 OA
HETATM   10  O   UNL     1       2.711  30.421  -6.574  1.00  0.00    -0.644 OA
ENDBRANCH   4   8
TORSDOF 1
ENDMDL
MODEL 9
REMARK VINA RESULT:    -4.929      7.918      9.066
REMARK INTER + INTRA:          -5.234
REMARK INTER:                  -5.211
REMARK INTRA:                  -0.023
REMARK UNBOUND:                -0.017
REMARK  1 active torsions:
REMARK  status: ('A' for Active; 'I' for Inactive)
REMARK    1  A    between atoms: C_4  and  C_8 
ROOT
HETATM    1  N   UNL     1       0.441  20.783  -3.781  1.00  0.00    -0.374 N 
ATOM      2  HN  UNL     1       0.030  20.175  -4.489  1.00  0.00     0.164 HD
HETATM    3  C   UNL     1       1.035  21.943  -4.115  1.00  0.00     0.105 A 
HETATM    4  C   UNL     1       1.620  22.801  -3.196  1.00  0.00     0.056 A 
HETATM    5  C   UNL     1       1.588  22.421  -1.860  1.00  0.00     0.021 A 
HETATM    6  C   UNL     1       0.968  21.240  -1.496  1.00  0.00     0.018 A 
HETATM    7  C   UNL     1       0.411  20.458  -2.485  1.00  0.00     0.087 A 
ENDROOT
BRANCH   4   8
HETATM    8  C   UNL     1       2.269  24.070  -3.627  1.00  0.00     0.210 C 
HETATM    9  O   UNL     1       3.314  24.459  -3.118  1.00  0.00    -0.644 OA
HETATM   10  O   UNL     1       1.658  24.716  -4.591  1.00  0.00    -0.644 OA
ENDBRANCH   4   8
TORSDOF 1
ENDMDL
MODEL 10
REMARK VINA RESULT:    -4.914      3.542      4.376
REMARK INTER + INTRA:          -5.218
REMARK INTER:                  -5.191
REMARK INTRA:                  -0.027
REMARK UNBOUND:                -0.017
REMARK  1 active torsions:
REMARK  status: ('A' for Active; 'I' for Inactive)
REMARK    1  A    between atoms: C_4  and  C_8 
ROOT
HETATM    1  N   UNL     1       1.564  29.053  -7.707  1.00  0.00    -0.374 N 
ATOM      2  HN  UNL     1       0.736  28.506  -7.942  1.00  0.00     0.164 HD
HETATM    3  C   UNL     1       2.480  28.595  -6.833  1.00  0.00     0.105 A 
HETATM    4  C   UNL     1       3.616  29.301  -6.468  1.00  0.00     0.056 A 
HETATM    5  C   UNL     1       3.799  30.554  -7.041  1.00  0.00     0.021 A 
HETATM    6  C   UNL     1       2.877  31.035  -7.952  1.00  0.00     0.018 A 
HETATM    7  C   UNL     1       1.781  30.253  -8.253  1.00  0.00     0.087 A 
ENDROOT
BRANCH   4   8
HETATM    8  C   UNL     1       4.592  28.743  -5.491  1.00  0.00     0.210 C 
HETATM    9  O   UNL     1       5.557  29.396  -5.108  1.00  0.00    -0.644 OA
HETATM   10  O   UNL     1       4.331  27.532  -5.063  1.00  0.00    -0.644 OA
ENDBRANCH   4   8
TORSDOF 1
ENDMDL
MODEL 11
REMARK VINA RESULT:    -4.901      7.770      8.899
REMARK INTER + INTRA:          -5.204
REMARK INTER:                  -5.181
REMARK INTRA:                  -0.024
REMARK UNBOUND:                -0.017
REMARK  1 active torsions:
REMARK  status: ('A' for Active; 'I' for Inactive)
REMARK    1  A    between atoms: C_4  and  C_8 
ROOT
HETATM    1  N   UNL     1       1.010  21.300  -1.599  1.00  0.00    -0.374 N 
ATOM      2  HN  UNL     1       0.995  21.032  -0.616  1.00  0.00     0.164 HD
HETATM    3  C   UNL     1       1.592  22.445  -2.002  1.00  0.00     0.105 A 
HETATM    4  C   UNL     1       1.630  22.865  -3.323  1.00  0.00     0.056 A 
HETATM    5  C   UNL     1       1.022  22.050  -4.269  1.00  0.00     0.021 A 
HETATM    6  C   UNL     1       0.433  20.862  -3.876  1.00  0.00     0.018 A 
HETATM    7  C   UNL     1       0.452  20.531  -2.537  1.00  0.00     0.087 A 
ENDROOT
BRANCH   4   8
HETATM    8  C   UNL     1       2.285  24.147  -3.707  1.00  0.00     0.210 C 
HETATM    9  O   UNL     1       3.323  24.520  -3.171  1.00  0.00    -0.644 OA
HETATM   10  O   UNL     1       1.688  24.821  -4.660  1.00  0.00    -0.644 OA
ENDBRANCH   4   8
TORSDOF 1
ENDMDL
MODEL 12
REMARK VINA RESULT:    -4.811      8.344      9.398
REMARK INTER + INTRA:          -5.109
REMARK INTER:                  -5.082
REMARK INTRA:                  -0.027
REMARK UNBOUND:                -0.017
REMARK  1 active torsions:
REMARK  status: ('A' for Active; 'I' for Inactive)
REMARK    1  A    between atoms: C_4  and  C_8 
ROOT
HETATM    1  N   UNL     1       1.644  22.969  -1.784  1.00  0.00    -0.374 N 
ATOM      2  HN  UNL     1       1.914  23.899  -1.465  1.00  0.00     0.164 HD
HETATM    3  C   UNL     1       1.654  22.648  -3.091  1.00  0.00     0.105 A 
HETATM    4  C   UNL     1       1.284  21.404  -3.579  1.00  0.00     0.056 A 
HETATM    5  C   UNL     1       0.877  20.450  -2.654  1.00  0.00     0.021 A 
HETATM    6  C   UNL     1       0.875  20.758  -1.306  1.00  0.00     0.018 A 
HETATM    7  C   UNL     1       1.265  22.023  -0.920  1.00  0.00     0.087 A 
ENDROOT
BRANCH   4   8
HETATM    8  C   UNL     1       1.310  21.109  -5.040  1.00  0.00     0.210 C 
HETATM    9  O   UNL     1       0.743  20.125  -5.502  1.00  0.00    -0.644 OA
HETATM   10  O   UNL     1       1.956  21.978  -5.779  1.00  0.00    -0.644 OA
ENDBRANCH   4   8
TORSDOF 1
ENDMDL
MODEL 13
REMARK VINA RESULT:    -4.735      2.234      3.106
REMARK INTER + INTRA:          -5.029
REMARK INTER:                  -5.012
REMARK INTRA:                  -0.018
REMARK UNBOUND:                -0.017
REMARK  1 active torsions:
REMARK  status: ('A' for Active; 'I' for Inactive)
REMARK    1  A    between atoms: C_4  and  C_8 
ROOT
HETATM    1  N   UNL     1       0.950  29.213  -8.339  1.00  0.00    -0.374 N 
ATOM      2  HN  UNL     1       1.729  29.437  -7.721  1.00  0.00     0.164 HD
HETATM    3  C   UNL     1       1.098  29.217  -9.677  1.00  0.00     0.105 A 
HETATM    4  C   UNL     1       0.070  28.933 -10.564  1.00  0.00     0.056 A 
HETATM    5  C   UNL     1      -1.175  28.636 -10.024  1.00  0.00     0.021 A 
HETATM    6  C   UNL     1      -1.341  28.612  -8.652  1.00  0.00     0.018 A 
HETATM    7  C   UNL     1      -0.255  28.904  -7.854  1.00  0.00     0.087 A 
ENDROOT
BRANCH   4   8
HETATM    8  C   UNL     1       0.293  28.959 -12.037  1.00  0.00     0.210 C 
HETATM    9  O   UNL     1       0.883  28.050 -12.611  1.00  0.00    -0.644 OA
HETATM   10  O   UNL     1      -0.202  30.000 -12.664  1.00  0.00    -0.644 OA
ENDBRANCH   4   8
TORSDOF 1
ENDMDL
MODEL 14
REMARK VINA RESULT:    -4.717      8.457      9.484
REMARK INTER + INTRA:          -5.010
REMARK INTER:                  -4.990
REMARK INTRA:                  -0.019
REMARK UNBOUND:                -0.017
REMARK  1 active torsions:
REMARK  status: ('A' for Active; 'I' for Inactive)
REMARK    1  A    between atoms: C_4  and  C_8 
ROOT
HETATM    1  N   UNL     1       1.947  19.916  -2.555  1.00  0.00    -0.374 N 
ATOM      2  HN  UNL     1       2.132  18.985  -2.927  1.00  0.00     0.164 HD
HETATM    3  C   UNL     1       2.041  21.011  -3.333  1.00  0.00     0.105 A 
HETATM    4  C   UNL     1       1.813  22.300  -2.877  1.00  0.00     0.056 A 
HETATM    5  C   UNL     1       1.476  22.453  -1.538  1.00  0.00     0.021 A 
HETATM    6  C   UNL     1       1.360  21.339  -0.727  1.00  0.00     0.018 A 
HETATM    7  C   UNL     1       1.603  20.098  -1.277  1.00  0.00     0.087 A 
ENDROOT
BRANCH   4   8
HETATM    8  C   UNL     1       1.938  23.474  -3.786  1.00  0.00     0.210 C 
HETATM    9  O   UNL     1       1.000  24.243  -3.969  1.00  0.00    -0.644 OA
HETATM   10  O   UNL     1       3.113  23.631  -4.345  1.00  0.00    -0.644 OA
ENDBRANCH   4   8
TORSDOF 1
ENDMDL
MODEL 15
REMARK VINA RESULT:    -4.565     11.911     12.785
REMARK INTER + INTRA:          -4.849
REMARK INTER:                  -4.831
REMARK INTRA:                  -0.017
REMARK UNBOUND:                -0.017
REMARK  1 active torsions:
REMARK  status: ('A' for Active; 'I' for Inactive)
REMARK    1  A    between atoms: C_4  and  C_8 
ROOT
HETATM    1  N   UNL     1       6.956  20.270  -4.138  1.00  0.00    -0.374 N 
ATOM      2  HN  UNL     1       7.052  20.909  -4.928  1.00  0.00     0.164 HD
HETATM    3  C   UNL     1       5.975  19.349  -4.101  1.00  0.00     0.105 A 
HETATM    4  C   UNL     1       5.791  18.465  -3.048  1.00  0.00     0.056 A 
HETATM    5  C   UNL     1       6.673  18.554  -1.978  1.00  0.00     0.021 A 
HETATM    6  C   UNL     1       7.696  19.484  -2.007  1.00  0.00     0.018 A 
HETATM    7  C   UNL     1       7.798  20.315  -3.102  1.00  0.00     0.087 A 
ENDROOT
BRANCH   4   8
HETATM    8  C   UNL     1       4.681  17.470  -3.060  1.00  0.00     0.210 C 
HETATM    9  O   UNL     1       4.894  16.280  -3.263  1.00  0.00    -0.644 OA
HETATM   10  O   UNL     1       3.487  17.955  -2.818  1.00  0.00    -0.644 OA
ENDBRANCH   4   8
TORSDOF 1
ENDMDL
MODEL 16
REMARK VINA RESULT:    -4.542      9.047      9.981
REMARK INTER + INTRA:          -4.824
REMARK INTER:                  -4.803
REMARK INTRA:                  -0.021
REMARK UNBOUND:                -0.017
REMARK  1 active torsions:
REMARK  status: ('A' for Active; 'I' for Inactive)
REMARK    1  A    between atoms: C_4  and  C_8 
ROOT
HETATM    1  N   UNL     1       2.014  19.572  -1.344  1.00  0.00    -0.374 N 
ATOM      2  HN  UNL     1       2.272  18.664  -0.959  1.00  0.00     0.164 HD
HETATM    3  C   UNL     1       2.013  19.794  -2.671  1.00  0.00     0.105 A 
HETATM    4  C   UNL     1       1.684  21.011  -3.247  1.00  0.00     0.056 A 
HETATM    5  C   UNL     1       1.345  22.051  -2.391  1.00  0.00     0.021 A 
HETATM    6  C   UNL     1       1.325  21.838  -1.025  1.00  0.00     0.018 A 
HETATM    7  C   UNL     1       1.665  20.588  -0.550  1.00  0.00     0.087 A 
ENDROOT
BRANCH   4   8
HETATM    8  C   UNL     1       1.706  21.198  -4.726  1.00  0.00     0.210 C 
HETATM    9  O   UNL     1       2.263  22.162  -5.239  1.00  0.00    -0.644 OA
HETATM   10  O   UNL     1       1.115  20.257  -5.421  1.00  0.00    -0.644 OA
ENDBRANCH   4   8
TORSDOF 1
ENDMDL
MODEL 17
REMARK VINA RESULT:    -4.445      8.643      9.737
REMARK INTER + INTRA:          -4.722
REMARK INTER:                  -4.705
REMARK INTRA:                  -0.017
REMARK UNBOUND:                -0.017
REMARK  1 active torsions:
REMARK  status: ('A' for Active; 'I' for Inactive)
REMARK    1  A    between atoms: C_4  and  C_8 
ROOT
HETATM    1  N   UNL     1       2.052  19.326  -2.533  1.00  0.00    -0.374 N 
ATOM      2  HN  UNL     1       2.473  18.580  -1.980  1.00  0.00     0.164 HD
HETATM    3  C   UNL     1       2.804  20.136  -3.302  1.00  0.00     0.105 A 
HETATM    4  C   UNL     1       2.286  21.172  -4.063  1.00  0.00     0.056 A 
HETATM    5  C   UNL     1       0.912  21.375  -4.014  1.00  0.00     0.021 A 
HETATM    6  C   UNL     1       0.122  20.544  -3.242  1.00  0.00     0.018 A 
HETATM    7  C   UNL     1       0.733  19.537  -2.524  1.00  0.00     0.087 A 
ENDROOT
BRANCH   4   8
HETATM    8  C   UNL     1       3.171  22.040  -4.890  1.00  0.00     0.210 C 
HETATM    9  O   UNL     1       3.492  23.163  -4.518  1.00  0.00    -0.644 OA
HETATM   10  O   UNL     1       3.588  21.510  -6.015  1.00  0.00    -0.644 OA
ENDBRANCH   4   8
TORSDOF 1
ENDMDL
MODEL 18
REMARK VINA RESULT:    -4.368      8.269      8.783
REMARK INTER + INTRA:          -4.641
REMARK INTER:                  -4.624
REMARK INTRA:                  -0.017
REMARK UNBOUND:                -0.017
REMARK  1 active torsions:
REMARK  status: ('A' for Active; 'I' for Inactive)
REMARK    1  A    between atoms: C_4  and  C_8 
ROOT
HETATM    1  N   UNL     1       2.511  22.511  -3.603  1.00  0.00    -0.374 N 
ATOM      2  HN  UNL     1       3.009  23.133  -2.966  1.00  0.00     0.164 HD
HETATM    3  C   UNL     1       3.126  21.967  -4.669  1.00  0.00     0.105 A 
HETATM    4  C   UNL     1       2.495  21.126  -5.574  1.00  0.00     0.056 A 
HETATM    5  C   UNL     1       1.152  20.846  -5.355  1.00  0.00     0.021 A 
HETATM    6  C   UNL     1       0.508  21.384  -4.256  1.00  0.00     0.018 A 
HETATM    7  C   UNL     1       1.225  22.206  -3.412  1.00  0.00     0.087 A 
ENDROOT
BRANCH   4   8
HETATM    8  C   UNL     1       3.227  20.558  -6.740  1.00  0.00     0.210 C 
HETATM    9  O   UNL     1       3.289  21.156  -7.809  1.00  0.00    -0.644 OA
HETATM   10  O   UNL     1       3.808  19.401  -6.532  1.00  0.00    -0.644 OA
ENDBRANCH   4   8
TORSDOF 1
ENDMDL
MODEL 19
REMARK VINA RESULT:    -4.347      8.541      8.882
REMARK INTER + INTRA:          -4.618
REMARK INTER:                  -4.598
REMARK INTRA:                  -0.020
REMARK UNBOUND:                -0.017
REMARK  1 active torsions:
REMARK  status: ('A' for Active; 'I' for Inactive)
REMARK    1  A    between atoms: C_4  and  C_8 
ROOT
HETATM    1  N   UNL     1       2.359  20.537  -6.954  1.00  0.00    -0.374 N 
ATOM      2  HN  UNL     1       1.939  20.081  -7.764  1.00  0.00     0.164 HD
HETATM    3  C   UNL     1       1.605  20.972  -5.928  1.00  0.00     0.105 A 
HETATM    4  C   UNL     1       2.123  21.609  -4.810  1.00  0.00     0.056 A 
HETATM    5  C   UNL     1       3.498  21.806  -4.767  1.00  0.00     0.021 A 
HETATM    6  C   UNL     1       4.289  21.352  -5.806  1.00  0.00     0.018 A 
HETATM    7  C   UNL     1       3.679  20.725  -6.872  1.00  0.00     0.087 A 
ENDROOT
BRANCH   4   8
HETATM    8  C   UNL     1       1.236  22.074  -3.706  1.00  0.00     0.210 C 
HETATM    9  O   UNL     1       1.210  23.250  -3.362  1.00  0.00    -0.644 OA
HETATM   10  O   UNL     1       0.485  21.149  -3.159  1.00  0.00    -0.644 OA
ENDBRANCH   4   8
TORSDOF 1
ENDMDL
MODEL 20
REMARK VINA RESULT:    -4.324      9.692     10.624
REMARK INTER + INTRA:          -4.594
REMARK INTER:                  -4.572
REMARK INTRA:                  -0.022
REMARK UNBOUND:                -0.017
REMARK  1 active torsions:
REMARK  status: ('A' for Active; 'I' for Inactive)
REMARK    1  A    between atoms: C_4  and  C_8 
ROOT
HETATM    1  N   UNL     1       7.161  20.671  -4.292  1.00  0.00    -0.374 N 
ATOM      2  HN  UNL     1       7.958  21.306  -4.272  1.00  0.00     0.164 HD
HETATM    3  C   UNL     1       6.110  20.895  -5.102  1.00  0.00     0.105 A 
HETATM    4  C   UNL     1       4.995  20.071  -5.161  1.00  0.00     0.056 A 
HETATM    5  C   UNL     1       4.977  18.962  -4.325  1.00  0.00     0.021 A 
HETATM    6  C   UNL     1       6.055  18.708  -3.497  1.00  0.00     0.018 A 
HETATM    7  C   UNL     1       7.119  19.585  -3.515  1.00  0.00     0.087 A 
ENDROOT
BRANCH   4   8
HETATM    8  C   UNL     1       3.858  20.374  -6.075  1.00  0.00     0.210 C 
HETATM    9  O   UNL     1       3.339  19.500  -6.760  1.00  0.00    -0.644 OA
HETATM   10  O   UNL     1       3.450  21.620  -6.072  1.00  0.00    -0.644 OA
ENDBRANCH   4   8
TORSDOF 1
ENDMDL
