REMARK  6 active torsions:
REMARK  status: ('A' for Active; 'I' for Inactive)
REMARK    1  A    between atoms: C_2  and  N_29 
REMARK    2  A    between atoms: C_4  and  N_33 
REMARK    3  A    between atoms: C_8  and  C_18 
REMARK    4  A    between atoms: C_8  and  N_31 
REMARK    5  A    between atoms: C_9  and  C_18 
REMARK       I    between atoms: C_17  and  N_31 
REMARK       I    between atoms: C_17  and  N_29 
REMARK    6  A    between atoms: C_23  and  N_33 
ROOT
HETATM    1  C   UNL     1       6.736   1.221 -21.581  1.00  0.00     0.143 A 
HETATM    2  C   UNL     1       6.409   0.594 -22.770  1.00  0.00     0.077 A 
HETATM    3  C   UNL     1       5.070   0.456 -23.093  1.00  0.00     0.062 A 
HETATM    4  C   UNL     1       4.092   0.979 -22.259  1.00  0.00     0.041 A 
HETATM    5  C   UNL     1       3.454   2.193 -20.101  1.00  0.00     0.050 C 
HETATM    6  C   UNL     1       4.449   1.617 -21.070  1.00  0.00    -0.032 A 
HETATM    7  C   UNL     1       5.773   1.735 -20.740  1.00  0.00     0.053 A 
HETATM    8  F   UNL     1       8.027   1.344 -21.249  1.00  0.00    -0.204 F 
ENDROOT
BRANCH   4   9
HETATM    9  N   UNL     1       2.766   0.778 -22.650  1.00  0.00    -0.353 N 
ATOM     10  HN  UNL     1       2.493  -0.186 -22.842  1.00  0.00     0.166 HD
BRANCH   9  11
HETATM   11  C   UNL     1       1.780   1.736 -22.807  1.00  0.00     0.072 A 
HETATM   12  C   UNL     1       2.064   3.085 -22.981  1.00  0.00     0.035 A 
HETATM   13  C   UNL     1       1.028   3.983 -23.131  1.00  0.00     0.033 A 
HETATM   14  C   UNL     1      -0.295   3.536 -23.116  1.00  0.00     0.052 A 
HETATM   15  N   UNL     1      -1.336   4.397 -23.268  1.00  0.00    -0.351 N 
HETATM   16  C   UNL     1      -0.569   2.161 -22.942  1.00  0.00     0.100 A 
HETATM   17  C   UNL     1      -2.570   3.996 -23.272  1.00  0.00     0.186 A 
ATOM     18  HN  UNL     1      -1.140   5.391 -23.383  1.00  0.00     0.166 HD
HETATM   19  N   UNL     1      -2.923   2.693 -23.112  1.00  0.00    -0.314 N 
HETATM   20  C   UNL     1      -4.342   2.285 -23.108  1.00  0.00     0.160 C 
HETATM   21  C   UNL     1      -1.977   1.750 -22.942  1.00  0.00     0.263 A 
HETATM   22  O   UNL     1      -2.308   0.594 -22.784  1.00  0.00    -0.267 OA
HETATM   23  C   UNL     1       0.490   1.260 -22.794  1.00  0.00     0.161 A 
HETATM   24  F   UNL     1       0.306  -0.072 -22.641  1.00  0.00    -0.203 F 
ENDBRANCH   9  11
ENDBRANCH   4   9
BRANCH   2  25
HETATM   25  N   UNL     1       7.460   0.073 -23.548  1.00  0.00    -0.306 N 
HETATM   26  C   UNL     1       7.549   0.057 -24.898  1.00  0.00     0.320 C 
HETATM   27  O   UNL     1       6.674   0.527 -25.595  1.00  0.00    -0.247 OA
HETATM   28  N   UNL     1       8.646  -0.498 -25.460  1.00  0.00    -0.343 N 
ATOM     29  HN  UNL     1       9.363  -0.885 -24.847  1.00  0.00     0.164 HD
ATOM     30  HN  UNL     1       8.241  -0.338 -23.037  1.00  0.00     0.171 HD
BRANCH  28  31
HETATM   31  C   UNL     1       8.854  -0.570 -26.914  1.00  0.00     0.125 C 
BRANCH  31  32
HETATM   32  C   UNL     1      10.095   0.261 -27.242  1.00  0.00     0.028 C 
BRANCH  32  33
HETATM   33  C   UNL     1      10.369   0.383 -28.743  1.00  0.00    -0.050 C 
HETATM   34  C   UNL     1      10.966  -0.926 -29.253  1.00  0.00     0.014 C 
HETATM   35  C   UNL     1       9.099   0.706 -29.546  1.00  0.00     0.014 C 
HETATM   36  C   UNL     1      11.365   1.522 -28.925  1.00  0.00     0.014 C 
ENDBRANCH  32  33
ENDBRANCH  31  32
ENDBRANCH  28  31
ENDBRANCH   2  25
TORSDOF 6
