MODEL 1
REMARK VINA RESULT:    -8.922      0.000      0.000
REMARK INTER + INTRA:         -12.547
REMARK INTER:                 -11.530
REMARK INTRA:                  -1.017
REMARK UNBOUND:                -1.017
REMARK  5 active torsions:
REMARK  status: ('A' for Active; 'I' for Inactive)
REMARK       I    between atoms: N_1  and  C_23 
REMARK    1  A    between atoms: C_6  and  C_17 
REMARK    2  A    between atoms: C_9  and  N_29 
REMARK    3  A    between atoms: C_12  and  C_23 
REMARK       I    between atoms: N_15  and  C_17 
REMARK    4  A    between atoms: N_15  and  C_19 
REMARK    5  A    between atoms: C_19  and  C_26 
ROOT
HETATM    1  N   UNL     1      11.623   1.474  19.468  1.00  0.00    -0.345 N 
HETATM    2  C   UNL     1      10.341   0.519  21.297  1.00  0.00     0.173 C 
HETATM    3  C   UNL     1      11.361   0.237  20.190  1.00  0.00     0.155 C 
HETATM    4  C   UNL     1      12.141   2.513  20.352  1.00  0.00     0.141 C 
HETATM    5  C   UNL     1      11.357   1.728  18.175  1.00  0.00     0.255 C 
HETATM    6  C   UNL     1      11.148   2.785  21.449  1.00  0.00     0.116 C 
HETATM    7  N   UNL     1      10.832   1.565  22.197  1.00  0.00    -0.267 NA
HETATM    8  O   UNL     1      11.516   2.835  17.695  1.00  0.00    -0.267 OA
ENDROOT
BRANCH   2   9
HETATM    9  C   UNL     1      10.097  -0.807  22.010  1.00  0.00     0.237 C 
HETATM   10  O   UNL     1       9.184  -1.544  21.647  1.00  0.00    -0.272 OA
HETATM   11  N   UNL     1      10.965  -1.113  22.982  1.00  0.00    -0.355 N 
ATOM     12  HN  UNL     1      11.786  -0.525  23.116  1.00  0.00     0.162 HD
BRANCH  11  13
HETATM   13  C   UNL     1      10.768  -2.252  23.843  1.00  0.00     0.168 C 
BRANCH  13  14
HETATM   14  C   UNL     1      10.013  -1.830  25.066  1.00  0.00     0.000 A 
HETATM   15  S   UNL     1       8.345  -2.097  25.165  1.00  0.00    -0.105 SA
HETATM   16  C   UNL     1       8.240  -1.321  26.665  1.00  0.00     0.050 A 
HETATM   17  C   UNL     1       9.436  -0.873  27.093  1.00  0.00     0.008 A 
HETATM   18  C   UNL     1      10.482  -1.157  26.181  1.00  0.00     0.017 A 
ENDBRANCH  13  14
ENDBRANCH  11  13
ENDBRANCH   2   9
BRANCH   7  19
HETATM   19  C   UNL     1      10.105   1.800  23.379  1.00  0.00     0.013 A 
HETATM   20  C   UNL     1      10.734   2.379  24.465  1.00  0.00     0.025 A 
HETATM   21  C   UNL     1      10.037   2.617  25.634  1.00  0.00     0.027 A 
HETATM   22  C   UNL     1       8.699   2.272  25.725  1.00  0.00     0.055 A 
HETATM   23  C   UNL     1       8.051   1.711  24.640  1.00  0.00     0.057 A 
HETATM   24 CL   UNL     1       7.882   2.516  27.233  1.00  0.00    -0.083 Cl
HETATM   25 CL   UNL     1       6.342   1.332  24.715  1.00  0.00    -0.082 Cl
HETATM   26  C   UNL     1       8.739   1.462  23.463  1.00  0.00     0.049 A 
ENDBRANCH   7  19
BRANCH   5  27
HETATM   27  C   UNL     1      10.790   0.627  17.331  1.00  0.00     0.047 A 
HETATM   28  C   UNL     1      11.537  -0.469  16.931  1.00  0.00     0.020 A 
HETATM   29  C   UNL     1      10.975  -1.404  16.077  1.00  0.00     0.018 A 
HETATM   30  C   UNL     1       9.679  -1.209  15.654  1.00  0.00     0.087 A 
HETATM   31  N   UNL     1       8.925  -0.170  16.048  1.00  0.00    -0.374 N 
HETATM   32  C   UNL     1       9.489   0.722  16.872  1.00  0.00     0.104 A 
ATOM     33  HN  UNL     1       7.961  -0.064  15.732  1.00  0.00     0.164 HD
ENDBRANCH   5  27
TORSDOF 5
ENDMDL
MODEL 2
REMARK VINA RESULT:    -7.726      3.499      7.047
REMARK INTER + INTRA:         -11.002
REMARK INTER:                 -10.167
REMARK INTRA:                  -0.834
REMARK UNBOUND:                -1.017
REMARK  5 active torsions:
REMARK  status: ('A' for Active; 'I' for Inactive)
REMARK       I    between atoms: N_1  and  C_23 
REMARK    1  A    between atoms: C_6  and  C_17 
REMARK    2  A    between atoms: C_9  and  N_29 
REMARK    3  A    between atoms: C_12  and  C_23 
REMARK       I    between atoms: N_15  and  C_17 
REMARK    4  A    between atoms: N_15  and  C_19 
REMARK    5  A    between atoms: C_19  and  C_26 
ROOT
HETATM    1  N   UNL     1       8.145  -0.027  24.952  1.00  0.00    -0.345 N 
HETATM    2  C   UNL     1      10.382   0.565  24.213  1.00  0.00     0.173 C 
HETATM    3  C   UNL     1       9.125  -0.252  23.899  1.00  0.00     0.155 C 
HETATM    4  C   UNL     1       7.792   1.384  25.066  1.00  0.00     0.141 C 
HETATM    5  C   UNL     1       7.657  -0.940  25.810  1.00  0.00     0.255 C 
HETATM    6  C   UNL     1       9.026   2.192  25.362  1.00  0.00     0.116 C 
HETATM    7  N   UNL     1      10.056   1.987  24.340  1.00  0.00    -0.267 NA
HETATM    8  O   UNL     1       6.920  -0.625  26.727  1.00  0.00    -0.267 OA
ENDROOT
BRANCH   2   9
HETATM    9  C   UNL     1      11.374   0.284  23.088  1.00  0.00     0.237 C 
HETATM   10  O   UNL     1      12.515  -0.086  23.350  1.00  0.00    -0.272 OA
HETATM   11  N   UNL     1      10.894   0.410  21.845  1.00  0.00    -0.355 N 
ATOM     12  HN  UNL     1       9.896   0.566  21.712  1.00  0.00     0.162 HD
BRANCH  11  13
HETATM   13  C   UNL     1      11.752   0.331  20.690  1.00  0.00     0.168 C 
BRANCH  13  14
HETATM   14  C   UNL     1      10.919   0.353  19.446  1.00  0.00     0.000 A 
HETATM   15  S   UNL     1      11.281   1.444  18.203  1.00  0.00    -0.105 SA
HETATM   16  C   UNL     1       9.946   0.951  17.288  1.00  0.00     0.050 A 
HETATM   17  C   UNL     1       9.241  -0.022  17.897  1.00  0.00     0.008 A 
HETATM   18  C   UNL     1       9.786  -0.387  19.152  1.00  0.00     0.017 A 
ENDBRANCH  13  14
ENDBRANCH  11  13
ENDBRANCH   2   9
BRANCH   7  19
HETATM   19  C   UNL     1      11.128   2.895  24.429  1.00  0.00     0.013 A 
HETATM   20  C   UNL     1      11.789   3.055  25.632  1.00  0.00     0.025 A 
HETATM   21  C   UNL     1      12.843   3.943  25.739  1.00  0.00     0.027 A 
HETATM   22  C   UNL     1      13.241   4.681  24.638  1.00  0.00     0.055 A 
HETATM   23  C   UNL     1      12.603   4.515  23.423  1.00  0.00     0.057 A 
HETATM   24 CL   UNL     1      14.515   5.838  24.834  1.00  0.00    -0.083 Cl
HETATM   25 CL   UNL     1      13.139   5.391  22.003  1.00  0.00    -0.082 Cl
HETATM   26  C   UNL     1      11.541   3.633  23.301  1.00  0.00     0.049 A 
ENDBRANCH   7  19
BRANCH   5  27
HETATM   27  C   UNL     1       8.090  -2.366  25.662  1.00  0.00     0.047 A 
HETATM   28  C   UNL     1       7.729  -3.149  24.577  1.00  0.00     0.020 A 
HETATM   29  C   UNL     1       8.089  -4.486  24.549  1.00  0.00     0.018 A 
HETATM   30  C   UNL     1       8.805  -4.994  25.610  1.00  0.00     0.087 A 
HETATM   31  N   UNL     1       9.190  -4.251  26.660  1.00  0.00    -0.374 N 
HETATM   32  C   UNL     1       8.829  -2.962  26.668  1.00  0.00     0.104 A 
ATOM     33  HN  UNL     1       9.736  -4.653  27.423  1.00  0.00     0.164 HD
ENDBRANCH   5  27
TORSDOF 5
ENDMDL
MODEL 3
REMARK VINA RESULT:    -7.699      3.390      7.112
REMARK INTER + INTRA:         -10.966
REMARK INTER:                 -10.136
REMARK INTRA:                  -0.830
REMARK UNBOUND:                -1.017
REMARK  5 active torsions:
REMARK  status: ('A' for Active; 'I' for Inactive)
REMARK       I    between atoms: N_1  and  C_23 
REMARK    1  A    between atoms: C_6  and  C_17 
REMARK    2  A    between atoms: C_9  and  N_29 
REMARK    3  A    between atoms: C_12  and  C_23 
REMARK       I    between atoms: N_15  and  C_17 
REMARK    4  A    between atoms: N_15  and  C_19 
REMARK    5  A    between atoms: C_19  and  C_26 
ROOT
HETATM    1  N   UNL     1       8.174  -0.003  24.906  1.00  0.00    -0.345 N 
HETATM    2  C   UNL     1      10.396   0.516  24.071  1.00  0.00     0.173 C 
HETATM    3  C   UNL     1       9.119  -0.296  23.837  1.00  0.00     0.155 C 
HETATM    4  C   UNL     1       7.845   1.417  24.957  1.00  0.00     0.141 C 
HETATM    5  C   UNL     1       7.700  -0.863  25.824  1.00  0.00     0.255 C 
HETATM    6  C   UNL     1       9.099   2.220  25.175  1.00  0.00     0.116 C 
HETATM    7  N   UNL     1      10.094   1.947  24.135  1.00  0.00    -0.267 NA
HETATM    8  O   UNL     1       6.996  -0.490  26.745  1.00  0.00    -0.267 OA
ENDROOT
BRANCH   2   9
HETATM    9  C   UNL     1      11.349   0.163  22.933  1.00  0.00     0.237 C 
HETATM   10  O   UNL     1      12.478  -0.254  23.180  1.00  0.00    -0.272 OA
HETATM   11  N   UNL     1      10.849   0.281  21.698  1.00  0.00    -0.355 N 
ATOM     12  HN  UNL     1       9.856   0.480  21.582  1.00  0.00     0.162 HD
BRANCH  11  13
HETATM   13  C   UNL     1      11.677   0.136  20.527  1.00  0.00     0.168 C 
BRANCH  13  14
HETATM   14  C   UNL     1      10.825   0.220  19.298  1.00  0.00     0.000 A 
HETATM   15  S   UNL     1      11.181   1.360  18.099  1.00  0.00    -0.105 SA
HETATM   16  C   UNL     1       9.827   0.922  17.184  1.00  0.00     0.050 A 
HETATM   17  C   UNL     1       9.119  -0.068  17.762  1.00  0.00     0.008 A 
HETATM   18  C   UNL     1       9.679  -0.493  18.991  1.00  0.00     0.017 A 
ENDBRANCH  13  14
ENDBRANCH  11  13
ENDBRANCH   2   9
BRANCH   7  19
HETATM   19  C   UNL     1      11.181   2.841  24.145  1.00  0.00     0.013 A 
HETATM   20  C   UNL     1      11.446   3.609  23.027  1.00  0.00     0.025 A 
HETATM   21  C   UNL     1      12.510   4.491  23.018  1.00  0.00     0.027 A 
HETATM   22  C   UNL     1      13.321   4.609  24.134  1.00  0.00     0.055 A 
HETATM   23  C   UNL     1      13.055   3.864  25.268  1.00  0.00     0.057 A 
HETATM   24 CL   UNL     1      14.687   5.670  24.055  1.00  0.00    -0.083 Cl
HETATM   25 CL   UNL     1      14.030   4.051  26.712  1.00  0.00    -0.082 Cl
HETATM   26  C   UNL     1      11.996   2.971  25.289  1.00  0.00     0.049 A 
ENDBRANCH   7  19
BRANCH   5  27
HETATM   27  C   UNL     1       8.109  -2.302  25.736  1.00  0.00     0.047 A 
HETATM   28  C   UNL     1       7.738  -3.121  24.681  1.00  0.00     0.020 A 
HETATM   29  C   UNL     1       8.075  -4.464  24.710  1.00  0.00     0.018 A 
HETATM   30  C   UNL     1       8.776  -4.942  25.795  1.00  0.00     0.087 A 
HETATM   31  N   UNL     1       9.169  -4.164  26.816  1.00  0.00    -0.374 N 
HETATM   32  C   UNL     1       8.832  -2.869  26.769  1.00  0.00     0.104 A 
ATOM     33  HN  UNL     1       9.705  -4.544  27.597  1.00  0.00     0.164 HD
ENDBRANCH   5  27
TORSDOF 5
ENDMDL
MODEL 4
REMARK VINA RESULT:    -7.567      3.538      7.018
REMARK INTER + INTRA:         -10.796
REMARK INTER:                  -9.492
REMARK INTRA:                  -1.304
REMARK UNBOUND:                -1.017
REMARK  5 active torsions:
REMARK  status: ('A' for Active; 'I' for Inactive)
REMARK       I    between atoms: N_1  and  C_23 
REMARK    1  A    between atoms: C_6  and  C_17 
REMARK    2  A    between atoms: C_9  and  N_29 
REMARK    3  A    between atoms: C_12  and  C_23 
REMARK       I    between atoms: N_15  and  C_17 
REMARK    4  A    between atoms: N_15  and  C_19 
REMARK    5  A    between atoms: C_19  and  C_26 
ROOT
HETATM    1  N   UNL     1       8.123  -1.196  24.847  1.00  0.00    -0.345 N 
HETATM    2  C   UNL     1      10.371  -0.453  24.301  1.00  0.00     0.173 C 
HETATM    3  C   UNL     1       9.202  -1.351  23.882  1.00  0.00     0.155 C 
HETATM    4  C   UNL     1       7.669   0.188  24.928  1.00  0.00     0.141 C 
HETATM    5  C   UNL     1       7.626  -2.143  25.662  1.00  0.00     0.255 C 
HETATM    6  C   UNL     1       8.816   1.075  25.327  1.00  0.00     0.116 C 
HETATM    7  N   UNL     1       9.941   0.943  24.397  1.00  0.00    -0.267 NA
HETATM    8  O   UNL     1       6.795  -1.881  26.512  1.00  0.00    -0.267 OA
ENDROOT
BRANCH   2   9
HETATM    9  C   UNL     1      11.471  -0.662  23.265  1.00  0.00     0.237 C 
HETATM   10  O   UNL     1      12.625  -0.882  23.626  1.00  0.00    -0.272 OA
HETATM   11  N   UNL     1      11.077  -0.649  21.986  1.00  0.00    -0.355 N 
ATOM     12  HN  UNL     1      10.080  -0.619  21.775  1.00  0.00     0.162 HD
BRANCH  11  13
HETATM   13  C   UNL     1      12.024  -0.675  20.900  1.00  0.00     0.168 C 
BRANCH  13  14
HETATM   14  C   UNL     1      11.897   0.582  20.096  1.00  0.00     0.000 A 
HETATM   15  S   UNL     1      11.155   0.542  18.575  1.00  0.00    -0.105 SA
HETATM   16  C   UNL     1      11.471   2.181  18.302  1.00  0.00     0.050 A 
HETATM   17  C   UNL     1      12.117   2.756  19.335  1.00  0.00     0.008 A 
HETATM   18  C   UNL     1      12.376   1.847  20.390  1.00  0.00     0.017 A 
ENDBRANCH  13  14
ENDBRANCH  11  13
ENDBRANCH   2   9
BRANCH   7  19
HETATM   19  C   UNL     1      10.939   1.920  24.576  1.00  0.00     0.013 A 
HETATM   20  C   UNL     1      11.757   1.865  25.689  1.00  0.00     0.025 A 
HETATM   21  C   UNL     1      12.741   2.816  25.883  1.00  0.00     0.027 A 
HETATM   22  C   UNL     1      12.911   3.835  24.960  1.00  0.00     0.055 A 
HETATM   23  C   UNL     1      12.114   3.890  23.832  1.00  0.00     0.057 A 
HETATM   24 CL   UNL     1      14.103   5.049  25.279  1.00  0.00    -0.083 Cl
HETATM   25 CL   UNL     1      12.360   5.132  22.621  1.00  0.00    -0.082 Cl
HETATM   26  C   UNL     1      11.119   2.947  23.627  1.00  0.00     0.049 A 
ENDBRANCH   7  19
BRANCH   5  27
HETATM   27  C   UNL     1       8.164  -3.536  25.553  1.00  0.00     0.047 A 
HETATM   28  C   UNL     1       7.749  -4.424  24.573  1.00  0.00     0.020 A 
HETATM   29  C   UNL     1       8.221  -5.726  24.587  1.00  0.00     0.018 A 
HETATM   30  C   UNL     1       9.099  -6.094  25.583  1.00  0.00     0.087 A 
HETATM   31  N   UNL     1       9.538  -5.247  26.527  1.00  0.00    -0.374 N 
HETATM   32  C   UNL     1       9.067  -3.994  26.496  1.00  0.00     0.104 A 
ATOM     33  HN  UNL     1      10.204  -5.545  27.240  1.00  0.00     0.164 HD
ENDBRANCH   5  27
TORSDOF 5
ENDMDL
MODEL 5
REMARK VINA RESULT:    -7.234      3.011      5.715
REMARK INTER + INTRA:         -10.366
REMARK INTER:                  -9.385
REMARK INTRA:                  -0.981
REMARK UNBOUND:                -1.017
REMARK  5 active torsions:
REMARK  status: ('A' for Active; 'I' for Inactive)
REMARK       I    between atoms: N_1  and  C_23 
REMARK    1  A    between atoms: C_6  and  C_17 
REMARK    2  A    between atoms: C_9  and  N_29 
REMARK    3  A    between atoms: C_12  and  C_23 
REMARK       I    between atoms: N_15  and  C_17 
REMARK    4  A    between atoms: N_15  and  C_19 
REMARK    5  A    between atoms: C_19  and  C_26 
ROOT
HETATM    1  N   UNL     1      13.155   3.993  23.565  1.00  0.00    -0.345 N 
HETATM    2  C   UNL     1      11.529   2.232  23.173  1.00  0.00     0.173 C 
HETATM    3  C   UNL     1      12.904   2.786  22.790  1.00  0.00     0.155 C 
HETATM    4  C   UNL     1      13.120   3.728  24.999  1.00  0.00     0.141 C 
HETATM    5  C   UNL     1      13.311   5.241  23.089  1.00  0.00     0.255 C 
HETATM    6  C   UNL     1      11.775   3.172  25.378  1.00  0.00     0.116 C 
HETATM    7  N   UNL     1      11.462   1.963  24.611  1.00  0.00    -0.267 NA
HETATM    8  O   UNL     1      13.408   6.200  23.832  1.00  0.00    -0.267 OA
ENDROOT
BRANCH   2   9
HETATM    9  C   UNL     1      11.315   0.980  22.328  1.00  0.00     0.237 C 
HETATM   10  O   UNL     1      12.102   0.040  22.407  1.00  0.00    -0.272 OA
HETATM   11  N   UNL     1      10.210   0.969  21.573  1.00  0.00    -0.355 N 
ATOM     12  HN  UNL     1       9.527   1.718  21.683  1.00  0.00     0.162 HD
BRANCH  11  13
HETATM   13  C   UNL     1       9.960  -0.073  20.610  1.00  0.00     0.168 C 
BRANCH  13  14
HETATM   14  C   UNL     1      10.131   0.474  19.226  1.00  0.00     0.000 A 
HETATM   15  S   UNL     1       9.094  -0.026  17.985  1.00  0.00    -0.105 SA
HETATM   16  C   UNL     1       9.929   0.883  16.828  1.00  0.00     0.050 A 
HETATM   17  C   UNL     1      10.966   1.559  17.360  1.00  0.00     0.008 A 
HETATM   18  C   UNL     1      11.103   1.337  18.752  1.00  0.00     0.017 A 
ENDBRANCH  13  14
ENDBRANCH  11  13
ENDBRANCH   2   9
BRANCH   7  19
HETATM   19  C   UNL     1      10.338   1.265  25.091  1.00  0.00     0.013 A 
HETATM   20  C   UNL     1      10.514   0.169  25.914  1.00  0.00     0.025 A 
HETATM   21  C   UNL     1       9.423  -0.530  26.394  1.00  0.00     0.027 A 
HETATM   22  C   UNL     1       8.141  -0.135  26.049  1.00  0.00     0.055 A 
HETATM   23  C   UNL     1       7.949   0.972  25.244  1.00  0.00     0.057 A 
HETATM   24 CL   UNL     1       6.805  -1.083  26.609  1.00  0.00    -0.083 Cl
HETATM   25 CL   UNL     1       6.333   1.526  24.853  1.00  0.00    -0.082 Cl
HETATM   26  C   UNL     1       9.034   1.679  24.750  1.00  0.00     0.049 A 
ENDBRANCH   7  19
BRANCH   5  27
HETATM   27  C   UNL     1      13.299   5.449  21.606  1.00  0.00     0.047 A 
HETATM   28  C   UNL     1      12.137   5.711  20.897  1.00  0.00     0.020 A 
HETATM   29  C   UNL     1      12.185   5.803  19.516  1.00  0.00     0.018 A 
HETATM   30  C   UNL     1      13.400   5.631  18.890  1.00  0.00     0.087 A 
HETATM   31  N   UNL     1      14.544   5.403  19.555  1.00  0.00    -0.374 N 
HETATM   32  C   UNL     1      14.474   5.317  20.889  1.00  0.00     0.104 A 
ATOM     33  HN  UNL     1      15.432   5.300  19.063  1.00  0.00     0.164 HD
ENDBRANCH   5  27
TORSDOF 5
ENDMDL
MODEL 6
REMARK VINA RESULT:    -7.049      3.744      6.910
REMARK INTER + INTRA:         -10.126
REMARK INTER:                  -9.264
REMARK INTRA:                  -0.862
REMARK UNBOUND:                -1.017
REMARK  5 active torsions:
REMARK  status: ('A' for Active; 'I' for Inactive)
REMARK       I    between atoms: N_1  and  C_23 
REMARK    1  A    between atoms: C_6  and  C_17 
REMARK    2  A    between atoms: C_9  and  N_29 
REMARK    3  A    between atoms: C_12  and  C_23 
REMARK       I    between atoms: N_15  and  C_17 
REMARK    4  A    between atoms: N_15  and  C_19 
REMARK    5  A    between atoms: C_19  and  C_26 
ROOT
HETATM    1  N   UNL     1       8.299  -2.448  25.831  1.00  0.00    -0.345 N 
HETATM    2  C   UNL     1       9.829  -0.933  24.708  1.00  0.00     0.173 C 
HETATM    3  C   UNL     1       8.702  -1.953  24.523  1.00  0.00     0.155 C 
HETATM    4  C   UNL     1       7.840  -1.368  26.697  1.00  0.00     0.141 C 
HETATM    5  C   UNL     1       8.400  -3.710  26.284  1.00  0.00     0.255 C 
HETATM    6  C   UNL     1       8.940  -0.356  26.872  1.00  0.00     0.116 C 
HETATM    7  N   UNL     1       9.398   0.162  25.580  1.00  0.00    -0.267 NA
HETATM    8  O   UNL     1       8.134  -3.998  27.437  1.00  0.00    -0.267 OA
ENDROOT
BRANCH   2   9
HETATM    9  C   UNL     1      10.217  -0.457  23.311  1.00  0.00     0.237 C 
HETATM   10  O   UNL     1       9.530   0.380  22.731  1.00  0.00    -0.272 OA
HETATM   11  N   UNL     1      11.354  -0.962  22.819  1.00  0.00    -0.355 N 
ATOM     12  HN  UNL     1      11.948  -1.528  23.425  1.00  0.00     0.162 HD
BRANCH  11  13
HETATM   13  C   UNL     1      11.762  -0.727  21.458  1.00  0.00     0.168 C 
BRANCH  13  14
HETATM   14  C   UNL     1      11.781  -2.024  20.709  1.00  0.00     0.000 A 
HETATM   15  S   UNL     1      12.298  -2.064  19.098  1.00  0.00    -0.105 SA
HETATM   16  C   UNL     1      11.957  -3.715  18.958  1.00  0.00     0.050 A 
HETATM   17  C   UNL     1      11.469  -4.235  20.102  1.00  0.00     0.008 A 
HETATM   18  C   UNL     1      11.357  -3.271  21.134  1.00  0.00     0.017 A 
ENDBRANCH  13  14
ENDBRANCH  11  13
ENDBRANCH   2   9
BRANCH   7  19
HETATM   19  C   UNL     1      10.247   1.279  25.689  1.00  0.00     0.013 A 
HETATM   20  C   UNL     1       9.720   2.552  25.568  1.00  0.00     0.025 A 
HETATM   21  C   UNL     1      10.538   3.661  25.671  1.00  0.00     0.027 A 
HETATM   22  C   UNL     1      11.896   3.503  25.894  1.00  0.00     0.055 A 
HETATM   23  C   UNL     1      12.432   2.237  26.039  1.00  0.00     0.057 A 
HETATM   24 CL   UNL     1      12.896   4.915  25.940  1.00  0.00    -0.083 Cl
HETATM   25 CL   UNL     1      14.135   2.022  26.390  1.00  0.00    -0.082 Cl
HETATM   26  C   UNL     1      11.626   1.115  25.932  1.00  0.00     0.049 A 
ENDBRANCH   7  19
BRANCH   5  27
HETATM   27  C   UNL     1       8.916  -4.765  25.355  1.00  0.00     0.047 A 
HETATM   28  C   UNL     1      10.203  -5.273  25.441  1.00  0.00     0.020 A 
HETATM   29  C   UNL     1      10.643  -6.182  24.492  1.00  0.00     0.018 A 
HETATM   30  C   UNL     1       9.776  -6.554  23.489  1.00  0.00     0.087 A 
HETATM   31  N   UNL     1       8.516  -6.097  23.399  1.00  0.00    -0.374 N 
HETATM   32  C   UNL     1       8.112  -5.219  24.325  1.00  0.00     0.104 A 
ATOM     33  HN  UNL     1       7.891  -6.407  22.654  1.00  0.00     0.164 HD
ENDBRANCH   5  27
TORSDOF 5
ENDMDL
MODEL 7
REMARK VINA RESULT:    -7.047      3.863      6.910
REMARK INTER + INTRA:         -10.123
REMARK INTER:                  -8.762
REMARK INTRA:                  -1.361
REMARK UNBOUND:                -1.017
REMARK  5 active torsions:
REMARK  status: ('A' for Active; 'I' for Inactive)
REMARK       I    between atoms: N_1  and  C_23 
REMARK    1  A    between atoms: C_6  and  C_17 
REMARK    2  A    between atoms: C_9  and  N_29 
REMARK    3  A    between atoms: C_12  and  C_23 
REMARK       I    between atoms: N_15  and  C_17 
REMARK    4  A    between atoms: N_15  and  C_19 
REMARK    5  A    between atoms: C_19  and  C_26 
ROOT
HETATM    1  N   UNL     1       8.561  -2.356  25.855  1.00  0.00    -0.345 N 
HETATM    2  C   UNL     1      10.016  -0.828  24.651  1.00  0.00     0.173 C 
HETATM    3  C   UNL     1       8.879  -1.848  24.528  1.00  0.00     0.155 C 
HETATM    4  C   UNL     1       8.157  -1.284  26.759  1.00  0.00     0.141 C 
HETATM    5  C   UNL     1       8.691  -3.622  26.289  1.00  0.00     0.255 C 
HETATM    6  C   UNL     1       9.266  -0.274  26.873  1.00  0.00     0.116 C 
HETATM    7  N   UNL     1       9.640   0.257  25.559  1.00  0.00    -0.267 NA
HETATM    8  O   UNL     1       8.500  -3.922  27.453  1.00  0.00    -0.267 OA
ENDROOT
BRANCH   2   9
HETATM    9  C   UNL     1      10.313  -0.339  23.237  1.00  0.00     0.237 C 
HETATM   10  O   UNL     1       9.406   0.092  22.529  1.00  0.00    -0.272 OA
HETATM   11  N   UNL     1      11.600  -0.360  22.873  1.00  0.00    -0.355 N 
ATOM     12  HN  UNL     1      12.310  -0.582  23.571  1.00  0.00     0.162 HD
BRANCH  11  13
HETATM   13  C   UNL     1      12.011  -0.078  21.521  1.00  0.00     0.168 C 
BRANCH  13  14
HETATM   14  C   UNL     1      12.331   1.379  21.388  1.00  0.00     0.000 A 
HETATM   15  S   UNL     1      12.030   2.183  19.929  1.00  0.00    -0.105 SA
HETATM   16  C   UNL     1      12.693   3.627  20.508  1.00  0.00     0.050 A 
HETATM   17  C   UNL     1      13.129   3.516  21.778  1.00  0.00     0.008 A 
HETATM   18  C   UNL     1      12.929   2.219  22.311  1.00  0.00     0.017 A 
ENDBRANCH  13  14
ENDBRANCH  11  13
ENDBRANCH   2   9
BRANCH   7  19
HETATM   19  C   UNL     1      10.494   1.375  25.625  1.00  0.00     0.013 A 
HETATM   20  C   UNL     1       9.999   2.631  25.328  1.00  0.00     0.025 A 
HETATM   21  C   UNL     1      10.822   3.740  25.386  1.00  0.00     0.027 A 
HETATM   22  C   UNL     1      12.153   3.597  25.739  1.00  0.00     0.055 A 
HETATM   23  C   UNL     1      12.657   2.349  26.059  1.00  0.00     0.057 A 
HETATM   24 CL   UNL     1      13.168   5.000  25.725  1.00  0.00    -0.083 Cl
HETATM   25 CL   UNL     1      14.320   2.161  26.574  1.00  0.00    -0.082 Cl
HETATM   26  C   UNL     1      11.845   1.228  26.000  1.00  0.00     0.049 A 
ENDBRANCH   7  19
BRANCH   5  27
HETATM   27  C   UNL     1       9.147  -4.668  25.318  1.00  0.00     0.047 A 
HETATM   28  C   UNL     1      10.468  -5.080  25.229  1.00  0.00     0.020 A 
HETATM   29  C   UNL     1      10.835  -5.986  24.247  1.00  0.00     0.018 A 
HETATM   30  C   UNL     1       9.865  -6.451  23.388  1.00  0.00     0.087 A 
HETATM   31  N   UNL     1       8.574  -6.088  23.470  1.00  0.00    -0.374 N 
HETATM   32  C   UNL     1       8.242  -5.211  24.425  1.00  0.00     0.104 A 
ATOM     33  HN  UNL     1       7.875  -6.466  22.831  1.00  0.00     0.164 HD
ENDBRANCH   5  27
TORSDOF 5
ENDMDL
MODEL 8
REMARK VINA RESULT:    -7.020      3.453      6.880
REMARK INTER + INTRA:         -10.089
REMARK INTER:                  -9.059
REMARK INTRA:                  -1.029
REMARK UNBOUND:                -1.017
REMARK  5 active torsions:
REMARK  status: ('A' for Active; 'I' for Inactive)
REMARK       I    between atoms: N_1  and  C_23 
REMARK    1  A    between atoms: C_6  and  C_17 
REMARK    2  A    between atoms: C_9  and  N_29 
REMARK    3  A    between atoms: C_12  and  C_23 
REMARK       I    between atoms: N_15  and  C_17 
REMARK    4  A    between atoms: N_15  and  C_19 
REMARK    5  A    between atoms: C_19  and  C_26 
ROOT
HETATM    1  N   UNL     1       8.201  -1.309  24.839  1.00  0.00    -0.345 N 
HETATM    2  C   UNL     1      10.385  -0.450  24.210  1.00  0.00     0.173 C 
HETATM    3  C   UNL     1       9.226  -1.367  23.807  1.00  0.00     0.155 C 
HETATM    4  C   UNL     1       7.704   0.049  25.029  1.00  0.00     0.141 C 
HETATM    5  C   UNL     1       7.787  -2.320  25.624  1.00  0.00     0.255 C 
HETATM    6  C   UNL     1       8.841   0.956  25.414  1.00  0.00     0.116 C 
HETATM    7  N   UNL     1       9.912   0.921  24.414  1.00  0.00    -0.267 NA
HETATM    8  O   UNL     1       6.999  -2.140  26.534  1.00  0.00    -0.267 OA
ENDROOT
BRANCH   2   9
HETATM    9  C   UNL     1      11.428  -0.557  23.103  1.00  0.00     0.237 C 
HETATM   10  O   UNL     1      12.617  -0.684  23.385  1.00  0.00    -0.272 OA
HETATM   11  N   UNL     1      10.951  -0.562  21.853  1.00  0.00    -0.355 N 
ATOM     12  HN  UNL     1       9.943  -0.613  21.707  1.00  0.00     0.162 HD
BRANCH  11  13
HETATM   13  C   UNL     1      11.824  -0.499  20.708  1.00  0.00     0.168 C 
BRANCH  13  14
HETATM   14  C   UNL     1      11.795  -1.810  19.984  1.00  0.00     0.000 A 
HETATM   15  S   UNL     1      11.354  -3.222  20.807  1.00  0.00    -0.105 SA
HETATM   16  C   UNL     1      11.643  -4.186  19.448  1.00  0.00     0.050 A 
HETATM   17  C   UNL     1      12.057  -3.465  18.388  1.00  0.00     0.008 A 
HETATM   18  C   UNL     1      12.154  -2.081  18.675  1.00  0.00     0.017 A 
ENDBRANCH  13  14
ENDBRANCH  11  13
ENDBRANCH   2   9
BRANCH   7  19
HETATM   19  C   UNL     1      10.884   1.924  24.594  1.00  0.00     0.013 A 
HETATM   20  C   UNL     1      11.720   1.877  25.693  1.00  0.00     0.025 A 
HETATM   21  C   UNL     1      12.679   2.853  25.887  1.00  0.00     0.027 A 
HETATM   22  C   UNL     1      12.804   3.890  24.978  1.00  0.00     0.055 A 
HETATM   23  C   UNL     1      11.989   3.939  23.862  1.00  0.00     0.057 A 
HETATM   24 CL   UNL     1      13.966   5.134  25.298  1.00  0.00    -0.083 Cl
HETATM   25 CL   UNL     1      12.181   5.206  22.668  1.00  0.00    -0.082 Cl
HETATM   26  C   UNL     1      11.020   2.970  23.658  1.00  0.00     0.049 A 
ENDBRANCH   7  19
BRANCH   5  27
HETATM   27  C   UNL     1       8.367  -3.683  25.402  1.00  0.00     0.047 A 
HETATM   28  C   UNL     1       7.850  -4.574  24.474  1.00  0.00     0.020 A 
HETATM   29  C   UNL     1       8.379  -5.851  24.385  1.00  0.00     0.018 A 
HETATM   30  C   UNL     1       9.414  -6.192  25.229  1.00  0.00     0.087 A 
HETATM   31  N   UNL     1       9.950  -5.339  26.117  1.00  0.00    -0.374 N 
HETATM   32  C   UNL     1       9.422  -4.111  26.187  1.00  0.00     0.104 A 
ATOM     33  HN  UNL     1      10.729  -5.616  26.715  1.00  0.00     0.164 HD
ENDBRANCH   5  27
TORSDOF 5
ENDMDL
MODEL 9
REMARK VINA RESULT:    -6.978      2.683      4.746
REMARK INTER + INTRA:         -10.035
REMARK INTER:                  -8.666
REMARK INTRA:                  -1.370
REMARK UNBOUND:                -1.017
REMARK  5 active torsions:
REMARK  status: ('A' for Active; 'I' for Inactive)
REMARK       I    between atoms: N_1  and  C_23 
REMARK    1  A    between atoms: C_6  and  C_17 
REMARK    2  A    between atoms: C_9  and  N_29 
REMARK    3  A    between atoms: C_12  and  C_23 
REMARK       I    between atoms: N_15  and  C_17 
REMARK    4  A    between atoms: N_15  and  C_19 
REMARK    5  A    between atoms: C_19  and  C_26 
ROOT
HETATM    1  N   UNL     1      10.791   1.804  19.852  1.00  0.00    -0.345 N 
HETATM    2  C   UNL     1      10.935   1.009  22.143  1.00  0.00     0.173 C 
HETATM    3  C   UNL     1      10.505   2.164  21.234  1.00  0.00     0.155 C 
HETATM    4  C   UNL     1      10.091   0.587  19.457  1.00  0.00     0.141 C 
HETATM    5  C   UNL     1      11.654   2.414  19.021  1.00  0.00     0.255 C 
HETATM    6  C   UNL     1      10.501  -0.548  20.356  1.00  0.00     0.116 C 
HETATM    7  N   UNL     1      10.252  -0.229  21.765  1.00  0.00    -0.267 NA
HETATM    8  O   UNL     1      11.901   1.966  17.916  1.00  0.00    -0.267 OA
ENDROOT
BRANCH   2   9
HETATM    9  C   UNL     1      10.623   1.443  23.572  1.00  0.00     0.237 C 
HETATM   10  O   UNL     1      11.513   1.466  24.419  1.00  0.00    -0.272 OA
HETATM   11  N   UNL     1       9.365   1.839  23.798  1.00  0.00    -0.355 N 
ATOM     12  HN  UNL     1       8.728   1.942  23.008  1.00  0.00     0.162 HD
BRANCH  11  13
HETATM   13  C   UNL     1       8.886   2.125  25.127  1.00  0.00     0.168 C 
BRANCH  13  14
HETATM   14  C   UNL     1       8.337   0.874  25.740  1.00  0.00     0.000 A 
HETATM   15  S   UNL     1       9.340  -0.126  26.666  1.00  0.00    -0.105 SA
HETATM   16  C   UNL     1       8.112  -1.267  26.892  1.00  0.00     0.050 A 
HETATM   17  C   UNL     1       6.961  -0.904  26.291  1.00  0.00     0.008 A 
HETATM   18  C   UNL     1       7.068   0.336  25.615  1.00  0.00     0.017 A 
ENDBRANCH  13  14
ENDBRANCH  11  13
ENDBRANCH   2   9
BRANCH   7  19
HETATM   19  C   UNL     1      10.385  -1.335  22.625  1.00  0.00     0.013 A 
HETATM   20  C   UNL     1      11.644  -1.745  23.021  1.00  0.00     0.025 A 
HETATM   21  C   UNL     1      11.796  -2.830  23.864  1.00  0.00     0.027 A 
HETATM   22  C   UNL     1      10.681  -3.516  24.316  1.00  0.00     0.055 A 
HETATM   23  C   UNL     1       9.414  -3.104  23.946  1.00  0.00     0.057 A 
HETATM   24 CL   UNL     1      10.918  -4.915  25.309  1.00  0.00    -0.083 Cl
HETATM   25 CL   UNL     1       7.992  -3.919  24.563  1.00  0.00    -0.082 Cl
HETATM   26  C   UNL     1       9.248  -2.022  23.096  1.00  0.00     0.049 A 
ENDBRANCH   7  19
BRANCH   5  27
HETATM   27  C   UNL     1      12.370   3.638  19.503  1.00  0.00     0.047 A 
HETATM   28  C   UNL     1      11.985   4.920  19.142  1.00  0.00     0.020 A 
HETATM   29  C   UNL     1      12.747   6.002  19.551  1.00  0.00     0.018 A 
HETATM   30  C   UNL     1      13.870   5.763  20.313  1.00  0.00     0.087 A 
HETATM   31  N   UNL     1      14.249   4.533  20.698  1.00  0.00    -0.374 N 
HETATM   32  C   UNL     1      13.499   3.502  20.289  1.00  0.00     0.104 A 
ATOM     33  HN  UNL     1      15.075   4.390  21.279  1.00  0.00     0.164 HD
ENDBRANCH   5  27
TORSDOF 5
ENDMDL
MODEL 10
REMARK VINA RESULT:    -6.945      3.190      4.661
REMARK INTER + INTRA:          -9.992
REMARK INTER:                  -8.585
REMARK INTRA:                  -1.407
REMARK UNBOUND:                -1.017
REMARK  5 active torsions:
REMARK  status: ('A' for Active; 'I' for Inactive)
REMARK       I    between atoms: N_1  and  C_23 
REMARK    1  A    between atoms: C_6  and  C_17 
REMARK    2  A    between atoms: C_9  and  N_29 
REMARK    3  A    between atoms: C_12  and  C_23 
REMARK       I    between atoms: N_15  and  C_17 
REMARK    4  A    between atoms: N_15  and  C_19 
REMARK    5  A    between atoms: C_19  and  C_26 
ROOT
HETATM    1  N   UNL     1      13.024   3.974  23.379  1.00  0.00    -0.345 N 
HETATM    2  C   UNL     1      11.325   2.278  23.010  1.00  0.00     0.173 C 
HETATM    3  C   UNL     1      12.692   2.810  22.569  1.00  0.00     0.155 C 
HETATM    4  C   UNL     1      13.065   3.647  24.800  1.00  0.00     0.141 C 
HETATM    5  C   UNL     1      13.190   5.237  22.949  1.00  0.00     0.255 C 
HETATM    6  C   UNL     1      11.728   3.111  25.235  1.00  0.00     0.116 C 
HETATM    7  N   UNL     1      11.335   1.947  24.436  1.00  0.00    -0.267 NA
HETATM    8  O   UNL     1      13.359   6.160  23.725  1.00  0.00    -0.267 OA
ENDROOT
BRANCH   2   9
HETATM    9  C   UNL     1      11.025   1.071  22.126  1.00  0.00     0.237 C 
HETATM   10  O   UNL     1      10.208   1.164  21.212  1.00  0.00    -0.272 OA
HETATM   11  N   UNL     1      11.741  -0.029  22.380  1.00  0.00    -0.355 N 
ATOM     12  HN  UNL     1      12.509   0.022  23.049  1.00  0.00     0.162 HD
BRANCH  11  13
HETATM   13  C   UNL     1      11.457  -1.286  21.735  1.00  0.00     0.168 C 
BRANCH  13  14
HETATM   14  C   UNL     1      10.573  -2.113  22.616  1.00  0.00     0.000 A 
HETATM   15  S   UNL     1      11.182  -3.508  23.356  1.00  0.00    -0.105 SA
HETATM   16  C   UNL     1       9.679  -3.889  24.033  1.00  0.00     0.050 A 
HETATM   17  C   UNL     1       8.733  -2.982  23.718  1.00  0.00     0.008 A 
HETATM   18  C   UNL     1       9.228  -1.941  22.895  1.00  0.00     0.017 A 
ENDBRANCH  13  14
ENDBRANCH  11  13
ENDBRANCH   2   9
BRANCH   7  19
HETATM   19  C   UNL     1      10.220   1.260  24.952  1.00  0.00     0.013 A 
HETATM   20  C   UNL     1      10.410   0.224  25.847  1.00  0.00     0.025 A 
HETATM   21  C   UNL     1       9.328  -0.464  26.364  1.00  0.00     0.027 A 
HETATM   22  C   UNL     1       8.042  -0.118  25.983  1.00  0.00     0.055 A 
HETATM   23  C   UNL     1       7.836   0.930  25.105  1.00  0.00     0.057 A 
HETATM   24 CL   UNL     1       6.719  -1.054  26.594  1.00  0.00    -0.083 Cl
HETATM   25 CL   UNL     1       6.213   1.424  24.666  1.00  0.00    -0.082 Cl
HETATM   26  C   UNL     1       8.911   1.624  24.575  1.00  0.00     0.049 A 
ENDBRANCH   7  19
BRANCH   5  27
HETATM   27  C   UNL     1      13.097   5.511  21.479  1.00  0.00     0.047 A 
HETATM   28  C   UNL     1      11.905   5.842  20.854  1.00  0.00     0.020 A 
HETATM   29  C   UNL     1      11.875   5.994  19.478  1.00  0.00     0.018 A 
HETATM   30  C   UNL     1      13.044   5.812  18.772  1.00  0.00     0.087 A 
HETATM   31  N   UNL     1      14.217   5.517  19.356  1.00  0.00    -0.374 N 
HETATM   32  C   UNL     1      14.222   5.374  20.687  1.00  0.00     0.104 A 
ATOM     33  HN  UNL     1      15.070   5.407  18.808  1.00  0.00     0.164 HD
ENDBRANCH   5  27
TORSDOF 5
ENDMDL
MODEL 11
REMARK VINA RESULT:    -6.911      4.071      6.251
REMARK INTER + INTRA:          -9.948
REMARK INTER:                  -8.535
REMARK INTRA:                  -1.413
REMARK UNBOUND:                -1.017
REMARK  5 active torsions:
REMARK  status: ('A' for Active; 'I' for Inactive)
REMARK       I    between atoms: N_1  and  C_23 
REMARK    1  A    between atoms: C_6  and  C_17 
REMARK    2  A    between atoms: C_9  and  N_29 
REMARK    3  A    between atoms: C_12  and  C_23 
REMARK       I    between atoms: N_15  and  C_17 
REMARK    4  A    between atoms: N_15  and  C_19 
REMARK    5  A    between atoms: C_19  and  C_26 
ROOT
HETATM    1  N   UNL     1       9.787   0.798  21.297  1.00  0.00    -0.345 N 
HETATM    2  C   UNL     1      11.525   2.489  21.456  1.00  0.00     0.173 C 
HETATM    3  C   UNL     1      10.219   2.083  20.765  1.00  0.00     0.155 C 
HETATM    4  C   UNL     1       9.576   0.858  22.740  1.00  0.00     0.141 C 
HETATM    5  C   UNL     1       9.669  -0.358  20.622  1.00  0.00     0.255 C 
HETATM    6  C   UNL     1      10.853   1.268  23.422  1.00  0.00     0.116 C 
HETATM    7  N   UNL     1      11.344   2.550  22.908  1.00  0.00    -0.267 NA
HETATM    8  O   UNL     1       9.404  -1.404  21.187  1.00  0.00    -0.267 OA
ENDROOT
BRANCH   2   9
HETATM    9  C   UNL     1      11.935   3.830  20.855  1.00  0.00     0.237 C 
HETATM   10  O   UNL     1      11.157   4.780  20.879  1.00  0.00    -0.272 OA
HETATM   11  N   UNL     1      13.182   3.896  20.377  1.00  0.00    -0.355 N 
ATOM     12  HN  UNL     1      13.817   3.114  20.537  1.00  0.00     0.162 HD
BRANCH  11  13
HETATM   13  C   UNL     1      13.653   5.043  19.642  1.00  0.00     0.168 C 
BRANCH  13  14
HETATM   14  C   UNL     1      14.661   5.785  20.464  1.00  0.00     0.000 A 
HETATM   15  S   UNL     1      15.579   7.022  19.763  1.00  0.00    -0.105 SA
HETATM   16  C   UNL     1      16.465   7.264  21.183  1.00  0.00     0.050 A 
HETATM   17  C   UNL     1      16.077   6.437  22.174  1.00  0.00     0.008 A 
HETATM   18  C   UNL     1      15.030   5.568  21.780  1.00  0.00     0.017 A 
ENDBRANCH  13  14
ENDBRANCH  11  13
ENDBRANCH   2   9
BRANCH   7  19
HETATM   19  C   UNL     1      12.391   3.099  23.671  1.00  0.00     0.013 A 
HETATM   20  C   UNL     1      13.560   2.382  23.845  1.00  0.00     0.025 A 
HETATM   21  C   UNL     1      14.598   2.905  24.593  1.00  0.00     0.027 A 
HETATM   22  C   UNL     1      14.471   4.155  25.176  1.00  0.00     0.055 A 
HETATM   23  C   UNL     1      13.316   4.893  24.992  1.00  0.00     0.057 A 
HETATM   24 CL   UNL     1      15.764   4.740  26.167  1.00  0.00    -0.083 Cl
HETATM   25 CL   UNL     1      13.166   6.503  25.666  1.00  0.00    -0.082 Cl
HETATM   26  C   UNL     1      12.265   4.379  24.250  1.00  0.00     0.049 A 
ENDBRANCH   7  19
BRANCH   5  27
HETATM   27  C   UNL     1       9.938  -0.357  19.148  1.00  0.00     0.047 A 
HETATM   28  C   UNL     1      11.157  -0.742  18.610  1.00  0.00     0.020 A 
HETATM   29  C   UNL     1      11.366  -0.631  17.246  1.00  0.00     0.018 A 
HETATM   30  C   UNL     1      10.344  -0.140  16.464  1.00  0.00     0.087 A 
HETATM   31  N   UNL     1       9.146   0.215  16.956  1.00  0.00    -0.374 N 
HETATM   32  C   UNL     1       8.966   0.100  18.278  1.00  0.00     0.104 A 
ATOM     33  HN  UNL     1       8.402   0.557  16.348  1.00  0.00     0.164 HD
ENDBRANCH   5  27
TORSDOF 5
ENDMDL
MODEL 12
REMARK VINA RESULT:    -6.872      2.992      5.602
REMARK INTER + INTRA:          -9.898
REMARK INTER:                  -8.735
REMARK INTRA:                  -1.164
REMARK UNBOUND:                -1.017
REMARK  5 active torsions:
REMARK  status: ('A' for Active; 'I' for Inactive)
REMARK       I    between atoms: N_1  and  C_23 
REMARK    1  A    between atoms: C_6  and  C_17 
REMARK    2  A    between atoms: C_9  and  N_29 
REMARK    3  A    between atoms: C_12  and  C_23 
REMARK       I    between atoms: N_15  and  C_17 
REMARK    4  A    between atoms: N_15  and  C_19 
REMARK    5  A    between atoms: C_19  and  C_26 
ROOT
HETATM    1  N   UNL     1      13.459   3.169  22.325  1.00  0.00    -0.345 N 
HETATM    2  C   UNL     1      11.474   1.776  22.458  1.00  0.00     0.173 C 
HETATM    3  C   UNL     1      12.581   2.308  21.544  1.00  0.00     0.155 C 
HETATM    4  C   UNL     1      14.057   2.453  23.446  1.00  0.00     0.141 C 
HETATM    5  C   UNL     1      13.664   4.486  22.149  1.00  0.00     0.255 C 
HETATM    6  C   UNL     1      12.972   1.917  24.341  1.00  0.00     0.116 C 
HETATM    7  N   UNL     1      12.045   1.057  23.599  1.00  0.00    -0.267 NA
HETATM    8  O   UNL     1      14.337   5.138  22.927  1.00  0.00    -0.267 OA
ENDROOT
BRANCH   2   9
HETATM    9  C   UNL     1      10.583   0.892  21.590  1.00  0.00     0.237 C 
HETATM   10  O   UNL     1       9.394   1.168  21.446  1.00  0.00    -0.272 OA
HETATM   11  N   UNL     1      11.195  -0.127  20.977  1.00  0.00    -0.355 N 
ATOM     12  HN  UNL     1      12.211  -0.194  21.021  1.00  0.00     0.162 HD
BRANCH  11  13
HETATM   13  C   UNL     1      10.456  -1.132  20.256  1.00  0.00     0.168 C 
BRANCH  13  14
HETATM   14  C   UNL     1      10.542  -0.858  18.786  1.00  0.00     0.000 A 
HETATM   15  S   UNL     1       9.300  -0.009  18.010  1.00  0.00    -0.105 SA
HETATM   16  C   UNL     1      10.032  -0.187  16.495  1.00  0.00     0.050 A 
HETATM   17  C   UNL     1      11.194  -0.866  16.565  1.00  0.00     0.008 A 
HETATM   18  C   UNL     1      11.511  -1.267  17.886  1.00  0.00     0.017 A 
ENDBRANCH  13  14
ENDBRANCH  11  13
ENDBRANCH   2   9
BRANCH   7  19
HETATM   19  C   UNL     1      11.161   0.337  24.424  1.00  0.00     0.013 A 
HETATM   20  C   UNL     1      11.306  -1.032  24.550  1.00  0.00     0.025 A 
HETATM   21  C   UNL     1      10.447  -1.756  25.354  1.00  0.00     0.027 A 
HETATM   22  C   UNL     1       9.429  -1.111  26.038  1.00  0.00     0.055 A 
HETATM   23  C   UNL     1       9.286   0.260  25.938  1.00  0.00     0.057 A 
HETATM   24 CL   UNL     1       8.328  -2.065  26.974  1.00  0.00    -0.083 Cl
HETATM   25 CL   UNL     1       8.048   1.099  26.850  1.00  0.00    -0.082 Cl
HETATM   26  C   UNL     1      10.136   0.998  25.131  1.00  0.00     0.049 A 
ENDBRANCH   7  19
BRANCH   5  27
HETATM   27  C   UNL     1      12.989   5.169  20.999  1.00  0.00     0.047 A 
HETATM   28  C   UNL     1      11.709   5.695  21.088  1.00  0.00     0.020 A 
HETATM   29  C   UNL     1      11.112   6.232  19.960  1.00  0.00     0.018 A 
HETATM   30  C   UNL     1      11.819   6.227  18.778  1.00  0.00     0.087 A 
HETATM   31  N   UNL     1      13.069   5.749  18.672  1.00  0.00    -0.374 N 
HETATM   32  C   UNL     1      13.627   5.233  19.774  1.00  0.00     0.104 A 
ATOM     33  HN  UNL     1      13.575   5.777  17.786  1.00  0.00     0.164 HD
ENDBRANCH   5  27
TORSDOF 5
ENDMDL
MODEL 13
REMARK VINA RESULT:    -6.808      3.715      6.918
REMARK INTER + INTRA:          -9.815
REMARK INTER:                  -8.864
REMARK INTRA:                  -0.950
REMARK UNBOUND:                -1.017
REMARK  5 active torsions:
REMARK  status: ('A' for Active; 'I' for Inactive)
REMARK       I    between atoms: N_1  and  C_23 
REMARK    1  A    between atoms: C_6  and  C_17 
REMARK    2  A    between atoms: C_9  and  N_29 
REMARK    3  A    between atoms: C_12  and  C_23 
REMARK       I    between atoms: N_15  and  C_17 
REMARK    4  A    between atoms: N_15  and  C_19 
REMARK    5  A    between atoms: C_19  and  C_26 
ROOT
HETATM    1  N   UNL     1       8.212  -0.013  24.923  1.00  0.00    -0.345 N 
HETATM    2  C   UNL     1      10.497   0.450  24.240  1.00  0.00     0.173 C 
HETATM    3  C   UNL     1       9.227  -0.351  23.935  1.00  0.00     0.155 C 
HETATM    4  C   UNL     1       7.902   1.413  24.910  1.00  0.00     0.141 C 
HETATM    5  C   UNL     1       7.658  -0.839  25.828  1.00  0.00     0.255 C 
HETATM    6  C   UNL     1       9.149   2.205  25.196  1.00  0.00     0.116 C 
HETATM    7  N   UNL     1      10.214   1.887  24.240  1.00  0.00    -0.267 NA
HETATM    8  O   UNL     1       6.895  -0.429  26.684  1.00  0.00    -0.267 OA
ENDROOT
BRANCH   2   9
HETATM    9  C   UNL     1      11.525   0.051  23.186  1.00  0.00     0.237 C 
HETATM   10  O   UNL     1      12.717  -0.002  23.475  1.00  0.00    -0.272 OA
HETATM   11  N   UNL     1      11.030  -0.283  21.988  1.00  0.00    -0.355 N 
ATOM     12  HN  UNL     1      10.020  -0.366  21.874  1.00  0.00     0.162 HD
BRANCH  11  13
HETATM   13  C   UNL     1      11.886  -0.528  20.855  1.00  0.00     0.168 C 
BRANCH  13  14
HETATM   14  C   UNL     1      12.001  -2.003  20.624  1.00  0.00     0.000 A 
HETATM   15  S   UNL     1      13.322  -2.857  21.248  1.00  0.00    -0.105 SA
HETATM   16  C   UNL     1      12.812  -4.304  20.534  1.00  0.00     0.050 A 
HETATM   17  C   UNL     1      11.665  -4.155  19.843  1.00  0.00     0.008 A 
HETATM   18  C   UNL     1      11.174  -2.827  19.880  1.00  0.00     0.017 A 
ENDBRANCH  13  14
ENDBRANCH  11  13
ENDBRANCH   2   9
BRANCH   7  19
HETATM   19  C   UNL     1      11.311   2.766  24.305  1.00  0.00     0.013 A 
HETATM   20  C   UNL     1      11.562   3.626  23.252  1.00  0.00     0.025 A 
HETATM   21  C   UNL     1      12.635   4.495  23.297  1.00  0.00     0.027 A 
HETATM   22  C   UNL     1      13.471   4.507  24.402  1.00  0.00     0.055 A 
HETATM   23  C   UNL     1      13.220   3.668  25.471  1.00  0.00     0.057 A 
HETATM   24 CL   UNL     1      14.848   5.557  24.385  1.00  0.00    -0.083 Cl
HETATM   25 CL   UNL     1      14.226   3.719  26.904  1.00  0.00    -0.082 Cl
HETATM   26  C   UNL     1      12.151   2.787  25.438  1.00  0.00     0.049 A 
ENDBRANCH   7  19
BRANCH   5  27
HETATM   27  C   UNL     1       8.049  -2.285  25.812  1.00  0.00     0.047 A 
HETATM   28  C   UNL     1       7.674  -3.149  24.795  1.00  0.00     0.020 A 
HETATM   29  C   UNL     1       7.993  -4.494  24.890  1.00  0.00     0.018 A 
HETATM   30  C   UNL     1       8.683  -4.927  26.001  1.00  0.00     0.087 A 
HETATM   31  N   UNL     1       9.081  -4.105  26.986  1.00  0.00    -0.374 N 
HETATM   32  C   UNL     1       8.760  -2.810  26.875  1.00  0.00     0.104 A 
ATOM     33  HN  UNL     1       9.608  -4.454  27.787  1.00  0.00     0.164 HD
ENDBRANCH   5  27
TORSDOF 5
ENDMDL
MODEL 14
REMARK VINA RESULT:    -6.738      3.028      5.172
REMARK INTER + INTRA:          -9.725
REMARK INTER:                  -8.580
REMARK INTRA:                  -1.145
REMARK UNBOUND:                -1.017
REMARK  5 active torsions:
REMARK  status: ('A' for Active; 'I' for Inactive)
REMARK       I    between atoms: N_1  and  C_23 
REMARK    1  A    between atoms: C_6  and  C_17 
REMARK    2  A    between atoms: C_9  and  N_29 
REMARK    3  A    between atoms: C_12  and  C_23 
REMARK       I    between atoms: N_15  and  C_17 
REMARK    4  A    between atoms: N_15  and  C_19 
REMARK    5  A    between atoms: C_19  and  C_26 
ROOT
HETATM    1  N   UNL     1      10.611   1.164  19.882  1.00  0.00    -0.345 N 
HETATM    2  C   UNL     1      10.664   0.415  22.193  1.00  0.00     0.173 C 
HETATM    3  C   UNL     1      10.306   1.567  21.248  1.00  0.00     0.155 C 
HETATM    4  C   UNL     1       9.869  -0.030  19.495  1.00  0.00     0.141 C 
HETATM    5  C   UNL     1      11.520   1.718  19.060  1.00  0.00     0.255 C 
HETATM    6  C   UNL     1      10.208  -1.161  20.428  1.00  0.00     0.116 C 
HETATM    7  N   UNL     1       9.938  -0.801  21.823  1.00  0.00    -0.267 NA
HETATM    8  O   UNL     1      11.775   1.235  17.972  1.00  0.00    -0.267 OA
ENDROOT
BRANCH   2   9
HETATM    9  C   UNL     1      10.336   0.894  23.603  1.00  0.00     0.237 C 
HETATM   10  O   UNL     1       9.214   1.321  23.864  1.00  0.00    -0.272 OA
HETATM   11  N   UNL     1      11.313   0.755  24.507  1.00  0.00    -0.355 N 
ATOM     12  HN  UNL     1      12.158   0.247  24.249  1.00  0.00     0.162 HD
BRANCH  11  13
HETATM   13  C   UNL     1      11.202   1.305  25.834  1.00  0.00     0.168 C 
BRANCH  13  14
HETATM   14  C   UNL     1      11.938   2.608  25.899  1.00  0.00     0.000 A 
HETATM   15  S   UNL     1      11.079   4.066  25.887  1.00  0.00    -0.105 SA
HETATM   16  C   UNL     1      12.500   4.983  25.885  1.00  0.00     0.050 A 
HETATM   17  C   UNL     1      13.605   4.212  25.901  1.00  0.00     0.008 A 
HETATM   18  C   UNL     1      13.304   2.828  25.909  1.00  0.00     0.017 A 
ENDBRANCH  13  14
ENDBRANCH  11  13
ENDBRANCH   2   9
BRANCH   7  19
HETATM   19  C   UNL     1      10.002  -1.892  22.710  1.00  0.00     0.013 A 
HETATM   20  C   UNL     1      11.211  -2.525  22.928  1.00  0.00     0.025 A 
HETATM   21  C   UNL     1      11.294  -3.599  23.794  1.00  0.00     0.027 A 
HETATM   22  C   UNL     1      10.160  -4.051  24.448  1.00  0.00     0.055 A 
HETATM   23  C   UNL     1       8.947  -3.414  24.255  1.00  0.00     0.057 A 
HETATM   24 CL   UNL     1      10.292  -5.446  25.464  1.00  0.00    -0.083 Cl
HETATM   25 CL   UNL     1       7.517  -3.930  25.126  1.00  0.00    -0.082 Cl
HETATM   26  C   UNL     1       8.848  -2.340  23.385  1.00  0.00     0.049 A 
ENDBRANCH   7  19
BRANCH   5  27
HETATM   27  C   UNL     1      12.276   2.921  19.535  1.00  0.00     0.047 A 
HETATM   28  C   UNL     1      11.941   4.212  19.155  1.00  0.00     0.020 A 
HETATM   29  C   UNL     1      12.739   5.270  19.559  1.00  0.00     0.018 A 
HETATM   30  C   UNL     1      13.845   4.999  20.333  1.00  0.00     0.087 A 
HETATM   31  N   UNL     1      14.175   3.762  20.736  1.00  0.00    -0.374 N 
HETATM   32  C   UNL     1      13.392   2.754  20.333  1.00  0.00     0.104 A 
ATOM     33  HN  UNL     1      14.991   3.596  21.326  1.00  0.00     0.164 HD
ENDBRANCH   5  27
TORSDOF 5
ENDMDL
MODEL 15
REMARK VINA RESULT:    -6.734      4.148      5.792
REMARK INTER + INTRA:          -9.719
REMARK INTER:                  -8.300
REMARK INTRA:                  -1.419
REMARK UNBOUND:                -1.017
REMARK  5 active torsions:
REMARK  status: ('A' for Active; 'I' for Inactive)
REMARK       I    between atoms: N_1  and  C_23 
REMARK    1  A    between atoms: C_6  and  C_17 
REMARK    2  A    between atoms: C_9  and  N_29 
REMARK    3  A    between atoms: C_12  and  C_23 
REMARK       I    between atoms: N_15  and  C_17 
REMARK    4  A    between atoms: N_15  and  C_19 
REMARK    5  A    between atoms: C_19  and  C_26 
ROOT
HETATM    1  N   UNL     1      11.004   0.044  21.890  1.00  0.00    -0.345 N 
HETATM    2  C   UNL     1      10.993  -2.385  21.844  1.00  0.00     0.173 C 
HETATM    3  C   UNL     1      11.662  -1.116  21.306  1.00  0.00     0.155 C 
HETATM    4  C   UNL     1      11.084   0.032  23.346  1.00  0.00     0.141 C 
HETATM    5  C   UNL     1      10.309   0.992  21.237  1.00  0.00     0.255 C 
HETATM    6  C   UNL     1      10.439  -1.219  23.878  1.00  0.00     0.116 C 
HETATM    7  N   UNL     1      11.053  -2.420  23.307  1.00  0.00    -0.267 NA
HETATM    8  O   UNL     1       9.703   1.864  21.832  1.00  0.00    -0.267 OA
ENDROOT
BRANCH   2   9
HETATM    9  C   UNL     1      11.713  -3.563  21.195  1.00  0.00     0.237 C 
HETATM   10  O   UNL     1      12.940  -3.626  21.219  1.00  0.00    -0.272 OA
HETATM   11  N   UNL     1      10.925  -4.512  20.676  1.00  0.00    -0.355 N 
ATOM     12  HN  UNL     1       9.920  -4.464  20.836  1.00  0.00     0.162 HD
BRANCH  11  13
HETATM   13  C   UNL     1      11.460  -5.599  19.896  1.00  0.00     0.168 C 
BRANCH  13  14
HETATM   14  C   UNL     1      11.812  -6.739  20.802  1.00  0.00     0.000 A 
HETATM   15  S   UNL     1      13.148  -7.717  20.451  1.00  0.00    -0.105 SA
HETATM   16  C   UNL     1      12.837  -8.733  21.767  1.00  0.00     0.050 A 
HETATM   17  C   UNL     1      11.753  -8.345  22.466  1.00  0.00     0.008 A 
HETATM   18  C   UNL     1      11.140  -7.189  21.925  1.00  0.00     0.017 A 
ENDBRANCH  13  14
ENDBRANCH  11  13
ENDBRANCH   2   9
BRANCH   7  19
HETATM   19  C   UNL     1      10.661  -3.612  23.945  1.00  0.00     0.013 A 
HETATM   20  C   UNL     1      11.601  -4.365  24.624  1.00  0.00     0.025 A 
HETATM   21  C   UNL     1      11.235  -5.538  25.255  1.00  0.00     0.027 A 
HETATM   22  C   UNL     1       9.920  -5.970  25.208  1.00  0.00     0.055 A 
HETATM   23  C   UNL     1       8.965  -5.216  24.551  1.00  0.00     0.057 A 
HETATM   24 CL   UNL     1       9.520  -7.484  25.947  1.00  0.00    -0.083 Cl
HETATM   25 CL   UNL     1       7.285  -5.713  24.541  1.00  0.00    -0.082 Cl
HETATM   26  C   UNL     1       9.318  -4.041  23.909  1.00  0.00     0.049 A 
ENDBRANCH   7  19
BRANCH   5  27
HETATM   27  C   UNL     1      10.235   0.924  19.742  1.00  0.00     0.047 A 
HETATM   28  C   UNL     1       9.246   0.218  19.075  1.00  0.00     0.020 A 
HETATM   29  C   UNL     1       9.290   0.122  17.694  1.00  0.00     0.018 A 
HETATM   30  C   UNL     1      10.323   0.742  17.026  1.00  0.00     0.087 A 
HETATM   31  N   UNL     1      11.277   1.454  17.647  1.00  0.00    -0.374 N 
HETATM   32  C   UNL     1      11.217   1.531  18.982  1.00  0.00     0.104 A 
ATOM     33  HN  UNL     1      12.019   1.918  17.122  1.00  0.00     0.164 HD
ENDBRANCH   5  27
TORSDOF 5
ENDMDL
MODEL 16
REMARK VINA RESULT:    -6.698      4.273      7.985
REMARK INTER + INTRA:          -9.673
REMARK INTER:                  -8.573
REMARK INTRA:                  -1.100
REMARK UNBOUND:                -1.017
REMARK  5 active torsions:
REMARK  status: ('A' for Active; 'I' for Inactive)
REMARK       I    between atoms: N_1  and  C_23 
REMARK    1  A    between atoms: C_6  and  C_17 
REMARK    2  A    between atoms: C_9  and  N_29 
REMARK    3  A    between atoms: C_12  and  C_23 
REMARK       I    between atoms: N_15  and  C_17 
REMARK    4  A    between atoms: N_15  and  C_19 
REMARK    5  A    between atoms: C_19  and  C_26 
ROOT
HETATM    1  N   UNL     1       9.381  -6.369  24.833  1.00  0.00    -0.345 N 
HETATM    2  C   UNL     1      10.033  -4.039  24.608  1.00  0.00     0.173 C 
HETATM    3  C   UNL     1       9.963  -5.402  23.913  1.00  0.00     0.155 C 
HETATM    4  C   UNL     1       8.044  -5.970  25.258  1.00  0.00     0.141 C 
HETATM    5  C   UNL     1       9.979  -7.459  25.344  1.00  0.00     0.255 C 
HETATM    6  C   UNL     1       8.106  -4.626  25.930  1.00  0.00     0.116 C 
HETATM    7  N   UNL     1       8.703  -3.616  25.051  1.00  0.00    -0.267 NA
HETATM    8  O   UNL     1       9.440  -8.144  26.195  1.00  0.00    -0.267 OA
ENDROOT
BRANCH   2   9
HETATM    9  C   UNL     1      10.656  -3.073  23.605  1.00  0.00     0.237 C 
HETATM   10  O   UNL     1      11.650  -2.419  23.914  1.00  0.00    -0.272 OA
HETATM   11  N   UNL     1      10.090  -3.047  22.393  1.00  0.00    -0.355 N 
ATOM     12  HN  UNL     1       9.371  -3.733  22.167  1.00  0.00     0.162 HD
BRANCH  11  13
HETATM   13  C   UNL     1      10.470  -2.075  21.400  1.00  0.00     0.168 C 
BRANCH  13  14
HETATM   14  C   UNL     1      11.081  -2.773  20.224  1.00  0.00     0.000 A 
HETATM   15  S   UNL     1      11.479  -4.414  20.328  1.00  0.00    -0.105 SA
HETATM   16  C   UNL     1      12.146  -4.422  18.773  1.00  0.00     0.050 A 
HETATM   17  C   UNL     1      12.067  -3.216  18.178  1.00  0.00     0.008 A 
HETATM   18  C   UNL     1      11.452  -2.241  19.001  1.00  0.00     0.017 A 
ENDBRANCH  13  14
ENDBRANCH  11  13
ENDBRANCH   2   9
BRANCH   7  19
HETATM   19  C   UNL     1       8.564  -2.300  25.528  1.00  0.00     0.013 A 
HETATM   20  C   UNL     1       9.234  -1.914  26.674  1.00  0.00     0.025 A 
HETATM   21  C   UNL     1       9.109  -0.626  27.159  1.00  0.00     0.027 A 
HETATM   22  C   UNL     1       8.307   0.289  26.497  1.00  0.00     0.055 A 
HETATM   23  C   UNL     1       7.648  -0.077  25.338  1.00  0.00     0.057 A 
HETATM   24 CL   UNL     1       8.117   1.868  27.180  1.00  0.00    -0.083 Cl
HETATM   25 CL   UNL     1       6.684   1.087  24.452  1.00  0.00    -0.082 Cl
HETATM   26  C   UNL     1       7.759  -1.367  24.844  1.00  0.00     0.049 A 
ENDBRANCH   7  19
BRANCH   5  27
HETATM   27  C   UNL     1      11.369  -7.791  24.895  1.00  0.00     0.047 A 
HETATM   28  C   UNL     1      11.631  -8.490  23.727  1.00  0.00     0.020 A 
HETATM   29  C   UNL     1      12.935  -8.841  23.419  1.00  0.00     0.018 A 
HETATM   30  C   UNL     1      13.936  -8.476  24.293  1.00  0.00     0.087 A 
HETATM   31  N   UNL     1      13.712  -7.776  25.416  1.00  0.00    -0.374 N 
HETATM   32  C   UNL     1      12.444  -7.449  25.695  1.00  0.00     0.104 A 
ATOM     33  HN  UNL     1      14.477  -7.504  26.033  1.00  0.00     0.164 HD
ENDBRANCH   5  27
TORSDOF 5
ENDMDL
MODEL 17
REMARK VINA RESULT:    -6.603      3.540      7.141
REMARK INTER + INTRA:          -9.550
REMARK INTER:                  -8.578
REMARK INTRA:                  -0.972
REMARK UNBOUND:                -1.017
REMARK  5 active torsions:
REMARK  status: ('A' for Active; 'I' for Inactive)
REMARK       I    between atoms: N_1  and  C_23 
REMARK    1  A    between atoms: C_6  and  C_17 
REMARK    2  A    between atoms: C_9  and  N_29 
REMARK    3  A    between atoms: C_12  and  C_23 
REMARK       I    between atoms: N_15  and  C_17 
REMARK    4  A    between atoms: N_15  and  C_19 
REMARK    5  A    between atoms: C_19  and  C_26 
ROOT
HETATM    1  N   UNL     1      13.005   0.717  24.843  1.00  0.00    -0.345 N 
HETATM    2  C   UNL     1      10.932  -0.180  23.947  1.00  0.00     0.173 C 
HETATM    3  C   UNL     1      12.168   0.675  23.652  1.00  0.00     0.155 C 
HETATM    4  C   UNL     1      13.424  -0.618  25.253  1.00  0.00     0.141 C 
HETATM    5  C   UNL     1      13.311   1.801  25.578  1.00  0.00     0.255 C 
HETATM    6  C   UNL     1      12.213  -1.466  25.532  1.00  0.00     0.116 C 
HETATM    7  N   UNL     1      11.324  -1.526  24.368  1.00  0.00    -0.267 NA
HETATM    8  O   UNL     1      13.931   1.710  26.622  1.00  0.00    -0.267 OA
ENDROOT
BRANCH   2   9
HETATM    9  C   UNL     1      10.092  -0.180  22.674  1.00  0.00     0.237 C 
HETATM   10  O   UNL     1       8.962   0.303  22.680  1.00  0.00    -0.272 OA
HETATM   11  N   UNL     1      10.688  -0.673  21.583  1.00  0.00    -0.355 N 
ATOM     12  HN  UNL     1      11.680  -0.908  21.623  1.00  0.00     0.162 HD
BRANCH  11  13
HETATM   13  C   UNL     1       9.968  -0.882  20.353  1.00  0.00     0.168 C 
BRANCH  13  14
HETATM   14  C   UNL     1      10.368   0.161  19.355  1.00  0.00     0.000 A 
HETATM   15  S   UNL     1       9.609   0.221  17.843  1.00  0.00    -0.105 SA
HETATM   16  C   UNL     1      10.601   1.487  17.318  1.00  0.00     0.050 A 
HETATM   17  C   UNL     1      11.485   1.867  18.261  1.00  0.00     0.008 A 
HETATM   18  C   UNL     1      11.369   1.111  19.454  1.00  0.00     0.017 A 
ENDBRANCH  13  14
ENDBRANCH  11  13
ENDBRANCH   2   9
BRANCH   7  19
HETATM   19  C   UNL     1      10.308  -2.493  24.483  1.00  0.00     0.013 A 
HETATM   20  C   UNL     1       9.125  -2.169  25.121  1.00  0.00     0.025 A 
HETATM   21  C   UNL     1       8.117  -3.106  25.245  1.00  0.00     0.027 A 
HETATM   22  C   UNL     1       8.288  -4.381  24.732  1.00  0.00     0.055 A 
HETATM   23  C   UNL     1       9.457  -4.712  24.073  1.00  0.00     0.057 A 
HETATM   24 CL   UNL     1       7.031  -5.546  24.976  1.00  0.00    -0.083 Cl
HETATM   25 CL   UNL     1       9.662  -6.299  23.358  1.00  0.00    -0.082 Cl
HETATM   26  C   UNL     1      10.479  -3.786  23.946  1.00  0.00     0.049 A 
ENDBRANCH   7  19
BRANCH   5  27
HETATM   27  C   UNL     1      12.816   3.139  25.122  1.00  0.00     0.047 A 
HETATM   28  C   UNL     1      13.525   3.937  24.236  1.00  0.00     0.020 A 
HETATM   29  C   UNL     1      13.051   5.201  23.928  1.00  0.00     0.018 A 
HETATM   30  C   UNL     1      11.879   5.624  24.516  1.00  0.00     0.087 A 
HETATM   31  N   UNL     1      11.161   4.861  25.355  1.00  0.00    -0.374 N 
HETATM   32  C   UNL     1      11.638   3.643  25.640  1.00  0.00     0.104 A 
ATOM     33  HN  UNL     1      10.286   5.195  25.759  1.00  0.00     0.164 HD
ENDBRANCH   5  27
TORSDOF 5
ENDMDL
MODEL 18
REMARK VINA RESULT:    -6.566      4.157      7.194
REMARK INTER + INTRA:          -9.502
REMARK INTER:                  -8.450
REMARK INTRA:                  -1.052
REMARK UNBOUND:                -1.017
REMARK  5 active torsions:
REMARK  status: ('A' for Active; 'I' for Inactive)
REMARK       I    between atoms: N_1  and  C_23 
REMARK    1  A    between atoms: C_6  and  C_17 
REMARK    2  A    between atoms: C_9  and  N_29 
REMARK    3  A    between atoms: C_12  and  C_23 
REMARK       I    between atoms: N_15  and  C_17 
REMARK    4  A    between atoms: N_15  and  C_19 
REMARK    5  A    between atoms: C_19  and  C_26 
ROOT
HETATM    1  N   UNL     1      10.576  -0.752  23.086  1.00  0.00    -0.345 N 
HETATM    2  C   UNL     1      11.374   1.511  23.469  1.00  0.00     0.173 C 
HETATM    3  C   UNL     1      11.148   0.131  24.093  1.00  0.00     0.155 C 
HETATM    4  C   UNL     1      11.451  -0.880  21.925  1.00  0.00     0.141 C 
HETATM    5  C   UNL     1       9.363  -1.330  23.112  1.00  0.00     0.255 C 
HETATM    6  C   UNL     1      11.686   0.475  21.316  1.00  0.00     0.116 C 
HETATM    7  N   UNL     1      12.244   1.411  22.296  1.00  0.00    -0.267 NA
HETATM    8  O   UNL     1       8.937  -1.964  22.164  1.00  0.00    -0.267 OA
ENDROOT
BRANCH   2   9
HETATM    9  C   UNL     1      11.961   2.392  24.567  1.00  0.00     0.237 C 
HETATM   10  O   UNL     1      12.941   2.014  25.204  1.00  0.00    -0.272 OA
HETATM   11  N   UNL     1      11.381   3.587  24.727  1.00  0.00    -0.355 N 
ATOM     12  HN  UNL     1      10.677   3.890  24.055  1.00  0.00     0.162 HD
BRANCH  11  13
HETATM   13  C   UNL     1      11.725   4.457  25.823  1.00  0.00     0.168 C 
BRANCH  13  14
HETATM   14  C   UNL     1      13.096   5.018  25.606  1.00  0.00     0.000 A 
HETATM   15  S   UNL     1      14.163   5.174  26.910  1.00  0.00    -0.105 SA
HETATM   16  C   UNL     1      15.344   5.907  25.946  1.00  0.00     0.050 A 
HETATM   17  C   UNL     1      14.952   6.029  24.663  1.00  0.00     0.008 A 
HETATM   18  C   UNL     1      13.649   5.520  24.440  1.00  0.00     0.017 A 
ENDBRANCH  13  14
ENDBRANCH  11  13
ENDBRANCH   2   9
BRANCH   7  19
HETATM   19  C   UNL     1      12.710   2.612  21.728  1.00  0.00     0.013 A 
HETATM   20  C   UNL     1      14.070   2.837  21.626  1.00  0.00     0.025 A 
HETATM   21  C   UNL     1      14.547   4.010  21.072  1.00  0.00     0.027 A 
HETATM   22  C   UNL     1      13.660   4.972  20.618  1.00  0.00     0.055 A 
HETATM   23  C   UNL     1      12.297   4.751  20.694  1.00  0.00     0.057 A 
HETATM   24 CL   UNL     1      14.297   6.459  20.002  1.00  0.00    -0.083 Cl
HETATM   25 CL   UNL     1      11.163   5.927  20.061  1.00  0.00    -0.082 Cl
HETATM   26  C   UNL     1      11.805   3.582  21.252  1.00  0.00     0.049 A 
ENDBRANCH   7  19
BRANCH   5  27
HETATM   27  C   UNL     1       8.498  -1.126  24.318  1.00  0.00     0.047 A 
HETATM   28  C   UNL     1       7.795   0.048  24.544  1.00  0.00     0.020 A 
HETATM   29  C   UNL     1       7.087   0.202  25.725  1.00  0.00     0.018 A 
HETATM   30  C   UNL     1       7.105  -0.827  26.640  1.00  0.00     0.087 A 
HETATM   31  N   UNL     1       7.756  -1.983  26.433  1.00  0.00    -0.374 N 
HETATM   32  C   UNL     1       8.435  -2.111  25.286  1.00  0.00     0.104 A 
ATOM     33  HN  UNL     1       7.734  -2.735  27.123  1.00  0.00     0.164 HD
ENDBRANCH   5  27
TORSDOF 5
ENDMDL
MODEL 19
REMARK VINA RESULT:    -6.506      3.897      7.394
REMARK INTER + INTRA:          -9.424
REMARK INTER:                  -7.985
REMARK INTRA:                  -1.439
REMARK UNBOUND:                -1.017
REMARK  5 active torsions:
REMARK  status: ('A' for Active; 'I' for Inactive)
REMARK       I    between atoms: N_1  and  C_23 
REMARK    1  A    between atoms: C_6  and  C_17 
REMARK    2  A    between atoms: C_9  and  N_29 
REMARK    3  A    between atoms: C_12  and  C_23 
REMARK       I    between atoms: N_15  and  C_17 
REMARK    4  A    between atoms: N_15  and  C_19 
REMARK    5  A    between atoms: C_19  and  C_26 
ROOT
HETATM    1  N   UNL     1       9.381  -6.133  24.832  1.00  0.00    -0.345 N 
HETATM    2  C   UNL     1       9.943  -3.787  24.546  1.00  0.00     0.173 C 
HETATM    3  C   UNL     1       9.867  -5.158  23.866  1.00  0.00     0.155 C 
HETATM    4  C   UNL     1       8.064  -5.772  25.345  1.00  0.00     0.141 C 
HETATM    5  C   UNL     1      10.047  -7.201  25.307  1.00  0.00     0.255 C 
HETATM    6  C   UNL     1       8.131  -4.421  26.003  1.00  0.00     0.116 C 
HETATM    7  N   UNL     1       8.634  -3.401  25.078  1.00  0.00    -0.267 NA
HETATM    8  O   UNL     1       9.589  -7.894  26.197  1.00  0.00    -0.267 OA
ENDROOT
BRANCH   2   9
HETATM    9  C   UNL     1      10.465  -2.811  23.497  1.00  0.00     0.237 C 
HETATM   10  O   UNL     1       9.978  -2.799  22.369  1.00  0.00    -0.272 OA
HETATM   11  N   UNL     1      11.414  -1.964  23.911  1.00  0.00    -0.355 N 
ATOM     12  HN  UNL     1      11.651  -1.932  24.902  1.00  0.00     0.162 HD
BRANCH  11  13
HETATM   13  C   UNL     1      12.110  -1.096  22.995  1.00  0.00     0.168 C 
BRANCH  13  14
HETATM   14  C   UNL     1      11.336   0.175  22.825  1.00  0.00     0.000 A 
HETATM   15  S   UNL     1      11.144   0.848  21.284  1.00  0.00    -0.105 SA
HETATM   16  C   UNL     1      10.320   2.192  21.898  1.00  0.00     0.050 A 
HETATM   17  C   UNL     1      10.182   2.138  23.238  1.00  0.00     0.008 A 
HETATM   18  C   UNL     1      10.765   0.975  23.799  1.00  0.00     0.017 A 
ENDBRANCH  13  14
ENDBRANCH  11  13
ENDBRANCH   2   9
BRANCH   7  19
HETATM   19  C   UNL     1       8.488  -2.085  25.555  1.00  0.00     0.013 A 
HETATM   20  C   UNL     1       9.151  -1.697  26.704  1.00  0.00     0.025 A 
HETATM   21  C   UNL     1       9.019  -0.410  27.189  1.00  0.00     0.027 A 
HETATM   22  C   UNL     1       8.215   0.501  26.524  1.00  0.00     0.055 A 
HETATM   23  C   UNL     1       7.563   0.134  25.362  1.00  0.00     0.057 A 
HETATM   24 CL   UNL     1       8.016   2.080  27.207  1.00  0.00    -0.083 Cl
HETATM   25 CL   UNL     1       6.598   1.294  24.472  1.00  0.00    -0.082 Cl
HETATM   26  C   UNL     1       7.682  -1.155  24.868  1.00  0.00     0.049 A 
ENDBRANCH   7  19
BRANCH   5  27
HETATM   27  C   UNL     1      11.412  -7.493  24.765  1.00  0.00     0.047 A 
HETATM   28  C   UNL     1      11.617  -8.272  23.636  1.00  0.00     0.020 A 
HETATM   29  C   UNL     1      12.910  -8.577  23.243  1.00  0.00     0.018 A 
HETATM   30  C   UNL     1      13.956  -8.088  23.994  1.00  0.00     0.087 A 
HETATM   31  N   UNL     1      13.784  -7.310  25.075  1.00  0.00    -0.374 N 
HETATM   32  C   UNL     1      12.527  -7.029  25.438  1.00  0.00     0.104 A 
ATOM     33  HN  UNL     1      14.581  -6.946  25.599  1.00  0.00     0.164 HD
ENDBRANCH   5  27
TORSDOF 5
ENDMDL
MODEL 20
REMARK VINA RESULT:    -6.333      3.426      6.529
REMARK INTER + INTRA:          -9.201
REMARK INTER:                  -8.560
REMARK INTRA:                  -0.642
REMARK UNBOUND:                -1.017
REMARK  5 active torsions:
REMARK  status: ('A' for Active; 'I' for Inactive)
REMARK       I    between atoms: N_1  and  C_23 
REMARK    1  A    between atoms: C_6  and  C_17 
REMARK    2  A    between atoms: C_9  and  N_29 
REMARK    3  A    between atoms: C_12  and  C_23 
REMARK       I    between atoms: N_15  and  C_17 
REMARK    4  A    between atoms: N_15  and  C_19 
REMARK    5  A    between atoms: C_19  and  C_26 
ROOT
HETATM    1  N   UNL     1      11.724   1.482  24.865  1.00  0.00    -0.345 N 
HETATM    2  C   UNL     1      11.066  -0.504  23.630  1.00  0.00     0.173 C 
HETATM    3  C   UNL     1      12.148   0.564  23.817  1.00  0.00     0.155 C 
HETATM    4  C   UNL     1      11.501   0.789  26.129  1.00  0.00     0.141 C 
HETATM    5  C   UNL     1      11.460   2.793  24.732  1.00  0.00     0.255 C 
HETATM    6  C   UNL     1      10.447  -0.270  25.947  1.00  0.00     0.116 C 
HETATM    7  N   UNL     1      10.816  -1.212  24.887  1.00  0.00    -0.267 NA
HETATM    8  O   UNL     1      11.004   3.449  25.651  1.00  0.00    -0.267 OA
ENDROOT
BRANCH   2   9
HETATM    9  C   UNL     1      11.556  -1.428  22.519  1.00  0.00     0.237 C 
HETATM   10  O   UNL     1      12.600  -2.060  22.658  1.00  0.00    -0.272 OA
HETATM   11  N   UNL     1      10.753  -1.533  21.454  1.00  0.00    -0.355 N 
ATOM     12  HN  UNL     1       9.831  -1.101  21.484  1.00  0.00     0.162 HD
BRANCH  11  13
HETATM   13  C   UNL     1      11.159  -2.242  20.266  1.00  0.00     0.168 C 
BRANCH  13  14
HETATM   14  C   UNL     1      11.008  -1.348  19.074  1.00  0.00     0.000 A 
HETATM   15  S   UNL     1      10.077   0.062  19.186  1.00  0.00    -0.105 SA
HETATM   16  C   UNL     1      10.303   0.423  17.549  1.00  0.00     0.050 A 
HETATM   17  C   UNL     1      11.070  -0.492  16.925  1.00  0.00     0.008 A 
HETATM   18  C   UNL     1      11.491  -1.531  17.791  1.00  0.00     0.017 A 
ENDBRANCH  13  14
ENDBRANCH  11  13
ENDBRANCH   2   9
BRANCH   7  19
HETATM   19  C   UNL     1       9.995  -2.355  24.838  1.00  0.00     0.013 A 
HETATM   20  C   UNL     1       8.691  -2.241  24.395  1.00  0.00     0.025 A 
HETATM   21  C   UNL     1       7.869  -3.351  24.341  1.00  0.00     0.027 A 
HETATM   22  C   UNL     1       8.351  -4.589  24.735  1.00  0.00     0.055 A 
HETATM   23  C   UNL     1       9.660  -4.721  25.160  1.00  0.00     0.057 A 
HETATM   24 CL   UNL     1       7.267  -5.939  24.725  1.00  0.00    -0.083 Cl
HETATM   25 CL   UNL     1      10.305  -6.291  25.596  1.00  0.00    -0.082 Cl
HETATM   26  C   UNL     1      10.493  -3.616  25.224  1.00  0.00     0.049 A 
ENDBRANCH   7  19
BRANCH   5  27
HETATM   27  C   UNL     1      11.674   3.435  23.396  1.00  0.00     0.047 A 
HETATM   28  C   UNL     1      12.404   4.603  23.236  1.00  0.00     0.020 A 
HETATM   29  C   UNL     1      12.485   5.190  21.984  1.00  0.00     0.018 A 
HETATM   30  C   UNL     1      11.834   4.585  20.932  1.00  0.00     0.087 A 
HETATM   31  N   UNL     1      11.143   3.441  21.055  1.00  0.00    -0.374 N 
HETATM   32  C   UNL     1      11.076   2.891  22.274  1.00  0.00     0.104 A 
ATOM     33  HN  UNL     1      10.687   3.007  20.253  1.00  0.00     0.164 HD
ENDBRANCH   5  27
TORSDOF 5
ENDMDL
