REMARK  14 active torsions:
REMARK  status: ('A' for Active; 'I' for Inactive)
REMARK    1  A    between atoms: C_1  and  O_6 
REMARK    2  A    between atoms: C_2  and  O_7 
REMARK    3  A    between atoms: C_3  and  O_8 
REMARK    4  A    between atoms: C_4  and  C_5 
REMARK    5  A    between atoms: C_5  and  O_10 
REMARK    6  A    between atoms: O_6  and  P_15 
REMARK    7  A    between atoms: O_10  and  P_11 
REMARK    8  A    between atoms: P_11  and  O_13 
REMARK    9  A    between atoms: P_11  and  O_14 
REMARK   10  A    between atoms: P_15  and  O_17 
REMARK   11  A    between atoms: P_15  and  O_18 
REMARK   12  A    between atoms: O_18  and  P_19 
REMARK   13  A    between atoms: P_19  and  O_21 
REMARK   14  A    between atoms: P_19  and  O_22 
ROOT
HETATM    1  C   UNL     1      -0.219  -1.164  -0.397  1.00  0.00     0.303 C 
HETATM    2  C   UNL     1      -1.206  -0.285  -1.167  1.00  0.00     0.205 C 
HETATM    3  C   UNL     1      -0.550   1.066  -1.079  1.00  0.00     0.182 C 
HETATM    4  C   UNL     1       0.930   0.705  -1.041  1.00  0.00     0.180 C 
HETATM    5  O   UNL     1       1.068  -0.594  -0.505  1.00  0.00    -0.348 OA
ENDROOT
BRANCH   1   6
HETATM    6  O   UNL     1      -0.175  -2.476  -0.925  1.00  0.00    -0.263 OA
BRANCH   6   7
HETATM    7  P   UNL     1      -1.258  -3.490  -0.077  1.00  0.00     0.404 P 
HETATM    8  O   UNL     1      -1.424  -4.764  -0.875  1.00  0.00    -0.631 OA
BRANCH   7   9
HETATM    9  O   UNL     1      -0.588  -3.865   1.433  1.00  0.00    -0.307 OA
HETATM   10  H   UNL     1      -0.832  -3.106   2.020  1.00  0.00     0.222 HD
ENDBRANCH   7   9
BRANCH   7  11
HETATM   11  O   UNL     1      -2.760  -2.705   0.114  1.00  0.00    -0.195 OA
BRANCH  11  12
HETATM   12  P   UNL     1      -3.873  -3.833   0.736  1.00  0.00     0.399 P 
HETATM   13  O   UNL     1      -4.220  -4.857  -0.323  1.00  0.00    -0.631 OA
BRANCH  12  14
HETATM   14  O   UNL     1      -3.263  -4.608   2.115  1.00  0.00    -0.307 OA
HETATM   15  H   UNL     1      -2.889  -5.466   1.789  1.00  0.00     0.222 HD
ENDBRANCH  12  14
BRANCH  12  16
HETATM   16  O   UNL     1      -5.284  -3.007   1.168  1.00  0.00    -0.307 OA
HETATM   17  H   UNL     1      -4.990  -2.342   1.840  1.00  0.00     0.222 HD
ENDBRANCH  12  16
ENDBRANCH  11  12
ENDBRANCH   7  11
ENDBRANCH   6   7
ENDBRANCH   1   6
BRANCH   2  18
HETATM   18  O   UNL     1      -1.305  -0.695  -2.510  1.00  0.00    -0.388 OA
HETATM   19  H   UNL     1      -2.008  -1.395  -2.542  1.00  0.00     0.210 HD
ENDBRANCH   2  18
BRANCH   3  20
HETATM   20  O   UNL     1      -0.845   1.877  -2.187  1.00  0.00    -0.390 OA
HETATM   21  H   UNL     1      -1.782   2.181  -2.070  1.00  0.00     0.210 HD
ENDBRANCH   3  20
BRANCH   4  22
HETATM   22  C   UNL     1       1.742   1.703  -0.210  1.00  0.00     0.215 C 
BRANCH  22  23
HETATM   23  O   UNL     1       3.105   1.354  -0.274  1.00  0.00    -0.294 OA
BRANCH  23  24
HETATM   24  P   UNL     1       3.986   2.469   0.667  1.00  0.00     0.390 P 
HETATM   25  O   UNL     1       5.454   2.114   0.599  1.00  0.00    -0.632 OA
BRANCH  24  26
HETATM   26  O   UNL     1       3.765   4.036   0.065  1.00  0.00    -0.307 OA
HETATM   27  H   UNL     1       4.291   4.618   0.669  1.00  0.00     0.222 HD
ENDBRANCH  24  26
BRANCH  24  28
HETATM   28  O   UNL     1       3.471   2.397   2.279  1.00  0.00    -0.307 OA
HETATM   29  H   UNL     1       4.015   3.077   2.750  1.00  0.00     0.222 HD
ENDBRANCH  24  28
ENDBRANCH  23  24
ENDBRANCH  22  23
ENDBRANCH   4  22
TORSDOF 14
