REMARK  11 active torsions:
REMARK  status: ('A' for Active; 'I' for Inactive)
REMARK    1  A    between atoms: C_2  and  N_5 
REMARK    2  A    between atoms: N_5  and  C_6 
REMARK    3  A    between atoms: C_6  and  C_7 
REMARK       I    between atoms: C_7  and  N_9 
REMARK    4  A    between atoms: N_9  and  C_10 
REMARK    5  A    between atoms: C_12  and  N_13 
REMARK    6  A    between atoms: C_21  and  N_22 
REMARK    7  A    between atoms: C_25  and  O_26 
REMARK    8  A    between atoms: C_27  and  C_28 
REMARK       I    between atoms: C_28  and  N_30 
REMARK    9  A    between atoms: C_33  and  O_34 
REMARK   10  A    between atoms: C_35  and  O_36 
REMARK   11  A    between atoms: C_41  and  O_42 
ROOT
HETATM    1  C   UNL     1       2.496  -1.782  -0.578  1.00  0.00     0.071 C 
HETATM    2  C   UNL     1       2.853  -0.897  -1.595  1.00  0.00     0.070 C 
HETATM    3  C   UNL     1       2.167   0.322  -1.796  1.00  0.00     0.143 C 
HETATM    4  C   UNL     1       1.094   0.646  -0.909  1.00  0.00    -0.006 C 
HETATM    5  C   UNL     1       0.355   1.976  -0.975  1.00  0.00     0.051 C 
HETATM    6  C   UNL     1      -0.239   2.395   0.390  1.00  0.00     0.030 C 
HETATM    7  C   UNL     1      -0.938   3.779   0.288  1.00  0.00     0.020 C 
HETATM    8  C   UNL     1      -2.447   3.773   0.630  1.00  0.00     0.073 C 
HETATM    9  C   UNL     1      -3.344   3.284  -0.585  1.00  0.00     0.252 C 
HETATM   10  C   UNL     1      -4.517   2.380  -0.192  1.00  0.00     0.094 C 
HETATM   11  C   UNL     1      -4.980   2.314   1.069  1.00  0.00     0.112 C 
HETATM   12  C   UNL     1      -4.156   2.861   2.158  1.00  0.00     0.208 C 
HETATM   13  O   UNL     1      -4.675   3.153   3.271  1.00  0.00    -0.288 OA
HETATM   14  C   UNL     1      -2.671   2.979   1.945  1.00  0.00     0.177 C 
HETATM   15  C   UNL     1      -2.087   1.577   1.865  1.00  0.00     0.096 C 
HETATM   16  C   UNL     1      -1.079   1.288   1.005  1.00  0.00     0.030 C 
HETATM   17  C   UNL     1      -0.645  -0.102   0.716  1.00  0.00     0.194 C 
HETATM   18  O   UNL     1      -1.410  -1.077   0.946  1.00  0.00    -0.287 OA
HETATM   19  C   UNL     1       0.629  -0.334  -0.001  1.00  0.00     0.059 C 
HETATM   20  C   UNL     1       1.336  -1.538   0.175  1.00  0.00     0.107 C 
ENDROOT
BRANCH   1  21
HETATM   21  N   UNL     1       3.315  -2.941  -0.350  1.00  0.00    -0.323 N 
HETATM   22  C   UNL     1       3.937  -3.201   0.920  1.00  0.00     0.250 C 
HETATM   23  O   UNL     1       3.673  -2.474   1.917  1.00  0.00    -0.271 OA
HETATM   24  H   UNL     1       3.669  -3.457  -1.187  1.00  0.00     0.169 HD
BRANCH  22  25
HETATM   25  C   UNL     1       4.986  -4.264   1.055  1.00  0.00     0.373 C 
BRANCH  25  26
HETATM   26  N   UNL     1       4.636  -5.456   0.258  1.00  0.00     0.100 N 
HETATM   27  H   UNL     1       5.508  -5.808  -0.204  1.00  0.00     0.317 HD
BRANCH  26  28
HETATM   28  C   UNL     1       3.999  -6.575   0.997  1.00  0.00     0.147 C 
HETATM   29  C   UNL     1       4.988  -7.241   1.982  1.00  0.00     0.048 C 
HETATM   30  C   UNL     1       3.566  -7.625  -0.044  1.00  0.00     0.048 C 
HETATM   31  C   UNL     1       2.735  -6.106   1.750  1.00  0.00     0.048 C 
ENDBRANCH  26  28
ENDBRANCH  25  26
ENDBRANCH  22  25
ENDBRANCH   1  21
BRANCH  20  32
HETATM   32  O   UNL     1       0.864  -2.483   1.088  1.00  0.00    -0.357 OA
HETATM   33  H   UNL     1       1.254  -3.413   1.169  1.00  0.00     0.217 HD
ENDBRANCH  20  32
BRANCH   3  34
HETATM   34  N   UNL     1       2.480   1.139  -2.968  1.00  0.00    -0.048 N 
HETATM   35  C   UNL     1       3.928   1.396  -3.102  1.00  0.00     0.276 C 
HETATM   36  C   UNL     1       1.946   0.497  -4.182  1.00  0.00     0.276 C 
HETATM   37  H   UNL     1       2.031   2.079  -2.918  1.00  0.00     0.285 HD
ENDBRANCH   3  34
BRANCH  15  38
HETATM   38  O   UNL     1      -2.605   0.621   2.747  1.00  0.00    -0.361 OA
HETATM   39  H   UNL     1      -2.118  -0.226   3.007  1.00  0.00     0.217 HD
ENDBRANCH  15  38
BRANCH  14  40
HETATM   40  O   UNL     1      -2.115   3.675   3.039  1.00  0.00    -0.374 OA
HETATM   41  H   UNL     1      -1.130   3.556   3.025  1.00  0.00     0.211 HD
ENDBRANCH  14  40
BRANCH   9  42
HETATM   42  N   UNL     1      -3.858   4.401  -1.446  1.00  0.00    -0.068 N 
HETATM   43  C   UNL     1      -4.783   5.326  -0.756  1.00  0.00     0.270 C 
HETATM   44  C   UNL     1      -2.788   5.164  -2.112  1.00  0.00     0.270 C 
HETATM   45  H   UNL     1      -4.409   3.965  -2.224  1.00  0.00     0.279 HD
ENDBRANCH   9  42
BRANCH  11  46
HETATM   46  C   UNL     1      -6.243   1.611   1.395  1.00  0.00     0.255 C 
HETATM   47  O   UNL     1      -6.316   0.909   2.439  1.00  0.00    -0.268 OA
HETATM   48  N   UNL     1      -7.400   1.758   0.570  1.00  0.00    -0.366 N 
HETATM   49  H   UNL     1      -8.283   1.255   0.806  1.00  0.00     0.159 HD
HETATM   50  H   UNL     1      -7.409   2.436  -0.223  1.00  0.00     0.159 HD
ENDBRANCH  11  46
BRANCH  10  51
HETATM   51  O   UNL     1      -5.147   1.635  -1.190  1.00  0.00    -0.362 OA
HETATM   52  H   UNL     1      -4.814   1.636  -2.147  1.00  0.00     0.217 HD
ENDBRANCH  10  51
TORSDOF 11
