REMARK  0 active torsions:
REMARK  status: ('A' for Active; 'I' for Inactive)
ROOT
HETATM    1  C   UNL     1     -84.797 -26.673 -33.701  1.00  0.00     0.181 A 
HETATM    2  C   UNL     1     -84.460 -28.935 -33.958  1.00  0.00     0.139 A 
HETATM    3  C   UNL     1     -83.927 -28.693 -35.193  1.00  0.00     0.117 A 
HETATM    4  C   UNL     1     -83.858 -27.354 -35.635  1.00  0.00     0.136 A 
HETATM    5  C   UNL     1     -83.902 -30.825 -34.851  1.00  0.00     0.182 A 
HETATM    6  N   UNL     1     -84.288 -26.390 -34.869  1.00  0.00    -0.321 N 
ATOM      7  HN  UNL     1     -84.227 -25.421 -35.181  1.00  0.00     0.169 HD
HETATM    8  N   UNL     1     -84.895 -27.892 -33.217  1.00  0.00    -0.317 N 
ATOM      9  HN  UNL     1     -85.295 -28.048 -32.292  1.00  0.00     0.170 HD
HETATM   10  N   UNL     1     -83.587 -29.894 -35.734  1.00  0.00    -0.347 N 
ATOM     11  HN  UNL     1     -83.167 -30.047 -36.651  1.00  0.00     0.167 HD
HETATM   12  N   UNL     1     -84.427 -30.274 -33.766  1.00  0.00    -0.337 N 
ATOM     13  HN  UNL     1     -84.749 -30.770 -32.935  1.00  0.00     0.168 HD
HETATM   14 CL   UNL     1     -85.373 -25.317 -32.756  1.00  0.00    -0.045 Cl
HETATM   15 CL   UNL     1     -83.165 -26.948 -37.193  1.00  0.00    -0.062 Cl
ENDROOT
TORSDOF 0
