MODEL 1
REMARK VINA RESULT:    -6.669      0.000      0.000
REMARK INTER + INTRA:          -9.321
REMARK INTER:                  -8.814
REMARK INTRA:                  -0.508
REMARK UNBOUND:                -0.508
REMARK  6 active torsions:
REMARK  status: ('A' for Active; 'I' for Inactive)
REMARK    1  A    between atoms: C_5  and  N_25 
REMARK    2  A    between atoms: C_8  and  C_9 
REMARK    3  A    between atoms: C_9  and  C_10 
REMARK       I    between atoms: C_10  and  N_19 
REMARK    4  A    between atoms: C_11  and  N_20 
REMARK    5  A    between atoms: C_15  and  C_16 
REMARK       I    between atoms: C_15  and  N_25 
REMARK    6  A    between atoms: C_16  and  O_28 
ROOT
HETATM    1  C   UNL     1     -23.380  18.084 -19.957  1.00  0.00     0.151 C 
HETATM    2  C   UNL     1     -21.902  18.003 -19.652  1.00  0.00     0.145 C 
HETATM    3  C   UNL     1     -23.739  15.981 -18.785  1.00  0.00     0.086 C 
HETATM    4  C   UNL     1     -22.261  15.929 -18.477  1.00  0.00     0.169 C 
HETATM    5  C   UNL     1     -25.290  17.880 -18.436  1.00  0.00     0.227 C 
HETATM    6  N   UNL     1     -24.138  17.306 -19.053  1.00  0.00    -0.329 N 
HETATM    7  N   UNL     1     -21.602  16.557 -19.642  1.00  0.00    -0.360 N 
HETATM    8  O   UNL     1     -25.930  17.240 -17.685  1.00  0.00    -0.273 OA
ENDROOT
BRANCH   5   9
HETATM    9  C   UNL     1     -25.609  19.324 -18.815  1.00  0.00     0.141 C 
BRANCH   9  10
HETATM   10  C   UNL     1     -26.932  19.724 -18.195  1.00  0.00    -0.049 A 
HETATM   11  C   UNL     1     -26.925  20.330 -16.957  1.00  0.00     0.010 A 
HETATM   12  C   UNL     1     -28.110  20.716 -16.359  1.00  0.00     0.030 A 
HETATM   13  C   UNL     1     -29.304  20.481 -17.029  1.00  0.00     0.034 A 
HETATM   14  C   UNL     1     -29.308  19.889 -18.279  1.00  0.00     0.030 A 
HETATM   15  C   UNL     1     -28.116  19.502 -18.867  1.00  0.00     0.010 A 
BRANCH  13  16
HETATM   16  N   UNL     1     -30.581  20.881 -16.484  1.00  0.00    -0.325 N 
HETATM   17  C   UNL     1     -31.182  22.182 -16.604  1.00  0.00     0.245 C 
HETATM   18  O   UNL     1     -30.641  23.057 -17.191  1.00  0.00    -0.271 OA
ATOM     19  HN  UNL     1     -31.104  20.175 -15.967  1.00  0.00     0.169 HD
BRANCH  17  20
HETATM   20  C   UNL     1     -32.543  22.342 -15.930  1.00  0.00     0.267 C 
BRANCH  20  21
HETATM   21  O   UNL     1     -33.122  21.062 -15.871  1.00  0.00    -0.392 OA
ATOM     22  HO  UNL     1     -33.042  20.765 -14.973  1.00  0.00     0.210 HD
ENDBRANCH  20  21
ENDBRANCH  17  20
ENDBRANCH  13  16
ENDBRANCH   9  10
ENDBRANCH   5   9
BRANCH   7  23
HETATM   23  C   UNL     1     -20.330  16.076 -20.032  1.00  0.00     0.118 A 
HETATM   24  N   UNL     1     -19.635  16.862 -20.787  1.00  0.00    -0.284 N 
HETATM   25  N   UNL     1     -18.443  16.445 -21.183  1.00  0.00    -0.288 N 
ATOM     26  HN  UNL     1     -19.994  17.775 -21.069  1.00  0.00     0.188 HD
HETATM   27  C   UNL     1     -17.985  15.297 -20.806  1.00  0.00     0.118 A 
ATOM     28  HN  UNL     1     -17.879  17.038 -21.792  1.00  0.00     0.188 HD
HETATM   29 CL   UNL     1     -16.387  14.849 -21.382  1.00  0.00    -0.063 Cl
HETATM   30  C   UNL     1     -18.661  14.401 -19.990  1.00  0.00     0.047 A 
HETATM   31  C   UNL     1     -19.932  14.822 -19.569  1.00  0.00     0.053 A 
ENDBRANCH   7  23
TORSDOF 6
ENDMDL
MODEL 2
REMARK VINA RESULT:    -6.539      5.062      7.863
REMARK INTER + INTRA:          -9.150
REMARK INTER:                  -8.528
REMARK INTRA:                  -0.622
REMARK UNBOUND:                -0.508
REMARK  6 active torsions:
REMARK  status: ('A' for Active; 'I' for Inactive)
REMARK    1  A    between atoms: C_5  and  N_25 
REMARK    2  A    between atoms: C_8  and  C_9 
REMARK    3  A    between atoms: C_9  and  C_10 
REMARK       I    between atoms: C_10  and  N_19 
REMARK    4  A    between atoms: C_11  and  N_20 
REMARK    5  A    between atoms: C_15  and  C_16 
REMARK       I    between atoms: C_15  and  N_25 
REMARK    6  A    between atoms: C_16  and  O_28 
ROOT
HETATM    1  C   UNL     1     -30.830  19.871 -17.787  1.00  0.00     0.151 C 
HETATM    2  C   UNL     1     -29.722  19.049 -18.404  1.00  0.00     0.145 C 
HETATM    3  C   UNL     1     -29.218  20.952 -16.321  1.00  0.00     0.086 C 
HETATM    4  C   UNL     1     -28.122  20.133 -16.962  1.00  0.00     0.169 C 
HETATM    5  C   UNL     1     -30.962  22.295 -17.455  1.00  0.00     0.227 C 
HETATM    6  N   UNL     1     -30.329  21.045 -17.182  1.00  0.00    -0.329 N 
HETATM    7  N   UNL     1     -28.756  18.843 -17.305  1.00  0.00    -0.360 N 
HETATM    8  O   UNL     1     -30.554  23.278 -16.953  1.00  0.00    -0.273 OA
ENDROOT
BRANCH   5   9
HETATM    9  C   UNL     1     -32.156  22.252 -18.405  1.00  0.00     0.141 C 
BRANCH   9  10
HETATM   10  C   UNL     1     -33.260  23.136 -17.862  1.00  0.00    -0.049 A 
HETATM   11  C   UNL     1     -33.553  24.309 -18.525  1.00  0.00     0.010 A 
HETATM   12  C   UNL     1     -34.557  25.141 -18.066  1.00  0.00     0.030 A 
HETATM   13  C   UNL     1     -35.262  24.772 -16.926  1.00  0.00     0.034 A 
HETATM   14  C   UNL     1     -34.978  23.586 -16.273  1.00  0.00     0.030 A 
HETATM   15  C   UNL     1     -33.968  22.763 -16.739  1.00  0.00     0.010 A 
BRANCH  13  16
HETATM   16  N   UNL     1     -36.344  25.572 -16.401  1.00  0.00    -0.325 N 
HETATM   17  C   UNL     1     -36.207  26.739 -15.571  1.00  0.00     0.245 C 
HETATM   18  O   UNL     1     -35.141  27.144 -15.250  1.00  0.00    -0.271 OA
ATOM     19  HN  UNL     1     -37.292  25.283 -16.640  1.00  0.00     0.169 HD
BRANCH  17  20
HETATM   20  C   UNL     1     -37.517  27.402 -15.148  1.00  0.00     0.267 C 
BRANCH  20  21
HETATM   21  O   UNL     1     -38.023  26.653 -14.071  1.00  0.00    -0.392 OA
ATOM     22  HO  UNL     1     -37.611  25.798 -14.112  1.00  0.00     0.210 HD
ENDBRANCH  20  21
ENDBRANCH  17  20
ENDBRANCH  13  16
ENDBRANCH   9  10
ENDBRANCH   5   9
BRANCH   7  23
HETATM   23  C   UNL     1     -27.967  17.670 -17.243  1.00  0.00     0.118 A 
HETATM   24  N   UNL     1     -26.686  17.848 -17.269  1.00  0.00    -0.284 N 
HETATM   25  N   UNL     1     -25.912  16.776 -17.223  1.00  0.00    -0.288 N 
ATOM     26  HN  UNL     1     -26.286  18.785 -17.324  1.00  0.00     0.188 HD
HETATM   27  C   UNL     1     -26.425  15.593 -17.134  1.00  0.00     0.118 A 
ATOM     28  HN  UNL     1     -24.899  16.885 -17.258  1.00  0.00     0.188 HD
HETATM   29 CL   UNL     1     -25.303  14.242 -17.068  1.00  0.00    -0.063 Cl
HETATM   30  C   UNL     1     -27.785  15.317 -17.089  1.00  0.00     0.047 A 
HETATM   31  C   UNL     1     -28.621  16.442 -17.148  1.00  0.00     0.053 A 
ENDBRANCH   7  23
TORSDOF 6
ENDMDL
MODEL 3
REMARK VINA RESULT:    -6.382      3.980      7.181
REMARK INTER + INTRA:          -8.942
REMARK INTER:                  -8.564
REMARK INTRA:                  -0.378
REMARK UNBOUND:                -0.508
REMARK  6 active torsions:
REMARK  status: ('A' for Active; 'I' for Inactive)
REMARK    1  A    between atoms: C_5  and  N_25 
REMARK    2  A    between atoms: C_8  and  C_9 
REMARK    3  A    between atoms: C_9  and  C_10 
REMARK       I    between atoms: C_10  and  N_19 
REMARK    4  A    between atoms: C_11  and  N_20 
REMARK    5  A    between atoms: C_15  and  C_16 
REMARK       I    between atoms: C_15  and  N_25 
REMARK    6  A    between atoms: C_16  and  O_28 
ROOT
HETATM    1  C   UNL     1     -29.891  20.132 -18.125  1.00  0.00     0.151 C 
HETATM    2  C   UNL     1     -28.574  19.925 -18.839  1.00  0.00     0.145 C 
HETATM    3  C   UNL     1     -28.706  20.989 -16.180  1.00  0.00     0.086 C 
HETATM    4  C   UNL     1     -27.402  20.789 -16.917  1.00  0.00     0.169 C 
HETATM    5  C   UNL     1     -30.745  22.132 -16.997  1.00  0.00     0.227 C 
HETATM    6  N   UNL     1     -29.774  21.089 -17.093  1.00  0.00    -0.329 N 
HETATM    7  N   UNL     1     -27.616  19.596 -17.764  1.00  0.00    -0.360 N 
HETATM    8  O   UNL     1     -30.659  22.931 -16.138  1.00  0.00    -0.273 OA
ENDROOT
BRANCH   5   9
HETATM    9  C   UNL     1     -31.850  22.122 -18.049  1.00  0.00     0.141 C 
BRANCH   9  10
HETATM   10  C   UNL     1     -33.002  22.984 -17.574  1.00  0.00    -0.049 A 
HETATM   11  C   UNL     1     -33.268  24.159 -18.244  1.00  0.00     0.010 A 
HETATM   12  C   UNL     1     -34.313  24.971 -17.846  1.00  0.00     0.030 A 
HETATM   13  C   UNL     1     -35.087  24.580 -16.759  1.00  0.00     0.034 A 
HETATM   14  C   UNL     1     -34.829  23.392 -16.099  1.00  0.00     0.030 A 
HETATM   15  C   UNL     1     -33.777  22.589 -16.504  1.00  0.00     0.010 A 
BRANCH  13  16
HETATM   16  N   UNL     1     -36.214  25.359 -16.300  1.00  0.00    -0.325 N 
HETATM   17  C   UNL     1     -36.146  26.593 -15.565  1.00  0.00     0.245 C 
HETATM   18  O   UNL     1     -35.106  27.080 -15.275  1.00  0.00    -0.271 OA
ATOM     19  HN  UNL     1     -37.143  25.000 -16.518  1.00  0.00     0.169 HD
BRANCH  17  20
HETATM   20  C   UNL     1     -37.493  27.214 -15.197  1.00  0.00     0.267 C 
BRANCH  20  21
HETATM   21  O   UNL     1     -37.911  26.603 -14.002  1.00  0.00    -0.392 OA
ATOM     22  HO  UNL     1     -37.683  25.683 -14.069  1.00  0.00     0.210 HD
ENDBRANCH  20  21
ENDBRANCH  17  20
ENDBRANCH  13  16
ENDBRANCH   9  10
ENDBRANCH   5   9
BRANCH   7  23
HETATM   23  C   UNL     1     -26.515  18.742 -18.008  1.00  0.00     0.118 A 
HETATM   24  N   UNL     1     -26.395  17.731 -17.210  1.00  0.00    -0.284 N 
HETATM   25  N   UNL     1     -25.372  16.913 -17.398  1.00  0.00    -0.288 N 
ATOM     26  HN  UNL     1     -27.067  17.570 -16.460  1.00  0.00     0.188 HD
HETATM   27  C   UNL     1     -24.535  17.112 -18.363  1.00  0.00     0.118 A 
ATOM     28  HN  UNL     1     -25.243  16.116 -16.774  1.00  0.00     0.188 HD
HETATM   29 CL   UNL     1     -23.221  15.956 -18.526  1.00  0.00    -0.063 Cl
HETATM   30  C   UNL     1     -24.598  18.163 -19.267  1.00  0.00     0.047 A 
HETATM   31  C   UNL     1     -25.671  19.047 -19.076  1.00  0.00     0.053 A 
ENDBRANCH   7  23
TORSDOF 6
ENDMDL
MODEL 4
REMARK VINA RESULT:    -6.356      8.848     15.231
REMARK INTER + INTRA:          -8.908
REMARK INTER:                  -8.368
REMARK INTRA:                  -0.540
REMARK UNBOUND:                -0.508
REMARK  6 active torsions:
REMARK  status: ('A' for Active; 'I' for Inactive)
REMARK    1  A    between atoms: C_5  and  N_25 
REMARK    2  A    between atoms: C_8  and  C_9 
REMARK    3  A    between atoms: C_9  and  C_10 
REMARK       I    between atoms: C_10  and  N_19 
REMARK    4  A    between atoms: C_11  and  N_20 
REMARK    5  A    between atoms: C_15  and  C_16 
REMARK       I    between atoms: C_15  and  N_25 
REMARK    6  A    between atoms: C_16  and  O_28 
ROOT
HETATM    1  C   UNL     1     -34.849  26.941 -18.487  1.00  0.00     0.151 C 
HETATM    2  C   UNL     1     -35.591  28.013 -19.252  1.00  0.00     0.145 C 
HETATM    3  C   UNL     1     -35.121  28.216 -16.432  1.00  0.00     0.086 C 
HETATM    4  C   UNL     1     -35.874  29.268 -17.213  1.00  0.00     0.169 C 
HETATM    5  C   UNL     1     -35.501  25.769 -16.436  1.00  0.00     0.227 C 
HETATM    6  N   UNL     1     -35.159  26.981 -17.109  1.00  0.00    -0.329 N 
HETATM    7  N   UNL     1     -35.252  29.270 -18.555  1.00  0.00    -0.360 N 
HETATM    8  O   UNL     1     -35.757  25.791 -15.288  1.00  0.00    -0.273 OA
ENDROOT
BRANCH   5   9
HETATM    9  C   UNL     1     -35.503  24.503 -17.289  1.00  0.00     0.141 C 
BRANCH   9  10
HETATM   10  C   UNL     1     -34.235  23.718 -17.023  1.00  0.00    -0.049 A 
HETATM   11  C   UNL     1     -34.211  22.841 -15.959  1.00  0.00     0.010 A 
HETATM   12  C   UNL     1     -33.076  22.102 -15.686  1.00  0.00     0.030 A 
HETATM   13  C   UNL     1     -31.963  22.260 -16.503  1.00  0.00     0.034 A 
HETATM   14  C   UNL     1     -31.995  23.126 -17.581  1.00  0.00     0.030 A 
HETATM   15  C   UNL     1     -33.135  23.866 -17.843  1.00  0.00     0.010 A 
BRANCH  13  16
HETATM   16  N   UNL     1     -30.749  21.502 -16.301  1.00  0.00    -0.325 N 
HETATM   17  C   UNL     1     -30.417  20.253 -16.932  1.00  0.00     0.245 C 
HETATM   18  O   UNL     1     -31.154  19.738 -17.703  1.00  0.00    -0.271 OA
ATOM     19  HN  UNL     1     -30.066  21.889 -15.650  1.00  0.00     0.169 HD
BRANCH  17  20
HETATM   20  C   UNL     1     -29.066  19.658 -16.540  1.00  0.00     0.267 C 
BRANCH  20  21
HETATM   21  O   UNL     1     -29.294  18.828 -15.428  1.00  0.00    -0.392 OA
ATOM     22  HO  UNL     1     -30.227  18.654 -15.401  1.00  0.00     0.210 HD
ENDBRANCH  20  21
ENDBRANCH  17  20
ENDBRANCH  13  16
ENDBRANCH   9  10
ENDBRANCH   5   9
BRANCH   7  23
HETATM   23  C   UNL     1     -35.182  30.495 -19.258  1.00  0.00     0.118 A 
HETATM   24  N   UNL     1     -34.156  30.647 -20.031  1.00  0.00    -0.284 N 
HETATM   25  N   UNL     1     -34.048  31.783 -20.699  1.00  0.00    -0.288 N 
ATOM     26  HN  UNL     1     -33.453  29.913 -20.122  1.00  0.00     0.188 HD
HETATM   27  C   UNL     1     -34.952  32.701 -20.595  1.00  0.00     0.118 A 
ATOM     28  HN  UNL     1     -33.241  31.937 -21.304  1.00  0.00     0.188 HD
HETATM   29 CL   UNL     1     -34.711  34.166 -21.536  1.00  0.00    -0.063 Cl
HETATM   30  C   UNL     1     -36.085  32.614 -19.799  1.00  0.00     0.047 A 
HETATM   31  C   UNL     1     -36.211  31.419 -19.074  1.00  0.00     0.053 A 
ENDBRANCH   7  23
TORSDOF 6
ENDMDL
MODEL 5
REMARK VINA RESULT:    -6.287      7.352     11.744
REMARK INTER + INTRA:          -8.816
REMARK INTER:                  -8.178
REMARK INTRA:                  -0.637
REMARK UNBOUND:                -0.508
REMARK  6 active torsions:
REMARK  status: ('A' for Active; 'I' for Inactive)
REMARK    1  A    between atoms: C_5  and  N_25 
REMARK    2  A    between atoms: C_8  and  C_9 
REMARK    3  A    between atoms: C_9  and  C_10 
REMARK       I    between atoms: C_10  and  N_19 
REMARK    4  A    between atoms: C_11  and  N_20 
REMARK    5  A    between atoms: C_15  and  C_16 
REMARK       I    between atoms: C_15  and  N_25 
REMARK    6  A    between atoms: C_16  and  O_28 
ROOT
HETATM    1  C   UNL     1     -35.483  19.101 -17.978  1.00  0.00     0.151 C 
HETATM    2  C   UNL     1     -34.848  17.760 -18.266  1.00  0.00     0.145 C 
HETATM    3  C   UNL     1     -35.978  18.381 -15.707  1.00  0.00     0.086 C 
HETATM    4  C   UNL     1     -35.324  17.053 -16.011  1.00  0.00     0.169 C 
HETATM    5  C   UNL     1     -35.068  20.646 -16.123  1.00  0.00     0.227 C 
HETATM    6  N   UNL     1     -35.511  19.372 -16.592  1.00  0.00    -0.329 N 
HETATM    7  N   UNL     1     -35.609  16.801 -17.440  1.00  0.00    -0.360 N 
HETATM    8  O   UNL     1     -35.091  20.883 -14.970  1.00  0.00    -0.273 OA
ENDROOT
BRANCH   5   9
HETATM    9  C   UNL     1     -34.588  21.627 -17.188  1.00  0.00     0.141 C 
BRANCH   9  10
HETATM   10  C   UNL     1     -33.073  21.650 -17.201  1.00  0.00    -0.049 A 
HETATM   11  C   UNL     1     -32.411  21.017 -18.233  1.00  0.00     0.010 A 
HETATM   12  C   UNL     1     -31.030  21.020 -18.285  1.00  0.00     0.030 A 
HETATM   13  C   UNL     1     -30.324  21.670 -17.280  1.00  0.00     0.034 A 
HETATM   14  C   UNL     1     -30.990  22.319 -16.255  1.00  0.00     0.030 A 
HETATM   15  C   UNL     1     -32.373  22.306 -16.210  1.00  0.00     0.010 A 
BRANCH  13  16
HETATM   16  N   UNL     1     -28.881  21.742 -17.279  1.00  0.00    -0.325 N 
HETATM   17  C   UNL     1     -27.990  20.854 -16.583  1.00  0.00     0.245 C 
HETATM   18  O   UNL     1     -28.403  19.955 -15.932  1.00  0.00    -0.271 OA
ATOM     19  HN  UNL     1     -28.456  22.493 -17.823  1.00  0.00     0.169 HD
BRANCH  17  20
HETATM   20  C   UNL     1     -26.502  21.154 -16.747  1.00  0.00     0.267 C 
BRANCH  20  21
HETATM   21  O   UNL     1     -26.404  22.456 -17.269  1.00  0.00    -0.392 OA
ATOM     22  HO  UNL     1     -25.479  22.673 -17.296  1.00  0.00     0.210 HD
ENDBRANCH  20  21
ENDBRANCH  17  20
ENDBRANCH  13  16
ENDBRANCH   9  10
ENDBRANCH   5   9
BRANCH   7  23
HETATM   23  C   UNL     1     -35.792  15.463 -17.861  1.00  0.00     0.118 A 
HETATM   24  N   UNL     1     -34.991  14.591 -17.339  1.00  0.00    -0.284 N 
HETATM   25  N   UNL     1     -35.122  13.330 -17.714  1.00  0.00    -0.288 N 
ATOM     26  HN  UNL     1     -34.282  14.868 -16.660  1.00  0.00     0.188 HD
HETATM   27  C   UNL     1     -36.035  12.982 -18.560  1.00  0.00     0.118 A 
ATOM     28  HN  UNL     1     -34.494  12.623 -17.331  1.00  0.00     0.188 HD
HETATM   29 CL   UNL     1     -36.125  11.278 -18.979  1.00  0.00    -0.063 Cl
HETATM   30  C   UNL     1     -36.938  13.851 -19.157  1.00  0.00     0.047 A 
HETATM   31  C   UNL     1     -36.807  15.196 -18.778  1.00  0.00     0.053 A 
ENDBRANCH   7  23
TORSDOF 6
ENDMDL
MODEL 6
REMARK VINA RESULT:    -6.261      8.520     14.662
REMARK INTER + INTRA:          -8.781
REMARK INTER:                  -8.028
REMARK INTRA:                  -0.754
REMARK UNBOUND:                -0.508
REMARK  6 active torsions:
REMARK  status: ('A' for Active; 'I' for Inactive)
REMARK    1  A    between atoms: C_5  and  N_25 
REMARK    2  A    between atoms: C_8  and  C_9 
REMARK    3  A    between atoms: C_9  and  C_10 
REMARK       I    between atoms: C_10  and  N_19 
REMARK    4  A    between atoms: C_11  and  N_20 
REMARK    5  A    between atoms: C_15  and  C_16 
REMARK       I    between atoms: C_15  and  N_25 
REMARK    6  A    between atoms: C_16  and  O_28 
ROOT
HETATM    1  C   UNL     1     -35.839  24.030 -17.523  1.00  0.00     0.151 C 
HETATM    2  C   UNL     1     -35.660  25.043 -16.416  1.00  0.00     0.145 C 
HETATM    3  C   UNL     1     -35.122  25.685 -19.157  1.00  0.00     0.086 C 
HETATM    4  C   UNL     1     -34.934  26.677 -18.034  1.00  0.00     0.169 C 
HETATM    5  C   UNL     1     -34.270  23.363 -19.283  1.00  0.00     0.227 C 
HETATM    6  N   UNL     1     -35.073  24.367 -18.661  1.00  0.00    -0.329 N 
HETATM    7  N   UNL     1     -35.980  26.341 -17.044  1.00  0.00    -0.360 N 
HETATM    8  O   UNL     1     -33.631  23.632 -20.233  1.00  0.00    -0.273 OA
ENDROOT
BRANCH   5   9
HETATM    9  C   UNL     1     -34.309  21.978 -18.643  1.00  0.00     0.141 C 
BRANCH   9  10
HETATM   10  C   UNL     1     -32.981  21.699 -17.970  1.00  0.00    -0.049 A 
HETATM   11  C   UNL     1     -32.321  20.527 -18.271  1.00  0.00     0.010 A 
HETATM   12  C   UNL     1     -31.104  20.237 -17.683  1.00  0.00     0.030 A 
HETATM   13  C   UNL     1     -30.561  21.149 -16.785  1.00  0.00     0.034 A 
HETATM   14  C   UNL     1     -31.217  22.333 -16.498  1.00  0.00     0.030 A 
HETATM   15  C   UNL     1     -32.437  22.611 -17.089  1.00  0.00     0.010 A 
BRANCH  13  16
HETATM   16  N   UNL     1     -29.282  20.932 -16.151  1.00  0.00    -0.325 N 
HETATM   17  C   UNL     1     -28.000  21.311 -16.683  1.00  0.00     0.245 C 
HETATM   18  O   UNL     1     -27.905  21.856 -17.730  1.00  0.00    -0.271 OA
ATOM     19  HN  UNL     1     -29.287  20.468 -15.243  1.00  0.00     0.169 HD
BRANCH  17  20
HETATM   20  C   UNL     1     -26.797  20.962 -15.809  1.00  0.00     0.267 C 
BRANCH  20  21
HETATM   21  O   UNL     1     -27.228  21.039 -14.473  1.00  0.00    -0.392 OA
ATOM     22  HO  UNL     1     -27.795  20.291 -14.323  1.00  0.00     0.210 HD
ENDBRANCH  20  21
ENDBRANCH  17  20
ENDBRANCH  13  16
ENDBRANCH   9  10
ENDBRANCH   5   9
BRANCH   7  23
HETATM   23  C   UNL     1     -36.550  27.393 -16.288  1.00  0.00     0.118 A 
HETATM   24  N   UNL     1     -37.291  27.037 -15.290  1.00  0.00    -0.284 N 
HETATM   25  N   UNL     1     -37.851  27.990 -14.564  1.00  0.00    -0.288 N 
ATOM     26  HN  UNL     1     -37.439  26.051 -15.070  1.00  0.00     0.188 HD
HETATM   27  C   UNL     1     -37.644  29.237 -14.836  1.00  0.00     0.118 A 
ATOM     28  HN  UNL     1     -38.453  27.738 -13.780  1.00  0.00     0.188 HD
HETATM   29 CL   UNL     1     -38.429  30.418 -13.799  1.00  0.00    -0.063 Cl
HETATM   30  C   UNL     1     -36.856  29.703 -15.880  1.00  0.00     0.047 A 
HETATM   31  C   UNL     1     -36.262  28.704 -16.667  1.00  0.00     0.053 A 
ENDBRANCH   7  23
TORSDOF 6
ENDMDL
MODEL 7
REMARK VINA RESULT:    -6.224      1.719      2.652
REMARK INTER + INTRA:          -8.733
REMARK INTER:                  -8.247
REMARK INTRA:                  -0.486
REMARK UNBOUND:                -0.508
REMARK  6 active torsions:
REMARK  status: ('A' for Active; 'I' for Inactive)
REMARK    1  A    between atoms: C_5  and  N_25 
REMARK    2  A    between atoms: C_8  and  C_9 
REMARK    3  A    between atoms: C_9  and  C_10 
REMARK       I    between atoms: C_10  and  N_19 
REMARK    4  A    between atoms: C_11  and  N_20 
REMARK    5  A    between atoms: C_15  and  C_16 
REMARK       I    between atoms: C_15  and  N_25 
REMARK    6  A    between atoms: C_16  and  O_28 
ROOT
HETATM    1  C   UNL     1     -21.792  16.713 -21.093  1.00  0.00     0.151 C 
HETATM    2  C   UNL     1     -20.297  16.937 -21.113  1.00  0.00     0.145 C 
HETATM    3  C   UNL     1     -21.617  15.721 -18.878  1.00  0.00     0.086 C 
HETATM    4  C   UNL     1     -20.127  15.969 -18.911  1.00  0.00     0.169 C 
HETATM    5  C   UNL     1     -23.429  17.333 -19.380  1.00  0.00     0.227 C 
HETATM    6  N   UNL     1     -22.278  16.586 -19.773  1.00  0.00    -0.329 N 
HETATM    7  N   UNL     1     -19.742  15.814 -20.330  1.00  0.00    -0.360 N 
HETATM    8  O   UNL     1     -23.845  17.231 -18.284  1.00  0.00    -0.273 OA
ENDROOT
BRANCH   5   9
HETATM    9  C   UNL     1     -24.048  18.230 -20.448  1.00  0.00     0.141 C 
BRANCH   9  10
HETATM   10  C   UNL     1     -25.235  18.965 -19.860  1.00  0.00    -0.049 A 
HETATM   11  C   UNL     1     -25.050  20.245 -19.383  1.00  0.00     0.010 A 
HETATM   12  C   UNL     1     -26.108  20.952 -18.843  1.00  0.00     0.030 A 
HETATM   13  C   UNL     1     -27.358  20.347 -18.791  1.00  0.00     0.034 A 
HETATM   14  C   UNL     1     -27.546  19.069 -19.286  1.00  0.00     0.030 A 
HETATM   15  C   UNL     1     -26.478  18.368 -19.820  1.00  0.00     0.010 A 
BRANCH  13  16
HETATM   16  N   UNL     1     -28.519  21.030 -18.270  1.00  0.00    -0.325 N 
HETATM   17  C   UNL     1     -29.021  20.939 -16.924  1.00  0.00     0.245 C 
HETATM   18  O   UNL     1     -28.483  20.265 -16.112  1.00  0.00    -0.271 OA
ATOM     19  HN  UNL     1     -29.031  21.631 -18.915  1.00  0.00     0.169 HD
BRANCH  17  20
HETATM   20  C   UNL     1     -30.272  21.764 -16.632  1.00  0.00     0.267 C 
BRANCH  20  21
HETATM   21  O   UNL     1     -30.219  22.895 -17.467  1.00  0.00    -0.392 OA
ATOM     22  HO  UNL     1     -29.517  22.745 -18.089  1.00  0.00     0.210 HD
ENDBRANCH  20  21
ENDBRANCH  17  20
ENDBRANCH  13  16
ENDBRANCH   9  10
ENDBRANCH   5   9
BRANCH   7  23
HETATM   23  C   UNL     1     -18.463  15.286 -20.624  1.00  0.00     0.118 A 
HETATM   24  N   UNL     1     -18.072  14.302 -19.880  1.00  0.00    -0.284 N 
HETATM   25  N   UNL     1     -16.877  13.787 -20.115  1.00  0.00    -0.288 N 
ATOM     26  HN  UNL     1     -18.667  13.936 -19.137  1.00  0.00     0.188 HD
HETATM   27  C   UNL     1     -16.136  14.242 -21.072  1.00  0.00     0.118 A 
ATOM     28  HN  UNL     1     -16.536  13.020 -19.535  1.00  0.00     0.188 HD
HETATM   29 CL   UNL     1     -14.571  13.475 -21.301  1.00  0.00    -0.063 Cl
HETATM   30  C   UNL     1     -16.484  15.285 -21.919  1.00  0.00     0.047 A 
HETATM   31  C   UNL     1     -17.745  15.851 -21.677  1.00  0.00     0.053 A 
ENDBRANCH   7  23
TORSDOF 6
ENDMDL
MODEL 8
REMARK VINA RESULT:    -6.174      1.267      1.637
REMARK INTER + INTRA:          -8.667
REMARK INTER:                  -8.508
REMARK INTRA:                  -0.158
REMARK UNBOUND:                -0.508
REMARK  6 active torsions:
REMARK  status: ('A' for Active; 'I' for Inactive)
REMARK    1  A    between atoms: C_5  and  N_25 
REMARK    2  A    between atoms: C_8  and  C_9 
REMARK    3  A    between atoms: C_9  and  C_10 
REMARK       I    between atoms: C_10  and  N_19 
REMARK    4  A    between atoms: C_11  and  N_20 
REMARK    5  A    between atoms: C_15  and  C_16 
REMARK       I    between atoms: C_15  and  N_25 
REMARK    6  A    between atoms: C_16  and  O_28 
ROOT
HETATM    1  C   UNL     1     -22.796  16.786 -18.638  1.00  0.00     0.151 C 
HETATM    2  C   UNL     1     -21.904  15.733 -19.255  1.00  0.00     0.145 C 
HETATM    3  C   UNL     1     -22.875  17.968 -20.764  1.00  0.00     0.086 C 
HETATM    4  C   UNL     1     -21.996  16.896 -21.365  1.00  0.00     0.169 C 
HETATM    5  C   UNL     1     -24.942  17.659 -19.435  1.00  0.00     0.227 C 
HETATM    6  N   UNL     1     -23.539  17.475 -19.623  1.00  0.00    -0.329 N 
HETATM    7  N   UNL     1     -21.110  16.462 -20.264  1.00  0.00    -0.360 N 
HETATM    8  O   UNL     1     -25.569  18.235 -20.248  1.00  0.00    -0.273 OA
ENDROOT
BRANCH   5   9
HETATM    9  C   UNL     1     -25.533  17.076 -18.155  1.00  0.00     0.141 C 
BRANCH   9  10
HETATM   10  C   UNL     1     -26.641  17.981 -17.657  1.00  0.00    -0.049 A 
HETATM   11  C   UNL     1     -26.371  19.322 -17.482  1.00  0.00     0.010 A 
HETATM   12  C   UNL     1     -27.356  20.183 -17.034  1.00  0.00     0.030 A 
HETATM   13  C   UNL     1     -28.620  19.671 -16.766  1.00  0.00     0.034 A 
HETATM   14  C   UNL     1     -28.894  18.328 -16.960  1.00  0.00     0.030 A 
HETATM   15  C   UNL     1     -27.899  17.474 -17.404  1.00  0.00     0.010 A 
BRANCH  13  16
HETATM   16  N   UNL     1     -29.709  20.509 -16.324  1.00  0.00    -0.325 N 
HETATM   17  C   UNL     1     -30.101  21.765 -16.907  1.00  0.00     0.245 C 
HETATM   18  O   UNL     1     -29.527  22.215 -17.840  1.00  0.00    -0.271 OA
ATOM     19  HN  UNL     1     -30.251  20.182 -15.525  1.00  0.00     0.169 HD
BRANCH  17  20
HETATM   20  C   UNL     1     -31.291  22.455 -16.244  1.00  0.00     0.267 C 
BRANCH  20  21
HETATM   21  O   UNL     1     -32.322  21.502 -16.164  1.00  0.00    -0.392 OA
ATOM     22  HO  UNL     1     -33.091  21.893 -16.562  1.00  0.00     0.210 HD
ENDBRANCH  20  21
ENDBRANCH  17  20
ENDBRANCH  13  16
ENDBRANCH   9  10
ENDBRANCH   5   9
BRANCH   7  23
HETATM   23  C   UNL     1     -19.793  16.056 -20.584  1.00  0.00     0.118 A 
HETATM   24  N   UNL     1     -19.115  16.869 -21.328  1.00  0.00    -0.284 N 
HETATM   25  N   UNL     1     -17.882  16.521 -21.659  1.00  0.00    -0.288 N 
ATOM     26  HN  UNL     1     -19.518  17.750 -21.648  1.00  0.00     0.188 HD
HETATM   27  C   UNL     1     -17.370  15.413 -21.233  1.00  0.00     0.118 A 
ATOM     28  HN  UNL     1     -17.329  17.135 -22.257  1.00  0.00     0.188 HD
HETATM   29 CL   UNL     1     -15.721  15.057 -21.726  1.00  0.00    -0.063 Cl
HETATM   30  C   UNL     1     -18.025  14.493 -20.426  1.00  0.00     0.047 A 
HETATM   31  C   UNL     1     -19.338  14.841 -20.074  1.00  0.00     0.053 A 
ENDBRANCH   7  23
TORSDOF 6
ENDMDL
MODEL 9
REMARK VINA RESULT:    -6.104      4.799      5.468
REMARK INTER + INTRA:          -8.574
REMARK INTER:                  -7.986
REMARK INTRA:                  -0.588
REMARK UNBOUND:                -0.508
REMARK  6 active torsions:
REMARK  status: ('A' for Active; 'I' for Inactive)
REMARK    1  A    between atoms: C_5  and  N_25 
REMARK    2  A    between atoms: C_8  and  C_9 
REMARK    3  A    between atoms: C_9  and  C_10 
REMARK       I    between atoms: C_10  and  N_19 
REMARK    4  A    between atoms: C_11  and  N_20 
REMARK    5  A    between atoms: C_15  and  C_16 
REMARK       I    between atoms: C_15  and  N_25 
REMARK    6  A    between atoms: C_16  and  O_28 
ROOT
HETATM    1  C   UNL     1     -22.181  14.718 -20.243  1.00  0.00     0.151 C 
HETATM    2  C   UNL     1     -20.978  15.094 -21.077  1.00  0.00     0.145 C 
HETATM    3  C   UNL     1     -21.320  16.049 -18.397  1.00  0.00     0.086 C 
HETATM    4  C   UNL     1     -20.134  16.426 -19.253  1.00  0.00     0.169 C 
HETATM    5  C   UNL     1     -23.719  16.164 -19.001  1.00  0.00     0.227 C 
HETATM    6  N   UNL     1     -22.403  15.651 -19.206  1.00  0.00    -0.329 N 
HETATM    7  N   UNL     1     -19.879  15.242 -20.101  1.00  0.00    -0.360 N 
HETATM    8  O   UNL     1     -23.915  16.939 -18.137  1.00  0.00    -0.273 OA
ENDROOT
BRANCH   5   9
HETATM    9  C   UNL     1     -24.798  15.648 -19.948  1.00  0.00     0.141 C 
BRANCH   9  10
HETATM   10  C   UNL     1     -25.831  14.872 -19.155  1.00  0.00    -0.049 A 
HETATM   11  C   UNL     1     -27.167  15.088 -19.422  1.00  0.00     0.010 A 
HETATM   12  C   UNL     1     -28.140  14.397 -18.725  1.00  0.00     0.030 A 
HETATM   13  C   UNL     1     -27.747  13.483 -17.754  1.00  0.00     0.034 A 
HETATM   14  C   UNL     1     -26.405  13.256 -17.501  1.00  0.00     0.030 A 
HETATM   15  C   UNL     1     -25.439  13.957 -18.201  1.00  0.00     0.010 A 
BRANCH  13  16
HETATM   16  N   UNL     1     -28.702  12.701 -17.004  1.00  0.00    -0.325 N 
HETATM   17  C   UNL     1     -29.500  13.170 -15.904  1.00  0.00     0.245 C 
HETATM   18  O   UNL     1     -29.425  14.288 -15.522  1.00  0.00    -0.271 OA
ATOM     19  HN  UNL     1     -28.820  11.727 -17.281  1.00  0.00     0.169 HD
BRANCH  17  20
HETATM   20  C   UNL     1     -30.434  12.133 -15.281  1.00  0.00     0.267 C 
BRANCH  20  21
HETATM   21  O   UNL     1     -30.387  12.326 -13.889  1.00  0.00    -0.392 OA
ATOM     22  HO  UNL     1     -29.817  13.071 -13.734  1.00  0.00     0.210 HD
ENDBRANCH  20  21
ENDBRANCH  17  20
ENDBRANCH  13  16
ENDBRANCH   9  10
ENDBRANCH   5   9
BRANCH   7  23
HETATM   23  C   UNL     1     -18.542  14.952 -20.462  1.00  0.00     0.118 A 
HETATM   24  N   UNL     1     -17.966  14.009 -19.790  1.00  0.00    -0.284 N 
HETATM   25  N   UNL     1     -16.712  13.714 -20.090  1.00  0.00    -0.288 N 
ATOM     26  HN  UNL     1     -18.463  13.509 -19.053  1.00  0.00     0.188 HD
HETATM   27  C   UNL     1     -16.094  14.338 -21.039  1.00  0.00     0.118 A 
ATOM     28  HN  UNL     1     -16.227  12.985 -19.566  1.00  0.00     0.188 HD
HETATM   29 CL   UNL     1     -14.434  13.856 -21.358  1.00  0.00    -0.063 Cl
HETATM   30  C   UNL     1     -16.641  15.352 -21.812  1.00  0.00     0.047 A 
HETATM   31  C   UNL     1     -17.969  15.686 -21.500  1.00  0.00     0.053 A 
ENDBRANCH   7  23
TORSDOF 6
ENDMDL
MODEL 10
REMARK VINA RESULT:    -6.063      3.380      4.125
REMARK INTER + INTRA:          -8.520
REMARK INTER:                  -7.770
REMARK INTRA:                  -0.750
REMARK UNBOUND:                -0.508
REMARK  6 active torsions:
REMARK  status: ('A' for Active; 'I' for Inactive)
REMARK    1  A    between atoms: C_5  and  N_25 
REMARK    2  A    between atoms: C_8  and  C_9 
REMARK    3  A    between atoms: C_9  and  C_10 
REMARK       I    between atoms: C_10  and  N_19 
REMARK    4  A    between atoms: C_11  and  N_20 
REMARK    5  A    between atoms: C_15  and  C_16 
REMARK       I    between atoms: C_15  and  N_25 
REMARK    6  A    between atoms: C_16  and  O_28 
ROOT
HETATM    1  C   UNL     1     -22.672  18.065 -19.657  1.00  0.00     0.151 C 
HETATM    2  C   UNL     1     -21.756  16.913 -19.313  1.00  0.00     0.145 C 
HETATM    3  C   UNL     1     -23.139  17.052 -21.820  1.00  0.00     0.086 C 
HETATM    4  C   UNL     1     -22.231  15.903 -21.450  1.00  0.00     0.169 C 
HETATM    5  C   UNL     1     -24.981  18.017 -20.476  1.00  0.00     0.227 C 
HETATM    6  N   UNL     1     -23.600  17.706 -20.660  1.00  0.00    -0.329 N 
HETATM    7  N   UNL     1     -21.174  16.501 -20.607  1.00  0.00    -0.360 N 
HETATM    8  O   UNL     1     -25.761  17.726 -21.307  1.00  0.00    -0.273 OA
ENDROOT
BRANCH   5   9
HETATM    9  C   UNL     1     -25.344  18.727 -19.175  1.00  0.00     0.141 C 
BRANCH   9  10
HETATM   10  C   UNL     1     -26.195  17.807 -18.323  1.00  0.00    -0.049 A 
HETATM   11  C   UNL     1     -27.510  18.152 -18.091  1.00  0.00     0.010 A 
HETATM   12  C   UNL     1     -28.323  17.338 -17.324  1.00  0.00     0.030 A 
HETATM   13  C   UNL     1     -27.789  16.169 -16.794  1.00  0.00     0.034 A 
HETATM   14  C   UNL     1     -26.474  15.816 -17.043  1.00  0.00     0.030 A 
HETATM   15  C   UNL     1     -25.668  16.641 -17.808  1.00  0.00     0.010 A 
BRANCH  13  16
HETATM   16  N   UNL     1     -28.581  15.252 -16.008  1.00  0.00    -0.325 N 
HETATM   17  C   UNL     1     -29.479  14.254 -16.522  1.00  0.00     0.245 C 
HETATM   18  O   UNL     1     -29.634  14.108 -17.687  1.00  0.00    -0.271 OA
ATOM     19  HN  UNL     1     -28.495  15.319 -14.994  1.00  0.00     0.169 HD
BRANCH  17  20
HETATM   20  C   UNL     1     -30.200  13.413 -15.470  1.00  0.00     0.267 C 
BRANCH  20  21
HETATM   21  O   UNL     1     -30.240  14.180 -14.293  1.00  0.00    -0.392 OA
ATOM     22  HO  UNL     1     -29.988  15.064 -14.532  1.00  0.00     0.210 HD
ENDBRANCH  20  21
ENDBRANCH  17  20
ENDBRANCH  13  16
ENDBRANCH   9  10
ENDBRANCH   5   9
BRANCH   7  23
HETATM   23  C   UNL     1     -19.871  15.954 -20.677  1.00  0.00     0.118 A 
HETATM   24  N   UNL     1     -18.960  16.725 -21.174  1.00  0.00    -0.284 N 
HETATM   25  N   UNL     1     -17.729  16.248 -21.267  1.00  0.00    -0.288 N 
ATOM     26  HN  UNL     1     -19.182  17.671 -21.485  1.00  0.00     0.188 HD
HETATM   27  C   UNL     1     -17.449  15.056 -20.853  1.00  0.00     0.118 A 
ATOM     28  HN  UNL     1     -16.993  16.828 -21.669  1.00  0.00     0.188 HD
HETATM   29 CL   UNL     1     -15.781  14.529 -21.014  1.00  0.00    -0.063 Cl
HETATM   30  C   UNL     1     -18.364  14.171 -20.300  1.00  0.00     0.047 A 
HETATM   31  C   UNL     1     -19.677  14.657 -20.204  1.00  0.00     0.053 A 
ENDBRANCH   7  23
TORSDOF 6
ENDMDL
MODEL 11
REMARK VINA RESULT:    -6.051      6.229      8.556
REMARK INTER + INTRA:          -8.505
REMARK INTER:                  -7.918
REMARK INTRA:                  -0.587
REMARK UNBOUND:                -0.508
REMARK  6 active torsions:
REMARK  status: ('A' for Active; 'I' for Inactive)
REMARK    1  A    between atoms: C_5  and  N_25 
REMARK    2  A    between atoms: C_8  and  C_9 
REMARK    3  A    between atoms: C_9  and  C_10 
REMARK       I    between atoms: C_10  and  N_19 
REMARK    4  A    between atoms: C_11  and  N_20 
REMARK    5  A    between atoms: C_15  and  C_16 
REMARK       I    between atoms: C_15  and  N_25 
REMARK    6  A    between atoms: C_16  and  O_28 
ROOT
HETATM    1  C   UNL     1     -27.493  18.504 -18.860  1.00  0.00     0.151 C 
HETATM    2  C   UNL     1     -27.381  17.363 -17.875  1.00  0.00     0.145 C 
HETATM    3  C   UNL     1     -29.165  19.564 -17.444  1.00  0.00     0.086 C 
HETATM    4  C   UNL     1     -29.026  18.421 -16.466  1.00  0.00     0.169 C 
HETATM    5  C   UNL     1     -27.355  20.917 -18.457  1.00  0.00     0.227 C 
HETATM    6  N   UNL     1     -28.011  19.667 -18.246  1.00  0.00    -0.329 N 
HETATM    7  N   UNL     1     -28.734  17.234 -17.298  1.00  0.00    -0.360 N 
HETATM    8  O   UNL     1     -27.781  21.892 -17.954  1.00  0.00    -0.273 OA
ENDROOT
BRANCH   5   9
HETATM    9  C   UNL     1     -26.117  20.886 -19.347  1.00  0.00     0.141 C 
BRANCH   9  10
HETATM   10  C   UNL     1     -26.305  21.851 -20.501  1.00  0.00    -0.049 A 
HETATM   11  C   UNL     1     -25.295  22.746 -20.784  1.00  0.00     0.010 A 
HETATM   12  C   UNL     1     -25.424  23.640 -21.831  1.00  0.00     0.030 A 
HETATM   13  C   UNL     1     -26.589  23.617 -22.589  1.00  0.00     0.034 A 
HETATM   14  C   UNL     1     -27.594  22.707 -22.313  1.00  0.00     0.030 A 
HETATM   15  C   UNL     1     -27.456  21.819 -21.260  1.00  0.00     0.010 A 
BRANCH  13  16
HETATM   16  N   UNL     1     -26.788  24.498 -23.716  1.00  0.00    -0.325 N 
HETATM   17  C   UNL     1     -27.078  25.905 -23.649  1.00  0.00     0.245 C 
HETATM   18  O   UNL     1     -27.175  26.465 -22.610  1.00  0.00    -0.271 OA
ATOM     19  HN  UNL     1     -26.716  24.084 -24.645  1.00  0.00     0.169 HD
BRANCH  17  20
HETATM   20  C   UNL     1     -27.246  26.607 -24.996  1.00  0.00     0.267 C 
BRANCH  20  21
HETATM   21  O   UNL     1     -27.145  27.988 -24.752  1.00  0.00    -0.392 OA
ATOM     22  HO  UNL     1     -26.882  28.394 -25.569  1.00  0.00     0.210 HD
ENDBRANCH  20  21
ENDBRANCH  17  20
ENDBRANCH  13  16
ENDBRANCH   9  10
ENDBRANCH   5   9
BRANCH   7  23
HETATM   23  C   UNL     1     -29.225  15.979 -16.870  1.00  0.00     0.118 A 
HETATM   24  N   UNL     1     -29.484  15.872 -15.607  1.00  0.00    -0.284 N 
HETATM   25  N   UNL     1     -29.935  14.711 -15.164  1.00  0.00    -0.288 N 
ATOM     26  HN  UNL     1     -29.344  16.660 -14.973  1.00  0.00     0.188 HD
HETATM   27  C   UNL     1     -30.130  13.723 -15.975  1.00  0.00     0.118 A 
ATOM     28  HN  UNL     1     -30.133  14.593 -14.170  1.00  0.00     0.188 HD
HETATM   29 CL   UNL     1     -30.742  12.230 -15.279  1.00  0.00    -0.063 Cl
HETATM   30  C   UNL     1     -29.888  13.758 -17.341  1.00  0.00     0.047 A 
HETATM   31  C   UNL     1     -29.398  14.980 -17.827  1.00  0.00     0.053 A 
ENDBRANCH   7  23
TORSDOF 6
ENDMDL
MODEL 12
REMARK VINA RESULT:    -6.012      3.026      4.633
REMARK INTER + INTRA:          -8.453
REMARK INTER:                  -7.687
REMARK INTRA:                  -0.766
REMARK UNBOUND:                -0.508
REMARK  6 active torsions:
REMARK  status: ('A' for Active; 'I' for Inactive)
REMARK    1  A    between atoms: C_5  and  N_25 
REMARK    2  A    between atoms: C_8  and  C_9 
REMARK    3  A    between atoms: C_9  and  C_10 
REMARK       I    between atoms: C_10  and  N_19 
REMARK    4  A    between atoms: C_11  and  N_20 
REMARK    5  A    between atoms: C_15  and  C_16 
REMARK       I    between atoms: C_15  and  N_25 
REMARK    6  A    between atoms: C_16  and  O_28 
ROOT
HETATM    1  C   UNL     1     -22.351  12.998 -19.856  1.00  0.00     0.151 C 
HETATM    2  C   UNL     1     -21.337  14.107 -20.020  1.00  0.00     0.145 C 
HETATM    3  C   UNL     1     -21.245  12.286 -17.809  1.00  0.00     0.086 C 
HETATM    4  C   UNL     1     -20.252  13.411 -17.983  1.00  0.00     0.169 C 
HETATM    5  C   UNL     1     -23.716  12.421 -17.906  1.00  0.00     0.227 C 
HETATM    6  N   UNL     1     -22.432  12.566 -18.514  1.00  0.00    -0.329 N 
HETATM    7  N   UNL     1     -20.091  13.562 -19.445  1.00  0.00    -0.360 N 
HETATM    8  O   UNL     1     -23.794  12.058 -16.789  1.00  0.00    -0.273 OA
ENDROOT
BRANCH   5   9
HETATM    9  C   UNL     1     -24.918  12.757 -18.782  1.00  0.00     0.141 C 
BRANCH   9  10
HETATM   10  C   UNL     1     -25.600  13.998 -18.243  1.00  0.00    -0.049 A 
HETATM   11  C   UNL     1     -26.839  13.869 -17.653  1.00  0.00     0.010 A 
HETATM   12  C   UNL     1     -27.492  14.976 -17.145  1.00  0.00     0.030 A 
HETATM   13  C   UNL     1     -26.875  16.218 -17.239  1.00  0.00     0.034 A 
HETATM   14  C   UNL     1     -25.624  16.343 -17.816  1.00  0.00     0.030 A 
HETATM   15  C   UNL     1     -24.981  15.229 -18.327  1.00  0.00     0.010 A 
BRANCH  13  16
HETATM   16  N   UNL     1     -27.479  17.417 -16.706  1.00  0.00    -0.325 N 
HETATM   17  C   UNL     1     -28.494  18.210 -17.346  1.00  0.00     0.245 C 
HETATM   18  O   UNL     1     -28.926  17.914 -18.409  1.00  0.00    -0.271 OA
ATOM     19  HN  UNL     1     -27.156  17.730 -15.791  1.00  0.00     0.169 HD
BRANCH  17  20
HETATM   20  C   UNL     1     -28.961  19.436 -16.564  1.00  0.00     0.267 C 
BRANCH  20  21
HETATM   21  O   UNL     1     -28.756  19.153 -15.202  1.00  0.00    -0.392 OA
ATOM     22  HO  UNL     1     -27.820  19.205 -15.048  1.00  0.00     0.210 HD
ENDBRANCH  20  21
ENDBRANCH  17  20
ENDBRANCH  13  16
ENDBRANCH   9  10
ENDBRANCH   5   9
BRANCH   7  23
HETATM   23  C   UNL     1     -18.827  13.956 -19.943  1.00  0.00     0.118 A 
HETATM   24  N   UNL     1     -17.818  13.251 -19.548  1.00  0.00    -0.284 N 
HETATM   25  N   UNL     1     -16.616  13.593 -19.983  1.00  0.00    -0.288 N 
ATOM     26  HN  UNL     1     -17.944  12.455 -18.921  1.00  0.00     0.188 HD
HETATM   27  C   UNL     1     -16.465  14.589 -20.792  1.00  0.00     0.118 A 
ATOM     28  HN  UNL     1     -15.800  13.064 -19.676  1.00  0.00     0.188 HD
HETATM   29 CL   UNL     1     -14.825  14.948 -21.315  1.00  0.00    -0.063 Cl
HETATM   30  C   UNL     1     -17.494  15.389 -21.271  1.00  0.00     0.047 A 
HETATM   31  C   UNL     1     -18.775  15.046 -20.811  1.00  0.00     0.053 A 
ENDBRANCH   7  23
TORSDOF 6
ENDMDL
MODEL 13
REMARK VINA RESULT:    -5.988      2.825      4.351
REMARK INTER + INTRA:          -8.421
REMARK INTER:                  -7.673
REMARK INTRA:                  -0.748
REMARK UNBOUND:                -0.508
REMARK  6 active torsions:
REMARK  status: ('A' for Active; 'I' for Inactive)
REMARK    1  A    between atoms: C_5  and  N_25 
REMARK    2  A    between atoms: C_8  and  C_9 
REMARK    3  A    between atoms: C_9  and  C_10 
REMARK       I    between atoms: C_10  and  N_19 
REMARK    4  A    between atoms: C_11  and  N_20 
REMARK    5  A    between atoms: C_15  and  C_16 
REMARK       I    between atoms: C_15  and  N_25 
REMARK    6  A    between atoms: C_16  and  O_28 
ROOT
HETATM    1  C   UNL     1     -21.819  14.417 -20.698  1.00  0.00     0.151 C 
HETATM    2  C   UNL     1     -21.222  15.729 -21.151  1.00  0.00     0.145 C 
HETATM    3  C   UNL     1     -20.193  14.297 -18.892  1.00  0.00     0.086 C 
HETATM    4  C   UNL     1     -19.621  15.617 -19.351  1.00  0.00     0.169 C 
HETATM    5  C   UNL     1     -22.568  13.744 -18.465  1.00  0.00     0.227 C 
HETATM    6  N   UNL     1     -21.520  14.153 -19.343  1.00  0.00    -0.329 N 
HETATM    7  N   UNL     1     -19.786  15.619 -20.820  1.00  0.00    -0.360 N 
HETATM    8  O   UNL     1     -22.329  13.518 -17.335  1.00  0.00    -0.273 OA
ENDROOT
BRANCH   5   9
HETATM    9  C   UNL     1     -23.958  13.627 -19.084  1.00  0.00     0.141 C 
BRANCH   9  10
HETATM   10  C   UNL     1     -24.874  14.659 -18.457  1.00  0.00    -0.049 A 
HETATM   11  C   UNL     1     -24.576  15.995 -18.626  1.00  0.00     0.010 A 
HETATM   12  C   UNL     1     -25.388  16.969 -18.075  1.00  0.00     0.030 A 
HETATM   13  C   UNL     1     -26.507  16.575 -17.351  1.00  0.00     0.034 A 
HETATM   14  C   UNL     1     -26.814  15.234 -17.198  1.00  0.00     0.030 A 
HETATM   15  C   UNL     1     -25.991  14.267 -17.750  1.00  0.00     0.010 A 
BRANCH  13  16
HETATM   16  N   UNL     1     -27.421  17.531 -16.769  1.00  0.00    -0.325 N 
HETATM   17  C   UNL     1     -28.512  18.177 -17.447  1.00  0.00     0.245 C 
HETATM   18  O   UNL     1     -28.748  17.954 -18.585  1.00  0.00    -0.271 OA
ATOM     19  HN  UNL     1     -27.278  17.769 -15.788  1.00  0.00     0.169 HD
BRANCH  17  20
HETATM   20  C   UNL     1     -29.327  19.153 -16.599  1.00  0.00     0.267 C 
BRANCH  20  21
HETATM   21  O   UNL     1     -29.419  18.594 -15.311  1.00  0.00    -0.392 OA
ATOM     22  HO  UNL     1     -30.217  18.078 -15.292  1.00  0.00     0.210 HD
ENDBRANCH  20  21
ENDBRANCH  17  20
ENDBRANCH  13  16
ENDBRANCH   9  10
ENDBRANCH   5   9
BRANCH   7  23
HETATM   23  C   UNL     1     -18.808  16.275 -21.604  1.00  0.00     0.118 A 
HETATM   24  N   UNL     1     -19.070  17.499 -21.930  1.00  0.00    -0.284 N 
HETATM   25  N   UNL     1     -18.185  18.144 -22.671  1.00  0.00    -0.288 N 
ATOM     26  HN  UNL     1     -19.932  17.952 -21.624  1.00  0.00     0.188 HD
HETATM   27  C   UNL     1     -17.085  17.572 -23.038  1.00  0.00     0.118 A 
ATOM     28  HN  UNL     1     -18.372  19.106 -22.956  1.00  0.00     0.188 HD
HETATM   29 CL   UNL     1     -15.977  18.527 -24.011  1.00  0.00    -0.063 Cl
HETATM   30  C   UNL     1     -16.724  16.269 -22.723  1.00  0.00     0.047 A 
HETATM   31  C   UNL     1     -17.657  15.565 -21.946  1.00  0.00     0.053 A 
ENDBRANCH   7  23
TORSDOF 6
ENDMDL
MODEL 14
REMARK VINA RESULT:    -5.900      4.599      6.904
REMARK INTER + INTRA:          -8.304
REMARK INTER:                  -7.624
REMARK INTRA:                  -0.680
REMARK UNBOUND:                -0.508
REMARK  6 active torsions:
REMARK  status: ('A' for Active; 'I' for Inactive)
REMARK    1  A    between atoms: C_5  and  N_25 
REMARK    2  A    between atoms: C_8  and  C_9 
REMARK    3  A    between atoms: C_9  and  C_10 
REMARK       I    between atoms: C_10  and  N_19 
REMARK    4  A    between atoms: C_11  and  N_20 
REMARK    5  A    between atoms: C_15  and  C_16 
REMARK       I    between atoms: C_15  and  N_25 
REMARK    6  A    between atoms: C_16  and  O_28 
ROOT
HETATM    1  C   UNL     1     -28.872  20.357 -16.336  1.00  0.00     0.151 C 
HETATM    2  C   UNL     1     -28.797  18.856 -16.501  1.00  0.00     0.145 C 
HETATM    3  C   UNL     1     -28.299  20.647 -18.683  1.00  0.00     0.086 C 
HETATM    4  C   UNL     1     -28.245  19.144 -18.830  1.00  0.00     0.169 C 
HETATM    5  C   UNL     1     -30.104  22.003 -17.668  1.00  0.00     0.227 C 
HETATM    6  N   UNL     1     -29.090  21.003 -17.573  1.00  0.00    -0.329 N 
HETATM    7  N   UNL     1     -27.756  18.646 -17.527  1.00  0.00    -0.360 N 
HETATM    8  O   UNL     1     -30.292  22.550 -18.693  1.00  0.00    -0.273 OA
ENDROOT
BRANCH   5   9
HETATM    9  C   UNL     1     -30.887  22.292 -16.390  1.00  0.00     0.141 C 
BRANCH   9  10
HETATM   10  C   UNL     1     -32.304  21.780 -16.544  1.00  0.00    -0.049 A 
HETATM   11  C   UNL     1     -33.344  22.568 -16.095  1.00  0.00     0.010 A 
HETATM   12  C   UNL     1     -34.652  22.140 -16.222  1.00  0.00     0.030 A 
HETATM   13  C   UNL     1     -34.898  20.904 -16.808  1.00  0.00     0.034 A 
HETATM   14  C   UNL     1     -33.854  20.123 -17.274  1.00  0.00     0.030 A 
HETATM   15  C   UNL     1     -32.548  20.559 -17.138  1.00  0.00     0.010 A 
BRANCH  13  16
HETATM   16  N   UNL     1     -36.237  20.400 -17.003  1.00  0.00    -0.325 N 
HETATM   17  C   UNL     1     -37.042  19.733 -16.015  1.00  0.00     0.245 C 
HETATM   18  O   UNL     1     -36.639  19.547 -14.917  1.00  0.00    -0.271 OA
ATOM     19  HN  UNL     1     -36.650  20.528 -17.927  1.00  0.00     0.169 HD
BRANCH  17  20
HETATM   20  C   UNL     1     -38.429  19.296 -16.483  1.00  0.00     0.267 C 
BRANCH  20  21
HETATM   21  O   UNL     1     -38.237  18.261 -17.415  1.00  0.00    -0.392 OA
ATOM     22  HO  UNL     1     -37.302  18.096 -17.454  1.00  0.00     0.210 HD
ENDBRANCH  20  21
ENDBRANCH  17  20
ENDBRANCH  13  16
ENDBRANCH   9  10
ENDBRANCH   5   9
BRANCH   7  23
HETATM   23  C   UNL     1     -26.947  17.486 -17.514  1.00  0.00     0.118 A 
HETATM   24  N   UNL     1     -27.310  16.551 -16.698  1.00  0.00    -0.284 N 
HETATM   25  N   UNL     1     -26.575  15.453 -16.648  1.00  0.00    -0.288 N 
ATOM     26  HN  UNL     1     -28.139  16.657 -16.112  1.00  0.00     0.188 HD
HETATM   27  C   UNL     1     -25.538  15.316 -17.408  1.00  0.00     0.118 A 
ATOM     28  HN  UNL     1     -26.829  14.705 -16.002  1.00  0.00     0.188 HD
HETATM   29 CL   UNL     1     -24.640  13.812 -17.266  1.00  0.00    -0.063 Cl
HETATM   30  C   UNL     1     -25.087  16.264 -18.315  1.00  0.00     0.047 A 
HETATM   31  C   UNL     1     -25.850  17.440 -18.374  1.00  0.00     0.053 A 
ENDBRANCH   7  23
TORSDOF 6
ENDMDL
MODEL 15
REMARK VINA RESULT:    -5.879      3.926      4.406
REMARK INTER + INTRA:          -8.277
REMARK INTER:                  -7.856
REMARK INTRA:                  -0.420
REMARK UNBOUND:                -0.508
REMARK  6 active torsions:
REMARK  status: ('A' for Active; 'I' for Inactive)
REMARK    1  A    between atoms: C_5  and  N_25 
REMARK    2  A    between atoms: C_8  and  C_9 
REMARK    3  A    between atoms: C_9  and  C_10 
REMARK       I    between atoms: C_10  and  N_19 
REMARK    4  A    between atoms: C_11  and  N_20 
REMARK    5  A    between atoms: C_15  and  C_16 
REMARK       I    between atoms: C_15  and  N_25 
REMARK    6  A    between atoms: C_16  and  O_28 
ROOT
HETATM    1  C   UNL     1     -22.881  16.131 -20.858  1.00  0.00     0.151 C 
HETATM    2  C   UNL     1     -21.620  16.784 -21.377  1.00  0.00     0.145 C 
HETATM    3  C   UNL     1     -21.966  16.147 -18.603  1.00  0.00     0.086 C 
HETATM    4  C   UNL     1     -20.721  16.814 -19.140  1.00  0.00     0.169 C 
HETATM    5  C   UNL     1     -24.321  16.805 -18.993  1.00  0.00     0.227 C 
HETATM    6  N   UNL     1     -23.052  16.363 -19.475  1.00  0.00    -0.329 N 
HETATM    7  N   UNL     1     -20.548  16.267 -20.503  1.00  0.00    -0.360 N 
HETATM    8  O   UNL     1     -24.474  16.997 -17.842  1.00  0.00    -0.273 OA
ENDROOT
BRANCH   5   9
HETATM    9  C   UNL     1     -25.410  16.998 -20.044  1.00  0.00     0.141 C 
BRANCH   9  10
HETATM   10  C   UNL     1     -25.357  18.419 -20.566  1.00  0.00    -0.049 A 
HETATM   11  C   UNL     1     -25.088  19.440 -19.679  1.00  0.00     0.010 A 
HETATM   12  C   UNL     1     -25.026  20.750 -20.115  1.00  0.00     0.030 A 
HETATM   13  C   UNL     1     -25.238  21.016 -21.462  1.00  0.00     0.034 A 
HETATM   14  C   UNL     1     -25.489  19.989 -22.355  1.00  0.00     0.030 A 
HETATM   15  C   UNL     1     -25.554  18.681 -21.906  1.00  0.00     0.010 A 
BRANCH  13  16
HETATM   16  N   UNL     1     -25.160  22.354 -22.001  1.00  0.00    -0.325 N 
HETATM   17  C   UNL     1     -26.230  23.315 -22.039  1.00  0.00     0.245 C 
HETATM   18  O   UNL     1     -27.301  23.059 -21.604  1.00  0.00    -0.271 OA
ATOM     19  HN  UNL     1     -24.264  22.645 -22.391  1.00  0.00     0.169 HD
BRANCH  17  20
HETATM   20  C   UNL     1     -25.882  24.662 -22.668  1.00  0.00     0.267 C 
BRANCH  20  21
HETATM   21  O   UNL     1     -26.939  25.539 -22.364  1.00  0.00    -0.392 OA
ATOM     22  HO  UNL     1     -27.593  25.428 -23.044  1.00  0.00     0.210 HD
ENDBRANCH  20  21
ENDBRANCH  17  20
ENDBRANCH  13  16
ENDBRANCH   9  10
ENDBRANCH   5   9
BRANCH   7  23
HETATM   23  C   UNL     1     -19.232  16.094 -20.993  1.00  0.00     0.118 A 
HETATM   24  N   UNL     1     -18.801  17.011 -21.796  1.00  0.00    -0.284 N 
HETATM   25  N   UNL     1     -17.579  16.880 -22.285  1.00  0.00    -0.288 N 
ATOM     26  HN  UNL     1     -19.385  17.810 -22.045  1.00  0.00     0.188 HD
HETATM   27  C   UNL     1     -16.836  15.876 -21.951  1.00  0.00     0.118 A 
ATOM     28  HN  UNL     1     -17.218  17.581 -22.934  1.00  0.00     0.188 HD
HETATM   29 CL   UNL     1     -15.226  15.810 -22.652  1.00  0.00    -0.063 Cl
HETATM   30  C   UNL     1     -17.217  14.858 -21.090  1.00  0.00     0.047 A 
HETATM   31  C   UNL     1     -18.516  14.974 -20.570  1.00  0.00     0.053 A 
ENDBRANCH   7  23
TORSDOF 6
ENDMDL
MODEL 16
REMARK VINA RESULT:    -5.843      4.760     11.026
REMARK INTER + INTRA:          -8.230
REMARK INTER:                  -7.809
REMARK INTRA:                  -0.421
REMARK UNBOUND:                -0.508
REMARK  6 active torsions:
REMARK  status: ('A' for Active; 'I' for Inactive)
REMARK    1  A    between atoms: C_5  and  N_25 
REMARK    2  A    between atoms: C_8  and  C_9 
REMARK    3  A    between atoms: C_9  and  C_10 
REMARK       I    between atoms: C_10  and  N_19 
REMARK    4  A    between atoms: C_11  and  N_20 
REMARK    5  A    between atoms: C_15  and  C_16 
REMARK       I    between atoms: C_15  and  N_25 
REMARK    6  A    between atoms: C_16  and  O_28 
ROOT
HETATM    1  C   UNL     1     -26.244  17.790 -19.046  1.00  0.00     0.151 C 
HETATM    2  C   UNL     1     -26.962  18.348 -17.838  1.00  0.00     0.145 C 
HETATM    3  C   UNL     1     -25.312  19.989 -19.512  1.00  0.00     0.086 C 
HETATM    4  C   UNL     1     -26.024  20.523 -18.291  1.00  0.00     0.169 C 
HETATM    5  C   UNL     1     -23.882  17.973 -19.667  1.00  0.00     0.227 C 
HETATM    6  N   UNL     1     -25.141  18.594 -19.409  1.00  0.00    -0.329 N 
HETATM    7  N   UNL     1     -27.278  19.744 -18.204  1.00  0.00    -0.360 N 
HETATM    8  O   UNL     1     -22.958  18.634 -19.974  1.00  0.00    -0.273 OA
ENDROOT
BRANCH   5   9
HETATM    9  C   UNL     1     -23.837  16.455 -19.520  1.00  0.00     0.141 C 
BRANCH   9  10
HETATM   10  C   UNL     1     -22.420  15.971 -19.756  1.00  0.00    -0.049 A 
HETATM   11  C   UNL     1     -21.524  16.016 -18.710  1.00  0.00     0.010 A 
HETATM   12  C   UNL     1     -20.223  15.579 -18.882  1.00  0.00     0.030 A 
HETATM   13  C   UNL     1     -19.840  15.095 -20.127  1.00  0.00     0.034 A 
HETATM   14  C   UNL     1     -20.747  15.034 -21.171  1.00  0.00     0.030 A 
HETATM   15  C   UNL     1     -22.045  15.478 -20.989  1.00  0.00     0.010 A 
BRANCH  13  16
HETATM   16  N   UNL     1     -18.510  14.593 -20.379  1.00  0.00    -0.325 N 
HETATM   17  C   UNL     1     -17.463  15.285 -21.083  1.00  0.00     0.245 C 
HETATM   18  O   UNL     1     -17.633  16.372 -21.522  1.00  0.00    -0.271 OA
ATOM     19  HN  UNL     1     -18.292  13.662 -20.025  1.00  0.00     0.169 HD
BRANCH  17  20
HETATM   20  C   UNL     1     -16.144  14.525 -21.213  1.00  0.00     0.267 C 
BRANCH  20  21
HETATM   21  O   UNL     1     -15.858  13.985 -19.947  1.00  0.00    -0.392 OA
ATOM     22  HO  UNL     1     -16.031  14.669 -19.310  1.00  0.00     0.210 HD
ENDBRANCH  20  21
ENDBRANCH  17  20
ENDBRANCH  13  16
ENDBRANCH   9  10
ENDBRANCH   5   9
BRANCH   7  23
HETATM   23  C   UNL     1     -28.431  20.385 -17.695  1.00  0.00     0.118 A 
HETATM   24  N   UNL     1     -28.253  21.125 -16.649  1.00  0.00    -0.284 N 
HETATM   25  N   UNL     1     -29.309  21.734 -16.136  1.00  0.00    -0.288 N 
ATOM     26  HN  UNL     1     -27.328  21.235 -16.234  1.00  0.00     0.188 HD
HETATM   27  C   UNL     1     -30.475  21.607 -16.679  1.00  0.00     0.118 A 
ATOM     28  HN  UNL     1     -29.201  22.311 -15.302  1.00  0.00     0.188 HD
HETATM   29 CL   UNL     1     -31.805  22.470 -15.919  1.00  0.00    -0.063 Cl
HETATM   30  C   UNL     1     -30.749  20.843 -17.805  1.00  0.00     0.047 A 
HETATM   31  C   UNL     1     -29.642  20.180 -18.356  1.00  0.00     0.053 A 
ENDBRANCH   7  23
TORSDOF 6
ENDMDL
MODEL 17
REMARK VINA RESULT:    -5.830      4.911     11.191
REMARK INTER + INTRA:          -8.212
REMARK INTER:                  -7.748
REMARK INTRA:                  -0.464
REMARK UNBOUND:                -0.508
REMARK  6 active torsions:
REMARK  status: ('A' for Active; 'I' for Inactive)
REMARK    1  A    between atoms: C_5  and  N_25 
REMARK    2  A    between atoms: C_8  and  C_9 
REMARK    3  A    between atoms: C_9  and  C_10 
REMARK       I    between atoms: C_10  and  N_19 
REMARK    4  A    between atoms: C_11  and  N_20 
REMARK    5  A    between atoms: C_15  and  C_16 
REMARK       I    between atoms: C_15  and  N_25 
REMARK    6  A    between atoms: C_16  and  O_28 
ROOT
HETATM    1  C   UNL     1     -30.158  19.735 -19.375  1.00  0.00     0.151 C 
HETATM    2  C   UNL     1     -30.840  19.134 -18.168  1.00  0.00     0.145 C 
HETATM    3  C   UNL     1     -29.738  21.779 -18.123  1.00  0.00     0.086 C 
HETATM    4  C   UNL     1     -30.410  21.153 -16.923  1.00  0.00     0.169 C 
HETATM    5  C   UNL     1     -27.959  20.802 -19.541  1.00  0.00     0.227 C 
HETATM    6  N   UNL     1     -29.282  20.781 -19.006  1.00  0.00    -0.329 N 
HETATM    7  N   UNL     1     -31.466  20.283 -17.482  1.00  0.00    -0.360 N 
HETATM    8  O   UNL     1     -27.223  21.671 -19.243  1.00  0.00    -0.273 OA
ENDROOT
BRANCH   5   9
HETATM    9  C   UNL     1     -27.596  19.660 -20.486  1.00  0.00     0.141 C 
BRANCH   9  10
HETATM   10  C   UNL     1     -26.250  19.088 -20.087  1.00  0.00    -0.049 A 
HETATM   11  C   UNL     1     -26.216  18.052 -19.178  1.00  0.00     0.010 A 
HETATM   12  C   UNL     1     -25.010  17.498 -18.792  1.00  0.00     0.030 A 
HETATM   13  C   UNL     1     -23.837  18.006 -19.337  1.00  0.00     0.034 A 
HETATM   14  C   UNL     1     -23.874  19.034 -20.262  1.00  0.00     0.030 A 
HETATM   15  C   UNL     1     -25.087  19.584 -20.638  1.00  0.00     0.010 A 
BRANCH  13  16
HETATM   16  N   UNL     1     -22.540  17.462 -19.006  1.00  0.00    -0.325 N 
HETATM   17  C   UNL     1     -21.686  16.714 -19.890  1.00  0.00     0.245 C 
HETATM   18  O   UNL     1     -22.007  16.485 -21.007  1.00  0.00    -0.271 OA
ATOM     19  HN  UNL     1     -22.198  17.623 -18.059  1.00  0.00     0.169 HD
BRANCH  17  20
HETATM   20  C   UNL     1     -20.362  16.249 -19.287  1.00  0.00     0.267 C 
BRANCH  20  21
HETATM   21  O   UNL     1     -19.659  17.407 -18.907  1.00  0.00    -0.392 OA
ATOM     22  HO  UNL     1     -19.802  17.522 -17.974  1.00  0.00     0.210 HD
ENDBRANCH  20  21
ENDBRANCH  17  20
ENDBRANCH  13  16
ENDBRANCH   9  10
ENDBRANCH   5   9
BRANCH   7  23
HETATM   23  C   UNL     1     -32.664  20.126 -16.747  1.00  0.00     0.118 A 
HETATM   24  N   UNL     1     -32.920  18.929 -16.330  1.00  0.00    -0.284 N 
HETATM   25  N   UNL     1     -34.037  18.738 -15.647  1.00  0.00    -0.288 N 
ATOM     26  HN  UNL     1     -32.281  18.157 -16.522  1.00  0.00     0.188 HD
HETATM   27  C   UNL     1     -34.832  19.724 -15.390  1.00  0.00     0.118 A 
ATOM     28  HN  UNL     1     -34.273  17.801 -15.319  1.00  0.00     0.188 HD
HETATM   29 CL   UNL     1     -36.282  19.357 -14.466  1.00  0.00    -0.063 Cl
HETATM   30  C   UNL     1     -34.627  21.037 -15.790  1.00  0.00     0.047 A 
HETATM   31  C   UNL     1     -33.452  21.256 -16.526  1.00  0.00     0.053 A 
ENDBRANCH   7  23
TORSDOF 6
ENDMDL
MODEL 18
REMARK VINA RESULT:    -5.767      9.328     16.371
REMARK INTER + INTRA:          -8.129
REMARK INTER:                  -7.561
REMARK INTRA:                  -0.568
REMARK UNBOUND:                -0.508
REMARK  6 active torsions:
REMARK  status: ('A' for Active; 'I' for Inactive)
REMARK    1  A    between atoms: C_5  and  N_25 
REMARK    2  A    between atoms: C_8  and  C_9 
REMARK    3  A    between atoms: C_9  and  C_10 
REMARK       I    between atoms: C_10  and  N_19 
REMARK    4  A    between atoms: C_11  and  N_20 
REMARK    5  A    between atoms: C_15  and  C_16 
REMARK       I    between atoms: C_15  and  N_25 
REMARK    6  A    between atoms: C_16  and  O_28 
ROOT
HETATM    1  C   UNL     1     -35.809  27.694 -18.139  1.00  0.00     0.151 C 
HETATM    2  C   UNL     1     -36.844  28.774 -18.361  1.00  0.00     0.145 C 
HETATM    3  C   UNL     1     -35.417  28.528 -15.887  1.00  0.00     0.086 C 
HETATM    4  C   UNL     1     -36.466  29.589 -16.123  1.00  0.00     0.169 C 
HETATM    5  C   UNL     1     -35.610  26.093 -16.295  1.00  0.00     0.227 C 
HETATM    6  N   UNL     1     -35.611  27.442 -16.763  1.00  0.00    -0.329 N 
HETATM    7  N   UNL     1     -36.364  29.919 -17.561  1.00  0.00    -0.360 N 
HETATM    8  O   UNL     1     -35.442  25.873 -15.152  1.00  0.00    -0.273 OA
ENDROOT
BRANCH   5   9
HETATM    9  C   UNL     1     -35.831  25.014 -17.351  1.00  0.00     0.141 C 
BRANCH   9  10
HETATM   10  C   UNL     1     -34.657  24.055 -17.341  1.00  0.00    -0.049 A 
HETATM   11  C   UNL     1     -34.683  22.989 -16.466  1.00  0.00     0.010 A 
HETATM   12  C   UNL     1     -33.635  22.089 -16.429  1.00  0.00     0.030 A 
HETATM   13  C   UNL     1     -32.559  22.279 -17.288  1.00  0.00     0.034 A 
HETATM   14  C   UNL     1     -32.544  23.339 -18.177  1.00  0.00     0.030 A 
HETATM   15  C   UNL     1     -33.596  24.238 -18.203  1.00  0.00     0.010 A 
BRANCH  13  16
HETATM   16  N   UNL     1     -31.440  21.366 -17.330  1.00  0.00    -0.325 N 
HETATM   17  C   UNL     1     -30.194  21.523 -16.629  1.00  0.00     0.245 C 
HETATM   18  O   UNL     1     -29.994  22.459 -15.932  1.00  0.00    -0.271 OA
ATOM     19  HN  UNL     1     -31.544  20.534 -17.911  1.00  0.00     0.169 HD
BRANCH  17  20
HETATM   20  C   UNL     1     -29.172  20.409 -16.850  1.00  0.00     0.267 C 
BRANCH  20  21
HETATM   21  O   UNL     1     -29.199  19.598 -15.702  1.00  0.00    -0.392 OA
ATOM     22  HO  UNL     1     -29.908  19.918 -15.155  1.00  0.00     0.210 HD
ENDBRANCH  20  21
ENDBRANCH  17  20
ENDBRANCH  13  16
ENDBRANCH   9  10
ENDBRANCH   5   9
BRANCH   7  23
HETATM   23  C   UNL     1     -36.630  31.249 -17.964  1.00  0.00     0.118 A 
HETATM   24  N   UNL     1     -37.218  31.999 -17.089  1.00  0.00    -0.284 N 
HETATM   25  N   UNL     1     -37.494  33.246 -17.430  1.00  0.00    -0.288 N 
ATOM     26  HN  UNL     1     -37.461  31.639 -16.165  1.00  0.00     0.188 HD
HETATM   27  C   UNL     1     -37.167  33.702 -18.594  1.00  0.00     0.118 A 
ATOM     28  HN  UNL     1     -37.972  33.856 -16.766  1.00  0.00     0.188 HD
HETATM   29 CL   UNL     1     -37.572  35.378 -18.936  1.00  0.00    -0.063 Cl
HETATM   30  C   UNL     1     -36.527  32.969 -19.584  1.00  0.00     0.047 A 
HETATM   31  C   UNL     1     -36.236  31.639 -19.243  1.00  0.00     0.053 A 
ENDBRANCH   7  23
TORSDOF 6
ENDMDL
MODEL 19
REMARK VINA RESULT:    -5.725      2.036      3.297
REMARK INTER + INTRA:          -8.073
REMARK INTER:                  -7.604
REMARK INTRA:                  -0.469
REMARK UNBOUND:                -0.508
REMARK  6 active torsions:
REMARK  status: ('A' for Active; 'I' for Inactive)
REMARK    1  A    between atoms: C_5  and  N_25 
REMARK    2  A    between atoms: C_8  and  C_9 
REMARK    3  A    between atoms: C_9  and  C_10 
REMARK       I    between atoms: C_10  and  N_19 
REMARK    4  A    between atoms: C_11  and  N_20 
REMARK    5  A    between atoms: C_15  and  C_16 
REMARK       I    between atoms: C_15  and  N_25 
REMARK    6  A    between atoms: C_16  and  O_28 
ROOT
HETATM    1  C   UNL     1     -26.009  18.413 -17.706  1.00  0.00     0.151 C 
HETATM    2  C   UNL     1     -25.248  17.277 -18.352  1.00  0.00     0.145 C 
HETATM    3  C   UNL     1     -25.627  19.792 -19.674  1.00  0.00     0.086 C 
HETATM    4  C   UNL     1     -24.884  18.640 -20.308  1.00  0.00     0.169 C 
HETATM    5  C   UNL     1     -27.858  19.747 -18.601  1.00  0.00     0.227 C 
HETATM    6  N   UNL     1     -26.497  19.323 -18.670  1.00  0.00    -0.329 N 
HETATM    7  N   UNL     1     -24.224  17.941 -19.184  1.00  0.00    -0.360 N 
HETATM    8  O   UNL     1     -28.273  20.507 -19.397  1.00  0.00    -0.273 OA
ENDROOT
BRANCH   5   9
HETATM    9  C   UNL     1     -28.690  19.161 -17.463  1.00  0.00     0.141 C 
BRANCH   9  10
HETATM   10  C   UNL     1     -29.877  20.063 -17.194  1.00  0.00    -0.049 A 
HETATM   11  C   UNL     1     -29.654  21.293 -16.612  1.00  0.00     0.010 A 
HETATM   12  C   UNL     1     -30.709  22.148 -16.354  1.00  0.00     0.030 A 
HETATM   13  C   UNL     1     -31.995  21.744 -16.694  1.00  0.00     0.034 A 
HETATM   14  C   UNL     1     -32.214  20.517 -17.295  1.00  0.00     0.030 A 
HETATM   15  C   UNL     1     -31.151  19.666 -17.544  1.00  0.00     0.010 A 
BRANCH  13  16
HETATM   16  N   UNL     1     -33.145  22.591 -16.485  1.00  0.00    -0.325 N 
HETATM   17  C   UNL     1     -33.627  23.602 -17.387  1.00  0.00     0.245 C 
HETATM   18  O   UNL     1     -33.084  23.815 -18.418  1.00  0.00    -0.271 OA
ATOM     19  HN  UNL     1     -33.664  22.461 -15.617  1.00  0.00     0.169 HD
BRANCH  17  20
HETATM   20  C   UNL     1     -34.868  24.362 -16.922  1.00  0.00     0.267 C 
BRANCH  20  21
HETATM   21  O   UNL     1     -35.067  24.029 -15.571  1.00  0.00    -0.392 OA
ATOM     22  HO  UNL     1     -35.997  24.119 -15.399  1.00  0.00     0.210 HD
ENDBRANCH  20  21
ENDBRANCH  17  20
ENDBRANCH  13  16
ENDBRANCH   9  10
ENDBRANCH   5   9
BRANCH   7  23
HETATM   23  C   UNL     1     -22.970  17.329 -19.419  1.00  0.00     0.118 A 
HETATM   24  N   UNL     1     -21.936  18.097 -19.306  1.00  0.00    -0.284 N 
HETATM   25  N   UNL     1     -20.745  17.566 -19.528  1.00  0.00    -0.288 N 
ATOM     26  HN  UNL     1     -22.035  19.080 -19.053  1.00  0.00     0.188 HD
HETATM   27  C   UNL     1     -20.624  16.314 -19.828  1.00  0.00     0.118 A 
ATOM     28  HN  UNL     1     -19.912  18.151 -19.461  1.00  0.00     0.188 HD
HETATM   29 CL   UNL     1     -18.993  15.713 -20.091  1.00  0.00    -0.063 Cl
HETATM   30  C   UNL     1     -21.679  15.423 -19.960  1.00  0.00     0.047 A 
HETATM   31  C   UNL     1     -22.952  15.972 -19.738  1.00  0.00     0.053 A 
ENDBRANCH   7  23
TORSDOF 6
ENDMDL
MODEL 20
REMARK VINA RESULT:    -5.666      4.691     11.083
REMARK INTER + INTRA:          -7.996
REMARK INTER:                  -7.514
REMARK INTRA:                  -0.481
REMARK UNBOUND:                -0.508
REMARK  6 active torsions:
REMARK  status: ('A' for Active; 'I' for Inactive)
REMARK    1  A    between atoms: C_5  and  N_25 
REMARK    2  A    between atoms: C_8  and  C_9 
REMARK    3  A    between atoms: C_9  and  C_10 
REMARK       I    between atoms: C_10  and  N_19 
REMARK    4  A    between atoms: C_11  and  N_20 
REMARK    5  A    between atoms: C_15  and  C_16 
REMARK       I    between atoms: C_15  and  N_25 
REMARK    6  A    between atoms: C_16  and  O_28 
ROOT
HETATM    1  C   UNL     1     -28.141  19.091 -19.093  1.00  0.00     0.151 C 
HETATM    2  C   UNL     1     -29.525  19.052 -18.486  1.00  0.00     0.145 C 
HETATM    3  C   UNL     1     -27.227  19.845 -16.968  1.00  0.00     0.086 C 
HETATM    4  C   UNL     1     -28.615  19.783 -16.377  1.00  0.00     0.169 C 
HETATM    5  C   UNL     1     -26.060  18.093 -18.273  1.00  0.00     0.227 C 
HETATM    6  N   UNL     1     -27.139  19.012 -18.101  1.00  0.00    -0.329 N 
HETATM    7  N   UNL     1     -29.524  20.140 -17.487  1.00  0.00    -0.360 N 
HETATM    8  O   UNL     1     -25.218  18.022 -17.454  1.00  0.00    -0.273 OA
ENDROOT
BRANCH   5   9
HETATM    9  C   UNL     1     -26.087  17.252 -19.546  1.00  0.00     0.141 C 
BRANCH   9  10
HETATM   10  C   UNL     1     -24.680  16.800 -19.878  1.00  0.00    -0.049 A 
HETATM   11  C   UNL     1     -23.840  17.680 -20.528  1.00  0.00     0.010 A 
HETATM   12  C   UNL     1     -22.546  17.309 -20.845  1.00  0.00     0.030 A 
HETATM   13  C   UNL     1     -22.111  16.036 -20.496  1.00  0.00     0.034 A 
HETATM   14  C   UNL     1     -22.950  15.161 -19.827  1.00  0.00     0.030 A 
HETATM   15  C   UNL     1     -24.245  15.541 -19.519  1.00  0.00     0.010 A 
BRANCH  13  16
HETATM   16  N   UNL     1     -20.766  15.584 -20.765  1.00  0.00    -0.325 N 
HETATM   17  C   UNL     1     -19.589  15.941 -20.021  1.00  0.00     0.245 C 
HETATM   18  O   UNL     1     -19.649  16.666 -19.086  1.00  0.00    -0.271 OA
ATOM     19  HN  UNL     1     -20.640  14.953 -21.556  1.00  0.00     0.169 HD
BRANCH  17  20
HETATM   20  C   UNL     1     -18.283  15.324 -20.519  1.00  0.00     0.267 C 
BRANCH  20  21
HETATM   21  O   UNL     1     -17.675  16.277 -21.356  1.00  0.00    -0.392 OA
ATOM     22  HO  UNL     1     -17.723  17.111 -20.903  1.00  0.00     0.210 HD
ENDBRANCH  20  21
ENDBRANCH  17  20
ENDBRANCH  13  16
ENDBRANCH   9  10
ENDBRANCH   5   9
BRANCH   7  23
HETATM   23  C   UNL     1     -30.711  20.847 -17.181  1.00  0.00     0.118 A 
HETATM   24  N   UNL     1     -31.684  20.140 -16.705  1.00  0.00    -0.284 N 
HETATM   25  N   UNL     1     -32.815  20.762 -16.416  1.00  0.00    -0.288 N 
ATOM     26  HN  UNL     1     -31.582  19.136 -16.558  1.00  0.00     0.188 HD
HETATM   27  C   UNL     1     -32.931  22.038 -16.586  1.00  0.00     0.118 A 
ATOM     28  HN  UNL     1     -33.605  20.228 -16.054  1.00  0.00     0.188 HD
HETATM   29 CL   UNL     1     -34.475  22.761 -16.158  1.00  0.00    -0.063 Cl
HETATM   30  C   UNL     1     -31.935  22.868 -17.080  1.00  0.00     0.047 A 
HETATM   31  C   UNL     1     -30.730  22.223 -17.403  1.00  0.00     0.053 A 
ENDBRANCH   7  23
TORSDOF 6
ENDMDL
