REMARK  4 active torsions:
REMARK  status: ('A' for Active; 'I' for Inactive)
REMARK    1  A    between atoms: C_2  and  O_17 
REMARK    2  A    between atoms: C_2  and  N_12 
REMARK    3  A    between atoms: C_3  and  N_12 
REMARK    4  A    between atoms: C_7  and  O_19 
ROOT
HETATM    1  C   UNL     1     -12.407 -28.590   4.608  1.00  0.00     0.127 C 
HETATM    2  C   UNL     1     -12.362 -28.616   2.194  1.00  0.00     0.219 C 
HETATM    3  C   UNL     1     -10.413 -29.446   3.390  1.00  0.00     0.127 C 
HETATM    4  C   UNL     1     -10.004 -30.196   4.614  1.00  0.00     0.024 C 
HETATM    5  N   UNL     1     -11.847 -29.110   3.348  1.00  0.00    -0.347 N 
HETATM    6  C   UNL     1     -12.034 -29.471   5.760  1.00  0.00     0.024 C 
HETATM    7  C   UNL     1      -9.991 -30.122   7.121  1.00  0.00     0.010 C 
HETATM    8  C   UNL     1     -10.537 -29.520   5.853  1.00  0.00    -0.015 C 
ENDROOT
BRANCH   2   9
HETATM    9  O   UNL     1     -11.873 -29.139   1.058  1.00  0.00    -0.332 OA
ATOM     10  HO  UNL     1     -12.234 -28.793   0.250  1.00  0.00     0.220 HD
ENDBRANCH   2   9
BRANCH   2  11
HETATM   11  N   UNL     1     -13.619 -28.084   2.112  1.00  0.00    -0.322 N 
ATOM     12  HN  UNL     1     -13.963 -27.685   2.985  1.00  0.00     0.169 HD
BRANCH  11  13
HETATM   13  C   UNL     1     -14.491 -27.992   1.074  1.00  0.00     0.035 A 
HETATM   14  C   UNL     1     -14.391 -28.713  -0.123  1.00  0.00     0.032 A 
HETATM   15  C   UNL     1     -15.385 -28.632  -1.060  1.00  0.00     0.039 A 
HETATM   16  C   UNL     1     -16.530 -27.916  -0.849  1.00  0.00     0.065 A 
HETATM   17  C   UNL     1     -16.631 -27.175   0.312  1.00  0.00     0.039 A 
HETATM   18  C   UNL     1     -15.662 -27.269   1.286  1.00  0.00     0.032 A 
BRANCH  16  19
HETATM   19  O   UNL     1     -17.592 -27.739  -1.662  1.00  0.00    -0.361 OA
ATOM     20  HO  UNL     1     -17.523 -28.249  -2.461  1.00  0.00     0.217 HD
ENDBRANCH  16  19
ENDBRANCH  11  13
ENDBRANCH   2  11
TORSDOF 4
