MODEL 1
REMARK VINA RESULT:   -12.006      0.000      0.000
REMARK INTER + INTRA:         -16.357
REMARK INTER:                 -15.866
REMARK INTRA:                  -0.491
REMARK UNBOUND:                -0.491
REMARK  6 active torsions:
REMARK  status: ('A' for Active; 'I' for Inactive)
REMARK    1  A    between atoms: O_1  and  C_16 
REMARK    2  A    between atoms: C_3  and  N_5 
REMARK    3  A    between atoms: C_4  and  N_32 
REMARK    4  A    between atoms: C_9  and  C_29 
REMARK       I    between atoms: C_11  and  N_21 
REMARK    5  A    between atoms: C_11  and  C_12 
REMARK    6  A    between atoms: N_21  and  C_23 
ROOT
HETATM    1  C   UNL     1      22.264  55.471  89.650  1.00  0.00     0.134 C 
HETATM    2  N   UNL     1      19.121  55.794  87.606  1.00  0.00    -0.214 N 
HETATM    3  C   UNL     1      20.161  55.126  86.831  1.00  0.00     0.178 C 
HETATM    4  C   UNL     1      19.615  56.991  88.299  1.00  0.00     0.149 C 
HETATM    5  C   UNL     1      20.983  57.222  87.685  1.00  0.00     0.049 C 
HETATM    6  C   UNL     1      21.482  55.793  87.365  1.00  0.00     0.085 C 
HETATM    7  N   UNL     1      21.884  54.979  88.508  1.00  0.00    -0.355 N 
ATOM      8  HN  UNL     1      21.865  53.965  88.405  1.00  0.00     0.162 HD
HETATM    9  S   UNL     1      22.387  57.214  90.111  1.00  0.00    -0.094 SA
HETATM   10  C   UNL     1      21.956  58.025  88.550  1.00  0.00     0.091 C 
ENDROOT
BRANCH   6  11
HETATM   11  C   UNL     1      22.662  55.824  86.374  1.00  0.00     0.013 A 
HETATM   12  C   UNL     1      23.955  55.473  86.766  1.00  0.00     0.042 A 
HETATM   13  C   UNL     1      25.030  55.617  85.897  1.00  0.00     0.035 A 
HETATM   14  C   UNL     1      24.841  56.085  84.563  1.00  0.00     0.032 A 
HETATM   15  C   UNL     1      23.556  56.428  84.128  1.00  0.00     0.045 A 
HETATM   16  C   UNL     1      22.502  56.305  85.013  1.00  0.00     0.125 A 
HETATM   17  F   UNL     1      21.329  56.645  84.557  1.00  0.00    -0.205 F 
BRANCH  13  18
HETATM   18  N   UNL     1      26.251  55.407  86.519  1.00  0.00    -0.322 N 
HETATM   19  C   UNL     1      27.479  55.309  85.938  1.00  0.00     0.274 C 
HETATM   20  O   UNL     1      27.691  55.450  84.757  1.00  0.00    -0.266 OA
ATOM     21  HN  UNL     1      26.227  55.314  87.534  1.00  0.00     0.169 HD
BRANCH  19  22
HETATM   22  C   UNL     1      28.595  55.082  86.844  1.00  0.00     0.116 A 
HETATM   23  N   UNL     1      28.557  54.011  87.677  1.00  0.00    -0.356 N 
HETATM   24  C   UNL     1      29.569  53.814  88.490  1.00  0.00     0.144 A 
ATOM     25  HN  UNL     1      27.761  53.374  87.671  1.00  0.00     0.165 HD
HETATM   26  C   UNL     1      30.675  54.744  88.463  1.00  0.00     0.157 A 
HETATM   27  N   UNL     1      30.707  55.803  87.642  1.00  0.00    -0.344 N 
HETATM   28  C   UNL     1      29.663  55.985  86.822  1.00  0.00     0.125 A 
ATOM     29  HN  UNL     1      31.498  56.448  87.642  1.00  0.00     0.167 HD
BRANCH  26  30
HETATM   30  O   UNL     1      31.713  54.550  89.280  1.00  0.00    -0.340 OA
HETATM   31  C   UNL     1      31.935  53.251  89.832  1.00  0.00     0.211 C 
ENDBRANCH  26  30
ENDBRANCH  19  22
ENDBRANCH  13  18
ENDBRANCH   6  11
BRANCH   2  32
HETATM   32  C   UNL     1      17.797  55.388  87.617  1.00  0.00     0.680 A 
HETATM   33  N   UNL     1      16.960  55.968  88.598  1.00  0.00    -0.199 N 
HETATM   34  C   UNL     1      15.677  55.591  88.613  1.00  0.00     0.149 A 
ATOM     35  HN  UNL     1      17.321  56.647  89.269  1.00  0.00     0.183 HD
HETATM   36  C   UNL     1      15.203  54.652  87.689  1.00  0.00     0.148 A 
HETATM   37  F   UNL     1      13.990  54.275  87.783  1.00  0.00    -0.203 F 
HETATM   38  C   UNL     1      16.077  54.102  86.700  1.00  0.00     0.149 A 
HETATM   39  N   UNL     1      17.382  54.461  86.640  1.00  0.00    -0.199 N 
ATOM     40  HN  UNL     1      18.019  54.086  85.937  1.00  0.00     0.183 HD
ENDBRANCH   2  32
BRANCH   1  41
HETATM   41  N   UNL     1      22.627  54.614  90.670  1.00  0.00    -0.380 N 
ATOM     42  HN2 UNL     1      21.973  54.624  91.453  1.00  0.00     0.158 HD
ATOM     43  HN1 UNL     1      23.476  54.057  90.578  1.00  0.00     0.158 HD
ENDBRANCH   1  41
TORSDOF 6
ENDMDL
MODEL 2
REMARK VINA RESULT:   -10.180      1.888      2.114
REMARK INTER + INTRA:         -13.944
REMARK INTER:                 -13.110
REMARK INTRA:                  -0.834
REMARK UNBOUND:                -0.491
REMARK  6 active torsions:
REMARK  status: ('A' for Active; 'I' for Inactive)
REMARK    1  A    between atoms: O_1  and  C_16 
REMARK    2  A    between atoms: C_3  and  N_5 
REMARK    3  A    between atoms: C_4  and  N_32 
REMARK    4  A    between atoms: C_9  and  C_29 
REMARK       I    between atoms: C_11  and  N_21 
REMARK    5  A    between atoms: C_11  and  C_12 
REMARK    6  A    between atoms: N_21  and  C_23 
ROOT
HETATM    1  C   UNL     1      22.169  56.885  90.470  1.00  0.00     0.134 C 
HETATM    2  N   UNL     1      18.589  56.425  89.404  1.00  0.00    -0.214 N 
HETATM    3  C   UNL     1      19.468  55.584  88.600  1.00  0.00     0.178 C 
HETATM    4  C   UNL     1      19.094  57.799  89.541  1.00  0.00     0.149 C 
HETATM    5  C   UNL     1      20.217  57.870  88.524  1.00  0.00     0.049 C 
HETATM    6  C   UNL     1      20.789  56.433  88.513  1.00  0.00     0.085 C 
HETATM    7  N   UNL     1      21.570  56.042  89.682  1.00  0.00    -0.355 N 
ATOM      8  HN  UNL     1      21.651  55.047  89.895  1.00  0.00     0.162 HD
HETATM    9  S   UNL     1      22.190  58.688  90.339  1.00  0.00    -0.094 SA
HETATM   10  C   UNL     1      21.274  58.942  88.797  1.00  0.00     0.091 C 
ENDROOT
BRANCH   6  11
HETATM   11  C   UNL     1      21.660  56.189  87.265  1.00  0.00     0.013 A 
HETATM   12  C   UNL     1      23.025  55.919  87.367  1.00  0.00     0.042 A 
HETATM   13  C   UNL     1      23.822  55.816  86.233  1.00  0.00     0.035 A 
HETATM   14  C   UNL     1      23.262  55.940  84.927  1.00  0.00     0.032 A 
HETATM   15  C   UNL     1      21.893  56.191  84.784  1.00  0.00     0.045 A 
HETATM   16  C   UNL     1      21.120  56.317  85.922  1.00  0.00     0.125 A 
HETATM   17  F   UNL     1      19.854  56.558  85.731  1.00  0.00    -0.205 F 
BRANCH  13  18
HETATM   18  N   UNL     1      25.173  55.742  86.535  1.00  0.00    -0.322 N 
HETATM   19  C   UNL     1      26.165  56.587  86.140  1.00  0.00     0.274 C 
HETATM   20  O   UNL     1      25.992  57.590  85.489  1.00  0.00    -0.266 OA
ATOM     21  HN  UNL     1      25.459  54.959  87.123  1.00  0.00     0.169 HD
BRANCH  19  22
HETATM   22  C   UNL     1      27.504  56.258  86.609  1.00  0.00     0.116 A 
HETATM   23  N   UNL     1      27.939  56.790  87.779  1.00  0.00    -0.356 N 
HETATM   24  C   UNL     1      29.147  56.488  88.193  1.00  0.00     0.144 A 
ATOM     25  HN  UNL     1      27.340  57.411  88.323  1.00  0.00     0.165 HD
HETATM   26  C   UNL     1      29.959  55.604  87.387  1.00  0.00     0.157 A 
HETATM   27  N   UNL     1      29.528  55.084  86.229  1.00  0.00    -0.344 N 
HETATM   28  C   UNL     1      28.291  55.408  85.825  1.00  0.00     0.125 A 
ATOM     29  HN  UNL     1      30.119  54.464  85.676  1.00  0.00     0.167 HD
BRANCH  26  30
HETATM   30  O   UNL     1      31.187  55.284  87.801  1.00  0.00    -0.340 OA
HETATM   31  C   UNL     1      31.346  54.291  88.816  1.00  0.00     0.211 C 
ENDBRANCH  26  30
ENDBRANCH  19  22
ENDBRANCH  13  18
ENDBRANCH   6  11
BRANCH   2  32
HETATM   32  C   UNL     1      17.374  55.997  89.911  1.00  0.00     0.680 A 
HETATM   33  N   UNL     1      16.412  56.994  90.191  1.00  0.00    -0.199 N 
HETATM   34  C   UNL     1      15.231  56.592  90.673  1.00  0.00     0.149 A 
ATOM     35  HN  UNL     1      16.611  57.982  90.032  1.00  0.00     0.183 HD
HETATM   36  C   UNL     1      14.980  55.232  90.889  1.00  0.00     0.148 A 
HETATM   37  F   UNL     1      13.865  54.902  91.410  1.00  0.00    -0.203 F 
HETATM   38  C   UNL     1      15.973  54.251  90.576  1.00  0.00     0.149 A 
HETATM   39  N   UNL     1      17.180  54.611  90.078  1.00  0.00    -0.199 N 
ATOM     40  HN  UNL     1      17.898  53.927  89.840  1.00  0.00     0.183 HD
ENDBRANCH   2  32
BRANCH   1  41
HETATM   41  N   UNL     1      22.886  56.413  91.550  1.00  0.00    -0.380 N 
ATOM     42  HN2 UNL     1      22.301  55.960  92.252  1.00  0.00     0.158 HD
ATOM     43  HN1 UNL     1      23.898  56.539  91.574  1.00  0.00     0.158 HD
ENDBRANCH   1  41
TORSDOF 6
ENDMDL
MODEL 3
REMARK VINA RESULT:    -9.597      3.046      3.384
REMARK INTER + INTRA:         -13.174
REMARK INTER:                 -12.855
REMARK INTRA:                  -0.319
REMARK UNBOUND:                -0.491
REMARK  6 active torsions:
REMARK  status: ('A' for Active; 'I' for Inactive)
REMARK    1  A    between atoms: O_1  and  C_16 
REMARK    2  A    between atoms: C_3  and  N_5 
REMARK    3  A    between atoms: C_4  and  N_32 
REMARK    4  A    between atoms: C_9  and  C_29 
REMARK       I    between atoms: C_11  and  N_21 
REMARK    5  A    between atoms: C_11  and  C_12 
REMARK    6  A    between atoms: N_21  and  C_23 
ROOT
HETATM    1  C   UNL     1      22.307  55.579  89.706  1.00  0.00     0.134 C 
HETATM    2  N   UNL     1      19.526  55.719  87.174  1.00  0.00    -0.214 N 
HETATM    3  C   UNL     1      20.804  55.497  86.508  1.00  0.00     0.178 C 
HETATM    4  C   UNL     1      19.593  56.788  88.181  1.00  0.00     0.149 C 
HETATM    5  C   UNL     1      20.934  57.445  87.916  1.00  0.00     0.049 C 
HETATM    6  C   UNL     1      21.819  56.276  87.422  1.00  0.00     0.085 C 
HETATM    7  N   UNL     1      22.238  55.312  88.435  1.00  0.00    -0.355 N 
ATOM      8  HN  UNL     1      22.491  54.373  88.128  1.00  0.00     0.162 HD
HETATM    9  S   UNL     1      21.916  57.142  90.524  1.00  0.00    -0.094 SA
HETATM   10  C   UNL     1      21.532  58.199  89.104  1.00  0.00     0.091 C 
ENDROOT
BRANCH   6  11
HETATM   11  C   UNL     1      23.088  56.797  86.718  1.00  0.00     0.013 A 
HETATM   12  C   UNL     1      24.180  57.280  87.442  1.00  0.00     0.042 A 
HETATM   13  C   UNL     1      25.269  57.854  86.798  1.00  0.00     0.035 A 
HETATM   14  C   UNL     1      25.325  57.930  85.374  1.00  0.00     0.032 A 
HETATM   15  C   UNL     1      24.258  57.438  84.614  1.00  0.00     0.045 A 
HETATM   16  C   UNL     1      23.171  56.895  85.272  1.00  0.00     0.125 A 
HETATM   17  F   UNL     1      22.204  56.460  84.515  1.00  0.00    -0.205 F 
BRANCH  13  18
HETATM   18  N   UNL     1      26.159  58.447  87.679  1.00  0.00    -0.322 N 
HETATM   19  C   UNL     1      27.424  58.047  87.986  1.00  0.00     0.274 C 
HETATM   20  O   UNL     1      27.989  57.110  87.472  1.00  0.00    -0.266 OA
ATOM     21  HN  UNL     1      25.826  59.285  88.156  1.00  0.00     0.169 HD
BRANCH  19  22
HETATM   22  C   UNL     1      28.133  58.867  88.957  1.00  0.00     0.116 A 
HETATM   23  N   UNL     1      27.573  59.074  90.175  1.00  0.00    -0.356 N 
HETATM   24  C   UNL     1      28.220  59.815  91.045  1.00  0.00     0.144 A 
ATOM     25  HN  UNL     1      26.669  58.664  90.410  1.00  0.00     0.165 HD
HETATM   26  C   UNL     1      29.498  60.375  90.666  1.00  0.00     0.157 A 
HETATM   27  N   UNL     1      30.046  60.172  89.461  1.00  0.00    -0.344 N 
HETATM   28  C   UNL     1      29.367  59.414  88.589  1.00  0.00     0.125 A 
ATOM     29  HN  UNL     1      30.948  60.580  89.216  1.00  0.00     0.167 HD
BRANCH  26  30
HETATM   30  O   UNL     1      30.169  61.124  91.545  1.00  0.00    -0.340 OA
HETATM   31  C   UNL     1      31.172  62.026  91.073  1.00  0.00     0.211 C 
ENDBRANCH  26  30
ENDBRANCH  19  22
ENDBRANCH  13  18
ENDBRANCH   6  11
BRANCH   2  32
HETATM   32  C   UNL     1      18.361  55.052  86.834  1.00  0.00     0.680 A 
HETATM   33  N   UNL     1      18.417  54.204  85.704  1.00  0.00    -0.199 N 
HETATM   34  C   UNL     1      17.300  53.547  85.372  1.00  0.00     0.149 A 
ATOM     35  HN  UNL     1      19.275  54.098  85.163  1.00  0.00     0.183 HD
HETATM   36  C   UNL     1      16.131  53.712  86.123  1.00  0.00     0.148 A 
HETATM   37  F   UNL     1      15.075  53.117  85.731  1.00  0.00    -0.203 F 
HETATM   38  C   UNL     1      16.119  54.565  87.271  1.00  0.00     0.149 A 
HETATM   39  N   UNL     1      17.228  55.243  87.651  1.00  0.00    -0.199 N 
ATOM     40  HN  UNL     1      17.243  55.849  88.471  1.00  0.00     0.183 HD
ENDBRANCH   2  32
BRANCH   1  41
HETATM   41  N   UNL     1      22.717  54.596  90.583  1.00  0.00    -0.380 N 
ATOM     42  HN2 UNL     1      23.572  54.836  91.083  1.00  0.00     0.158 HD
ATOM     43  HN1 UNL     1      22.168  53.741  90.670  1.00  0.00     0.158 HD
ENDBRANCH   1  41
TORSDOF 6
ENDMDL
MODEL 4
REMARK VINA RESULT:    -9.509      2.563      2.817
REMARK INTER + INTRA:         -13.057
REMARK INTER:                 -12.799
REMARK INTRA:                  -0.258
REMARK UNBOUND:                -0.491
REMARK  6 active torsions:
REMARK  status: ('A' for Active; 'I' for Inactive)
REMARK    1  A    between atoms: O_1  and  C_16 
REMARK    2  A    between atoms: C_3  and  N_5 
REMARK    3  A    between atoms: C_4  and  N_32 
REMARK    4  A    between atoms: C_9  and  C_29 
REMARK       I    between atoms: C_11  and  N_21 
REMARK    5  A    between atoms: C_11  and  C_12 
REMARK    6  A    between atoms: N_21  and  C_23 
ROOT
HETATM    1  C   UNL     1      21.754  55.427  89.747  1.00  0.00     0.134 C 
HETATM    2  N   UNL     1      18.766  55.534  87.461  1.00  0.00    -0.214 N 
HETATM    3  C   UNL     1      19.968  55.198  86.706  1.00  0.00     0.178 C 
HETATM    4  C   UNL     1      18.972  56.667  88.375  1.00  0.00     0.149 C 
HETATM    5  C   UNL     1      20.313  57.232  87.947  1.00  0.00     0.049 C 
HETATM    6  C   UNL     1      21.096  55.986  87.468  1.00  0.00     0.085 C 
HETATM    7  N   UNL     1      21.558  55.075  88.511  1.00  0.00    -0.355 N 
ATOM      8  HN  UNL     1      21.739  54.105  88.254  1.00  0.00     0.162 HD
HETATM    9  S   UNL     1      21.510  57.062  90.476  1.00  0.00    -0.094 SA
HETATM   10  C   UNL     1      21.051  58.036  89.019  1.00  0.00     0.091 C 
ENDROOT
BRANCH   6  11
HETATM   11  C   UNL     1      22.319  56.388  86.620  1.00  0.00     0.013 A 
HETATM   12  C   UNL     1      23.500  56.841  87.210  1.00  0.00     0.042 A 
HETATM   13  C   UNL     1      24.553  57.311  86.435  1.00  0.00     0.035 A 
HETATM   14  C   UNL     1      24.478  57.305  85.010  1.00  0.00     0.032 A 
HETATM   15  C   UNL     1      23.317  56.840  84.383  1.00  0.00     0.045 A 
HETATM   16  C   UNL     1      22.269  56.402  85.169  1.00  0.00     0.125 A 
HETATM   17  F   UNL     1      21.210  55.987  84.532  1.00  0.00    -0.205 F 
BRANCH  13  18
HETATM   18  N   UNL     1      25.556  57.895  87.193  1.00  0.00    -0.322 N 
HETATM   19  C   UNL     1      26.884  57.595  87.196  1.00  0.00     0.274 C 
HETATM   20  O   UNL     1      27.404  56.781  86.470  1.00  0.00    -0.266 OA
ATOM     21  HN  UNL     1      25.263  58.640  87.826  1.00  0.00     0.169 HD
BRANCH  19  22
HETATM   22  C   UNL     1      27.710  58.376  88.105  1.00  0.00     0.116 A 
HETATM   23  N   UNL     1      27.185  58.776  89.290  1.00  0.00    -0.356 N 
HETATM   24  C   UNL     1      27.938  59.479  90.104  1.00  0.00     0.144 A 
ATOM     25  HN  UNL     1      26.227  58.536  89.543  1.00  0.00     0.165 HD
HETATM   26  C   UNL     1      29.290  59.796  89.701  1.00  0.00     0.157 A 
HETATM   27  N   UNL     1      29.804  59.403  88.528  1.00  0.00    -0.344 N 
HETATM   28  C   UNL     1      29.017  58.687  87.713  1.00  0.00     0.125 A 
ATOM     29  HN  UNL     1      30.761  59.640  88.265  1.00  0.00     0.167 HD
BRANCH  26  30
HETATM   30  O   UNL     1      30.068  60.504  90.523  1.00  0.00    -0.340 OA
HETATM   31  C   UNL     1      29.542  60.948  91.776  1.00  0.00     0.211 C 
ENDBRANCH  26  30
ENDBRANCH  19  22
ENDBRANCH  13  18
ENDBRANCH   6  11
BRANCH   2  32
HETATM   32  C   UNL     1      17.545  54.908  87.274  1.00  0.00     0.680 A 
HETATM   33  N   UNL     1      16.530  55.194  88.216  1.00  0.00    -0.199 N 
HETATM   34  C   UNL     1      15.343  54.601  88.040  1.00  0.00     0.149 A 
ATOM     35  HN  UNL     1      16.696  55.827  88.998  1.00  0.00     0.183 HD
HETATM   36  C   UNL     1      15.138  53.731  86.963  1.00  0.00     0.148 A 
HETATM   37  F   UNL     1      14.013  53.141  86.874  1.00  0.00    -0.203 F 
HETATM   38  C   UNL     1      16.185  53.481  86.021  1.00  0.00     0.149 A 
HETATM   39  N   UNL     1      17.400  54.065  86.153  1.00  0.00    -0.199 N 
ATOM     40  HN  UNL     1      18.157  53.907  85.488  1.00  0.00     0.183 HD
ENDBRANCH   2  32
BRANCH   1  41
HETATM   41  N   UNL     1      22.195  54.488  90.657  1.00  0.00    -0.380 N 
ATOM     42  HN2 UNL     1      23.157  54.193  90.494  1.00  0.00     0.158 HD
ATOM     43  HN1 UNL     1      21.565  54.169  91.393  1.00  0.00     0.158 HD
ENDBRANCH   1  41
TORSDOF 6
ENDMDL
MODEL 5
REMARK VINA RESULT:    -9.322      4.403      9.624
REMARK INTER + INTRA:         -12.810
REMARK INTER:                 -12.280
REMARK INTRA:                  -0.530
REMARK UNBOUND:                -0.491
REMARK  6 active torsions:
REMARK  status: ('A' for Active; 'I' for Inactive)
REMARK    1  A    between atoms: O_1  and  C_16 
REMARK    2  A    between atoms: C_3  and  N_5 
REMARK    3  A    between atoms: C_4  and  N_32 
REMARK    4  A    between atoms: C_9  and  C_29 
REMARK       I    between atoms: C_11  and  N_21 
REMARK    5  A    between atoms: C_11  and  C_12 
REMARK    6  A    between atoms: N_21  and  C_23 
ROOT
HETATM    1  C   UNL     1      25.113  59.026  84.323  1.00  0.00     0.134 C 
HETATM    2  N   UNL     1      26.749  56.976  87.023  1.00  0.00    -0.214 N 
HETATM    3  C   UNL     1      25.577  56.282  86.501  1.00  0.00     0.178 C 
HETATM    4  C   UNL     1      26.486  58.395  87.302  1.00  0.00     0.149 C 
HETATM    5  C   UNL     1      24.976  58.506  87.201  1.00  0.00     0.049 C 
HETATM    6  C   UNL     1      24.608  57.461  86.121  1.00  0.00     0.085 C 
HETATM    7  N   UNL     1      24.951  57.807  84.745  1.00  0.00    -0.355 N 
ATOM      8  HN  UNL     1      25.070  57.048  84.075  1.00  0.00     0.162 HD
HETATM    9  S   UNL     1      24.971  60.550  85.283  1.00  0.00    -0.094 SA
HETATM   10  C   UNL     1      24.447  59.907  86.894  1.00  0.00     0.091 C 
ENDROOT
BRANCH   6  11
HETATM   11  C   UNL     1      23.103  57.127  86.159  1.00  0.00     0.013 A 
HETATM   12  C   UNL     1      22.330  57.365  87.297  1.00  0.00     0.042 A 
HETATM   13  C   UNL     1      21.005  56.953  87.361  1.00  0.00     0.035 A 
HETATM   14  C   UNL     1      20.379  56.313  86.250  1.00  0.00     0.032 A 
HETATM   15  C   UNL     1      21.116  56.075  85.086  1.00  0.00     0.045 A 
HETATM   16  C   UNL     1      22.441  56.466  85.048  1.00  0.00     0.125 A 
HETATM   17  F   UNL     1      23.081  56.213  83.942  1.00  0.00    -0.205 F 
BRANCH  13  18
HETATM   18  N   UNL     1      20.461  57.099  88.627  1.00  0.00    -0.322 N 
HETATM   19  C   UNL     1      20.149  56.120  89.521  1.00  0.00     0.274 C 
HETATM   20  O   UNL     1      20.360  54.943  89.348  1.00  0.00    -0.266 OA
ATOM     21  HN  UNL     1      20.271  58.056  88.927  1.00  0.00     0.169 HD
BRANCH  19  22
HETATM   22  C   UNL     1      19.583  56.569  90.785  1.00  0.00     0.116 A 
HETATM   23  N   UNL     1      20.389  57.191  91.681  1.00  0.00    -0.356 N 
HETATM   24  C   UNL     1      19.869  57.593  92.818  1.00  0.00     0.144 A 
ATOM     25  HN  UNL     1      21.376  57.342  91.476  1.00  0.00     0.165 HD
HETATM   26  C   UNL     1      18.465  57.354  93.063  1.00  0.00     0.157 A 
HETATM   27  N   UNL     1      17.672  56.736  92.177  1.00  0.00    -0.344 N 
HETATM   28  C   UNL     1      18.225  56.334  91.024  1.00  0.00     0.125 A 
ATOM     29  HN  UNL     1      16.684  56.577  92.373  1.00  0.00     0.167 HD
BRANCH  26  30
HETATM   30  O   UNL     1      17.923  57.764  94.213  1.00  0.00    -0.340 OA
HETATM   31  C   UNL     1      17.843  59.164  94.488  1.00  0.00     0.211 C 
ENDBRANCH  26  30
ENDBRANCH  19  22
ENDBRANCH  13  18
ENDBRANCH   6  11
BRANCH   2  32
HETATM   32  C   UNL     1      27.950  56.346  87.301  1.00  0.00     0.680 A 
HETATM   33  N   UNL     1      29.054  57.179  87.597  1.00  0.00    -0.199 N 
HETATM   34  C   UNL     1      30.218  56.581  87.876  1.00  0.00     0.149 A 
ATOM     35  HN  UNL     1      28.967  58.195  87.597  1.00  0.00     0.183 HD
HETATM   36  C   UNL     1      30.319  55.185  87.865  1.00  0.00     0.148 A 
HETATM   37  F   UNL     1      31.462  54.663  88.073  1.00  0.00    -0.203 F 
HETATM   38  C   UNL     1      29.174  54.377  87.578  1.00  0.00     0.149 A 
HETATM   39  N   UNL     1      27.973  54.937  87.298  1.00  0.00    -0.199 N 
ATOM     40  HN  UNL     1      27.143  54.378  87.100  1.00  0.00     0.183 HD
ENDBRANCH   2  32
BRANCH   1  41
HETATM   41  N   UNL     1      25.436  59.248  83.000  1.00  0.00    -0.380 N 
ATOM     42  HN2 UNL     1      26.439  59.221  82.822  1.00  0.00     0.158 HD
ATOM     43  HN1 UNL     1      24.690  59.413  82.323  1.00  0.00     0.158 HD
ENDBRANCH   1  41
TORSDOF 6
ENDMDL
MODEL 6
REMARK VINA RESULT:    -9.176      5.032      9.243
REMARK INTER + INTRA:         -12.617
REMARK INTER:                 -12.002
REMARK INTRA:                  -0.615
REMARK UNBOUND:                -0.491
REMARK  6 active torsions:
REMARK  status: ('A' for Active; 'I' for Inactive)
REMARK    1  A    between atoms: O_1  and  C_16 
REMARK    2  A    between atoms: C_3  and  N_5 
REMARK    3  A    between atoms: C_4  and  N_32 
REMARK    4  A    between atoms: C_9  and  C_29 
REMARK       I    between atoms: C_11  and  N_21 
REMARK    5  A    between atoms: C_11  and  C_12 
REMARK    6  A    between atoms: N_21  and  C_23 
ROOT
HETATM    1  C   UNL     1      26.618  57.770  87.345  1.00  0.00     0.134 C 
HETATM    2  N   UNL     1      26.014  59.779  84.220  1.00  0.00    -0.214 N 
HETATM    3  C   UNL     1      24.797  59.713  85.021  1.00  0.00     0.178 C 
HETATM    4  C   UNL     1      26.669  58.471  84.080  1.00  0.00     0.149 C 
HETATM    5  C   UNL     1      25.632  57.494  84.603  1.00  0.00     0.049 C 
HETATM    6  C   UNL     1      24.898  58.299  85.702  1.00  0.00     0.085 C 
HETATM    7  N   UNL     1      25.639  58.523  86.939  1.00  0.00    -0.355 N 
ATOM      8  HN  UNL     1      25.373  59.318  87.520  1.00  0.00     0.162 HD
HETATM    9  S   UNL     1      27.299  56.313  86.521  1.00  0.00    -0.094 SA
HETATM   10  C   UNL     1      26.189  56.159  85.098  1.00  0.00     0.091 C 
ENDROOT
BRANCH   6  11
HETATM   11  C   UNL     1      23.555  57.639  86.072  1.00  0.00     0.013 A 
HETATM   12  C   UNL     1      23.028  57.729  87.362  1.00  0.00     0.042 A 
HETATM   13  C   UNL     1      21.877  57.033  87.715  1.00  0.00     0.035 A 
HETATM   14  C   UNL     1      21.175  56.240  86.759  1.00  0.00     0.032 A 
HETATM   15  C   UNL     1      21.662  56.142  85.452  1.00  0.00     0.045 A 
HETATM   16  C   UNL     1      22.822  56.817  85.125  1.00  0.00     0.125 A 
HETATM   17  F   UNL     1      23.235  56.685  83.896  1.00  0.00    -0.205 F 
BRANCH  13  18
HETATM   18  N   UNL     1      21.617  57.087  89.075  1.00  0.00    -0.322 N 
HETATM   19  C   UNL     1      21.935  56.164  90.024  1.00  0.00     0.274 C 
HETATM   20  O   UNL     1      22.561  55.152  89.813  1.00  0.00    -0.266 OA
ATOM     21  HN  UNL     1      21.128  57.919  89.405  1.00  0.00     0.169 HD
BRANCH  19  22
HETATM   22  C   UNL     1      21.532  56.486  91.385  1.00  0.00     0.116 A 
HETATM   23  N   UNL     1      20.726  55.623  92.053  1.00  0.00    -0.356 N 
HETATM   24  C   UNL     1      20.368  55.921  93.280  1.00  0.00     0.144 A 
ATOM     25  HN  UNL     1      20.405  54.762  91.610  1.00  0.00     0.165 HD
HETATM   26  C   UNL     1      20.847  57.153  93.864  1.00  0.00     0.157 A 
HETATM   27  N   UNL     1      21.640  58.006  93.201  1.00  0.00    -0.344 N 
HETATM   28  C   UNL     1      21.991  57.681  91.949  1.00  0.00     0.125 A 
ATOM     29  HN  UNL     1      21.964  58.872  93.633  1.00  0.00     0.167 HD
BRANCH  26  30
HETATM   30  O   UNL     1      20.495  57.465  95.114  1.00  0.00    -0.340 OA
HETATM   31  C   UNL     1      19.358  58.302  95.333  1.00  0.00     0.211 C 
ENDBRANCH  26  30
ENDBRANCH  19  22
ENDBRANCH  13  18
ENDBRANCH   6  11
BRANCH   2  32
HETATM   32  C   UNL     1      26.456  60.933  83.594  1.00  0.00     0.680 A 
HETATM   33  N   UNL     1      25.885  62.152  84.026  1.00  0.00    -0.199 N 
HETATM   34  C   UNL     1      26.310  63.274  83.435  1.00  0.00     0.149 A 
ATOM     35  HN  UNL     1      25.176  62.175  84.759  1.00  0.00     0.183 HD
HETATM   36  C   UNL     1      27.280  63.220  82.427  1.00  0.00     0.148 A 
HETATM   37  F   UNL     1      27.607  64.307  81.849  1.00  0.00    -0.203 F 
HETATM   38  C   UNL     1      27.847  61.968  82.031  1.00  0.00     0.149 A 
HETATM   39  N   UNL     1      27.454  60.808  82.607  1.00  0.00    -0.199 N 
ATOM     40  HN  UNL     1      27.853  59.906  82.345  1.00  0.00     0.183 HD
ENDBRANCH   2  32
BRANCH   1  41
HETATM   41  N   UNL     1      27.254  58.067  88.533  1.00  0.00    -0.380 N 
ATOM     42  HN2 UNL     1      27.252  59.063  88.751  1.00  0.00     0.158 HD
ATOM     43  HN1 UNL     1      27.661  57.313  89.086  1.00  0.00     0.158 HD
ENDBRANCH   1  41
TORSDOF 6
ENDMDL
MODEL 7
REMARK VINA RESULT:    -9.073      2.394      2.973
REMARK INTER + INTRA:         -12.481
REMARK INTER:                 -11.900
REMARK INTRA:                  -0.581
REMARK UNBOUND:                -0.491
REMARK  6 active torsions:
REMARK  status: ('A' for Active; 'I' for Inactive)
REMARK    1  A    between atoms: O_1  and  C_16 
REMARK    2  A    between atoms: C_3  and  N_5 
REMARK    3  A    between atoms: C_4  and  N_32 
REMARK    4  A    between atoms: C_9  and  C_29 
REMARK       I    between atoms: C_11  and  N_21 
REMARK    5  A    between atoms: C_11  and  C_12 
REMARK    6  A    between atoms: N_21  and  C_23 
ROOT
HETATM    1  C   UNL     1      22.543  57.562  90.890  1.00  0.00     0.134 C 
HETATM    2  N   UNL     1      19.001  58.277  89.835  1.00  0.00    -0.214 N 
HETATM    3  C   UNL     1      19.520  57.121  89.113  1.00  0.00     0.178 C 
HETATM    4  C   UNL     1      19.950  59.399  89.860  1.00  0.00     0.149 C 
HETATM    5  C   UNL     1      21.008  58.995  88.850  1.00  0.00     0.049 C 
HETATM    6  C   UNL     1      21.050  57.452  88.967  1.00  0.00     0.085 C 
HETATM    7  N   UNL     1      21.674  56.915  90.172  1.00  0.00    -0.355 N 
ATOM      8  HN  UNL     1      21.412  55.974  90.468  1.00  0.00     0.162 HD
HETATM    9  S   UNL     1      23.179  59.229  90.607  1.00  0.00    -0.094 SA
HETATM   10  C   UNL     1      22.374  59.656  89.041  1.00  0.00     0.091 C 
ENDROOT
BRANCH   6  11
HETATM   11  C   UNL     1      21.758  56.821  87.751  1.00  0.00     0.013 A 
HETATM   12  C   UNL     1      23.097  56.431  87.806  1.00  0.00     0.042 A 
HETATM   13  C   UNL     1      23.756  55.972  86.671  1.00  0.00     0.035 A 
HETATM   14  C   UNL     1      23.073  55.844  85.425  1.00  0.00     0.032 A 
HETATM   15  C   UNL     1      21.725  56.207  85.337  1.00  0.00     0.045 A 
HETATM   16  C   UNL     1      21.092  56.687  86.467  1.00  0.00     0.125 A 
HETATM   17  F   UNL     1      19.839  57.017  86.325  1.00  0.00    -0.205 F 
BRANCH  13  18
HETATM   18  N   UNL     1      25.119  55.818  86.871  1.00  0.00    -0.322 N 
HETATM   19  C   UNL     1      26.136  56.379  86.161  1.00  0.00     0.274 C 
HETATM   20  O   UNL     1      25.986  57.163  85.253  1.00  0.00    -0.266 OA
ATOM     21  HN  UNL     1      25.393  55.211  87.644  1.00  0.00     0.169 HD
BRANCH  19  22
HETATM   22  C   UNL     1      27.481  56.036  86.597  1.00  0.00     0.116 A 
HETATM   23  N   UNL     1      27.724  54.780  87.050  1.00  0.00    -0.356 N 
HETATM   24  C   UNL     1      28.941  54.480  87.440  1.00  0.00     0.144 A 
ATOM     25  HN  UNL     1      26.978  54.086  87.087  1.00  0.00     0.165 HD
HETATM   26  C   UNL     1      29.965  55.497  87.370  1.00  0.00     0.157 A 
HETATM   27  N   UNL     1      29.721  56.738  86.926  1.00  0.00    -0.344 N 
HETATM   28  C   UNL     1      28.471  57.022  86.534  1.00  0.00     0.125 A 
ATOM     29  HN  UNL     1      30.460  57.440  86.887  1.00  0.00     0.167 HD
BRANCH  26  30
HETATM   30  O   UNL     1      31.209  55.201  87.758  1.00  0.00    -0.340 OA
HETATM   31  C   UNL     1      31.405  54.350  88.889  1.00  0.00     0.211 C 
ENDBRANCH  26  30
ENDBRANCH  19  22
ENDBRANCH  13  18
ENDBRANCH   6  11
BRANCH   2  32
HETATM   32  C   UNL     1      17.724  58.336  90.366  1.00  0.00     0.680 A 
HETATM   33  N   UNL     1      16.653  58.056  89.486  1.00  0.00    -0.199 N 
HETATM   34  C   UNL     1      15.415  58.101  89.990  1.00  0.00     0.149 A 
ATOM     35  HN  UNL     1      16.818  57.829  88.506  1.00  0.00     0.183 HD
HETATM   36  C   UNL     1      15.209  58.421  91.337  1.00  0.00     0.148 A 
HETATM   37  F   UNL     1      14.010  58.516  91.756  1.00  0.00    -0.203 F 
HETATM   38  C   UNL     1      16.320  58.681  92.200  1.00  0.00     0.149 A 
HETATM   39  N   UNL     1      17.592  58.637  91.737  1.00  0.00    -0.199 N 
ATOM     40  HN  UNL     1      18.397  58.810  92.338  1.00  0.00     0.183 HD
ENDBRANCH   2  32
BRANCH   1  41
HETATM   41  N   UNL     1      23.076  56.962  92.013  1.00  0.00    -0.380 N 
ATOM     42  HN2 UNL     1      23.021  55.944  91.987  1.00  0.00     0.158 HD
ATOM     43  HN1 UNL     1      23.469  57.544  92.753  1.00  0.00     0.158 HD
ENDBRANCH   1  41
TORSDOF 6
ENDMDL
MODEL 8
REMARK VINA RESULT:    -9.065      3.467      4.408
REMARK INTER + INTRA:         -12.470
REMARK INTER:                 -11.928
REMARK INTRA:                  -0.542
REMARK UNBOUND:                -0.491
REMARK  6 active torsions:
REMARK  status: ('A' for Active; 'I' for Inactive)
REMARK    1  A    between atoms: O_1  and  C_16 
REMARK    2  A    between atoms: C_3  and  N_5 
REMARK    3  A    between atoms: C_4  and  N_32 
REMARK    4  A    between atoms: C_9  and  C_29 
REMARK       I    between atoms: C_11  and  N_21 
REMARK    5  A    between atoms: C_11  and  C_12 
REMARK    6  A    between atoms: N_21  and  C_23 
ROOT
HETATM    1  C   UNL     1      21.512  55.497  90.528  1.00  0.00     0.134 C 
HETATM    2  N   UNL     1      18.459  55.903  88.364  1.00  0.00    -0.214 N 
HETATM    3  C   UNL     1      19.539  56.755  87.879  1.00  0.00     0.178 C 
HETATM    4  C   UNL     1      18.285  55.989  89.821  1.00  0.00     0.149 C 
HETATM    5  C   UNL     1      19.137  57.180  90.215  1.00  0.00     0.049 C 
HETATM    6  C   UNL     1      20.303  57.143  89.198  1.00  0.00     0.085 C 
HETATM    7  N   UNL     1      21.292  56.087  89.390  1.00  0.00    -0.355 N 
ATOM      8  HN  UNL     1      21.843  55.793  88.584  1.00  0.00     0.162 HD
HETATM    9  S   UNL     1      20.686  55.807  92.105  1.00  0.00    -0.094 SA
HETATM   10  C   UNL     1      19.602  57.193  91.671  1.00  0.00     0.091 C 
ENDROOT
BRANCH   6  11
HETATM   11  C   UNL     1      21.055  58.488  89.163  1.00  0.00     0.013 A 
HETATM   12  C   UNL     1      22.415  58.558  88.855  1.00  0.00     0.042 A 
HETATM   13  C   UNL     1      23.108  59.759  88.941  1.00  0.00     0.035 A 
HETATM   14  C   UNL     1      22.443  60.968  89.304  1.00  0.00     0.032 A 
HETATM   15  C   UNL     1      21.076  60.941  89.602  1.00  0.00     0.045 A 
HETATM   16  C   UNL     1      20.408  59.733  89.538  1.00  0.00     0.125 A 
HETATM   17  F   UNL     1      19.139  59.765  89.832  1.00  0.00    -0.205 F 
BRANCH  13  18
HETATM   18  N   UNL     1      24.476  59.599  88.789  1.00  0.00    -0.322 N 
HETATM   19  C   UNL     1      25.386  59.243  89.737  1.00  0.00     0.274 C 
HETATM   20  O   UNL     1      25.109  58.955  90.878  1.00  0.00    -0.266 OA
ATOM     21  HN  UNL     1      24.846  59.768  87.854  1.00  0.00     0.169 HD
BRANCH  19  22
HETATM   22  C   UNL     1      26.769  59.153  89.291  1.00  0.00     0.116 A 
HETATM   23  N   UNL     1      27.213  57.986  88.760  1.00  0.00    -0.356 N 
HETATM   24  C   UNL     1      28.461  57.916  88.359  1.00  0.00     0.144 A 
ATOM     25  HN  UNL     1      26.591  57.182  88.675  1.00  0.00     0.165 HD
HETATM   26  C   UNL     1      29.304  59.081  88.501  1.00  0.00     0.157 A 
HETATM   27  N   UNL     1      28.864  60.231  89.030  1.00  0.00    -0.344 N 
HETATM   28  C   UNL     1      27.586  60.280  89.433  1.00  0.00     0.125 A 
ATOM     29  HN  UNL     1      29.478  61.040  89.122  1.00  0.00     0.167 HD
BRANCH  26  30
HETATM   30  O   UNL     1      30.574  59.023  88.091  1.00  0.00    -0.340 OA
HETATM   31  C   UNL     1      31.286  60.238  87.848  1.00  0.00     0.211 C 
ENDBRANCH  26  30
ENDBRANCH  19  22
ENDBRANCH  13  18
ENDBRANCH   6  11
BRANCH   2  32
HETATM   32  C   UNL     1      17.638  55.162  87.532  1.00  0.00     0.680 A 
HETATM   33  N   UNL     1      18.202  54.708  86.318  1.00  0.00    -0.199 N 
HETATM   34  C   UNL     1      17.421  53.982  85.510  1.00  0.00     0.149 A 
ATOM     35  HN  UNL     1      19.166  54.925  86.067  1.00  0.00     0.183 HD
HETATM   36  C   UNL     1      16.098  53.700  85.869  1.00  0.00     0.148 A 
HETATM   37  F   UNL     1      15.373  53.061  85.039  1.00  0.00    -0.203 F 
HETATM   38  C   UNL     1      15.569  54.162  87.115  1.00  0.00     0.149 A 
HETATM   39  N   UNL     1      16.325  54.892  87.970  1.00  0.00    -0.199 N 
ATOM     40  HN  UNL     1      15.970  55.223  88.866  1.00  0.00     0.183 HD
ENDBRANCH   2  32
BRANCH   1  41
HETATM   41  N   UNL     1      22.472  54.509  90.605  1.00  0.00    -0.380 N 
ATOM     42  HN2 UNL     1      22.990  54.521  91.483  1.00  0.00     0.158 HD
ATOM     43  HN1 UNL     1      22.594  53.866  89.822  1.00  0.00     0.158 HD
ENDBRANCH   1  41
TORSDOF 6
ENDMDL
MODEL 9
REMARK VINA RESULT:    -9.034      2.619      4.141
REMARK INTER + INTRA:         -12.430
REMARK INTER:                 -12.061
REMARK INTRA:                  -0.368
REMARK UNBOUND:                -0.491
REMARK  6 active torsions:
REMARK  status: ('A' for Active; 'I' for Inactive)
REMARK    1  A    between atoms: O_1  and  C_16 
REMARK    2  A    between atoms: C_3  and  N_5 
REMARK    3  A    between atoms: C_4  and  N_32 
REMARK    4  A    between atoms: C_9  and  C_29 
REMARK       I    between atoms: C_11  and  N_21 
REMARK    5  A    between atoms: C_11  and  C_12 
REMARK    6  A    between atoms: N_21  and  C_23 
ROOT
HETATM    1  C   UNL     1      20.384  56.092  90.807  1.00  0.00     0.134 C 
HETATM    2  N   UNL     1      16.725  56.804  90.287  1.00  0.00    -0.214 N 
HETATM    3  C   UNL     1      17.208  55.874  89.273  1.00  0.00     0.178 C 
HETATM    4  C   UNL     1      17.628  57.949  90.478  1.00  0.00     0.149 C 
HETATM    5  C   UNL     1      18.586  57.848  89.306  1.00  0.00     0.049 C 
HETATM    6  C   UNL     1      18.700  56.324  89.061  1.00  0.00     0.085 C 
HETATM    7  N   UNL     1      19.469  55.570  90.045  1.00  0.00    -0.355 N 
ATOM      8  HN  UNL     1      19.277  54.572  90.141  1.00  0.00     0.162 HD
HETATM    9  S   UNL     1      20.922  57.816  90.854  1.00  0.00    -0.094 SA
HETATM   10  C   UNL     1      19.938  58.532  89.512  1.00  0.00     0.091 C 
ENDROOT
BRANCH   6  11
HETATM   11  C   UNL     1      19.297  56.027  87.671  1.00  0.00     0.013 A 
HETATM   12  C   UNL     1      20.671  55.868  87.484  1.00  0.00     0.042 A 
HETATM   13  C   UNL     1      21.208  55.717  86.211  1.00  0.00     0.035 A 
HETATM   14  C   UNL     1      20.368  55.675  85.059  1.00  0.00     0.032 A 
HETATM   15  C   UNL     1      18.983  55.811  85.209  1.00  0.00     0.045 A 
HETATM   16  C   UNL     1      18.468  55.988  86.478  1.00  0.00     0.125 A 
HETATM   17  F   UNL     1      17.174  56.117  86.558  1.00  0.00    -0.205 F 
BRANCH  13  18
HETATM   18  N   UNL     1      22.593  55.769  86.206  1.00  0.00    -0.322 N 
HETATM   19  C   UNL     1      23.400  56.438  85.338  1.00  0.00     0.274 C 
HETATM   20  O   UNL     1      23.005  57.152  84.447  1.00  0.00    -0.266 OA
ATOM     21  HN  UNL     1      23.064  55.242  86.942  1.00  0.00     0.169 HD
BRANCH  19  22
HETATM   22  C   UNL     1      24.831  56.311  85.573  1.00  0.00     0.116 A 
HETATM   23  N   UNL     1      25.677  57.174  84.957  1.00  0.00    -0.356 N 
HETATM   24  C   UNL     1      26.966  57.052  85.176  1.00  0.00     0.144 A 
ATOM     25  HN  UNL     1      25.320  57.901  84.338  1.00  0.00     0.165 HD
HETATM   26  C   UNL     1      27.425  56.005  86.061  1.00  0.00     0.157 A 
HETATM   27  N   UNL     1      26.587  55.151  86.665  1.00  0.00    -0.344 N 
HETATM   28  C   UNL     1      25.276  55.295  86.426  1.00  0.00     0.125 A 
ATOM     29  HN  UNL     1      26.935  54.419  87.284  1.00  0.00     0.167 HD
BRANCH  26  30
HETATM   30  O   UNL     1      28.733  55.875  86.297  1.00  0.00    -0.340 OA
HETATM   31  C   UNL     1      29.177  54.938  87.280  1.00  0.00     0.211 C 
ENDBRANCH  26  30
ENDBRANCH  19  22
ENDBRANCH  13  18
ENDBRANCH   6  11
BRANCH   2  32
HETATM   32  C   UNL     1      15.511  56.664  90.937  1.00  0.00     0.680 A 
HETATM   33  N   UNL     1      15.010  57.805  91.607  1.00  0.00    -0.199 N 
HETATM   34  C   UNL     1      13.833  57.684  92.230  1.00  0.00     0.149 A 
ATOM     35  HN  UNL     1      15.526  58.685  91.614  1.00  0.00     0.183 HD
HETATM   36  C   UNL     1      13.143  56.466  92.213  1.00  0.00     0.148 A 
HETATM   37  F   UNL     1      12.058  56.381  92.875  1.00  0.00    -0.203 F 
HETATM   38  C   UNL     1      13.674  55.340  91.509  1.00  0.00     0.149 A 
HETATM   39  N   UNL     1      14.858  55.418  90.856  1.00  0.00    -0.199 N 
ATOM     40  HN  UNL     1      15.249  54.629  90.340  1.00  0.00     0.183 HD
ENDBRANCH   2  32
BRANCH   1  41
HETATM   41  N   UNL     1      21.057  55.290  91.706  1.00  0.00    -0.380 N 
ATOM     42  HN2 UNL     1      22.069  55.310  91.582  1.00  0.00     0.158 HD
ATOM     43  HN1 UNL     1      20.527  54.759  92.397  1.00  0.00     0.158 HD
ENDBRANCH   1  41
TORSDOF 6
ENDMDL
