MODEL 1
REMARK VINA RESULT:   -10.652      0.000      0.000
REMARK INTER + INTRA:         -14.610
REMARK INTER:                 -13.766
REMARK INTRA:                  -0.843
REMARK UNBOUND:                -0.843
REMARK  5 active torsions:
REMARK  status: ('A' for Active; 'I' for Inactive)
REMARK       I    between atoms: C_1  and  N_15 
REMARK    1  A    between atoms: C_1  and  C_2 
REMARK    2  A    between atoms: C_2  and  N_19 
REMARK    3  A    between atoms: C_6  and  C_20 
REMARK    4  A    between atoms: C_12  and  N_40 
REMARK    5  A    between atoms: C_28  and  C_33 
ROOT
HETATM    1  C   UNL     1     -17.696  15.958  31.221  1.00  0.00    -0.020 A 
HETATM    2  C   UNL     1     -14.233  16.072  28.105  1.00  0.00     0.196 C 
HETATM    3  C   UNL     1     -13.472  14.777  27.847  1.00  0.00     0.156 C 
HETATM    4  C   UNL     1     -14.236  12.566  26.952  1.00  0.00     0.126 A 
HETATM    5  C   UNL     1     -16.266  14.385  29.416  1.00  0.00     0.042 A 
HETATM    6  C   UNL     1     -17.524  13.992  29.867  1.00  0.00     0.019 A 
HETATM    7  C   UNL     1     -16.455  16.376  30.780  1.00  0.00     0.050 A 
HETATM    8  C   UNL     1     -15.734  15.615  29.887  1.00  0.00     0.083 A 
HETATM    9  O   UNL     1     -14.540  16.080  29.501  1.00  0.00    -0.348 OA
HETATM   10  N   UNL     1     -14.398  13.658  27.752  1.00  0.00    -0.338 N 
HETATM   11  C   UNL     1     -15.301  11.743  27.148  1.00  0.00     0.095 A 
HETATM   12  N   UNL     1     -16.107  12.333  28.061  1.00  0.00    -0.337 N 
ATOM     13  HN  UNL     1     -16.984  11.942  28.404  1.00  0.00     0.167 HD
HETATM   14  C   UNL     1     -15.599  13.481  28.445  1.00  0.00     0.121 A 
HETATM   15  C   UNL     1     -18.237  14.758  30.766  1.00  0.00     0.013 A 
ENDROOT
BRANCH   1  16
HETATM   16  C   UNL     1     -18.432  16.832  32.176  1.00  0.00     0.008 A 
HETATM   17  C   UNL     1     -17.903  17.970  32.821  1.00  0.00     0.121 A 
HETATM   18  N   UNL     1     -18.842  18.484  33.568  1.00  0.00    -0.308 N 
HETATM   19  N   UNL     1     -19.997  17.707  33.429  1.00  0.00    -0.284 N 
ATOM     20  HN  UNL     1     -18.749  19.313  34.154  1.00  0.00     0.186 HD
HETATM   21  C   UNL     1     -19.741  16.702  32.557  1.00  0.00     0.125 A 
BRANCH  19  22
HETATM   22  C   UNL     1     -21.273  17.970  34.106  1.00  0.00     0.126 C 
HETATM   23  C   UNL     1     -21.747  16.708  34.835  1.00  0.00     0.051 C 
HETATM   24  C   UNL     1     -22.293  18.392  33.046  1.00  0.00     0.051 C 
BRANCH  22  25
HETATM   25  C   UNL     1     -21.087  19.069  35.108  1.00  0.00     0.245 C 
HETATM   26  N   UNL     1     -21.738  20.248  34.960  1.00  0.00    -0.368 N 
ATOM     27  HN2 UNL     1     -21.611  20.997  35.642  1.00  0.00     0.159 HD
ATOM     28  HN1 UNL     1     -22.350  20.405  34.160  1.00  0.00     0.159 HD
HETATM   29  O   UNL     1     -20.360  18.883  36.058  1.00  0.00    -0.271 OA
ENDBRANCH  22  25
ENDBRANCH  19  22
ENDBRANCH   1  16
BRANCH  11  30
HETATM   30  C   UNL     1     -15.495  10.428  26.503  1.00  0.00     0.152 A 
HETATM   31  N   UNL     1     -16.337   9.467  26.906  1.00  0.00    -0.269 N 
HETATM   32  N   UNL     1     -16.164   8.392  26.034  1.00  0.00    -0.285 N 
HETATM   33  C   UNL     1     -15.243   8.733  25.179  1.00  0.00     0.093 A 
ATOM     34  HN  UNL     1     -16.666   7.504  26.060  1.00  0.00     0.188 HD
HETATM   35  C   UNL     1     -14.730   7.858  24.055  1.00  0.00     0.090 C 
HETATM   36  N   UNL     1     -14.831   9.961  25.464  1.00  0.00    -0.328 N 
ATOM     37  HN  UNL     1     -14.109  10.470  24.954  1.00  0.00     0.169 HD
BRANCH  31  38
HETATM   38  C   UNL     1     -17.272   9.508  28.030  1.00  0.00     0.102 C 
HETATM   39  C   UNL     1     -17.181   8.148  28.722  1.00  0.00     0.034 C 
HETATM   40  C   UNL     1     -18.673   9.802  27.495  1.00  0.00     0.034 C 
ENDBRANCH  31  38
ENDBRANCH  11  30
TORSDOF 5
ENDMDL
MODEL 2
REMARK VINA RESULT:    -9.589      2.431      3.146
REMARK INTER + INTRA:         -13.235
REMARK INTER:                 -12.148
REMARK INTRA:                  -1.088
REMARK UNBOUND:                -0.843
REMARK  5 active torsions:
REMARK  status: ('A' for Active; 'I' for Inactive)
REMARK       I    between atoms: C_1  and  N_15 
REMARK    1  A    between atoms: C_1  and  C_2 
REMARK    2  A    between atoms: C_2  and  N_19 
REMARK    3  A    between atoms: C_6  and  C_20 
REMARK    4  A    between atoms: C_12  and  N_40 
REMARK    5  A    between atoms: C_28  and  C_33 
ROOT
HETATM    1  C   UNL     1     -18.125  14.846  30.412  1.00  0.00    -0.020 A 
HETATM    2  C   UNL     1     -14.955  13.196  27.420  1.00  0.00     0.196 C 
HETATM    3  C   UNL     1     -14.958  11.698  27.144  1.00  0.00     0.156 C 
HETATM    4  C   UNL     1     -16.708  10.207  26.148  1.00  0.00     0.126 A 
HETATM    5  C   UNL     1     -17.625  12.783  28.603  1.00  0.00     0.042 A 
HETATM    6  C   UNL     1     -18.926  13.089  28.998  1.00  0.00     0.019 A 
HETATM    7  C   UNL     1     -16.827  14.570  30.027  1.00  0.00     0.050 A 
HETATM    8  C   UNL     1     -16.559  13.557  29.134  1.00  0.00     0.083 A 
HETATM    9  O   UNL     1     -15.280  13.345  28.805  1.00  0.00    -0.348 OA
HETATM   10  N   UNL     1     -16.322  11.218  26.980  1.00  0.00    -0.338 N 
HETATM   11  C   UNL     1     -18.052  10.048  26.279  1.00  0.00     0.095 A 
HETATM   12  N   UNL     1     -18.481  10.959  27.185  1.00  0.00    -0.337 N 
ATOM     13  HN  UNL     1     -19.449  11.071  27.484  1.00  0.00     0.167 HD
HETATM   14  C   UNL     1     -17.473  11.675  27.625  1.00  0.00     0.121 A 
HETATM   15  C   UNL     1     -19.185  14.102  29.897  1.00  0.00     0.013 A 
ENDROOT
BRANCH   1  16
HETATM   16  C   UNL     1     -18.351  15.963  31.370  1.00  0.00     0.008 A 
HETATM   17  C   UNL     1     -17.449  17.017  31.629  1.00  0.00     0.121 A 
HETATM   18  N   UNL     1     -17.994  17.808  32.512  1.00  0.00    -0.308 N 
HETATM   19  N   UNL     1     -19.254  17.300  32.847  1.00  0.00    -0.284 N 
ATOM     20  HN  UNL     1     -17.572  18.654  32.894  1.00  0.00     0.186 HD
HETATM   21  C   UNL     1     -19.473  16.173  32.127  1.00  0.00     0.125 A 
BRANCH  19  22
HETATM   22  C   UNL     1     -20.181  17.917  33.804  1.00  0.00     0.126 C 
HETATM   23  C   UNL     1     -20.327  17.022  35.039  1.00  0.00     0.051 C 
HETATM   24  C   UNL     1     -21.531  18.095  33.108  1.00  0.00     0.051 C 
BRANCH  22  25
HETATM   25  C   UNL     1     -19.642  19.250  34.231  1.00  0.00     0.245 C 
HETATM   26  N   UNL     1     -20.326  20.385  33.954  1.00  0.00    -0.368 N 
ATOM     27  HN2 UNL     1     -19.960  21.292  34.244  1.00  0.00     0.159 HD
ATOM     28  HN1 UNL     1     -21.208  20.348  33.442  1.00  0.00     0.159 HD
HETATM   29  O   UNL     1     -18.595  19.294  34.837  1.00  0.00    -0.271 OA
ENDBRANCH  22  25
ENDBRANCH  19  22
ENDBRANCH   1  16
BRANCH  11  30
HETATM   30  C   UNL     1     -18.864   9.029  25.584  1.00  0.00     0.152 A 
HETATM   31  N   UNL     1     -19.960   9.259  24.849  1.00  0.00    -0.269 N 
HETATM   32  N   UNL     1     -20.421   8.014  24.419  1.00  0.00    -0.285 N 
HETATM   33  C   UNL     1     -19.619   7.114  24.911  1.00  0.00     0.093 A 
ATOM     34  HN  UNL     1     -21.235   7.841  23.829  1.00  0.00     0.188 HD
HETATM   35  C   UNL     1     -19.753   5.621  24.705  1.00  0.00     0.090 C 
HETATM   36  N   UNL     1     -18.679   7.724  25.622  1.00  0.00    -0.328 N 
ATOM     37  HN  UNL     1     -17.926   7.253  26.123  1.00  0.00     0.169 HD
BRANCH  31  38
HETATM   38  C   UNL     1     -20.573  10.548  24.534  1.00  0.00     0.102 C 
HETATM   39  C   UNL     1     -21.721  10.739  25.526  1.00  0.00     0.034 C 
HETATM   40  C   UNL     1     -21.051  10.525  23.082  1.00  0.00     0.034 C 
ENDBRANCH  31  38
ENDBRANCH  11  30
TORSDOF 5
ENDMDL
MODEL 3
REMARK VINA RESULT:    -9.531      2.596      4.792
REMARK INTER + INTRA:         -13.161
REMARK INTER:                 -12.700
REMARK INTRA:                  -0.461
REMARK UNBOUND:                -0.843
REMARK  5 active torsions:
REMARK  status: ('A' for Active; 'I' for Inactive)
REMARK       I    between atoms: C_1  and  N_15 
REMARK    1  A    between atoms: C_1  and  C_2 
REMARK    2  A    between atoms: C_2  and  N_19 
REMARK    3  A    between atoms: C_6  and  C_20 
REMARK    4  A    between atoms: C_12  and  N_40 
REMARK    5  A    between atoms: C_28  and  C_33 
ROOT
HETATM    1  C   UNL     1     -19.343  17.574  33.321  1.00  0.00    -0.020 A 
HETATM    2  C   UNL     1     -21.484  14.067  31.125  1.00  0.00     0.196 C 
HETATM    3  C   UNL     1     -21.104  13.806  29.673  1.00  0.00     0.156 C 
HETATM    4  C   UNL     1     -18.921  13.158  28.629  1.00  0.00     0.126 A 
HETATM    5  C   UNL     1     -19.046  15.720  31.260  1.00  0.00     0.042 A 
HETATM    6  C   UNL     1     -17.936  16.344  31.827  1.00  0.00     0.019 A 
HETATM    7  C   UNL     1     -20.458  16.962  32.784  1.00  0.00     0.050 A 
HETATM    8  C   UNL     1     -20.333  16.042  31.767  1.00  0.00     0.083 A 
HETATM    9  O   UNL     1     -21.454  15.486  31.294  1.00  0.00    -0.348 OA
HETATM   10  N   UNL     1     -19.662  13.897  29.504  1.00  0.00    -0.338 N 
HETATM   11  C   UNL     1     -17.621  13.533  28.760  1.00  0.00     0.095 A 
HETATM   12  N   UNL     1     -17.571  14.496  29.711  1.00  0.00    -0.337 N 
ATOM     13  HN  UNL     1     -16.721  14.966  30.021  1.00  0.00     0.167 HD
HETATM   14  C   UNL     1     -18.773  14.738  30.179  1.00  0.00     0.121 A 
HETATM   15  C   UNL     1     -18.071  17.268  32.842  1.00  0.00     0.013 A 
ENDROOT
BRANCH   1  16
HETATM   16  C   UNL     1     -19.542  18.550  34.428  1.00  0.00     0.008 A 
HETATM   17  C   UNL     1     -19.906  19.905  34.271  1.00  0.00     0.121 A 
HETATM   18  N   UNL     1     -19.999  20.439  35.459  1.00  0.00    -0.308 N 
HETATM   19  N   UNL     1     -19.706  19.457  36.412  1.00  0.00    -0.284 N 
ATOM     20  HN  UNL     1     -20.244  21.408  35.658  1.00  0.00     0.186 HD
HETATM   21  C   UNL     1     -19.443  18.293  35.770  1.00  0.00     0.125 A 
BRANCH  19  22
HETATM   22  C   UNL     1     -19.715  19.668  37.865  1.00  0.00     0.126 C 
HETATM   23  C   UNL     1     -20.557  18.584  38.545  1.00  0.00     0.051 C 
HETATM   24  C   UNL     1     -20.302  21.054  38.139  1.00  0.00     0.051 C 
BRANCH  22  25
HETATM   25  C   UNL     1     -18.311  19.591  38.387  1.00  0.00     0.245 C 
HETATM   26  N   UNL     1     -17.880  18.481  39.033  1.00  0.00    -0.368 N 
ATOM     27  HN2 UNL     1     -16.925  18.429  39.388  1.00  0.00     0.159 HD
ATOM     28  HN1 UNL     1     -18.509  17.691  39.181  1.00  0.00     0.159 HD
HETATM   29  O   UNL     1     -17.566  20.529  38.211  1.00  0.00    -0.271 OA
ENDBRANCH  22  25
ENDBRANCH  19  22
ENDBRANCH   1  16
BRANCH  11  30
HETATM   30  C   UNL     1     -16.494  13.006  27.964  1.00  0.00     0.152 A 
HETATM   31  N   UNL     1     -15.260  13.525  27.900  1.00  0.00    -0.269 N 
HETATM   32  N   UNL     1     -14.539  12.733  27.006  1.00  0.00    -0.285 N 
HETATM   33  C   UNL     1     -15.347  11.809  26.570  1.00  0.00     0.093 A 
ATOM     34  HN  UNL     1     -13.562  12.855  26.743  1.00  0.00     0.188 HD
HETATM   35  C   UNL     1     -14.983  10.734  25.569  1.00  0.00     0.090 C 
HETATM   36  N   UNL     1     -16.532  11.975  27.143  1.00  0.00    -0.328 N 
ATOM     37  HN  UNL     1     -17.352  11.391  26.974  1.00  0.00     0.169 HD
BRANCH  31  38
HETATM   38  C   UNL     1     -14.739  14.687  28.618  1.00  0.00     0.102 C 
HETATM   39  C   UNL     1     -13.555  15.208  27.803  1.00  0.00     0.034 C 
HETATM   40  C   UNL     1     -14.335  14.255  30.028  1.00  0.00     0.034 C 
ENDBRANCH  31  38
ENDBRANCH  11  30
TORSDOF 5
ENDMDL
MODEL 4
REMARK VINA RESULT:    -9.321      2.431     10.961
REMARK INTER + INTRA:         -12.890
REMARK INTER:                 -11.778
REMARK INTRA:                  -1.111
REMARK UNBOUND:                -0.843
REMARK  5 active torsions:
REMARK  status: ('A' for Active; 'I' for Inactive)
REMARK       I    between atoms: C_1  and  N_15 
REMARK    1  A    between atoms: C_1  and  C_2 
REMARK    2  A    between atoms: C_2  and  N_19 
REMARK    3  A    between atoms: C_6  and  C_20 
REMARK    4  A    between atoms: C_12  and  N_40 
REMARK    5  A    between atoms: C_28  and  C_33 
ROOT
HETATM    1  C   UNL     1     -17.316  14.148  29.651  1.00  0.00    -0.020 A 
HETATM    2  C   UNL     1     -21.652  14.549  31.312  1.00  0.00     0.196 C 
HETATM    3  C   UNL     1     -21.816  15.021  32.751  1.00  0.00     0.156 C 
HETATM    4  C   UNL     1     -21.165  17.168  33.867  1.00  0.00     0.126 A 
HETATM    5  C   UNL     1     -18.872  15.513  31.520  1.00  0.00     0.042 A 
HETATM    6  C   UNL     1     -17.647  16.025  31.100  1.00  0.00     0.019 A 
HETATM    7  C   UNL     1     -18.533  13.625  30.043  1.00  0.00     0.050 A 
HETATM    8  C   UNL     1     -19.318  14.285  30.963  1.00  0.00     0.083 A 
HETATM    9  O   UNL     1     -20.486  13.722  31.296  1.00  0.00    -0.348 OA
HETATM   10  N   UNL     1     -20.907  16.124  33.027  1.00  0.00    -0.338 N 
HETATM   11  C   UNL     1     -20.078  17.984  33.866  1.00  0.00     0.095 A 
HETATM   12  N   UNL     1     -19.164  17.440  33.027  1.00  0.00    -0.337 N 
ATOM     13  HN  UNL     1     -18.246  17.838  32.828  1.00  0.00     0.167 HD
HETATM   14  C   UNL     1     -19.626  16.328  32.507  1.00  0.00     0.121 A 
HETATM   15  C   UNL     1     -16.865  15.355  30.182  1.00  0.00     0.013 A 
ENDROOT
BRANCH   1  16
HETATM   16  C   UNL     1     -16.521  13.396  28.643  1.00  0.00     0.008 A 
HETATM   17  C   UNL     1     -15.278  13.801  28.111  1.00  0.00     0.121 A 
HETATM   18  N   UNL     1     -14.880  12.886  27.270  1.00  0.00    -0.308 N 
HETATM   19  N   UNL     1     -15.839  11.868  27.234  1.00  0.00    -0.284 N 
ATOM     20  HN  UNL     1     -14.015  12.909  26.730  1.00  0.00     0.186 HD
HETATM   21  C   UNL     1     -16.837  12.181  28.094  1.00  0.00     0.125 A 
BRANCH  19  22
HETATM   22  C   UNL     1     -15.746  10.655  26.411  1.00  0.00     0.126 C 
HETATM   23  C   UNL     1     -16.955  10.567  25.473  1.00  0.00     0.051 C 
HETATM   24  C   UNL     1     -15.706   9.448  27.350  1.00  0.00     0.051 C 
BRANCH  22  25
HETATM   25  C   UNL     1     -14.495  10.708  25.586  1.00  0.00     0.245 C 
HETATM   26  N   UNL     1     -13.554   9.740  25.707  1.00  0.00    -0.368 N 
ATOM     27  HN2 UNL     1     -12.703   9.776  25.146  1.00  0.00     0.159 HD
ATOM     28  HN1 UNL     1     -13.681   8.973  26.367  1.00  0.00     0.159 HD
HETATM   29  O   UNL     1     -14.344  11.618  24.803  1.00  0.00    -0.271 OA
ENDBRANCH  22  25
ENDBRANCH  19  22
ENDBRANCH   1  16
BRANCH  11  30
HETATM   30  C   UNL     1     -19.927  19.210  34.676  1.00  0.00     0.152 A 
HETATM   31  N   UNL     1     -19.146  19.353  35.755  1.00  0.00    -0.269 N 
HETATM   32  N   UNL     1     -19.343  20.653  36.221  1.00  0.00    -0.285 N 
HETATM   33  C   UNL     1     -20.219  21.216  35.439  1.00  0.00     0.093 A 
ATOM     34  HN  UNL     1     -18.887  21.083  37.026  1.00  0.00     0.188 HD
HETATM   35  C   UNL     1     -20.738  22.630  35.585  1.00  0.00     0.090 C 
HETATM   36  N   UNL     1     -20.579  20.343  34.506  1.00  0.00    -0.328 N 
ATOM     37  HN  UNL     1     -21.260  20.523  33.768  1.00  0.00     0.169 HD
BRANCH  31  38
HETATM   38  C   UNL     1     -18.248  18.364  36.348  1.00  0.00     0.102 C 
HETATM   39  C   UNL     1     -18.075  18.757  37.816  1.00  0.00     0.034 C 
HETATM   40  C   UNL     1     -16.927  18.375  35.579  1.00  0.00     0.034 C 
ENDBRANCH  31  38
ENDBRANCH  11  30
TORSDOF 5
ENDMDL
MODEL 5
REMARK VINA RESULT:    -9.264      1.520      2.272
REMARK INTER + INTRA:         -12.815
REMARK INTER:                 -11.975
REMARK INTRA:                  -0.841
REMARK UNBOUND:                -0.843
REMARK  5 active torsions:
REMARK  status: ('A' for Active; 'I' for Inactive)
REMARK       I    between atoms: C_1  and  N_15 
REMARK    1  A    between atoms: C_1  and  C_2 
REMARK    2  A    between atoms: C_2  and  N_19 
REMARK    3  A    between atoms: C_6  and  C_20 
REMARK    4  A    between atoms: C_12  and  N_40 
REMARK    5  A    between atoms: C_28  and  C_33 
ROOT
HETATM    1  C   UNL     1     -18.354  16.217  31.855  1.00  0.00    -0.020 A 
HETATM    2  C   UNL     1     -14.925  15.064  28.917  1.00  0.00     0.196 C 
HETATM    3  C   UNL     1     -14.723  13.585  28.613  1.00  0.00     0.156 C 
HETATM    4  C   UNL     1     -16.237  11.898  27.545  1.00  0.00     0.126 A 
HETATM    5  C   UNL     1     -17.544  14.277  30.022  1.00  0.00     0.042 A 
HETATM    6  C   UNL     1     -18.883  14.400  30.388  1.00  0.00     0.019 A 
HETATM    7  C   UNL     1     -17.023  16.122  31.499  1.00  0.00     0.050 A 
HETATM    8  C   UNL     1     -16.602  15.173  30.595  1.00  0.00     0.083 A 
HETATM    9  O   UNL     1     -15.299  15.139  30.295  1.00  0.00    -0.348 OA
HETATM   10  N   UNL     1     -16.008  12.932  28.405  1.00  0.00    -0.338 N 
HETATM   11  C   UNL     1     -17.551  11.561  27.638  1.00  0.00     0.095 A 
HETATM   12  N   UNL     1     -18.118  12.387  28.549  1.00  0.00    -0.337 N 
ATOM     13  HN  UNL     1     -19.099  12.365  28.825  1.00  0.00     0.167 HD
HETATM   14  C   UNL     1     -17.224  13.221  29.028  1.00  0.00     0.121 A 
HETATM   15  C   UNL     1     -19.294  15.351  31.299  1.00  0.00     0.013 A 
ENDROOT
BRANCH   1  16
HETATM   16  C   UNL     1     -18.748  17.273  32.827  1.00  0.00     0.008 A 
HETATM   17  C   UNL     1     -18.023  18.454  33.094  1.00  0.00     0.121 A 
HETATM   18  N   UNL     1     -18.681  19.139  33.989  1.00  0.00    -0.308 N 
HETATM   19  N   UNL     1     -19.842  18.434  34.324  1.00  0.00    -0.284 N 
ATOM     20  HN  UNL     1     -18.396  20.038  34.378  1.00  0.00     0.186 HD
HETATM   21  C   UNL     1     -19.884  17.295  33.592  1.00  0.00     0.125 A 
BRANCH  19  22
HETATM   22  C   UNL     1     -20.848  18.885  35.293  1.00  0.00     0.126 C 
HETATM   23  C   UNL     1     -20.917  17.905  36.468  1.00  0.00     0.051 C 
HETATM   24  C   UNL     1     -22.197  18.959  34.575  1.00  0.00     0.051 C 
BRANCH  22  25
HETATM   25  C   UNL     1     -20.467  20.239  35.813  1.00  0.00     0.245 C 
HETATM   26  N   UNL     1     -21.232  21.321  35.531  1.00  0.00    -0.368 N 
ATOM     27  HN2 UNL     1     -20.972  22.243  35.884  1.00  0.00     0.159 HD
ATOM     28  HN1 UNL     1     -22.067  21.229  34.953  1.00  0.00     0.159 HD
HETATM   29  O   UNL     1     -19.475  20.349  36.498  1.00  0.00    -0.271 OA
ENDBRANCH  22  25
ENDBRANCH  19  22
ENDBRANCH   1  16
BRANCH  11  30
HETATM   30  C   UNL     1     -18.206  10.459  26.904  1.00  0.00     0.152 A 
HETATM   31  N   UNL     1     -17.704   9.233  26.706  1.00  0.00    -0.269 N 
HETATM   32  N   UNL     1     -18.636   8.539  25.934  1.00  0.00    -0.285 N 
HETATM   33  C   UNL     1     -19.623   9.354  25.694  1.00  0.00     0.093 A 
ATOM     34  HN  UNL     1     -18.560   7.572  25.618  1.00  0.00     0.188 HD
HETATM   35  C   UNL     1     -20.852   9.019  24.879  1.00  0.00     0.090 C 
HETATM   36  N   UNL     1     -19.363  10.520  26.274  1.00  0.00    -0.328 N 
ATOM     37  HN  UNL     1     -19.968  11.340  26.237  1.00  0.00     0.169 HD
BRANCH  31  38
HETATM   38  C   UNL     1     -16.434   8.695  27.194  1.00  0.00     0.102 C 
HETATM   39  C   UNL     1     -15.856   7.847  26.060  1.00  0.00     0.034 C 
HETATM   40  C   UNL     1     -16.699   7.881  28.459  1.00  0.00     0.034 C 
ENDBRANCH  31  38
ENDBRANCH  11  30
TORSDOF 5
ENDMDL
MODEL 6
REMARK VINA RESULT:    -9.215      2.777      4.097
REMARK INTER + INTRA:         -12.752
REMARK INTER:                 -11.878
REMARK INTRA:                  -0.874
REMARK UNBOUND:                -0.843
REMARK  5 active torsions:
REMARK  status: ('A' for Active; 'I' for Inactive)
REMARK       I    between atoms: C_1  and  N_15 
REMARK    1  A    between atoms: C_1  and  C_2 
REMARK    2  A    between atoms: C_2  and  N_19 
REMARK    3  A    between atoms: C_6  and  C_20 
REMARK    4  A    between atoms: C_12  and  N_40 
REMARK    5  A    between atoms: C_28  and  C_33 
ROOT
HETATM    1  C   UNL     1     -19.104  15.723  31.327  1.00  0.00    -0.020 A 
HETATM    2  C   UNL     1     -22.644  13.645  29.121  1.00  0.00     0.196 C 
HETATM    3  C   UNL     1     -22.385  13.106  27.721  1.00  0.00     0.156 C 
HETATM    4  C   UNL     1     -20.806  11.343  26.897  1.00  0.00     0.126 A 
HETATM    5  C   UNL     1     -19.712  13.815  29.387  1.00  0.00     0.042 A 
HETATM    6  C   UNL     1     -18.469  13.824  30.016  1.00  0.00     0.019 A 
HETATM    7  C   UNL     1     -20.348  15.728  30.726  1.00  0.00     0.050 A 
HETATM    8  C   UNL     1     -20.669  14.793  29.767  1.00  0.00     0.083 A 
HETATM    9  O   UNL     1     -21.891  14.855  29.227  1.00  0.00    -0.348 OA
HETATM   10  N   UNL     1     -21.097  12.428  27.671  1.00  0.00    -0.338 N 
HETATM   11  C   UNL     1     -19.508  11.007  27.121  1.00  0.00     0.095 A 
HETATM   12  N   UNL     1     -19.013  11.882  28.027  1.00  0.00    -0.337 N 
ATOM     13  HN  UNL     1     -18.058  11.872  28.386  1.00  0.00     0.167 HD
HETATM   14  C   UNL     1     -19.935  12.746  28.379  1.00  0.00     0.121 A 
HETATM   15  C   UNL     1     -18.155  14.768  30.972  1.00  0.00     0.013 A 
ENDROOT
BRANCH   1  16
HETATM   16  C   UNL     1     -18.823  16.751  32.367  1.00  0.00     0.008 A 
HETATM   17  C   UNL     1     -17.655  17.541  32.443  1.00  0.00     0.121 A 
HETATM   18  N   UNL     1     -17.771  18.334  33.474  1.00  0.00    -0.308 N 
HETATM   19  N   UNL     1     -19.003  18.088  34.089  1.00  0.00    -0.284 N 
ATOM     20  HN  UNL     1     -17.079  19.017  33.779  1.00  0.00     0.186 HD
HETATM   21  C   UNL     1     -19.651  17.124  33.392  1.00  0.00     0.125 A 
BRANCH  19  22
HETATM   22  C   UNL     1     -19.503  18.788  35.278  1.00  0.00     0.126 C 
HETATM   23  C   UNL     1     -20.634  17.981  35.922  1.00  0.00     0.051 C 
HETATM   24  C   UNL     1     -20.007  20.165  34.840  1.00  0.00     0.051 C 
BRANCH  22  25
HETATM   25  C   UNL     1     -18.389  18.940  36.271  1.00  0.00     0.245 C 
HETATM   26  N   UNL     1     -18.200  18.008  37.237  1.00  0.00    -0.368 N 
ATOM     27  HN2 UNL     1     -17.443  18.111  37.912  1.00  0.00     0.159 HD
ATOM     28  HN1 UNL     1     -18.820  17.201  37.306  1.00  0.00     0.159 HD
HETATM   29  O   UNL     1     -17.654  19.898  36.189  1.00  0.00    -0.271 OA
ENDBRANCH  22  25
ENDBRANCH  19  22
ENDBRANCH   1  16
BRANCH  11  30
HETATM   30  C   UNL     1     -18.780   9.911  26.449  1.00  0.00     0.152 A 
HETATM   31  N   UNL     1     -17.463   9.865  26.213  1.00  0.00    -0.269 N 
HETATM   32  N   UNL     1     -17.220   8.674  25.527  1.00  0.00    -0.285 N 
HETATM   33  C   UNL     1     -18.368   8.079  25.369  1.00  0.00     0.093 A 
ATOM     34  HN  UNL     1     -16.313   8.333  25.208  1.00  0.00     0.188 HD
HETATM   35  C   UNL     1     -18.574   6.756  24.664  1.00  0.00     0.090 C 
HETATM   36  N   UNL     1     -19.315   8.827  25.920  1.00  0.00    -0.328 N 
ATOM     37  HN  UNL     1     -20.309   8.598  25.933  1.00  0.00     0.169 HD
BRANCH  31  38
HETATM   38  C   UNL     1     -16.450  10.849  26.592  1.00  0.00     0.102 C 
HETATM   39  C   UNL     1     -15.449  10.912  25.437  1.00  0.00     0.034 C 
HETATM   40  C   UNL     1     -15.802  10.409  27.904  1.00  0.00     0.034 C 
ENDBRANCH  31  38
ENDBRANCH  11  30
TORSDOF 5
ENDMDL
MODEL 7
REMARK VINA RESULT:    -9.154      2.393      4.508
REMARK INTER + INTRA:         -12.673
REMARK INTER:                 -11.969
REMARK INTRA:                  -0.704
REMARK UNBOUND:                -0.843
REMARK  5 active torsions:
REMARK  status: ('A' for Active; 'I' for Inactive)
REMARK       I    between atoms: C_1  and  N_15 
REMARK    1  A    between atoms: C_1  and  C_2 
REMARK    2  A    between atoms: C_2  and  N_19 
REMARK    3  A    between atoms: C_6  and  C_20 
REMARK    4  A    between atoms: C_12  and  N_40 
REMARK    5  A    between atoms: C_28  and  C_33 
ROOT
HETATM    1  C   UNL     1     -20.021  16.939  32.697  1.00  0.00    -0.020 A 
HETATM    2  C   UNL     1     -21.617  13.208  30.406  1.00  0.00     0.196 C 
HETATM    3  C   UNL     1     -21.103  12.975  28.992  1.00  0.00     0.156 C 
HETATM    4  C   UNL     1     -18.791  12.547  28.126  1.00  0.00     0.126 A 
HETATM    5  C   UNL     1     -19.379  15.107  30.696  1.00  0.00     0.042 A 
HETATM    6  C   UNL     1     -18.385  15.847  31.334  1.00  0.00     0.019 A 
HETATM    7  C   UNL     1     -21.023  16.209  32.088  1.00  0.00     0.050 A 
HETATM    8  C   UNL     1     -20.727  15.298  31.099  1.00  0.00     0.083 A 
HETATM    9  O   UNL     1     -21.746  14.624  30.554  1.00  0.00    -0.348 OA
HETATM   10  N   UNL     1     -19.668  13.214  28.930  1.00  0.00    -0.338 N 
HETATM   11  C   UNL     1     -17.550  13.056  28.348  1.00  0.00     0.095 A 
HETATM   12  N   UNL     1     -17.672  14.027  29.284  1.00  0.00    -0.337 N 
ATOM     13  HN  UNL     1     -16.901  14.586  29.649  1.00  0.00     0.167 HD
HETATM   14  C   UNL     1     -18.925  14.149  29.655  1.00  0.00     0.121 A 
HETATM   15  C   UNL     1     -18.692  16.762  32.320  1.00  0.00     0.013 A 
ENDROOT
BRANCH   1  16
HETATM   16  C   UNL     1     -20.404  17.899  33.769  1.00  0.00     0.008 A 
HETATM   17  C   UNL     1     -21.575  18.687  33.785  1.00  0.00     0.121 A 
HETATM   18  N   UNL     1     -21.574  19.391  34.883  1.00  0.00    -0.308 N 
HETATM   19  N   UNL     1     -20.418  19.084  35.608  1.00  0.00    -0.284 N 
ATOM     20  HN  UNL     1     -22.296  20.054  35.166  1.00  0.00     0.186 HD
HETATM   21  C   UNL     1     -19.711  18.152  34.924  1.00  0.00     0.125 A 
BRANCH  19  22
HETATM   22  C   UNL     1     -20.061  19.667  36.907  1.00  0.00     0.126 C 
HETATM   23  C   UNL     1     -18.590  20.096  36.900  1.00  0.00     0.051 C 
HETATM   24  C   UNL     1     -20.306  18.609  37.985  1.00  0.00     0.051 C 
BRANCH  22  25
HETATM   25  C   UNL     1     -20.917  20.871  37.164  1.00  0.00     0.245 C 
HETATM   26  N   UNL     1     -20.432  22.116  36.941  1.00  0.00    -0.368 N 
ATOM     27  HN2 UNL     1     -21.014  22.936  37.116  1.00  0.00     0.159 HD
ATOM     28  HN1 UNL     1     -19.477  22.249  36.608  1.00  0.00     0.159 HD
HETATM   29  O   UNL     1     -22.050  20.714  37.560  1.00  0.00    -0.271 OA
ENDBRANCH  22  25
ENDBRANCH  19  22
ENDBRANCH   1  16
BRANCH  11  30
HETATM   30  C   UNL     1     -16.317  12.641  27.649  1.00  0.00     0.152 A 
HETATM   31  N   UNL     1     -15.127  13.252  27.714  1.00  0.00    -0.269 N 
HETATM   32  N   UNL     1     -14.268  12.546  26.872  1.00  0.00    -0.285 N 
HETATM   33  C   UNL     1     -14.958  11.579  26.338  1.00  0.00     0.093 A 
ATOM     34  HN  UNL     1     -13.282  12.749  26.705  1.00  0.00     0.188 HD
HETATM   35  C   UNL     1     -14.422  10.569  25.348  1.00  0.00     0.090 C 
HETATM   36  N   UNL     1     -16.200  11.638  26.801  1.00  0.00    -0.328 N 
ATOM     37  HN  UNL     1     -16.953  11.000  26.540  1.00  0.00     0.169 HD
BRANCH  31  38
HETATM   38  C   UNL     1     -14.765  14.426  28.508  1.00  0.00     0.102 C 
HETATM   39  C   UNL     1     -13.612  15.111  27.773  1.00  0.00     0.034 C 
HETATM   40  C   UNL     1     -14.375  13.969  29.914  1.00  0.00     0.034 C 
ENDBRANCH  31  38
ENDBRANCH  11  30
TORSDOF 5
ENDMDL
MODEL 8
REMARK VINA RESULT:    -9.099      2.356      3.301
REMARK INTER + INTRA:         -12.602
REMARK INTER:                 -11.650
REMARK INTRA:                  -0.952
REMARK UNBOUND:                -0.843
REMARK  5 active torsions:
REMARK  status: ('A' for Active; 'I' for Inactive)
REMARK       I    between atoms: C_1  and  N_15 
REMARK    1  A    between atoms: C_1  and  C_2 
REMARK    2  A    between atoms: C_2  and  N_19 
REMARK    3  A    between atoms: C_6  and  C_20 
REMARK    4  A    between atoms: C_12  and  N_40 
REMARK    5  A    between atoms: C_28  and  C_33 
ROOT
HETATM    1  C   UNL     1     -18.859  15.921  31.641  1.00  0.00    -0.020 A 
HETATM    2  C   UNL     1     -21.559  12.699  29.632  1.00  0.00     0.196 C 
HETATM    3  C   UNL     1     -21.195  12.251  28.222  1.00  0.00     0.156 C 
HETATM    4  C   UNL     1     -19.144  11.125  27.326  1.00  0.00     0.126 A 
HETATM    5  C   UNL     1     -18.858  13.878  29.744  1.00  0.00     0.042 A 
HETATM    6  C   UNL     1     -17.667  14.330  30.307  1.00  0.00     0.019 A 
HETATM    7  C   UNL     1     -20.054  15.482  31.105  1.00  0.00     0.050 A 
HETATM    8  C   UNL     1     -20.076  14.473  30.168  1.00  0.00     0.083 A 
HETATM    9  O   UNL     1     -21.268  14.097  29.692  1.00  0.00    -0.348 OA
HETATM   10  N   UNL     1     -19.757  12.060  28.108  1.00  0.00    -0.338 N 
HETATM   11  C   UNL     1     -17.801  11.263  27.483  1.00  0.00     0.095 A 
HETATM   12  N   UNL     1     -17.598  12.276  28.359  1.00  0.00    -0.337 N 
ATOM     13  HN  UNL     1     -16.683  12.605  28.667  1.00  0.00     0.167 HD
HETATM   14  C   UNL     1     -18.745  12.775  28.754  1.00  0.00     0.121 A 
HETATM   15  C   UNL     1     -17.655  15.345  31.241  1.00  0.00     0.013 A 
ENDROOT
BRANCH   1  16
HETATM   16  C   UNL     1     -18.902  17.006  32.660  1.00  0.00     0.008 A 
HETATM   17  C   UNL     1     -17.977  18.068  32.766  1.00  0.00     0.121 A 
HETATM   18  N   UNL     1     -18.344  18.824  33.765  1.00  0.00    -0.308 N 
HETATM   19  N   UNL     1     -19.506  18.285  34.328  1.00  0.00    -0.284 N 
ATOM     20  HN  UNL     1     -17.864  19.666  34.081  1.00  0.00     0.186 HD
HETATM   21  C   UNL     1     -19.852  17.176  33.632  1.00  0.00     0.125 A 
BRANCH  19  22
HETATM   22  C   UNL     1     -20.230  18.858  35.469  1.00  0.00     0.126 C 
HETATM   23  C   UNL     1     -19.861  18.107  36.752  1.00  0.00     0.051 C 
HETATM   24  C   UNL     1     -21.729  18.737  35.189  1.00  0.00     0.051 C 
BRANCH  22  25
HETATM   25  C   UNL     1     -19.850  20.301  35.626  1.00  0.00     0.245 C 
HETATM   26  N   UNL     1     -19.122  20.706  36.694  1.00  0.00    -0.368 N 
ATOM     27  HN2 UNL     1     -18.864  21.687  36.801  1.00  0.00     0.159 HD
ATOM     28  HN1 UNL     1     -18.834  20.037  37.409  1.00  0.00     0.159 HD
HETATM   29  O   UNL     1     -20.192  21.094  34.778  1.00  0.00    -0.271 OA
ENDBRANCH  22  25
ENDBRANCH  19  22
ENDBRANCH   1  16
BRANCH  11  30
HETATM   30  C   UNL     1     -16.771  10.472  26.780  1.00  0.00     0.152 A 
HETATM   31  N   UNL     1     -16.691   9.135  26.742  1.00  0.00    -0.269 N 
HETATM   32  N   UNL     1     -15.549   8.824  26.002  1.00  0.00    -0.285 N 
HETATM   33  C   UNL     1     -14.998   9.950  25.650  1.00  0.00     0.093 A 
ATOM     34  HN  UNL     1     -15.210   7.889  25.779  1.00  0.00     0.188 HD
HETATM   35  C   UNL     1     -13.727  10.083  24.841  1.00  0.00     0.090 C 
HETATM   36  N   UNL     1     -15.731  10.949  26.124  1.00  0.00    -0.328 N 
ATOM     37  HN  UNL     1     -15.522  11.940  26.000  1.00  0.00     0.169 HD
BRANCH  31  38
HETATM   38  C   UNL     1     -17.606   8.165  27.341  1.00  0.00     0.102 C 
HETATM   39  C   UNL     1     -16.877   7.563  28.543  1.00  0.00     0.034 C 
HETATM   40  C   UNL     1     -17.970   7.117  26.291  1.00  0.00     0.034 C 
ENDBRANCH  31  38
ENDBRANCH  11  30
TORSDOF 5
ENDMDL
MODEL 9
REMARK VINA RESULT:    -9.022      2.535     10.945
REMARK INTER + INTRA:         -12.502
REMARK INTER:                 -11.625
REMARK INTRA:                  -0.877
REMARK UNBOUND:                -0.843
REMARK  5 active torsions:
REMARK  status: ('A' for Active; 'I' for Inactive)
REMARK       I    between atoms: C_1  and  N_15 
REMARK    1  A    between atoms: C_1  and  C_2 
REMARK    2  A    between atoms: C_2  and  N_19 
REMARK    3  A    between atoms: C_6  and  C_20 
REMARK    4  A    between atoms: C_12  and  N_40 
REMARK    5  A    between atoms: C_28  and  C_33 
ROOT
HETATM    1  C   UNL     1     -17.497  14.273  29.849  1.00  0.00    -0.020 A 
HETATM    2  C   UNL     1     -21.820  14.626  31.554  1.00  0.00     0.196 C 
HETATM    3  C   UNL     1     -21.975  15.099  32.994  1.00  0.00     0.156 C 
HETATM    4  C   UNL     1     -21.337  17.255  34.100  1.00  0.00     0.126 A 
HETATM    5  C   UNL     1     -19.050  15.623  31.732  1.00  0.00     0.042 A 
HETATM    6  C   UNL     1     -17.834  16.148  31.299  1.00  0.00     0.019 A 
HETATM    7  C   UNL     1     -18.704  13.737  30.255  1.00  0.00     0.050 A 
HETATM    8  C   UNL     1     -19.487  14.388  31.181  1.00  0.00     0.083 A 
HETATM    9  O   UNL     1     -20.644  13.813  31.527  1.00  0.00    -0.348 OA
HETATM   10  N   UNL     1     -21.076  16.213  33.258  1.00  0.00    -0.338 N 
HETATM   11  C   UNL     1     -20.259  18.083  34.086  1.00  0.00     0.095 A 
HETATM   12  N   UNL     1     -19.348  17.549  33.239  1.00  0.00    -0.337 N 
ATOM     13  HN  UNL     1     -18.437  17.957  33.030  1.00  0.00     0.167 HD
HETATM   14  C   UNL     1     -19.803  16.430  32.726  1.00  0.00     0.121 A 
HETATM   15  C   UNL     1     -17.054  15.485  30.374  1.00  0.00     0.013 A 
ENDROOT
BRANCH   1  16
HETATM   16  C   UNL     1     -16.703  13.528  28.834  1.00  0.00     0.008 A 
HETATM   17  C   UNL     1     -15.636  14.058  28.078  1.00  0.00     0.121 A 
HETATM   18  N   UNL     1     -15.177  13.111  27.306  1.00  0.00    -0.308 N 
HETATM   19  N   UNL     1     -15.922  11.949  27.537  1.00  0.00    -0.284 N 
ATOM     20  HN  UNL     1     -14.406  13.202  26.645  1.00  0.00     0.186 HD
HETATM   21  C   UNL     1     -16.848  12.209  28.492  1.00  0.00     0.125 A 
BRANCH  19  22
HETATM   22  C   UNL     1     -15.702  10.662  26.865  1.00  0.00     0.126 C 
HETATM   23  C   UNL     1     -15.819   9.518  27.877  1.00  0.00     0.051 C 
HETATM   24  C   UNL     1     -14.305  10.687  26.241  1.00  0.00     0.051 C 
BRANCH  22  25
HETATM   25  C   UNL     1     -16.739  10.475  25.798  1.00  0.00     0.245 C 
HETATM   26  N   UNL     1     -17.983  10.047  26.120  1.00  0.00    -0.368 N 
ATOM     27  HN2 UNL     1     -18.689   9.919  25.394  1.00  0.00     0.159 HD
ATOM     28  HN1 UNL     1     -18.225   9.836  27.089  1.00  0.00     0.159 HD
HETATM   29  O   UNL     1     -16.452  10.724  24.649  1.00  0.00    -0.271 OA
ENDBRANCH  22  25
ENDBRANCH  19  22
ENDBRANCH   1  16
BRANCH  11  30
HETATM   30  C   UNL     1     -20.115  19.312  34.893  1.00  0.00     0.152 A 
HETATM   31  N   UNL     1     -19.342  19.460  35.977  1.00  0.00    -0.269 N 
HETATM   32  N   UNL     1     -19.542  20.761  36.437  1.00  0.00    -0.285 N 
HETATM   33  C   UNL     1     -20.413  21.321  35.647  1.00  0.00     0.093 A 
ATOM     34  HN  UNL     1     -19.091  21.194  37.243  1.00  0.00     0.188 HD
HETATM   35  C   UNL     1     -20.933  22.735  35.785  1.00  0.00     0.090 C 
HETATM   36  N   UNL     1     -20.766  20.445  34.715  1.00  0.00    -0.328 N 
ATOM     37  HN  UNL     1     -21.441  20.622  33.971  1.00  0.00     0.169 HD
BRANCH  31  38
HETATM   38  C   UNL     1     -18.447  18.473  36.580  1.00  0.00     0.102 C 
HETATM   39  C   UNL     1     -18.295  18.863  38.051  1.00  0.00     0.034 C 
HETATM   40  C   UNL     1     -17.115  18.491  35.829  1.00  0.00     0.034 C 
ENDBRANCH  31  38
ENDBRANCH  11  30
TORSDOF 5
ENDMDL
MODEL 10
REMARK VINA RESULT:    -8.905      2.087      3.263
REMARK INTER + INTRA:         -12.352
REMARK INTER:                 -11.282
REMARK INTRA:                  -1.070
REMARK UNBOUND:                -0.843
REMARK  5 active torsions:
REMARK  status: ('A' for Active; 'I' for Inactive)
REMARK       I    between atoms: C_1  and  N_15 
REMARK    1  A    between atoms: C_1  and  C_2 
REMARK    2  A    between atoms: C_2  and  N_19 
REMARK    3  A    between atoms: C_6  and  C_20 
REMARK    4  A    between atoms: C_12  and  N_40 
REMARK    5  A    between atoms: C_28  and  C_33 
ROOT
HETATM    1  C   UNL     1     -19.344  16.976  32.654  1.00  0.00    -0.020 A 
HETATM    2  C   UNL     1     -15.825  16.346  29.665  1.00  0.00     0.196 C 
HETATM    3  C   UNL     1     -15.310  14.926  29.469  1.00  0.00     0.156 C 
HETATM    4  C   UNL     1     -16.443  12.864  28.608  1.00  0.00     0.126 A 
HETATM    5  C   UNL     1     -18.175  15.108  30.946  1.00  0.00     0.042 A 
HETATM    6  C   UNL     1     -19.498  14.968  31.361  1.00  0.00     0.019 A 
HETATM    7  C   UNL     1     -18.034  17.143  32.248  1.00  0.00     0.050 A 
HETATM    8  C   UNL     1     -17.439  16.233  31.403  1.00  0.00     0.083 A 
HETATM    9  O   UNL     1     -16.169  16.457  31.048  1.00  0.00    -0.348 OA
HETATM   10  N   UNL     1     -16.424  13.994  29.372  1.00  0.00    -0.338 N 
HETATM   11  C   UNL     1     -17.647  12.258  28.787  1.00  0.00     0.095 A 
HETATM   12  N   UNL     1     -18.357  13.017  29.654  1.00  0.00    -0.337 N 
ATOM     13  HN  UNL     1     -19.302  12.806  29.975  1.00  0.00     0.167 HD
HETATM   14  C   UNL     1     -17.657  14.063  30.024  1.00  0.00     0.121 A 
HETATM   15  C   UNL     1     -20.084  15.882  32.212  1.00  0.00     0.013 A 
ENDROOT
BRANCH   1  16
HETATM   16  C   UNL     1     -19.935  18.002  33.557  1.00  0.00     0.008 A 
HETATM   17  C   UNL     1     -21.192  18.621  33.383  1.00  0.00     0.121 A 
HETATM   18  N   UNL     1     -21.375  19.450  34.374  1.00  0.00    -0.308 N 
HETATM   19  N   UNL     1     -20.258  19.392  35.215  1.00  0.00    -0.284 N 
ATOM     20  HN  UNL     1     -22.194  20.040  34.513  1.00  0.00     0.186 HD
HETATM   21  C   UNL     1     -19.384  18.486  34.714  1.00  0.00     0.125 A 
BRANCH  19  22
HETATM   22  C   UNL     1     -20.092  20.174  36.446  1.00  0.00     0.126 C 
HETATM   23  C   UNL     1     -20.614  21.599  36.234  1.00  0.00     0.051 C 
HETATM   24  C   UNL     1     -18.603  20.194  36.798  1.00  0.00     0.051 C 
BRANCH  22  25
HETATM   25  C   UNL     1     -20.873  19.531  37.553  1.00  0.00     0.245 C 
HETATM   26  N   UNL     1     -20.442  19.616  38.835  1.00  0.00    -0.368 N 
ATOM     27  HN2 UNL     1     -20.973  19.179  39.588  1.00  0.00     0.159 HD
ATOM     28  HN1 UNL     1     -19.577  20.108  39.059  1.00  0.00     0.159 HD
HETATM   29  O   UNL     1     -21.900  18.947  37.287  1.00  0.00    -0.271 OA
ENDBRANCH  22  25
ENDBRANCH  19  22
ENDBRANCH   1  16
BRANCH  11  30
HETATM   30  C   UNL     1     -18.061  10.980  28.172  1.00  0.00     0.152 A 
HETATM   31  N   UNL     1     -19.184  10.767  27.474  1.00  0.00    -0.269 N 
HETATM   32  N   UNL     1     -19.184   9.418  27.118  1.00  0.00    -0.285 N 
HETATM   33  C   UNL     1     -18.104   8.888  27.615  1.00  0.00     0.093 A 
ATOM     34  HN  UNL     1     -19.898   8.936  26.571  1.00  0.00     0.188 HD
HETATM   35  C   UNL     1     -17.704   7.434  27.481  1.00  0.00     0.090 C 
HETATM   36  N   UNL     1     -17.425   9.829  28.259  1.00  0.00    -0.328 N 
ATOM     37  HN  UNL     1     -16.542   9.683  28.748  1.00  0.00     0.169 HD
BRANCH  31  38
HETATM   38  C   UNL     1     -20.223  11.737  27.128  1.00  0.00     0.102 C 
HETATM   39  C   UNL     1     -21.241  11.710  28.269  1.00  0.00     0.034 C 
HETATM   40  C   UNL     1     -20.837  11.345  25.785  1.00  0.00     0.034 C 
ENDBRANCH  31  38
ENDBRANCH  11  30
TORSDOF 5
ENDMDL
MODEL 11
REMARK VINA RESULT:    -8.714      1.951      3.080
REMARK INTER + INTRA:         -12.105
REMARK INTER:                 -11.188
REMARK INTRA:                  -0.917
REMARK UNBOUND:                -0.843
REMARK  5 active torsions:
REMARK  status: ('A' for Active; 'I' for Inactive)
REMARK       I    between atoms: C_1  and  N_15 
REMARK    1  A    between atoms: C_1  and  C_2 
REMARK    2  A    between atoms: C_2  and  N_19 
REMARK    3  A    between atoms: C_6  and  C_20 
REMARK    4  A    between atoms: C_12  and  N_40 
REMARK    5  A    between atoms: C_28  and  C_33 
ROOT
HETATM    1  C   UNL     1     -19.132  16.650  32.489  1.00  0.00    -0.020 A 
HETATM    2  C   UNL     1     -15.589  15.979  29.537  1.00  0.00     0.196 C 
HETATM    3  C   UNL     1     -15.209  14.542  29.204  1.00  0.00     0.156 C 
HETATM    4  C   UNL     1     -16.508  12.706  28.099  1.00  0.00     0.126 A 
HETATM    5  C   UNL     1     -18.094  14.860  30.620  1.00  0.00     0.042 A 
HETATM    6  C   UNL     1     -19.437  14.812  30.985  1.00  0.00     0.019 A 
HETATM    7  C   UNL     1     -17.799  16.724  32.135  1.00  0.00     0.050 A 
HETATM    8  C   UNL     1     -17.267  15.851  31.212  1.00  0.00     0.083 A 
HETATM    9  O   UNL     1     -15.969  15.980  30.915  1.00  0.00    -0.348 OA
HETATM   10  N   UNL     1     -16.405  13.743  28.980  1.00  0.00    -0.338 N 
HETATM   11  C   UNL     1     -17.771  12.211  28.182  1.00  0.00     0.095 A 
HETATM   12  N   UNL     1     -18.434  12.944  29.108  1.00  0.00    -0.337 N 
ATOM     13  HN  UNL     1     -19.406  12.798  29.381  1.00  0.00     0.167 HD
HETATM   14  C   UNL     1     -17.648  13.869  29.605  1.00  0.00     0.121 A 
HETATM   15  C   UNL     1     -19.960  15.688  31.914  1.00  0.00     0.013 A 
ENDROOT
BRANCH   1  16
HETATM   16  C   UNL     1     -19.652  17.630  33.481  1.00  0.00     0.008 A 
HETATM   17  C   UNL     1     -20.936  18.217  33.460  1.00  0.00     0.121 A 
HETATM   18  N   UNL     1     -21.035  19.011  34.491  1.00  0.00    -0.308 N 
HETATM   19  N   UNL     1     -19.834  18.962  35.207  1.00  0.00    -0.284 N 
ATOM     20  HN  UNL     1     -21.850  19.572  34.733  1.00  0.00     0.186 HD
HETATM   21  C   UNL     1     -18.994  18.097  34.588  1.00  0.00     0.125 A 
BRANCH  19  22
HETATM   22  C   UNL     1     -19.559  19.713  36.438  1.00  0.00     0.126 C 
HETATM   23  C   UNL     1     -20.192  21.105  36.353  1.00  0.00     0.051 C 
HETATM   24  C   UNL     1     -18.041  19.822  36.598  1.00  0.00     0.051 C 
BRANCH  22  25
HETATM   25  C   UNL     1     -20.148  18.983  37.608  1.00  0.00     0.245 C 
HETATM   26  N   UNL     1     -19.442  18.846  38.756  1.00  0.00    -0.368 N 
ATOM     27  HN2 UNL     1     -19.843  18.349  39.552  1.00  0.00     0.159 HD
ATOM     28  HN1 UNL     1     -18.499  19.226  38.833  1.00  0.00     0.159 HD
HETATM   29  O   UNL     1     -21.267  18.531  37.517  1.00  0.00    -0.271 OA
ENDBRANCH  22  25
ENDBRANCH  19  22
ENDBRANCH   1  16
BRANCH  11  30
HETATM   30  C   UNL     1     -18.288  11.053  27.424  1.00  0.00     0.152 A 
HETATM   31  N   UNL     1     -17.676   9.871  27.272  1.00  0.00    -0.269 N 
HETATM   32  N   UNL     1     -18.500   9.096  26.456  1.00  0.00    -0.285 N 
HETATM   33  C   UNL     1     -19.534   9.825  26.147  1.00  0.00     0.093 A 
ATOM     34  HN  UNL     1     -18.325   8.136  26.157  1.00  0.00     0.188 HD
HETATM   35  C   UNL     1     -20.680   9.382  25.265  1.00  0.00     0.090 C 
HETATM   36  N   UNL     1     -19.406  11.012  26.726  1.00  0.00    -0.328 N 
ATOM     37  HN  UNL     1     -20.073  11.779  26.643  1.00  0.00     0.169 HD
BRANCH  31  38
HETATM   38  C   UNL     1     -16.398   9.444  27.842  1.00  0.00     0.102 C 
HETATM   39  C   UNL     1     -15.386   9.452  26.696  1.00  0.00     0.034 C 
HETATM   40  C   UNL     1     -16.573   8.057  28.459  1.00  0.00     0.034 C 
ENDBRANCH  31  38
ENDBRANCH  11  30
TORSDOF 5
ENDMDL
MODEL 12
REMARK VINA RESULT:    -8.656      2.672      3.677
REMARK INTER + INTRA:         -12.030
REMARK INTER:                 -11.382
REMARK INTRA:                  -0.648
REMARK UNBOUND:                -0.843
REMARK  5 active torsions:
REMARK  status: ('A' for Active; 'I' for Inactive)
REMARK       I    between atoms: C_1  and  N_15 
REMARK    1  A    between atoms: C_1  and  C_2 
REMARK    2  A    between atoms: C_2  and  N_19 
REMARK    3  A    between atoms: C_6  and  C_20 
REMARK    4  A    between atoms: C_12  and  N_40 
REMARK    5  A    between atoms: C_28  and  C_33 
ROOT
HETATM    1  C   UNL     1     -18.598  14.836  30.454  1.00  0.00    -0.020 A 
HETATM    2  C   UNL     1     -15.692  12.830  27.414  1.00  0.00     0.196 C 
HETATM    3  C   UNL     1     -15.889  11.348  27.121  1.00  0.00     0.156 C 
HETATM    4  C   UNL     1     -17.824  10.105  26.128  1.00  0.00     0.126 A 
HETATM    5  C   UNL     1     -18.382  12.748  28.619  1.00  0.00     0.042 A 
HETATM    6  C   UNL     1     -19.630  13.213  29.030  1.00  0.00     0.019 A 
HETATM    7  C   UNL     1     -17.350  14.401  30.054  1.00  0.00     0.050 A 
HETATM    8  C   UNL     1     -17.221  13.372  29.147  1.00  0.00     0.083 A 
HETATM    9  O   UNL     1     -15.983  13.002  28.803  1.00  0.00    -0.348 OA
HETATM   10  N   UNL     1     -17.304  11.047  26.966  1.00  0.00    -0.338 N 
HETATM   11  C   UNL     1     -19.176  10.117  26.271  1.00  0.00     0.095 A 
HETATM   12  N   UNL     1     -19.477  11.065  27.190  1.00  0.00    -0.337 N 
ATOM     13  HN  UNL     1     -20.420  11.297  27.500  1.00  0.00     0.167 HD
HETATM   14  C   UNL     1     -18.382  11.641  27.627  1.00  0.00     0.121 A 
HETATM   15  C   UNL     1     -19.749  14.240  29.943  1.00  0.00     0.013 A 
ENDROOT
BRANCH   1  16
HETATM   16  C   UNL     1     -18.671  15.961  31.426  1.00  0.00     0.008 A 
HETATM   17  C   UNL     1     -17.665  16.929  31.638  1.00  0.00     0.121 A 
HETATM   18  N   UNL     1     -18.089  17.759  32.552  1.00  0.00    -0.308 N 
HETATM   19  N   UNL     1     -19.369  17.362  32.955  1.00  0.00    -0.284 N 
ATOM     20  HN  UNL     1     -17.573  18.561  32.912  1.00  0.00     0.186 HD
HETATM   21  C   UNL     1     -19.727  16.265  32.245  1.00  0.00     0.125 A 
BRANCH  19  22
HETATM   22  C   UNL     1     -20.183  18.051  33.963  1.00  0.00     0.126 C 
HETATM   23  C   UNL     1     -20.246  17.214  35.244  1.00  0.00     0.051 C 
HETATM   24  C   UNL     1     -21.585  18.252  33.383  1.00  0.00     0.051 C 
BRANCH  22  25
HETATM   25  C   UNL     1     -19.563  19.380  34.281  1.00  0.00     0.245 C 
HETATM   26  N   UNL     1     -20.223  20.529  34.000  1.00  0.00    -0.368 N 
ATOM     27  HN2 UNL     1     -19.801  21.432  34.216  1.00  0.00     0.159 HD
ATOM     28  HN1 UNL     1     -21.143  20.504  33.558  1.00  0.00     0.159 HD
HETATM   29  O   UNL     1     -18.472  19.409  34.804  1.00  0.00    -0.271 OA
ENDBRANCH  22  25
ENDBRANCH  19  22
ENDBRANCH   1  16
BRANCH  11  30
HETATM   30  C   UNL     1     -20.118   9.219  25.573  1.00  0.00     0.152 A 
HETATM   31  N   UNL     1     -19.856   7.978  25.143  1.00  0.00    -0.269 N 
HETATM   32  N   UNL     1     -21.013   7.520  24.512  1.00  0.00    -0.285 N 
HETATM   33  C   UNL     1     -21.891   8.480  24.572  1.00  0.00     0.093 A 
ATOM     34  HN  UNL     1     -21.147   6.604  24.084  1.00  0.00     0.188 HD
HETATM   35  C   UNL     1     -23.290   8.419  23.999  1.00  0.00     0.090 C 
HETATM   36  N   UNL     1     -21.351   9.512  25.207  1.00  0.00    -0.328 N 
ATOM     37  HN  UNL     1     -21.820  10.400  25.387  1.00  0.00     0.169 HD
BRANCH  31  38
HETATM   38  C   UNL     1     -18.614   7.221  25.296  1.00  0.00     0.102 C 
HETATM   39  C   UNL     1     -18.590   6.191  24.165  1.00  0.00     0.034 C 
HETATM   40  C   UNL     1     -18.599   6.573  26.680  1.00  0.00     0.034 C 
ENDBRANCH  31  38
ENDBRANCH  11  30
TORSDOF 5
ENDMDL
MODEL 13
REMARK VINA RESULT:    -8.395      3.760     10.457
REMARK INTER + INTRA:         -11.692
REMARK INTER:                 -10.544
REMARK INTRA:                  -1.148
REMARK UNBOUND:                -0.843
REMARK  5 active torsions:
REMARK  status: ('A' for Active; 'I' for Inactive)
REMARK       I    between atoms: C_1  and  N_15 
REMARK    1  A    between atoms: C_1  and  C_2 
REMARK    2  A    between atoms: C_2  and  N_19 
REMARK    3  A    between atoms: C_6  and  C_20 
REMARK    4  A    between atoms: C_12  and  N_40 
REMARK    5  A    between atoms: C_28  and  C_33 
ROOT
HETATM    1  C   UNL     1     -20.651  13.254  28.754  1.00  0.00    -0.020 A 
HETATM    2  C   UNL     1     -16.695  14.612  30.809  1.00  0.00     0.196 C 
HETATM    3  C   UNL     1     -16.576  16.075  31.216  1.00  0.00     0.156 C 
HETATM    4  C   UNL     1     -17.913  17.454  32.824  1.00  0.00     0.126 A 
HETATM    5  C   UNL     1     -19.584  15.130  30.520  1.00  0.00     0.042 A 
HETATM    6  C   UNL     1     -20.950  14.860  30.503  1.00  0.00     0.019 A 
HETATM    7  C   UNL     1     -19.291  13.496  28.759  1.00  0.00     0.050 A 
HETATM    8  C   UNL     1     -18.743  14.417  29.625  1.00  0.00     0.083 A 
HETATM    9  O   UNL     1     -17.419  14.600  29.577  1.00  0.00    -0.348 OA
HETATM   10  N   UNL     1     -17.817  16.532  31.823  1.00  0.00    -0.338 N 
HETATM   11  C   UNL     1     -19.231  17.620  33.115  1.00  0.00     0.095 A 
HETATM   12  N   UNL     1     -19.933  16.802  32.296  1.00  0.00    -0.337 N 
ATOM     13  HN  UNL     1     -20.949  16.716  32.290  1.00  0.00     0.167 HD
HETATM   14  C   UNL     1     -19.120  16.136  31.510  1.00  0.00     0.121 A 
HETATM   15  C   UNL     1     -21.490  13.940  29.629  1.00  0.00     0.013 A 
ENDROOT
BRANCH   1  16
HETATM   16  C   UNL     1     -21.180  12.237  27.804  1.00  0.00     0.008 A 
HETATM   17  C   UNL     1     -22.504  11.748  27.782  1.00  0.00     0.121 A 
HETATM   18  N   UNL     1     -22.599  10.883  26.808  1.00  0.00    -0.308 N 
HETATM   19  N   UNL     1     -21.355  10.789  26.174  1.00  0.00    -0.284 N 
ATOM     20  HN  UNL     1     -23.438  10.364  26.553  1.00  0.00     0.186 HD
HETATM   21  C   UNL     1     -20.492  11.638  26.783  1.00  0.00     0.125 A 
BRANCH  19  22
HETATM   22  C   UNL     1     -21.062   9.925  25.025  1.00  0.00     0.126 C 
HETATM   23  C   UNL     1     -21.866   8.625  25.130  1.00  0.00     0.051 C 
HETATM   24  C   UNL     1     -19.560   9.629  25.025  1.00  0.00     0.051 C 
BRANCH  22  25
HETATM   25  C   UNL     1     -21.446  10.632  23.759  1.00  0.00     0.245 C 
HETATM   26  N   UNL     1     -20.503  10.958  22.843  1.00  0.00    -0.368 N 
ATOM     27  HN2 UNL     1     -20.765  11.439  21.982  1.00  0.00     0.159 HD
ATOM     28  HN1 UNL     1     -19.521  10.736  23.008  1.00  0.00     0.159 HD
HETATM   29  O   UNL     1     -22.611  10.895  23.563  1.00  0.00    -0.271 OA
ENDBRANCH  22  25
ENDBRANCH  19  22
ENDBRANCH   1  16
BRANCH  11  30
HETATM   30  C   UNL     1     -19.774  18.563  34.115  1.00  0.00     0.152 A 
HETATM   31  N   UNL     1     -20.452  18.236  35.223  1.00  0.00    -0.269 N 
HETATM   32  N   UNL     1     -20.802  19.434  35.845  1.00  0.00    -0.285 N 
HETATM   33  C   UNL     1     -20.349  20.403  35.103  1.00  0.00     0.093 A 
ATOM     34  HN  UNL     1     -21.318  19.533  36.720  1.00  0.00     0.188 HD
HETATM   35  C   UNL     1     -20.514  21.878  35.397  1.00  0.00     0.090 C 
HETATM   36  N   UNL     1     -19.731  19.879  34.051  1.00  0.00    -0.328 N 
ATOM     37  HN  UNL     1     -19.289  20.416  33.305  1.00  0.00     0.169 HD
BRANCH  31  38
HETATM   38  C   UNL     1     -20.773  16.896  35.714  1.00  0.00     0.102 C 
HETATM   39  C   UNL     1     -22.208  16.603  35.273  1.00  0.00     0.034 C 
HETATM   40  C   UNL     1     -20.612  16.877  37.234  1.00  0.00     0.034 C 
ENDBRANCH  31  38
ENDBRANCH  11  30
TORSDOF 5
ENDMDL
MODEL 14
REMARK VINA RESULT:    -8.353      3.969      5.319
REMARK INTER + INTRA:         -11.637
REMARK INTER:                 -11.005
REMARK INTRA:                  -0.633
REMARK UNBOUND:                -0.843
REMARK  5 active torsions:
REMARK  status: ('A' for Active; 'I' for Inactive)
REMARK       I    between atoms: C_1  and  N_15 
REMARK    1  A    between atoms: C_1  and  C_2 
REMARK    2  A    between atoms: C_2  and  N_19 
REMARK    3  A    between atoms: C_6  and  C_20 
REMARK    4  A    between atoms: C_12  and  N_40 
REMARK    5  A    between atoms: C_28  and  C_33 
ROOT
HETATM    1  C   UNL     1     -19.360  15.305  30.815  1.00  0.00    -0.020 A 
HETATM    2  C   UNL     1     -17.331  12.153  28.047  1.00  0.00     0.196 C 
HETATM    3  C   UNL     1     -18.135  10.911  27.683  1.00  0.00     0.156 C 
HETATM    4  C   UNL     1     -20.294  10.649  26.439  1.00  0.00     0.126 A 
HETATM    5  C   UNL     1     -19.893  13.308  28.943  1.00  0.00     0.042 A 
HETATM    6  C   UNL     1     -20.838  14.290  29.230  1.00  0.00     0.019 A 
HETATM    7  C   UNL     1     -18.402  14.349  30.541  1.00  0.00     0.050 A 
HETATM    8  C   UNL     1     -18.644  13.356  29.619  1.00  0.00     0.083 A 
HETATM    9  O   UNL     1     -17.671  12.464  29.401  1.00  0.00    -0.348 OA
HETATM   10  N   UNL     1     -19.507  11.275  27.362  1.00  0.00    -0.338 N 
HETATM   11  C   UNL     1     -21.504  11.270  26.432  1.00  0.00     0.095 A 
HETATM   12  N   UNL     1     -21.453  12.268  27.345  1.00  0.00    -0.337 N 
ATOM     13  HN  UNL     1     -22.221  12.904  27.556  1.00  0.00     0.167 HD
HETATM   14  C   UNL     1     -20.274  12.301  27.920  1.00  0.00     0.121 A 
HETATM   15  C   UNL     1     -20.589  15.279  30.159  1.00  0.00     0.013 A 
ENDROOT
BRANCH   1  16
HETATM   16  C   UNL     1     -19.034  16.362  31.812  1.00  0.00     0.008 A 
HETATM   17  C   UNL     1     -17.935  17.245  31.740  1.00  0.00     0.121 A 
HETATM   18  N   UNL     1     -17.982  18.035  32.779  1.00  0.00    -0.308 N 
HETATM   19  N   UNL     1     -19.102  17.694  33.546  1.00  0.00    -0.284 N 
ATOM     20  HN  UNL     1     -17.315  18.775  32.995  1.00  0.00     0.186 HD
HETATM   21  C   UNL     1     -19.753  16.675  32.935  1.00  0.00     0.125 A 
BRANCH  19  22
HETATM   22  C   UNL     1     -19.502  18.362  34.790  1.00  0.00     0.126 C 
HETATM   23  C   UNL     1     -18.263  18.690  35.629  1.00  0.00     0.051 C 
HETATM   24  C   UNL     1     -20.434  17.420  35.555  1.00  0.00     0.051 C 
BRANCH  22  25
HETATM   25  C   UNL     1     -20.218  19.639  34.462  1.00  0.00     0.245 C 
HETATM   26  N   UNL     1     -21.568  19.708  34.545  1.00  0.00    -0.368 N 
ATOM     27  HN2 UNL     1     -22.055  20.577  34.322  1.00  0.00     0.159 HD
ATOM     28  HN1 UNL     1     -22.113  18.891  34.819  1.00  0.00     0.159 HD
HETATM   29  O   UNL     1     -19.571  20.609  34.136  1.00  0.00    -0.271 OA
ENDBRANCH  22  25
ENDBRANCH  19  22
ENDBRANCH   1  16
BRANCH  11  30
HETATM   30  C   UNL     1     -22.662  10.876  25.603  1.00  0.00     0.152 A 
HETATM   31  N   UNL     1     -22.611  10.256  24.417  1.00  0.00    -0.269 N 
HETATM   32  N   UNL     1     -23.929  10.117  23.981  1.00  0.00    -0.285 N 
HETATM   33  C   UNL     1     -24.694  10.656  24.886  1.00  0.00     0.093 A 
ATOM     34  HN  UNL     1     -24.236   9.675  23.115  1.00  0.00     0.188 HD
HETATM   35  C   UNL     1     -26.203  10.739  24.816  1.00  0.00     0.090 C 
HETATM   36  N   UNL     1     -23.930  11.123  25.867  1.00  0.00    -0.328 N 
ATOM     37  HN  UNL     1     -24.274  11.600  26.700  1.00  0.00     0.169 HD
BRANCH  31  38
HETATM   38  C   UNL     1     -21.424   9.796  23.697  1.00  0.00     0.102 C 
HETATM   39  C   UNL     1     -21.391  10.564  22.375  1.00  0.00     0.034 C 
HETATM   40  C   UNL     1     -21.525   8.285  23.494  1.00  0.00     0.034 C 
ENDBRANCH  31  38
ENDBRANCH  11  30
TORSDOF 5
ENDMDL
MODEL 15
REMARK VINA RESULT:    -8.288      1.213      2.204
REMARK INTER + INTRA:         -11.555
REMARK INTER:                 -11.629
REMARK INTRA:                   0.074
REMARK UNBOUND:                -0.843
REMARK  5 active torsions:
REMARK  status: ('A' for Active; 'I' for Inactive)
REMARK       I    between atoms: C_1  and  N_15 
REMARK    1  A    between atoms: C_1  and  C_2 
REMARK    2  A    between atoms: C_2  and  N_19 
REMARK    3  A    between atoms: C_6  and  C_20 
REMARK    4  A    between atoms: C_12  and  N_40 
REMARK    5  A    between atoms: C_28  and  C_33 
ROOT
HETATM    1  C   UNL     1     -17.997  16.096  31.610  1.00  0.00    -0.020 A 
HETATM    2  C   UNL     1     -14.627  15.708  28.415  1.00  0.00     0.196 C 
HETATM    3  C   UNL     1     -13.953  14.351  28.261  1.00  0.00     0.156 C 
HETATM    4  C   UNL     1     -14.872  12.117  27.596  1.00  0.00     0.126 A 
HETATM    5  C   UNL     1     -16.717  14.278  29.926  1.00  0.00     0.042 A 
HETATM    6  C   UNL     1     -17.982  14.006  30.443  1.00  0.00     0.019 A 
HETATM    7  C   UNL     1     -16.747  16.394  31.102  1.00  0.00     0.050 A 
HETATM    8  C   UNL     1     -16.099  15.511  30.267  1.00  0.00     0.083 A 
HETATM    9  O   UNL     1     -14.892  15.864  29.811  1.00  0.00    -0.348 OA
HETATM   10  N   UNL     1     -14.945  13.287  28.294  1.00  0.00    -0.338 N 
HETATM   11  C   UNL     1     -15.977  11.383  27.894  1.00  0.00     0.095 A 
HETATM   12  N   UNL     1     -16.720  12.104  28.767  1.00  0.00    -0.337 N 
ATOM     13  HN  UNL     1     -17.608  11.801  29.166  1.00  0.00     0.167 HD
HETATM   14  C   UNL     1     -16.133  13.248  29.029  1.00  0.00     0.121 A 
HETATM   15  C   UNL     1     -18.622  14.895  31.282  1.00  0.00     0.013 A 
ENDROOT
BRANCH   1  16
HETATM   16  C   UNL     1     -18.652  17.097  32.496  1.00  0.00     0.008 A 
HETATM   17  C   UNL     1     -18.078  18.314  32.923  1.00  0.00     0.121 A 
HETATM   18  N   UNL     1     -18.949  18.931  33.673  1.00  0.00    -0.308 N 
HETATM   19  N   UNL     1     -20.104  18.145  33.752  1.00  0.00    -0.284 N 
ATOM     20  HN  UNL     1     -18.812  19.834  34.126  1.00  0.00     0.186 HD
HETATM   21  C   UNL     1     -19.919  17.026  33.011  1.00  0.00     0.125 A 
BRANCH  19  22
HETATM   22  C   UNL     1     -21.315  18.504  34.500  1.00  0.00     0.126 C 
HETATM   23  C   UNL     1     -22.542  18.400  33.587  1.00  0.00     0.051 C 
HETATM   24  C   UNL     1     -21.148  19.936  35.013  1.00  0.00     0.051 C 
BRANCH  22  25
HETATM   25  C   UNL     1     -21.487  17.561  35.653  1.00  0.00     0.245 C 
HETATM   26  N   UNL     1     -20.463  17.335  36.511  1.00  0.00    -0.368 N 
ATOM     27  HN2 UNL     1     -20.580  16.693  37.295  1.00  0.00     0.159 HD
ATOM     28  HN1 UNL     1     -19.562  17.794  36.375  1.00  0.00     0.159 HD
HETATM   29  O   UNL     1     -22.556  17.016  35.814  1.00  0.00    -0.271 OA
ENDBRANCH  22  25
ENDBRANCH  19  22
ENDBRANCH   1  16
BRANCH  11  30
HETATM   30  C   UNL     1     -16.268  10.029  27.381  1.00  0.00     0.152 A 
HETATM   31  N   UNL     1     -15.592   9.385  26.420  1.00  0.00    -0.269 N 
HETATM   32  N   UNL     1     -16.233   8.161  26.232  1.00  0.00    -0.285 N 
HETATM   33  C   UNL     1     -17.246   8.125  27.049  1.00  0.00     0.093 A 
ATOM     34  HN  UNL     1     -15.959   7.429  25.576  1.00  0.00     0.188 HD
HETATM   35  C   UNL     1     -18.227   6.979  27.173  1.00  0.00     0.090 C 
HETATM   36  N   UNL     1     -17.275   9.256  27.742  1.00  0.00    -0.328 N 
ATOM     37  HN  UNL     1     -17.971   9.493  28.448  1.00  0.00     0.169 HD
BRANCH  31  38
HETATM   38  C   UNL     1     -14.408   9.846  25.696  1.00  0.00     0.102 C 
HETATM   39  C   UNL     1     -14.893  10.880  24.680  1.00  0.00     0.034 C 
HETATM   40  C   UNL     1     -13.737   8.642  25.034  1.00  0.00     0.034 C 
ENDBRANCH  31  38
ENDBRANCH  11  30
TORSDOF 5
ENDMDL
MODEL 16
REMARK VINA RESULT:    -8.230      3.894      5.030
REMARK INTER + INTRA:         -11.478
REMARK INTER:                 -10.483
REMARK INTRA:                  -0.995
REMARK UNBOUND:                -0.843
REMARK  5 active torsions:
REMARK  status: ('A' for Active; 'I' for Inactive)
REMARK       I    between atoms: C_1  and  N_15 
REMARK    1  A    between atoms: C_1  and  C_2 
REMARK    2  A    between atoms: C_2  and  N_19 
REMARK    3  A    between atoms: C_6  and  C_20 
REMARK    4  A    between atoms: C_12  and  N_40 
REMARK    5  A    between atoms: C_28  and  C_33 
ROOT
HETATM    1  C   UNL     1     -19.283  15.654  31.112  1.00  0.00    -0.020 A 
HETATM    2  C   UNL     1     -17.098  12.753  28.193  1.00  0.00     0.196 C 
HETATM    3  C   UNL     1     -17.797  11.446  27.840  1.00  0.00     0.156 C 
HETATM    4  C   UNL     1     -19.977  11.001  26.689  1.00  0.00     0.126 A 
HETATM    5  C   UNL     1     -19.712  13.645  29.226  1.00  0.00     0.042 A 
HETATM    6  C   UNL     1     -20.732  14.529  29.574  1.00  0.00     0.019 A 
HETATM    7  C   UNL     1     -18.253  14.797  30.776  1.00  0.00     0.050 A 
HETATM    8  C   UNL     1     -18.443  13.800  29.845  1.00  0.00     0.083 A 
HETATM    9  O   UNL     1     -17.402  13.008  29.566  1.00  0.00    -0.348 OA
HETATM   10  N   UNL     1     -19.211  11.683  27.588  1.00  0.00    -0.338 N 
HETATM   11  C   UNL     1     -21.239  11.503  26.748  1.00  0.00     0.095 A 
HETATM   12  N   UNL     1     -21.240  12.487  27.678  1.00  0.00    -0.337 N 
ATOM     13  HN  UNL     1     -22.054  13.044  27.936  1.00  0.00     0.167 HD
HETATM   14  C   UNL     1     -20.044  12.623  28.200  1.00  0.00     0.121 A 
HETATM   15  C   UNL     1     -20.533  15.521  30.512  1.00  0.00     0.013 A 
ENDROOT
BRANCH   1  16
HETATM   16  C   UNL     1     -19.011  16.720  32.115  1.00  0.00     0.008 A 
HETATM   17  C   UNL     1     -17.940  17.638  32.065  1.00  0.00     0.121 A 
HETATM   18  N   UNL     1     -18.035  18.426  33.102  1.00  0.00    -0.308 N 
HETATM   19  N   UNL     1     -19.159  18.051  33.845  1.00  0.00    -0.284 N 
ATOM     20  HN  UNL     1     -17.396  19.187  33.331  1.00  0.00     0.186 HD
HETATM   21  C   UNL     1     -19.764  17.011  33.222  1.00  0.00     0.125 A 
BRANCH  19  22
HETATM   22  C   UNL     1     -19.606  18.706  35.080  1.00  0.00     0.126 C 
HETATM   23  C   UNL     1     -18.397  19.046  35.958  1.00  0.00     0.051 C 
HETATM   24  C   UNL     1     -20.547  17.746  35.812  1.00  0.00     0.051 C 
BRANCH  22  25
HETATM   25  C   UNL     1     -20.330  19.974  34.737  1.00  0.00     0.245 C 
HETATM   26  N   UNL     1     -21.584  20.193  35.199  1.00  0.00    -0.368 N 
ATOM     27  HN2 UNL     1     -22.077  21.055  34.966  1.00  0.00     0.159 HD
ATOM     28  HN1 UNL     1     -22.055  19.493  35.774  1.00  0.00     0.159 HD
HETATM   29  O   UNL     1     -19.772  20.803  34.055  1.00  0.00    -0.271 OA
ENDBRANCH  22  25
ENDBRANCH  19  22
ENDBRANCH   1  16
BRANCH  11  30
HETATM   30  C   UNL     1     -22.392  11.015  25.964  1.00  0.00     0.152 A 
HETATM   31  N   UNL     1     -23.630  10.800  26.429  1.00  0.00    -0.269 N 
HETATM   32  N   UNL     1     -24.379  10.309  25.360  1.00  0.00    -0.285 N 
HETATM   33  C   UNL     1     -23.583  10.236  24.331  1.00  0.00     0.093 A 
ATOM     34  HN  UNL     1     -25.367  10.054  25.379  1.00  0.00     0.188 HD
HETATM   35  C   UNL     1     -23.978   9.742  22.957  1.00  0.00     0.090 C 
HETATM   36  N   UNL     1     -22.378  10.656  24.695  1.00  0.00    -0.328 N 
ATOM     37  HN  UNL     1     -21.563  10.696  24.084  1.00  0.00     0.169 HD
BRANCH  31  38
HETATM   38  C   UNL     1     -24.131  11.030  27.783  1.00  0.00     0.102 C 
HETATM   39  C   UNL     1     -24.876   9.760  28.195  1.00  0.00     0.034 C 
HETATM   40  C   UNL     1     -25.035  12.262  27.771  1.00  0.00     0.034 C 
ENDBRANCH  31  38
ENDBRANCH  11  30
TORSDOF 5
ENDMDL
MODEL 17
REMARK VINA RESULT:    -8.225      2.248      2.740
REMARK INTER + INTRA:         -11.473
REMARK INTER:                 -10.646
REMARK INTRA:                  -0.828
REMARK UNBOUND:                -0.843
REMARK  5 active torsions:
REMARK  status: ('A' for Active; 'I' for Inactive)
REMARK       I    between atoms: C_1  and  N_15 
REMARK    1  A    between atoms: C_1  and  C_2 
REMARK    2  A    between atoms: C_2  and  N_19 
REMARK    3  A    between atoms: C_6  and  C_20 
REMARK    4  A    between atoms: C_12  and  N_40 
REMARK    5  A    between atoms: C_28  and  C_33 
ROOT
HETATM    1  C   UNL     1     -19.991  15.391  31.584  1.00  0.00    -0.020 A 
HETATM    2  C   UNL     1     -15.797  16.434  29.840  1.00  0.00     0.196 C 
HETATM    3  C   UNL     1     -14.804  15.294  29.659  1.00  0.00     0.156 C 
HETATM    4  C   UNL     1     -14.905  13.228  28.245  1.00  0.00     0.126 A 
HETATM    5  C   UNL     1     -17.850  14.338  30.141  1.00  0.00     0.042 A 
HETATM    6  C   UNL     1     -19.109  13.744  30.088  1.00  0.00     0.019 A 
HETATM    7  C   UNL     1     -18.755  16.005  31.645  1.00  0.00     0.050 A 
HETATM    8  C   UNL     1     -17.685  15.502  30.938  1.00  0.00     0.083 A 
HETATM    9  O   UNL     1     -16.518  16.147  31.041  1.00  0.00    -0.348 OA
HETATM   10  N   UNL     1     -15.472  14.127  29.099  1.00  0.00    -0.338 N 
HETATM   11  C   UNL     1     -15.837  12.282  27.954  1.00  0.00     0.095 A 
HETATM   12  N   UNL     1     -16.966  12.606  28.627  1.00  0.00    -0.337 N 
ATOM     13  HN  UNL     1     -17.835  12.073  28.598  1.00  0.00     0.167 HD
HETATM   14  C   UNL     1     -16.785  13.704  29.322  1.00  0.00     0.121 A 
HETATM   15  C   UNL     1     -20.174  14.252  30.803  1.00  0.00     0.013 A 
ENDROOT
BRANCH   1  16
HETATM   16  C   UNL     1     -21.111  15.991  32.360  1.00  0.00     0.008 A 
HETATM   17  C   UNL     1     -21.338  17.373  32.538  1.00  0.00     0.121 A 
HETATM   18  N   UNL     1     -22.416  17.516  33.260  1.00  0.00    -0.308 N 
HETATM   19  N   UNL     1     -22.918  16.246  33.567  1.00  0.00    -0.284 N 
ATOM     20  HN  UNL     1     -22.823  18.403  33.552  1.00  0.00     0.186 HD
HETATM   21  C   UNL     1     -22.119  15.313  32.994  1.00  0.00     0.125 A 
BRANCH  19  22
HETATM   22  C   UNL     1     -24.128  15.990  34.357  1.00  0.00     0.126 C 
HETATM   23  C   UNL     1     -23.970  16.583  35.761  1.00  0.00     0.051 C 
HETATM   24  C   UNL     1     -24.332  14.475  34.434  1.00  0.00     0.051 C 
BRANCH  22  25
HETATM   25  C   UNL     1     -25.306  16.633  33.688  1.00  0.00     0.245 C 
HETATM   26  N   UNL     1     -26.333  15.877  33.232  1.00  0.00    -0.368 N 
ATOM     27  HN2 UNL     1     -27.134  16.314  32.776  1.00  0.00     0.159 HD
ATOM     28  HN1 UNL     1     -26.311  14.861  33.328  1.00  0.00     0.159 HD
HETATM   29  O   UNL     1     -25.332  17.838  33.573  1.00  0.00    -0.271 OA
ENDBRANCH  22  25
ENDBRANCH  19  22
ENDBRANCH   1  16
BRANCH  11  30
HETATM   30  C   UNL     1     -15.618  11.101  27.095  1.00  0.00     0.152 A 
HETATM   31  N   UNL     1     -16.336   9.970  27.107  1.00  0.00    -0.269 N 
HETATM   32  N   UNL     1     -15.758   9.118  26.166  1.00  0.00    -0.285 N 
HETATM   33  C   UNL     1     -14.738   9.745  25.653  1.00  0.00     0.093 A 
ATOM     34  HN  UNL     1     -16.075   8.179  25.924  1.00  0.00     0.188 HD
HETATM   35  C   UNL     1     -13.812   9.184  24.596  1.00  0.00     0.090 C 
HETATM   36  N   UNL     1     -14.646  10.942  26.217  1.00  0.00    -0.328 N 
ATOM     37  HN  UNL     1     -13.931  11.637  26.004  1.00  0.00     0.169 HD
BRANCH  31  38
HETATM   38  C   UNL     1     -17.506   9.661  27.928  1.00  0.00     0.102 C 
HETATM   39  C   UNL     1     -17.120   8.469  28.806  1.00  0.00     0.034 C 
HETATM   40  C   UNL     1     -18.687   9.353  27.008  1.00  0.00     0.034 C 
ENDBRANCH  31  38
ENDBRANCH  11  30
TORSDOF 5
ENDMDL
MODEL 18
REMARK VINA RESULT:    -8.225      3.036      4.443
REMARK INTER + INTRA:         -11.472
REMARK INTER:                 -10.929
REMARK INTRA:                  -0.543
REMARK UNBOUND:                -0.843
REMARK  5 active torsions:
REMARK  status: ('A' for Active; 'I' for Inactive)
REMARK       I    between atoms: C_1  and  N_15 
REMARK    1  A    between atoms: C_1  and  C_2 
REMARK    2  A    between atoms: C_2  and  N_19 
REMARK    3  A    between atoms: C_6  and  C_20 
REMARK    4  A    between atoms: C_12  and  N_40 
REMARK    5  A    between atoms: C_28  and  C_33 
ROOT
HETATM    1  C   UNL     1     -19.366  15.858  31.760  1.00  0.00    -0.020 A 
HETATM    2  C   UNL     1     -22.765  13.053  30.243  1.00  0.00     0.196 C 
HETATM    3  C   UNL     1     -22.742  12.645  28.776  1.00  0.00     0.156 C 
HETATM    4  C   UNL     1     -21.053  11.356  27.448  1.00  0.00     0.126 A 
HETATM    5  C   UNL     1     -19.978  13.930  29.840  1.00  0.00     0.042 A 
HETATM    6  C   UNL     1     -18.655  14.222  30.164  1.00  0.00     0.019 A 
HETATM    7  C   UNL     1     -20.686  15.578  31.465  1.00  0.00     0.050 A 
HETATM    8  C   UNL     1     -21.010  14.628  30.522  1.00  0.00     0.083 A 
HETATM    9  O   UNL     1     -22.308  14.407  30.286  1.00  0.00    -0.348 OA
HETATM   10  N   UNL     1     -21.387  12.308  28.367  1.00  0.00    -0.338 N 
HETATM   11  C   UNL     1     -19.699  11.341  27.333  1.00  0.00     0.095 A 
HETATM   12  N   UNL     1     -19.211  12.279  28.180  1.00  0.00    -0.337 N 
ATOM     13  HN  UNL     1     -18.221  12.491  28.306  1.00  0.00     0.167 HD
HETATM   14  C   UNL     1     -20.191  12.876  28.815  1.00  0.00     0.121 A 
HETATM   15  C   UNL     1     -18.340  15.179  31.106  1.00  0.00     0.013 A 
ENDROOT
BRANCH   1  16
HETATM   16  C   UNL     1     -19.081  16.885  32.798  1.00  0.00     0.008 A 
HETATM   17  C   UNL     1     -18.043  17.841  32.743  1.00  0.00     0.121 A 
HETATM   18  N   UNL     1     -18.113  18.576  33.819  1.00  0.00    -0.308 N 
HETATM   19  N   UNL     1     -19.188  18.129  34.595  1.00  0.00    -0.284 N 
ATOM     20  HN  UNL     1     -17.489  19.348  34.055  1.00  0.00     0.186 HD
HETATM   21  C   UNL     1     -19.789  17.099  33.952  1.00  0.00     0.125 A 
BRANCH  19  22
HETATM   22  C   UNL     1     -19.596  18.710  35.880  1.00  0.00     0.126 C 
HETATM   23  C   UNL     1     -21.106  18.539  36.074  1.00  0.00     0.051 C 
HETATM   24  C   UNL     1     -19.222  20.194  35.869  1.00  0.00     0.051 C 
BRANCH  22  25
HETATM   25  C   UNL     1     -18.881  18.007  36.994  1.00  0.00     0.245 C 
HETATM   26  N   UNL     1     -17.586  18.298  37.268  1.00  0.00    -0.368 N 
ATOM     27  HN2 UNL     1     -17.099  17.819  38.027  1.00  0.00     0.159 HD
ATOM     28  HN1 UNL     1     -17.081  18.988  36.713  1.00  0.00     0.159 HD
HETATM   29  O   UNL     1     -19.480  17.187  37.653  1.00  0.00    -0.271 OA
ENDBRANCH  22  25
ENDBRANCH  19  22
ENDBRANCH   1  16
BRANCH  11  30
HETATM   30  C   UNL     1     -18.927  10.483  26.411  1.00  0.00     0.152 A 
HETATM   31  N   UNL     1     -19.351  10.007  25.233  1.00  0.00    -0.269 N 
HETATM   32  N   UNL     1     -18.319   9.218  24.726  1.00  0.00    -0.285 N 
HETATM   33  C   UNL     1     -17.352   9.237  25.599  1.00  0.00     0.093 A 
ATOM     34  HN  UNL     1     -18.320   8.719  23.836  1.00  0.00     0.188 HD
HETATM   35  C   UNL     1     -16.037   8.503  25.460  1.00  0.00     0.090 C 
HETATM   36  N   UNL     1     -17.720   9.997  26.623  1.00  0.00    -0.328 N 
ATOM     37  HN  UNL     1     -17.152  10.177  27.451  1.00  0.00     0.169 HD
BRANCH  31  38
HETATM   38  C   UNL     1     -20.635  10.253  24.577  1.00  0.00     0.102 C 
HETATM   39  C   UNL     1     -21.284   8.886  24.364  1.00  0.00     0.034 C 
HETATM   40  C   UNL     1     -20.383  10.994  23.264  1.00  0.00     0.034 C 
ENDBRANCH  31  38
ENDBRANCH  11  30
TORSDOF 5
ENDMDL
MODEL 19
REMARK VINA RESULT:    -8.166      2.502     10.522
REMARK INTER + INTRA:         -11.397
REMARK INTER:                 -10.372
REMARK INTRA:                  -1.025
REMARK UNBOUND:                -0.843
REMARK  5 active torsions:
REMARK  status: ('A' for Active; 'I' for Inactive)
REMARK       I    between atoms: C_1  and  N_15 
REMARK    1  A    between atoms: C_1  and  C_2 
REMARK    2  A    between atoms: C_2  and  N_19 
REMARK    3  A    between atoms: C_6  and  C_20 
REMARK    4  A    between atoms: C_12  and  N_40 
REMARK    5  A    between atoms: C_28  and  C_33 
ROOT
HETATM    1  C   UNL     1     -17.723  14.930  30.539  1.00  0.00    -0.020 A 
HETATM    2  C   UNL     1     -18.030  18.016  34.017  1.00  0.00     0.196 C 
HETATM    3  C   UNL     1     -19.199  18.991  33.995  1.00  0.00     0.156 C 
HETATM    4  C   UNL     1     -21.673  18.604  34.089  1.00  0.00     0.126 A 
HETATM    5  C   UNL     1     -19.528  16.478  31.995  1.00  0.00     0.042 A 
HETATM    6  C   UNL     1     -19.959  15.367  31.273  1.00  0.00     0.019 A 
HETATM    7  C   UNL     1     -17.269  16.020  31.256  1.00  0.00     0.050 A 
HETATM    8  C   UNL     1     -18.144  16.796  31.983  1.00  0.00     0.083 A 
HETATM    9  O   UNL     1     -17.636  17.836  32.655  1.00  0.00    -0.348 OA
HETATM   10  N   UNL     1     -20.426  18.300  33.626  1.00  0.00    -0.338 N 
HETATM   11  C   UNL     1     -22.554  17.745  33.511  1.00  0.00     0.095 A 
HETATM   12  N   UNL     1     -21.846  16.921  32.703  1.00  0.00    -0.337 N 
ATOM     13  HN  UNL     1     -22.247  16.172  32.139  1.00  0.00     0.167 HD
HETATM   14  C   UNL     1     -20.570  17.224  32.747  1.00  0.00     0.121 A 
HETATM   15  C   UNL     1     -19.076  14.598  30.543  1.00  0.00     0.013 A 
ENDROOT
BRANCH   1  16
HETATM   16  C   UNL     1     -16.727  14.121  29.784  1.00  0.00     0.008 A 
HETATM   17  C   UNL     1     -15.324  14.229  29.903  1.00  0.00     0.121 A 
HETATM   18  N   UNL     1     -14.782  13.355  29.099  1.00  0.00    -0.308 N 
HETATM   19  N   UNL     1     -15.804  12.659  28.444  1.00  0.00    -0.284 N 
ATOM     20  HN  UNL     1     -13.782  13.205  28.971  1.00  0.00     0.186 HD
HETATM   21  C   UNL     1     -16.997  13.126  28.883  1.00  0.00     0.125 A 
BRANCH  19  22
HETATM   22  C   UNL     1     -15.595  11.587  27.464  1.00  0.00     0.126 C 
HETATM   23  C   UNL     1     -16.856  11.402  26.614  1.00  0.00     0.051 C 
HETATM   24  C   UNL     1     -15.270  10.302  28.229  1.00  0.00     0.051 C 
BRANCH  22  25
HETATM   25  C   UNL     1     -14.452  11.951  26.563  1.00  0.00     0.245 C 
HETATM   26  N   UNL     1     -13.850  11.005  25.803  1.00  0.00    -0.368 N 
ATOM     27  HN2 UNL     1     -13.073  11.252  25.190  1.00  0.00     0.159 HD
ATOM     28  HN1 UNL     1     -14.159  10.033  25.844  1.00  0.00     0.159 HD
HETATM   29  O   UNL     1     -14.085  13.104  26.514  1.00  0.00    -0.271 OA
ENDBRANCH  22  25
ENDBRANCH  19  22
ENDBRANCH   1  16
BRANCH  11  30
HETATM   30  C   UNL     1     -24.018  17.758  33.711  1.00  0.00     0.152 A 
HETATM   31  N   UNL     1     -24.715  16.936  34.505  1.00  0.00    -0.269 N 
HETATM   32  N   UNL     1     -26.059  17.280  34.357  1.00  0.00    -0.285 N 
HETATM   33  C   UNL     1     -26.115  18.254  33.494  1.00  0.00     0.093 A 
ATOM     34  HN  UNL     1     -26.850  16.850  34.835  1.00  0.00     0.188 HD
HETATM   35  C   UNL     1     -27.384  18.931  33.024  1.00  0.00     0.090 C 
HETATM   36  N   UNL     1     -24.882  18.542  33.096  1.00  0.00    -0.328 N 
ATOM     37  HN  UNL     1     -24.640  19.262  32.416  1.00  0.00     0.169 HD
BRANCH  31  38
HETATM   38  C   UNL     1     -24.199  15.880  35.375  1.00  0.00     0.102 C 
HETATM   39  C   UNL     1     -24.179  14.599  34.541  1.00  0.00     0.034 C 
HETATM   40  C   UNL     1     -25.103  15.766  36.602  1.00  0.00     0.034 C 
ENDBRANCH  31  38
ENDBRANCH  11  30
TORSDOF 5
ENDMDL
MODEL 20
REMARK VINA RESULT:    -8.142      2.778     10.685
REMARK INTER + INTRA:         -11.365
REMARK INTER:                 -10.511
REMARK INTRA:                  -0.854
REMARK UNBOUND:                -0.843
REMARK  5 active torsions:
REMARK  status: ('A' for Active; 'I' for Inactive)
REMARK       I    between atoms: C_1  and  N_15 
REMARK    1  A    between atoms: C_1  and  C_2 
REMARK    2  A    between atoms: C_2  and  N_19 
REMARK    3  A    between atoms: C_6  and  C_20 
REMARK    4  A    between atoms: C_12  and  N_40 
REMARK    5  A    between atoms: C_28  and  C_33 
ROOT
HETATM    1  C   UNL     1     -18.989  12.225  28.469  1.00  0.00    -0.020 A 
HETATM    2  C   UNL     1     -16.288  15.100  30.950  1.00  0.00     0.196 C 
HETATM    3  C   UNL     1     -16.821  16.498  31.237  1.00  0.00     0.156 C 
HETATM    4  C   UNL     1     -18.842  17.265  32.504  1.00  0.00     0.126 A 
HETATM    5  C   UNL     1     -19.056  14.412  30.197  1.00  0.00     0.042 A 
HETATM    6  C   UNL     1     -20.184  13.618  30.005  1.00  0.00     0.019 A 
HETATM    7  C   UNL     1     -17.854  12.991  28.650  1.00  0.00     0.050 A 
HETATM    8  C   UNL     1     -17.865  14.074  29.501  1.00  0.00     0.083 A 
HETATM    9  O   UNL     1     -16.730  14.770  29.631  1.00  0.00    -0.348 OA
HETATM   10  N   UNL     1     -18.226  16.435  31.614  1.00  0.00    -0.338 N 
HETATM   11  C   UNL     1     -20.148  16.897  32.584  1.00  0.00     0.095 A 
HETATM   12  N   UNL     1     -20.325  15.847  31.747  1.00  0.00    -0.337 N 
ATOM     13  HN  UNL     1     -21.210  15.361  31.601  1.00  0.00     0.167 HD
HETATM   14  C   UNL     1     -19.197  15.543  31.151  1.00  0.00     0.121 A 
HETATM   15  C   UNL     1     -20.165  12.538  29.147  1.00  0.00     0.013 A 
ENDROOT
BRANCH   1  16
HETATM   16  C   UNL     1     -18.910  11.059  27.547  1.00  0.00     0.008 A 
HETATM   17  C   UNL     1     -19.861  10.732  26.555  1.00  0.00     0.121 A 
HETATM   18  N   UNL     1     -19.449   9.657  25.940  1.00  0.00    -0.308 N 
HETATM   19  N   UNL     1     -18.231   9.261  26.503  1.00  0.00    -0.284 N 
ATOM     20  HN  UNL     1     -19.933   9.186  25.176  1.00  0.00     0.186 HD
HETATM   21  C   UNL     1     -17.898  10.139  27.480  1.00  0.00     0.125 A 
BRANCH  19  22
HETATM   22  C   UNL     1     -17.447   8.096  26.074  1.00  0.00     0.126 C 
HETATM   23  C   UNL     1     -16.656   7.534  27.259  1.00  0.00     0.051 C 
HETATM   24  C   UNL     1     -16.498   8.548  24.962  1.00  0.00     0.051 C 
BRANCH  22  25
HETATM   25  C   UNL     1     -18.373   7.035  25.560  1.00  0.00     0.245 C 
HETATM   26  N   UNL     1     -18.407   6.737  24.239  1.00  0.00    -0.368 N 
ATOM     27  HN2 UNL     1     -19.037   6.015  23.889  1.00  0.00     0.159 HD
ATOM     28  HN1 UNL     1     -17.813   7.239  23.578  1.00  0.00     0.159 HD
HETATM   29  O   UNL     1     -19.077   6.439  26.343  1.00  0.00    -0.271 OA
ENDBRANCH  22  25
ENDBRANCH  19  22
ENDBRANCH   1  16
BRANCH  11  30
HETATM   30  C   UNL     1     -21.177  17.566  33.406  1.00  0.00     0.152 A 
HETATM   31  N   UNL     1     -21.066  17.894  34.699  1.00  0.00    -0.269 N 
HETATM   32  N   UNL     1     -22.281  18.468  35.073  1.00  0.00    -0.285 N 
HETATM   33  C   UNL     1     -23.056  18.449  34.026  1.00  0.00     0.093 A 
ATOM     34  HN  UNL     1     -22.519  18.835  35.995  1.00  0.00     0.188 HD
HETATM   35  C   UNL     1     -24.478  18.964  33.984  1.00  0.00     0.090 C 
HETATM   36  N   UNL     1     -22.393  17.898  33.017  1.00  0.00    -0.328 N 
ATOM     37  HN  UNL     1     -22.769  17.752  32.080  1.00  0.00     0.169 HD
BRANCH  31  38
HETATM   38  C   UNL     1     -19.909  17.707  35.575  1.00  0.00     0.102 C 
HETATM   39  C   UNL     1     -20.452  17.203  36.913  1.00  0.00     0.034 C 
HETATM   40  C   UNL     1     -19.170  19.038  35.706  1.00  0.00     0.034 C 
ENDBRANCH  31  38
ENDBRANCH  11  30
TORSDOF 5
ENDMDL
