MODEL 1
REMARK VINA RESULT:    -9.810      0.000      0.000
REMARK INTER + INTRA:         -13.765
REMARK INTER:                 -12.677
REMARK INTRA:                  -1.088
REMARK UNBOUND:                -1.088
REMARK  6 active torsions:
REMARK  status: ('A' for Active; 'I' for Inactive)
REMARK    1  A    between atoms: P_2  and  O_5 
REMARK    2  A    between atoms: O_5  and  C_6 
REMARK    3  A    between atoms: C_6  and  C_7 
REMARK    4  A    between atoms: C_9  and  O_10 
REMARK    5  A    between atoms: C_13  and  N_14 
REMARK    6  A    between atoms: C_23  and  N_24 
ROOT
HETATM    1  N   UNL     1      -4.656  -0.347  27.355  1.00  0.00    -0.255 N 
HETATM    2  C   UNL     1      -3.665  -0.450  28.231  1.00  0.00     0.331 A 
HETATM    3  N   UNL     1      -2.573   0.273  27.932  1.00  0.00    -0.300 N 
ATOM      4  HN  UNL     1      -1.703   0.352  28.456  1.00  0.00     0.171 HD
HETATM    5  C   UNL     1      -2.910   0.876  26.761  1.00  0.00     0.151 A 
HETATM    6  C   UNL     1      -2.237   1.750  25.922  1.00  0.00     0.290 A 
HETATM    7  O   UNL     1      -1.075   2.131  26.203  1.00  0.00    -0.265 OA
HETATM    8  N   UNL     1      -2.836   2.182  24.806  1.00  0.00    -0.154 N 
ATOM      9  HN  UNL     1      -2.340   2.823  24.188  1.00  0.00     0.187 HD
HETATM   10  C   UNL     1      -4.079   1.789  24.487  1.00  0.00     0.680 A 
HETATM   11  N   UNL     1      -4.766   0.944  25.274  1.00  0.00    -0.174 N 
ATOM     12  HN  UNL     1      -5.711   0.658  25.016  1.00  0.00     0.186 HD
HETATM   13  C   UNL     1      -4.200   0.475  26.411  1.00  0.00     0.162 A 
HETATM   14  O   UNL     1      -3.762  -1.178  29.282  1.00  0.00    -0.246 OA
ENDROOT
BRANCH   1  15
HETATM   15  C   UNL     1      -5.972  -1.017  27.407  1.00  0.00     0.237 C 
HETATM   16  C   UNL     1      -7.049  -0.004  27.774  1.00  0.00     0.088 C 
HETATM   17  C   UNL     1      -8.254  -0.525  27.024  1.00  0.00     0.153 C 
HETATM   18  C   UNL     1      -7.669  -1.210  25.803  1.00  0.00     0.177 C 
HETATM   19  O   UNL     1      -6.315  -1.508  26.121  1.00  0.00    -0.356 OA
BRANCH  17  20
HETATM   20  O   UNL     1      -8.882  -1.497  27.865  1.00  0.00    -0.393 OA
ATOM     21  HO  UNL     1      -9.212  -2.184  27.297  1.00  0.00     0.210 HD
ENDBRANCH  17  20
BRANCH  18  22
HETATM   22  C   UNL     1      -7.620  -0.291  24.582  1.00  0.00     0.217 C 
BRANCH  22  23
HETATM   23  O   UNL     1      -8.628   0.715  24.613  1.00  0.00    -0.280 OA
BRANCH  23  24
HETATM   24  P   UNL     1      -8.946   1.573  23.287  1.00  0.00     0.422 P 
HETATM   25  O   UNL     1      -9.988   2.602  23.684  1.00  0.00    -0.617 OA
HETATM   26  O   UNL     1      -7.604   2.151  22.923  1.00  0.00    -0.617 OA
HETATM   27  O   UNL     1      -9.485   0.564  22.313  1.00  0.00    -0.617 OA
ENDBRANCH  23  24
ENDBRANCH  22  23
ENDBRANCH  18  22
ENDBRANCH   1  15
BRANCH  10  28
HETATM   28  N   UNL     1      -4.659   2.239  23.351  1.00  0.00    -0.234 N 
ATOM     29  HN2 UNL     1      -4.653   3.241  23.160  1.00  0.00     0.174 HD
ATOM     30  HN1 UNL     1      -5.096   1.580  22.707  1.00  0.00     0.174 HD
ENDBRANCH  10  28
TORSDOF 6
ENDMDL
MODEL 2
REMARK VINA RESULT:    -8.136      1.556      2.143
REMARK INTER + INTRA:         -11.602
REMARK INTER:                 -10.794
REMARK INTRA:                  -0.808
REMARK UNBOUND:                -1.088
REMARK  6 active torsions:
REMARK  status: ('A' for Active; 'I' for Inactive)
REMARK    1  A    between atoms: P_2  and  O_5 
REMARK    2  A    between atoms: O_5  and  C_6 
REMARK    3  A    between atoms: C_6  and  C_7 
REMARK    4  A    between atoms: C_9  and  O_10 
REMARK    5  A    between atoms: C_13  and  N_14 
REMARK    6  A    between atoms: C_23  and  N_24 
ROOT
HETATM    1  N   UNL     1      -6.303  -0.270  26.526  1.00  0.00    -0.255 N 
HETATM    2  C   UNL     1      -5.837  -0.431  27.757  1.00  0.00     0.331 A 
HETATM    3  N   UNL     1      -4.713   0.255  28.026  1.00  0.00    -0.300 N 
ATOM      4  HN  UNL     1      -4.185   0.288  28.897  1.00  0.00     0.171 HD
HETATM    5  C   UNL     1      -4.450   0.894  26.855  1.00  0.00     0.151 A 
HETATM    6  C   UNL     1      -3.441   1.757  26.457  1.00  0.00     0.290 A 
HETATM    7  O   UNL     1      -2.534   2.085  27.260  1.00  0.00    -0.265 OA
HETATM    8  N   UNL     1      -3.441   2.235  25.208  1.00  0.00    -0.154 N 
ATOM      9  HN  UNL     1      -2.697   2.868  24.915  1.00  0.00     0.187 HD
HETATM   10  C   UNL     1      -4.401   1.899  24.334  1.00  0.00     0.680 A 
HETATM   11  N   UNL     1      -5.398   1.066  24.680  1.00  0.00    -0.174 N 
ATOM     12  HN  UNL     1      -6.121   0.823  24.002  1.00  0.00     0.186 HD
HETATM   13  C   UNL     1      -5.438   0.551  25.932  1.00  0.00     0.162 A 
HETATM   14  O   UNL     1      -6.431  -1.174  28.615  1.00  0.00    -0.246 OA
ENDROOT
BRANCH   1  15
HETATM   15  C   UNL     1      -7.509  -0.887  25.935  1.00  0.00     0.237 C 
HETATM   16  C   UNL     1      -8.748  -0.123  26.383  1.00  0.00     0.088 C 
HETATM   17  C   UNL     1      -9.665  -0.262  25.188  1.00  0.00     0.153 C 
HETATM   18  C   UNL     1      -8.723  -0.360  24.002  1.00  0.00     0.177 C 
HETATM   19  O   UNL     1      -7.466  -0.776  24.522  1.00  0.00    -0.356 OA
BRANCH  17  20
HETATM   20  O   UNL     1     -10.370  -1.497  25.344  1.00  0.00    -0.393 OA
ATOM     21  HO  UNL     1      -9.775  -2.191  25.085  1.00  0.00     0.210 HD
ENDBRANCH  17  20
BRANCH  18  22
HETATM   22  C   UNL     1      -8.475   0.994  23.337  1.00  0.00     0.217 C 
BRANCH  22  23
HETATM   23  O   UNL     1      -9.393   1.993  23.769  1.00  0.00    -0.280 OA
BRANCH  23  24
HETATM   24  P   UNL     1      -9.973   3.061  22.712  1.00  0.00     0.422 P 
HETATM   25  O   UNL     1      -9.759   2.460  21.335  1.00  0.00    -0.617 OA
HETATM   26  O   UNL     1     -11.418   3.193  23.117  1.00  0.00    -0.617 OA
HETATM   27  O   UNL     1      -9.140   4.291  22.932  1.00  0.00    -0.617 OA
ENDBRANCH  23  24
ENDBRANCH  22  23
ENDBRANCH  18  22
ENDBRANCH   1  15
BRANCH  10  28
HETATM   28  N   UNL     1      -4.374   2.394  23.076  1.00  0.00    -0.234 N 
ATOM     29  HN2 UNL     1      -5.208   2.303  22.494  1.00  0.00     0.174 HD
ATOM     30  HN1 UNL     1      -3.529   2.843  22.723  1.00  0.00     0.174 HD
ENDBRANCH  10  28
TORSDOF 6
ENDMDL
MODEL 3
REMARK VINA RESULT:    -7.930      1.811      3.343
REMARK INTER + INTRA:         -11.336
REMARK INTER:                 -11.415
REMARK INTRA:                   0.079
REMARK UNBOUND:                -1.088
REMARK  6 active torsions:
REMARK  status: ('A' for Active; 'I' for Inactive)
REMARK    1  A    between atoms: P_2  and  O_5 
REMARK    2  A    between atoms: O_5  and  C_6 
REMARK    3  A    between atoms: C_6  and  C_7 
REMARK    4  A    between atoms: C_9  and  O_10 
REMARK    5  A    between atoms: C_13  and  N_14 
REMARK    6  A    between atoms: C_23  and  N_24 
ROOT
HETATM    1  N   UNL     1      -5.534   0.447  25.152  1.00  0.00    -0.255 N 
HETATM    2  C   UNL     1      -5.143   1.412  24.330  1.00  0.00     0.331 A 
HETATM    3  N   UNL     1      -3.972   1.986  24.654  1.00  0.00    -0.300 N 
ATOM      4  HN  UNL     1      -3.480   2.735  24.170  1.00  0.00     0.171 HD
HETATM    5  C   UNL     1      -3.603   1.325  25.784  1.00  0.00     0.151 A 
HETATM    6  C   UNL     1      -2.503   1.428  26.620  1.00  0.00     0.290 A 
HETATM    7  O   UNL     1      -1.602   2.267  26.381  1.00  0.00    -0.265 OA
HETATM    8  N   UNL     1      -2.412   0.626  27.687  1.00  0.00    -0.154 N 
ATOM      9  HN  UNL     1      -1.604   0.705  28.305  1.00  0.00     0.187 HD
HETATM   10  C   UNL     1      -3.364  -0.279  27.961  1.00  0.00     0.680 A 
HETATM   11  N   UNL     1      -4.445  -0.412  27.175  1.00  0.00    -0.174 N 
ATOM     12  HN  UNL     1      -5.158  -1.107  27.397  1.00  0.00     0.186 HD
HETATM   13  C   UNL     1      -4.585   0.381  26.085  1.00  0.00     0.162 A 
HETATM   14  O   UNL     1      -5.833   1.749  23.305  1.00  0.00    -0.246 OA
ENDROOT
BRANCH   1  15
HETATM   15  C   UNL     1      -6.766  -0.364  25.062  1.00  0.00     0.237 C 
HETATM   16  C   UNL     1      -7.775   0.119  26.095  1.00  0.00     0.088 C 
HETATM   17  C   UNL     1      -9.095  -0.137  25.403  1.00  0.00     0.153 C 
HETATM   18  C   UNL     1      -8.781   0.010  23.926  1.00  0.00     0.177 C 
HETATM   19  O   UNL     1      -7.376  -0.176  23.795  1.00  0.00    -0.356 OA
BRANCH  17  20
HETATM   20  O   UNL     1      -9.458  -1.493  25.684  1.00  0.00    -0.393 OA
ATOM     21  HO  UNL     1      -9.002  -1.744  26.478  1.00  0.00     0.210 HD
ENDBRANCH  17  20
BRANCH  18  22
HETATM   22  C   UNL     1      -9.067   1.418  23.404  1.00  0.00     0.217 C 
BRANCH  22  23
HETATM   23  O   UNL     1      -8.821   1.544  22.007  1.00  0.00    -0.280 OA
BRANCH  23  24
HETATM   24  P   UNL     1     -10.058   1.615  20.977  1.00  0.00     0.422 P 
HETATM   25  O   UNL     1     -10.047   0.309  20.205  1.00  0.00    -0.617 OA
HETATM   26  O   UNL     1     -11.248   1.794  21.884  1.00  0.00    -0.617 OA
HETATM   27  O   UNL     1      -9.746   2.796  20.103  1.00  0.00    -0.617 OA
ENDBRANCH  23  24
ENDBRANCH  22  23
ENDBRANCH  18  22
ENDBRANCH   1  15
BRANCH  10  28
HETATM   28  N   UNL     1      -3.249  -1.074  29.049  1.00  0.00    -0.234 N 
ATOM     29  HN2 UNL     1      -4.094  -1.335  29.558  1.00  0.00     0.174 HD
ATOM     30  HN1 UNL     1      -2.329  -1.396  29.349  1.00  0.00     0.174 HD
ENDBRANCH  10  28
TORSDOF 6
ENDMDL
MODEL 4
REMARK VINA RESULT:    -7.923      1.844      3.364
REMARK INTER + INTRA:         -11.326
REMARK INTER:                 -11.412
REMARK INTRA:                   0.085
REMARK UNBOUND:                -1.088
REMARK  6 active torsions:
REMARK  status: ('A' for Active; 'I' for Inactive)
REMARK    1  A    between atoms: P_2  and  O_5 
REMARK    2  A    between atoms: O_5  and  C_6 
REMARK    3  A    between atoms: C_6  and  C_7 
REMARK    4  A    between atoms: C_9  and  O_10 
REMARK    5  A    between atoms: C_13  and  N_14 
REMARK    6  A    between atoms: C_23  and  N_24 
ROOT
HETATM    1  N   UNL     1      -5.500   0.494  25.100  1.00  0.00    -0.255 N 
HETATM    2  C   UNL     1      -5.057   1.491  24.345  1.00  0.00     0.331 A 
HETATM    3  N   UNL     1      -3.907   2.044  24.765  1.00  0.00    -0.300 N 
ATOM      4  HN  UNL     1      -3.383   2.811  24.344  1.00  0.00     0.171 HD
HETATM    5  C   UNL     1      -3.610   1.336  25.886  1.00  0.00     0.151 A 
HETATM    6  C   UNL     1      -2.564   1.398  26.793  1.00  0.00     0.290 A 
HETATM    7  O   UNL     1      -1.647   2.242  26.645  1.00  0.00    -0.265 OA
HETATM    8  N   UNL     1      -2.541   0.552  27.829  1.00  0.00    -0.154 N 
ATOM      9  HN  UNL     1      -1.772   0.601  28.498  1.00  0.00     0.187 HD
HETATM   10  C   UNL     1      -3.510  -0.359  28.005  1.00  0.00     0.680 A 
HETATM   11  N   UNL     1      -4.541  -0.454  27.149  1.00  0.00    -0.174 N 
ATOM     12  HN  UNL     1      -5.268  -1.154  27.297  1.00  0.00     0.186 HD
HETATM   13  C   UNL     1      -4.611   0.385  26.087  1.00  0.00     0.162 A 
HETATM   14  O   UNL     1      -5.682   1.874  23.294  1.00  0.00    -0.246 OA
ENDROOT
BRANCH   1  15
HETATM   15  C   UNL     1      -6.726  -0.307  24.901  1.00  0.00     0.237 C 
HETATM   16  C   UNL     1      -7.839   0.228  25.793  1.00  0.00     0.088 C 
HETATM   17  C   UNL     1      -9.076  -0.041  24.965  1.00  0.00     0.153 C 
HETATM   18  C   UNL     1      -8.593   0.046  23.529  1.00  0.00     0.177 C 
HETATM   19  O   UNL     1      -7.186  -0.161  23.566  1.00  0.00    -0.356 OA
BRANCH  17  20
HETATM   20  O   UNL     1      -9.489  -1.380  25.252  1.00  0.00    -0.393 OA
ATOM     21  HO  UNL     1      -8.792  -1.783  25.758  1.00  0.00     0.210 HD
ENDBRANCH  17  20
BRANCH  18  22
HETATM   22  C   UNL     1      -8.796   1.435  22.925  1.00  0.00     0.217 C 
BRANCH  22  23
HETATM   23  O   UNL     1      -9.709   2.230  23.675  1.00  0.00    -0.280 OA
BRANCH  23  24
HETATM   24  P   UNL     1     -10.258   3.615  23.061  1.00  0.00     0.422 P 
HETATM   25  O   UNL     1     -11.024   3.252  21.803  1.00  0.00    -0.617 OA
HETATM   26  O   UNL     1     -11.112   4.167  24.174  1.00  0.00    -0.617 OA
HETATM   27  O   UNL     1      -9.018   4.408  22.764  1.00  0.00    -0.617 OA
ENDBRANCH  23  24
ENDBRANCH  22  23
ENDBRANCH  18  22
ENDBRANCH   1  15
BRANCH  10  28
HETATM   28  N   UNL     1      -3.464  -1.199  29.064  1.00  0.00    -0.234 N 
ATOM     29  HN2 UNL     1      -3.934  -2.102  28.994  1.00  0.00     0.174 HD
ATOM     30  HN1 UNL     1      -2.971  -0.922  29.913  1.00  0.00     0.174 HD
ENDBRANCH  10  28
TORSDOF 6
ENDMDL
MODEL 5
REMARK VINA RESULT:    -7.463      2.603      5.579
REMARK INTER + INTRA:         -10.732
REMARK INTER:                  -9.830
REMARK INTRA:                  -0.902
REMARK UNBOUND:                -1.088
REMARK  6 active torsions:
REMARK  status: ('A' for Active; 'I' for Inactive)
REMARK    1  A    between atoms: P_2  and  O_5 
REMARK    2  A    between atoms: O_5  and  C_6 
REMARK    3  A    between atoms: C_6  and  C_7 
REMARK    4  A    between atoms: C_9  and  O_10 
REMARK    5  A    between atoms: C_13  and  N_14 
REMARK    6  A    between atoms: C_23  and  N_24 
ROOT
HETATM    1  N   UNL     1      -7.513  -0.707  26.363  1.00  0.00    -0.255 N 
HETATM    2  C   UNL     1      -8.661  -1.356  26.218  1.00  0.00     0.331 A 
HETATM    3  N   UNL     1      -9.255  -1.184  25.025  1.00  0.00    -0.300 N 
ATOM      4  HN  UNL     1     -10.131  -1.585  24.691  1.00  0.00     0.171 HD
HETATM    5  C   UNL     1      -8.406  -0.349  24.370  1.00  0.00     0.151 A 
HETATM    6  C   UNL     1      -8.427   0.217  23.105  1.00  0.00     0.290 A 
HETATM    7  O   UNL     1      -9.375  -0.024  22.319  1.00  0.00    -0.265 OA
HETATM    8  N   UNL     1      -7.429   1.026  22.731  1.00  0.00    -0.154 N 
ATOM      9  HN  UNL     1      -7.446   1.444  21.801  1.00  0.00     0.187 HD
HETATM   10  C   UNL     1      -6.405   1.296  23.555  1.00  0.00     0.680 A 
HETATM   11  N   UNL     1      -6.346   0.766  24.789  1.00  0.00    -0.174 N 
ATOM     12  HN  UNL     1      -5.559   0.981  25.401  1.00  0.00     0.186 HD
HETATM   13  C   UNL     1      -7.336  -0.054  25.216  1.00  0.00     0.162 A 
HETATM   14  O   UNL     1      -9.145  -2.094  27.147  1.00  0.00    -0.246 OA
ENDROOT
BRANCH   1  15
HETATM   15  C   UNL     1      -6.633  -0.696  27.551  1.00  0.00     0.237 C 
HETATM   16  C   UNL     1      -5.300  -1.348  27.208  1.00  0.00     0.088 C 
HETATM   17  C   UNL     1      -4.331  -0.582  28.080  1.00  0.00     0.153 C 
HETATM   18  C   UNL     1      -4.952   0.796  28.212  1.00  0.00     0.177 C 
HETATM   19  O   UNL     1      -6.336   0.641  27.919  1.00  0.00    -0.356 OA
BRANCH  17  20
HETATM   20  O   UNL     1      -4.317  -1.228  29.357  1.00  0.00    -0.393 OA
ATOM     21  HO  UNL     1      -3.986  -0.596  29.984  1.00  0.00     0.210 HD
ENDBRANCH  17  20
BRANCH  18  22
HETATM   22  C   UNL     1      -4.413   1.784  27.178  1.00  0.00     0.217 C 
BRANCH  22  23
HETATM   23  O   UNL     1      -3.544   1.168  26.233  1.00  0.00    -0.280 OA
BRANCH  23  24
HETATM   24  P   UNL     1      -1.965   1.492  26.265  1.00  0.00     0.422 P 
HETATM   25  O   UNL     1      -1.257   0.159  26.412  1.00  0.00    -0.617 OA
HETATM   26  O   UNL     1      -1.732   2.181  24.945  1.00  0.00    -0.617 OA
HETATM   27  O   UNL     1      -1.790   2.367  27.473  1.00  0.00    -0.617 OA
ENDBRANCH  23  24
ENDBRANCH  22  23
ENDBRANCH  18  22
ENDBRANCH   1  15
BRANCH  10  28
HETATM   28  N   UNL     1      -5.412   2.120  23.152  1.00  0.00    -0.234 N 
ATOM     29  HN2 UNL     1      -4.722   1.768  22.487  1.00  0.00     0.174 HD
ATOM     30  HN1 UNL     1      -5.359   3.071  23.516  1.00  0.00     0.174 HD
ENDBRANCH  10  28
TORSDOF 6
ENDMDL
MODEL 6
REMARK VINA RESULT:    -7.321      2.425      4.661
REMARK INTER + INTRA:         -10.548
REMARK INTER:                  -9.117
REMARK INTRA:                  -1.431
REMARK UNBOUND:                -1.088
REMARK  6 active torsions:
REMARK  status: ('A' for Active; 'I' for Inactive)
REMARK    1  A    between atoms: P_2  and  O_5 
REMARK    2  A    between atoms: O_5  and  C_6 
REMARK    3  A    between atoms: C_6  and  C_7 
REMARK    4  A    between atoms: C_9  and  O_10 
REMARK    5  A    between atoms: C_13  and  N_14 
REMARK    6  A    between atoms: C_23  and  N_24 
ROOT
HETATM    1  N   UNL     1      -6.249   0.780  24.285  1.00  0.00    -0.255 N 
HETATM    2  C   UNL     1      -4.998   1.221  24.245  1.00  0.00     0.331 A 
HETATM    3  N   UNL     1      -4.271   0.948  25.340  1.00  0.00    -0.300 N 
ATOM      4  HN  UNL     1      -3.296   1.181  25.528  1.00  0.00     0.171 HD
HETATM    5  C   UNL     1      -5.147   0.283  26.139  1.00  0.00     0.151 A 
HETATM    6  C   UNL     1      -5.036  -0.274  27.404  1.00  0.00     0.290 A 
HETATM    7  O   UNL     1      -3.951  -0.212  28.030  1.00  0.00    -0.265 OA
HETATM    8  N   UNL     1      -6.098  -0.876  27.951  1.00  0.00    -0.154 N 
ATOM      9  HN  UNL     1      -6.017  -1.284  28.883  1.00  0.00     0.187 HD
HETATM   10  C   UNL     1      -7.267  -0.955  27.298  1.00  0.00     0.680 A 
HETATM   11  N   UNL     1      -7.416  -0.430  26.070  1.00  0.00    -0.174 N 
ATOM     12  HN  UNL     1      -8.312  -0.501  25.588  1.00  0.00     0.186 HD
HETATM   13  C   UNL     1      -6.371   0.195  25.476  1.00  0.00     0.162 A 
HETATM   14  O   UNL     1      -4.533   1.847  23.228  1.00  0.00    -0.246 OA
ENDROOT
BRANCH   1  15
HETATM   15  C   UNL     1      -7.286   0.925  23.243  1.00  0.00     0.237 C 
HETATM   16  C   UNL     1      -7.930  -0.427  22.968  1.00  0.00     0.088 C 
HETATM   17  C   UNL     1      -9.350  -0.043  22.614  1.00  0.00     0.153 C 
HETATM   18  C   UNL     1      -9.604   1.228  23.403  1.00  0.00     0.177 C 
HETATM   19  O   UNL     1      -8.325   1.771  23.710  1.00  0.00    -0.356 OA
BRANCH  17  20
HETATM   20  O   UNL     1      -9.368   0.250  21.214  1.00  0.00    -0.393 OA
ATOM     21  HO  UNL     1      -8.891   1.063  21.094  1.00  0.00     0.210 HD
ENDBRANCH  17  20
BRANCH  18  22
HETATM   22  C   UNL     1     -10.278   0.958  24.749  1.00  0.00     0.217 C 
BRANCH  22  23
HETATM   23  O   UNL     1     -11.226  -0.102  24.683  1.00  0.00    -0.280 OA
BRANCH  23  24
HETATM   24  P   UNL     1     -11.185  -1.284  25.778  1.00  0.00     0.422 P 
HETATM   25  O   UNL     1     -10.969  -0.614  27.122  1.00  0.00    -0.617 OA
HETATM   26  O   UNL     1     -12.530  -1.944  25.619  1.00  0.00    -0.617 OA
HETATM   27  O   UNL     1     -10.014  -2.130  25.369  1.00  0.00    -0.617 OA
ENDBRANCH  23  24
ENDBRANCH  22  23
ENDBRANCH  18  22
ENDBRANCH   1  15
BRANCH  10  28
HETATM   28  N   UNL     1      -8.325  -1.566  27.877  1.00  0.00    -0.234 N 
ATOM     29  HN2 UNL     1      -8.926  -1.024  28.499  1.00  0.00     0.174 HD
ATOM     30  HN1 UNL     1      -8.508  -2.553  27.694  1.00  0.00     0.174 HD
ENDBRANCH  10  28
TORSDOF 6
ENDMDL
MODEL 7
REMARK VINA RESULT:    -7.318      1.758      3.196
REMARK INTER + INTRA:         -10.545
REMARK INTER:                 -10.631
REMARK INTRA:                   0.086
REMARK UNBOUND:                -1.088
REMARK  6 active torsions:
REMARK  status: ('A' for Active; 'I' for Inactive)
REMARK    1  A    between atoms: P_2  and  O_5 
REMARK    2  A    between atoms: O_5  and  C_6 
REMARK    3  A    between atoms: C_6  and  C_7 
REMARK    4  A    between atoms: C_9  and  O_10 
REMARK    5  A    between atoms: C_13  and  N_14 
REMARK    6  A    between atoms: C_23  and  N_24 
ROOT
HETATM    1  N   UNL     1      -5.787   0.230  25.289  1.00  0.00    -0.255 N 
HETATM    2  C   UNL     1      -5.513   1.132  24.355  1.00  0.00     0.331 A 
HETATM    3  N   UNL     1      -4.328   1.747  24.500  1.00  0.00    -0.300 N 
ATOM      4  HN  UNL     1      -3.909   2.463  23.905  1.00  0.00     0.171 HD
HETATM    5  C   UNL     1      -3.820   1.186  25.629  1.00  0.00     0.151 A 
HETATM    6  C   UNL     1      -2.636   1.373  26.326  1.00  0.00     0.290 A 
HETATM    7  O   UNL     1      -1.787   2.203  25.922  1.00  0.00    -0.265 OA
HETATM    8  N   UNL     1      -2.409   0.662  27.436  1.00  0.00    -0.154 N 
ATOM      9  HN  UNL     1      -1.539   0.802  27.950  1.00  0.00     0.187 HD
HETATM   10  C   UNL     1      -3.303  -0.233  27.885  1.00  0.00     0.680 A 
HETATM   11  N   UNL     1      -4.461  -0.445  27.238  1.00  0.00    -0.174 N 
ATOM     12  HN  UNL     1      -5.128  -1.131  27.592  1.00  0.00     0.186 HD
HETATM   13  C   UNL     1      -4.739   0.254  26.112  1.00  0.00     0.162 A 
HETATM   14  O   UNL     1      -6.320   1.375  23.390  1.00  0.00    -0.246 OA
ENDROOT
BRANCH   1  15
HETATM   15  C   UNL     1      -7.001  -0.604  25.402  1.00  0.00     0.237 C 
HETATM   16  C   UNL     1      -8.004   0.072  26.327  1.00  0.00     0.088 C 
HETATM   17  C   UNL     1      -9.330  -0.352  25.735  1.00  0.00     0.153 C 
HETATM   18  C   UNL     1      -9.043  -0.521  24.255  1.00  0.00     0.177 C 
HETATM   19  O   UNL     1      -7.636  -0.706  24.138  1.00  0.00    -0.356 OA
BRANCH  17  20
HETATM   20  O   UNL     1      -9.657  -1.621  26.309  1.00  0.00    -0.393 OA
ATOM     21  HO  UNL     1      -9.525  -2.274  25.632  1.00  0.00     0.210 HD
ENDBRANCH  17  20
BRANCH  18  22
HETATM   22  C   UNL     1      -9.369   0.735  23.446  1.00  0.00     0.217 C 
BRANCH  22  23
HETATM   23  O   UNL     1     -10.131   1.680  24.189  1.00  0.00    -0.280 OA
BRANCH  23  24
HETATM   24  P   UNL     1     -10.721   2.989  23.456  1.00  0.00     0.422 P 
HETATM   25  O   UNL     1      -9.556   3.947  23.289  1.00  0.00    -0.617 OA
HETATM   26  O   UNL     1     -11.268   2.440  22.164  1.00  0.00    -0.617 OA
HETATM   27  O   UNL     1     -11.757   3.513  24.409  1.00  0.00    -0.617 OA
ENDBRANCH  23  24
ENDBRANCH  22  23
ENDBRANCH  18  22
ENDBRANCH   1  15
BRANCH  10  28
HETATM   28  N   UNL     1      -3.048  -0.935  29.012  1.00  0.00    -0.234 N 
ATOM     29  HN2 UNL     1      -2.889  -0.427  29.882  1.00  0.00     0.174 HD
ATOM     30  HN1 UNL     1      -3.014  -1.954  28.981  1.00  0.00     0.174 HD
ENDBRANCH  10  28
TORSDOF 6
ENDMDL
MODEL 8
REMARK VINA RESULT:    -7.231      2.077      3.471
REMARK INTER + INTRA:         -10.433
REMARK INTER:                 -10.521
REMARK INTRA:                   0.088
REMARK UNBOUND:                -1.088
REMARK  6 active torsions:
REMARK  status: ('A' for Active; 'I' for Inactive)
REMARK    1  A    between atoms: P_2  and  O_5 
REMARK    2  A    between atoms: O_5  and  C_6 
REMARK    3  A    between atoms: C_6  and  C_7 
REMARK    4  A    between atoms: C_9  and  O_10 
REMARK    5  A    between atoms: C_13  and  N_14 
REMARK    6  A    between atoms: C_23  and  N_24 
ROOT
HETATM    1  N   UNL     1      -5.982  -0.157  25.476  1.00  0.00    -0.255 N 
HETATM    2  C   UNL     1      -5.897   0.719  24.484  1.00  0.00     0.331 A 
HETATM    3  N   UNL     1      -4.789   1.479  24.500  1.00  0.00    -0.300 N 
ATOM      4  HN  UNL     1      -4.511   2.206  23.842  1.00  0.00     0.171 HD
HETATM    5  C   UNL     1      -4.127   1.043  25.605  1.00  0.00     0.151 A 
HETATM    6  C   UNL     1      -2.924   1.407  26.189  1.00  0.00     0.290 A 
HETATM    7  O   UNL     1      -2.219   2.310  25.678  1.00  0.00    -0.265 OA
HETATM    8  N   UNL     1      -2.523   0.788  27.305  1.00  0.00    -0.154 N 
ATOM      9  HN  UNL     1      -1.639   1.058  27.737  1.00  0.00     0.187 HD
HETATM   10  C   UNL     1      -3.261  -0.181  27.867  1.00  0.00     0.680 A 
HETATM   11  N   UNL     1      -4.432  -0.565  27.332  1.00  0.00    -0.174 N 
ATOM     12  HN  UNL     1      -4.979  -1.305  27.771  1.00  0.00     0.186 HD
HETATM   13  C   UNL     1      -4.884   0.036  26.205  1.00  0.00     0.162 A 
HETATM   14  O   UNL     1      -6.802   0.812  23.582  1.00  0.00    -0.246 OA
ENDROOT
BRANCH   1  15
HETATM   15  C   UNL     1      -7.072  -1.123  25.728  1.00  0.00     0.237 C 
HETATM   16  C   UNL     1      -7.752  -0.795  27.051  1.00  0.00     0.088 C 
HETATM   17  C   UNL     1      -9.183  -1.213  26.792  1.00  0.00     0.153 C 
HETATM   18  C   UNL     1      -9.372  -1.001  25.302  1.00  0.00     0.177 C 
HETATM   19  O   UNL     1      -8.070  -0.997  24.728  1.00  0.00    -0.356 OA
BRANCH  17  20
HETATM   20  O   UNL     1      -9.271  -2.609  27.093  1.00  0.00    -0.393 OA
ATOM     21  HO  UNL     1     -10.073  -2.736  27.587  1.00  0.00     0.210 HD
ENDBRANCH  17  20
BRANCH  18  22
HETATM   22  C   UNL     1      -9.977   0.365  24.976  1.00  0.00     0.217 C 
BRANCH  22  23
HETATM   23  O   UNL     1     -10.811   0.857  26.019  1.00  0.00    -0.280 OA
BRANCH  23  24
HETATM   24  P   UNL     1     -12.346   1.235  25.710  1.00  0.00     0.422 P 
HETATM   25  O   UNL     1     -13.195   0.306  26.559  1.00  0.00    -0.617 OA
HETATM   26  O   UNL     1     -12.427   2.687  26.101  1.00  0.00    -0.617 OA
HETATM   27  O   UNL     1     -12.505   0.967  24.240  1.00  0.00    -0.617 OA
ENDBRANCH  23  24
ENDBRANCH  22  23
ENDBRANCH  18  22
ENDBRANCH   1  15
BRANCH  10  28
HETATM   28  N   UNL     1      -2.833  -0.787  28.998  1.00  0.00    -0.234 N 
ATOM     29  HN2 UNL     1      -2.849  -0.262  29.873  1.00  0.00     0.174 HD
ATOM     30  HN1 UNL     1      -2.499  -1.750  28.965  1.00  0.00     0.174 HD
ENDBRANCH  10  28
TORSDOF 6
ENDMDL
MODEL 9
REMARK VINA RESULT:    -7.202      3.574      6.150
REMARK INTER + INTRA:         -10.394
REMARK INTER:                  -8.856
REMARK INTRA:                  -1.538
REMARK UNBOUND:                -1.088
REMARK  6 active torsions:
REMARK  status: ('A' for Active; 'I' for Inactive)
REMARK    1  A    between atoms: P_2  and  O_5 
REMARK    2  A    between atoms: O_5  and  C_6 
REMARK    3  A    between atoms: C_6  and  C_7 
REMARK    4  A    between atoms: C_9  and  O_10 
REMARK    5  A    between atoms: C_13  and  N_14 
REMARK    6  A    between atoms: C_23  and  N_24 
ROOT
HETATM    1  N   UNL     1     -10.665   0.143  25.704  1.00  0.00    -0.255 N 
HETATM    2  C   UNL     1     -11.965   0.359  25.559  1.00  0.00     0.331 A 
HETATM    3  N   UNL     1     -12.309   0.965  24.410  1.00  0.00    -0.300 N 
ATOM      4  HN  UNL     1     -13.240   1.224  24.085  1.00  0.00     0.171 HD
HETATM    5  C   UNL     1     -11.115   1.150  23.785  1.00  0.00     0.151 A 
HETATM    6  C   UNL     1     -10.764   1.716  22.570  1.00  0.00     0.290 A 
HETATM    7  O   UNL     1     -11.646   2.183  21.810  1.00  0.00    -0.265 OA
HETATM    8  N   UNL     1      -9.475   1.763  22.216  1.00  0.00    -0.154 N 
ATOM      9  HN  UNL     1      -9.216   2.182  21.323  1.00  0.00     0.187 HD
HETATM   10  C   UNL     1      -8.515   1.268  23.013  1.00  0.00     0.680 A 
HETATM   11  N   UNL     1      -8.814   0.710  24.199  1.00  0.00    -0.174 N 
ATOM     12  HN  UNL     1      -8.072   0.337  24.791  1.00  0.00     0.186 HD
HETATM   13  C   UNL     1     -10.105   0.644  24.604  1.00  0.00     0.162 A 
HETATM   14  O   UNL     1     -12.815   0.001  26.448  1.00  0.00    -0.246 OA
ENDROOT
BRANCH   1  15
HETATM   15  C   UNL     1      -9.984  -0.498  26.849  1.00  0.00     0.237 C 
HETATM   16  C   UNL     1      -9.676  -1.951  26.515  1.00  0.00     0.088 C 
HETATM   17  C   UNL     1      -8.389  -2.192  27.272  1.00  0.00     0.153 C 
HETATM   18  C   UNL     1      -7.709  -0.836  27.299  1.00  0.00     0.177 C 
HETATM   19  O   UNL     1      -8.732   0.129  27.078  1.00  0.00    -0.356 OA
BRANCH  17  20
HETATM   20  O   UNL     1      -8.751  -2.574  28.602  1.00  0.00    -0.393 OA
ATOM     21  HO  UNL     1      -9.440  -1.983  28.883  1.00  0.00     0.210 HD
ENDBRANCH  17  20
BRANCH  18  22
HETATM   22  C   UNL     1      -6.710  -0.657  26.157  1.00  0.00     0.217 C 
BRANCH  22  23
HETATM   23  O   UNL     1      -6.486   0.712  25.835  1.00  0.00    -0.280 OA
BRANCH  23  24
HETATM   24  P   UNL     1      -4.980   1.271  25.711  1.00  0.00     0.422 P 
HETATM   25  O   UNL     1      -4.821   2.316  26.799  1.00  0.00    -0.617 OA
HETATM   26  O   UNL     1      -4.140   0.036  25.904  1.00  0.00    -0.617 OA
HETATM   27  O   UNL     1      -4.918   1.869  24.334  1.00  0.00    -0.617 OA
ENDBRANCH  23  24
ENDBRANCH  22  23
ENDBRANCH  18  22
ENDBRANCH   1  15
BRANCH  10  28
HETATM   28  N   UNL     1      -7.220   1.332  22.632  1.00  0.00    -0.234 N 
ATOM     29  HN2 UNL     1      -6.623   0.518  22.781  1.00  0.00     0.174 HD
ATOM     30  HN1 UNL     1      -6.854   2.186  22.210  1.00  0.00     0.174 HD
ENDBRANCH  10  28
TORSDOF 6
ENDMDL
MODEL 10
REMARK VINA RESULT:    -7.147      3.086      6.746
REMARK INTER + INTRA:         -10.324
REMARK INTER:                  -9.041
REMARK INTRA:                  -1.283
REMARK UNBOUND:                -1.088
REMARK  6 active torsions:
REMARK  status: ('A' for Active; 'I' for Inactive)
REMARK    1  A    between atoms: P_2  and  O_5 
REMARK    2  A    between atoms: O_5  and  C_6 
REMARK    3  A    between atoms: C_6  and  C_7 
REMARK    4  A    between atoms: C_9  and  O_10 
REMARK    5  A    between atoms: C_13  and  N_14 
REMARK    6  A    between atoms: C_23  and  N_24 
ROOT
HETATM    1  N   UNL     1      -7.967   0.442  24.009  1.00  0.00    -0.255 N 
HETATM    2  C   UNL     1      -9.022   0.853  23.318  1.00  0.00     0.331 A 
HETATM    3  N   UNL     1     -10.207   0.582  23.889  1.00  0.00    -0.300 N 
ATOM      4  HN  UNL     1     -11.141   0.806  23.546  1.00  0.00     0.171 HD
HETATM    5  C   UNL     1      -9.862  -0.063  25.035  1.00  0.00     0.151 A 
HETATM    6  C   UNL     1     -10.603  -0.607  26.072  1.00  0.00     0.290 A 
HETATM    7  O   UNL     1     -11.856  -0.548  26.054  1.00  0.00    -0.265 OA
HETATM    8  N   UNL     1      -9.970  -1.198  27.092  1.00  0.00    -0.154 N 
ATOM      9  HN  UNL     1     -10.516  -1.601  27.853  1.00  0.00     0.187 HD
HETATM   10  C   UNL     1      -8.631  -1.271  27.132  1.00  0.00     0.680 A 
HETATM   11  N   UNL     1      -7.876  -0.754  26.148  1.00  0.00    -0.174 N 
ATOM     12  HN  UNL     1      -6.859  -0.817  26.196  1.00  0.00     0.186 HD
HETATM   13  C   UNL     1      -8.470  -0.150  25.091  1.00  0.00     0.162 A 
HETATM   14  O   UNL     1      -8.902   1.470  22.201  1.00  0.00    -0.246 OA
ENDROOT
BRANCH   1  15
HETATM   15  C   UNL     1      -6.542   0.591  23.646  1.00  0.00     0.237 C 
HETATM   16  C   UNL     1      -6.199   2.069  23.510  1.00  0.00     0.088 C 
HETATM   17  C   UNL     1      -4.756   2.110  23.962  1.00  0.00     0.153 C 
HETATM   18  C   UNL     1      -4.645   0.977  24.965  1.00  0.00     0.177 C 
HETATM   19  O   UNL     1      -5.723   0.089  24.689  1.00  0.00    -0.356 OA
BRANCH  17  20
HETATM   20  O   UNL     1      -3.951   1.817  22.816  1.00  0.00    -0.393 OA
ATOM     21  HO  UNL     1      -3.546   0.972  22.969  1.00  0.00     0.210 HD
ENDBRANCH  17  20
BRANCH  18  22
HETATM   22  C   UNL     1      -4.847   1.446  26.405  1.00  0.00     0.217 C 
BRANCH  22  23
HETATM   23  O   UNL     1      -4.005   0.762  27.328  1.00  0.00    -0.280 OA
BRANCH  23  24
HETATM   24  P   UNL     1      -4.603  -0.438  28.221  1.00  0.00     0.422 P 
HETATM   25  O   UNL     1      -5.108  -1.486  27.247  1.00  0.00    -0.617 OA
HETATM   26  O   UNL     1      -3.419  -0.872  29.046  1.00  0.00    -0.617 OA
HETATM   27  O   UNL     1      -5.717   0.198  29.001  1.00  0.00    -0.617 OA
ENDBRANCH  23  24
ENDBRANCH  22  23
ENDBRANCH  18  22
ENDBRANCH   1  15
BRANCH  10  28
HETATM   28  N   UNL     1      -8.018  -1.878  28.173  1.00  0.00    -0.234 N 
ATOM     29  HN2 UNL     1      -7.368  -2.641  27.982  1.00  0.00     0.174 HD
ATOM     30  HN1 UNL     1      -8.213  -1.574  29.127  1.00  0.00     0.174 HD
ENDBRANCH  10  28
TORSDOF 6
ENDMDL
MODEL 11
REMARK VINA RESULT:    -7.086      3.594      6.089
REMARK INTER + INTRA:         -10.246
REMARK INTER:                  -8.708
REMARK INTRA:                  -1.537
REMARK UNBOUND:                -1.088
REMARK  6 active torsions:
REMARK  status: ('A' for Active; 'I' for Inactive)
REMARK    1  A    between atoms: P_2  and  O_5 
REMARK    2  A    between atoms: O_5  and  C_6 
REMARK    3  A    between atoms: C_6  and  C_7 
REMARK    4  A    between atoms: C_9  and  O_10 
REMARK    5  A    between atoms: C_13  and  N_14 
REMARK    6  A    between atoms: C_23  and  N_24 
ROOT
HETATM    1  N   UNL     1      -7.906   0.589  24.144  1.00  0.00    -0.255 N 
HETATM    2  C   UNL     1      -6.712   0.258  24.618  1.00  0.00     0.331 A 
HETATM    3  N   UNL     1      -6.738  -0.494  25.731  1.00  0.00    -0.300 N 
ATOM      4  HN  UNL     1      -5.951  -0.866  26.262  1.00  0.00     0.171 HD
HETATM    5  C   UNL     1      -8.067  -0.638  25.979  1.00  0.00     0.151 A 
HETATM    6  C   UNL     1      -8.776  -1.296  26.972  1.00  0.00     0.290 A 
HETATM    7  O   UNL     1      -8.170  -1.920  27.876  1.00  0.00    -0.265 OA
HETATM    8  N   UNL     1     -10.113  -1.258  26.959  1.00  0.00    -0.154 N 
ATOM      9  HN  UNL     1     -10.635  -1.740  27.691  1.00  0.00     0.187 HD
HETATM   10  C   UNL     1     -10.782  -0.598  26.001  1.00  0.00     0.680 A 
HETATM   11  N   UNL     1     -10.132   0.051  25.020  1.00  0.00    -0.174 N 
ATOM     12  HN  UNL     1     -10.657   0.546  24.298  1.00  0.00     0.186 HD
HETATM   13  C   UNL     1      -8.778   0.046  24.993  1.00  0.00     0.162 A 
HETATM   14  O   UNL     1      -5.628   0.623  24.040  1.00  0.00    -0.246 OA
ENDROOT
BRANCH   1  15
HETATM   15  C   UNL     1      -8.202   1.402  22.946  1.00  0.00     0.237 C 
HETATM   16  C   UNL     1      -8.909   0.544  21.906  1.00  0.00     0.088 C 
HETATM   17  C   UNL     1      -9.818   1.543  21.225  1.00  0.00     0.153 C 
HETATM   18  C   UNL     1     -10.136   2.559  22.306  1.00  0.00     0.177 C 
HETATM   19  O   UNL     1      -9.106   2.443  23.281  1.00  0.00    -0.356 OA
BRANCH  17  20
HETATM   20  O   UNL     1      -9.052   2.167  20.190  1.00  0.00    -0.393 OA
ATOM     21  HO  UNL     1      -9.599   2.845  19.810  1.00  0.00     0.210 HD
ENDBRANCH  17  20
BRANCH  18  22
HETATM   22  C   UNL     1     -11.442   2.248  23.037  1.00  0.00     0.217 C 
BRANCH  22  23
HETATM   23  O   UNL     1     -11.483   2.809  24.346  1.00  0.00    -0.280 OA
BRANCH  23  24
HETATM   24  P   UNL     1     -12.869   2.828  25.168  1.00  0.00     0.422 P 
HETATM   25  O   UNL     1     -13.718   1.706  24.599  1.00  0.00    -0.617 OA
HETATM   26  O   UNL     1     -12.425   2.615  26.591  1.00  0.00    -0.617 OA
HETATM   27  O   UNL     1     -13.451   4.183  24.883  1.00  0.00    -0.617 OA
ENDBRANCH  23  24
ENDBRANCH  22  23
ENDBRANCH  18  22
ENDBRANCH   1  15
BRANCH  10  28
HETATM   28  N   UNL     1     -12.133  -0.572  26.014  1.00  0.00    -0.234 N 
ATOM     29  HN2 UNL     1     -12.624  -0.132  25.235  1.00  0.00     0.174 HD
ATOM     30  HN1 UNL     1     -12.643  -0.984  26.796  1.00  0.00     0.174 HD
ENDBRANCH  10  28
TORSDOF 6
ENDMDL
MODEL 12
REMARK VINA RESULT:    -6.930      2.317      4.003
REMARK INTER + INTRA:         -10.044
REMARK INTER:                  -9.921
REMARK INTRA:                  -0.123
REMARK UNBOUND:                -1.088
REMARK  6 active torsions:
REMARK  status: ('A' for Active; 'I' for Inactive)
REMARK    1  A    between atoms: P_2  and  O_5 
REMARK    2  A    between atoms: O_5  and  C_6 
REMARK    3  A    between atoms: C_6  and  C_7 
REMARK    4  A    between atoms: C_9  and  O_10 
REMARK    5  A    between atoms: C_13  and  N_14 
REMARK    6  A    between atoms: C_23  and  N_24 
ROOT
HETATM    1  N   UNL     1      -6.782   0.030  25.480  1.00  0.00    -0.255 N 
HETATM    2  C   UNL     1      -7.179  -0.835  26.405  1.00  0.00     0.331 A 
HETATM    3  N   UNL     1      -6.260  -1.112  27.345  1.00  0.00    -0.300 N 
ATOM      4  HN  UNL     1      -6.344  -1.736  28.147  1.00  0.00     0.171 HD
HETATM    5  C   UNL     1      -5.192  -0.360  26.969  1.00  0.00     0.151 A 
HETATM    6  C   UNL     1      -3.925  -0.187  27.504  1.00  0.00     0.290 A 
HETATM    7  O   UNL     1      -3.589  -0.797  28.547  1.00  0.00    -0.265 OA
HETATM    8  N   UNL     1      -3.063   0.637  26.896  1.00  0.00    -0.154 N 
ATOM      9  HN  UNL     1      -2.130   0.762  27.289  1.00  0.00     0.187 HD
HETATM   10  C   UNL     1      -3.403   1.300  25.781  1.00  0.00     0.680 A 
HETATM   11  N   UNL     1      -4.621   1.161  25.231  1.00  0.00    -0.174 N 
ATOM     12  HN  UNL     1      -4.862   1.675  24.383  1.00  0.00     0.186 HD
HETATM   13  C   UNL     1      -5.527   0.335  25.806  1.00  0.00     0.162 A 
HETATM   14  O   UNL     1      -8.354  -1.345  26.395  1.00  0.00    -0.246 OA
ENDROOT
BRANCH   1  15
HETATM   15  C   UNL     1      -7.559   0.529  24.326  1.00  0.00     0.237 C 
HETATM   16  C   UNL     1      -7.974  -0.640  23.443  1.00  0.00     0.088 C 
HETATM   17  C   UNL     1      -9.306  -0.177  22.896  1.00  0.00     0.153 C 
HETATM   18  C   UNL     1      -9.869   0.716  23.985  1.00  0.00     0.177 C 
HETATM   19  O   UNL     1      -8.762   1.130  24.777  1.00  0.00    -0.356 OA
BRANCH  17  20
HETATM   20  O   UNL     1      -9.029   0.605  21.730  1.00  0.00    -0.393 OA
ATOM     21  HO  UNL     1      -9.118   1.518  21.980  1.00  0.00     0.210 HD
ENDBRANCH  17  20
BRANCH  18  22
HETATM   22  C   UNL     1     -10.804  -0.034  24.934  1.00  0.00     0.217 C 
BRANCH  22  23
HETATM   23  O   UNL     1     -11.300   0.792  25.981  1.00  0.00    -0.280 OA
BRANCH  23  24
HETATM   24  P   UNL     1     -12.787   1.406  25.884  1.00  0.00     0.422 P 
HETATM   25  O   UNL     1     -13.173   1.362  24.417  1.00  0.00    -0.617 OA
HETATM   26  O   UNL     1     -13.593   0.492  26.769  1.00  0.00    -0.617 OA
HETATM   27  O   UNL     1     -12.642   2.812  26.393  1.00  0.00    -0.617 OA
ENDBRANCH  23  24
ENDBRANCH  22  23
ENDBRANCH  18  22
ENDBRANCH   1  15
BRANCH  10  28
HETATM   28  N   UNL     1      -2.510   2.122  25.185  1.00  0.00    -0.234 N 
ATOM     29  HN2 UNL     1      -2.480   2.158  24.165  1.00  0.00     0.174 HD
ATOM     30  HN1 UNL     1      -1.880   2.688  25.753  1.00  0.00     0.174 HD
ENDBRANCH  10  28
TORSDOF 6
ENDMDL
MODEL 13
REMARK VINA RESULT:    -6.900      2.265      3.227
REMARK INTER + INTRA:         -10.005
REMARK INTER:                  -9.013
REMARK INTRA:                  -0.991
REMARK UNBOUND:                -1.088
REMARK  6 active torsions:
REMARK  status: ('A' for Active; 'I' for Inactive)
REMARK    1  A    between atoms: P_2  and  O_5 
REMARK    2  A    between atoms: O_5  and  C_6 
REMARK    3  A    between atoms: C_6  and  C_7 
REMARK    4  A    between atoms: C_9  and  O_10 
REMARK    5  A    between atoms: C_13  and  N_14 
REMARK    6  A    between atoms: C_23  and  N_24 
ROOT
HETATM    1  N   UNL     1      -7.929  -0.999  26.289  1.00  0.00    -0.255 N 
HETATM    2  C   UNL     1      -7.390  -1.465  27.407  1.00  0.00     0.331 A 
HETATM    3  N   UNL     1      -6.110  -1.109  27.604  1.00  0.00    -0.300 N 
ATOM      4  HN  UNL     1      -5.501  -1.344  28.388  1.00  0.00     0.171 HD
HETATM    5  C   UNL     1      -5.822  -0.360  26.507  1.00  0.00     0.151 A 
HETATM    6  C   UNL     1      -4.679   0.305  26.092  1.00  0.00     0.290 A 
HETATM    7  O   UNL     1      -3.640   0.279  26.794  1.00  0.00    -0.265 OA
HETATM    8  N   UNL     1      -4.692   0.973  24.932  1.00  0.00    -0.154 N 
ATOM      9  HN  UNL     1      -3.850   1.460  24.626  1.00  0.00     0.187 HD
HETATM   10  C   UNL     1      -5.793   1.016  24.166  1.00  0.00     0.680 A 
HETATM   11  N   UNL     1      -6.922   0.386  24.533  1.00  0.00    -0.174 N 
ATOM     12  HN  UNL     1      -7.750   0.431  23.939  1.00  0.00     0.186 HD
HETATM   13  C   UNL     1      -6.956  -0.308  25.696  1.00  0.00     0.162 A 
HETATM   14  O   UNL     1      -8.056  -2.187  28.231  1.00  0.00    -0.246 OA
ENDROOT
BRANCH   1  15
HETATM   15  C   UNL     1      -9.306  -1.217  25.797  1.00  0.00     0.237 C 
HETATM   16  C   UNL     1     -10.272  -0.320  26.561  1.00  0.00     0.088 C 
HETATM   17  C   UNL     1     -11.326  -0.018  25.520  1.00  0.00     0.153 C 
HETATM   18  C   UNL     1     -10.576  -0.064  24.201  1.00  0.00     0.177 C 
HETATM   19  O   UNL     1      -9.400  -0.829  24.436  1.00  0.00    -0.356 OA
BRANCH  17  20
HETATM   20  O   UNL     1     -12.279  -1.084  25.567  1.00  0.00    -0.393 OA
ATOM     21  HO  UNL     1     -12.886  -0.946  24.850  1.00  0.00     0.210 HD
ENDBRANCH  17  20
BRANCH  18  22
HETATM   22  C   UNL     1     -10.095   1.316  23.752  1.00  0.00     0.217 C 
BRANCH  22  23
HETATM   23  O   UNL     1      -9.389   1.274  22.516  1.00  0.00    -0.280 OA
BRANCH  23  24
HETATM   24  P   UNL     1     -10.173   1.546  21.134  1.00  0.00     0.422 P 
HETATM   25  O   UNL     1      -9.456   2.698  20.456  1.00  0.00    -0.617 OA
HETATM   26  O   UNL     1     -10.061   0.229  20.412  1.00  0.00    -0.617 OA
HETATM   27  O   UNL     1     -11.564   1.915  21.564  1.00  0.00    -0.617 OA
ENDBRANCH  23  24
ENDBRANCH  22  23
ENDBRANCH  18  22
ENDBRANCH   1  15
BRANCH  10  28
HETATM   28  N   UNL     1      -5.778   1.695  22.997  1.00  0.00    -0.234 N 
ATOM     29  HN2 UNL     1      -5.246   2.564  22.942  1.00  0.00     0.174 HD
ATOM     30  HN1 UNL     1      -6.295   1.339  22.194  1.00  0.00     0.174 HD
ENDBRANCH  10  28
TORSDOF 6
ENDMDL
