MODEL 1
REMARK VINA RESULT:    -5.398      0.000      0.000
REMARK INTER + INTRA:          -5.713
REMARK INTER:                  -5.713
REMARK INTRA:                   0.000
REMARK UNBOUND:                 0.000
REMARK  2 active torsions:
REMARK  status: ('A' for Active; 'I' for Inactive)
REMARK    1  A    between atoms: C_5  and  O_6 
REMARK    2  A    between atoms: C_8  and  O_10 
ROOT
HETATM    1 CL   UNL     1      -2.604  -4.863   6.191  1.00  0.00    -0.084 Cl
HETATM    2  C   UNL     1      -2.480  -6.554   6.585  1.00  0.00     0.036 A 
HETATM    3  C   UNL     1      -1.524  -6.968   7.490  1.00  0.00     0.026 A 
HETATM    4  C   UNL     1      -1.438  -8.310   7.811  1.00  0.00     0.041 A 
HETATM    5  C   UNL     1      -2.311  -9.230   7.238  1.00  0.00     0.098 A 
HETATM    6  C   UNL     1      -3.273  -8.790   6.321  1.00  0.00     0.100 A 
HETATM    7  C   UNL     1      -3.351  -7.446   5.988  1.00  0.00     0.063 A 
ENDROOT
BRANCH   5   8
HETATM    8  O   UNL     1      -2.249 -10.551   7.553  1.00  0.00    -0.358 OA
ATOM      9  HO  UNL     1      -1.434 -10.952   7.832  1.00  0.00     0.217 HD
ENDBRANCH   5   8
BRANCH   6  10
HETATM   10  O   UNL     1      -4.134  -9.694   5.784  1.00  0.00    -0.358 OA
ATOM     11  HO  UNL     1      -4.667  -9.437   5.041  1.00  0.00     0.217 HD
ENDBRANCH   6  10
TORSDOF 2
ENDMDL
MODEL 2
REMARK VINA RESULT:    -5.223      1.683      2.690
REMARK INTER + INTRA:          -5.528
REMARK INTER:                  -5.528
REMARK INTRA:                   0.000
REMARK UNBOUND:                 0.000
REMARK  2 active torsions:
REMARK  status: ('A' for Active; 'I' for Inactive)
REMARK    1  A    between atoms: C_5  and  O_6 
REMARK    2  A    between atoms: C_8  and  O_10 
ROOT
HETATM    1 CL   UNL     1      -2.360  -6.321   7.283  1.00  0.00    -0.084 Cl
HETATM    2  C   UNL     1      -2.408  -7.963   6.706  1.00  0.00     0.036 A 
HETATM    3  C   UNL     1      -3.513  -8.400   6.004  1.00  0.00     0.026 A 
HETATM    4  C   UNL     1      -3.543  -9.700   5.535  1.00  0.00     0.041 A 
HETATM    5  C   UNL     1      -2.466 -10.555   5.759  1.00  0.00     0.098 A 
HETATM    6  C   UNL     1      -1.356 -10.093   6.474  1.00  0.00     0.100 A 
HETATM    7  C   UNL     1      -1.332  -8.793   6.957  1.00  0.00     0.063 A 
ENDROOT
BRANCH   5   8
HETATM    8  O   UNL     1      -2.473 -11.832   5.293  1.00  0.00    -0.358 OA
ATOM      9  HO  UNL     1      -1.976 -12.077   4.522  1.00  0.00     0.217 HD
ENDBRANCH   5   8
BRANCH   6  10
HETATM   10  O   UNL     1      -0.302 -10.929   6.668  1.00  0.00    -0.358 OA
ATOM     11  HO  UNL     1      -0.253 -11.734   6.166  1.00  0.00     0.217 HD
ENDBRANCH   6  10
TORSDOF 2
ENDMDL
MODEL 3
REMARK VINA RESULT:    -4.884      0.949      2.251
REMARK INTER + INTRA:          -5.170
REMARK INTER:                  -5.170
REMARK INTRA:                   0.000
REMARK UNBOUND:                 0.000
REMARK  2 active torsions:
REMARK  status: ('A' for Active; 'I' for Inactive)
REMARK    1  A    between atoms: C_5  and  O_6 
REMARK    2  A    between atoms: C_8  and  O_10 
ROOT
HETATM    1 CL   UNL     1      -0.572  -5.638   6.829  1.00  0.00    -0.084 Cl
HETATM    2  C   UNL     1      -1.719  -6.920   6.565  1.00  0.00     0.036 A 
HETATM    3  C   UNL     1      -2.741  -6.734   5.656  1.00  0.00     0.026 A 
HETATM    4  C   UNL     1      -3.643  -7.760   5.439  1.00  0.00     0.041 A 
HETATM    5  C   UNL     1      -3.515  -8.968   6.119  1.00  0.00     0.098 A 
HETATM    6  C   UNL     1      -2.472  -9.136   7.037  1.00  0.00     0.100 A 
HETATM    7  C   UNL     1      -1.576  -8.102   7.267  1.00  0.00     0.063 A 
ENDROOT
BRANCH   5   8
HETATM    8  O   UNL     1      -4.384  -9.991   5.907  1.00  0.00    -0.358 OA
ATOM      9  HO  UNL     1      -4.389 -10.757   6.469  1.00  0.00     0.217 HD
ENDBRANCH   5   8
BRANCH   6  10
HETATM   10  O   UNL     1      -2.344 -10.326   7.680  1.00  0.00    -0.358 OA
ATOM     11  HO  UNL     1      -3.059 -10.950   7.641  1.00  0.00     0.217 HD
ENDBRANCH   6  10
TORSDOF 2
ENDMDL
MODEL 4
REMARK VINA RESULT:    -4.619     12.208     13.065
REMARK INTER + INTRA:          -4.889
REMARK INTER:                  -4.889
REMARK INTRA:                   0.000
REMARK UNBOUND:                 0.000
REMARK  2 active torsions:
REMARK  status: ('A' for Active; 'I' for Inactive)
REMARK    1  A    between atoms: C_5  and  O_6 
REMARK    2  A    between atoms: C_8  and  O_10 
ROOT
HETATM    1 CL   UNL     1      -3.947 -19.671  -3.223  1.00  0.00    -0.084 Cl
HETATM    2  C   UNL     1      -3.941 -19.176  -1.554  1.00  0.00     0.036 A 
HETATM    3  C   UNL     1      -4.654 -19.912  -0.629  1.00  0.00     0.026 A 
HETATM    4  C   UNL     1      -4.637 -19.524   0.698  1.00  0.00     0.041 A 
HETATM    5  C   UNL     1      -3.900 -18.412   1.098  1.00  0.00     0.098 A 
HETATM    6  C   UNL     1      -3.184 -17.679   0.145  1.00  0.00     0.100 A 
HETATM    7  C   UNL     1      -3.214 -18.059  -1.189  1.00  0.00     0.063 A 
ENDROOT
BRANCH   5   8
HETATM    8  O   UNL     1      -3.861 -18.026   2.401  1.00  0.00    -0.358 OA
ATOM      9  HO  UNL     1      -4.658 -17.885   2.896  1.00  0.00     0.217 HD
ENDBRANCH   5   8
BRANCH   6  10
HETATM   10  O   UNL     1      -2.452 -16.609   0.550  1.00  0.00    -0.358 OA
ATOM     11  HO  UNL     1      -2.273 -16.496   1.475  1.00  0.00     0.217 HD
ENDBRANCH   6  10
TORSDOF 2
ENDMDL
MODEL 5
REMARK VINA RESULT:    -4.618      3.055      3.956
REMARK INTER + INTRA:          -4.888
REMARK INTER:                  -4.888
REMARK INTRA:                   0.000
REMARK UNBOUND:                 0.000
REMARK  2 active torsions:
REMARK  status: ('A' for Active; 'I' for Inactive)
REMARK    1  A    between atoms: C_5  and  O_6 
REMARK    2  A    between atoms: C_8  and  O_10 
ROOT
HETATM    1 CL   UNL     1      -1.713 -10.865   6.739  1.00  0.00    -0.084 Cl
HETATM    2  C   UNL     1      -2.245  -9.216   6.572  1.00  0.00     0.036 A 
HETATM    3  C   UNL     1      -3.541  -8.962   6.171  1.00  0.00     0.026 A 
HETATM    4  C   UNL     1      -3.965  -7.651   6.053  1.00  0.00     0.041 A 
HETATM    5  C   UNL     1      -3.098  -6.601   6.346  1.00  0.00     0.098 A 
HETATM    6  C   UNL     1      -1.787  -6.879   6.749  1.00  0.00     0.100 A 
HETATM    7  C   UNL     1      -1.358  -8.194   6.854  1.00  0.00     0.063 A 
ENDROOT
BRANCH   5   8
HETATM    8  O   UNL     1      -3.503  -5.307   6.248  1.00  0.00    -0.358 OA
ATOM      9  HO  UNL     1      -3.826  -4.834   7.006  1.00  0.00     0.217 HD
ENDBRANCH   5   8
BRANCH   6  10
HETATM   10  O   UNL     1      -0.957  -5.848   7.052  1.00  0.00    -0.358 OA
ATOM     11  HO  UNL     1      -1.331  -5.025   7.345  1.00  0.00     0.217 HD
ENDBRANCH   6  10
TORSDOF 2
ENDMDL
MODEL 6
REMARK VINA RESULT:    -4.618     12.362     13.252
REMARK INTER + INTRA:          -4.888
REMARK INTER:                  -4.888
REMARK INTRA:                   0.000
REMARK UNBOUND:                 0.000
REMARK  2 active torsions:
REMARK  status: ('A' for Active; 'I' for Inactive)
REMARK    1  A    between atoms: C_5  and  O_6 
REMARK    2  A    between atoms: C_8  and  O_10 
ROOT
HETATM    1 CL   UNL     1      -5.718 -21.205  -1.202  1.00  0.00    -0.084 Cl
HETATM    2  C   UNL     1      -4.724 -19.854  -0.735  1.00  0.00     0.036 A 
HETATM    3  C   UNL     1      -4.022 -19.166  -1.703  1.00  0.00     0.026 A 
HETATM    4  C   UNL     1      -3.244 -18.085  -1.331  1.00  0.00     0.041 A 
HETATM    5  C   UNL     1      -3.178 -17.689   0.003  1.00  0.00     0.098 A 
HETATM    6  C   UNL     1      -3.897 -18.402   0.970  1.00  0.00     0.100 A 
HETATM    7  C   UNL     1      -4.665 -19.495   0.599  1.00  0.00     0.063 A 
ENDROOT
BRANCH   5   8
HETATM    8  O   UNL     1      -2.430 -16.621   0.384  1.00  0.00    -0.358 OA
ATOM      9  HO  UNL     1      -2.085 -16.552   1.266  1.00  0.00     0.217 HD
ENDBRANCH   5   8
BRANCH   6  10
HETATM   10  O   UNL     1      -3.842 -17.994   2.265  1.00  0.00    -0.358 OA
ATOM     11  HO  UNL     1      -4.011 -18.626   2.954  1.00  0.00     0.217 HD
ENDBRANCH   6  10
TORSDOF 2
ENDMDL
MODEL 7
REMARK VINA RESULT:    -4.600      2.899      3.809
REMARK INTER + INTRA:          -4.869
REMARK INTER:                  -4.869
REMARK INTRA:                   0.000
REMARK UNBOUND:                 0.000
REMARK  2 active torsions:
REMARK  status: ('A' for Active; 'I' for Inactive)
REMARK    1  A    between atoms: C_5  and  O_6 
REMARK    2  A    between atoms: C_8  and  O_10 
ROOT
HETATM    1 CL   UNL     1      -0.571  -5.976   6.113  1.00  0.00    -0.084 Cl
HETATM    2  C   UNL     1      -2.297  -6.094   6.307  1.00  0.00     0.036 A 
HETATM    3  C   UNL     1      -2.933  -7.278   5.990  1.00  0.00     0.026 A 
HETATM    4  C   UNL     1      -4.302  -7.373   6.158  1.00  0.00     0.041 A 
HETATM    5  C   UNL     1      -5.029  -6.292   6.651  1.00  0.00     0.098 A 
HETATM    6  C   UNL     1      -4.366  -5.101   6.966  1.00  0.00     0.100 A 
HETATM    7  C   UNL     1      -2.995  -5.000   6.784  1.00  0.00     0.063 A 
ENDROOT
BRANCH   5   8
HETATM    8  O   UNL     1      -6.373  -6.374   6.836  1.00  0.00    -0.358 OA
ATOM      9  HO  UNL     1      -6.913  -5.593   6.867  1.00  0.00     0.217 HD
ENDBRANCH   5   8
BRANCH   6  10
HETATM   10  O   UNL     1      -5.082  -4.060   7.466  1.00  0.00    -0.358 OA
ATOM     11  HO  UNL     1      -4.998  -3.843   8.387  1.00  0.00     0.217 HD
ENDBRANCH   6  10
TORSDOF 2
ENDMDL
MODEL 8
REMARK VINA RESULT:    -4.512      1.136      2.282
REMARK INTER + INTRA:          -4.776
REMARK INTER:                  -4.776
REMARK INTRA:                   0.000
REMARK UNBOUND:                 0.000
REMARK  2 active torsions:
REMARK  status: ('A' for Active; 'I' for Inactive)
REMARK    1  A    between atoms: C_5  and  O_6 
REMARK    2  A    between atoms: C_8  and  O_10 
ROOT
HETATM    1 CL   UNL     1      -3.578  -4.696   6.212  1.00  0.00    -0.084 Cl
HETATM    2  C   UNL     1      -3.137  -6.356   6.492  1.00  0.00     0.036 A 
HETATM    3  C   UNL     1      -3.901  -7.361   5.935  1.00  0.00     0.026 A 
HETATM    4  C   UNL     1      -3.540  -8.679   6.148  1.00  0.00     0.041 A 
HETATM    5  C   UNL     1      -2.412  -8.988   6.905  1.00  0.00     0.098 A 
HETATM    6  C   UNL     1      -1.651  -7.954   7.461  1.00  0.00     0.100 A 
HETATM    7  C   UNL     1      -2.021  -6.632   7.260  1.00  0.00     0.063 A 
ENDROOT
BRANCH   5   8
HETATM    8  O   UNL     1      -2.035 -10.277   7.112  1.00  0.00    -0.358 OA
ATOM      9  HO  UNL     1      -1.673 -10.802   6.409  1.00  0.00     0.217 HD
ENDBRANCH   5   8
BRANCH   6  10
HETATM   10  O   UNL     1      -0.541  -8.266   8.180  1.00  0.00    -0.358 OA
ATOM     11  HO  UNL     1      -0.462  -9.136   8.552  1.00  0.00     0.217 HD
ENDBRANCH   6  10
TORSDOF 2
ENDMDL
MODEL 9
REMARK VINA RESULT:    -4.391      2.879      3.312
REMARK INTER + INTRA:          -4.648
REMARK INTER:                  -4.648
REMARK INTRA:                   0.000
REMARK UNBOUND:                 0.000
REMARK  2 active torsions:
REMARK  status: ('A' for Active; 'I' for Inactive)
REMARK    1  A    between atoms: C_5  and  O_6 
REMARK    2  A    between atoms: C_8  and  O_10 
ROOT
HETATM    1 CL   UNL     1      -2.260 -10.810   5.960  1.00  0.00    -0.084 Cl
HETATM    2  C   UNL     1      -2.465  -9.141   6.410  1.00  0.00     0.036 A 
HETATM    3  C   UNL     1      -1.421  -8.472   7.016  1.00  0.00     0.026 A 
HETATM    4  C   UNL     1      -1.582  -7.142   7.360  1.00  0.00     0.041 A 
HETATM    5  C   UNL     1      -2.779  -6.483   7.088  1.00  0.00     0.098 A 
HETATM    6  C   UNL     1      -3.825  -7.180   6.473  1.00  0.00     0.100 A 
HETATM    7  C   UNL     1      -3.669  -8.518   6.142  1.00  0.00     0.063 A 
ENDROOT
BRANCH   5   8
HETATM    8  O   UNL     1      -2.949  -5.173   7.406  1.00  0.00    -0.358 OA
ATOM      9  HO  UNL     1      -2.262  -4.536   7.250  1.00  0.00     0.217 HD
ENDBRANCH   5   8
BRANCH   6  10
HETATM   10  O   UNL     1      -4.981  -6.522   6.193  1.00  0.00    -0.358 OA
ATOM     11  HO  UNL     1      -5.751  -6.699   6.718  1.00  0.00     0.217 HD
ENDBRANCH   6  10
TORSDOF 2
ENDMDL
MODEL 10
REMARK VINA RESULT:    -4.382     12.319     13.137
REMARK INTER + INTRA:          -4.638
REMARK INTER:                  -4.638
REMARK INTRA:                   0.000
REMARK UNBOUND:                 0.000
REMARK  2 active torsions:
REMARK  status: ('A' for Active; 'I' for Inactive)
REMARK    1  A    between atoms: C_5  and  O_6 
REMARK    2  A    between atoms: C_8  and  O_10 
ROOT
HETATM    1 CL   UNL     1      -4.706 -19.224  -4.110  1.00  0.00    -0.084 Cl
HETATM    2  C   UNL     1      -3.953 -18.292  -2.847  1.00  0.00     0.036 A 
HETATM    3  C   UNL     1      -3.753 -18.870  -1.610  1.00  0.00     0.026 A 
HETATM    4  C   UNL     1      -3.142 -18.132  -0.613  1.00  0.00     0.041 A 
HETATM    5  C   UNL     1      -2.723 -16.827  -0.858  1.00  0.00     0.098 A 
HETATM    6  C   UNL     1      -2.936 -16.259  -2.119  1.00  0.00     0.100 A 
HETATM    7  C   UNL     1      -3.563 -16.993  -3.114  1.00  0.00     0.063 A 
ENDROOT
BRANCH   5   8
HETATM    8  O   UNL     1      -2.108 -16.092   0.107  1.00  0.00    -0.358 OA
ATOM      9  HO  UNL     1      -1.697 -15.261  -0.096  1.00  0.00     0.217 HD
ENDBRANCH   5   8
BRANCH   6  10
HETATM   10  O   UNL     1      -2.505 -14.992  -2.353  1.00  0.00    -0.358 OA
ATOM     11  HO  UNL     1      -2.616 -14.335  -1.676  1.00  0.00     0.217 HD
ENDBRANCH   6  10
TORSDOF 2
ENDMDL
MODEL 11
REMARK VINA RESULT:    -4.378      1.925      2.951
REMARK INTER + INTRA:          -4.634
REMARK INTER:                  -4.634
REMARK INTRA:                   0.000
REMARK UNBOUND:                 0.000
REMARK  2 active torsions:
REMARK  status: ('A' for Active; 'I' for Inactive)
REMARK    1  A    between atoms: C_5  and  O_6 
REMARK    2  A    between atoms: C_8  and  O_10 
ROOT
HETATM    1 CL   UNL     1      -0.201  -5.875   5.990  1.00  0.00    -0.084 Cl
HETATM    2  C   UNL     1      -1.908  -6.094   6.249  1.00  0.00     0.036 A 
HETATM    3  C   UNL     1      -2.690  -5.001   6.558  1.00  0.00     0.026 A 
HETATM    4  C   UNL     1      -4.049  -5.176   6.749  1.00  0.00     0.041 A 
HETATM    5  C   UNL     1      -4.622  -6.439   6.620  1.00  0.00     0.098 A 
HETATM    6  C   UNL     1      -3.811  -7.535   6.306  1.00  0.00     0.100 A 
HETATM    7  C   UNL     1      -2.446  -7.362   6.129  1.00  0.00     0.063 A 
ENDROOT
BRANCH   5   8
HETATM    8  O   UNL     1      -5.957  -6.626   6.790  1.00  0.00    -0.358 OA
ATOM      9  HO  UNL     1      -6.590  -6.193   6.231  1.00  0.00     0.217 HD
ENDBRANCH   5   8
BRANCH   6  10
HETATM   10  O   UNL     1      -4.384  -8.759   6.161  1.00  0.00    -0.358 OA
ATOM     11  HO  UNL     1      -5.221  -8.827   5.718  1.00  0.00     0.217 HD
ENDBRANCH   6  10
TORSDOF 2
ENDMDL
MODEL 12
REMARK VINA RESULT:    -4.346     12.275     13.224
REMARK INTER + INTRA:          -4.600
REMARK INTER:                  -4.600
REMARK INTRA:                   0.000
REMARK UNBOUND:                 0.000
REMARK  2 active torsions:
REMARK  status: ('A' for Active; 'I' for Inactive)
REMARK    1  A    between atoms: C_5  and  O_6 
REMARK    2  A    between atoms: C_8  and  O_10 
ROOT
HETATM    1 CL   UNL     1      -4.292 -20.420  -1.483  1.00  0.00    -0.084 Cl
HETATM    2  C   UNL     1      -3.734 -18.793  -1.750  1.00  0.00     0.036 A 
HETATM    3  C   UNL     1      -3.945 -18.200  -2.978  1.00  0.00     0.026 A 
HETATM    4  C   UNL     1      -3.512 -16.902  -3.183  1.00  0.00     0.041 A 
HETATM    5  C   UNL     1      -2.882 -16.200  -2.159  1.00  0.00     0.098 A 
HETATM    6  C   UNL     1      -2.676 -16.819  -0.922  1.00  0.00     0.100 A 
HETATM    7  C   UNL     1      -3.097 -18.126  -0.721  1.00  0.00     0.063 A 
ENDROOT
BRANCH   5   8
HETATM    8  O   UNL     1      -2.463 -14.919  -2.339  1.00  0.00    -0.358 OA
ATOM      9  HO  UNL     1      -1.917 -14.679  -3.078  1.00  0.00     0.217 HD
ENDBRANCH   5   8
BRANCH   6  10
HETATM   10  O   UNL     1      -2.079 -16.118   0.077  1.00  0.00    -0.358 OA
ATOM     11  HO  UNL     1      -2.455 -15.288   0.345  1.00  0.00     0.217 HD
ENDBRANCH   6  10
TORSDOF 2
ENDMDL
MODEL 13
REMARK VINA RESULT:    -4.229      8.307      9.002
REMARK INTER + INTRA:          -4.476
REMARK INTER:                  -4.476
REMARK INTRA:                   0.000
REMARK UNBOUND:                 0.000
REMARK  2 active torsions:
REMARK  status: ('A' for Active; 'I' for Inactive)
REMARK    1  A    between atoms: C_5  and  O_6 
REMARK    2  A    between atoms: C_8  and  O_10 
ROOT
HETATM    1 CL   UNL     1      -6.538  -0.598   8.147  1.00  0.00    -0.084 Cl
HETATM    2  C   UNL     1      -5.106  -0.530   9.134  1.00  0.00     0.036 A 
HETATM    3  C   UNL     1      -4.730  -1.644   9.855  1.00  0.00     0.026 A 
HETATM    4  C   UNL     1      -3.584  -1.591  10.628  1.00  0.00     0.041 A 
HETATM    5  C   UNL     1      -2.814  -0.432  10.668  1.00  0.00     0.098 A 
HETATM    6  C   UNL     1      -3.213   0.688   9.930  1.00  0.00     0.100 A 
HETATM    7  C   UNL     1      -4.370   0.640   9.167  1.00  0.00     0.063 A 
ENDROOT
BRANCH   5   8
HETATM    8  O   UNL     1      -1.677  -0.367  11.411  1.00  0.00    -0.358 OA
ATOM      9  HO  UNL     1      -1.443  -1.063  12.013  1.00  0.00     0.217 HD
ENDBRANCH   5   8
BRANCH   6  10
HETATM   10  O   UNL     1      -2.443   1.807   9.960  1.00  0.00    -0.358 OA
ATOM     11  HO  UNL     1      -2.417   2.327  10.754  1.00  0.00     0.217 HD
ENDBRANCH   6  10
TORSDOF 2
ENDMDL
MODEL 14
REMARK VINA RESULT:    -4.106      7.671      8.433
REMARK INTER + INTRA:          -4.346
REMARK INTER:                  -4.346
REMARK INTRA:                   0.000
REMARK UNBOUND:                 0.000
REMARK  2 active torsions:
REMARK  status: ('A' for Active; 'I' for Inactive)
REMARK    1  A    between atoms: C_5  and  O_6 
REMARK    2  A    between atoms: C_8  and  O_10 
ROOT
HETATM    1 CL   UNL     1      -5.119   1.863   8.135  1.00  0.00    -0.084 Cl
HETATM    2  C   UNL     1      -4.677   0.423   9.008  1.00  0.00     0.036 A 
HETATM    3  C   UNL     1      -5.466  -0.703   8.896  1.00  0.00     0.026 A 
HETATM    4  C   UNL     1      -5.105  -1.850   9.580  1.00  0.00     0.041 A 
HETATM    5  C   UNL     1      -3.953  -1.871  10.362  1.00  0.00     0.098 A 
HETATM    6  C   UNL     1      -3.166  -0.718  10.463  1.00  0.00     0.100 A 
HETATM    7  C   UNL     1      -3.536   0.436   9.789  1.00  0.00     0.063 A 
ENDROOT
BRANCH   5   8
HETATM    8  O   UNL     1      -3.576  -2.994  11.029  1.00  0.00    -0.358 OA
ATOM      9  HO  UNL     1      -3.877  -3.164  11.913  1.00  0.00     0.217 HD
ENDBRANCH   5   8
BRANCH   6  10
HETATM   10  O   UNL     1      -2.033  -0.756  11.212  1.00  0.00    -0.358 OA
ATOM     11  HO  UNL     1      -1.765   0.024  11.682  1.00  0.00     0.217 HD
ENDBRANCH   6  10
TORSDOF 2
ENDMDL
MODEL 15
REMARK VINA RESULT:    -4.031      8.514      9.386
REMARK INTER + INTRA:          -4.266
REMARK INTER:                  -4.266
REMARK INTRA:                   0.000
REMARK UNBOUND:                 0.000
REMARK  2 active torsions:
REMARK  status: ('A' for Active; 'I' for Inactive)
REMARK    1  A    between atoms: C_5  and  O_6 
REMARK    2  A    between atoms: C_8  and  O_10 
ROOT
HETATM    1 CL   UNL     1      -6.210  -2.426  10.220  1.00  0.00    -0.084 Cl
HETATM    2  C   UNL     1      -5.026  -1.155  10.108  1.00  0.00     0.036 A 
HETATM    3  C   UNL     1      -5.322  -0.018   9.384  1.00  0.00     0.026 A 
HETATM    4  C   UNL     1      -4.385   0.996   9.309  1.00  0.00     0.041 A 
HETATM    5  C   UNL     1      -3.162   0.876   9.964  1.00  0.00     0.098 A 
HETATM    6  C   UNL     1      -2.880  -0.286  10.692  1.00  0.00     0.100 A 
HETATM    7  C   UNL     1      -3.815  -1.309  10.756  1.00  0.00     0.063 A 
ENDROOT
BRANCH   5   8
HETATM    8  O   UNL     1      -2.235   1.868   9.912  1.00  0.00    -0.358 OA
ATOM      9  HO  UNL     1      -1.330   1.709  10.154  1.00  0.00     0.217 HD
ENDBRANCH   5   8
BRANCH   6  10
HETATM   10  O   UNL     1      -1.693  -0.384  11.345  1.00  0.00    -0.358 OA
ATOM     11  HO  UNL     1      -1.406  -1.234  11.655  1.00  0.00     0.217 HD
ENDBRANCH   6  10
TORSDOF 2
ENDMDL
MODEL 16
REMARK VINA RESULT:    -3.990      9.569     10.325
REMARK INTER + INTRA:          -4.223
REMARK INTER:                  -4.223
REMARK INTRA:                   0.000
REMARK UNBOUND:                 0.000
REMARK  2 active torsions:
REMARK  status: ('A' for Active; 'I' for Inactive)
REMARK    1  A    between atoms: C_5  and  O_6 
REMARK    2  A    between atoms: C_8  and  O_10 
ROOT
HETATM    1 CL   UNL     1      -5.590   0.819   8.605  1.00  0.00    -0.084 Cl
HETATM    2  C   UNL     1      -4.545   0.966   9.990  1.00  0.00     0.036 A 
HETATM    3  C   UNL     1      -4.873   1.857  10.991  1.00  0.00     0.026 A 
HETATM    4  C   UNL     1      -4.048   1.962  12.096  1.00  0.00     0.041 A 
HETATM    5  C   UNL     1      -2.907   1.170  12.203  1.00  0.00     0.098 A 
HETATM    6  C   UNL     1      -2.592   0.274  11.175  1.00  0.00     0.100 A 
HETATM    7  C   UNL     1      -3.411   0.179  10.060  1.00  0.00     0.063 A 
ENDROOT
BRANCH   5   8
HETATM    8  O   UNL     1      -2.094   1.250  13.288  1.00  0.00    -0.358 OA
ATOM      9  HO  UNL     1      -1.493   1.977  13.400  1.00  0.00     0.217 HD
ENDBRANCH   5   8
BRANCH   6  10
HETATM   10  O   UNL     1      -1.488  -0.509  11.299  1.00  0.00    -0.358 OA
ATOM     11  HO  UNL     1      -0.942  -0.417  12.070  1.00  0.00     0.217 HD
ENDBRANCH   6  10
TORSDOF 2
ENDMDL
MODEL 17
REMARK VINA RESULT:    -3.969      7.605      8.332
REMARK INTER + INTRA:          -4.201
REMARK INTER:                  -4.201
REMARK INTRA:                   0.000
REMARK UNBOUND:                 0.000
REMARK  2 active torsions:
REMARK  status: ('A' for Active; 'I' for Inactive)
REMARK    1  A    between atoms: C_5  and  O_6 
REMARK    2  A    between atoms: C_8  and  O_10 
ROOT
HETATM    1 CL   UNL     1      -6.961  -0.639   8.075  1.00  0.00    -0.084 Cl
HETATM    2  C   UNL     1      -5.476  -0.661   8.984  1.00  0.00     0.036 A 
HETATM    3  C   UNL     1      -4.695   0.476   9.028  1.00  0.00     0.026 A 
HETATM    4  C   UNL     1      -3.523   0.459   9.762  1.00  0.00     0.041 A 
HETATM    5  C   UNL     1      -3.142  -0.686  10.456  1.00  0.00     0.098 A 
HETATM    6  C   UNL     1      -3.948  -1.829  10.398  1.00  0.00     0.100 A 
HETATM    7  C   UNL     1      -5.116  -1.817   9.650  1.00  0.00     0.063 A 
ENDROOT
BRANCH   5   8
HETATM    8  O   UNL     1      -2.000  -0.714  11.194  1.00  0.00    -0.358 OA
ATOM      9  HO  UNL     1      -1.951  -1.207  12.004  1.00  0.00     0.217 HD
ENDBRANCH   5   8
BRANCH   6  10
HETATM   10  O   UNL     1      -3.577  -2.933  11.097  1.00  0.00    -0.358 OA
ATOM     11  HO  UNL     1      -4.093  -3.198  11.849  1.00  0.00     0.217 HD
ENDBRANCH   6  10
TORSDOF 2
ENDMDL
MODEL 18
REMARK VINA RESULT:    -3.868      9.976     10.739
REMARK INTER + INTRA:          -4.094
REMARK INTER:                  -4.094
REMARK INTRA:                   0.000
REMARK UNBOUND:                 0.000
REMARK  2 active torsions:
REMARK  status: ('A' for Active; 'I' for Inactive)
REMARK    1  A    between atoms: C_5  and  O_6 
REMARK    2  A    between atoms: C_8  and  O_10 
ROOT
HETATM    1 CL   UNL     1      -6.271   2.894  11.435  1.00  0.00    -0.084 Cl
HETATM    2  C   UNL     1      -4.859   1.876  11.398  1.00  0.00     0.036 A 
HETATM    3  C   UNL     1      -4.654   1.045  10.315  1.00  0.00     0.026 A 
HETATM    4  C   UNL     1      -3.525   0.248  10.282  1.00  0.00     0.041 A 
HETATM    5  C   UNL     1      -2.600   0.292  11.323  1.00  0.00     0.098 A 
HETATM    6  C   UNL     1      -2.827   1.140  12.412  1.00  0.00     0.100 A 
HETATM    7  C   UNL     1      -3.967   1.929  12.452  1.00  0.00     0.063 A 
ENDROOT
BRANCH   5   8
HETATM    8  O   UNL     1      -1.478  -0.475  11.300  1.00  0.00    -0.358 OA
ATOM      9  HO  UNL     1      -1.151  -0.892  12.088  1.00  0.00     0.217 HD
ENDBRANCH   5   8
BRANCH   6  10
HETATM   10  O   UNL     1      -1.908   1.191  13.412  1.00  0.00    -0.358 OA
ATOM     11  HO  UNL     1      -2.205   1.157  14.313  1.00  0.00     0.217 HD
ENDBRANCH   6  10
TORSDOF 2
ENDMDL
MODEL 19
REMARK VINA RESULT:    -3.699      7.435      7.952
REMARK INTER + INTRA:          -3.916
REMARK INTER:                  -3.916
REMARK INTRA:                   0.000
REMARK UNBOUND:                 0.000
REMARK  2 active torsions:
REMARK  status: ('A' for Active; 'I' for Inactive)
REMARK    1  A    between atoms: C_5  and  O_6 
REMARK    2  A    between atoms: C_8  and  O_10 
ROOT
HETATM    1 CL   UNL     1      -5.046   1.944   8.255  1.00  0.00    -0.084 Cl
HETATM    2  C   UNL     1      -4.633   0.462   9.069  1.00  0.00     0.036 A 
HETATM    3  C   UNL     1      -3.544   0.437   9.916  1.00  0.00     0.026 A 
HETATM    4  C   UNL     1      -3.227  -0.738  10.572  1.00  0.00     0.041 A 
HETATM    5  C   UNL     1      -4.004  -1.879  10.390  1.00  0.00     0.098 A 
HETATM    6  C   UNL     1      -5.104  -1.834   9.526  1.00  0.00     0.100 A 
HETATM    7  C   UNL     1      -5.414  -0.659   8.856  1.00  0.00     0.063 A 
ENDROOT
BRANCH   5   8
HETATM    8  O   UNL     1      -3.715  -3.038  11.038  1.00  0.00    -0.358 OA
ATOM      9  HO  UNL     1      -3.749  -3.094  11.985  1.00  0.00     0.217 HD
ENDBRANCH   5   8
BRANCH   6  10
HETATM   10  O   UNL     1      -5.868  -2.947   9.372  1.00  0.00    -0.358 OA
ATOM     11  HO  UNL     1      -6.275  -3.114   8.530  1.00  0.00     0.217 HD
ENDBRANCH   6  10
TORSDOF 2
ENDMDL
MODEL 20
REMARK VINA RESULT:    -3.698     12.267     13.048
REMARK INTER + INTRA:          -3.914
REMARK INTER:                  -3.914
REMARK INTRA:                   0.000
REMARK UNBOUND:                 0.000
REMARK  2 active torsions:
REMARK  status: ('A' for Active; 'I' for Inactive)
REMARK    1  A    between atoms: C_5  and  O_6 
REMARK    2  A    between atoms: C_8  and  O_10 
ROOT
HETATM    1 CL   UNL     1      -1.787 -15.958  -0.957  1.00  0.00    -0.084 Cl
HETATM    2  C   UNL     1      -2.822 -17.336  -0.715  1.00  0.00     0.036 A 
HETATM    3  C   UNL     1      -3.201 -17.679   0.566  1.00  0.00     0.026 A 
HETATM    4  C   UNL     1      -4.035 -18.766   0.754  1.00  0.00     0.041 A 
HETATM    5  C   UNL     1      -4.495 -19.499  -0.337  1.00  0.00     0.098 A 
HETATM    6  C   UNL     1      -4.099 -19.135  -1.629  1.00  0.00     0.100 A 
HETATM    7  C   UNL     1      -3.250 -18.054  -1.816  1.00  0.00     0.063 A 
ENDROOT
BRANCH   5   8
HETATM    8  O   UNL     1      -5.326 -20.562  -0.171  1.00  0.00    -0.358 OA
ATOM      9  HO  UNL     1      -6.180 -20.588  -0.587  1.00  0.00     0.217 HD
ENDBRANCH   5   8
BRANCH   6  10
HETATM   10  O   UNL     1      -4.570 -19.844  -2.688  1.00  0.00    -0.358 OA
ATOM     11  HO  UNL     1      -5.178 -20.557  -2.531  1.00  0.00     0.217 HD
ENDBRANCH   6  10
TORSDOF 2
ENDMDL
