REMARK  18 active torsions:
REMARK  status: ('A' for Active; 'I' for Inactive)
REMARK    1  A    between atoms: P_1  and  O_4 
REMARK    2  A    between atoms: P_1  and  O_66 
REMARK    3  A    between atoms: O_4  and  C_5 
REMARK    4  A    between atoms: C_5  and  C_6 
REMARK    5  A    between atoms: C_8  and  O_9 
REMARK    6  A    between atoms: C_11  and  O_12 
REMARK    7  A    between atoms: C_14  and  N_15 
REMARK    8  A    between atoms: N_49  and  C_51 
REMARK    9  A    between atoms: C_51  and  C_52 
REMARK   10  A    between atoms: C_52  and  O_53 
REMARK   11  A    between atoms: C_52  and  C_55 
REMARK   12  A    between atoms: C_55  and  C_58 
REMARK   13  A    between atoms: C_55  and  O_56 
REMARK   14  A    between atoms: C_58  and  O_59 
REMARK   15  A    between atoms: C_58  and  C_61 
REMARK   16  A    between atoms: C_61  and  O_62 
REMARK   17  A    between atoms: O_62  and  P_63 
REMARK   18  A    between atoms: P_63  and  O_66 
ROOT
HETATM    1  O   UNL     1       3.474 -28.073  -5.418  1.00  0.00    -0.287 OA
ENDROOT
BRANCH   1   2
HETATM    2  P   UNL     1       4.353 -27.711  -6.666  1.00  0.00     0.417 P 
HETATM    3  O   UNL     1       3.540 -28.048  -7.809  1.00  0.00    -0.624 OA
HETATM    4  O   UNL     1       4.890 -26.371  -6.526  1.00  0.00    -0.624 OA
BRANCH   2   5
HETATM    5  O   UNL     1       5.556 -28.709  -6.564  1.00  0.00    -0.180 OA
BRANCH   5   6
HETATM    6  P   UNL     1       5.611 -30.277  -6.615  1.00  0.00     0.417 P 
HETATM    7  O   UNL     1       4.415 -30.833  -6.014  1.00  0.00    -0.624 OA
HETATM    8  O   UNL     1       6.879 -30.640  -5.981  1.00  0.00    -0.624 OA
BRANCH   6   9
HETATM    9  O   UNL     1       5.639 -30.614  -8.155  1.00  0.00    -0.287 OA
BRANCH   9  10
HETATM   10  C   UNL     1       6.833 -30.436  -8.916  1.00  0.00     0.216 C 
BRANCH  10  11
HETATM   11  C   UNL     1       6.714 -31.229 -10.190  1.00  0.00     0.180 C 
HETATM   12  C   UNL     1       6.696 -32.750  -9.992  1.00  0.00     0.182 C 
HETATM   13  C   UNL     1       8.117 -33.151 -10.427  1.00  0.00     0.198 C 
HETATM   14  C   UNL     1       8.402 -32.131 -11.522  1.00  0.00     0.262 C 
HETATM   15  O   UNL     1       7.808 -30.933 -11.082  1.00  0.00    -0.353 OA
BRANCH  12  16
HETATM   16  O   UNL     1       5.661 -33.362 -10.730  1.00  0.00    -0.390 OA
ATOM     17  HO  UNL     1       4.784 -33.115 -10.462  1.00  0.00     0.210 HD
ENDBRANCH  12  16
BRANCH  13  18
HETATM   18  O   UNL     1       8.173 -34.461 -10.906  1.00  0.00    -0.388 OA
ATOM     19  HO  UNL     1       9.050 -34.708 -11.174  1.00  0.00     0.210 HD
ENDBRANCH  13  18
BRANCH  14  20
HETATM   20  N   UNL     1       9.797 -31.870 -11.805  1.00  0.00    -0.297 N 
HETATM   21  C   UNL     1      10.329 -31.598 -13.033  1.00  0.00     0.142 A 
HETATM   22  N   UNL     1       9.694 -31.605 -14.204  1.00  0.00    -0.336 N 
HETATM   23  C   UNL     1      11.659 -31.320 -12.830  1.00  0.00     0.122 A 
HETATM   24  C   UNL     1      10.502 -31.291 -15.201  1.00  0.00     0.183 A 
ATOM     25  HN  UNL     1       8.705 -31.826 -14.317  1.00  0.00     0.168 HD
HETATM   26  N   UNL     1      11.800 -31.008 -15.156  1.00  0.00    -0.337 N 
HETATM   27  C   UNL     1      12.431 -31.021 -13.967  1.00  0.00     0.131 A 
ATOM     28  HN  UNL     1      12.311 -30.784 -16.010  1.00  0.00     0.168 HD
HETATM   29  N   UNL     1      13.714 -30.702 -13.921  1.00  0.00    -0.383 N 
ATOM     30  HN2 UNL     1      14.274 -30.485 -14.746  1.00  0.00     0.157 HD
ATOM     31  HN1 UNL     1      14.192 -30.712 -13.020  1.00  0.00     0.157 HD
HETATM   32  N   UNL     1      11.957 -31.396 -11.483  1.00  0.00    -0.346 N 
HETATM   33  C   UNL     1      10.814 -31.702 -10.920  1.00  0.00     0.188 A 
ATOM     34  HN  UNL     1      12.859 -31.248 -11.031  1.00  0.00     0.167 HD
ENDBRANCH  14  20
ENDBRANCH  10  11
ENDBRANCH   9  10
ENDBRANCH   6   9
ENDBRANCH   5   6
ENDBRANCH   2   5
ENDBRANCH   1   2
BRANCH   1  35
HETATM   35  C   UNL     1       3.927 -27.806  -4.124  1.00  0.00     0.215 C 
BRANCH  35  36
HETATM   36  C   UNL     1       3.171 -28.706  -3.170  1.00  0.00     0.173 C 
BRANCH  36  37
HETATM   37  O   UNL     1       3.350 -30.062  -3.553  1.00  0.00    -0.391 OA
ATOM     38  HO  UNL     1       2.876 -30.627  -2.954  1.00  0.00     0.210 HD
ENDBRANCH  36  37
BRANCH  36  39
HETATM   39  C   UNL     1       3.654 -28.472  -1.747  1.00  0.00     0.179 C 
BRANCH  39  40
HETATM   40  C   UNL     1       2.999 -29.347  -0.671  1.00  0.00     0.167 C 
BRANCH  40  41
HETATM   41  O   UNL     1       3.161 -30.708  -0.948  1.00  0.00    -0.391 OA
ATOM     42  HO  UNL     1       2.755 -31.250  -0.282  1.00  0.00     0.210 HD
ENDBRANCH  40  41
BRANCH  40  43
HETATM   43  C   UNL     1       3.594 -29.019   0.695  1.00  0.00     0.165 C 
BRANCH  43  44
HETATM   44  N   UNL     1       3.029 -29.887   1.731  1.00  0.00    -0.327 N 
HETATM   45  C   UNL     1       1.764 -29.649   2.118  1.00  0.00     0.145 A 
HETATM   46  N   UNL     1       1.098 -28.692   1.538  1.00  0.00    -0.292 N 
HETATM   47  C   UNL     1       1.232 -30.512   3.134  1.00  0.00     0.146 A 
HETATM   48  C   UNL     1      -0.113 -28.446   1.937  1.00  0.00     0.328 A 
ATOM     49  HN  UNL     1       1.519 -28.147   0.786  1.00  0.00     0.172 HD
HETATM   50  O   UNL     1      -0.735 -27.549   1.452  1.00  0.00    -0.247 OA
HETATM   51  N   UNL     1      -0.721 -29.217   2.890  1.00  0.00    -0.273 N 
HETATM   52  C   UNL     1      -0.077 -30.268   3.499  1.00  0.00     0.280 A 
ATOM     53  HN  UNL     1      -1.682 -29.005   3.157  1.00  0.00     0.173 HD
HETATM   54  O   UNL     1      -0.650 -30.938   4.337  1.00  0.00    -0.265 OA
HETATM   55  N   UNL     1       1.884 -31.473   3.707  1.00  0.00    -0.347 N 
HETATM   56  C   UNL     1       3.195 -31.633   3.366  1.00  0.00     0.060 A 
ATOM     57  HN  UNL     1       1.435 -32.086   4.387  1.00  0.00     0.166 HD
HETATM   58  C   UNL     1       3.943 -32.625   4.022  1.00  0.00     0.039 A 
HETATM   59  C   UNL     1       3.798 -30.857   2.360  1.00  0.00     0.063 A 
HETATM   60  C   UNL     1       5.271 -32.803   3.747  1.00  0.00    -0.054 A 
HETATM   61  C   UNL     1       5.884 -32.020   2.741  1.00  0.00    -0.054 A 
HETATM   62  C   UNL     1       6.071 -33.843   4.490  1.00  0.00     0.049 C 
HETATM   63  C   UNL     1       7.329 -32.224   2.389  1.00  0.00     0.049 C 
HETATM   64  C   UNL     1       5.142 -31.086   2.050  1.00  0.00     0.039 A 
ENDBRANCH  43  44
ENDBRANCH  40  43
ENDBRANCH  39  40
BRANCH  39  65
HETATM   65  O   UNL     1       3.488 -27.111  -1.477  1.00  0.00    -0.390 OA
ATOM     66  HO  UNL     1       3.894 -26.569  -2.143  1.00  0.00     0.210 HD
ENDBRANCH  39  65
ENDBRANCH  36  39
ENDBRANCH  35  36
ENDBRANCH   1  35
TORSDOF 18
