REMARK  6 active torsions:
REMARK  status: ('A' for Active; 'I' for Inactive)
REMARK    1  A    between atoms: C_1  and  C_3 
REMARK    2  A    between atoms: C_1  and  O_2 
REMARK    3  A    between atoms: O_2  and  P_7 
REMARK    4  A    between atoms: C_3  and  C_4 
REMARK    5  A    between atoms: P_7  and  O_10 
REMARK    6  A    between atoms: O_10  and  P_11 
ROOT
HETATM    1  P   UNL     1       3.660  12.893  13.787  1.00  0.00     0.418 P 
HETATM    2  O   UNL     1       3.926  12.144  12.522  1.00  0.00    -0.624 OA
HETATM    3  O   UNL     1       2.439  12.545  14.570  1.00  0.00    -0.624 OA
ENDROOT
BRANCH   1   4
HETATM    4  O   UNL     1       3.619  14.480  13.477  1.00  0.00    -0.173 OA
BRANCH   4   5
HETATM    5  P   UNL     1       3.025  15.283  12.188  1.00  0.00     0.431 P 
HETATM    6  O   UNL     1       1.592  14.788  12.087  1.00  0.00    -0.616 OA
HETATM    7  O   UNL     1       3.886  14.879  10.984  1.00  0.00    -0.616 OA
HETATM    8  O   UNL     1       3.144  16.772  12.496  1.00  0.00    -0.616 OA
ENDBRANCH   4   5
ENDBRANCH   1   4
BRANCH   1   9
HETATM    9  O   UNL     1       4.891  12.755  14.813  1.00  0.00    -0.289 OA
BRANCH   9  10
HETATM   10  C   UNL     1       5.850  13.829  14.948  1.00  0.00     0.185 C 
BRANCH  10  11
HETATM   11  C   UNL     1       7.077  13.286  15.616  1.00  0.00     0.059 C 
BRANCH  11  12
HETATM   12  C   UNL     1       6.807  12.593  16.928  1.00  0.00    -0.091 C 
HETATM   13  C   UNL     1       5.938  13.350  17.910  1.00  0.00     0.042 C 
HETATM   14  C   UNL     1       7.335  11.408  17.200  1.00  0.00     0.014 C 
ENDBRANCH  11  12
ENDBRANCH  10  11
ENDBRANCH   9  10
ENDBRANCH   1   9
TORSDOF 6
