REMARK  6 active torsions:
REMARK  status: ('A' for Active; 'I' for Inactive)
REMARK    1  A    between atoms: N_1  and  C_25 
REMARK    2  A    between atoms: N_1  and  C_12 
REMARK    3  A    between atoms: C_5  and  C_6 
REMARK       I    between atoms: C_6  and  N_18 
REMARK    4  A    between atoms: C_7  and  N_18 
REMARK    5  A    between atoms: C_9  and  O_21 
REMARK    6  A    between atoms: C_13  and  C_26 
ROOT
HETATM    1  N   UNL     1     -80.722 -18.563  87.862  1.00  0.00    -0.341 N 
ATOM      2  HN  UNL     1     -79.729 -18.795  87.838  1.00  0.00     0.167 HD
ENDROOT
BRANCH   1   3
HETATM    3  C   UNL     1     -81.465 -19.597  88.352  1.00  0.00     0.040 A 
HETATM    4  C   UNL     1     -82.466 -20.181  87.581  1.00  0.00     0.047 A 
HETATM    5  C   UNL     1     -83.323 -21.140  88.105  1.00  0.00     0.034 A 
HETATM    6  C   UNL     1     -83.247 -21.436  89.458  1.00  0.00     0.018 A 
HETATM    7  C   UNL     1     -82.301 -20.813  90.253  1.00  0.00     0.010 A 
HETATM    8  C   UNL     1     -81.375 -19.911  89.724  1.00  0.00    -0.035 A 
HETATM    9  C   UNL     1     -80.325 -19.277  90.606  1.00  0.00     0.050 C 
BRANCH   5  10
HETATM   10  C   UNL     1     -84.155 -21.822  87.068  1.00  0.00     0.256 C 
HETATM   11  N   UNL     1     -84.886 -22.885  87.456  1.00  0.00    -0.323 N 
ATOM     12  HN  UNL     1     -84.976 -23.035  88.461  1.00  0.00     0.169 HD
HETATM   13  O   UNL     1     -84.189 -21.388  85.921  1.00  0.00    -0.267 OA
BRANCH  11  14
HETATM   14  C   UNL     1     -85.542 -23.815  86.615  1.00  0.00     0.037 A 
HETATM   15  C   UNL     1     -86.515 -24.657  87.128  1.00  0.00     0.029 A 
HETATM   16  C   UNL     1     -87.196 -25.517  86.283  1.00  0.00     0.005 A 
HETATM   17  C   UNL     1     -86.854 -25.608  84.945  1.00  0.00     0.037 A 
HETATM   18  C   UNL     1     -85.800 -24.846  84.457  1.00  0.00     0.070 A 
HETATM   19  C   UNL     1     -85.142 -23.948  85.287  1.00  0.00     0.066 A 
BRANCH  18  20
HETATM   20  O   UNL     1     -85.354 -24.902  83.154  1.00  0.00    -0.356 OA
HETATM   21  C   UNL     1     -86.169 -25.622  82.214  1.00  0.00     0.210 C 
ENDBRANCH  18  20
ENDBRANCH  11  14
ENDBRANCH   5  10
ENDBRANCH   1   3
BRANCH   1  22
HETATM   22  C   UNL     1     -80.951 -17.305  87.397  1.00  0.00     0.122 A 
HETATM   23  N   UNL     1     -82.052 -16.708  87.865  1.00  0.00    -0.327 N 
HETATM   24  C   UNL     1     -82.195 -15.382  87.671  1.00  0.00     0.120 A 
ATOM     25  HN  UNL     1     -82.767 -17.244  88.357  1.00  0.00     0.169 HD
HETATM   26  N   UNL     1     -81.357 -14.592  86.980  1.00  0.00    -0.326 N 
HETATM   27  C   UNL     1     -80.271 -15.213  86.509  1.00  0.00     0.139 A 
ATOM     28  HN  UNL     1     -81.535 -13.599  86.827  1.00  0.00     0.169 HD
HETATM   29  C   UNL     1     -79.956 -16.562  86.687  1.00  0.00     0.070 A 
HETATM   30  N   UNL     1     -79.289 -14.673  85.750  1.00  0.00    -0.281 N 
HETATM   31  C   UNL     1     -78.738 -16.732  85.990  1.00  0.00     0.126 A 
HETATM   32  N   UNL     1     -78.347 -15.607  85.425  1.00  0.00    -0.307 N 
ATOM     33  HN  UNL     1     -77.510 -15.463  84.860  1.00  0.00     0.186 HD
HETATM   34  C   UNL     1     -79.163 -13.296  85.292  1.00  0.00     0.179 C 
BRANCH  24  35
HETATM   35  C   UNL     1     -83.362 -14.748  88.320  1.00  0.00     0.023 A 
HETATM   36  C   UNL     1     -84.327 -15.491  88.995  1.00  0.00     0.102 A 
HETATM   37  N   UNL     1     -85.394 -14.960  89.605  1.00  0.00    -0.374 N 
HETATM   38  C   UNL     1     -85.531 -13.631  89.558  1.00  0.00     0.087 A 
ATOM     39  HN  UNL     1     -86.076 -15.546  90.087  1.00  0.00     0.164 HD
HETATM   40  C   UNL     1     -84.634 -12.800  88.919  1.00  0.00     0.018 A 
HETATM   41  C   UNL     1     -83.540 -13.369  88.295  1.00  0.00     0.018 A 
ENDBRANCH  24  35
ENDBRANCH   1  22
TORSDOF 6
