MODEL 1
REMARK VINA RESULT:    -7.196      0.000      0.000
REMARK INTER + INTRA:          -8.644
REMARK INTER:                  -8.458
REMARK INTRA:                  -0.186
REMARK UNBOUND:                -0.186
REMARK  5 active torsions:
REMARK  status: ('A' for Active; 'I' for Inactive)
REMARK    1  A    between atoms: C_3  and  C_4 
REMARK    2  A    between atoms: C_4  and  O_14 
REMARK    3  A    between atoms: C_5  and  O_16 
REMARK    4  A    between atoms: C_6  and  O_18 
REMARK    5  A    between atoms: C_7  and  O_20 
ROOT
HETATM    1  C   UNL     1      83.988  13.970  34.418  1.00  0.00     0.157 C 
HETATM    2  C   UNL     1      83.827  13.216  35.748  1.00  0.00     0.178 C 
HETATM    3  C   UNL     1      83.837  14.126  36.965  1.00  0.00     0.073 C 
HETATM    4  C   UNL     1      82.985  15.402  36.835  1.00  0.00     0.158 C 
HETATM    5  C   UNL     1      83.340  16.141  35.576  1.00  0.00     0.178 C 
HETATM    6  C   UNL     1      83.126  15.230  34.356  1.00  0.00     0.175 C 
HETATM    7  N   UNL     1      85.423  14.213  34.392  1.00  0.00    -0.287 N 
ATOM      8  HN  UNL     1      85.879  15.040  34.005  1.00  0.00     0.174 HD
HETATM    9  O   UNL     1      86.562  12.079  34.006  1.00  0.00    -0.176 OA
HETATM   10  S   UNL     1      86.181  12.949  35.081  1.00  0.00     0.358 S 
HETATM   11  O   UNL     1      87.151  13.335  36.042  1.00  0.00    -0.176 OA
HETATM   12  O   UNL     1      84.956  12.322  35.855  1.00  0.00    -0.251 OA
ENDROOT
BRANCH   3  13
HETATM   13  C   UNL     1      83.490  13.291  38.187  1.00  0.00     0.174 C 
BRANCH  13  14
HETATM   14  O   UNL     1      82.415  12.400  37.895  1.00  0.00    -0.400 OA
ATOM     15  HO  UNL     1      82.665  11.789  37.212  1.00  0.00     0.209 HD
ENDBRANCH  13  14
ENDBRANCH   3  13
BRANCH   4  16
HETATM   16  O   UNL     1      83.159  16.266  37.964  1.00  0.00    -0.392 OA
ATOM     17  HO  UNL     1      82.445  16.136  38.578  1.00  0.00     0.210 HD
ENDBRANCH   4  16
BRANCH   5  18
HETATM   18  O   UNL     1      82.516  17.317  35.439  1.00  0.00    -0.390 OA
ATOM     19  HO  UNL     1      82.226  17.390  34.536  1.00  0.00     0.210 HD
ENDBRANCH   5  18
BRANCH   6  20
HETATM   20  O   UNL     1      83.401  15.952  33.159  1.00  0.00    -0.391 OA
ATOM     21  HO  UNL     1      83.055  16.835  33.224  1.00  0.00     0.210 HD
ENDBRANCH   6  20
TORSDOF 5
ENDMDL
MODEL 2
REMARK VINA RESULT:    -6.063      1.644      2.183
REMARK INTER + INTRA:          -7.313
REMARK INTER:                  -7.042
REMARK INTRA:                  -0.270
REMARK UNBOUND:                -0.186
REMARK  5 active torsions:
REMARK  status: ('A' for Active; 'I' for Inactive)
REMARK    1  A    between atoms: C_3  and  C_4 
REMARK    2  A    between atoms: C_4  and  O_14 
REMARK    3  A    between atoms: C_5  and  O_16 
REMARK    4  A    between atoms: C_6  and  O_18 
REMARK    5  A    between atoms: C_7  and  O_20 
ROOT
HETATM    1  C   UNL     1      85.870  12.399  34.771  1.00  0.00     0.157 C 
HETATM    2  C   UNL     1      85.342  12.153  36.193  1.00  0.00     0.178 C 
HETATM    3  C   UNL     1      84.581  13.336  36.769  1.00  0.00     0.073 C 
HETATM    4  C   UNL     1      83.576  13.999  35.810  1.00  0.00     0.158 C 
HETATM    5  C   UNL     1      84.244  14.339  34.508  1.00  0.00     0.178 C 
HETATM    6  C   UNL     1      84.830  13.067  33.872  1.00  0.00     0.175 C 
HETATM    7  N   UNL     1      87.054  13.205  35.034  1.00  0.00    -0.287 N 
ATOM      8  HN  UNL     1      87.403  13.960  34.442  1.00  0.00     0.174 HD
HETATM    9  O   UNL     1      88.754  11.770  36.058  1.00  0.00    -0.176 OA
HETATM   10  S   UNL     1      87.730  12.704  36.426  1.00  0.00     0.358 S 
HETATM   11  O   UNL     1      88.042  13.768  37.311  1.00  0.00    -0.176 OA
HETATM   12  O   UNL     1      86.497  11.921  37.028  1.00  0.00    -0.251 OA
ENDROOT
BRANCH   3  13
HETATM   13  C   UNL     1      83.962  12.906  38.089  1.00  0.00     0.174 C 
BRANCH  13  14
HETATM   14  O   UNL     1      82.551  12.746  37.951  1.00  0.00    -0.400 OA
ATOM     15  HO  UNL     1      82.101  13.557  38.156  1.00  0.00     0.209 HD
ENDBRANCH  13  14
ENDBRANCH   3  13
BRANCH   4  16
HETATM   16  O   UNL     1      83.007  15.182  36.381  1.00  0.00    -0.392 OA
ATOM     17  HO  UNL     1      82.139  15.324  36.021  1.00  0.00     0.210 HD
ENDBRANCH   4  16
BRANCH   5  18
HETATM   18  O   UNL     1      83.292  14.926  33.597  1.00  0.00    -0.390 OA
ATOM     19  HO  UNL     1      83.676  14.968  32.729  1.00  0.00     0.210 HD
ENDBRANCH   5  18
BRANCH   6  20
HETATM   20  O   UNL     1      85.407  13.380  32.606  1.00  0.00    -0.391 OA
ATOM     21  HO  UNL     1      85.955  14.153  32.680  1.00  0.00     0.210 HD
ENDBRANCH   6  20
TORSDOF 5
ENDMDL
MODEL 3
REMARK VINA RESULT:    -5.893      8.504     10.149
REMARK INTER + INTRA:          -7.114
REMARK INTER:                  -6.892
REMARK INTRA:                  -0.221
REMARK UNBOUND:                -0.186
REMARK  5 active torsions:
REMARK  status: ('A' for Active; 'I' for Inactive)
REMARK    1  A    between atoms: C_3  and  C_4 
REMARK    2  A    between atoms: C_4  and  O_14 
REMARK    3  A    between atoms: C_5  and  O_16 
REMARK    4  A    between atoms: C_6  and  O_18 
REMARK    5  A    between atoms: C_7  and  O_20 
ROOT
HETATM    1  C   UNL     1      91.845  14.535  42.102  1.00  0.00     0.157 C 
HETATM    2  C   UNL     1      90.321  14.732  42.104  1.00  0.00     0.178 C 
HETATM    3  C   UNL     1      89.593  13.812  43.070  1.00  0.00     0.073 C 
HETATM    4  C   UNL     1      90.232  13.688  44.465  1.00  0.00     0.158 C 
HETATM    5  C   UNL     1      91.688  13.338  44.342  1.00  0.00     0.178 C 
HETATM    6  C   UNL     1      92.417  14.410  43.514  1.00  0.00     0.175 C 
HETATM    7  N   UNL     1      91.985  13.341  41.281  1.00  0.00    -0.287 N 
ATOM      8  HN  UNL     1      92.685  12.610  41.409  1.00  0.00     0.174 HD
HETATM    9  O   UNL     1      91.461  13.932  38.963  1.00  0.00    -0.176 OA
HETATM   10  S   UNL     1      90.841  13.365  40.125  1.00  0.00     0.358 S 
HETATM   11  O   UNL     1      90.137  12.138  40.010  1.00  0.00    -0.176 OA
HETATM   12  O   UNL     1      89.863  14.424  40.769  1.00  0.00    -0.251 OA
ENDROOT
BRANCH   3  13
HETATM   13  C   UNL     1      88.131  14.226  43.111  1.00  0.00     0.174 C 
BRANCH  13  14
HETATM   14  O   UNL     1      87.724  14.493  44.452  1.00  0.00    -0.400 OA
ATOM     15  HO  UNL     1      88.448  14.360  45.053  1.00  0.00     0.209 HD
ENDBRANCH  13  14
ENDBRANCH   3  13
BRANCH   4  16
HETATM   16  O   UNL     1      89.566  12.702  45.261  1.00  0.00    -0.392 OA
ATOM     17  HO  UNL     1      89.477  11.898  44.764  1.00  0.00     0.210 HD
ENDBRANCH   4  16
BRANCH   5  18
HETATM   18  O   UNL     1      92.294  13.258  45.649  1.00  0.00    -0.390 OA
ATOM     19  HO  UNL     1      92.741  14.076  45.835  1.00  0.00     0.210 HD
ENDBRANCH   5  18
BRANCH   6  20
HETATM   20  O   UNL     1      93.809  14.111  43.453  1.00  0.00    -0.391 OA
ATOM     21  HO  UNL     1      94.016  13.688  42.628  1.00  0.00     0.210 HD
ENDBRANCH   6  20
TORSDOF 5
ENDMDL
MODEL 4
REMARK VINA RESULT:    -5.834      2.463      4.049
REMARK INTER + INTRA:          -7.043
REMARK INTER:                  -6.773
REMARK INTRA:                  -0.270
REMARK UNBOUND:                -0.186
REMARK  5 active torsions:
REMARK  status: ('A' for Active; 'I' for Inactive)
REMARK    1  A    between atoms: C_3  and  C_4 
REMARK    2  A    between atoms: C_4  and  O_14 
REMARK    3  A    between atoms: C_5  and  O_16 
REMARK    4  A    between atoms: C_6  and  O_18 
REMARK    5  A    between atoms: C_7  and  O_20 
ROOT
HETATM    1  C   UNL     1      86.958  11.405  35.273  1.00  0.00     0.157 C 
HETATM    2  C   UNL     1      86.128  12.247  36.255  1.00  0.00     0.178 C 
HETATM    3  C   UNL     1      85.489  13.469  35.615  1.00  0.00     0.073 C 
HETATM    4  C   UNL     1      84.822  13.220  34.250  1.00  0.00     0.158 C 
HETATM    5  C   UNL     1      85.780  12.532  33.319  1.00  0.00     0.178 C 
HETATM    6  C   UNL     1      86.247  11.203  33.935  1.00  0.00     0.175 C 
HETATM    7  N   UNL     1      88.190  12.176  35.195  1.00  0.00    -0.287 N 
ATOM      8  HN  UNL     1      88.774  12.282  34.365  1.00  0.00     0.174 HD
HETATM    9  O   UNL     1      89.380  11.948  37.324  1.00  0.00    -0.176 OA
HETATM   10  S   UNL     1      88.484  12.842  36.651  1.00  0.00     0.358 S 
HETATM   11  O   UNL     1      88.800  14.223  36.580  1.00  0.00    -0.176 OA
HETATM   12  O   UNL     1      87.040  12.708  37.276  1.00  0.00    -0.251 OA
ENDROOT
BRANCH   3  13
HETATM   13  C   UNL     1      84.559  14.107  36.634  1.00  0.00     0.174 C 
BRANCH  13  14
HETATM   14  O   UNL     1      83.196  13.896  36.268  1.00  0.00    -0.400 OA
ATOM     15  HO  UNL     1      82.756  14.726  36.125  1.00  0.00     0.209 HD
ENDBRANCH  13  14
ENDBRANCH   3  13
BRANCH   4  16
HETATM   16  O   UNL     1      84.369  14.442  33.657  1.00  0.00    -0.392 OA
ATOM     17  HO  UNL     1      84.557  14.434  32.726  1.00  0.00     0.210 HD
ENDBRANCH   4  16
BRANCH   5  18
HETATM   18  O   UNL     1      85.141  12.268  32.053  1.00  0.00    -0.390 OA
ATOM     19  HO  UNL     1      84.417  11.668  32.189  1.00  0.00     0.210 HD
ENDBRANCH   5  18
BRANCH   6  20
HETATM   20  O   UNL     1      87.104  10.521  33.023  1.00  0.00    -0.391 OA
ATOM     21  HO  UNL     1      86.706   9.702  32.752  1.00  0.00     0.210 HD
ENDBRANCH   6  20
TORSDOF 5
ENDMDL
MODEL 5
REMARK VINA RESULT:    -5.759      8.305      9.796
REMARK INTER + INTRA:          -6.956
REMARK INTER:                  -6.644
REMARK INTRA:                  -0.312
REMARK UNBOUND:                -0.186
REMARK  5 active torsions:
REMARK  status: ('A' for Active; 'I' for Inactive)
REMARK    1  A    between atoms: C_3  and  C_4 
REMARK    2  A    between atoms: C_4  and  O_14 
REMARK    3  A    between atoms: C_5  and  O_16 
REMARK    4  A    between atoms: C_6  and  O_18 
REMARK    5  A    between atoms: C_7  and  O_20 
ROOT
HETATM    1  C   UNL     1      89.737  13.745  41.951  1.00  0.00     0.157 C 
HETATM    2  C   UNL     1      91.022  12.929  42.168  1.00  0.00     0.178 C 
HETATM    3  C   UNL     1      92.229  13.783  42.520  1.00  0.00     0.073 C 
HETATM    4  C   UNL     1      91.972  14.880  43.569  1.00  0.00     0.158 C 
HETATM    5  C   UNL     1      90.788  15.715  43.172  1.00  0.00     0.178 C 
HETATM    6  C   UNL     1      89.545  14.823  43.018  1.00  0.00     0.175 C 
HETATM    7  N   UNL     1      89.940  14.254  40.602  1.00  0.00    -0.287 N 
ATOM      8  HN  UNL     1      89.633  15.165  40.259  1.00  0.00     0.174 HD
HETATM    9  O   UNL     1      89.729  12.387  39.032  1.00  0.00    -0.176 OA
HETATM   10  S   UNL     1      90.734  13.132  39.732  1.00  0.00     0.358 S 
HETATM   11  O   UNL     1      91.838  13.659  39.014  1.00  0.00    -0.176 OA
HETATM   12  O   UNL     1      91.302  12.259  40.920  1.00  0.00    -0.251 OA
ENDROOT
BRANCH   3  13
HETATM   13  C   UNL     1      93.377  12.856  42.886  1.00  0.00     0.174 C 
BRANCH  13  14
HETATM   14  O   UNL     1      94.110  12.483  41.720  1.00  0.00    -0.400 OA
ATOM     15  HO  UNL     1      93.581  12.606  40.940  1.00  0.00     0.209 HD
ENDBRANCH  13  14
ENDBRANCH   3  13
BRANCH   4  16
HETATM   16  O   UNL     1      93.118  15.721  43.740  1.00  0.00    -0.392 OA
ATOM     17  HO  UNL     1      93.717  15.595  43.014  1.00  0.00     0.210 HD
ENDBRANCH   4  16
BRANCH   5  18
HETATM   18  O   UNL     1      90.527  16.719  44.174  1.00  0.00    -0.390 OA
ATOM     19  HO  UNL     1      90.090  16.314  44.915  1.00  0.00     0.210 HD
ENDBRANCH   5  18
BRANCH   6  20
HETATM   20  O   UNL     1      88.410  15.624  42.704  1.00  0.00    -0.391 OA
ATOM     21  HO  UNL     1      88.676  16.526  42.563  1.00  0.00     0.210 HD
ENDBRANCH   6  20
TORSDOF 5
ENDMDL
MODEL 6
REMARK VINA RESULT:    -5.536      8.850     10.228
REMARK INTER + INTRA:          -6.693
REMARK INTER:                  -6.426
REMARK INTRA:                  -0.268
REMARK UNBOUND:                -0.186
REMARK  5 active torsions:
REMARK  status: ('A' for Active; 'I' for Inactive)
REMARK    1  A    between atoms: C_3  and  C_4 
REMARK    2  A    between atoms: C_4  and  O_14 
REMARK    3  A    between atoms: C_5  and  O_16 
REMARK    4  A    between atoms: C_6  and  O_18 
REMARK    5  A    between atoms: C_7  and  O_20 
ROOT
HETATM    1  C   UNL     1      90.355  14.630  41.886  1.00  0.00     0.157 C 
HETATM    2  C   UNL     1      91.091  13.313  42.177  1.00  0.00     0.178 C 
HETATM    3  C   UNL     1      90.915  12.823  43.604  1.00  0.00     0.073 C 
HETATM    4  C   UNL     1      89.476  12.896  44.149  1.00  0.00     0.158 C 
HETATM    5  C   UNL     1      88.914  14.275  43.953  1.00  0.00     0.178 C 
HETATM    6  C   UNL     1      88.939  14.644  42.460  1.00  0.00     0.175 C 
HETATM    7  N   UNL     1      91.260  15.606  42.476  1.00  0.00    -0.287 N 
ATOM      8  HN  UNL     1      90.981  16.472  42.939  1.00  0.00     0.174 HD
HETATM    9  O   UNL     1      93.273  15.732  41.087  1.00  0.00    -0.176 OA
HETATM   10  S   UNL     1      92.790  15.091  42.275  1.00  0.00     0.358 S 
HETATM   11  O   UNL     1      93.562  15.153  43.463  1.00  0.00    -0.176 OA
HETATM   12  O   UNL     1      92.497  13.570  41.968  1.00  0.00    -0.251 OA
ENDROOT
BRANCH   3  13
HETATM   13  C   UNL     1      91.530  11.437  43.712  1.00  0.00     0.174 C 
BRANCH  13  14
HETATM   14  O   UNL     1      91.958  11.181  45.048  1.00  0.00    -0.400 OA
ATOM     15  HO  UNL     1      92.329  10.309  45.118  1.00  0.00     0.209 HD
ENDBRANCH  13  14
ENDBRANCH   3  13
BRANCH   4  16
HETATM   16  O   UNL     1      89.423  12.547  45.537  1.00  0.00    -0.392 OA
ATOM     17  HO  UNL     1      89.149  13.302  46.045  1.00  0.00     0.210 HD
ENDBRANCH   4  16
BRANCH   5  18
HETATM   18  O   UNL     1      87.554  14.332  44.431  1.00  0.00    -0.390 OA
ATOM     19  HO  UNL     1      87.178  15.173  44.200  1.00  0.00     0.210 HD
ENDBRANCH   5  18
BRANCH   6  20
HETATM   20  O   UNL     1      88.346  15.926  42.268  1.00  0.00    -0.391 OA
ATOM     21  HO  UNL     1      87.459  15.929  42.610  1.00  0.00     0.210 HD
ENDBRANCH   6  20
TORSDOF 5
ENDMDL
MODEL 7
REMARK VINA RESULT:    -5.507      1.683      3.630
REMARK INTER + INTRA:          -6.659
REMARK INTER:                  -6.384
REMARK INTRA:                  -0.274
REMARK UNBOUND:                -0.186
REMARK  5 active torsions:
REMARK  status: ('A' for Active; 'I' for Inactive)
REMARK    1  A    between atoms: C_3  and  C_4 
REMARK    2  A    between atoms: C_4  and  O_14 
REMARK    3  A    between atoms: C_5  and  O_16 
REMARK    4  A    between atoms: C_6  and  O_18 
REMARK    5  A    between atoms: C_7  and  O_20 
ROOT
HETATM    1  C   UNL     1      84.085  14.389  37.252  1.00  0.00     0.157 C 
HETATM    2  C   UNL     1      84.750  13.677  36.063  1.00  0.00     0.178 C 
HETATM    3  C   UNL     1      84.023  13.889  34.746  1.00  0.00     0.073 C 
HETATM    4  C   UNL     1      83.579  15.338  34.469  1.00  0.00     0.158 C 
HETATM    5  C   UNL     1      82.802  15.877  35.635  1.00  0.00     0.178 C 
HETATM    6  C   UNL     1      83.659  15.816  36.911  1.00  0.00     0.175 C 
HETATM    7  N   UNL     1      82.986  13.483  37.557  1.00  0.00    -0.287 N 
ATOM      8  HN  UNL     1      82.064  13.760  37.893  1.00  0.00     0.174 HD
HETATM    9  O   UNL     1      83.918  11.440  38.535  1.00  0.00    -0.176 OA
HETATM   10  S   UNL     1      83.472  11.956  37.274  1.00  0.00     0.358 S 
HETATM   11  O   UNL     1      82.545  11.209  36.503  1.00  0.00    -0.176 OA
HETATM   12  O   UNL     1      84.723  12.263  36.360  1.00  0.00    -0.251 OA
ENDROOT
BRANCH   3  13
HETATM   13  C   UNL     1      84.870  13.295  33.633  1.00  0.00     0.174 C 
BRANCH  13  14
HETATM   14  O   UNL     1      86.227  13.163  34.053  1.00  0.00    -0.400 OA
ATOM     15  HO  UNL     1      86.503  12.254  34.008  1.00  0.00     0.209 HD
ENDBRANCH  13  14
ENDBRANCH   3  13
BRANCH   4  16
HETATM   16  O   UNL     1      82.786  15.425  33.280  1.00  0.00    -0.392 OA
ATOM     17  HO  UNL     1      83.189  14.913  32.589  1.00  0.00     0.210 HD
ENDBRANCH   4  16
BRANCH   5  18
HETATM   18  O   UNL     1      82.418  17.246  35.389  1.00  0.00    -0.390 OA
ATOM     19  HO  UNL     1      81.781  17.513  36.042  1.00  0.00     0.210 HD
ENDBRANCH   5  18
BRANCH   6  20
HETATM   20  O   UNL     1      82.944  16.388  38.003  1.00  0.00    -0.391 OA
ATOM     21  HO  UNL     1      82.392  15.731  38.411  1.00  0.00     0.210 HD
ENDBRANCH   6  20
TORSDOF 5
ENDMDL
MODEL 8
REMARK VINA RESULT:    -5.336      7.733      9.442
REMARK INTER + INTRA:          -6.458
REMARK INTER:                  -6.151
REMARK INTRA:                  -0.307
REMARK UNBOUND:                -0.186
REMARK  5 active torsions:
REMARK  status: ('A' for Active; 'I' for Inactive)
REMARK    1  A    between atoms: C_3  and  C_4 
REMARK    2  A    between atoms: C_4  and  O_14 
REMARK    3  A    between atoms: C_5  and  O_16 
REMARK    4  A    between atoms: C_6  and  O_18 
REMARK    5  A    between atoms: C_7  and  O_20 
ROOT
HETATM    1  C   UNL     1      91.335  12.774  40.165  1.00  0.00     0.157 C 
HETATM    2  C   UNL     1      92.294  12.531  38.989  1.00  0.00     0.178 C 
HETATM    3  C   UNL     1      93.014  13.786  38.525  1.00  0.00     0.073 C 
HETATM    4  C   UNL     1      93.581  14.670  39.650  1.00  0.00     0.158 C 
HETATM    5  C   UNL     1      92.513  14.975  40.662  1.00  0.00     0.178 C 
HETATM    6  C   UNL     1      91.952  13.666  41.242  1.00  0.00     0.175 C 
HETATM    7  N   UNL     1      90.182  13.348  39.488  1.00  0.00    -0.287 N 
ATOM      8  HN  UNL     1      89.568  14.069  39.867  1.00  0.00     0.174 HD
HETATM    9  O   UNL     1      89.090  11.582  38.189  1.00  0.00    -0.176 OA
HETATM   10  S   UNL     1      90.032  12.650  38.025  1.00  0.00     0.358 S 
HETATM   11  O   UNL     1      89.849  13.586  36.975  1.00  0.00    -0.176 OA
HETATM   12  O   UNL     1      91.488  12.052  37.890  1.00  0.00    -0.251 OA
ENDROOT
BRANCH   3  13
HETATM   13  C   UNL     1      94.055  13.383  37.492  1.00  0.00     0.174 C 
BRANCH  13  14
HETATM   14  O   UNL     1      93.456  13.241  36.206  1.00  0.00    -0.400 OA
ATOM     15  HO  UNL     1      93.814  12.486  35.753  1.00  0.00     0.209 HD
ENDBRANCH  13  14
ENDBRANCH   3  13
BRANCH   4  16
HETATM   16  O   UNL     1      94.119  15.894  39.136  1.00  0.00    -0.392 OA
ATOM     17  HO  UNL     1      93.416  16.429  38.787  1.00  0.00     0.210 HD
ENDBRANCH   4  16
BRANCH   5  18
HETATM   18  O   UNL     1      93.055  15.773  41.734  1.00  0.00    -0.390 OA
ATOM     19  HO  UNL     1      93.868  16.172  41.446  1.00  0.00     0.210 HD
ENDBRANCH   5  18
BRANCH   6  20
HETATM   20  O   UNL     1      90.985  13.957  42.248  1.00  0.00    -0.391 OA
ATOM     21  HO  UNL     1      90.570  14.793  42.069  1.00  0.00     0.210 HD
ENDBRANCH   6  20
TORSDOF 5
ENDMDL
MODEL 9
REMARK VINA RESULT:    -5.290      8.805     10.593
REMARK INTER + INTRA:          -6.405
REMARK INTER:                  -6.164
REMARK INTRA:                  -0.240
REMARK UNBOUND:                -0.186
REMARK  5 active torsions:
REMARK  status: ('A' for Active; 'I' for Inactive)
REMARK    1  A    between atoms: C_3  and  C_4 
REMARK    2  A    between atoms: C_4  and  O_14 
REMARK    3  A    between atoms: C_5  and  O_16 
REMARK    4  A    between atoms: C_6  and  O_18 
REMARK    5  A    between atoms: C_7  and  O_20 
ROOT
HETATM    1  C   UNL     1      92.606  13.405  42.341  1.00  0.00     0.157 C 
HETATM    2  C   UNL     1      91.688  14.625  42.515  1.00  0.00     0.178 C 
HETATM    3  C   UNL     1      90.324  14.279  43.089  1.00  0.00     0.073 C 
HETATM    4  C   UNL     1      90.343  13.306  44.282  1.00  0.00     0.158 C 
HETATM    5  C   UNL     1      91.139  12.079  43.941  1.00  0.00     0.178 C 
HETATM    6  C   UNL     1      92.573  12.475  43.553  1.00  0.00     0.175 C 
HETATM    7  N   UNL     1      92.088  12.822  41.112  1.00  0.00    -0.287 N 
ATOM      8  HN  UNL     1      92.042  11.825  40.901  1.00  0.00     0.174 HD
HETATM    9  O   UNL     1      92.690  14.290  39.246  1.00  0.00    -0.176 OA
HETATM   10  S   UNL     1      91.594  14.022  40.131  1.00  0.00     0.358 S 
HETATM   11  O   UNL     1      90.300  13.807  39.591  1.00  0.00    -0.176 OA
HETATM   12  O   UNL     1      91.485  15.182  41.198  1.00  0.00    -0.251 OA
ENDROOT
BRANCH   3  13
HETATM   13  C   UNL     1      89.587  15.576  43.381  1.00  0.00     0.174 C 
BRANCH  13  14
HETATM   14  O   UNL     1      90.497  16.580  43.827  1.00  0.00    -0.400 OA
ATOM     15  HO  UNL     1      90.878  16.337  44.663  1.00  0.00     0.209 HD
ENDBRANCH  13  14
ENDBRANCH   3  13
BRANCH   4  16
HETATM   16  O   UNL     1      89.018  12.927  44.671  1.00  0.00    -0.392 OA
ATOM     17  HO  UNL     1      88.783  13.373  45.477  1.00  0.00     0.210 HD
ENDBRANCH   4  16
BRANCH   5  18
HETATM   18  O   UNL     1      91.186  11.184  45.073  1.00  0.00    -0.390 OA
ATOM     19  HO  UNL     1      92.083  11.117  45.379  1.00  0.00     0.210 HD
ENDBRANCH   5  18
BRANCH   6  20
HETATM   20  O   UNL     1      93.345  11.305  43.293  1.00  0.00    -0.391 OA
ATOM     21  HO  UNL     1      92.772  10.556  43.175  1.00  0.00     0.210 HD
ENDBRANCH   6  20
TORSDOF 5
ENDMDL
MODEL 10
REMARK VINA RESULT:    -5.197      9.622     10.626
REMARK INTER + INTRA:          -6.295
REMARK INTER:                  -6.025
REMARK INTRA:                  -0.270
REMARK UNBOUND:                -0.186
REMARK  5 active torsions:
REMARK  status: ('A' for Active; 'I' for Inactive)
REMARK    1  A    between atoms: C_3  and  C_4 
REMARK    2  A    between atoms: C_4  and  O_14 
REMARK    3  A    between atoms: C_5  and  O_16 
REMARK    4  A    between atoms: C_6  and  O_18 
REMARK    5  A    between atoms: C_7  and  O_20 
ROOT
HETATM    1  C   UNL     1      91.419  15.256  42.053  1.00  0.00     0.157 C 
HETATM    2  C   UNL     1      91.529  13.862  41.415  1.00  0.00     0.178 C 
HETATM    3  C   UNL     1      91.687  12.742  42.431  1.00  0.00     0.073 C 
HETATM    4  C   UNL     1      90.749  12.826  43.650  1.00  0.00     0.158 C 
HETATM    5  C   UNL     1      90.842  14.183  44.287  1.00  0.00     0.178 C 
HETATM    6  C   UNL     1      90.483  15.271  43.261  1.00  0.00     0.175 C 
HETATM    7  N   UNL     1      92.811  15.548  42.359  1.00  0.00    -0.287 N 
ATOM      8  HN  UNL     1      93.145  16.073  43.168  1.00  0.00     0.174 HD
HETATM    9  O   UNL     1      93.997  15.950  40.254  1.00  0.00    -0.176 OA
HETATM   10  S   UNL     1      93.750  14.900  41.198  1.00  0.00     0.358 S 
HETATM   11  O   UNL     1      94.841  14.154  41.714  1.00  0.00    -0.176 OA
HETATM   12  O   UNL     1      92.712  13.878  40.588  1.00  0.00    -0.251 OA
ENDROOT
BRANCH   3  13
HETATM   13  C   UNL     1      91.601  11.415  41.695  1.00  0.00     0.174 C 
BRANCH  13  14
HETATM   14  O   UNL     1      91.027  11.597  40.401  1.00  0.00    -0.400 OA
ATOM     15  HO  UNL     1      90.585  12.436  40.348  1.00  0.00     0.209 HD
ENDBRANCH  13  14
ENDBRANCH   3  13
BRANCH   4  16
HETATM   16  O   UNL     1      91.056  11.818  44.618  1.00  0.00    -0.392 OA
ATOM     17  HO  UNL     1      90.267  11.340  44.842  1.00  0.00     0.210 HD
ENDBRANCH   4  16
BRANCH   5  18
HETATM   18  O   UNL     1      89.936  14.272  45.406  1.00  0.00    -0.390 OA
ATOM     19  HO  UNL     1      89.288  13.580  45.338  1.00  0.00     0.210 HD
ENDBRANCH   5  18
BRANCH   6  20
HETATM   20  O   UNL     1      90.508  16.552  43.884  1.00  0.00    -0.391 OA
ATOM     21  HO  UNL     1      89.850  16.595  44.568  1.00  0.00     0.210 HD
ENDBRANCH   6  20
TORSDOF 5
ENDMDL
MODEL 11
REMARK VINA RESULT:    -5.096      9.194     10.905
REMARK INTER + INTRA:          -6.176
REMARK INTER:                  -5.865
REMARK INTRA:                  -0.311
REMARK UNBOUND:                -0.186
REMARK  5 active torsions:
REMARK  status: ('A' for Active; 'I' for Inactive)
REMARK    1  A    between atoms: C_3  and  C_4 
REMARK    2  A    between atoms: C_4  and  O_14 
REMARK    3  A    between atoms: C_5  and  O_16 
REMARK    4  A    between atoms: C_6  and  O_18 
REMARK    5  A    between atoms: C_7  and  O_20 
ROOT
HETATM    1  C   UNL     1      91.326  14.020  43.976  1.00  0.00     0.157 C 
HETATM    2  C   UNL     1      91.005  13.516  42.560  1.00  0.00     0.178 C 
HETATM    3  C   UNL     1      91.531  14.422  41.460  1.00  0.00     0.073 C 
HETATM    4  C   UNL     1      92.974  14.923  41.658  1.00  0.00     0.158 C 
HETATM    5  C   UNL     1      93.130  15.539  43.019  1.00  0.00     0.178 C 
HETATM    6  C   UNL     1      92.767  14.511  44.105  1.00  0.00     0.175 C 
HETATM    7  N   UNL     1      90.314  15.051  44.155  1.00  0.00    -0.287 N 
ATOM      8  HN  UNL     1      90.438  15.922  44.672  1.00  0.00     0.174 HD
HETATM    9  O   UNL     1      88.134  13.960  44.395  1.00  0.00    -0.176 OA
HETATM   10  S   UNL     1      88.952  14.585  43.397  1.00  0.00     0.358 S 
HETATM   11  O   UNL     1      88.396  15.599  42.574  1.00  0.00    -0.176 OA
HETATM   12  O   UNL     1      89.565  13.479  42.451  1.00  0.00    -0.251 OA
ENDROOT
BRANCH   3  13
HETATM   13  C   UNL     1      91.312  13.728  40.125  1.00  0.00     0.174 C 
BRANCH  13  14
HETATM   14  O   UNL     1      90.035  14.068  39.588  1.00  0.00    -0.400 OA
ATOM     15  HO  UNL     1      89.518  14.541  40.231  1.00  0.00     0.209 HD
ENDBRANCH  13  14
ENDBRANCH   3  13
BRANCH   4  16
HETATM   16  O   UNL     1      93.341  15.875  40.654  1.00  0.00    -0.392 OA
ATOM     17  HO  UNL     1      93.563  15.421  39.850  1.00  0.00     0.210 HD
ENDBRANCH   4  16
BRANCH   5  18
HETATM   18  O   UNL     1      94.491  15.974  43.217  1.00  0.00    -0.390 OA
ATOM     19  HO  UNL     1      94.785  15.697  44.077  1.00  0.00     0.210 HD
ENDBRANCH   5  18
BRANCH   6  20
HETATM   20  O   UNL     1      92.978  15.076  45.396  1.00  0.00    -0.391 OA
ATOM     21  HO  UNL     1      93.511  14.494  45.924  1.00  0.00     0.210 HD
ENDBRANCH   6  20
TORSDOF 5
ENDMDL
MODEL 12
REMARK VINA RESULT:    -5.078      9.967     11.177
REMARK INTER + INTRA:          -6.156
REMARK INTER:                  -5.886
REMARK INTRA:                  -0.269
REMARK UNBOUND:                -0.186
REMARK  5 active torsions:
REMARK  status: ('A' for Active; 'I' for Inactive)
REMARK    1  A    between atoms: C_3  and  C_4 
REMARK    2  A    between atoms: C_4  and  O_14 
REMARK    3  A    between atoms: C_5  and  O_16 
REMARK    4  A    between atoms: C_6  and  O_18 
REMARK    5  A    between atoms: C_7  and  O_20 
ROOT
HETATM    1  C   UNL     1      92.200  14.440  41.758  1.00  0.00     0.157 C 
HETATM    2  C   UNL     1      93.110  14.255  42.982  1.00  0.00     0.178 C 
HETATM    3  C   UNL     1      92.765  15.179  44.139  1.00  0.00     0.073 C 
HETATM    4  C   UNL     1      91.263  15.294  44.459  1.00  0.00     0.158 C 
HETATM    5  C   UNL     1      90.490  15.632  43.217  1.00  0.00     0.178 C 
HETATM    6  C   UNL     1      90.725  14.557  42.143  1.00  0.00     0.175 C 
HETATM    7  N   UNL     1      92.766  15.635  41.150  1.00  0.00    -0.287 N 
ATOM      8  HN  UNL     1      92.240  16.360  40.661  1.00  0.00     0.174 HD
HETATM    9  O   UNL     1      94.943  15.054  40.188  1.00  0.00    -0.176 OA
HETATM   10  S   UNL     1      94.378  15.624  41.376  1.00  0.00     0.358 S 
HETATM   11  O   UNL     1      94.882  16.856  41.866  1.00  0.00    -0.176 OA
HETATM   12  O   UNL     1      94.452  14.570  42.550  1.00  0.00    -0.251 OA
ENDROOT
BRANCH   3  13
HETATM   13  C   UNL     1      93.608  14.776  45.338  1.00  0.00     0.174 C 
BRANCH  13  14
HETATM   14  O   UNL     1      92.821  14.054  46.283  1.00  0.00    -0.400 OA
ATOM     15  HO  UNL     1      93.324  13.878  47.070  1.00  0.00     0.209 HD
ENDBRANCH  13  14
ENDBRANCH   3  13
BRANCH   4  16
HETATM   16  O   UNL     1      91.016  16.283  45.464  1.00  0.00    -0.392 OA
ATOM     17  HO  UNL     1      90.147  16.648  45.345  1.00  0.00     0.210 HD
ENDBRANCH   4  16
BRANCH   5  18
HETATM   18  O   UNL     1      89.079  15.704  43.512  1.00  0.00    -0.390 OA
ATOM     19  HO  UNL     1      88.699  16.434  43.037  1.00  0.00     0.210 HD
ENDBRANCH   5  18
BRANCH   6  20
HETATM   20  O   UNL     1      89.940  14.845  40.989  1.00  0.00    -0.391 OA
ATOM     21  HO  UNL     1      90.483  15.237  40.314  1.00  0.00     0.210 HD
ENDBRANCH   6  20
TORSDOF 5
ENDMDL
MODEL 13
REMARK VINA RESULT:    -5.048      8.353      9.730
REMARK INTER + INTRA:          -6.120
REMARK INTER:                  -5.849
REMARK INTRA:                  -0.270
REMARK UNBOUND:                -0.186
REMARK  5 active torsions:
REMARK  status: ('A' for Active; 'I' for Inactive)
REMARK    1  A    between atoms: C_3  and  C_4 
REMARK    2  A    between atoms: C_4  and  O_14 
REMARK    3  A    between atoms: C_5  and  O_16 
REMARK    4  A    between atoms: C_6  and  O_18 
REMARK    5  A    between atoms: C_7  and  O_20 
ROOT
HETATM    1  C   UNL     1      91.855  14.534  40.684  1.00  0.00     0.157 C 
HETATM    2  C   UNL     1      90.396  14.264  41.083  1.00  0.00     0.178 C 
HETATM    3  C   UNL     1      90.220  13.952  42.560  1.00  0.00     0.073 C 
HETATM    4  C   UNL     1      90.995  14.872  43.521  1.00  0.00     0.158 C 
HETATM    5  C   UNL     1      92.443  14.936  43.127  1.00  0.00     0.178 C 
HETATM    6  C   UNL     1      92.572  15.444  41.681  1.00  0.00     0.175 C 
HETATM    7  N   UNL     1      92.390  13.183  40.601  1.00  0.00    -0.287 N 
ATOM      8  HN  UNL     1      93.340  12.903  40.849  1.00  0.00     0.174 HD
HETATM    9  O   UNL     1      91.429  12.091  38.630  1.00  0.00    -0.176 OA
HETATM   10  S   UNL     1      91.225  12.191  40.046  1.00  0.00     0.358 S 
HETATM   11  O   UNL     1      91.085  11.008  40.816  1.00  0.00    -0.176 OA
HETATM   12  O   UNL     1      89.970  13.106  40.332  1.00  0.00    -0.251 OA
ENDROOT
BRANCH   3  13
HETATM   13  C   UNL     1      88.730  13.886  42.858  1.00  0.00     0.174 C 
BRANCH  13  14
HETATM   14  O   UNL     1      88.316  15.037  43.593  1.00  0.00    -0.400 OA
ATOM     15  HO  UNL     1      87.487  14.874  44.028  1.00  0.00     0.209 HD
ENDBRANCH  13  14
ENDBRANCH   3  13
BRANCH   4  16
HETATM   16  O   UNL     1      90.884  14.427  44.877  1.00  0.00    -0.392 OA
ATOM     17  HO  UNL     1      91.746  14.210  45.213  1.00  0.00     0.210 HD
ENDBRANCH   4  16
BRANCH   5  18
HETATM   18  O   UNL     1      93.160  15.827  44.006  1.00  0.00    -0.390 OA
ATOM     19  HO  UNL     1      93.891  16.209  43.534  1.00  0.00     0.210 HD
ENDBRANCH   5  18
BRANCH   6  20
HETATM   20  O   UNL     1      93.948  15.565  41.331  1.00  0.00    -0.391 OA
ATOM     21  HO  UNL     1      94.431  14.808  41.642  1.00  0.00     0.210 HD
ENDBRANCH   6  20
TORSDOF 5
ENDMDL
MODEL 14
REMARK VINA RESULT:    -5.038      9.144     10.819
REMARK INTER + INTRA:          -6.108
REMARK INTER:                  -5.883
REMARK INTRA:                  -0.225
REMARK UNBOUND:                -0.186
REMARK  5 active torsions:
REMARK  status: ('A' for Active; 'I' for Inactive)
REMARK    1  A    between atoms: C_3  and  C_4 
REMARK    2  A    between atoms: C_4  and  O_14 
REMARK    3  A    between atoms: C_5  and  O_16 
REMARK    4  A    between atoms: C_6  and  O_18 
REMARK    5  A    between atoms: C_7  and  O_20 
ROOT
HETATM    1  C   UNL     1      92.817  14.359  42.501  1.00  0.00     0.157 C 
HETATM    2  C   UNL     1      92.425  13.477  41.305  1.00  0.00     0.178 C 
HETATM    3  C   UNL     1      92.524  14.191  39.967  1.00  0.00     0.073 C 
HETATM    4  C   UNL     1      93.801  15.027  39.764  1.00  0.00     0.158 C 
HETATM    5  C   UNL     1      93.998  15.966  40.920  1.00  0.00     0.178 C 
HETATM    6  C   UNL     1      94.084  15.170  42.233  1.00  0.00     0.175 C 
HETATM    7  N   UNL     1      91.612  15.156  42.684  1.00  0.00    -0.287 N 
ATOM      8  HN  UNL     1      91.584  16.130  42.987  1.00  0.00     0.174 HD
HETATM    9  O   UNL     1      89.852  13.702  43.571  1.00  0.00    -0.176 OA
HETATM   10  S   UNL     1      90.318  14.238  42.325  1.00  0.00     0.358 S 
HETATM   11  O   UNL     1      89.399  14.881  41.456  1.00  0.00    -0.176 OA
HETATM   12  O   UNL     1      91.044  13.101  41.504  1.00  0.00    -0.251 OA
ENDROOT
BRANCH   3  13
HETATM   13  C   UNL     1      92.290  13.171  38.864  1.00  0.00     0.174 C 
BRANCH  13  14
HETATM   14  O   UNL     1      92.109  13.823  37.609  1.00  0.00    -0.400 OA
ATOM     15  HO  UNL     1      91.449  14.503  37.678  1.00  0.00     0.209 HD
ENDBRANCH  13  14
ENDBRANCH   3  13
BRANCH   4  16
HETATM   16  O   UNL     1      93.751  15.772  38.543  1.00  0.00    -0.392 OA
ATOM     17  HO  UNL     1      93.695  16.700  38.737  1.00  0.00     0.210 HD
ENDBRANCH   4  16
BRANCH   5  18
HETATM   18  O   UNL     1      95.214  16.723  40.746  1.00  0.00    -0.390 OA
ATOM     19  HO  UNL     1      95.073  17.391  40.085  1.00  0.00     0.210 HD
ENDBRANCH   5  18
BRANCH   6  20
HETATM   20  O   UNL     1      94.336  16.056  43.321  1.00  0.00    -0.391 OA
ATOM     21  HO  UNL     1      93.862  16.870  43.195  1.00  0.00     0.210 HD
ENDBRANCH   6  20
TORSDOF 5
ENDMDL
MODEL 15
REMARK VINA RESULT:    -5.000      9.468     10.594
REMARK INTER + INTRA:          -6.064
REMARK INTER:                  -5.768
REMARK INTRA:                  -0.296
REMARK UNBOUND:                -0.186
REMARK  5 active torsions:
REMARK  status: ('A' for Active; 'I' for Inactive)
REMARK    1  A    between atoms: C_3  and  C_4 
REMARK    2  A    between atoms: C_4  and  O_14 
REMARK    3  A    between atoms: C_5  and  O_16 
REMARK    4  A    between atoms: C_6  and  O_18 
REMARK    5  A    between atoms: C_7  and  O_20 
ROOT
HETATM    1  C   UNL     1      92.434  14.843  41.962  1.00  0.00     0.157 C 
HETATM    2  C   UNL     1      92.219  13.814  43.083  1.00  0.00     0.178 C 
HETATM    3  C   UNL     1      91.605  12.511  42.599  1.00  0.00     0.073 C 
HETATM    4  C   UNL     1      92.213  11.941  41.305  1.00  0.00     0.158 C 
HETATM    5  C   UNL     1      92.228  12.990  40.230  1.00  0.00     0.178 C 
HETATM    6  C   UNL     1      93.030  14.214  40.702  1.00  0.00     0.175 C 
HETATM    7  N   UNL     1      91.092  15.380  41.796  1.00  0.00    -0.287 N 
ATOM      8  HN  UNL     1      90.677  15.683  40.914  1.00  0.00     0.174 HD
HETATM    9  O   UNL     1      90.558  16.745  43.759  1.00  0.00    -0.176 OA
HETATM   10  S   UNL     1      90.360  15.419  43.249  1.00  0.00     0.358 S 
HETATM   11  O   UNL     1      89.054  14.867  43.233  1.00  0.00    -0.176 OA
HETATM   12  O   UNL     1      91.300  14.414  44.023  1.00  0.00    -0.251 OA
ENDROOT
BRANCH   3  13
HETATM   13  C   UNL     1      91.612  11.523  43.755  1.00  0.00     0.174 C 
BRANCH  13  14
HETATM   14  O   UNL     1      90.554  11.811  44.667  1.00  0.00    -0.400 OA
ATOM     15  HO  UNL     1      90.445  12.750  44.765  1.00  0.00     0.209 HD
ENDBRANCH  13  14
ENDBRANCH   3  13
BRANCH   4  16
HETATM   16  O   UNL     1      91.490  10.793  40.846  1.00  0.00    -0.392 OA
ATOM     17  HO  UNL     1      90.603  11.046  40.616  1.00  0.00     0.210 HD
ENDBRANCH   4  16
BRANCH   5  18
HETATM   18  O   UNL     1      92.831  12.465  39.029  1.00  0.00    -0.390 OA
ATOM     19  HO  UNL     1      92.641  11.536  38.965  1.00  0.00     0.210 HD
ENDBRANCH   5  18
BRANCH   6  20
HETATM   20  O   UNL     1      93.098  15.181  39.658  1.00  0.00    -0.391 OA
ATOM     21  HO  UNL     1      92.666  14.850  38.879  1.00  0.00     0.210 HD
ENDBRANCH   6  20
TORSDOF 5
ENDMDL
MODEL 16
REMARK VINA RESULT:    -5.000      8.901     10.633
REMARK INTER + INTRA:          -6.063
REMARK INTER:                  -5.754
REMARK INTRA:                  -0.310
REMARK UNBOUND:                -0.186
REMARK  5 active torsions:
REMARK  status: ('A' for Active; 'I' for Inactive)
REMARK    1  A    between atoms: C_3  and  C_4 
REMARK    2  A    between atoms: C_4  and  O_14 
REMARK    3  A    between atoms: C_5  and  O_16 
REMARK    4  A    between atoms: C_6  and  O_18 
REMARK    5  A    between atoms: C_7  and  O_20 
ROOT
HETATM    1  C   UNL     1      91.722  12.351  43.300  1.00  0.00     0.157 C 
HETATM    2  C   UNL     1      90.476  13.226  43.510  1.00  0.00     0.178 C 
HETATM    3  C   UNL     1      90.113  14.064  42.296  1.00  0.00     0.073 C 
HETATM    4  C   UNL     1      90.165  13.322  40.947  1.00  0.00     0.158 C 
HETATM    5  C   UNL     1      91.489  12.634  40.782  1.00  0.00     0.178 C 
HETATM    6  C   UNL     1      91.718  11.650  41.941  1.00  0.00     0.175 C 
HETATM    7  N   UNL     1      92.793  13.320  43.481  1.00  0.00    -0.287 N 
ATOM      8  HN  UNL     1      93.683  13.323  42.981  1.00  0.00     0.174 HD
HETATM    9  O   UNL     1      92.890  13.930  45.851  1.00  0.00    -0.176 OA
HETATM   10  S   UNL     1      92.339  14.397  44.612  1.00  0.00     0.358 S 
HETATM   11  O   UNL     1      92.550  15.744  44.219  1.00  0.00    -0.176 OA
HETATM   12  O   UNL     1      90.783  14.128  44.595  1.00  0.00    -0.251 OA
ENDROOT
BRANCH   3  13
HETATM   13  C   UNL     1      88.776  14.736  42.563  1.00  0.00     0.174 C 
BRANCH  13  14
HETATM   14  O   UNL     1      88.960  15.936  43.313  1.00  0.00    -0.400 OA
ATOM     15  HO  UNL     1      89.705  16.425  42.982  1.00  0.00     0.209 HD
ENDBRANCH  13  14
ENDBRANCH   3  13
BRANCH   4  16
HETATM   16  O   UNL     1      89.945  14.214  39.849  1.00  0.00    -0.392 OA
ATOM     17  HO  UNL     1      89.219  13.900  39.324  1.00  0.00     0.210 HD
ENDBRANCH   4  16
BRANCH   5  18
HETATM   18  O   UNL     1      91.522  11.909  39.534  1.00  0.00    -0.390 OA
ATOM     19  HO  UNL     1      90.956  12.344  38.907  1.00  0.00     0.210 HD
ENDBRANCH   5  18
BRANCH   6  20
HETATM   20  O   UNL     1      92.945  10.951  41.748  1.00  0.00    -0.391 OA
ATOM     21  HO  UNL     1      93.203  10.517  42.554  1.00  0.00     0.210 HD
ENDBRANCH   6  20
TORSDOF 5
ENDMDL
MODEL 17
REMARK VINA RESULT:    -4.952      2.613      4.831
REMARK INTER + INTRA:          -6.006
REMARK INTER:                  -5.775
REMARK INTRA:                  -0.231
REMARK UNBOUND:                -0.186
REMARK  5 active torsions:
REMARK  status: ('A' for Active; 'I' for Inactive)
REMARK    1  A    between atoms: C_3  and  C_4 
REMARK    2  A    between atoms: C_4  and  O_14 
REMARK    3  A    between atoms: C_5  and  O_16 
REMARK    4  A    between atoms: C_6  and  O_18 
REMARK    5  A    between atoms: C_7  and  O_20 
ROOT
HETATM    1  C   UNL     1      84.779  13.500  34.507  1.00  0.00     0.157 C 
HETATM    2  C   UNL     1      85.791  14.060  35.519  1.00  0.00     0.178 C 
HETATM    3  C   UNL     1      86.802  13.031  35.997  1.00  0.00     0.073 C 
HETATM    4  C   UNL     1      87.412  12.149  34.892  1.00  0.00     0.158 C 
HETATM    5  C   UNL     1      86.324  11.527  34.063  1.00  0.00     0.178 C 
HETATM    6  C   UNL     1      85.444  12.626  33.444  1.00  0.00     0.175 C 
HETATM    7  N   UNL     1      83.852  12.796  35.380  1.00  0.00    -0.287 N 
ATOM      8  HN  UNL     1      83.362  11.930  35.152  1.00  0.00     0.174 HD
HETATM    9  O   UNL     1      82.569  14.456  36.644  1.00  0.00    -0.176 OA
HETATM   10  S   UNL     1      83.724  13.617  36.779  1.00  0.00     0.358 S 
HETATM   11  O   UNL     1      83.856  12.791  37.925  1.00  0.00    -0.176 OA
HETATM   12  O   UNL     1      85.030  14.498  36.666  1.00  0.00    -0.251 OA
ENDROOT
BRANCH   3  13
HETATM   13  C   UNL     1      87.845  13.745  36.842  1.00  0.00     0.174 C 
BRANCH  13  14
HETATM   14  O   UNL     1      89.153  13.524  36.316  1.00  0.00    -0.400 OA
ATOM     15  HO  UNL     1      89.714  14.270  36.492  1.00  0.00     0.209 HD
ENDBRANCH  13  14
ENDBRANCH   3  13
BRANCH   4  16
HETATM   16  O   UNL     1      88.244  11.121  35.441  1.00  0.00    -0.392 OA
ATOM     17  HO  UNL     1      88.560  10.560  34.743  1.00  0.00     0.210 HD
ENDBRANCH   4  16
BRANCH   5  18
HETATM   18  O   UNL     1      86.898  10.730  33.006  1.00  0.00    -0.390 OA
ATOM     19  HO  UNL     1      86.527   9.855  33.040  1.00  0.00     0.210 HD
ENDBRANCH   5  18
BRANCH   6  20
HETATM   20  O   UNL     1      84.453  12.037  32.605  1.00  0.00    -0.391 OA
ATOM     21  HO  UNL     1      83.947  12.716  32.173  1.00  0.00     0.210 HD
ENDBRANCH   6  20
TORSDOF 5
ENDMDL
MODEL 18
REMARK VINA RESULT:    -4.912     10.290     10.861
REMARK INTER + INTRA:          -5.960
REMARK INTER:                  -5.738
REMARK INTRA:                  -0.221
REMARK UNBOUND:                -0.186
REMARK  5 active torsions:
REMARK  status: ('A' for Active; 'I' for Inactive)
REMARK    1  A    between atoms: C_3  and  C_4 
REMARK    2  A    between atoms: C_4  and  O_14 
REMARK    3  A    between atoms: C_5  and  O_16 
REMARK    4  A    between atoms: C_6  and  O_18 
REMARK    5  A    between atoms: C_7  and  O_20 
ROOT
HETATM    1  C   UNL     1      92.056  13.694  41.917  1.00  0.00     0.157 C 
HETATM    2  C   UNL     1      91.450  12.528  42.714  1.00  0.00     0.178 C 
HETATM    3  C   UNL     1      91.179  12.867  44.171  1.00  0.00     0.073 C 
HETATM    4  C   UNL     1      90.513  14.234  44.414  1.00  0.00     0.158 C 
HETATM    5  C   UNL     1      91.282  15.319  43.716  1.00  0.00     0.178 C 
HETATM    6  C   UNL     1      91.359  15.023  42.209  1.00  0.00     0.175 C 
HETATM    7  N   UNL     1      93.451  13.636  42.330  1.00  0.00    -0.287 N 
ATOM      8  HN  UNL     1      94.068  14.439  42.455  1.00  0.00     0.174 HD
HETATM    9  O   UNL     1      94.468  11.643  41.334  1.00  0.00    -0.176 OA
HETATM   10  S   UNL     1      93.864  12.079  42.559  1.00  0.00     0.358 S 
HETATM   11  O   UNL     1      94.539  11.854  43.787  1.00  0.00    -0.176 OA
HETATM   12  O   UNL     1      92.418  11.457  42.681  1.00  0.00    -0.251 OA
ENDROOT
BRANCH   3  13
HETATM   13  C   UNL     1      90.420  11.707  44.796  1.00  0.00     0.174 C 
BRANCH  13  14
HETATM   14  O   UNL     1      89.204  12.165  45.386  1.00  0.00    -0.400 OA
ATOM     15  HO  UNL     1      88.935  11.584  46.088  1.00  0.00     0.209 HD
ENDBRANCH  13  14
ENDBRANCH   3  13
BRANCH   4  16
HETATM   16  O   UNL     1      90.421  14.532  45.811  1.00  0.00    -0.392 OA
ATOM     17  HO  UNL     1      91.232  14.928  46.107  1.00  0.00     0.210 HD
ENDBRANCH   4  16
BRANCH   5  18
HETATM   18  O   UNL     1      90.637  16.594  43.914  1.00  0.00    -0.390 OA
ATOM     19  HO  UNL     1      91.253  17.290  43.712  1.00  0.00     0.210 HD
ENDBRANCH   5  18
BRANCH   6  20
HETATM   20  O   UNL     1      92.033  16.086  41.540  1.00  0.00    -0.391 OA
ATOM     21  HO  UNL     1      91.640  16.236  40.688  1.00  0.00     0.210 HD
ENDBRANCH   6  20
TORSDOF 5
ENDMDL
MODEL 19
REMARK VINA RESULT:    -4.877      9.475     10.918
REMARK INTER + INTRA:          -5.919
REMARK INTER:                  -5.651
REMARK INTRA:                  -0.268
REMARK UNBOUND:                -0.186
REMARK  5 active torsions:
REMARK  status: ('A' for Active; 'I' for Inactive)
REMARK    1  A    between atoms: C_3  and  C_4 
REMARK    2  A    between atoms: C_4  and  O_14 
REMARK    3  A    between atoms: C_5  and  O_16 
REMARK    4  A    between atoms: C_6  and  O_18 
REMARK    5  A    between atoms: C_7  and  O_20 
ROOT
HETATM    1  C   UNL     1      92.624  13.679  43.833  1.00  0.00     0.157 C 
HETATM    2  C   UNL     1      92.013  13.112  42.542  1.00  0.00     0.178 C 
HETATM    3  C   UNL     1      90.573  13.541  42.314  1.00  0.00     0.073 C 
HETATM    4  C   UNL     1      90.286  15.033  42.566  1.00  0.00     0.158 C 
HETATM    5  C   UNL     1      90.787  15.438  43.923  1.00  0.00     0.178 C 
HETATM    6  C   UNL     1      92.296  15.158  44.031  1.00  0.00     0.175 C 
HETATM    7  N   UNL     1      92.058  12.791  44.838  1.00  0.00    -0.287 N 
ATOM      8  HN  UNL     1      91.789  13.060  45.785  1.00  0.00     0.174 HD
HETATM    9  O   UNL     1      93.105  10.590  44.603  1.00  0.00    -0.176 OA
HETATM   10  S   UNL     1      91.925  11.299  44.204  1.00  0.00     0.358 S 
HETATM   11  O   UNL     1      90.652  10.711  44.420  1.00  0.00    -0.176 OA
HETATM   12  O   UNL     1      92.030  11.674  42.673  1.00  0.00    -0.251 OA
ENDROOT
BRANCH   3  13
HETATM   13  C   UNL     1      90.149  13.072  40.931  1.00  0.00     0.174 C 
BRANCH  13  14
HETATM   14  O   UNL     1      90.147  14.162  40.011  1.00  0.00    -0.400 OA
ATOM     15  HO  UNL     1      89.439  14.763  40.208  1.00  0.00     0.209 HD
ENDBRANCH  13  14
ENDBRANCH   3  13
BRANCH   4  16
HETATM   16  O   UNL     1      88.888  15.324  42.463  1.00  0.00    -0.392 OA
ATOM     17  HO  UNL     1      88.764  16.260  42.363  1.00  0.00     0.210 HD
ENDBRANCH   4  16
BRANCH   5  18
HETATM   18  O   UNL     1      90.550  16.844  44.143  1.00  0.00    -0.390 OA
ATOM     19  HO  UNL     1      90.974  17.108  44.952  1.00  0.00     0.210 HD
ENDBRANCH   5  18
BRANCH   6  20
HETATM   20  O   UNL     1      92.781  15.603  45.294  1.00  0.00    -0.391 OA
ATOM     21  HO  UNL     1      92.055  15.859  45.851  1.00  0.00     0.210 HD
ENDBRANCH   6  20
TORSDOF 5
ENDMDL
MODEL 20
REMARK VINA RESULT:    -4.810      9.573     11.085
REMARK INTER + INTRA:          -5.840
REMARK INTER:                  -5.576
REMARK INTRA:                  -0.264
REMARK UNBOUND:                -0.186
REMARK  5 active torsions:
REMARK  status: ('A' for Active; 'I' for Inactive)
REMARK    1  A    between atoms: C_3  and  C_4 
REMARK    2  A    between atoms: C_4  and  O_14 
REMARK    3  A    between atoms: C_5  and  O_16 
REMARK    4  A    between atoms: C_6  and  O_18 
REMARK    5  A    between atoms: C_7  and  O_20 
ROOT
HETATM    1  C   UNL     1      92.867  14.956  43.440  1.00  0.00     0.157 C 
HETATM    2  C   UNL     1      91.716  15.085  42.430  1.00  0.00     0.178 C 
HETATM    3  C   UNL     1      90.419  14.452  42.906  1.00  0.00     0.073 C 
HETATM    4  C   UNL     1      90.038  14.760  44.366  1.00  0.00     0.158 C 
HETATM    5  C   UNL     1      91.187  14.447  45.282  1.00  0.00     0.178 C 
HETATM    6  C   UNL     1      92.423  15.264  44.870  1.00  0.00     0.175 C 
HETATM    7  N   UNL     1      93.298  13.583  43.219  1.00  0.00    -0.287 N 
ATOM      8  HN  UNL     1      93.650  12.948  43.936  1.00  0.00     0.174 HD
HETATM    9  O   UNL     1      94.406  13.462  41.038  1.00  0.00    -0.176 OA
HETATM   10  S   UNL     1      93.126  13.228  41.640  1.00  0.00     0.358 S 
HETATM   11  O   UNL     1      92.465  11.994  41.414  1.00  0.00    -0.176 OA
HETATM   12  O   UNL     1      92.135  14.389  41.235  1.00  0.00    -0.251 OA
ENDROOT
BRANCH   3  13
HETATM   13  C   UNL     1      89.325  14.803  41.911  1.00  0.00     0.174 C 
BRANCH  13  14
HETATM   14  O   UNL     1      88.360  15.665  42.511  1.00  0.00    -0.400 OA
ATOM     15  HO  UNL     1      87.636  15.823  41.915  1.00  0.00     0.209 HD
ENDBRANCH  13  14
ENDBRANCH   3  13
BRANCH   4  16
HETATM   16  O   UNL     1      88.883  14.019  44.774  1.00  0.00    -0.392 OA
ATOM     17  HO  UNL     1      88.486  13.604  44.017  1.00  0.00     0.210 HD
ENDBRANCH   4  16
BRANCH   5  18
HETATM   18  O   UNL     1      90.841  14.770  46.645  1.00  0.00    -0.390 OA
ATOM     19  HO  UNL     1      91.142  15.649  46.843  1.00  0.00     0.210 HD
ENDBRANCH   5  18
BRANCH   6  20
HETATM   20  O   UNL     1      93.493  15.015  45.778  1.00  0.00    -0.391 OA
ATOM     21  HO  UNL     1      94.016  15.801  45.890  1.00  0.00     0.210 HD
ENDBRANCH   6  20
TORSDOF 5
ENDMDL
