REMARK  9 active torsions:
REMARK  status: ('A' for Active; 'I' for Inactive)
REMARK    1  A    between atoms: O_1  and  P_2 
REMARK    2  A    between atoms: P_2  and  O_4 
REMARK    3  A    between atoms: P_2  and  O_5 
REMARK    4  A    between atoms: O_5  and  C_6 
REMARK    5  A    between atoms: C_6  and  C_7 
REMARK    6  A    between atoms: C_9  and  O_10 
REMARK    7  A    between atoms: C_11  and  O_12 
REMARK    8  A    between atoms: C_13  and  N_14 
REMARK    9  A    between atoms: C_18  and  N_22 
ROOT
HETATM    1  C   UNL     1      -1.826  -1.633   1.085  1.00  0.00     0.180 C 
HETATM    2  O   UNL     1      -1.835  -0.627   0.089  1.00  0.00    -0.353 OA
HETATM    3  C   UNL     1      -1.010  -2.844   0.596  1.00  0.00     0.182 C 
HETATM    4  C   UNL     1      -0.314  -2.299  -0.630  1.00  0.00     0.198 C 
HETATM    5  C   UNL     1      -1.235  -1.167  -1.068  1.00  0.00     0.263 C 
ENDROOT
BRANCH   5   6
HETATM    6  N   UNL     1      -0.481  -0.130  -1.804  1.00  0.00    -0.280 N 
HETATM    7  C   UNL     1      -0.401  -0.161  -3.175  1.00  0.00     0.330 A 
HETATM    8  N   UNL     1       0.322   0.777  -3.841  1.00  0.00    -0.295 N 
HETATM    9  O   UNL     1      -0.989  -1.059  -3.837  1.00  0.00    -0.246 OA
HETATM   10  C   UNL     1       0.990   1.757  -3.183  1.00  0.00     0.103 A 
ATOM     11  HN  UNL     1       0.363   0.743  -4.860  1.00  0.00     0.172 HD
HETATM   12  C   UNL     1       0.945   1.802  -1.791  1.00  0.00     0.065 A 
HETATM   13  C   UNL     1       0.203   0.836  -1.115  1.00  0.00     0.102 A 
BRANCH  10  14
HETATM   14  N   UNL     1       1.737   2.726  -3.918  1.00  0.00    -0.385 N 
HETATM   15  H   UNL     1       1.769   2.685  -4.960  1.00  0.00     0.157 HD
HETATM   16  H   UNL     1       2.260   3.486  -3.428  1.00  0.00     0.157 HD
ENDBRANCH  10  14
ENDBRANCH   5   6
BRANCH   4  17
HETATM   17  O   UNL     1      -0.097  -3.267  -1.631  1.00  0.00    -0.388 OA
HETATM   18  H   UNL     1      -0.973  -3.524  -2.020  1.00  0.00     0.210 HD
ENDBRANCH   4  17
BRANCH   1  19
HETATM   19  C   UNL     1      -1.266  -1.050   2.389  1.00  0.00     0.215 C 
BRANCH  19  20
HETATM   20  O   UNL     1       0.058  -0.612   2.185  1.00  0.00    -0.294 OA
BRANCH  20  21
HETATM   21  P   UNL     1       0.644   0.037   3.647  1.00  0.00     0.390 P 
HETATM   22  O   UNL     1       0.726  -1.047   4.699  1.00  0.00    -0.632 OA
BRANCH  21  23
HETATM   23  O   UNL     1       2.192   0.666   3.383  1.00  0.00    -0.307 OA
HETATM   24  H   UNL     1       2.071   1.332   2.660  1.00  0.00     0.222 HD
ENDBRANCH  21  23
BRANCH  21  25
HETATM   25  O   UNL     1      -0.373   1.278   4.188  1.00  0.00    -0.307 OA
HETATM   26  H   UNL     1       0.080   1.646   4.989  1.00  0.00     0.222 HD
ENDBRANCH  21  25
ENDBRANCH  20  21
ENDBRANCH  19  20
ENDBRANCH   1  19
BRANCH   3  27
HETATM   27  O   UNL     1      -1.870  -3.903   0.257  1.00  0.00    -0.390 OA
HETATM   28  H   UNL     1      -2.141  -4.329   1.112  1.00  0.00     0.210 HD
ENDBRANCH   3  27
TORSDOF 9
