REMARK  7 active torsions:
REMARK  status: ('A' for Active; 'I' for Inactive)
REMARK    1  A    between atoms: P_2  and  O_5 
REMARK    2  A    between atoms: O_5  and  C_6 
REMARK    3  A    between atoms: C_6  and  C_7 
REMARK    4  A    between atoms: C_9  and  O_10 
REMARK    5  A    between atoms: C_12  and  O_13 
REMARK    6  A    between atoms: C_15  and  N_16 
REMARK    7  A    between atoms: C_20  and  N_24 
ROOT
HETATM    1  C   UNL     1      15.640  75.769  34.003  1.00  0.00     0.180 C 
HETATM    2  O   UNL     1      15.913  74.629  33.196  1.00  0.00    -0.353 OA
HETATM    3  C   UNL     1      14.148  75.727  34.189  1.00  0.00     0.182 C 
HETATM    4  C   UNL     1      13.679  75.178  32.789  1.00  0.00     0.198 C 
HETATM    5  C   UNL     1      14.865  74.198  32.439  1.00  0.00     0.263 C 
ENDROOT
BRANCH   5   6
HETATM    6  N   UNL     1      14.534  72.765  32.804  1.00  0.00    -0.280 N 
HETATM    7  C   UNL     1      14.939  72.189  33.993  1.00  0.00     0.102 A 
HETATM    8  C   UNL     1      14.671  70.876  34.333  1.00  0.00     0.065 A 
HETATM    9  C   UNL     1      13.892  70.048  33.440  1.00  0.00     0.103 A 
HETATM   10  N   UNL     1      13.451  70.639  32.251  1.00  0.00    -0.295 N 
HETATM   11  C   UNL     1      13.732  71.971  31.839  1.00  0.00     0.330 A 
ATOM     12  HN  UNL     1      12.881  70.067  31.628  1.00  0.00     0.172 HD
HETATM   13  O   UNL     1      13.352  72.487  30.800  1.00  0.00    -0.246 OA
BRANCH   9  14
HETATM   14  N   UNL     1      13.589  68.743  33.710  1.00  0.00    -0.385 N 
ATOM     15  HN2 UNL     1      13.911  68.312  34.577  1.00  0.00     0.157 HD
ATOM     16  HN1 UNL     1      13.039  68.159  33.080  1.00  0.00     0.157 HD
ENDBRANCH   9  14
ENDBRANCH   5   6
BRANCH   4  17
HETATM   17  O   UNL     1      13.682  76.264  31.939  1.00  0.00    -0.388 OA
ATOM     18  HO  UNL     1      12.968  76.854  32.150  1.00  0.00     0.210 HD
ENDBRANCH   4  17
BRANCH   3  19
HETATM   19  O   UNL     1      13.483  76.932  34.420  1.00  0.00    -0.390 OA
ATOM     20  HO  UNL     1      12.541  76.905  34.537  1.00  0.00     0.210 HD
ENDBRANCH   3  19
BRANCH   1  21
HETATM   21  C   UNL     1      16.358  75.632  35.474  1.00  0.00     0.217 C 
BRANCH  21  22
HETATM   22  O   UNL     1      15.930  74.468  36.027  1.00  0.00    -0.280 OA
BRANCH  22  23
HETATM   23  P   UNL     1      16.831  73.627  37.322  1.00  0.00     0.422 P 
HETATM   24  O   UNL     1      16.228  72.224  37.352  1.00  0.00    -0.617 OA
HETATM   25  O   UNL     1      18.258  73.700  36.788  1.00  0.00    -0.617 OA
HETATM   26  O   UNL     1      16.552  74.553  38.498  1.00  0.00    -0.617 OA
ENDBRANCH  22  23
ENDBRANCH  21  22
ENDBRANCH   1  21
TORSDOF 7
