MODEL 1
REMARK VINA RESULT:    -9.362      0.000      0.000
REMARK INTER + INTRA:         -10.603
REMARK INTER:                 -10.730
REMARK INTRA:                   0.127
REMARK UNBOUND:                 0.127
REMARK  4 active torsions:
REMARK  status: ('A' for Active; 'I' for Inactive)
REMARK    1  A    between atoms: C_2  and  O_3 
REMARK    2  A    between atoms: C_6  and  O_7 
REMARK    3  A    between atoms: C_12  and  C_16 
REMARK    4  A    between atoms: C_19  and  O_20 
ROOT
HETATM    1  C   UNL     1      18.452  -4.787  32.670  1.00  0.00     0.074 A 
HETATM    2  C   UNL     1      19.167  -3.984  31.790  1.00  0.00     0.071 A 
HETATM    3  C   UNL     1      18.603  -2.873  31.180  1.00  0.00     0.074 A 
HETATM    4  C   UNL     1      17.277  -2.572  31.456  1.00  0.00     0.085 A 
HETATM    5  C   UNL     1      16.506  -3.344  32.327  1.00  0.00     0.082 A 
HETATM    6  C   UNL     1      15.114  -2.995  32.633  1.00  0.00     0.200 C 
HETATM    7  O   UNL     1      14.593  -2.024  32.150  1.00  0.00    -0.286 OA
HETATM    8  C   UNL     1      14.452  -3.887  33.589  1.00  0.00     0.048 C 
HETATM    9  C   UNL     1      15.113  -4.981  33.991  1.00  0.00     0.159 C 
HETATM   10  O   UNL     1      16.448  -5.238  33.784  1.00  0.00    -0.321 OA
HETATM   11  C   UNL     1      17.116  -4.430  32.917  1.00  0.00     0.094 A 
ENDROOT
BRANCH   8  12
HETATM   12  C   UNL     1      13.025  -3.794  33.962  1.00  0.00    -0.020 A 
HETATM   13  C   UNL     1      12.099  -3.059  33.213  1.00  0.00     0.015 A 
HETATM   14  C   UNL     1      10.761  -3.033  33.598  1.00  0.00     0.037 A 
HETATM   15  C   UNL     1      10.364  -3.752  34.722  1.00  0.00     0.065 A 
HETATM   16  C   UNL     1      11.262  -4.477  35.470  1.00  0.00     0.037 A 
HETATM   17  C   UNL     1      12.596  -4.499  35.093  1.00  0.00     0.015 A 
BRANCH  15  18
HETATM   18  O   UNL     1       9.042  -3.738  35.108  1.00  0.00    -0.361 OA
ATOM     19  HO  UNL     1       8.810  -3.988  35.995  1.00  0.00     0.217 HD
ENDBRANCH  15  18
ENDBRANCH   8  12
BRANCH   4  20
HETATM   20  O   UNL     1      16.740  -1.497  30.864  1.00  0.00    -0.360 OA
ATOM     21  HO  UNL     1      16.947  -0.626  31.184  1.00  0.00     0.217 HD
ENDBRANCH   4  20
BRANCH   2  22
HETATM   22  O   UNL     1      20.484  -4.303  31.540  1.00  0.00    -0.361 OA
ATOM     23  HO  UNL     1      20.800  -5.177  31.736  1.00  0.00     0.217 HD
ENDBRANCH   2  22
TORSDOF 4
ENDMDL
MODEL 2
REMARK VINA RESULT:    -9.196      1.401      6.997
REMARK INTER + INTRA:         -10.412
REMARK INTER:                 -10.103
REMARK INTRA:                  -0.309
REMARK UNBOUND:                 0.127
REMARK  4 active torsions:
REMARK  status: ('A' for Active; 'I' for Inactive)
REMARK    1  A    between atoms: C_2  and  O_3 
REMARK    2  A    between atoms: C_6  and  O_7 
REMARK    3  A    between atoms: C_12  and  C_16 
REMARK    4  A    between atoms: C_19  and  O_20 
ROOT
HETATM    1  C   UNL     1      10.931  -3.338  33.471  1.00  0.00     0.074 A 
HETATM    2  C   UNL     1      10.357  -3.510  34.724  1.00  0.00     0.071 A 
HETATM    3  C   UNL     1      11.118  -3.769  35.855  1.00  0.00     0.074 A 
HETATM    4  C   UNL     1      12.495  -3.869  35.715  1.00  0.00     0.085 A 
HETATM    5  C   UNL     1      13.129  -3.710  34.480  1.00  0.00     0.082 A 
HETATM    6  C   UNL     1      14.588  -3.788  34.353  1.00  0.00     0.200 C 
HETATM    7  O   UNL     1      15.290  -3.981  35.311  1.00  0.00    -0.286 OA
HETATM    8  C   UNL     1      15.100  -3.569  32.997  1.00  0.00     0.048 C 
HETATM    9  C   UNL     1      14.211  -3.446  32.001  1.00  0.00     0.159 C 
HETATM   10  O   UNL     1      12.856  -3.266  32.148  1.00  0.00    -0.321 OA
HETATM   11  C   UNL     1      12.330  -3.442  33.390  1.00  0.00     0.094 A 
ENDROOT
BRANCH   8  12
HETATM   12  C   UNL     1      16.520  -3.705  32.611  1.00  0.00    -0.020 A 
HETATM   13  C   UNL     1      17.398  -2.615  32.583  1.00  0.00     0.015 A 
HETATM   14  C   UNL     1      18.734  -2.811  32.239  1.00  0.00     0.037 A 
HETATM   15  C   UNL     1      19.176  -4.096  31.940  1.00  0.00     0.065 A 
HETATM   16  C   UNL     1      18.326  -5.176  31.961  1.00  0.00     0.037 A 
HETATM   17  C   UNL     1      16.994  -4.983  32.296  1.00  0.00     0.015 A 
BRANCH  15  18
HETATM   18  O   UNL     1      20.496  -4.302  31.606  1.00  0.00    -0.361 OA
ATOM     19  HO  UNL     1      20.712  -4.738  30.790  1.00  0.00     0.217 HD
ENDBRANCH  15  18
ENDBRANCH   8  12
BRANCH   4  20
HETATM   20  O   UNL     1      13.223  -4.118  36.811  1.00  0.00    -0.360 OA
ATOM     21  HO  UNL     1      13.643  -4.964  36.919  1.00  0.00     0.217 HD
ENDBRANCH   4  20
BRANCH   2  22
HETATM   22  O   UNL     1       8.989  -3.399  34.836  1.00  0.00    -0.361 OA
ATOM     23  HO  UNL     1       8.436  -3.678  34.116  1.00  0.00     0.217 HD
ENDBRANCH   2  22
TORSDOF 4
ENDMDL
MODEL 3
REMARK VINA RESULT:    -8.964      0.818      2.570
REMARK INTER + INTRA:         -10.146
REMARK INTER:                 -10.298
REMARK INTRA:                   0.152
REMARK UNBOUND:                 0.127
REMARK  4 active torsions:
REMARK  status: ('A' for Active; 'I' for Inactive)
REMARK    1  A    between atoms: C_2  and  O_3 
REMARK    2  A    between atoms: C_6  and  O_7 
REMARK    3  A    between atoms: C_12  and  C_16 
REMARK    4  A    between atoms: C_19  and  O_20 
ROOT
HETATM    1  C   UNL     1      18.212  -3.483  31.659  1.00  0.00     0.074 A 
HETATM    2  C   UNL     1      19.248  -4.303  32.087  1.00  0.00     0.071 A 
HETATM    3  C   UNL     1      19.063  -5.287  33.047  1.00  0.00     0.074 A 
HETATM    4  C   UNL     1      17.799  -5.439  33.600  1.00  0.00     0.085 A 
HETATM    5  C   UNL     1      16.719  -4.642  33.213  1.00  0.00     0.082 A 
HETATM    6  C   UNL     1      15.381  -4.835  33.784  1.00  0.00     0.200 C 
HETATM    7  O   UNL     1      15.167  -5.696  34.598  1.00  0.00    -0.286 OA
HETATM    8  C   UNL     1      14.351  -3.940  33.252  1.00  0.00     0.048 C 
HETATM    9  C   UNL     1      14.733  -2.969  32.410  1.00  0.00     0.159 C 
HETATM   10  O   UNL     1      15.962  -2.868  31.802  1.00  0.00    -0.321 OA
HETATM   11  C   UNL     1      16.952  -3.688  32.247  1.00  0.00     0.094 A 
ENDROOT
BRANCH   8  12
HETATM   12  C   UNL     1      12.961  -3.880  33.753  1.00  0.00    -0.020 A 
HETATM   13  C   UNL     1      12.560  -4.520  34.931  1.00  0.00     0.015 A 
HETATM   14  C   UNL     1      11.242  -4.403  35.368  1.00  0.00     0.037 A 
HETATM   15  C   UNL     1      10.347  -3.638  34.628  1.00  0.00     0.065 A 
HETATM   16  C   UNL     1      10.725  -3.005  33.466  1.00  0.00     0.037 A 
HETATM   17  C   UNL     1      12.034  -3.125  33.025  1.00  0.00     0.015 A 
BRANCH  15  18
HETATM   18  O   UNL     1       9.044  -3.510  35.054  1.00  0.00    -0.361 OA
ATOM     19  HO  UNL     1       8.482  -2.854  34.659  1.00  0.00     0.217 HD
ENDBRANCH  15  18
ENDBRANCH   8  12
BRANCH   4  20
HETATM   20  O   UNL     1      17.628  -6.392  34.525  1.00  0.00    -0.360 OA
ATOM     21  HO  UNL     1      18.350  -6.638  35.091  1.00  0.00     0.217 HD
ENDBRANCH   4  20
BRANCH   2  22
HETATM   22  O   UNL     1      20.491  -4.135  31.517  1.00  0.00    -0.361 OA
ATOM     23  HO  UNL     1      21.121  -3.555  31.929  1.00  0.00     0.217 HD
ENDBRANCH   2  22
TORSDOF 4
ENDMDL
MODEL 4
REMARK VINA RESULT:    -8.709      1.606      6.795
REMARK INTER + INTRA:          -9.854
REMARK INTER:                  -9.546
REMARK INTRA:                  -0.309
REMARK UNBOUND:                 0.127
REMARK  4 active torsions:
REMARK  status: ('A' for Active; 'I' for Inactive)
REMARK    1  A    between atoms: C_2  and  O_3 
REMARK    2  A    between atoms: C_6  and  O_7 
REMARK    3  A    between atoms: C_12  and  C_16 
REMARK    4  A    between atoms: C_19  and  O_20 
ROOT
HETATM    1  C   UNL     1      11.978  -3.055  36.348  1.00  0.00     0.074 A 
HETATM    2  C   UNL     1      10.729  -2.784  35.803  1.00  0.00     0.071 A 
HETATM    3  C   UNL     1      10.515  -2.741  34.433  1.00  0.00     0.074 A 
HETATM    4  C   UNL     1      11.594  -2.966  33.589  1.00  0.00     0.085 A 
HETATM    5  C   UNL     1      12.873  -3.239  34.078  1.00  0.00     0.082 A 
HETATM    6  C   UNL     1      13.998  -3.505  33.173  1.00  0.00     0.200 C 
HETATM    7  O   UNL     1      13.852  -3.507  31.979  1.00  0.00    -0.286 OA
HETATM    8  C   UNL     1      15.267  -3.804  33.842  1.00  0.00     0.048 C 
HETATM    9  C   UNL     1      15.319  -3.688  35.176  1.00  0.00     0.159 C 
HETATM   10  O   UNL     1      14.239  -3.546  36.015  1.00  0.00    -0.321 OA
HETATM   11  C   UNL     1      13.031  -3.283  35.446  1.00  0.00     0.094 A 
ENDROOT
BRANCH   8  12
HETATM   12  C   UNL     1      16.553  -3.998  33.138  1.00  0.00    -0.020 A 
HETATM   13  C   UNL     1      16.924  -5.226  32.578  1.00  0.00     0.015 A 
HETATM   14  C   UNL     1      18.136  -5.339  31.901  1.00  0.00     0.037 A 
HETATM   15  C   UNL     1      18.955  -4.220  31.783  1.00  0.00     0.065 A 
HETATM   16  C   UNL     1      18.605  -3.008  32.330  1.00  0.00     0.037 A 
HETATM   17  C   UNL     1      17.403  -2.894  33.010  1.00  0.00     0.015 A 
BRANCH  15  18
HETATM   18  O   UNL     1      20.152  -4.320  31.110  1.00  0.00    -0.361 OA
ATOM     19  HO  UNL     1      20.954  -4.035  31.532  1.00  0.00     0.217 HD
ENDBRANCH  15  18
ENDBRANCH   8  12
BRANCH   4  20
HETATM   20  O   UNL     1      11.378  -2.924  32.268  1.00  0.00    -0.360 OA
ATOM     21  HO  UNL     1      10.869  -2.214  31.893  1.00  0.00     0.217 HD
ENDBRANCH   4  20
BRANCH   2  22
HETATM   22  O   UNL     1       9.675  -2.572  36.663  1.00  0.00    -0.361 OA
ATOM     23  HO  UNL     1       9.754  -2.828  37.575  1.00  0.00     0.217 HD
ENDBRANCH   2  22
TORSDOF 4
ENDMDL
