MODEL 1
REMARK VINA RESULT:    -6.145      0.000      0.000
REMARK INTER + INTRA:          -7.137
REMARK INTER:                  -7.043
REMARK INTRA:                  -0.094
REMARK UNBOUND:                -0.094
REMARK  4 active torsions:
REMARK  status: ('A' for Active; 'I' for Inactive)
REMARK    1  A    between atoms: C_1  and  O_7 
REMARK    2  A    between atoms: C_2  and  O_8 
REMARK    3  A    between atoms: C_3  and  O_10 
REMARK    4  A    between atoms: C_4  and  O_12 
ROOT
HETATM    1  C   UNL     1       1.170  15.629  42.997  1.00  0.00     0.290 C 
HETATM    2  C   UNL     1       0.887  17.128  42.951  1.00  0.00     0.204 C 
HETATM    3  C   UNL     1       0.522  17.608  44.352  1.00  0.00     0.183 C 
HETATM    4  C   UNL     1       1.612  17.233  45.361  1.00  0.00     0.178 C 
HETATM    5  C   UNL     1       1.814  15.720  45.319  1.00  0.00     0.152 C 
HETATM    6  C   UNL     1       2.912  15.220  46.233  1.00  0.00     0.042 C 
HETATM    7  O   UNL     1       2.164  15.339  43.972  1.00  0.00    -0.351 OA
ENDROOT
BRANCH   1   8
HETATM    8  O   UNL     1      -0.032  14.976  43.289  1.00  0.00    -0.363 OA
HETATM    9  C   UNL     1      -0.261  13.812  42.481  1.00  0.00     0.204 C 
ENDBRANCH   1   8
BRANCH   2  10
HETATM   10  O   UNL     1      -0.183  17.382  42.042  1.00  0.00    -0.388 OA
ATOM     11  HO  UNL     1      -0.097  16.839  41.267  1.00  0.00     0.210 HD
ENDBRANCH   2  10
BRANCH   3  12
HETATM   12  O   UNL     1       0.277  19.013  44.336  1.00  0.00    -0.390 OA
ATOM     13  HO  UNL     1      -0.403  19.231  44.963  1.00  0.00     0.210 HD
ENDBRANCH   3  12
BRANCH   4  14
HETATM   14  O   UNL     1       2.846  17.869  45.016  1.00  0.00    -0.390 OA
ATOM     15  HO  UNL     1       2.906  18.718  45.437  1.00  0.00     0.210 HD
ENDBRANCH   4  14
TORSDOF 4
ENDMDL
MODEL 2
REMARK VINA RESULT:    -4.962      1.383      1.940
REMARK INTER + INTRA:          -5.781
REMARK INTER:                  -5.686
REMARK INTRA:                  -0.095
REMARK UNBOUND:                -0.094
REMARK  4 active torsions:
REMARK  status: ('A' for Active; 'I' for Inactive)
REMARK    1  A    between atoms: C_1  and  O_7 
REMARK    2  A    between atoms: C_2  and  O_8 
REMARK    3  A    between atoms: C_3  and  O_10 
REMARK    4  A    between atoms: C_4  and  O_12 
ROOT
HETATM    1  C   UNL     1       1.432  14.457  43.624  1.00  0.00     0.290 C 
HETATM    2  C   UNL     1       1.124  15.310  42.396  1.00  0.00     0.204 C 
HETATM    3  C   UNL     1       0.335  16.540  42.831  1.00  0.00     0.183 C 
HETATM    4  C   UNL     1       1.080  17.310  43.926  1.00  0.00     0.178 C 
HETATM    5  C   UNL     1       1.338  16.364  45.097  1.00  0.00     0.152 C 
HETATM    6  C   UNL     1       2.123  16.987  46.230  1.00  0.00     0.042 C 
HETATM    7  O   UNL     1       2.093  15.233  44.616  1.00  0.00    -0.351 OA
ENDROOT
BRANCH   1   8
HETATM    8  O   UNL     1       0.222  13.945  44.103  1.00  0.00    -0.363 OA
HETATM    9  C   UNL     1       0.303  12.571  44.506  1.00  0.00     0.204 C 
ENDBRANCH   1   8
BRANCH   2  10
HETATM   10  O   UNL     1       0.373  14.541  41.459  1.00  0.00    -0.388 OA
ATOM     11  HO  UNL     1       0.413  14.937  40.596  1.00  0.00     0.210 HD
ENDBRANCH   2  10
BRANCH   3  12
HETATM   12  O   UNL     1       0.057  17.365  41.700  1.00  0.00    -0.390 OA
ATOM     13  HO  UNL     1      -0.789  17.785  41.806  1.00  0.00     0.210 HD
ENDBRANCH   3  12
BRANCH   4  14
HETATM   14  O   UNL     1       2.337  17.780  43.433  1.00  0.00    -0.390 OA
ATOM     15  HO  UNL     1       2.740  18.365  44.065  1.00  0.00     0.210 HD
ENDBRANCH   4  14
TORSDOF 4
ENDMDL
MODEL 3
REMARK VINA RESULT:    -4.920      1.567      3.406
REMARK INTER + INTRA:          -5.734
REMARK INTER:                  -5.641
REMARK INTRA:                  -0.092
REMARK UNBOUND:                -0.094
REMARK  4 active torsions:
REMARK  status: ('A' for Active; 'I' for Inactive)
REMARK    1  A    between atoms: C_1  and  O_7 
REMARK    2  A    between atoms: C_2  and  O_8 
REMARK    3  A    between atoms: C_3  and  O_10 
REMARK    4  A    between atoms: C_4  and  O_12 
ROOT
HETATM    1  C   UNL     1       0.754  14.573  43.346  1.00  0.00     0.290 C 
HETATM    2  C   UNL     1       1.376  15.626  44.259  1.00  0.00     0.204 C 
HETATM    3  C   UNL     1       1.921  16.765  43.403  1.00  0.00     0.183 C 
HETATM    4  C   UNL     1       0.832  17.332  42.487  1.00  0.00     0.178 C 
HETATM    5  C   UNL     1       0.281  16.197  41.627  1.00  0.00     0.152 C 
HETATM    6  C   UNL     1      -0.850  16.612  40.711  1.00  0.00     0.042 C 
HETATM    7  O   UNL     1      -0.224  15.163  42.498  1.00  0.00    -0.351 OA
ENDROOT
BRANCH   1   8
HETATM    8  O   UNL     1       1.784  13.990  42.602  1.00  0.00    -0.363 OA
HETATM    9  C   UNL     1       1.719  12.557  42.560  1.00  0.00     0.204 C 
ENDBRANCH   1   8
BRANCH   2  10
HETATM   10  O   UNL     1       2.422  15.033  45.025  1.00  0.00    -0.388 OA
ATOM     11  HO  UNL     1       2.190  14.146  45.274  1.00  0.00     0.210 HD
ENDBRANCH   2  10
BRANCH   3  12
HETATM   12  O   UNL     1       2.486  17.774  44.239  1.00  0.00    -0.390 OA
ATOM     13  HO  UNL     1       3.352  17.508  44.528  1.00  0.00     0.210 HD
ENDBRANCH   3  12
BRANCH   4  14
HETATM   14  O   UNL     1      -0.236  17.877  43.265  1.00  0.00    -0.390 OA
ATOM     15  HO  UNL     1      -0.117  17.661  44.183  1.00  0.00     0.210 HD
ENDBRANCH   4  14
TORSDOF 4
ENDMDL
MODEL 4
REMARK VINA RESULT:    -4.775      1.169      3.392
REMARK INTER + INTRA:          -5.567
REMARK INTER:                  -5.472
REMARK INTRA:                  -0.095
REMARK UNBOUND:                -0.094
REMARK  4 active torsions:
REMARK  status: ('A' for Active; 'I' for Inactive)
REMARK    1  A    between atoms: C_1  and  O_7 
REMARK    2  A    between atoms: C_2  and  O_8 
REMARK    3  A    between atoms: C_3  and  O_10 
REMARK    4  A    between atoms: C_4  and  O_12 
ROOT
HETATM    1  C   UNL     1       1.477  15.621  45.244  1.00  0.00     0.290 C 
HETATM    2  C   UNL     1       1.055  16.967  44.664  1.00  0.00     0.204 C 
HETATM    3  C   UNL     1       1.441  17.017  43.189  1.00  0.00     0.183 C 
HETATM    4  C   UNL     1       0.853  15.824  42.429  1.00  0.00     0.178 C 
HETATM    5  C   UNL     1       1.335  14.537  43.094  1.00  0.00     0.152 C 
HETATM    6  C   UNL     1       0.776  13.276  42.472  1.00  0.00     0.042 C 
HETATM    7  O   UNL     1       0.929  14.554  44.478  1.00  0.00    -0.351 OA
ENDROOT
BRANCH   1   8
HETATM    8  O   UNL     1       2.875  15.576  45.246  1.00  0.00    -0.363 OA
HETATM    9  C   UNL     1       3.427  15.013  46.445  1.00  0.00     0.204 C 
ENDBRANCH   1   8
BRANCH   2  10
HETATM   10  O   UNL     1       1.698  18.018  45.383  1.00  0.00    -0.388 OA
ATOM     11  HO  UNL     1       1.257  18.845  45.227  1.00  0.00     0.210 HD
ENDBRANCH   2  10
BRANCH   3  12
HETATM   12  O   UNL     1       1.032  18.260  42.620  1.00  0.00    -0.390 OA
ATOM     13  HO  UNL     1       1.390  18.348  41.744  1.00  0.00     0.210 HD
ENDBRANCH   3  12
BRANCH   4  14
HETATM   14  O   UNL     1      -0.576  15.859  42.482  1.00  0.00    -0.390 OA
ATOM     15  HO  UNL     1      -0.940  15.716  41.616  1.00  0.00     0.210 HD
ENDBRANCH   4  14
TORSDOF 4
ENDMDL
MODEL 5
REMARK VINA RESULT:    -4.535      2.158      2.852
REMARK INTER + INTRA:          -5.292
REMARK INTER:                  -5.197
REMARK INTRA:                  -0.095
REMARK UNBOUND:                -0.094
REMARK  4 active torsions:
REMARK  status: ('A' for Active; 'I' for Inactive)
REMARK    1  A    between atoms: C_1  and  O_7 
REMARK    2  A    between atoms: C_2  and  O_8 
REMARK    3  A    between atoms: C_3  and  O_10 
REMARK    4  A    between atoms: C_4  and  O_12 
ROOT
HETATM    1  C   UNL     1      -0.599  15.096  40.802  1.00  0.00     0.290 C 
HETATM    2  C   UNL     1      -0.195  16.537  41.098  1.00  0.00     0.204 C 
HETATM    3  C   UNL     1       0.087  16.678  42.591  1.00  0.00     0.183 C 
HETATM    4  C   UNL     1       1.130  15.654  43.050  1.00  0.00     0.178 C 
HETATM    5  C   UNL     1       0.626  14.255  42.702  1.00  0.00     0.152 C 
HETATM    6  C   UNL     1       1.595  13.148  43.051  1.00  0.00     0.042 C 
HETATM    7  O   UNL     1       0.391  14.193  41.279  1.00  0.00    -0.351 OA
ENDROOT
BRANCH   1   8
HETATM    8  O   UNL     1      -1.835  14.864  41.414  1.00  0.00    -0.363 OA
HETATM    9  C   UNL     1      -2.755  14.137  40.587  1.00  0.00     0.204 C 
ENDBRANCH   1   8
BRANCH   2  10
HETATM   10  O   UNL     1      -1.246  17.417  40.705  1.00  0.00    -0.388 OA
ATOM     11  HO  UNL     1      -2.020  17.268  41.235  1.00  0.00     0.210 HD
ENDBRANCH   2  10
BRANCH   3  12
HETATM   12  O   UNL     1       0.490  18.014  42.887  1.00  0.00    -0.390 OA
ATOM     13  HO  UNL     1       0.898  18.047  43.745  1.00  0.00     0.210 HD
ENDBRANCH   3  12
BRANCH   4  14
HETATM   14  O   UNL     1       2.371  15.875  42.375  1.00  0.00    -0.390 OA
ATOM     15  HO  UNL     1       2.986  16.312  42.953  1.00  0.00     0.210 HD
ENDBRANCH   4  14
TORSDOF 4
ENDMDL
MODEL 6
REMARK VINA RESULT:    -4.518      1.799      3.223
REMARK INTER + INTRA:          -5.272
REMARK INTER:                  -5.193
REMARK INTRA:                  -0.079
REMARK UNBOUND:                -0.094
REMARK  4 active torsions:
REMARK  status: ('A' for Active; 'I' for Inactive)
REMARK    1  A    between atoms: C_1  and  O_7 
REMARK    2  A    between atoms: C_2  and  O_8 
REMARK    3  A    between atoms: C_3  and  O_10 
REMARK    4  A    between atoms: C_4  and  O_12 
ROOT
HETATM    1  C   UNL     1       0.476  16.526  41.530  1.00  0.00     0.290 C 
HETATM    2  C   UNL     1       1.100  16.927  42.863  1.00  0.00     0.204 C 
HETATM    3  C   UNL     1       0.474  16.093  43.976  1.00  0.00     0.183 C 
HETATM    4  C   UNL     1       0.603  14.596  43.678  1.00  0.00     0.178 C 
HETATM    5  C   UNL     1      -0.048  14.310  42.326  1.00  0.00     0.152 C 
HETATM    6  C   UNL     1       0.062  12.868  41.882  1.00  0.00     0.042 C 
HETATM    7  O   UNL     1       0.597  15.123  41.324  1.00  0.00    -0.351 OA
ENDROOT
BRANCH   1   8
HETATM    8  O   UNL     1      -0.866  16.921  41.550  1.00  0.00    -0.363 OA
HETATM    9  C   UNL     1      -1.454  17.018  40.245  1.00  0.00     0.204 C 
ENDBRANCH   1   8
BRANCH   2  10
HETATM   10  O   UNL     1       0.876  18.316  43.095  1.00  0.00    -0.388 OA
ATOM     11  HO  UNL     1       0.004  18.458  43.444  1.00  0.00     0.210 HD
ENDBRANCH   2  10
BRANCH   3  12
HETATM   12  O   UNL     1       1.062  16.435  45.230  1.00  0.00    -0.390 OA
ATOM     13  HO  UNL     1       0.511  16.127  45.941  1.00  0.00     0.210 HD
ENDBRANCH   3  12
BRANCH   4  14
HETATM   14  O   UNL     1       1.982  14.222  43.609  1.00  0.00    -0.390 OA
ATOM     15  HO  UNL     1       2.072  13.375  43.188  1.00  0.00     0.210 HD
ENDBRANCH   4  14
TORSDOF 4
ENDMDL
MODEL 7
REMARK VINA RESULT:    -4.414     10.401     12.274
REMARK INTER + INTRA:          -5.153
REMARK INTER:                  -5.072
REMARK INTRA:                  -0.082
REMARK UNBOUND:                -0.094
REMARK  4 active torsions:
REMARK  status: ('A' for Active; 'I' for Inactive)
REMARK    1  A    between atoms: C_1  and  O_7 
REMARK    2  A    between atoms: C_2  and  O_8 
REMARK    3  A    between atoms: C_3  and  O_10 
REMARK    4  A    between atoms: C_4  and  O_12 
ROOT
HETATM    1  C   UNL     1      10.110   7.883  46.649  1.00  0.00     0.290 C 
HETATM    2  C   UNL     1      10.233   8.723  45.382  1.00  0.00     0.204 C 
HETATM    3  C   UNL     1       9.275   8.177  44.328  1.00  0.00     0.183 C 
HETATM    4  C   UNL     1       7.844   8.112  44.870  1.00  0.00     0.178 C 
HETATM    5  C   UNL     1       7.839   7.254  46.133  1.00  0.00     0.152 C 
HETATM    6  C   UNL     1       6.488   7.155  46.805  1.00  0.00     0.042 C 
HETATM    7  O   UNL     1       8.757   7.832  47.085  1.00  0.00    -0.351 OA
ENDROOT
BRANCH   1   8
HETATM    8  O   UNL     1      10.598   6.603  46.363  1.00  0.00    -0.363 OA
HETATM    9  C   UNL     1      10.979   5.862  47.530  1.00  0.00     0.204 C 
ENDBRANCH   1   8
BRANCH   2  10
HETATM   10  O   UNL     1      11.577   8.675  44.907  1.00  0.00    -0.388 OA
ATOM     11  HO  UNL     1      11.592   8.635  43.958  1.00  0.00     0.210 HD
ENDBRANCH   2  10
BRANCH   3  12
HETATM   12  O   UNL     1       9.356   8.965  43.141  1.00  0.00    -0.390 OA
ATOM     13  HO  UNL     1       9.784   8.469  42.452  1.00  0.00     0.210 HD
ENDBRANCH   3  12
BRANCH   4  14
HETATM   14  O   UNL     1       7.381   9.423  45.206  1.00  0.00    -0.390 OA
ATOM     15  HO  UNL     1       8.098  10.045  45.160  1.00  0.00     0.210 HD
ENDBRANCH   4  14
TORSDOF 4
ENDMDL
MODEL 8
REMARK VINA RESULT:    -4.385      9.990     11.913
REMARK INTER + INTRA:          -5.120
REMARK INTER:                  -5.027
REMARK INTRA:                  -0.092
REMARK UNBOUND:                -0.094
REMARK  4 active torsions:
REMARK  status: ('A' for Active; 'I' for Inactive)
REMARK    1  A    between atoms: C_1  and  O_7 
REMARK    2  A    between atoms: C_2  and  O_8 
REMARK    3  A    between atoms: C_3  and  O_10 
REMARK    4  A    between atoms: C_4  and  O_12 
ROOT
HETATM    1  C   UNL     1       8.078   7.948  45.253  1.00  0.00     0.290 C 
HETATM    2  C   UNL     1       9.400   8.092  44.506  1.00  0.00     0.204 C 
HETATM    3  C   UNL     1      10.415   8.772  45.419  1.00  0.00     0.183 C 
HETATM    4  C   UNL     1      10.553   8.016  46.744  1.00  0.00     0.178 C 
HETATM    5  C   UNL     1       9.177   7.928  47.400  1.00  0.00     0.152 C 
HETATM    6  C   UNL     1       9.162   7.149  48.696  1.00  0.00     0.042 C 
HETATM    7  O   UNL     1       8.274   7.269  46.487  1.00  0.00    -0.351 OA
ENDROOT
BRANCH   1   8
HETATM    8  O   UNL     1       7.560   9.231  45.457  1.00  0.00    -0.363 OA
HETATM    9  C   UNL     1       6.165   9.342  45.143  1.00  0.00     0.204 C 
ENDBRANCH   1   8
BRANCH   2  10
HETATM   10  O   UNL     1       9.197   8.864  43.324  1.00  0.00    -0.388 OA
ATOM     11  HO  UNL     1       9.656   9.694  43.386  1.00  0.00     0.210 HD
ENDBRANCH   2  10
BRANCH   3  12
HETATM   12  O   UNL     1      11.668   8.895  44.747  1.00  0.00    -0.390 OA
ATOM     13  HO  UNL     1      12.272   8.233  45.063  1.00  0.00     0.210 HD
ENDBRANCH   3  12
BRANCH   4  14
HETATM   14  O   UNL     1      11.034   6.690  46.509  1.00  0.00    -0.390 OA
ATOM     15  HO  UNL     1      11.550   6.391  47.249  1.00  0.00     0.210 HD
ENDBRANCH   4  14
TORSDOF 4
ENDMDL
MODEL 9
REMARK VINA RESULT:    -4.361      2.295      3.788
REMARK INTER + INTRA:          -5.092
REMARK INTER:                  -4.998
REMARK INTRA:                  -0.095
REMARK UNBOUND:                -0.094
REMARK  4 active torsions:
REMARK  status: ('A' for Active; 'I' for Inactive)
REMARK    1  A    between atoms: C_1  and  O_7 
REMARK    2  A    between atoms: C_2  and  O_8 
REMARK    3  A    between atoms: C_3  and  O_10 
REMARK    4  A    between atoms: C_4  and  O_12 
ROOT
HETATM    1  C   UNL     1       2.048  12.977  44.465  1.00  0.00     0.290 C 
HETATM    2  C   UNL     1       1.739  12.940  42.971  1.00  0.00     0.204 C 
HETATM    3  C   UNL     1       0.676  13.989  42.658  1.00  0.00     0.183 C 
HETATM    4  C   UNL     1       1.112  15.373  43.148  1.00  0.00     0.178 C 
HETATM    5  C   UNL     1       1.398  15.292  44.646  1.00  0.00     0.152 C 
HETATM    6  C   UNL     1       1.896  16.587  45.248  1.00  0.00     0.042 C 
HETATM    7  O   UNL     1       2.414  14.292  44.866  1.00  0.00    -0.351 OA
ENDROOT
BRANCH   1   8
HETATM    8  O   UNL     1       0.910  12.536  45.148  1.00  0.00    -0.363 OA
HETATM    9  C   UNL     1       1.208  11.851  46.373  1.00  0.00     0.204 C 
ENDBRANCH   1   8
BRANCH   2  10
HETATM   10  O   UNL     1       1.276  11.639  42.613  1.00  0.00    -0.388 OA
ATOM     11  HO  UNL     1       0.622  11.337  43.232  1.00  0.00     0.210 HD
ENDBRANCH   2  10
BRANCH   3  12
HETATM   12  O   UNL     1       0.389  13.988  41.260  1.00  0.00    -0.390 OA
ATOM     13  HO  UNL     1       0.995  13.415  40.805  1.00  0.00     0.210 HD
ENDBRANCH   3  12
BRANCH   4  14
HETATM   14  O   UNL     1       2.305  15.783  42.476  1.00  0.00    -0.390 OA
ATOM     15  HO  UNL     1       2.580  15.116  41.857  1.00  0.00     0.210 HD
ENDBRANCH   4  14
TORSDOF 4
ENDMDL
MODEL 10
REMARK VINA RESULT:    -4.279      5.254      7.226
REMARK INTER + INTRA:          -4.999
REMARK INTER:                  -4.906
REMARK INTRA:                  -0.093
REMARK UNBOUND:                -0.094
REMARK  4 active torsions:
REMARK  status: ('A' for Active; 'I' for Inactive)
REMARK    1  A    between atoms: C_1  and  O_7 
REMARK    2  A    between atoms: C_2  and  O_8 
REMARK    3  A    between atoms: C_3  and  O_10 
REMARK    4  A    between atoms: C_4  and  O_12 
ROOT
HETATM    1  C   UNL     1       3.117  11.475  45.254  1.00  0.00     0.290 C 
HETATM    2  C   UNL     1       3.834  10.874  44.049  1.00  0.00     0.204 C 
HETATM    3  C   UNL     1       5.278  10.568  44.431  1.00  0.00     0.183 C 
HETATM    4  C   UNL     1       5.339   9.674  45.674  1.00  0.00     0.178 C 
HETATM    5  C   UNL     1       4.591  10.369  46.810  1.00  0.00     0.152 C 
HETATM    6  C   UNL     1       4.524   9.561  48.087  1.00  0.00     0.042 C 
HETATM    7  O   UNL     1       3.235  10.618  46.383  1.00  0.00    -0.351 OA
ENDROOT
BRANCH   1   8
HETATM    8  O   UNL     1       3.685  12.728  45.508  1.00  0.00    -0.363 OA
HETATM    9  C   UNL     1       2.787  13.643  46.153  1.00  0.00     0.204 C 
ENDBRANCH   1   8
BRANCH   2  10
HETATM   10  O   UNL     1       3.791  11.795  42.961  1.00  0.00    -0.388 OA
ATOM     11  HO  UNL     1       4.549  11.682  42.399  1.00  0.00     0.210 HD
ENDBRANCH   2  10
BRANCH   3  12
HETATM   12  O   UNL     1       5.962   9.982  43.324  1.00  0.00    -0.390 OA
ATOM     13  HO  UNL     1       6.643   9.398  43.637  1.00  0.00     0.210 HD
ENDBRANCH   3  12
BRANCH   4  14
HETATM   14  O   UNL     1       4.707   8.418  45.411  1.00  0.00    -0.390 OA
ATOM     15  HO  UNL     1       3.768   8.490  45.537  1.00  0.00     0.210 HD
ENDBRANCH   4  14
TORSDOF 4
ENDMDL
MODEL 11
REMARK VINA RESULT:    -4.218      2.001      4.458
REMARK INTER + INTRA:          -4.929
REMARK INTER:                  -4.836
REMARK INTRA:                  -0.093
REMARK UNBOUND:                -0.094
REMARK  4 active torsions:
REMARK  status: ('A' for Active; 'I' for Inactive)
REMARK    1  A    between atoms: C_1  and  O_7 
REMARK    2  A    between atoms: C_2  and  O_8 
REMARK    3  A    between atoms: C_3  and  O_10 
REMARK    4  A    between atoms: C_4  and  O_12 
ROOT
HETATM    1  C   UNL     1       0.410  17.028  43.100  1.00  0.00     0.290 C 
HETATM    2  C   UNL     1       0.986  16.023  42.107  1.00  0.00     0.204 C 
HETATM    3  C   UNL     1       0.282  14.682  42.292  1.00  0.00     0.183 C 
HETATM    4  C   UNL     1      -1.237  14.841  42.173  1.00  0.00     0.178 C 
HETATM    5  C   UNL     1      -1.702  15.867  43.204  1.00  0.00     0.152 C 
HETATM    6  C   UNL     1      -3.184  16.162  43.154  1.00  0.00     0.042 C 
HETATM    7  O   UNL     1      -1.004  17.107  42.965  1.00  0.00    -0.351 OA
ENDROOT
BRANCH   1   8
HETATM    8  O   UNL     1       0.774  16.615  44.386  1.00  0.00    -0.363 OA
HETATM    9  C   UNL     1       1.274  17.679  45.208  1.00  0.00     0.204 C 
ENDBRANCH   1   8
BRANCH   2  10
HETATM   10  O   UNL     1       2.388  15.884  42.330  1.00  0.00    -0.388 OA
ATOM     11  HO  UNL     1       2.756  16.699  42.649  1.00  0.00     0.210 HD
ENDBRANCH   2  10
BRANCH   3  12
HETATM   12  O   UNL     1       0.789  13.733  41.355  1.00  0.00    -0.390 OA
ATOM     13  HO  UNL     1       1.725  13.857  41.242  1.00  0.00     0.210 HD
ENDBRANCH   3  12
BRANCH   4  14
HETATM   14  O   UNL     1      -1.585  15.313  40.869  1.00  0.00    -0.390 OA
ATOM     15  HO  UNL     1      -1.177  16.155  40.705  1.00  0.00     0.210 HD
ENDBRANCH   4  14
TORSDOF 4
ENDMDL
MODEL 12
REMARK VINA RESULT:    -4.126      6.748      8.680
REMARK INTER + INTRA:          -4.824
REMARK INTER:                  -4.732
REMARK INTRA:                  -0.091
REMARK UNBOUND:                -0.094
REMARK  4 active torsions:
REMARK  status: ('A' for Active; 'I' for Inactive)
REMARK    1  A    between atoms: C_1  and  O_7 
REMARK    2  A    between atoms: C_2  and  O_8 
REMARK    3  A    between atoms: C_3  and  O_10 
REMARK    4  A    between atoms: C_4  and  O_12 
ROOT
HETATM    1  C   UNL     1       5.964   8.809  45.365  1.00  0.00     0.290 C 
HETATM    2  C   UNL     1       5.032   9.922  45.835  1.00  0.00     0.204 C 
HETATM    3  C   UNL     1       4.921  10.974  44.737  1.00  0.00     0.183 C 
HETATM    4  C   UNL     1       4.480  10.340  43.413  1.00  0.00     0.178 C 
HETATM    5  C   UNL     1       5.477   9.244  43.043  1.00  0.00     0.152 C 
HETATM    6  C   UNL     1       5.124   8.494  41.778  1.00  0.00     0.042 C 
HETATM    7  O   UNL     1       5.523   8.283  44.119  1.00  0.00    -0.351 OA
ENDROOT
BRANCH   1   8
HETATM    8  O   UNL     1       7.252   9.345  45.262  1.00  0.00    -0.363 OA
HETATM    9  C   UNL     1       8.291   8.366  45.399  1.00  0.00     0.204 C 
ENDBRANCH   1   8
BRANCH   2  10
HETATM   10  O   UNL     1       5.549  10.503  47.031  1.00  0.00    -0.388 OA
ATOM     11  HO  UNL     1       6.308  10.018  47.334  1.00  0.00     0.210 HD
ENDBRANCH   2  10
BRANCH   3  12
HETATM   12  O   UNL     1       4.034  12.014  45.146  1.00  0.00    -0.390 OA
ATOM     13  HO  UNL     1       3.664  12.444  44.384  1.00  0.00     0.210 HD
ENDBRANCH   3  12
BRANCH   4  14
HETATM   14  O   UNL     1       3.184   9.753  43.553  1.00  0.00    -0.390 OA
ATOM     15  HO  UNL     1       3.055   9.452  44.445  1.00  0.00     0.210 HD
ENDBRANCH   4  14
TORSDOF 4
ENDMDL
MODEL 13
REMARK VINA RESULT:    -4.077      4.946      7.012
REMARK INTER + INTRA:          -4.767
REMARK INTER:                  -4.676
REMARK INTRA:                  -0.091
REMARK UNBOUND:                -0.094
REMARK  4 active torsions:
REMARK  status: ('A' for Active; 'I' for Inactive)
REMARK    1  A    between atoms: C_1  and  O_7 
REMARK    2  A    between atoms: C_2  and  O_8 
REMARK    3  A    between atoms: C_3  and  O_10 
REMARK    4  A    between atoms: C_4  and  O_12 
ROOT
HETATM    1  C   UNL     1       4.613  11.178  45.117  1.00  0.00     0.290 C 
HETATM    2  C   UNL     1       4.870  10.700  43.691  1.00  0.00     0.204 C 
HETATM    3  C   UNL     1       3.552  10.236  43.078  1.00  0.00     0.183 C 
HETATM    4  C   UNL     1       2.492  11.339  43.160  1.00  0.00     0.178 C 
HETATM    5  C   UNL     1       2.320  11.741  44.623  1.00  0.00     0.152 C 
HETATM    6  C   UNL     1       1.337  12.870  44.839  1.00  0.00     0.042 C 
HETATM    7  O   UNL     1       3.598  12.175  45.133  1.00  0.00    -0.351 OA
ENDROOT
BRANCH   1   8
HETATM    8  O   UNL     1       4.243  10.066  45.881  1.00  0.00    -0.363 OA
HETATM    9  C   UNL     1       4.931   9.982  47.138  1.00  0.00     0.204 C 
ENDBRANCH   1   8
BRANCH   2  10
HETATM   10  O   UNL     1       5.814   9.631  43.711  1.00  0.00    -0.388 OA
ATOM     11  HO  UNL     1       5.430   8.842  43.345  1.00  0.00     0.210 HD
ENDBRANCH   2  10
BRANCH   3  12
HETATM   12  O   UNL     1       3.766   9.806  41.734  1.00  0.00    -0.390 OA
ATOM     13  HO  UNL     1       3.603   8.873  41.663  1.00  0.00     0.210 HD
ENDBRANCH   3  12
BRANCH   4  14
HETATM   14  O   UNL     1       2.912  12.486  42.416  1.00  0.00    -0.390 OA
ATOM     15  HO  UNL     1       2.184  13.085  42.298  1.00  0.00     0.210 HD
ENDBRANCH   4  14
TORSDOF 4
ENDMDL
MODEL 14
REMARK VINA RESULT:    -4.076      2.005      4.235
REMARK INTER + INTRA:          -4.765
REMARK INTER:                  -4.670
REMARK INTRA:                  -0.095
REMARK UNBOUND:                -0.094
REMARK  4 active torsions:
REMARK  status: ('A' for Active; 'I' for Inactive)
REMARK    1  A    between atoms: C_1  and  O_7 
REMARK    2  A    between atoms: C_2  and  O_8 
REMARK    3  A    between atoms: C_3  and  O_10 
REMARK    4  A    between atoms: C_4  and  O_12 
ROOT
HETATM    1  C   UNL     1       1.861  15.913  44.302  1.00  0.00     0.290 C 
HETATM    2  C   UNL     1       2.499  15.101  45.425  1.00  0.00     0.204 C 
HETATM    3  C   UNL     1       1.665  13.847  45.668  1.00  0.00     0.183 C 
HETATM    4  C   UNL     1       1.489  13.048  44.373  1.00  0.00     0.178 C 
HETATM    5  C   UNL     1       0.850  13.955  43.324  1.00  0.00     0.152 C 
HETATM    6  C   UNL     1       0.673  13.301  41.971  1.00  0.00     0.042 C 
HETATM    7  O   UNL     1       1.694  15.111  43.140  1.00  0.00    -0.351 OA
ENDROOT
BRANCH   1   8
HETATM    8  O   UNL     1       0.633  16.395  44.768  1.00  0.00    -0.363 OA
HETATM    9  C   UNL     1       0.358  17.744  44.364  1.00  0.00     0.204 C 
ENDBRANCH   1   8
BRANCH   2  10
HETATM   10  O   UNL     1       2.563  15.894  46.610  1.00  0.00    -0.388 OA
ATOM     11  HO  UNL     1       2.591  15.338  47.380  1.00  0.00     0.210 HD
ENDBRANCH   2  10
BRANCH   3  12
HETATM   12  O   UNL     1       2.258  13.059  46.699  1.00  0.00    -0.390 OA
ATOM     13  HO  UNL     1       1.603  12.494  47.092  1.00  0.00     0.210 HD
ENDBRANCH   3  12
BRANCH   4  14
HETATM   14  O   UNL     1       2.760  12.609  43.885  1.00  0.00    -0.390 OA
ATOM     15  HO  UNL     1       3.396  13.312  43.947  1.00  0.00     0.210 HD
ENDBRANCH   4  14
TORSDOF 4
ENDMDL
MODEL 15
REMARK VINA RESULT:    -4.074      7.692      9.257
REMARK INTER + INTRA:          -4.764
REMARK INTER:                  -4.674
REMARK INTRA:                  -0.090
REMARK UNBOUND:                -0.094
REMARK  4 active torsions:
REMARK  status: ('A' for Active; 'I' for Inactive)
REMARK    1  A    between atoms: C_1  and  O_7 
REMARK    2  A    between atoms: C_2  and  O_8 
REMARK    3  A    between atoms: C_3  and  O_10 
REMARK    4  A    between atoms: C_4  and  O_12 
ROOT
HETATM    1  C   UNL     1       5.380   9.930  43.941  1.00  0.00     0.290 C 
HETATM    2  C   UNL     1       5.695  10.076  45.427  1.00  0.00     0.204 C 
HETATM    3  C   UNL     1       6.246   8.754  45.950  1.00  0.00     0.183 C 
HETATM    4  C   UNL     1       7.452   8.297  45.123  1.00  0.00     0.178 C 
HETATM    5  C   UNL     1       7.025   8.190  43.660  1.00  0.00     0.152 C 
HETATM    6  C   UNL     1       8.145   7.801  42.720  1.00  0.00     0.042 C 
HETATM    7  O   UNL     1       6.525   9.473  43.232  1.00  0.00    -0.351 OA
ENDROOT
BRANCH   1   8
HETATM    8  O   UNL     1       4.314   9.033  43.816  1.00  0.00    -0.363 OA
HETATM    9  C   UNL     1       3.563   9.203  42.606  1.00  0.00     0.204 C 
ENDBRANCH   1   8
BRANCH   2  10
HETATM   10  O   UNL     1       4.508  10.435  46.132  1.00  0.00    -0.388 OA
ATOM     11  HO  UNL     1       4.668  11.186  46.692  1.00  0.00     0.210 HD
ENDBRANCH   2  10
BRANCH   3  12
HETATM   12  O   UNL     1       6.570   8.875  47.335  1.00  0.00    -0.390 OA
ATOM     13  HO  UNL     1       7.490   9.091  47.434  1.00  0.00     0.210 HD
ENDBRANCH   3  12
BRANCH   4  14
HETATM   14  O   UNL     1       8.511   9.253  45.221  1.00  0.00    -0.390 OA
ATOM     15  HO  UNL     1       8.822   9.306  46.118  1.00  0.00     0.210 HD
ENDBRANCH   4  14
TORSDOF 4
ENDMDL
MODEL 16
REMARK VINA RESULT:    -4.069      7.364      9.501
REMARK INTER + INTRA:          -4.758
REMARK INTER:                  -4.694
REMARK INTRA:                  -0.064
REMARK UNBOUND:                -0.094
REMARK  4 active torsions:
REMARK  status: ('A' for Active; 'I' for Inactive)
REMARK    1  A    between atoms: C_1  and  O_7 
REMARK    2  A    between atoms: C_2  and  O_8 
REMARK    3  A    between atoms: C_3  and  O_10 
REMARK    4  A    between atoms: C_4  and  O_12 
ROOT
HETATM    1  C   UNL     1       6.507   8.394  45.477  1.00  0.00     0.290 C 
HETATM    2  C   UNL     1       5.942   8.196  46.880  1.00  0.00     0.204 C 
HETATM    3  C   UNL     1       5.550   9.554  47.454  1.00  0.00     0.183 C 
HETATM    4  C   UNL     1       4.587  10.289  46.516  1.00  0.00     0.178 C 
HETATM    5  C   UNL     1       5.251  10.426  45.147  1.00  0.00     0.152 C 
HETATM    6  C   UNL     1       4.377  11.086  44.103  1.00  0.00     0.042 C 
HETATM    7  O   UNL     1       5.584   9.108  44.664  1.00  0.00    -0.351 OA
ENDROOT
BRANCH   1   8
HETATM    8  O   UNL     1       7.717   9.085  45.598  1.00  0.00    -0.363 OA
HETATM    9  C   UNL     1       8.822   8.417  44.972  1.00  0.00     0.204 C 
ENDBRANCH   1   8
BRANCH   2  10
HETATM   10  O   UNL     1       6.923   7.571  47.706  1.00  0.00    -0.388 OA
ATOM     11  HO  UNL     1       7.782   7.630  47.303  1.00  0.00     0.210 HD
ENDBRANCH   2  10
BRANCH   3  12
HETATM   12  O   UNL     1       4.995   9.390  48.759  1.00  0.00    -0.390 OA
ATOM     13  HO  UNL     1       5.233  10.129  49.307  1.00  0.00     0.210 HD
ENDBRANCH   3  12
BRANCH   4  14
HETATM   14  O   UNL     1       3.377   9.541  46.364  1.00  0.00    -0.390 OA
ATOM     15  HO  UNL     1       3.512   8.640  46.634  1.00  0.00     0.210 HD
ENDBRANCH   4  14
TORSDOF 4
ENDMDL
MODEL 17
REMARK VINA RESULT:    -4.069      9.239     11.068
REMARK INTER + INTRA:          -4.758
REMARK INTER:                  -4.679
REMARK INTRA:                  -0.079
REMARK UNBOUND:                -0.094
REMARK  4 active torsions:
REMARK  status: ('A' for Active; 'I' for Inactive)
REMARK    1  A    between atoms: C_1  and  O_7 
REMARK    2  A    between atoms: C_2  and  O_8 
REMARK    3  A    between atoms: C_3  and  O_10 
REMARK    4  A    between atoms: C_4  and  O_12 
ROOT
HETATM    1  C   UNL     1       8.252   7.804  44.184  1.00  0.00     0.290 C 
HETATM    2  C   UNL     1       6.876   8.455  44.299  1.00  0.00     0.204 C 
HETATM    3  C   UNL     1       6.461   8.984  42.930  1.00  0.00     0.183 C 
HETATM    4  C   UNL     1       6.516   7.875  41.874  1.00  0.00     0.178 C 
HETATM    5  C   UNL     1       7.929   7.296  41.849  1.00  0.00     0.152 C 
HETATM    6  C   UNL     1       8.105   6.145  40.884  1.00  0.00     0.042 C 
HETATM    7  O   UNL     1       8.249   6.809  43.169  1.00  0.00    -0.351 OA
ENDROOT
BRANCH   1   8
HETATM    8  O   UNL     1       9.179   8.813  43.903  1.00  0.00    -0.363 OA
HETATM    9  C   UNL     1      10.311   8.811  44.785  1.00  0.00     0.204 C 
ENDBRANCH   1   8
BRANCH   2  10
HETATM   10  O   UNL     1       6.930   9.518  45.248  1.00  0.00    -0.388 OA
ATOM     11  HO  UNL     1       6.927   9.173  46.134  1.00  0.00     0.210 HD
ENDBRANCH   2  10
BRANCH   3  12
HETATM   12  O   UNL     1       5.165   9.575  43.009  1.00  0.00    -0.390 OA
ATOM     13  HO  UNL     1       4.947   9.991  42.182  1.00  0.00     0.210 HD
ENDBRANCH   3  12
BRANCH   4  14
HETATM   14  O   UNL     1       5.599   6.829  42.207  1.00  0.00    -0.390 OA
ATOM     15  HO  UNL     1       5.913   6.345  42.961  1.00  0.00     0.210 HD
ENDBRANCH   4  14
TORSDOF 4
ENDMDL
MODEL 18
REMARK VINA RESULT:    -4.050      8.822     10.223
REMARK INTER + INTRA:          -4.736
REMARK INTER:                  -4.643
REMARK INTRA:                  -0.093
REMARK UNBOUND:                -0.094
REMARK  4 active torsions:
REMARK  status: ('A' for Active; 'I' for Inactive)
REMARK    1  A    between atoms: C_1  and  O_7 
REMARK    2  A    between atoms: C_2  and  O_8 
REMARK    3  A    between atoms: C_3  and  O_10 
REMARK    4  A    between atoms: C_4  and  O_12 
ROOT
HETATM    1  C   UNL     1       5.968   9.267  45.089  1.00  0.00     0.290 C 
HETATM    2  C   UNL     1       5.354   8.584  46.307  1.00  0.00     0.204 C 
HETATM    3  C   UNL     1       6.092   7.274  46.568  1.00  0.00     0.183 C 
HETATM    4  C   UNL     1       7.599   7.513  46.708  1.00  0.00     0.178 C 
HETATM    5  C   UNL     1       8.103   8.201  45.441  1.00  0.00     0.152 C 
HETATM    6  C   UNL     1       9.574   8.548  45.473  1.00  0.00     0.042 C 
HETATM    7  O   UNL     1       7.370   9.431  45.263  1.00  0.00    -0.351 OA
ENDROOT
BRANCH   1   8
HETATM    8  O   UNL     1       5.685   8.477  43.969  1.00  0.00    -0.363 OA
HETATM    9  C   UNL     1       5.220   9.231  42.841  1.00  0.00     0.204 C 
ENDBRANCH   1   8
BRANCH   2  10
HETATM   10  O   UNL     1       3.970   8.336  46.068  1.00  0.00    -0.388 OA
ATOM     11  HO  UNL     1       3.585   7.865  46.798  1.00  0.00     0.210 HD
ENDBRANCH   2  10
BRANCH   3  12
HETATM   12  O   UNL     1       5.549   6.630  47.720  1.00  0.00    -0.390 OA
ATOM     13  HO  UNL     1       6.246   6.227  48.224  1.00  0.00     0.210 HD
ENDBRANCH   3  12
BRANCH   4  14
HETATM   14  O   UNL     1       7.863   8.364  47.826  1.00  0.00    -0.390 OA
ATOM     15  HO  UNL     1       7.658   7.913  48.637  1.00  0.00     0.210 HD
ENDBRANCH   4  14
TORSDOF 4
ENDMDL
MODEL 19
REMARK VINA RESULT:    -4.016      5.320      7.092
REMARK INTER + INTRA:          -4.697
REMARK INTER:                  -4.602
REMARK INTRA:                  -0.095
REMARK UNBOUND:                -0.094
REMARK  4 active torsions:
REMARK  status: ('A' for Active; 'I' for Inactive)
REMARK    1  A    between atoms: C_1  and  O_7 
REMARK    2  A    between atoms: C_2  and  O_8 
REMARK    3  A    between atoms: C_3  and  O_10 
REMARK    4  A    between atoms: C_4  and  O_12 
ROOT
HETATM    1  C   UNL     1       5.084  10.150  45.894  1.00  0.00     0.290 C 
HETATM    2  C   UNL     1       5.125  10.905  44.569  1.00  0.00     0.204 C 
HETATM    3  C   UNL     1       3.703  11.048  44.034  1.00  0.00     0.183 C 
HETATM    4  C   UNL     1       2.790  11.706  45.073  1.00  0.00     0.178 C 
HETATM    5  C   UNL     1       2.829  10.874  46.353  1.00  0.00     0.152 C 
HETATM    6  C   UNL     1       2.010  11.450  47.487  1.00  0.00     0.042 C 
HETATM    7  O   UNL     1       4.197  10.789  46.805  1.00  0.00    -0.351 OA
ENDROOT
BRANCH   1   8
HETATM    8  O   UNL     1       4.677   8.839  45.627  1.00  0.00    -0.363 OA
HETATM    9  C   UNL     1       5.424   7.850  46.351  1.00  0.00     0.204 C 
ENDBRANCH   1   8
BRANCH   2  10
HETATM   10  O   UNL     1       5.938  10.191  43.639  1.00  0.00    -0.388 OA
ATOM     11  HO  UNL     1       5.645  10.353  42.750  1.00  0.00     0.210 HD
ENDBRANCH   2  10
BRANCH   3  12
HETATM   12  O   UNL     1       3.716  11.773  42.805  1.00  0.00    -0.390 OA
ATOM     13  HO  UNL     1       2.900  12.249  42.702  1.00  0.00     0.210 HD
ENDBRANCH   3  12
BRANCH   4  14
HETATM   14  O   UNL     1       3.252  13.026  45.372  1.00  0.00    -0.390 OA
ATOM     15  HO  UNL     1       3.914  13.292  44.744  1.00  0.00     0.210 HD
ENDBRANCH   4  14
TORSDOF 4
ENDMDL
MODEL 20
REMARK VINA RESULT:    -4.011      2.349      3.638
REMARK INTER + INTRA:          -4.691
REMARK INTER:                  -4.619
REMARK INTRA:                  -0.072
REMARK UNBOUND:                -0.094
REMARK  4 active torsions:
REMARK  status: ('A' for Active; 'I' for Inactive)
REMARK    1  A    between atoms: C_1  and  O_7 
REMARK    2  A    between atoms: C_2  and  O_8 
REMARK    3  A    between atoms: C_3  and  O_10 
REMARK    4  A    between atoms: C_4  and  O_12 
ROOT
HETATM    1  C   UNL     1       1.230  14.278  43.419  1.00  0.00     0.290 C 
HETATM    2  C   UNL     1       1.160  15.686  42.835  1.00  0.00     0.204 C 
HETATM    3  C   UNL     1       0.026  15.746  41.816  1.00  0.00     0.183 C 
HETATM    4  C   UNL     1      -1.296  15.288  42.441  1.00  0.00     0.178 C 
HETATM    5  C   UNL     1      -1.110  13.877  42.994  1.00  0.00     0.152 C 
HETATM    6  C   UNL     1      -2.332  13.325  43.695  1.00  0.00     0.042 C 
HETATM    7  O   UNL     1      -0.032  13.897  43.953  1.00  0.00    -0.351 OA
ENDROOT
BRANCH   1   8
HETATM    8  O   UNL     1       1.631  13.411  42.397  1.00  0.00    -0.363 OA
HETATM    9  C   UNL     1       2.122  12.151  42.876  1.00  0.00     0.204 C 
ENDBRANCH   1   8
BRANCH   2  10
HETATM   10  O   UNL     1       2.404  16.007  42.214  1.00  0.00    -0.388 OA
ATOM     11  HO  UNL     1       2.733  16.837  42.538  1.00  0.00     0.210 HD
ENDBRANCH   2  10
BRANCH   3  12
HETATM   12  O   UNL     1      -0.073  17.063  41.275  1.00  0.00    -0.390 OA
ATOM     13  HO  UNL     1       0.170  17.054  40.356  1.00  0.00     0.210 HD
ENDBRANCH   3  12
BRANCH   4  14
HETATM   14  O   UNL     1      -1.662  16.157  43.517  1.00  0.00    -0.390 OA
ATOM     15  HO  UNL     1      -1.749  17.049  43.203  1.00  0.00     0.210 HD
ENDBRANCH   4  14
TORSDOF 4
ENDMDL
