REMARK  5 active torsions:
REMARK  status: ('A' for Active; 'I' for Inactive)
REMARK    1  A    between atoms: N_1  and  CA_2 
REMARK    2  A    between atoms: CA_2  and  C_3 
REMARK    3  A    between atoms: CA_2  and  CB_4 
REMARK    4  A    between atoms: C_3  and  O_8 
REMARK    5  A    between atoms: CB_4  and  CG_5 
ROOT
ATOM      1  CA  LEU A   1       0.236   0.616  -1.468  1.00  0.00     0.241 C 
ENDROOT
BRANCH   1   2
ATOM      2  N   LEU A   1       0.592   1.938  -0.946  1.00  0.00     0.085 N 
ATOM      3  H1  LEU A   1       1.588   1.923  -0.628  1.00  0.00     0.313 HD
ATOM      4  H2  LEU A   1      -0.010   2.183  -0.129  1.00  0.00     0.313 HD
ENDBRANCH   1   2
BRANCH   1   5
ATOM      5  C   LEU A   1      -1.197   0.604  -2.030  1.00  0.00     0.199 C 
BRANCH   5   6
ATOM      6  O   LEU A   1      -2.137   0.945  -1.052  1.00  0.00    -0.399 OA
ATOM      7  H   LEU A   1      -3.025   0.899  -1.494  1.00  0.00     0.209 HD
ENDBRANCH   5   6
ENDBRANCH   1   5
BRANCH   1   8
ATOM      8  CB  LEU A   1       0.545  -0.557  -0.485  1.00  0.00     0.041 C 
BRANCH   8   9
ATOM      9  CG  LEU A   1       0.452  -0.287   1.043  1.00  0.00    -0.021 C 
ATOM     10  CD1 LEU A   1      -0.993  -0.096   1.529  1.00  0.00     0.009 C 
ATOM     11  CD2 LEU A   1       1.092  -1.456   1.808  1.00  0.00     0.009 C 
ENDBRANCH   8   9
ENDBRANCH   1   8
TORSDOF 5
