REMARK  7 active torsions:
REMARK  status: ('A' for Active; 'I' for Inactive)
REMARK    1  A    between atoms: C_2  and  C_18 
REMARK    2  A    between atoms: C_3  and  N_35 
REMARK    3  A    between atoms: C_6  and  C_20 
REMARK    4  A    between atoms: C_10  and  C_11 
REMARK    5  A    between atoms: C_11  and  C_12 
REMARK    6  A    between atoms: C_11  and  N_30 
REMARK    7  A    between atoms: C_19  and  N_35 
ROOT
HETATM    1  C   UNL     1      49.939 -21.524 -12.141  1.00  0.00     0.061 C 
HETATM    2  C   UNL     1      49.644 -20.614 -10.939  1.00  0.00     0.151 C 
HETATM    3  N   UNL     1      50.243 -22.276 -12.946  1.00  0.00    -0.197 NA
ENDROOT
BRANCH   2   4
HETATM    4  C   UNL     1      50.170 -21.297  -9.651  1.00  0.00     0.124 C 
BRANCH   4   5
HETATM    5  C   UNL     1      49.785 -20.482  -8.382  1.00  0.00     0.011 C 
HETATM    6  C   UNL     1      50.356 -21.042  -7.242  1.00  0.00     0.007 C 
HETATM    7  C   UNL     1      49.178 -21.851  -6.510  1.00  0.00     0.000 C 
HETATM    8  C   UNL     1      47.808 -21.230  -7.077  1.00  0.00     0.000 C 
HETATM    9  C   UNL     1      48.126 -20.569  -8.255  1.00  0.00     0.007 C 
ENDBRANCH   4   5
BRANCH   4  10
HETATM   10  N   UNL     1      51.641 -21.395  -9.837  1.00  0.00    -0.297 N 
HETATM   11  C   UNL     1      52.264 -22.509 -10.175  1.00  0.00     0.125 A 
HETATM   12  C   UNL     1      53.628 -22.206 -10.271  1.00  0.00     0.026 A 
HETATM   13  C   UNL     1      53.728 -20.821  -9.995  1.00  0.00     0.122 A 
HETATM   14  N   UNL     1      52.503 -20.361  -9.747  1.00  0.00    -0.309 N 
ATOM     15  HN  UNL     1      52.259 -19.395  -9.527  1.00  0.00     0.186 HD
BRANCH  12  16
HETATM   16  C   UNL     1      54.760 -23.136 -10.721  1.00  0.00     0.076 A 
HETATM   17  C   UNL     1      54.601 -24.559 -10.896  1.00  0.00     0.038 A 
HETATM   18  C   UNL     1      53.577 -25.529 -10.668  1.00  0.00     0.034 A 
HETATM   19  C   UNL     1      55.668 -25.267 -11.385  1.00  0.00     0.133 A 
HETATM   20  C   UNL     1      54.095 -26.784 -11.024  1.00  0.00     0.090 A 
HETATM   21  N   UNL     1      55.343 -26.615 -11.435  1.00  0.00    -0.351 N 
ATOM     22  HN  UNL     1      55.968 -27.361 -11.741  1.00  0.00     0.166 HD
HETATM   23  N   UNL     1      56.838 -24.598 -11.696  1.00  0.00    -0.175 N 
HETATM   24  C   UNL     1      56.916 -23.294 -11.541  1.00  0.00     0.684 A 
ATOM     25  HN  UNL     1      57.643 -25.117 -12.047  1.00  0.00     0.186 HD
HETATM   26  N   UNL     1      55.908 -22.556 -11.094  1.00  0.00    -0.190 N 
ATOM     27  HN  UNL     1      56.008 -21.543 -11.034  1.00  0.00     0.184 HD
BRANCH  24  28
HETATM   28  N   UNL     1      58.174 -22.674 -11.920  1.00  0.00    -0.192 N 
ATOM     29  HN  UNL     1      58.872 -23.297 -12.327  1.00  0.00     0.184 HD
BRANCH  28  30
HETATM   30  C   UNL     1      58.567 -21.276 -11.793  1.00  0.00     0.049 A 
HETATM   31  C   UNL     1      59.890 -20.994 -12.217  1.00  0.00     0.030 A 
HETATM   32  C   UNL     1      60.362 -19.705 -12.158  1.00  0.00     0.010 A 
HETATM   33  C   UNL     1      59.540 -18.644 -11.669  1.00  0.00    -0.054 A 
HETATM   34  C   UNL     1      58.228 -18.915 -11.246  1.00  0.00     0.010 A 
HETATM   35  C   UNL     1      57.740 -20.245 -11.307  1.00  0.00     0.030 A 
BRANCH  33  36
HETATM   36  C   UNL     1      60.194 -17.241 -11.653  1.00  0.00     0.022 C 
HETATM   37  C   UNL     1      59.299 -16.621 -10.638  1.00  0.00     0.037 C 
HETATM   38  C   UNL     1      59.461 -15.106 -10.487  1.00  0.00     0.233 C 
HETATM   39  N   UNL     1      60.479 -14.544 -11.394  1.00  0.00    -0.075 N 
HETATM   40  C   UNL     1      60.229 -14.969 -12.799  1.00  0.00     0.233 C 
ATOM     41  HN2 UNL     1      61.424 -14.779 -11.092  1.00  0.00     0.277 HD
ATOM     42  HN1 UNL     1      60.538 -13.529 -11.312  1.00  0.00     0.277 HD
HETATM   43  C   UNL     1      60.370 -16.478 -12.935  1.00  0.00     0.037 C 
ENDBRANCH  33  36
ENDBRANCH  28  30
ENDBRANCH  24  28
ENDBRANCH  12  16
ENDBRANCH   4  10
ENDBRANCH   2   4
TORSDOF 7
