REMARK  14 active torsions:
REMARK  status: ('A' for Active; 'I' for Inactive)
REMARK    1  A    between atoms: C_1  and  N_33 
REMARK    2  A    between atoms: C_1  and  C_6 
REMARK    3  A    between atoms: C_1  and  C_10 
REMARK    4  A    between atoms: C_2  and  C_6 
REMARK    5  A    between atoms: C_5  and  O_41 
REMARK    6  A    between atoms: C_9  and  O_37 
REMARK       I    between atoms: C_10  and  N_31 
REMARK    7  A    between atoms: C_11  and  N_30 
REMARK    8  A    between atoms: C_12  and  C_13 
REMARK    9  A    between atoms: C_13  and  O_39 
REMARK   10  A    between atoms: C_18  and  O_37 
REMARK   11  A    between atoms: C_19  and  O_45 
REMARK   12  A    between atoms: C_20  and  O_47 
REMARK   13  A    between atoms: N_31  and  S_49 
REMARK   14  A    between atoms: O_39  and  S_49 
ROOT
HETATM    1  C   UNL     1      63.521  20.355  44.692  1.00  0.00     0.277 C 
HETATM    2  C   UNL     1      63.195  18.362  43.604  1.00  0.00     0.180 C 
HETATM    3  C   UNL     1      63.482  17.963  45.063  1.00  0.00     0.182 C 
HETATM    4  C   UNL     1      63.041  19.265  45.699  1.00  0.00     0.200 C 
HETATM    5  O   UNL     1      63.434  19.714  43.435  1.00  0.00    -0.352 OA
ENDROOT
BRANCH   2   6
HETATM    6  C   UNL     1      61.687  18.263  43.383  1.00  0.00     0.226 C 
BRANCH   6   7
HETATM    7  O   UNL     1      61.334  17.125  42.918  1.00  0.00    -0.257 OA
BRANCH   7   8
HETATM    8  S   UNL     1      60.267  16.090  43.798  1.00  0.00     0.364 S 
HETATM    9  O   UNL     1      59.815  16.761  44.956  1.00  0.00    -0.175 OA
HETATM   10  O   UNL     1      59.301  15.737  42.866  1.00  0.00    -0.175 OA
BRANCH   8  11
HETATM   11  N   UNL     1      61.329  14.862  44.086  1.00  0.00    -0.230 N 
HETATM   12  C   UNL     1      61.373  14.179  45.244  1.00  0.00     0.263 C 
HETATM   13  O   UNL     1      60.635  14.403  46.188  1.00  0.00    -0.270 OA
ATOM     14  HN  UNL     1      61.986  14.607  43.349  1.00  0.00     0.183 HD
BRANCH  12  15
HETATM   15  C   UNL     1      62.425  13.079  45.243  1.00  0.00     0.279 C 
BRANCH  15  16
HETATM   16  N   UNL     1      62.221  12.227  46.449  1.00  0.00    -0.066 N 
ATOM     17  HN3 UNL     1      61.315  11.760  46.424  1.00  0.00     0.275 HD
ATOM     18  HN2 UNL     1      62.825  11.405  46.429  1.00  0.00     0.275 HD
ATOM     19  HN1 UNL     1      62.342  12.756  47.313  1.00  0.00     0.275 HD
ENDBRANCH  15  16
BRANCH  15  20
HETATM   20  C   UNL     1      62.239  12.268  43.919  1.00  0.00     0.081 C 
BRANCH  20  21
HETATM   21  C   UNL     1      63.310  11.191  43.757  1.00  0.00    -0.056 A 
HETATM   22  C   UNL     1      64.648  11.577  43.756  1.00  0.00     0.010 A 
HETATM   23  C   UNL     1      65.686  10.653  43.628  1.00  0.00     0.037 A 
HETATM   24  C   UNL     1      65.389   9.278  43.443  1.00  0.00     0.065 A 
HETATM   25  C   UNL     1      64.049   8.847  43.455  1.00  0.00     0.037 A 
HETATM   26  C   UNL     1      63.005   9.790  43.605  1.00  0.00     0.010 A 
BRANCH  24  27
HETATM   27  O   UNL     1      66.408   8.378  43.323  1.00  0.00    -0.361 OA
ATOM     28  HO  UNL     1      66.209   7.457  43.199  1.00  0.00     0.217 HD
ENDBRANCH  24  27
ENDBRANCH  20  21
ENDBRANCH  15  20
ENDBRANCH  12  15
ENDBRANCH   8  11
ENDBRANCH   7   8
ENDBRANCH   6   7
ENDBRANCH   2   6
BRANCH   3  29
HETATM   29  O   UNL     1      64.847  17.771  45.264  1.00  0.00    -0.390 OA
ATOM     30  HO  UNL     1      65.124  16.954  44.865  1.00  0.00     0.210 HD
ENDBRANCH   3  29
BRANCH   4  31
HETATM   31  O   UNL     1      63.752  19.409  46.890  1.00  0.00    -0.388 OA
ATOM     32  HO  UNL     1      63.475  20.226  47.289  1.00  0.00     0.210 HD
ENDBRANCH   4  31
BRANCH   1  33
HETATM   33  N   UNL     1      62.588  21.480  44.859  1.00  0.00    -0.241 N 
HETATM   34  N   UNL     1      61.222  21.345  44.759  1.00  0.00    -0.273 N 
HETATM   35  C   UNL     1      60.678  22.552  45.100  1.00  0.00     0.180 A 
ATOM     36  HN  UNL     1      60.713  20.505  44.483  1.00  0.00     0.189 HD
HETATM   37  C   UNL     1      61.720  23.471  45.498  1.00  0.00     0.103 A 
HETATM   38  C   UNL     1      61.836  24.840  45.955  1.00  0.00     0.135 A 
HETATM   39  C   UNL     1      62.927  22.740  45.352  1.00  0.00     0.143 A 
HETATM   40  N   UNL     1      60.707  25.642  46.135  1.00  0.00    -0.082 NA
HETATM   41  N   UNL     1      63.070  25.310  46.242  1.00  0.00    -0.340 N 
HETATM   42  C   UNL     1      64.183  24.510  46.073  1.00  0.00     0.183 A 
ATOM     43  HN  UNL     1      63.180  26.264  46.586  1.00  0.00     0.167 HD
HETATM   44  N   UNL     1      64.176  23.222  45.633  1.00  0.00    -0.336 N 
ATOM     45  HN  UNL     1      65.025  22.667  45.523  1.00  0.00     0.168 HD
BRANCH  35  46
HETATM   46  O   UNL     1      59.339  22.803  45.076  1.00  0.00    -0.271 OA
BRANCH  46  47
HETATM   47  C   UNL     1      58.498  22.052  44.245  1.00  0.00     0.506 C 
HETATM   48  F   UNL     1      58.828  22.322  42.965  1.00  0.00    -0.184 F 
HETATM   49  F   UNL     1      57.262  22.564  44.410  1.00  0.00    -0.184 F 
ENDBRANCH  46  47
ENDBRANCH  35  46
ENDBRANCH   1  33
TORSDOF 14
