REMARK  1 active torsions:
REMARK  status: ('A' for Active; 'I' for Inactive)
REMARK    1  A    between atoms: C_2  and  C_3 
ROOT
HETATM    1  O   UNL     1      14.184  16.747  47.133  1.00  0.00    -0.375 OA
HETATM    2  C   UNL     1      15.495  16.414  46.703  1.00  0.00     0.222 C 
HETATM    3  C   UNL     1      16.442  16.376  47.861  1.00  0.00     0.045 C 
HETATM    4  C   UNL     1      15.561  16.313  49.075  1.00  0.00     0.029 C 
HETATM    5  C   UNL     1      14.155  16.651  48.571  1.00  0.00     0.169 C 
ENDROOT
BRANCH   2   6
HETATM    6  C   UNL     1      15.383  15.016  46.090  1.00  0.00     0.203 C 
HETATM    7  O   UNL     1      14.342  14.328  46.294  1.00  0.00    -0.646 OA
HETATM    8  O   UNL     1      16.333  14.554  45.410  1.00  0.00    -0.646 OA
ENDBRANCH   2   6
TORSDOF 1
