MODEL 1
REMARK VINA RESULT:    -7.244      0.000      0.000
REMARK INTER + INTRA:          -7.667
REMARK INTER:                  -7.667
REMARK INTRA:                   0.000
REMARK UNBOUND:                 0.000
REMARK  2 active torsions:
REMARK  status: ('A' for Active; 'I' for Inactive)
REMARK    1  A    between atoms: C_4  and  N_5 
REMARK    2  A    between atoms: C_10  and  O_11 
ROOT
HETATM    1  C   UNL     1      33.611  37.602  27.166  1.00  0.00     0.166 A 
HETATM    2  N   UNL     1      33.326  36.261  26.945  1.00  0.00    -0.173 N 
ATOM      3  HN  UNL     1      34.055  35.553  27.031  1.00  0.00     0.186 HD
HETATM    4  C   UNL     1      32.100  35.925  26.624  1.00  0.00     0.679 A 
HETATM    5  N   UNL     1      31.084  36.823  26.489  1.00  0.00    -0.168 N 
ATOM      6  HN  UNL     1      30.163  36.492  26.203  1.00  0.00     0.186 HD
HETATM    7  C   UNL     1      31.263  38.117  26.721  1.00  0.00     0.187 A 
HETATM    8  C   UNL     1      32.570  38.605  27.093  1.00  0.00     0.143 A 
HETATM    9  N   UNL     1      33.142  39.750  27.344  1.00  0.00    -0.277 N 
ATOM     10  HN  UNL     1      32.663  40.649  27.312  1.00  0.00     0.184 HD
HETATM   11  N   UNL     1      34.464  39.595  27.657  1.00  0.00    -0.020 NA
HETATM   12  N   UNL     1      34.740  38.204  27.538  1.00  0.00    -0.267 N 
ATOM     13  HN  UNL     1      35.638  37.751  27.706  1.00  0.00     0.186 HD
ENDROOT
BRANCH   4  14
HETATM   14  N   UNL     1      31.845  34.618  26.370  1.00  0.00    -0.234 N 
ATOM     15  HN2 UNL     1      32.466  33.920  26.777  1.00  0.00     0.174 HD
ATOM     16  HN1 UNL     1      31.064  34.387  25.755  1.00  0.00     0.174 HD
ENDBRANCH   4  14
BRANCH   7  17
HETATM   17  O   UNL     1      30.229  38.944  26.609  1.00  0.00    -0.344 OA
ATOM     18  HO  UNL     1      29.630  39.080  27.334  1.00  0.00     0.219 HD
ENDBRANCH   7  17
TORSDOF 2
ENDMDL
MODEL 2
REMARK VINA RESULT:    -7.010      1.767      3.244
REMARK INTER + INTRA:          -7.420
REMARK INTER:                  -7.420
REMARK INTRA:                   0.000
REMARK UNBOUND:                 0.000
REMARK  2 active torsions:
REMARK  status: ('A' for Active; 'I' for Inactive)
REMARK    1  A    between atoms: C_4  and  N_5 
REMARK    2  A    between atoms: C_10  and  O_11 
ROOT
HETATM    1  C   UNL     1      32.706  38.719  27.052  1.00  0.00     0.166 A 
HETATM    2  N   UNL     1      34.060  38.653  27.351  1.00  0.00    -0.173 N 
ATOM      3  HN  UNL     1      34.611  39.504  27.459  1.00  0.00     0.186 HD
HETATM    4  C   UNL     1      34.614  37.474  27.492  1.00  0.00     0.679 A 
HETATM    5  N   UNL     1      33.933  36.301  27.356  1.00  0.00    -0.168 N 
ATOM      6  HN  UNL     1      34.439  35.419  27.446  1.00  0.00     0.186 HD
HETATM    7  C   UNL     1      32.630  36.277  27.110  1.00  0.00     0.187 A 
HETATM    8  C   UNL     1      31.908  37.516  26.944  1.00  0.00     0.143 A 
HETATM    9  N   UNL     1      30.695  37.901  26.658  1.00  0.00    -0.277 N 
ATOM     10  HN  UNL     1      29.921  37.264  26.472  1.00  0.00     0.184 HD
HETATM   11  N   UNL     1      30.590  39.264  26.639  1.00  0.00    -0.020 NA
HETATM   12  N   UNL     1      31.896  39.767  26.898  1.00  0.00    -0.267 N 
ATOM     13  HN  UNL     1      32.164  40.749  26.955  1.00  0.00     0.186 HD
ENDROOT
BRANCH   4  14
HETATM   14  N   UNL     1      35.946  37.422  27.743  1.00  0.00    -0.234 N 
ATOM     15  HN2 UNL     1      36.395  36.507  27.755  1.00  0.00     0.174 HD
ATOM     16  HN1 UNL     1      36.436  38.294  27.942  1.00  0.00     0.174 HD
ENDBRANCH   4  14
BRANCH   7  17
HETATM   17  O   UNL     1      32.009  35.105  27.021  1.00  0.00    -0.344 OA
ATOM     18  HO  UNL     1      31.946  34.645  26.193  1.00  0.00     0.219 HD
ENDBRANCH   7  17
TORSDOF 2
ENDMDL
MODEL 3
REMARK VINA RESULT:    -7.007      1.765      2.839
REMARK INTER + INTRA:          -7.417
REMARK INTER:                  -7.417
REMARK INTRA:                   0.000
REMARK UNBOUND:                 0.000
REMARK  2 active torsions:
REMARK  status: ('A' for Active; 'I' for Inactive)
REMARK    1  A    between atoms: C_4  and  N_5 
REMARK    2  A    between atoms: C_10  and  O_11 
ROOT
HETATM    1  C   UNL     1      33.537  37.995  27.179  1.00  0.00     0.166 A 
HETATM    2  N   UNL     1      32.394  38.745  26.936  1.00  0.00    -0.173 N 
ATOM      3  HN  UNL     1      32.434  39.763  26.918  1.00  0.00     0.186 HD
HETATM    4  C   UNL     1      31.263  38.115  26.732  1.00  0.00     0.679 A 
HETATM    5  N   UNL     1      31.143  36.757  26.749  1.00  0.00    -0.168 N 
ATOM      6  HN  UNL     1      30.222  36.338  26.616  1.00  0.00     0.186 HD
HETATM    7  C   UNL     1      32.193  35.968  26.934  1.00  0.00     0.187 A 
HETATM    8  C   UNL     1      33.496  36.548  27.160  1.00  0.00     0.143 A 
HETATM    9  N   UNL     1      34.707  36.140  27.420  1.00  0.00    -0.277 N 
ATOM     10  HN  UNL     1      34.972  35.161  27.523  1.00  0.00     0.184 HD
HETATM   11  N   UNL     1      35.578  37.188  27.537  1.00  0.00    -0.020 NA
HETATM   12  N   UNL     1      34.801  38.369  27.375  1.00  0.00    -0.267 N 
ATOM     13  HN  UNL     1      35.149  39.328  27.404  1.00  0.00     0.186 HD
ENDROOT
BRANCH   4  14
HETATM   14  N   UNL     1      30.146  38.859  26.538  1.00  0.00    -0.234 N 
ATOM     15  HN2 UNL     1      30.136  39.512  25.755  1.00  0.00     0.174 HD
ATOM     16  HN1 UNL     1      29.377  38.761  27.200  1.00  0.00     0.174 HD
ENDBRANCH   4  14
BRANCH   7  17
HETATM   17  O   UNL     1      32.026  34.650  26.906  1.00  0.00    -0.344 OA
ATOM     18  HO  UNL     1      31.383  34.226  27.463  1.00  0.00     0.219 HD
ENDBRANCH   7  17
TORSDOF 2
ENDMDL
MODEL 4
REMARK VINA RESULT:    -6.925      1.866      2.598
REMARK INTER + INTRA:          -7.330
REMARK INTER:                  -7.330
REMARK INTRA:                   0.000
REMARK UNBOUND:                 0.000
REMARK  2 active torsions:
REMARK  status: ('A' for Active; 'I' for Inactive)
REMARK    1  A    between atoms: C_4  and  N_5 
REMARK    2  A    between atoms: C_10  and  O_11 
ROOT
HETATM    1  C   UNL     1      32.043  38.271  26.943  1.00  0.00     0.166 A 
HETATM    2  N   UNL     1      31.491  37.025  26.679  1.00  0.00    -0.173 N 
ATOM      3  HN  UNL     1      30.505  36.934  26.436  1.00  0.00     0.186 HD
HETATM    4  C   UNL     1      32.264  35.969  26.748  1.00  0.00     0.679 A 
HETATM    5  N   UNL     1      33.587  36.024  27.072  1.00  0.00    -0.168 N 
ATOM      6  HN  UNL     1      34.119  35.156  27.141  1.00  0.00     0.186 HD
HETATM    7  C   UNL     1      34.200  37.178  27.300  1.00  0.00     0.187 A 
HETATM    8  C   UNL     1      33.453  38.412  27.242  1.00  0.00     0.143 A 
HETATM    9  N   UNL     1      33.663  39.683  27.441  1.00  0.00    -0.277 N 
ATOM     10  HN  UNL     1      34.560  40.079  27.722  1.00  0.00     0.184 HD
HETATM   11  N   UNL     1      32.532  40.421  27.227  1.00  0.00    -0.020 NA
HETATM   12  N   UNL     1      31.505  39.489  26.905  1.00  0.00    -0.267 N 
ATOM     13  HN  UNL     1      30.535  39.714  26.685  1.00  0.00     0.186 HD
ENDROOT
BRANCH   4  14
HETATM   14  N   UNL     1      31.704  34.753  26.529  1.00  0.00    -0.234 N 
ATOM     15  HN2 UNL     1      30.922  34.473  27.121  1.00  0.00     0.174 HD
ATOM     16  HN1 UNL     1      32.106  34.156  25.807  1.00  0.00     0.174 HD
ENDBRANCH   4  14
BRANCH   7  17
HETATM   17  O   UNL     1      35.500  37.177  27.578  1.00  0.00    -0.344 OA
ATOM     18  HO  UNL     1      35.826  37.536  28.395  1.00  0.00     0.219 HD
ENDBRANCH   7  17
TORSDOF 2
ENDMDL
MODEL 5
REMARK VINA RESULT:    -6.760      0.981      3.377
REMARK INTER + INTRA:          -7.155
REMARK INTER:                  -7.155
REMARK INTRA:                   0.000
REMARK UNBOUND:                 0.000
REMARK  2 active torsions:
REMARK  status: ('A' for Active; 'I' for Inactive)
REMARK    1  A    between atoms: C_4  and  N_5 
REMARK    2  A    between atoms: C_10  and  O_11 
ROOT
HETATM    1  C   UNL     1      33.167  37.399  27.217  1.00  0.00     0.166 A 
HETATM    2  N   UNL     1      33.990  38.507  27.360  1.00  0.00    -0.173 N 
ATOM      3  HN  UNL     1      34.985  38.395  27.555  1.00  0.00     0.186 HD
HETATM    4  C   UNL     1      33.462  39.701  27.237  1.00  0.00     0.679 A 
HETATM    5  N   UNL     1      32.141  39.917  26.981  1.00  0.00    -0.168 N 
ATOM      6  HN  UNL     1      31.794  40.875  26.933  1.00  0.00     0.186 HD
HETATM    7  C   UNL     1      31.295  38.912  26.792  1.00  0.00     0.187 A 
HETATM    8  C   UNL     1      31.764  37.551  26.892  1.00  0.00     0.143 A 
HETATM    9  N   UNL     1      31.267  36.346  26.828  1.00  0.00    -0.277 N 
ATOM     10  HN  UNL     1      30.282  36.141  26.665  1.00  0.00     0.184 HD
HETATM   11  N   UNL     1      32.231  35.393  27.006  1.00  0.00    -0.020 NA
HETATM   12  N   UNL     1      33.445  36.096  27.252  1.00  0.00    -0.267 N 
ATOM     13  HN  UNL     1      34.359  35.678  27.423  1.00  0.00     0.186 HD
ENDROOT
BRANCH   4  14
HETATM   14  N   UNL     1      34.268  40.776  27.420  1.00  0.00    -0.234 N 
ATOM     15  HN2 UNL     1      35.106  40.655  27.988  1.00  0.00     0.174 HD
ATOM     16  HN1 UNL     1      33.987  41.668  27.012  1.00  0.00     0.174 HD
ENDBRANCH   4  14
BRANCH   7  17
HETATM   17  O   UNL     1      30.024  39.180  26.510  1.00  0.00    -0.344 OA
ATOM     18  HO  UNL     1      29.767  39.477  25.646  1.00  0.00     0.219 HD
ENDBRANCH   7  17
TORSDOF 2
ENDMDL
MODEL 6
REMARK VINA RESULT:    -6.649      1.992      4.181
REMARK INTER + INTRA:          -7.037
REMARK INTER:                  -7.037
REMARK INTRA:                   0.000
REMARK UNBOUND:                 0.000
REMARK  2 active torsions:
REMARK  status: ('A' for Active; 'I' for Inactive)
REMARK    1  A    between atoms: C_4  and  N_5 
REMARK    2  A    between atoms: C_10  and  O_11 
ROOT
HETATM    1  C   UNL     1      32.147  37.666  26.949  1.00  0.00     0.166 A 
HETATM    2  N   UNL     1      31.986  39.044  26.978  1.00  0.00    -0.173 N 
ATOM      3  HN  UNL     1      31.071  39.465  26.821  1.00  0.00     0.186 HD
HETATM    4  C   UNL     1      33.037  39.793  27.212  1.00  0.00     0.679 A 
HETATM    5  N   UNL     1      34.286  39.292  27.425  1.00  0.00    -0.168 N 
ATOM      6  HN  UNL     1      35.064  39.938  27.567  1.00  0.00     0.186 HD
HETATM    7  C   UNL     1      34.517  37.986  27.453  1.00  0.00     0.187 A 
HETATM    8  C   UNL     1      33.434  37.061  27.219  1.00  0.00     0.143 A 
HETATM    9  N   UNL     1      33.265  35.771  27.118  1.00  0.00    -0.277 N 
ATOM     10  HN  UNL     1      34.015  35.087  27.206  1.00  0.00     0.184 HD
HETATM   11  N   UNL     1      31.957  35.451  26.879  1.00  0.00    -0.020 NA
HETATM   12  N   UNL     1      31.259  36.687  26.777  1.00  0.00    -0.267 N 
ATOM     13  HN  UNL     1      30.260  36.803  26.604  1.00  0.00     0.186 HD
ENDROOT
BRANCH   4  14
HETATM   14  N   UNL     1      32.875  41.139  27.196  1.00  0.00    -0.234 N 
ATOM     15  HN2 UNL     1      33.705  41.723  27.304  1.00  0.00     0.174 HD
ATOM     16  HN1 UNL     1      31.930  41.514  27.111  1.00  0.00     0.174 HD
ENDBRANCH   4  14
BRANCH   7  17
HETATM   17  O   UNL     1      35.749  37.551  27.700  1.00  0.00    -0.344 OA
ATOM     18  HO  UNL     1      36.331  38.031  28.276  1.00  0.00     0.219 HD
ENDBRANCH   7  17
TORSDOF 2
ENDMDL
MODEL 7
REMARK VINA RESULT:    -6.528      1.977      3.148
REMARK INTER + INTRA:          -6.910
REMARK INTER:                  -6.910
REMARK INTRA:                   0.000
REMARK UNBOUND:                 0.000
REMARK  2 active torsions:
REMARK  status: ('A' for Active; 'I' for Inactive)
REMARK    1  A    between atoms: C_4  and  N_5 
REMARK    2  A    between atoms: C_10  and  O_11 
ROOT
HETATM    1  C   UNL     1      32.032  38.047  26.911  1.00  0.00     0.166 A 
HETATM    2  N   UNL     1      32.880  36.952  27.003  1.00  0.00    -0.173 N 
ATOM      3  HN  UNL     1      32.527  36.006  26.857  1.00  0.00     0.186 HD
HETATM    4  C   UNL     1      34.145  37.158  27.281  1.00  0.00     0.679 A 
HETATM    5  N   UNL     1      34.677  38.395  27.492  1.00  0.00    -0.168 N 
ATOM      6  HN  UNL     1      35.663  38.477  27.739  1.00  0.00     0.186 HD
HETATM    7  C   UNL     1      33.944  39.496  27.384  1.00  0.00     0.187 A 
HETATM    8  C   UNL     1      32.538  39.394  27.070  1.00  0.00     0.143 A 
HETATM    9  N   UNL     1      31.515  40.192  26.932  1.00  0.00    -0.277 N 
ATOM     10  HN  UNL     1      31.559  41.204  27.044  1.00  0.00     0.184 HD
HETATM   11  N   UNL     1      30.377  39.502  26.616  1.00  0.00    -0.020 NA
HETATM   12  N   UNL     1      30.738  38.125  26.607  1.00  0.00    -0.267 N 
ATOM     13  HN  UNL     1      30.117  37.341  26.404  1.00  0.00     0.186 HD
ENDROOT
BRANCH   4  14
HETATM   14  N   UNL     1      34.953  36.078  27.410  1.00  0.00    -0.234 N 
ATOM     15  HN2 UNL     1      34.952  35.386  26.661  1.00  0.00     0.174 HD
ATOM     16  HN1 UNL     1      35.503  35.982  28.264  1.00  0.00     0.174 HD
ENDBRANCH   4  14
BRANCH   7  17
HETATM   17  O   UNL     1      34.521  40.679  27.565  1.00  0.00    -0.344 OA
ATOM     18  HO  UNL     1      34.006  41.478  27.582  1.00  0.00     0.219 HD
ENDBRANCH   7  17
TORSDOF 2
ENDMDL
MODEL 8
REMARK VINA RESULT:    -6.362      1.448      2.136
REMARK INTER + INTRA:          -6.733
REMARK INTER:                  -6.733
REMARK INTRA:                   0.000
REMARK UNBOUND:                 0.000
REMARK  2 active torsions:
REMARK  status: ('A' for Active; 'I' for Inactive)
REMARK    1  A    between atoms: C_4  and  N_5 
REMARK    2  A    between atoms: C_10  and  O_11 
ROOT
HETATM    1  C   UNL     1      34.154  39.436  27.456  1.00  0.00     0.166 A 
HETATM    2  N   UNL     1      34.898  38.267  27.542  1.00  0.00    -0.173 N 
ATOM      3  HN  UNL     1      35.888  38.298  27.783  1.00  0.00     0.186 HD
HETATM    4  C   UNL     1      34.301  37.124  27.308  1.00  0.00     0.679 A 
HETATM    5  N   UNL     1      32.983  37.017  26.976  1.00  0.00    -0.168 N 
ATOM      6  HN  UNL     1      32.595  36.096  26.773  1.00  0.00     0.186 HD
HETATM    7  C   UNL     1      32.193  38.081  26.911  1.00  0.00     0.187 A 
HETATM    8  C   UNL     1      32.737  39.395  27.160  1.00  0.00     0.143 A 
HETATM    9  N   UNL     1      32.326  40.633  27.146  1.00  0.00    -0.277 N 
ATOM     10  HN  UNL     1      31.376  40.919  26.914  1.00  0.00     0.184 HD
HETATM   11  N   UNL     1      33.328  41.500  27.483  1.00  0.00    -0.020 NA
HETATM   12  N   UNL     1      34.492  40.705  27.679  1.00  0.00    -0.267 N 
ATOM     13  HN  UNL     1      35.417  41.045  27.944  1.00  0.00     0.186 HD
ENDROOT
BRANCH   4  14
HETATM   14  N   UNL     1      35.049  35.994  27.354  1.00  0.00    -0.234 N 
ATOM     15  HN2 UNL     1      34.584  35.105  27.173  1.00  0.00     0.174 HD
ATOM     16  HN1 UNL     1      36.035  36.075  27.600  1.00  0.00     0.174 HD
ENDBRANCH   4  14
BRANCH   7  17
HETATM   17  O   UNL     1      30.907  37.916  26.617  1.00  0.00    -0.344 OA
ATOM     18  HO  UNL     1      30.633  37.302  25.947  1.00  0.00     0.219 HD
ENDBRANCH   7  17
TORSDOF 2
ENDMDL
MODEL 9
REMARK VINA RESULT:    -6.103      1.327      3.459
REMARK INTER + INTRA:          -6.460
REMARK INTER:                  -6.460
REMARK INTRA:                   0.000
REMARK UNBOUND:                 0.000
REMARK  2 active torsions:
REMARK  status: ('A' for Active; 'I' for Inactive)
REMARK    1  A    between atoms: C_4  and  N_5 
REMARK    2  A    between atoms: C_10  and  O_11 
ROOT
HETATM    1  C   UNL     1      33.453  36.560  27.191  1.00  0.00     0.166 A 
HETATM    2  N   UNL     1      34.756  36.784  27.615  1.00  0.00    -0.173 N 
ATOM      3  HN  UNL     1      35.401  36.006  27.748  1.00  0.00     0.186 HD
HETATM    4  C   UNL     1      35.138  38.017  27.841  1.00  0.00     0.679 A 
HETATM    5  N   UNL     1      34.323  39.099  27.687  1.00  0.00    -0.168 N 
ATOM      6  HN  UNL     1      34.680  40.027  27.915  1.00  0.00     0.186 HD
HETATM    7  C   UNL     1      33.077  38.975  27.248  1.00  0.00     0.187 A 
HETATM    8  C   UNL     1      32.547  37.664  26.956  1.00  0.00     0.143 A 
HETATM    9  N   UNL     1      31.416  37.139  26.572  1.00  0.00    -0.277 N 
ATOM     10  HN  UNL     1      30.570  37.676  26.383  1.00  0.00     0.184 HD
HETATM   11  N   UNL     1      31.505  35.780  26.455  1.00  0.00    -0.020 NA
HETATM   12  N   UNL     1      32.826  35.433  26.856  1.00  0.00    -0.267 N 
ATOM     13  HN  UNL     1      33.220  34.492  26.883  1.00  0.00     0.186 HD
ENDROOT
BRANCH   4  14
HETATM   14  N   UNL     1      36.400  38.220  28.295  1.00  0.00    -0.234 N 
ATOM     15  HN2 UNL     1      36.519  38.740  29.164  1.00  0.00     0.174 HD
ATOM     16  HN1 UNL     1      37.179  37.874  27.734  1.00  0.00     0.174 HD
ENDBRANCH   4  14
BRANCH   7  17
HETATM   17  O   UNL     1      32.337  40.066  27.083  1.00  0.00    -0.344 OA
ATOM     18  HO  UNL     1      31.566  40.055  26.528  1.00  0.00     0.219 HD
ENDBRANCH   7  17
TORSDOF 2
ENDMDL
MODEL 10
REMARK VINA RESULT:    -6.095      2.317      2.987
REMARK INTER + INTRA:          -6.451
REMARK INTER:                  -6.451
REMARK INTRA:                   0.000
REMARK UNBOUND:                 0.000
REMARK  2 active torsions:
REMARK  status: ('A' for Active; 'I' for Inactive)
REMARK    1  A    between atoms: C_4  and  N_5 
REMARK    2  A    between atoms: C_10  and  O_11 
ROOT
HETATM    1  C   UNL     1      33.055  38.894  27.253  1.00  0.00     0.166 A 
HETATM    2  N   UNL     1      32.508  37.665  26.911  1.00  0.00    -0.173 N 
ATOM      3  HN  UNL     1      31.535  37.594  26.613  1.00  0.00     0.186 HD
HETATM    4  C   UNL     1      33.268  36.599  26.978  1.00  0.00     0.679 A 
HETATM    5  N   UNL     1      34.573  36.628  27.373  1.00  0.00    -0.168 N 
ATOM      6  HN  UNL     1      35.093  35.753  27.435  1.00  0.00     0.186 HD
HETATM    7  C   UNL     1      35.182  37.766  27.679  1.00  0.00     0.187 A 
HETATM    8  C   UNL     1      34.449  39.009  27.631  1.00  0.00     0.143 A 
HETATM    9  N   UNL     1      34.658  40.269  27.892  1.00  0.00    -0.277 N 
ATOM     10  HN  UNL     1      35.542  40.644  28.235  1.00  0.00     0.184 HD
HETATM   11  N   UNL     1      33.546  41.027  27.648  1.00  0.00    -0.020 NA
HETATM   12  N   UNL     1      32.530  40.119  27.236  1.00  0.00    -0.267 N 
ATOM     13  HN  UNL     1      31.574  40.361  26.976  1.00  0.00     0.186 HD
ENDROOT
BRANCH   4  14
HETATM   14  N   UNL     1      32.710  35.399  26.682  1.00  0.00    -0.234 N 
ATOM     15  HN2 UNL     1      32.174  35.321  25.818  1.00  0.00     0.174 HD
ATOM     16  HN1 UNL     1      32.820  34.635  27.349  1.00  0.00     0.174 HD
ENDBRANCH   4  14
BRANCH   7  17
HETATM   17  O   UNL     1      36.466  37.742  28.023  1.00  0.00    -0.344 OA
ATOM     18  HO  UNL     1      37.150  37.807  27.368  1.00  0.00     0.219 HD
ENDBRANCH   7  17
TORSDOF 2
ENDMDL
MODEL 11
REMARK VINA RESULT:    -6.030      2.152      3.614
REMARK INTER + INTRA:          -6.382
REMARK INTER:                  -6.382
REMARK INTRA:                   0.000
REMARK UNBOUND:                 0.000
REMARK  2 active torsions:
REMARK  status: ('A' for Active; 'I' for Inactive)
REMARK    1  A    between atoms: C_4  and  N_5 
REMARK    2  A    between atoms: C_10  and  O_11 
ROOT
HETATM    1  C   UNL     1      33.559  39.361  27.483  1.00  0.00     0.166 A 
HETATM    2  N   UNL     1      34.864  39.365  27.957  1.00  0.00    -0.173 N 
ATOM      3  HN  UNL     1      35.314  40.236  28.236  1.00  0.00     0.186 HD
HETATM    4  C   UNL     1      35.505  38.224  28.037  1.00  0.00     0.679 A 
HETATM    5  N   UNL     1      34.962  37.028  27.675  1.00  0.00    -0.168 N 
ATOM      6  HN  UNL     1      35.534  36.184  27.731  1.00  0.00     0.186 HD
HETATM    7  C   UNL     1      33.709  36.932  27.250  1.00  0.00     0.187 A 
HETATM    8  C   UNL     1      32.899  38.121  27.130  1.00  0.00     0.143 A 
HETATM    9  N   UNL     1      31.701  38.442  26.726  1.00  0.00    -0.277 N 
ATOM     10  HN  UNL     1      31.021  37.775  26.363  1.00  0.00     0.184 HD
HETATM   11  N   UNL     1      31.470  39.784  26.849  1.00  0.00    -0.020 NA
HETATM   12  N   UNL     1      32.679  40.352  27.341  1.00  0.00    -0.267 N 
ATOM     13  HN  UNL     1      32.843  41.337  27.546  1.00  0.00     0.186 HD
ENDROOT
BRANCH   4  14
HETATM   14  N   UNL     1      36.793  38.247  28.460  1.00  0.00    -0.234 N 
ATOM     15  HN2 UNL     1      37.236  39.155  28.598  1.00  0.00     0.174 HD
ATOM     16  HN1 UNL     1      37.277  37.358  28.591  1.00  0.00     0.174 HD
ENDBRANCH   4  14
BRANCH   7  17
HETATM   17  O   UNL     1      33.218  35.735  26.944  1.00  0.00    -0.344 OA
ATOM     18  HO  UNL     1      33.582  34.945  27.325  1.00  0.00     0.219 HD
ENDBRANCH   7  17
TORSDOF 2
ENDMDL
MODEL 12
REMARK VINA RESULT:    -5.724      2.759      3.535
REMARK INTER + INTRA:          -6.058
REMARK INTER:                  -6.058
REMARK INTRA:                   0.000
REMARK UNBOUND:                 0.000
REMARK  2 active torsions:
REMARK  status: ('A' for Active; 'I' for Inactive)
REMARK    1  A    between atoms: C_4  and  N_5 
REMARK    2  A    between atoms: C_10  and  O_11 
ROOT
HETATM    1  C   UNL     1      33.795  39.417  27.525  1.00  0.00     0.166 A 
HETATM    2  N   UNL     1      33.247  38.215  27.100  1.00  0.00    -0.173 N 
ATOM      3  HN  UNL     1      32.300  38.179  26.722  1.00  0.00     0.186 HD
HETATM    4  C   UNL     1      33.971  37.126  27.194  1.00  0.00     0.679 A 
HETATM    5  N   UNL     1      35.239  37.107  27.695  1.00  0.00    -0.168 N 
ATOM      6  HN  UNL     1      35.730  36.215  27.771  1.00  0.00     0.186 HD
HETATM    7  C   UNL     1      35.850  38.217  28.086  1.00  0.00     0.187 A 
HETATM    8  C   UNL     1      35.155  39.481  28.019  1.00  0.00     0.143 A 
HETATM    9  N   UNL     1      35.374  40.727  28.336  1.00  0.00    -0.277 N 
ATOM     10  HN  UNL     1      36.236  41.066  28.762  1.00  0.00     0.184 HD
HETATM   11  N   UNL     1      34.305  41.522  28.027  1.00  0.00    -0.020 NA
HETATM   12  N   UNL     1      33.304  40.655  27.505  1.00  0.00    -0.267 N 
ATOM     13  HN  UNL     1      32.380  40.933  27.175  1.00  0.00     0.186 HD
ENDROOT
BRANCH   4  14
HETATM   14  N   UNL     1      33.409  35.952  26.815  1.00  0.00    -0.234 N 
ATOM     15  HN2 UNL     1      33.587  35.620  25.867  1.00  0.00     0.174 HD
ATOM     16  HN1 UNL     1      32.807  35.466  27.479  1.00  0.00     0.174 HD
ENDBRANCH   4  14
BRANCH   7  17
HETATM   17  O   UNL     1      37.100  38.146  28.533  1.00  0.00    -0.344 OA
ATOM     18  HO  UNL     1      37.375  37.441  29.106  1.00  0.00     0.219 HD
ENDBRANCH   7  17
TORSDOF 2
ENDMDL
MODEL 13
REMARK VINA RESULT:    -5.656      2.492      4.570
REMARK INTER + INTRA:          -5.987
REMARK INTER:                  -5.987
REMARK INTRA:                   0.000
REMARK UNBOUND:                 0.000
REMARK  2 active torsions:
REMARK  status: ('A' for Active; 'I' for Inactive)
REMARK    1  A    between atoms: C_4  and  N_5 
REMARK    2  A    between atoms: C_10  and  O_11 
ROOT
HETATM    1  C   UNL     1      33.221  38.294  27.208  1.00  0.00     0.166 A 
HETATM    2  N   UNL     1      33.132  39.671  27.360  1.00  0.00    -0.173 N 
ATOM      3  HN  UNL     1      32.263  40.163  27.151  1.00  0.00     0.186 HD
HETATM    4  C   UNL     1      34.188  40.326  27.777  1.00  0.00     0.679 A 
HETATM    5  N   UNL     1      35.378  39.728  28.068  1.00  0.00    -0.168 N 
ATOM      6  HN  UNL     1      36.168  40.307  28.355  1.00  0.00     0.186 HD
HETATM    7  C   UNL     1      35.535  38.413  27.987  1.00  0.00     0.187 A 
HETATM    8  C   UNL     1      34.437  37.585  27.548  1.00  0.00     0.143 A 
HETATM    9  N   UNL     1      34.211  36.325  27.299  1.00  0.00    -0.277 N 
ATOM     10  HN  UNL     1      34.909  35.588  27.396  1.00  0.00     0.184 HD
HETATM   11  N   UNL     1      32.923  36.113  26.893  1.00  0.00    -0.020 NA
HETATM   12  N   UNL     1      32.306  37.396  26.845  1.00  0.00    -0.267 N 
ATOM     13  HN  UNL     1      31.340  37.590  26.581  1.00  0.00     0.186 HD
ENDROOT
BRANCH   4  14
HETATM   14  N   UNL     1      34.101  41.675  27.881  1.00  0.00    -0.234 N 
ATOM     15  HN2 UNL     1      34.911  42.181  28.239  1.00  0.00     0.174 HD
ATOM     16  HN1 UNL     1      33.221  42.125  27.630  1.00  0.00     0.174 HD
ENDBRANCH   4  14
BRANCH   7  17
HETATM   17  O   UNL     1      36.706  37.879  28.316  1.00  0.00    -0.344 OA
ATOM     18  HO  UNL     1      36.781  37.272  29.043  1.00  0.00     0.219 HD
ENDBRANCH   7  17
TORSDOF 2
ENDMDL
MODEL 14
REMARK VINA RESULT:    -5.616      2.214      4.240
REMARK INTER + INTRA:          -5.944
REMARK INTER:                  -5.944
REMARK INTRA:                   0.000
REMARK UNBOUND:                 0.000
REMARK  2 active torsions:
REMARK  status: ('A' for Active; 'I' for Inactive)
REMARK    1  A    between atoms: C_4  and  N_5 
REMARK    2  A    between atoms: C_10  and  O_11 
ROOT
HETATM    1  C   UNL     1      33.064  39.046  27.310  1.00  0.00     0.166 A 
HETATM    2  N   UNL     1      34.063  39.888  27.778  1.00  0.00    -0.173 N 
ATOM      3  HN  UNL     1      33.905  40.893  27.852  1.00  0.00     0.186 HD
HETATM    4  C   UNL     1      35.215  39.365  28.124  1.00  0.00     0.679 A 
HETATM    5  N   UNL     1      35.490  38.032  28.044  1.00  0.00    -0.168 N 
ATOM      6  HN  UNL     1      36.422  37.701  28.298  1.00  0.00     0.186 HD
HETATM    7  C   UNL     1      34.578  37.156  27.645  1.00  0.00     0.187 A 
HETATM    8  C   UNL     1      33.268  37.614  27.248  1.00  0.00     0.143 A 
HETATM    9  N   UNL     1      32.165  37.104  26.772  1.00  0.00    -0.277 N 
ATOM     10  HN  UNL     1      32.033  36.114  26.569  1.00  0.00     0.184 HD
HETATM   11  N   UNL     1      31.208  38.062  26.581  1.00  0.00    -0.020 NA
HETATM   12  N   UNL     1      31.811  39.302  26.937  1.00  0.00    -0.267 N 
ATOM     13  HN  UNL     1      31.365  40.218  26.910  1.00  0.00     0.186 HD
ENDROOT
BRANCH   4  14
HETATM   14  N   UNL     1      36.196  40.203  28.539  1.00  0.00    -0.234 N 
ATOM     15  HN2 UNL     1      37.009  39.797  29.003  1.00  0.00     0.174 HD
ATOM     16  HN1 UNL     1      36.068  41.206  28.403  1.00  0.00     0.174 HD
ENDBRANCH   4  14
BRANCH   7  17
HETATM   17  O   UNL     1      34.889  35.864  27.619  1.00  0.00    -0.344 OA
ATOM     18  HO  UNL     1      34.213  35.197  27.645  1.00  0.00     0.219 HD
ENDBRANCH   7  17
TORSDOF 2
ENDMDL
MODEL 15
REMARK VINA RESULT:    -5.575      2.586      3.770
REMARK INTER + INTRA:          -5.901
REMARK INTER:                  -5.901
REMARK INTRA:                   0.000
REMARK UNBOUND:                 0.000
REMARK  2 active torsions:
REMARK  status: ('A' for Active; 'I' for Inactive)
REMARK    1  A    between atoms: C_4  and  N_5 
REMARK    2  A    between atoms: C_10  and  O_11 
ROOT
HETATM    1  C   UNL     1      35.159  39.680  28.272  1.00  0.00     0.166 A 
HETATM    2  N   UNL     1      33.911  40.092  27.826  1.00  0.00    -0.173 N 
ATOM      3  HN  UNL     1      33.619  41.065  27.922  1.00  0.00     0.186 HD
HETATM    4  C   UNL     1      33.115  39.205  27.279  1.00  0.00     0.679 A 
HETATM    5  N   UNL     1      33.443  37.891  27.127  1.00  0.00    -0.168 N 
ATOM      6  HN  UNL     1      32.759  37.251  26.724  1.00  0.00     0.186 HD
HETATM    7  C   UNL     1      34.631  37.424  27.490  1.00  0.00     0.187 A 
HETATM    8  C   UNL     1      35.597  38.311  28.095  1.00  0.00     0.143 A 
HETATM    9  N   UNL     1      36.793  38.236  28.609  1.00  0.00    -0.277 N 
ATOM     10  HN  UNL     1      37.335  37.375  28.675  1.00  0.00     0.184 HD
HETATM   11  N   UNL     1      37.230  39.455  29.048  1.00  0.00    -0.020 NA
HETATM   12  N   UNL     1      36.162  40.367  28.817  1.00  0.00    -0.267 N 
ATOM     13  HN  UNL     1      36.164  41.364  29.031  1.00  0.00     0.186 HD
ENDROOT
BRANCH   4  14
HETATM   14  N   UNL     1      31.882  39.612  26.887  1.00  0.00    -0.234 N 
ATOM     15  HN2 UNL     1      31.557  39.331  25.962  1.00  0.00     0.174 HD
ATOM     16  HN1 UNL     1      31.345  40.209  27.516  1.00  0.00     0.174 HD
ENDBRANCH   4  14
BRANCH   7  17
HETATM   17  O   UNL     1      34.912  36.141  27.287  1.00  0.00    -0.344 OA
ATOM     18  HO  UNL     1      35.790  35.805  27.424  1.00  0.00     0.219 HD
ENDBRANCH   7  17
TORSDOF 2
ENDMDL
MODEL 16
REMARK VINA RESULT:    -5.478      1.737      2.093
REMARK INTER + INTRA:          -5.798
REMARK INTER:                  -5.798
REMARK INTRA:                   0.000
REMARK UNBOUND:                 0.000
REMARK  2 active torsions:
REMARK  status: ('A' for Active; 'I' for Inactive)
REMARK    1  A    between atoms: C_4  and  N_5 
REMARK    2  A    between atoms: C_10  and  O_11 
ROOT
HETATM    1  C   UNL     1      35.273  37.883  28.013  1.00  0.00     0.166 A 
HETATM    2  N   UNL     1      34.667  36.693  27.632  1.00  0.00    -0.173 N 
ATOM      3  HN  UNL     1      35.148  35.802  27.755  1.00  0.00     0.186 HD
HETATM    4  C   UNL     1      33.465  36.739  27.111  1.00  0.00     0.679 A 
HETATM    5  N   UNL     1      32.773  37.897  26.916  1.00  0.00    -0.168 N 
ATOM      6  HN  UNL     1      31.855  37.859  26.472  1.00  0.00     0.186 HD
HETATM    7  C   UNL     1      33.264  39.072  27.288  1.00  0.00     0.187 A 
HETATM    8  C   UNL     1      34.577  39.146  27.884  1.00  0.00     0.143 A 
HETATM    9  N   UNL     1      35.395  40.064  28.317  1.00  0.00    -0.277 N 
ATOM     10  HN  UNL     1      35.196  41.064  28.300  1.00  0.00     0.184 HD
HETATM   11  N   UNL     1      36.554  39.521  28.799  1.00  0.00    -0.020 NA
HETATM   12  N   UNL     1      36.449  38.116  28.594  1.00  0.00    -0.267 N 
ATOM     13  HN  UNL     1      37.147  37.416  28.846  1.00  0.00     0.186 HD
ENDROOT
BRANCH   4  14
HETATM   14  N   UNL     1      32.902  35.575  26.705  1.00  0.00    -0.234 N 
ATOM     15  HN2 UNL     1      31.904  35.573  26.494  1.00  0.00     0.174 HD
ATOM     16  HN1 UNL     1      33.489  34.742  26.659  1.00  0.00     0.174 HD
ENDBRANCH   4  14
BRANCH   7  17
HETATM   17  O   UNL     1      32.532  40.167  27.107  1.00  0.00    -0.344 OA
ATOM     18  HO  UNL     1      31.729  40.306  27.595  1.00  0.00     0.219 HD
ENDBRANCH   7  17
TORSDOF 2
ENDMDL
MODEL 17
REMARK VINA RESULT:    -5.389      1.843      3.974
REMARK INTER + INTRA:          -5.704
REMARK INTER:                  -5.704
REMARK INTRA:                   0.000
REMARK UNBOUND:                 0.000
REMARK  2 active torsions:
REMARK  status: ('A' for Active; 'I' for Inactive)
REMARK    1  A    between atoms: C_4  and  N_5 
REMARK    2  A    between atoms: C_10  and  O_11 
ROOT
HETATM    1  C   UNL     1      34.777  38.663  27.777  1.00  0.00     0.166 A 
HETATM    2  N   UNL     1      35.310  39.890  28.148  1.00  0.00    -0.173 N 
ATOM      3  HN  UNL     1      36.272  39.962  28.476  1.00  0.00     0.186 HD
HETATM    4  C   UNL     1      34.548  40.955  28.068  1.00  0.00     0.679 A 
HETATM    5  N   UNL     1      33.253  40.924  27.643  1.00  0.00    -0.168 N 
ATOM      6  HN  UNL     1      32.710  41.788  27.640  1.00  0.00     0.186 HD
HETATM    7  C   UNL     1      32.682  39.799  27.233  1.00  0.00     0.187 A 
HETATM    8  C   UNL     1      33.426  38.562  27.266  1.00  0.00     0.143 A 
HETATM    9  N   UNL     1      33.221  37.300  27.010  1.00  0.00    -0.277 N 
ATOM     10  HN  UNL     1      32.334  36.918  26.684  1.00  0.00     0.184 HD
HETATM   11  N   UNL     1      34.344  36.551  27.232  1.00  0.00    -0.020 NA
HETATM   12  N   UNL     1      35.331  37.452  27.723  1.00  0.00    -0.267 N 
ATOM     13  HN  UNL     1      36.288  37.214  27.984  1.00  0.00     0.186 HD
ENDROOT
BRANCH   4  14
HETATM   14  N   UNL     1      35.066  42.140  28.473  1.00  0.00    -0.234 N 
ATOM     15  HN2 UNL     1      34.996  42.381  29.462  1.00  0.00     0.174 HD
ATOM     16  HN1 UNL     1      35.474  42.757  27.771  1.00  0.00     0.174 HD
ENDBRANCH   4  14
BRANCH   7  17
HETATM   17  O   UNL     1      31.427  39.832  26.796  1.00  0.00    -0.344 OA
ATOM     18  HO  UNL     1      30.730  39.401  27.276  1.00  0.00     0.219 HD
ENDBRANCH   7  17
TORSDOF 2
ENDMDL
MODEL 18
REMARK VINA RESULT:    -5.162      2.004      2.813
REMARK INTER + INTRA:          -5.464
REMARK INTER:                  -5.464
REMARK INTRA:                   0.000
REMARK UNBOUND:                 0.000
REMARK  2 active torsions:
REMARK  status: ('A' for Active; 'I' for Inactive)
REMARK    1  A    between atoms: C_4  and  N_5 
REMARK    2  A    between atoms: C_10  and  O_11 
ROOT
HETATM    1  C   UNL     1      33.706  37.561  27.281  1.00  0.00     0.166 A 
HETATM    2  N   UNL     1      32.357  37.476  26.963  1.00  0.00    -0.173 N 
ATOM      3  HN  UNL     1      31.912  36.569  26.821  1.00  0.00     0.186 HD
HETATM    4  C   UNL     1      31.668  38.585  26.850  1.00  0.00     0.679 A 
HETATM    5  N   UNL     1      32.204  39.826  27.023  1.00  0.00    -0.168 N 
ATOM      6  HN  UNL     1      31.614  40.647  26.884  1.00  0.00     0.186 HD
HETATM    7  C   UNL     1      33.475  39.993  27.366  1.00  0.00     0.187 A 
HETATM    8  C   UNL     1      34.332  38.843  27.530  1.00  0.00     0.143 A 
HETATM    9  N   UNL     1      35.584  38.596  27.798  1.00  0.00    -0.277 N 
ATOM     10  HN  UNL     1      36.286  39.316  27.966  1.00  0.00     0.184 HD
HETATM   11  N   UNL     1      35.839  37.253  27.826  1.00  0.00    -0.020 NA
HETATM   12  N   UNL     1      34.614  36.610  27.493  1.00  0.00    -0.267 N 
ATOM     13  HN  UNL     1      34.460  35.603  27.428  1.00  0.00     0.186 HD
ENDROOT
BRANCH   4  14
HETATM   14  N   UNL     1      30.361  38.490  26.499  1.00  0.00    -0.234 N 
ATOM     15  HN2 UNL     1      29.724  39.216  26.825  1.00  0.00     0.174 HD
ATOM     16  HN1 UNL     1      30.064  37.682  25.952  1.00  0.00     0.174 HD
ENDBRANCH   4  14
BRANCH   7  17
HETATM   17  O   UNL     1      33.938  41.225  27.556  1.00  0.00    -0.344 OA
ATOM     18  HO  UNL     1      34.012  41.591  28.429  1.00  0.00     0.219 HD
ENDBRANCH   7  17
TORSDOF 2
ENDMDL
MODEL 19
REMARK VINA RESULT:    -5.060      3.223      4.384
REMARK INTER + INTRA:          -5.356
REMARK INTER:                  -5.356
REMARK INTRA:                   0.000
REMARK UNBOUND:                 0.000
REMARK  2 active torsions:
REMARK  status: ('A' for Active; 'I' for Inactive)
REMARK    1  A    between atoms: C_4  and  N_5 
REMARK    2  A    between atoms: C_10  and  O_11 
ROOT
HETATM    1  C   UNL     1      35.263  40.574  28.495  1.00  0.00     0.166 A 
HETATM    2  N   UNL     1      36.265  40.006  29.270  1.00  0.00    -0.173 N 
ATOM      3  HN  UNL     1      36.861  40.587  29.858  1.00  0.00     0.186 HD
HETATM    4  C   UNL     1      36.426  38.705  29.231  1.00  0.00     0.679 A 
HETATM    5  N   UNL     1      35.665  37.875  28.463  1.00  0.00    -0.168 N 
ATOM      6  HN  UNL     1      35.872  36.875  28.457  1.00  0.00     0.186 HD
HETATM    7  C   UNL     1      34.663  38.333  27.724  1.00  0.00     0.187 A 
HETATM    8  C   UNL     1      34.382  39.749  27.695  1.00  0.00     0.143 A 
HETATM    9  N   UNL     1      33.562  40.562  27.090  1.00  0.00    -0.277 N 
ATOM     10  HN  UNL     1      32.856  40.268  26.416  1.00  0.00     0.184 HD
HETATM   11  N   UNL     1      33.764  41.860  27.473  1.00  0.00    -0.020 NA
HETATM   12  N   UNL     1      34.862  41.840  28.378  1.00  0.00    -0.267 N 
ATOM     13  HN  UNL     1      35.268  42.647  28.852  1.00  0.00     0.186 HD
ENDROOT
BRANCH   4  14
HETATM   14  N   UNL     1      37.435  38.167  29.960  1.00  0.00    -0.234 N 
ATOM     15  HN2 UNL     1      38.332  38.650  29.966  1.00  0.00     0.174 HD
ATOM     16  HN1 UNL     1      37.266  37.285  30.444  1.00  0.00     0.174 HD
ENDBRANCH   4  14
BRANCH   7  17
HETATM   17  O   UNL     1      33.931  37.475  27.022  1.00  0.00    -0.344 OA
ATOM     18  HO  UNL     1      34.182  36.562  26.949  1.00  0.00     0.219 HD
ENDBRANCH   7  17
TORSDOF 2
ENDMDL
MODEL 20
REMARK VINA RESULT:    -5.020      6.228      7.356
REMARK INTER + INTRA:          -5.314
REMARK INTER:                  -5.314
REMARK INTRA:                   0.000
REMARK UNBOUND:                 0.000
REMARK  2 active torsions:
REMARK  status: ('A' for Active; 'I' for Inactive)
REMARK    1  A    between atoms: C_4  and  N_5 
REMARK    2  A    between atoms: C_10  and  O_11 
ROOT
HETATM    1  C   UNL     1      38.159  40.972  31.829  1.00  0.00     0.166 A 
HETATM    2  N   UNL     1      38.115  39.795  31.095  1.00  0.00    -0.173 N 
ATOM      3  HN  UNL     1      38.975  39.315  30.830  1.00  0.00     0.186 HD
HETATM    4  C   UNL     1      36.946  39.314  30.750  1.00  0.00     0.679 A 
HETATM    5  N   UNL     1      35.762  39.911  31.068  1.00  0.00    -0.168 N 
ATOM      6  HN  UNL     1      34.891  39.497  30.735  1.00  0.00     0.186 HD
HETATM    7  C   UNL     1      35.715  41.016  31.800  1.00  0.00     0.187 A 
HETATM    8  C   UNL     1      36.941  41.633  32.248  1.00  0.00     0.143 A 
HETATM    9  N   UNL     1      37.306  42.697  32.909  1.00  0.00    -0.277 N 
ATOM     10  HN  UNL     1      36.658  43.389  33.285  1.00  0.00     0.184 HD
HETATM   11  N   UNL     1      38.666  42.769  33.038  1.00  0.00    -0.020 NA
HETATM   12  N   UNL     1      39.190  41.647  32.336  1.00  0.00    -0.267 N 
ATOM     13  HN  UNL     1      40.176  41.403  32.240  1.00  0.00     0.186 HD
ENDROOT
BRANCH   4  14
HETATM   14  N   UNL     1      36.918  38.187  29.997  1.00  0.00    -0.234 N 
ATOM     15  HN2 UNL     1      36.016  37.735  29.843  1.00  0.00     0.174 HD
ATOM     16  HN1 UNL     1      37.800  37.818  29.643  1.00  0.00     0.174 HD
ENDBRANCH   4  14
BRANCH   7  17
HETATM   17  O   UNL     1      34.532  41.537  32.112  1.00  0.00    -0.344 OA
ATOM     18  HO  UNL     1      34.371  42.469  32.029  1.00  0.00     0.219 HD
ENDBRANCH   7  17
TORSDOF 2
ENDMDL
