REMARK  17 active torsions:
REMARK  status: ('A' for Active; 'I' for Inactive)
REMARK    1  A    between atoms: C_8  and  N_9 
REMARK    2  A    between atoms: N_13  and  C_14 
REMARK    3  A    between atoms: C_15  and  O_16 
REMARK    4  A    between atoms: C_17  and  O_18 
REMARK    5  A    between atoms: C_20  and  C_21 
REMARK    6  A    between atoms: C_21  and  O_22 
REMARK    7  A    between atoms: O_22  and  P_23 
REMARK    8  A    between atoms: P_23  and  O_25 
REMARK    9  A    between atoms: P_23  and  O_26 
REMARK   10  A    between atoms: O_26  and  P_27 
REMARK   11  A    between atoms: P_27  and  O_29 
REMARK   12  A    between atoms: P_27  and  O_30 
REMARK   13  A    between atoms: O_30  and  C_31 
REMARK   14  A    between atoms: C_31  and  C_39 
REMARK   15  A    between atoms: O_33  and  C_34 
REMARK   16  A    between atoms: O_35  and  C_36 
REMARK   17  A    between atoms: O_37  and  C_38 
ROOT
HETATM    1  C   UNL     1       1.099   0.731  -0.986  1.00  0.00     0.262 C 
HETATM    2  C   UNL     1       1.775   1.002  -2.342  1.00  0.00     0.198 C 
HETATM    3  C   UNL     1       1.379  -0.201  -3.184  1.00  0.00     0.182 C 
HETATM    4  O   UNL     1       0.443  -0.517  -1.046  1.00  0.00    -0.353 OA
HETATM    5  C   UNL     1       0.199  -0.766  -2.407  1.00  0.00     0.180 C 
ENDROOT
BRANCH   5   6
HETATM    6  C   UNL     1       0.009  -2.266  -2.643  1.00  0.00     0.215 C 
BRANCH   6   7
HETATM    7  O   UNL     1      -1.115  -2.699  -1.914  1.00  0.00    -0.294 OA
BRANCH   7   8
HETATM    8  P   UNL     1      -1.520  -4.285  -2.400  1.00  0.00     0.401 P 
HETATM    9  O   UNL     1      -0.283  -5.152  -2.519  1.00  0.00    -0.631 OA
BRANCH   8  10
HETATM   10  O   UNL     1      -2.298  -4.218  -3.906  1.00  0.00    -0.307 OA
HETATM   11  H   UNL     1      -1.570  -4.195  -4.577  1.00  0.00     0.222 HD
ENDBRANCH   8  10
BRANCH   8  12
HETATM   12  O   UNL     1      -2.599  -4.987  -1.288  1.00  0.00    -0.195 OA
BRANCH  12  13
HETATM   13  P   UNL     1      -1.944  -4.777   0.271  1.00  0.00     0.401 P 
HETATM   14  O   UNL     1      -2.724  -5.639   1.241  1.00  0.00    -0.631 OA
BRANCH  13  15
HETATM   15  O   UNL     1      -0.321  -5.258   0.313  1.00  0.00    -0.307 OA
HETATM   16  H   UNL     1      -0.090  -5.289   1.274  1.00  0.00     0.222 HD
ENDBRANCH  13  15
BRANCH  13  17
HETATM   17  O   UNL     1      -2.045  -3.145   0.760  1.00  0.00    -0.294 OA
BRANCH  17  18
HETATM   18  C   UNL     1      -3.382  -2.716   0.627  1.00  0.00     0.215 C 
BRANCH  18  19
HETATM   19  C   UNL     1      -3.525  -1.298   1.193  1.00  0.00     0.180 C 
HETATM   20  O   UNL     1      -3.067  -1.270   2.530  1.00  0.00    -0.349 OA
HETATM   21  C   UNL     1      -2.070  -0.276   2.628  1.00  0.00     0.288 C 
HETATM   22  C   UNL     1      -2.187   0.653   1.425  1.00  0.00     0.204 C 
HETATM   23  C   UNL     1      -2.751  -0.262   0.371  1.00  0.00     0.182 C 
BRANCH  21  24
HETATM   24  O   UNL     1      -0.809  -0.895   2.640  1.00  0.00    -0.369 OA
HETATM   25  H   UNL     1      -0.167  -0.232   3.009  1.00  0.00     0.212 HD
ENDBRANCH  21  24
BRANCH  22  26
HETATM   26  O   UNL     1      -3.083   1.697   1.709  1.00  0.00    -0.388 OA
HETATM   27  H   UNL     1      -2.572   2.376   2.223  1.00  0.00     0.210 HD
ENDBRANCH  22  26
BRANCH  23  28
HETATM   28  O   UNL     1      -3.585   0.428  -0.524  1.00  0.00    -0.390 OA
HETATM   29  H   UNL     1      -3.758  -0.195  -1.279  1.00  0.00     0.210 HD
ENDBRANCH  23  28
ENDBRANCH  18  19
ENDBRANCH  17  18
ENDBRANCH  13  17
ENDBRANCH  12  13
ENDBRANCH   8  12
ENDBRANCH   7   8
ENDBRANCH   6   7
ENDBRANCH   5   6
BRANCH   3  30
HETATM   30  O   UNL     1       1.000   0.147  -4.491  1.00  0.00    -0.390 OA
HETATM   31  H   UNL     1       1.835   0.395  -4.962  1.00  0.00     0.210 HD
ENDBRANCH   3  30
BRANCH   2  32
HETATM   32  O   UNL     1       1.338   2.221  -2.899  1.00  0.00    -0.388 OA
HETATM   33  H   UNL     1       0.349   2.182  -2.988  1.00  0.00     0.210 HD
ENDBRANCH   2  32
BRANCH   1  34
HETATM   34  N   UNL     1       2.084   0.713   0.094  1.00  0.00    -0.297 N 
HETATM   35  C   UNL     1       2.412   1.710   0.926  1.00  0.00     0.142 A 
HETATM   36  N   UNL     1       1.852   2.941   1.008  1.00  0.00    -0.336 N 
HETATM   37  C   UNL     1       3.426   1.313   1.728  1.00  0.00     0.122 A 
HETATM   38  C   UNL     1       2.342   3.807   1.947  1.00  0.00     0.183 A 
ATOM     39  HN  UNL     1       1.089   3.214   0.389  1.00  0.00     0.168 HD
HETATM   40  N   UNL     1       3.370   3.429   2.773  1.00  0.00    -0.337 N 
HETATM   41  C   UNL     1       3.935   2.186   2.683  1.00  0.00     0.131 A 
ATOM     42  HN  UNL     1       3.720   4.088   3.468  1.00  0.00     0.168 HD
HETATM   43  N   UNL     1       3.796   0.051   1.435  1.00  0.00    -0.346 N 
HETATM   44  C   UNL     1       2.950  -0.281   0.419  1.00  0.00     0.188 A 
ATOM     45  HN  UNL     1       4.527  -0.515   1.866  1.00  0.00     0.167 HD
BRANCH  41  46
HETATM   46  N   UNL     1       5.000   1.809   3.556  1.00  0.00    -0.383 N 
HETATM   47  H   UNL     1       5.422   0.855   3.508  1.00  0.00     0.157 HD
HETATM   48  H   UNL     1       5.372   2.487   4.253  1.00  0.00     0.157 HD
ENDBRANCH  41  46
ENDBRANCH   1  34
TORSDOF 17
