MODEL 1
REMARK VINA RESULT:   -11.703      0.000      0.000
REMARK INTER + INTRA:         -13.959
REMARK INTER:                 -13.072
REMARK INTRA:                  -0.888
REMARK UNBOUND:                -0.888
REMARK  2 active torsions:
REMARK  status: ('A' for Active; 'I' for Inactive)
REMARK    1  A    between atoms: N_20  and  C_22 
REMARK    2  A    between atoms: C_23  and  C_30 
ROOT
HETATM    1  C   UNL     1      -4.004   9.816  -0.560  1.00  0.00     0.060 A 
HETATM    2  C   UNL     1      -4.161   8.653   0.153  1.00  0.00     0.132 A 
HETATM    3  C   UNL     1      -5.383   7.949   0.122  1.00  0.00     0.132 A 
HETATM    4  C   UNL     1      -6.302   9.516  -1.257  1.00  0.00     0.116 A 
HETATM    5  C   UNL     1      -5.123  10.278  -1.278  1.00  0.00     0.026 A 
HETATM    6  C   UNL     1      -5.410  11.409  -2.144  1.00  0.00     0.037 A 
HETATM    7  N   UNL     1      -6.446   8.352  -0.575  1.00  0.00    -0.349 N 
ATOM      8  HN  UNL     1      -7.315   7.818  -0.593  1.00  0.00     0.167 HD
HETATM    9  C   UNL     1      -6.720  11.235  -2.555  1.00  0.00     0.106 A 
HETATM   10  N   UNL     1      -7.228  10.113  -2.009  1.00  0.00    -0.351 N 
ATOM     11  HN  UNL     1      -8.179   9.771  -2.150  1.00  0.00     0.166 HD
HETATM   12  C   UNL     1      -4.498  12.438  -2.533  1.00  0.00     0.119 A 
HETATM   13  N   UNL     1      -4.922  13.414  -3.356  1.00  0.00    -0.348 N 
ATOM     14  HN  UNL     1      -5.879  13.417  -3.709  1.00  0.00     0.167 HD
HETATM   15  C   UNL     1      -4.060  14.390  -3.707  1.00  0.00     0.136 A 
HETATM   16  C   UNL     1      -2.794  14.409  -3.205  1.00  0.00     0.175 A 
HETATM   17  C   UNL     1      -2.379  13.401  -2.333  1.00  0.00     0.143 A 
HETATM   18  N   UNL     1      -3.280  12.471  -1.986  1.00  0.00    -0.326 N 
ATOM     19  HN  UNL     1      -3.028  11.771  -1.288  1.00  0.00     0.169 HD
HETATM   20  N   UNL     1      -1.152  13.340  -1.830  1.00  0.00    -0.368 N 
ATOM     21  HN  UNL     1      -0.468  14.015  -2.170  1.00  0.00     0.161 HD
HETATM   22  F   UNL     1      -1.930  15.356  -3.648  1.00  0.00    -0.201 F 
HETATM   23  F   UNL     1      -3.157   8.178   0.891  1.00  0.00    -0.205 F 
ENDROOT
BRANCH  20  24
HETATM   24  C   UNL     1      -0.705  12.371  -0.817  1.00  0.00     0.102 C 
HETATM   25  C   UNL     1      -0.074  11.219  -1.526  1.00  0.00     0.009 C 
HETATM   26  C   UNL     1       0.212  10.128  -0.496  1.00  0.00     0.007 C 
HETATM   27  C   UNL     1       1.214  11.664  -2.203  1.00  0.00     0.007 C 
HETATM   28  C   UNL     1       1.090  10.634   0.591  1.00  0.00     0.006 C 
HETATM   29  C   UNL     1       1.515  12.063   0.234  1.00  0.00     0.002 C 
HETATM   30  C   UNL     1       2.195  12.040  -1.125  1.00  0.00     0.006 C 
HETATM   31  C   UNL     1       0.296  12.989   0.150  1.00  0.00     0.114 C 
BRANCH  31  32
HETATM   32  C   UNL     1      -0.167  13.271   1.521  1.00  0.00     0.179 C 
HETATM   33  O   UNL     1      -1.141  12.788   2.013  1.00  0.00    -0.648 OA
HETATM   34  O   UNL     1       0.591  14.163   2.126  1.00  0.00    -0.648 OA
ENDBRANCH  31  32
ENDBRANCH  20  24
TORSDOF 2
ENDMDL
MODEL 2
REMARK VINA RESULT:   -10.975      0.750      1.017
REMARK INTER + INTRA:         -13.146
REMARK INTER:                 -12.366
REMARK INTRA:                  -0.780
REMARK UNBOUND:                -0.888
REMARK  2 active torsions:
REMARK  status: ('A' for Active; 'I' for Inactive)
REMARK    1  A    between atoms: N_20  and  C_22 
REMARK    2  A    between atoms: C_23  and  C_30 
ROOT
HETATM    1  C   UNL     1      -4.254  10.475  -1.118  1.00  0.00     0.060 A 
HETATM    2  C   UNL     1      -4.625   9.309  -0.496  1.00  0.00     0.132 A 
HETATM    3  C   UNL     1      -5.919   8.776  -0.678  1.00  0.00     0.132 A 
HETATM    4  C   UNL     1      -6.495  10.519  -2.031  1.00  0.00     0.116 A 
HETATM    5  C   UNL     1      -5.232  11.117  -1.902  1.00  0.00     0.026 A 
HETATM    6  C   UNL     1      -5.288  12.318  -2.717  1.00  0.00     0.037 A 
HETATM    7  N   UNL     1      -6.851   9.351  -1.438  1.00  0.00    -0.349 N 
ATOM      8  HN  UNL     1      -7.775   8.939  -1.566  1.00  0.00     0.167 HD
HETATM    9  C   UNL     1      -6.565  12.341  -3.252  1.00  0.00     0.106 A 
HETATM   10  N   UNL     1      -7.261  11.271  -2.823  1.00  0.00    -0.351 N 
ATOM     11  HN  UNL     1      -8.230  11.065  -3.067  1.00  0.00     0.166 HD
HETATM   12  C   UNL     1      -4.220  13.235  -2.959  1.00  0.00     0.119 A 
HETATM   13  N   UNL     1      -4.435  14.300  -3.754  1.00  0.00    -0.348 N 
ATOM     14  HN  UNL     1      -5.346  14.447  -4.189  1.00  0.00     0.167 HD
HETATM   15  C   UNL     1      -3.426  15.168  -3.967  1.00  0.00     0.136 A 
HETATM   16  C   UNL     1      -2.221  14.993  -3.355  1.00  0.00     0.175 A 
HETATM   17  C   UNL     1      -2.024  13.897  -2.515  1.00  0.00     0.143 A 
HETATM   18  N   UNL     1      -3.064  13.078  -2.307  1.00  0.00    -0.326 N 
ATOM     19  HN  UNL     1      -2.972  12.317  -1.635  1.00  0.00     0.169 HD
HETATM   20  N   UNL     1      -0.867  13.648  -1.911  1.00  0.00    -0.368 N 
ATOM     21  HN  UNL     1      -0.073  14.242  -2.147  1.00  0.00     0.161 HD
HETATM   22  F   UNL     1      -1.205  15.838  -3.661  1.00  0.00    -0.201 F 
HETATM   23  F   UNL     1      -3.765   8.667   0.296  1.00  0.00    -0.205 F 
ENDROOT
BRANCH  20  24
HETATM   24  C   UNL     1      -0.647  12.578  -0.925  1.00  0.00     0.102 C 
HETATM   25  C   UNL     1      -0.158  11.370  -1.655  1.00  0.00     0.009 C 
HETATM   26  C   UNL     1      -0.115  10.206  -0.668  1.00  0.00     0.007 C 
HETATM   27  C   UNL     1       1.227  11.632  -2.231  1.00  0.00     0.007 C 
HETATM   28  C   UNL     1       0.757  10.519   0.493  1.00  0.00     0.006 C 
HETATM   29  C   UNL     1       1.423  11.876   0.237  1.00  0.00     0.002 C 
HETATM   30  C   UNL     1       2.180  11.802  -1.078  1.00  0.00     0.006 C 
HETATM   31  C   UNL     1       0.372  12.986   0.130  1.00  0.00     0.114 C 
BRANCH  31  32
HETATM   32  C   UNL     1      -0.131  13.281   1.484  1.00  0.00     0.179 C 
HETATM   33  O   UNL     1       0.440  13.967   2.276  1.00  0.00    -0.648 OA
HETATM   34  O   UNL     1      -1.260  12.653   1.741  1.00  0.00    -0.648 OA
ENDBRANCH  31  32
ENDBRANCH  20  24
TORSDOF 2
ENDMDL
MODEL 3
REMARK VINA RESULT:   -10.570      1.037      1.138
REMARK INTER + INTRA:         -12.693
REMARK INTER:                 -11.798
REMARK INTRA:                  -0.896
REMARK UNBOUND:                -0.888
REMARK  2 active torsions:
REMARK  status: ('A' for Active; 'I' for Inactive)
REMARK    1  A    between atoms: N_20  and  C_22 
REMARK    2  A    between atoms: C_23  and  C_30 
ROOT
HETATM    1  C   UNL     1      -3.049  10.182  -0.102  1.00  0.00     0.060 A 
HETATM    2  C   UNL     1      -2.940   9.121   0.762  1.00  0.00     0.132 A 
HETATM    3  C   UNL     1      -3.989   8.188   0.894  1.00  0.00     0.132 A 
HETATM    4  C   UNL     1      -5.256   9.332  -0.619  1.00  0.00     0.116 A 
HETATM    5  C   UNL     1      -4.262  10.305  -0.807  1.00  0.00     0.026 A 
HETATM    6  C   UNL     1      -4.803  11.224  -1.794  1.00  0.00     0.037 A 
HETATM    7  N   UNL     1      -5.134   8.269   0.215  1.00  0.00    -0.349 N 
ATOM      8  HN  UNL     1      -5.874   7.573   0.317  1.00  0.00     0.167 HD
HETATM    9  C   UNL     1      -6.062  10.735  -2.101  1.00  0.00     0.106 A 
HETATM   10  N   UNL     1      -6.308   9.620  -1.386  1.00  0.00    -0.351 N 
ATOM     11  HN  UNL     1      -7.171   9.078  -1.425  1.00  0.00     0.166 HD
HETATM   12  C   UNL     1      -4.138  12.352  -2.364  1.00  0.00     0.119 A 
HETATM   13  N   UNL     1      -4.780  13.100  -3.281  1.00  0.00    -0.348 N 
ATOM     14  HN  UNL     1      -5.728  12.860  -3.574  1.00  0.00     0.167 HD
HETATM   15  C   UNL     1      -4.151  14.170  -3.804  1.00  0.00     0.136 A 
HETATM   16  C   UNL     1      -2.901  14.513  -3.384  1.00  0.00     0.175 A 
HETATM   17  C   UNL     1      -2.260  13.740  -2.415  1.00  0.00     0.143 A 
HETATM   18  N   UNL     1      -2.936  12.705  -1.899  1.00  0.00    -0.326 N 
ATOM     19  HN  UNL     1      -2.524  12.174  -1.133  1.00  0.00     0.169 HD
HETATM   20  N   UNL     1      -1.031  13.998  -1.981  1.00  0.00    -0.368 N 
ATOM     21  HN  UNL     1      -0.513  14.743  -2.446  1.00  0.00     0.161 HD
HETATM   22  F   UNL     1      -2.267  15.544  -3.996  1.00  0.00    -0.201 F 
HETATM   23  F   UNL     1      -1.836   8.964   1.495  1.00  0.00    -0.205 F 
ENDROOT
BRANCH  20  24
HETATM   24  C   UNL     1      -0.362  13.288  -0.880  1.00  0.00     0.102 C 
HETATM   25  C   UNL     1       0.305  12.079  -1.447  1.00  0.00     0.009 C 
HETATM   26  C   UNL     1       0.832  11.240  -0.285  1.00  0.00     0.007 C 
HETATM   27  C   UNL     1       1.446  12.493  -2.365  1.00  0.00     0.007 C 
HETATM   28  C   UNL     1       1.770  12.023   0.560  1.00  0.00     0.006 C 
HETATM   29  C   UNL     1       1.987  13.386  -0.107  1.00  0.00     0.002 C 
HETATM   30  C   UNL     1       2.500  13.157  -1.519  1.00  0.00     0.006 C 
HETATM   31  C   UNL     1       0.671  14.168  -0.189  1.00  0.00     0.114 C 
BRANCH  31  32
HETATM   32  C   UNL     1       0.346  14.671   1.158  1.00  0.00     0.179 C 
HETATM   33  O   UNL     1      -0.564  14.275   1.820  1.00  0.00    -0.648 OA
HETATM   34  O   UNL     1       1.145  15.651   1.527  1.00  0.00    -0.648 OA
ENDBRANCH  31  32
ENDBRANCH  20  24
TORSDOF 2
ENDMDL
MODEL 4
REMARK VINA RESULT:    -9.764      1.750      2.497
REMARK INTER + INTRA:         -11.793
REMARK INTER:                 -11.236
REMARK INTRA:                  -0.558
REMARK UNBOUND:                -0.888
REMARK  2 active torsions:
REMARK  status: ('A' for Active; 'I' for Inactive)
REMARK    1  A    between atoms: N_20  and  C_22 
REMARK    2  A    between atoms: C_23  and  C_30 
ROOT
HETATM    1  C   UNL     1      -4.715  11.621  -1.983  1.00  0.00     0.060 A 
HETATM    2  C   UNL     1      -5.598  10.618  -1.671  1.00  0.00     0.132 A 
HETATM    3  C   UNL     1      -6.836  10.515  -2.339  1.00  0.00     0.132 A 
HETATM    4  C   UNL     1      -6.374  12.373  -3.577  1.00  0.00     0.116 A 
HETATM    5  C   UNL     1      -5.125  12.548  -2.960  1.00  0.00     0.026 A 
HETATM    6  C   UNL     1      -4.544  13.721  -3.591  1.00  0.00     0.037 A 
HETATM    7  N   UNL     1      -7.233  11.363  -3.288  1.00  0.00    -0.349 N 
ATOM      8  HN  UNL     1      -8.128  11.259  -3.767  1.00  0.00     0.167 HD
HETATM    9  C   UNL     1      -5.485  14.148  -4.513  1.00  0.00     0.106 A 
HETATM   10  N   UNL     1      -6.561  13.338  -4.478  1.00  0.00    -0.351 N 
ATOM     11  HN  UNL     1      -7.395  13.447  -5.055  1.00  0.00     0.166 HD
HETATM   12  C   UNL     1      -3.246  14.266  -3.346  1.00  0.00     0.119 A 
HETATM   13  N   UNL     1      -2.853  15.358  -4.028  1.00  0.00    -0.348 N 
ATOM     14  HN  UNL     1      -3.468  15.788  -4.719  1.00  0.00     0.167 HD
HETATM   15  C   UNL     1      -1.633  15.874  -3.781  1.00  0.00     0.136 A 
HETATM   16  C   UNL     1      -0.827  15.324  -2.831  1.00  0.00     0.175 A 
HETATM   17  C   UNL     1      -1.261  14.207  -2.116  1.00  0.00     0.143 A 
HETATM   18  N   UNL     1      -2.494  13.748  -2.371  1.00  0.00    -0.326 N 
ATOM     19  HN  UNL     1      -2.867  12.984  -1.808  1.00  0.00     0.169 HD
HETATM   20  N   UNL     1      -0.517  13.602  -1.198  1.00  0.00    -0.368 N 
ATOM     21  HN  UNL     1       0.443  13.925  -1.080  1.00  0.00     0.161 HD
HETATM   22  F   UNL     1       0.426  15.818  -2.672  1.00  0.00    -0.201 F 
HETATM   23  F   UNL     1      -5.296   9.728  -0.724  1.00  0.00    -0.205 F 
ENDROOT
BRANCH  20  24
HETATM   24  C   UNL     1      -0.975  12.500  -0.337  1.00  0.00     0.102 C 
HETATM   25  C   UNL     1      -1.155  11.289  -1.192  1.00  0.00     0.009 C 
HETATM   26  C   UNL     1      -1.812  10.204  -0.344  1.00  0.00     0.007 C 
HETATM   27  C   UNL     1       0.193  10.813  -1.715  1.00  0.00     0.007 C 
HETATM   28  C   UNL     1      -0.996   9.894   0.858  1.00  0.00     0.006 C 
HETATM   29  C   UNL     1       0.309  10.694   0.767  1.00  0.00     0.002 C 
HETATM   30  C   UNL     1       1.003  10.340  -0.537  1.00  0.00     0.006 C 
HETATM   31  C   UNL     1       0.025  12.200   0.772  1.00  0.00     0.114 C 
BRANCH  31  32
HETATM   32  C   UNL     1      -0.340  12.598   2.144  1.00  0.00     0.179 C 
HETATM   33  O   UNL     1      -1.438  12.500   2.600  1.00  0.00    -0.648 OA
HETATM   34  O   UNL     1       0.676  13.128   2.793  1.00  0.00    -0.648 OA
ENDBRANCH  31  32
ENDBRANCH  20  24
TORSDOF 2
ENDMDL
MODEL 5
REMARK VINA RESULT:    -9.665      1.431      2.029
REMARK INTER + INTRA:         -11.682
REMARK INTER:                 -10.910
REMARK INTRA:                  -0.772
REMARK UNBOUND:                -0.888
REMARK  2 active torsions:
REMARK  status: ('A' for Active; 'I' for Inactive)
REMARK    1  A    between atoms: N_20  and  C_22 
REMARK    2  A    between atoms: C_23  and  C_30 
ROOT
HETATM    1  C   UNL     1      -4.206  11.537  -1.805  1.00  0.00     0.060 A 
HETATM    2  C   UNL     1      -4.810  10.415  -1.296  1.00  0.00     0.132 A 
HETATM    3  C   UNL     1      -6.116  10.059  -1.690  1.00  0.00     0.132 A 
HETATM    4  C   UNL     1      -6.259  11.894  -3.037  1.00  0.00     0.116 A 
HETATM    5  C   UNL     1      -4.965  12.319  -2.696  1.00  0.00     0.026 A 
HETATM    6  C   UNL     1      -4.746  13.537  -3.458  1.00  0.00     0.037 A 
HETATM    7  N   UNL     1      -6.843  10.768  -2.554  1.00  0.00    -0.349 N 
ATOM      8  HN  UNL     1      -7.781  10.482  -2.835  1.00  0.00     0.167 HD
HETATM    9  C   UNL     1      -5.914  13.739  -4.174  1.00  0.00     0.106 A 
HETATM   10  N   UNL     1      -6.796  12.757  -3.899  1.00  0.00    -0.351 N 
ATOM     11  HN  UNL     1      -7.734  12.685  -4.293  1.00  0.00     0.166 HD
HETATM   12  C   UNL     1      -3.548  14.313  -3.500  1.00  0.00     0.119 A 
HETATM   13  N   UNL     1      -3.505  15.416  -4.271  1.00  0.00    -0.348 N 
ATOM     14  HN  UNL     1      -4.314  15.690  -4.829  1.00  0.00     0.167 HD
HETATM   15  C   UNL     1      -2.376  16.150  -4.294  1.00  0.00     0.136 A 
HETATM   16  C   UNL     1      -1.309  15.806  -3.520  1.00  0.00     0.175 A 
HETATM   17  C   UNL     1      -1.380  14.673  -2.708  1.00  0.00     0.143 A 
HETATM   18  N   UNL     1      -2.534  13.992  -2.691  1.00  0.00    -0.326 N 
ATOM     19  HN  UNL     1      -2.640  13.209  -2.046  1.00  0.00     0.169 HD
HETATM   20  N   UNL     1      -0.369  14.262  -1.951  1.00  0.00    -0.368 N 
ATOM     21  HN  UNL     1       0.520  14.754  -2.041  1.00  0.00     0.161 HD
HETATM   22  F   UNL     1      -0.161  16.519  -3.635  1.00  0.00    -0.201 F 
HETATM   23  F   UNL     1      -4.167   9.648  -0.414  1.00  0.00    -0.205 F 
ENDROOT
BRANCH  20  24
HETATM   24  C   UNL     1      -0.436  13.149  -0.991  1.00  0.00     0.102 C 
HETATM   25  C   UNL     1      -0.241  11.875  -1.745  1.00  0.00     0.009 C 
HETATM   26  C   UNL     1      -0.503  10.714  -0.789  1.00  0.00     0.007 C 
HETATM   27  C   UNL     1       1.178  11.804  -2.293  1.00  0.00     0.007 C 
HETATM   28  C   UNL     1       0.394  10.780   0.394  1.00  0.00     0.006 C 
HETATM   29  C   UNL     1       1.376  11.938   0.183  1.00  0.00     0.002 C 
HETATM   30  C   UNL     1       2.119  11.711  -1.122  1.00  0.00     0.006 C 
HETATM   31  C   UNL     1       0.630  13.274   0.090  1.00  0.00     0.114 C 
BRANCH  31  32
HETATM   32  C   UNL     1       0.186  13.652   1.444  1.00  0.00     0.179 C 
HETATM   33  O   UNL     1       0.613  13.170   2.448  1.00  0.00    -0.648 OA
HETATM   34  O   UNL     1      -0.780  14.548   1.417  1.00  0.00    -0.648 OA
ENDBRANCH  31  32
ENDBRANCH  20  24
TORSDOF 2
ENDMDL
MODEL 6
REMARK VINA RESULT:    -9.521      1.920      4.751
REMARK INTER + INTRA:         -11.522
REMARK INTER:                 -10.883
REMARK INTRA:                  -0.639
REMARK UNBOUND:                -0.888
REMARK  2 active torsions:
REMARK  status: ('A' for Active; 'I' for Inactive)
REMARK    1  A    between atoms: N_20  and  C_22 
REMARK    2  A    between atoms: C_23  and  C_30 
ROOT
HETATM    1  C   UNL     1      -3.867  13.016  -2.519  1.00  0.00     0.060 A 
HETATM    2  C   UNL     1      -3.904  14.136  -3.311  1.00  0.00     0.132 A 
HETATM    3  C   UNL     1      -5.036  14.420  -4.104  1.00  0.00     0.132 A 
HETATM    4  C   UNL     1      -6.072  12.519  -3.385  1.00  0.00     0.116 A 
HETATM    5  C   UNL     1      -4.985  12.162  -2.571  1.00  0.00     0.026 A 
HETATM    6  C   UNL     1      -5.377  10.920  -1.927  1.00  0.00     0.037 A 
HETATM    7  N   UNL     1      -6.118  13.642  -4.146  1.00  0.00    -0.349 N 
ATOM      8  HN  UNL     1      -6.931  13.877  -4.716  1.00  0.00     0.167 HD
HETATM    9  C   UNL     1      -6.644  10.638  -2.411  1.00  0.00     0.106 A 
HETATM   10  N   UNL     1      -7.027  11.595  -3.278  1.00  0.00    -0.351 N 
ATOM     11  HN  UNL     1      -7.916  11.611  -3.779  1.00  0.00     0.166 HD
HETATM   12  C   UNL     1      -4.629  10.192  -0.953  1.00  0.00     0.119 A 
HETATM   13  N   UNL     1      -5.143   9.056  -0.443  1.00  0.00    -0.348 N 
ATOM     14  HN  UNL     1      -6.061   8.723  -0.740  1.00  0.00     0.167 HD
HETATM   15  C   UNL     1      -4.425   8.367   0.465  1.00  0.00     0.136 A 
HETATM   16  C   UNL     1      -3.183   8.791   0.833  1.00  0.00     0.175 A 
HETATM   17  C   UNL     1      -2.656   9.956   0.276  1.00  0.00     0.143 A 
HETATM   18  N   UNL     1      -3.391  10.591  -0.648  1.00  0.00    -0.326 N 
ATOM     19  HN  UNL     1      -2.996  11.398  -1.130  1.00  0.00     0.169 HD
HETATM   20  N   UNL     1      -1.466  10.443   0.609  1.00  0.00    -0.368 N 
ATOM     21  HN  UNL     1      -0.964   9.984   1.368  1.00  0.00     0.161 HD
HETATM   22  F   UNL     1      -2.528   8.119   1.812  1.00  0.00    -0.201 F 
HETATM   23  F   UNL     1      -2.862  14.968  -3.346  1.00  0.00    -0.205 F 
ENDROOT
BRANCH  20  24
HETATM   24  C   UNL     1      -0.819  11.597  -0.035  1.00  0.00     0.102 C 
HETATM   25  C   UNL     1      -0.870  12.747   0.915  1.00  0.00     0.009 C 
HETATM   26  C   UNL     1      -0.378  13.991   0.180  1.00  0.00     0.007 C 
HETATM   27  C   UNL     1       0.005  12.463   2.128  1.00  0.00     0.007 C 
HETATM   28  C   UNL     1       0.997  13.793  -0.347  1.00  0.00     0.006 C 
HETATM   29  C   UNL     1       1.504  12.432   0.143  1.00  0.00     0.002 C 
HETATM   30  C   UNL     1       1.435  12.409   1.661  1.00  0.00     0.006 C 
HETATM   31  C   UNL     1       0.629  11.297  -0.401  1.00  0.00     0.114 C 
BRANCH  31  32
HETATM   32  C   UNL     1       0.947  11.109  -1.828  1.00  0.00     0.179 C 
HETATM   33  O   UNL     1       1.732  11.773  -2.432  1.00  0.00    -0.648 OA
HETATM   34  O   UNL     1       0.221  10.156  -2.376  1.00  0.00    -0.648 OA
ENDBRANCH  31  32
ENDBRANCH  20  24
TORSDOF 2
ENDMDL
MODEL 7
REMARK VINA RESULT:    -9.130      2.497      3.809
REMARK INTER + INTRA:         -11.085
REMARK INTER:                 -10.620
REMARK INTRA:                  -0.465
REMARK UNBOUND:                -0.888
REMARK  2 active torsions:
REMARK  status: ('A' for Active; 'I' for Inactive)
REMARK    1  A    between atoms: N_20  and  C_22 
REMARK    2  A    between atoms: C_23  and  C_30 
ROOT
HETATM    1  C   UNL     1      -4.171  12.897  -2.528  1.00  0.00     0.060 A 
HETATM    2  C   UNL     1      -5.341  12.180  -2.481  1.00  0.00     0.132 A 
HETATM    3  C   UNL     1      -6.418  12.503  -3.333  1.00  0.00     0.132 A 
HETATM    4  C   UNL     1      -5.239  14.230  -4.243  1.00  0.00     0.116 A 
HETATM    5  C   UNL     1      -4.123  13.977  -3.430  1.00  0.00     0.026 A 
HETATM    6  C   UNL     1      -3.134  14.970  -3.813  1.00  0.00     0.037 A 
HETATM    7  N   UNL     1      -6.384  13.502  -4.215  1.00  0.00    -0.349 N 
ATOM      8  HN  UNL     1      -7.171  13.707  -4.832  1.00  0.00     0.167 HD
HETATM    9  C   UNL     1      -3.736  15.728  -4.803  1.00  0.00     0.106 A 
HETATM   10  N   UNL     1      -4.984  15.275  -5.032  1.00  0.00    -0.351 N 
ATOM     11  HN  UNL     1      -5.637  15.672  -5.708  1.00  0.00     0.166 HD
HETATM   12  C   UNL     1      -1.801  15.083  -3.312  1.00  0.00     0.119 A 
HETATM   13  N   UNL     1      -1.002  16.059  -3.783  1.00  0.00    -0.348 N 
ATOM     14  HN  UNL     1      -1.338  16.705  -4.498  1.00  0.00     0.167 HD
HETATM   15  C   UNL     1       0.249  16.168  -3.294  1.00  0.00     0.136 A 
HETATM   16  C   UNL     1       0.685  15.331  -2.312  1.00  0.00     0.175 A 
HETATM   17  C   UNL     1      -0.166  14.341  -1.818  1.00  0.00     0.143 A 
HETATM   18  N   UNL     1      -1.412  14.290  -2.310  1.00  0.00    -0.326 N 
ATOM     19  HN  UNL     1      -2.078  13.631  -1.909  1.00  0.00     0.169 HD
HETATM   20  N   UNL     1       0.202  13.472  -0.883  1.00  0.00    -0.368 N 
ATOM     21  HN  UNL     1       1.177  13.485  -0.584  1.00  0.00     0.161 HD
HETATM   22  F   UNL     1       1.977  15.416  -1.907  1.00  0.00    -0.201 F 
HETATM   23  F   UNL     1      -5.475  11.170  -1.621  1.00  0.00    -0.205 F 
ENDROOT
BRANCH  20  24
HETATM   24  C   UNL     1      -0.692  12.492  -0.247  1.00  0.00     0.102 C 
HETATM   25  C   UNL     1      -0.983  11.418  -1.242  1.00  0.00     0.009 C 
HETATM   26  C   UNL     1      -2.060  10.508  -0.655  1.00  0.00     0.007 C 
HETATM   27  C   UNL     1       0.281  10.624  -1.539  1.00  0.00     0.007 C 
HETATM   28  C   UNL     1      -1.626   9.932   0.644  1.00  0.00     0.006 C 
HETATM   29  C   UNL     1      -0.174  10.357   0.892  1.00  0.00     0.002 C 
HETATM   30  C   UNL     1       0.672   9.894  -0.282  1.00  0.00     0.006 C 
HETATM   31  C   UNL     1      -0.064  11.882   0.998  1.00  0.00     0.114 C 
BRANCH  31  32
HETATM   32  C   UNL     1      -0.602  12.296   2.307  1.00  0.00     0.179 C 
HETATM   33  O   UNL     1      -1.740  12.154   2.638  1.00  0.00    -0.648 OA
HETATM   34  O   UNL     1       0.306  12.893   3.051  1.00  0.00    -0.648 OA
ENDBRANCH  31  32
ENDBRANCH  20  24
TORSDOF 2
ENDMDL
