MODEL 1
REMARK VINA RESULT:    -8.102      0.000      0.000
REMARK INTER + INTRA:         -14.484
REMARK INTER:                 -12.602
REMARK INTRA:                  -1.882
REMARK UNBOUND:                -1.882
REMARK  11 active torsions:
REMARK  status: ('A' for Active; 'I' for Inactive)
REMARK    1  A    between atoms: P_1  and  O_4 
REMARK    2  A    between atoms: P_1  and  O_5 
REMARK    3  A    between atoms: O_4  and  P_6 
REMARK    4  A    between atoms: O_5  and  C_14 
REMARK    5  A    between atoms: P_6  and  O_9 
REMARK    6  A    between atoms: O_9  and  P_10 
REMARK    7  A    between atoms: C_14  and  C_15 
REMARK    8  A    between atoms: C_17  and  O_18 
REMARK    9  A    between atoms: C_20  and  O_21 
REMARK   10  A    between atoms: C_23  and  N_24 
REMARK   11  A    between atoms: C_29  and  O_30 
ROOT
HETATM    1  C   UNL     1     -12.311  16.395  48.840  1.00  0.00     0.180 C 
HETATM    2  O   UNL     1     -12.394  14.886  49.236  1.00  0.00    -0.353 OA
HETATM    3  C   UNL     1     -13.016  16.527  47.735  1.00  0.00     0.182 C 
HETATM    4  C   UNL     1     -12.950  15.055  47.004  1.00  0.00     0.198 C 
HETATM    5  C   UNL     1     -12.775  14.141  47.912  1.00  0.00     0.262 C 
ENDROOT
BRANCH   5   6
HETATM    6  N   UNL     1     -13.975  13.389  48.097  1.00  0.00    -0.297 N 
HETATM    7  C   UNL     1     -14.721  12.810  47.125  1.00  0.00     0.190 A 
HETATM    8  N   UNL     1     -15.788  12.191  47.690  1.00  0.00    -0.341 N 
HETATM    9  C   UNL     1     -16.793  11.487  46.968  1.00  0.00     0.157 C 
HETATM   10  C   UNL     1     -15.749  12.378  49.061  1.00  0.00     0.131 A 
HETATM   11  C   UNL     1     -16.514  12.035  50.204  1.00  0.00     0.173 A 
HETATM   12  C   UNL     1     -14.563  13.147  49.305  1.00  0.00     0.144 A 
HETATM   13  N   UNL     1     -16.087  12.412  51.450  1.00  0.00    -0.309 N 
HETATM   14  C   UNL     1     -14.966  13.136  51.608  1.00  0.00     0.196 A 
ATOM     15  HN  UNL     1     -16.629  12.141  52.270  1.00  0.00     0.170 HD
HETATM   16  N   UNL     1     -14.553  13.556  52.919  1.00  0.00    -0.063 NA
HETATM   17  N   UNL     1     -14.244  13.502  50.575  1.00  0.00    -0.314 N 
ATOM     18  HN  UNL     1     -13.413  14.073  50.733  1.00  0.00     0.170 HD
BRANCH  11  19
HETATM   19  O   UNL     1     -17.718  11.255  50.115  1.00  0.00    -0.344 OA
ATOM     20  HO  UNL     1     -17.856  10.476  50.641  1.00  0.00     0.219 HD
ENDBRANCH  11  19
ENDBRANCH   5   6
BRANCH   4  21
HETATM   21  O   UNL     1     -11.771  15.150  46.157  1.00  0.00    -0.388 OA
ATOM     22  HO  UNL     1     -11.159  14.456  46.373  1.00  0.00     0.210 HD
ENDBRANCH   4  21
BRANCH   3  23
HETATM   23  O   UNL     1     -12.421  17.454  46.802  1.00  0.00    -0.390 OA
ATOM     24  HO  UNL     1     -11.705  17.070  46.309  1.00  0.00     0.210 HD
ENDBRANCH   3  23
BRANCH   1  25
HETATM   25  C   UNL     1     -12.987  17.212  49.934  1.00  0.00     0.216 C 
BRANCH  25  26
HETATM   26  O   UNL     1     -11.939  17.679  50.810  1.00  0.00    -0.287 OA
BRANCH  26  27
HETATM   27  P   UNL     1     -12.030  17.082  52.291  1.00  0.00     0.417 P 
HETATM   28  O   UNL     1     -11.203  17.954  53.180  1.00  0.00    -0.624 OA
HETATM   29  O   UNL     1     -13.483  16.974  52.692  1.00  0.00    -0.624 OA
BRANCH  27  30
HETATM   30  O   UNL     1     -11.273  15.702  52.179  1.00  0.00    -0.180 OA
BRANCH  30  31
HETATM   31  P   UNL     1      -9.723  15.497  51.906  1.00  0.00     0.428 P 
HETATM   32  O   UNL     1      -8.917  15.666  53.223  1.00  0.00    -0.624 OA
HETATM   33  O   UNL     1      -9.299  16.571  50.940  1.00  0.00    -0.624 OA
BRANCH  31  34
HETATM   34  O   UNL     1      -9.569  14.066  51.221  1.00  0.00    -0.173 OA
BRANCH  34  35
HETATM   35  P   UNL     1     -10.263  12.730  51.680  1.00  0.00     0.431 P 
HETATM   36  O   UNL     1      -9.475  11.474  51.374  1.00  0.00    -0.616 OA
HETATM   37  O   UNL     1     -11.589  12.659  50.966  1.00  0.00    -0.616 OA
HETATM   38  O   UNL     1     -10.500  12.746  53.203  1.00  0.00    -0.616 OA
ENDBRANCH  34  35
ENDBRANCH  31  34
ENDBRANCH  30  31
ENDBRANCH  27  30
ENDBRANCH  26  27
ENDBRANCH  25  26
ENDBRANCH   1  25
TORSDOF 11
ENDMDL
MODEL 2
REMARK VINA RESULT:    -7.892      1.744      3.176
REMARK INTER + INTRA:         -14.157
REMARK INTER:                 -12.489
REMARK INTRA:                  -1.667
REMARK UNBOUND:                -1.882
REMARK  11 active torsions:
REMARK  status: ('A' for Active; 'I' for Inactive)
REMARK    1  A    between atoms: P_1  and  O_4 
REMARK    2  A    between atoms: P_1  and  O_5 
REMARK    3  A    between atoms: O_4  and  P_6 
REMARK    4  A    between atoms: O_5  and  C_14 
REMARK    5  A    between atoms: P_6  and  O_9 
REMARK    6  A    between atoms: O_9  and  P_10 
REMARK    7  A    between atoms: C_14  and  C_15 
REMARK    8  A    between atoms: C_17  and  O_18 
REMARK    9  A    between atoms: C_20  and  O_21 
REMARK   10  A    between atoms: C_23  and  N_24 
REMARK   11  A    between atoms: C_29  and  O_30 
ROOT
HETATM    1  C   UNL     1     -11.155  15.454  48.002  1.00  0.00     0.180 C 
HETATM    2  O   UNL     1     -11.562  13.960  48.210  1.00  0.00    -0.353 OA
HETATM    3  C   UNL     1     -12.263  16.103  47.705  1.00  0.00     0.182 C 
HETATM    4  C   UNL     1     -13.242  14.982  47.004  1.00  0.00     0.198 C 
HETATM    5  C   UNL     1     -12.926  13.804  47.454  1.00  0.00     0.262 C 
ENDROOT
BRANCH   5   6
HETATM    6  N   UNL     1     -13.933  13.329  48.348  1.00  0.00    -0.297 N 
HETATM    7  C   UNL     1     -13.937  13.455  49.698  1.00  0.00     0.190 A 
HETATM    8  N   UNL     1     -15.055  12.872  50.198  1.00  0.00    -0.341 N 
HETATM    9  C   UNL     1     -15.386  12.804  51.580  1.00  0.00     0.157 C 
HETATM   10  C   UNL     1     -15.795  12.339  49.156  1.00  0.00     0.131 A 
HETATM   11  C   UNL     1     -17.001  11.620  48.966  1.00  0.00     0.173 A 
HETATM   12  C   UNL     1     -15.057  12.654  47.967  1.00  0.00     0.144 A 
HETATM   13  N   UNL     1     -17.412  11.294  47.700  1.00  0.00    -0.309 N 
HETATM   14  C   UNL     1     -16.669  11.618  46.628  1.00  0.00     0.196 A 
ATOM     15  HN  UNL     1     -18.293  10.798  47.569  1.00  0.00     0.170 HD
HETATM   16  N   UNL     1     -17.095  11.236  45.309  1.00  0.00    -0.063 NA
HETATM   17  N   UNL     1     -15.530  12.257  46.759  1.00  0.00    -0.314 N 
ATOM     18  HN  UNL     1     -14.982  12.462  45.923  1.00  0.00     0.170 HD
BRANCH  11  19
HETATM   19  O   UNL     1     -17.853  11.248  50.063  1.00  0.00    -0.344 OA
ATOM     20  HO  UNL     1     -17.505  10.969  50.902  1.00  0.00     0.219 HD
ENDBRANCH  11  19
ENDBRANCH   5   6
BRANCH   4  21
HETATM   21  O   UNL     1     -12.911  15.081  45.591  1.00  0.00    -0.388 OA
ATOM     22  HO  UNL     1     -12.086  14.643  45.419  1.00  0.00     0.210 HD
ENDBRANCH   4  21
BRANCH   3  23
HETATM   23  O   UNL     1     -12.059  17.125  46.707  1.00  0.00    -0.390 OA
ATOM     24  HO  UNL     1     -11.278  16.979  46.186  1.00  0.00     0.210 HD
ENDBRANCH   3  23
BRANCH   1  25
HETATM   25  C   UNL     1     -10.630  15.993  49.327  1.00  0.00     0.216 C 
BRANCH  25  26
HETATM   26  O   UNL     1     -11.465  17.116  49.678  1.00  0.00    -0.287 OA
BRANCH  26  27
HETATM   27  P   UNL     1     -11.410  17.493  51.231  1.00  0.00     0.417 P 
HETATM   28  O   UNL     1     -10.156  18.275  51.461  1.00  0.00    -0.624 OA
HETATM   29  O   UNL     1     -12.681  18.217  51.611  1.00  0.00    -0.624 OA
BRANCH  27  30
HETATM   30  O   UNL     1     -11.209  16.098  51.942  1.00  0.00    -0.180 OA
BRANCH  30  31
HETATM   31  P   UNL     1     -10.670  15.861  53.415  1.00  0.00     0.428 P 
HETATM   32  O   UNL     1     -10.893  17.131  54.282  1.00  0.00    -0.624 OA
HETATM   33  O   UNL     1      -9.191  15.603  53.309  1.00  0.00    -0.624 OA
BRANCH  31  34
HETATM   34  O   UNL     1     -11.406  14.556  53.962  1.00  0.00    -0.173 OA
BRANCH  34  35
HETATM   35  P   UNL     1     -12.899  14.459  54.450  1.00  0.00     0.431 P 
HETATM   36  O   UNL     1     -13.842  15.442  53.788  1.00  0.00    -0.616 OA
HETATM   37  O   UNL     1     -12.891  14.717  55.935  1.00  0.00    -0.616 OA
HETATM   38  O   UNL     1     -13.462  13.051  54.176  1.00  0.00    -0.616 OA
ENDBRANCH  34  35
ENDBRANCH  31  34
ENDBRANCH  30  31
ENDBRANCH  27  30
ENDBRANCH  26  27
ENDBRANCH  25  26
ENDBRANCH   1  25
TORSDOF 11
ENDMDL
MODEL 3
REMARK VINA RESULT:    -7.837      1.275      2.386
REMARK INTER + INTRA:         -14.071
REMARK INTER:                 -12.073
REMARK INTRA:                  -1.998
REMARK UNBOUND:                -1.882
REMARK  11 active torsions:
REMARK  status: ('A' for Active; 'I' for Inactive)
REMARK    1  A    between atoms: P_1  and  O_4 
REMARK    2  A    between atoms: P_1  and  O_5 
REMARK    3  A    between atoms: O_4  and  P_6 
REMARK    4  A    between atoms: O_5  and  C_14 
REMARK    5  A    between atoms: P_6  and  O_9 
REMARK    6  A    between atoms: O_9  and  P_10 
REMARK    7  A    between atoms: C_14  and  C_15 
REMARK    8  A    between atoms: C_17  and  O_18 
REMARK    9  A    between atoms: C_20  and  O_21 
REMARK   10  A    between atoms: C_23  and  N_24 
REMARK   11  A    between atoms: C_29  and  O_30 
ROOT
HETATM    1  C   UNL     1     -11.899  16.356  48.819  1.00  0.00     0.180 C 
HETATM    2  O   UNL     1     -12.029  14.866  49.270  1.00  0.00    -0.353 OA
HETATM    3  C   UNL     1     -12.676  16.494  47.765  1.00  0.00     0.182 C 
HETATM    4  C   UNL     1     -12.742  14.999  47.081  1.00  0.00     0.198 C 
HETATM    5  C   UNL     1     -12.547  14.104  48.003  1.00  0.00     0.262 C 
ENDROOT
BRANCH   5   6
HETATM    6  N   UNL     1     -13.767  13.424  48.300  1.00  0.00    -0.297 N 
HETATM    7  C   UNL     1     -14.611  12.854  47.405  1.00  0.00     0.190 A 
HETATM    8  N   UNL     1     -15.664  12.312  48.067  1.00  0.00    -0.341 N 
HETATM    9  C   UNL     1     -16.753  11.640  47.445  1.00  0.00     0.157 C 
HETATM   10  C   UNL     1     -15.516  12.542  49.424  1.00  0.00     0.131 A 
HETATM   11  C   UNL     1     -16.211  12.278  50.630  1.00  0.00     0.173 A 
HETATM   12  C   UNL     1     -14.277  13.254  49.555  1.00  0.00     0.144 A 
HETATM   13  N   UNL     1     -15.677  12.672  51.828  1.00  0.00    -0.309 N 
HETATM   14  C   UNL     1     -14.511  13.340  51.880  1.00  0.00     0.196 A 
ATOM     15  HN  UNL     1     -16.171  12.457  52.694  1.00  0.00     0.170 HD
HETATM   16  N   UNL     1     -13.983  13.779  53.142  1.00  0.00    -0.063 NA
HETATM   17  N   UNL     1     -13.848  13.632  50.786  1.00  0.00    -0.314 N 
ATOM     18  HN  UNL     1     -12.981  14.163  50.863  1.00  0.00     0.170 HD
BRANCH  11  19
HETATM   19  O   UNL     1     -17.457  11.561  50.656  1.00  0.00    -0.344 OA
ATOM     20  HO  UNL     1     -17.700  10.994  51.378  1.00  0.00     0.219 HD
ENDBRANCH  11  19
ENDBRANCH   5   6
BRANCH   4  21
HETATM   21  O   UNL     1     -11.626  15.006  46.147  1.00  0.00    -0.388 OA
ATOM     22  HO  UNL     1     -11.906  15.351  45.308  1.00  0.00     0.210 HD
ENDBRANCH   4  21
BRANCH   3  23
HETATM   23  O   UNL     1     -12.106  17.360  46.761  1.00  0.00    -0.390 OA
ATOM     24  HO  UNL     1     -12.540  18.204  46.715  1.00  0.00     0.210 HD
ENDBRANCH   3  23
BRANCH   1  25
HETATM   25  C   UNL     1     -12.447  17.239  49.932  1.00  0.00     0.216 C 
BRANCH  25  26
HETATM   26  O   UNL     1     -12.411  16.453  51.142  1.00  0.00    -0.287 OA
BRANCH  26  27
HETATM   27  P   UNL     1     -11.541  17.116  52.309  1.00  0.00     0.417 P 
HETATM   28  O   UNL     1     -11.775  18.592  52.264  1.00  0.00    -0.624 OA
HETATM   29  O   UNL     1     -11.897  16.463  53.624  1.00  0.00    -0.624 OA
BRANCH  27  30
HETATM   30  O   UNL     1     -10.052  16.879  51.838  1.00  0.00    -0.180 OA
BRANCH  30  31
HETATM   31  P   UNL     1      -9.201  15.556  52.039  1.00  0.00     0.428 P 
HETATM   32  O   UNL     1     -10.132  14.312  52.057  1.00  0.00    -0.624 OA
HETATM   33  O   UNL     1      -8.519  15.666  53.376  1.00  0.00    -0.624 OA
BRANCH  31  34
HETATM   34  O   UNL     1      -8.108  15.540  50.878  1.00  0.00    -0.173 OA
BRANCH  34  35
HETATM   35  P   UNL     1      -7.096  16.695  50.530  1.00  0.00     0.431 P 
HETATM   36  O   UNL     1      -6.978  17.768  51.591  1.00  0.00    -0.616 OA
HETATM   37  O   UNL     1      -7.578  17.327  49.249  1.00  0.00    -0.616 OA
HETATM   38  O   UNL     1      -5.682  16.121  50.318  1.00  0.00    -0.616 OA
ENDBRANCH  34  35
ENDBRANCH  31  34
ENDBRANCH  30  31
ENDBRANCH  27  30
ENDBRANCH  26  27
ENDBRANCH  25  26
ENDBRANCH   1  25
TORSDOF 11
ENDMDL
MODEL 4
REMARK VINA RESULT:    -7.813      3.957      6.360
REMARK INTER + INTRA:         -14.034
REMARK INTER:                 -12.332
REMARK INTRA:                  -1.702
REMARK UNBOUND:                -1.882
REMARK  11 active torsions:
REMARK  status: ('A' for Active; 'I' for Inactive)
REMARK    1  A    between atoms: P_1  and  O_4 
REMARK    2  A    between atoms: P_1  and  O_5 
REMARK    3  A    between atoms: O_4  and  P_6 
REMARK    4  A    between atoms: O_5  and  C_14 
REMARK    5  A    between atoms: P_6  and  O_9 
REMARK    6  A    between atoms: O_9  and  P_10 
REMARK    7  A    between atoms: C_14  and  C_15 
REMARK    8  A    between atoms: C_17  and  O_18 
REMARK    9  A    between atoms: C_20  and  O_21 
REMARK   10  A    between atoms: C_23  and  N_24 
REMARK   11  A    between atoms: C_29  and  O_30 
ROOT
HETATM    1  C   UNL     1     -11.233  16.589  51.234  1.00  0.00     0.180 C 
HETATM    2  O   UNL     1     -12.013  15.273  50.917  1.00  0.00    -0.353 OA
HETATM    3  C   UNL     1     -11.396  16.815  52.522  1.00  0.00     0.182 C 
HETATM    4  C   UNL     1     -12.833  16.110  52.904  1.00  0.00     0.198 C 
HETATM    5  C   UNL     1     -13.054  15.130  52.079  1.00  0.00     0.262 C 
ENDROOT
BRANCH   5   6
HETATM    6  N   UNL     1     -12.884  13.877  52.741  1.00  0.00    -0.297 N 
HETATM    7  C   UNL     1     -13.659  13.380  53.737  1.00  0.00     0.190 A 
HETATM    8  N   UNL     1     -13.179  12.168  54.113  1.00  0.00    -0.341 N 
HETATM    9  C   UNL     1     -13.738  11.359  55.142  1.00  0.00     0.157 C 
HETATM   10  C   UNL     1     -12.059  11.867  53.357  1.00  0.00     0.131 A 
HETATM   11  C   UNL     1     -11.105  10.826  53.236  1.00  0.00     0.173 A 
HETATM   12  C   UNL     1     -11.891  12.981  52.469  1.00  0.00     0.144 A 
HETATM   13  N   UNL     1     -10.118  10.910  52.291  1.00  0.00    -0.309 N 
HETATM   14  C   UNL     1     -10.015  11.985  51.491  1.00  0.00     0.196 A 
ATOM     15  HN  UNL     1      -9.450  10.145  52.193  1.00  0.00     0.170 HD
HETATM   16  N   UNL     1      -8.951  12.074  50.529  1.00  0.00    -0.063 NA
HETATM   17  N   UNL     1     -10.858  12.986  51.589  1.00  0.00    -0.314 N 
ATOM     18  HN  UNL     1     -10.732  13.796  50.982  1.00  0.00     0.170 HD
BRANCH  11  19
HETATM   19  O   UNL     1     -11.156   9.641  54.049  1.00  0.00    -0.344 OA
ATOM     20  HO  UNL     1     -11.840   9.498  54.693  1.00  0.00     0.219 HD
ENDBRANCH  11  19
ENDBRANCH   5   6
BRANCH   4  21
HETATM   21  O   UNL     1     -13.800  17.175  52.685  1.00  0.00    -0.388 OA
ATOM     22  HO  UNL     1     -13.804  17.769  53.426  1.00  0.00     0.210 HD
ENDBRANCH   4  21
BRANCH   3  23
HETATM   23  O   UNL     1     -11.555  18.217  52.826  1.00  0.00    -0.390 OA
ATOM     24  HO  UNL     1     -11.133  18.466  53.640  1.00  0.00     0.210 HD
ENDBRANCH   3  23
BRANCH   1  25
HETATM   25  C   UNL     1      -9.752  16.337  50.981  1.00  0.00     0.216 C 
BRANCH  25  26
HETATM   26  O   UNL     1      -9.044  17.497  51.467  1.00  0.00    -0.287 OA
BRANCH  26  27
HETATM   27  P   UNL     1      -8.622  18.518  50.310  1.00  0.00     0.417 P 
HETATM   28  O   UNL     1      -7.350  18.016  49.707  1.00  0.00    -0.624 OA
HETATM   29  O   UNL     1      -9.767  18.661  49.334  1.00  0.00    -0.624 OA
BRANCH  27  30
HETATM   30  O   UNL     1      -8.260  19.838  51.098  1.00  0.00    -0.180 OA
BRANCH  30  31
HETATM   31  P   UNL     1      -9.084  21.194  51.092  1.00  0.00     0.428 P 
HETATM   32  O   UNL     1      -9.249  21.718  49.639  1.00  0.00    -0.624 OA
HETATM   33  O   UNL     1      -8.286  22.199  51.879  1.00  0.00    -0.624 OA
BRANCH  31  34
HETATM   34  O   UNL     1     -10.458  20.892  51.841  1.00  0.00    -0.173 OA
BRANCH  34  35
HETATM   35  P   UNL     1     -11.524  21.954  52.305  1.00  0.00     0.431 P 
HETATM   36  O   UNL     1     -11.372  23.317  51.665  1.00  0.00    -0.616 OA
HETATM   37  O   UNL     1     -11.376  22.097  53.798  1.00  0.00    -0.616 OA
HETATM   38  O   UNL     1     -12.947  21.464  51.974  1.00  0.00    -0.616 OA
ENDBRANCH  34  35
ENDBRANCH  31  34
ENDBRANCH  30  31
ENDBRANCH  27  30
ENDBRANCH  26  27
ENDBRANCH  25  26
ENDBRANCH   1  25
TORSDOF 11
ENDMDL
MODEL 5
REMARK VINA RESULT:    -7.763      1.967      3.992
REMARK INTER + INTRA:         -13.956
REMARK INTER:                 -12.019
REMARK INTRA:                  -1.938
REMARK UNBOUND:                -1.882
REMARK  11 active torsions:
REMARK  status: ('A' for Active; 'I' for Inactive)
REMARK    1  A    between atoms: P_1  and  O_4 
REMARK    2  A    between atoms: P_1  and  O_5 
REMARK    3  A    between atoms: O_4  and  P_6 
REMARK    4  A    between atoms: O_5  and  C_14 
REMARK    5  A    between atoms: P_6  and  O_9 
REMARK    6  A    between atoms: O_9  and  P_10 
REMARK    7  A    between atoms: C_14  and  C_15 
REMARK    8  A    between atoms: C_17  and  O_18 
REMARK    9  A    between atoms: C_20  and  O_21 
REMARK   10  A    between atoms: C_23  and  N_24 
REMARK   11  A    between atoms: C_29  and  O_30 
ROOT
HETATM    1  C   UNL     1     -11.021  14.740  49.701  1.00  0.00     0.180 C 
HETATM    2  O   UNL     1     -11.513  13.423  49.020  1.00  0.00    -0.353 OA
HETATM    3  C   UNL     1     -11.936  15.653  49.446  1.00  0.00     0.182 C 
HETATM    4  C   UNL     1     -12.632  15.181  48.033  1.00  0.00     0.198 C 
HETATM    5  C   UNL     1     -12.525  13.890  47.920  1.00  0.00     0.262 C 
ENDROOT
BRANCH   5   6
HETATM    6  N   UNL     1     -13.794  13.268  48.122  1.00  0.00    -0.297 N 
HETATM    7  C   UNL     1     -14.619  12.788  47.158  1.00  0.00     0.190 A 
HETATM    8  N   UNL     1     -15.733  12.277  47.738  1.00  0.00    -0.341 N 
HETATM    9  C   UNL     1     -16.823  11.697  47.029  1.00  0.00     0.157 C 
HETATM   10  C   UNL     1     -15.646  12.436  49.110  1.00  0.00     0.131 A 
HETATM   11  C   UNL     1     -16.418  12.157  50.266  1.00  0.00     0.173 A 
HETATM   12  C   UNL     1     -14.380  13.070  49.339  1.00  0.00     0.144 A 
HETATM   13  N   UNL     1     -15.928  12.465  51.507  1.00  0.00    -0.309 N 
HETATM   14  C   UNL     1     -14.733  13.062  51.650  1.00  0.00     0.196 A 
ATOM     15  HN  UNL     1     -16.479  12.239  52.335  1.00  0.00     0.170 HD
HETATM   16  N   UNL     1     -14.250  13.413  52.958  1.00  0.00    -0.063 NA
HETATM   17  N   UNL     1     -13.997  13.367  50.607  1.00  0.00    -0.314 N 
ATOM     18  HN  UNL     1     -13.108  13.844  50.754  1.00  0.00     0.170 HD
BRANCH  11  19
HETATM   19  O   UNL     1     -17.701  11.511  50.193  1.00  0.00    -0.344 OA
ATOM     20  HO  UNL     1     -18.226  11.516  49.401  1.00  0.00     0.219 HD
ENDBRANCH  11  19
ENDBRANCH   5   6
BRANCH   4  21
HETATM   21  O   UNL     1     -11.820  15.839  47.020  1.00  0.00    -0.388 OA
ATOM     22  HO  UNL     1     -11.010  15.361  46.891  1.00  0.00     0.210 HD
ENDBRANCH   4  21
BRANCH   3  23
HETATM   23  O   UNL     1     -11.367  16.954  49.187  1.00  0.00    -0.390 OA
ATOM     24  HO  UNL     1     -10.418  16.956  49.234  1.00  0.00     0.210 HD
ENDBRANCH   3  23
BRANCH   1  25
HETATM   25  C   UNL     1     -10.985  14.512  51.207  1.00  0.00     0.216 C 
BRANCH  25  26
HETATM   26  O   UNL     1     -11.814  15.533  51.801  1.00  0.00    -0.287 OA
BRANCH  26  27
HETATM   27  P   UNL     1     -11.240  16.099  53.182  1.00  0.00     0.417 P 
HETATM   28  O   UNL     1     -11.948  15.388  54.291  1.00  0.00    -0.624 OA
HETATM   29  O   UNL     1      -9.737  15.944  53.194  1.00  0.00    -0.624 OA
BRANCH  27  30
HETATM   30  O   UNL     1     -11.748  17.594  53.206  1.00  0.00    -0.180 OA
BRANCH  30  31
HETATM   31  P   UNL     1     -11.275  18.765  52.245  1.00  0.00     0.428 P 
HETATM   32  O   UNL     1     -12.350  19.037  51.157  1.00  0.00    -0.624 OA
HETATM   33  O   UNL     1     -10.013  18.300  51.570  1.00  0.00    -0.624 OA
BRANCH  31  34
HETATM   34  O   UNL     1     -10.956  20.016  53.180  1.00  0.00    -0.173 OA
BRANCH  34  35
HETATM   35  P   UNL     1     -10.408  21.417  52.713  1.00  0.00     0.431 P 
HETATM   36  O   UNL     1     -10.410  21.624  51.214  1.00  0.00    -0.616 OA
HETATM   37  O   UNL     1      -8.992  21.522  53.218  1.00  0.00    -0.616 OA
HETATM   38  O   UNL     1     -11.255  22.552  53.320  1.00  0.00    -0.616 OA
ENDBRANCH  34  35
ENDBRANCH  31  34
ENDBRANCH  30  31
ENDBRANCH  27  30
ENDBRANCH  26  27
ENDBRANCH  25  26
ENDBRANCH   1  25
TORSDOF 11
ENDMDL
MODEL 6
REMARK VINA RESULT:    -7.706      3.336      5.433
REMARK INTER + INTRA:         -13.869
REMARK INTER:                 -12.269
REMARK INTRA:                  -1.599
REMARK UNBOUND:                -1.882
REMARK  11 active torsions:
REMARK  status: ('A' for Active; 'I' for Inactive)
REMARK    1  A    between atoms: P_1  and  O_4 
REMARK    2  A    between atoms: P_1  and  O_5 
REMARK    3  A    between atoms: O_4  and  P_6 
REMARK    4  A    between atoms: O_5  and  C_14 
REMARK    5  A    between atoms: P_6  and  O_9 
REMARK    6  A    between atoms: O_9  and  P_10 
REMARK    7  A    between atoms: C_14  and  C_15 
REMARK    8  A    between atoms: C_17  and  O_18 
REMARK    9  A    between atoms: C_20  and  O_21 
REMARK   10  A    between atoms: C_23  and  N_24 
REMARK   11  A    between atoms: C_29  and  O_30 
ROOT
HETATM    1  C   UNL     1     -11.041  14.579  51.807  1.00  0.00     0.180 C 
HETATM    2  O   UNL     1     -12.516  15.027  51.551  1.00  0.00    -0.353 OA
HETATM    3  C   UNL     1     -11.083  13.286  52.053  1.00  0.00     0.182 C 
HETATM    4  C   UNL     1     -12.580  13.015  52.678  1.00  0.00     0.198 C 
HETATM    5  C   UNL     1     -13.396  13.921  52.226  1.00  0.00     0.262 C 
ENDROOT
BRANCH   5   6
HETATM    6  N   UNL     1     -14.290  13.350  51.269  1.00  0.00    -0.297 N 
HETATM    7  C   UNL     1     -15.462  12.724  51.535  1.00  0.00     0.190 A 
HETATM    8  N   UNL     1     -16.023  12.312  50.371  1.00  0.00    -0.341 N 
HETATM    9  C   UNL     1     -17.255  11.607  50.269  1.00  0.00     0.157 C 
HETATM   10  C   UNL     1     -15.195  12.663  49.318  1.00  0.00     0.131 A 
HETATM   11  C   UNL     1     -15.158  12.541  47.907  1.00  0.00     0.173 A 
HETATM   12  C   UNL     1     -14.084  13.343  49.920  1.00  0.00     0.144 A 
HETATM   13  N   UNL     1     -14.116  13.083  47.200  1.00  0.00    -0.309 N 
HETATM   14  C   UNL     1     -13.104  13.705  47.828  1.00  0.00     0.196 A 
ATOM     15  HN  UNL     1     -14.109  13.013  46.183  1.00  0.00     0.170 HD
HETATM   16  N   UNL     1     -12.001  14.235  47.075  1.00  0.00    -0.063 NA
HETATM   17  N   UNL     1     -13.082  13.815  49.136  1.00  0.00    -0.314 N 
ATOM     18  HN  UNL     1     -12.284  14.271  49.578  1.00  0.00     0.170 HD
BRANCH  11  19
HETATM   19  O   UNL     1     -16.208  11.898  47.165  1.00  0.00    -0.344 OA
ATOM     20  HO  UNL     1     -16.090  11.607  46.269  1.00  0.00     0.219 HD
ENDBRANCH  11  19
ENDBRANCH   5   6
BRANCH   4  21
HETATM   21  O   UNL     1     -12.385  13.190  54.110  1.00  0.00    -0.388 OA
ATOM     22  HO  UNL     1     -12.910  13.916  54.423  1.00  0.00     0.210 HD
ENDBRANCH   4  21
BRANCH   3  23
HETATM   23  O   UNL     1     -10.151  12.882  53.078  1.00  0.00    -0.390 OA
ATOM     24  HO  UNL     1      -9.376  13.432  53.106  1.00  0.00     0.210 HD
ENDBRANCH   3  23
BRANCH   1  25
HETATM   25  C   UNL     1     -10.250  14.793  50.523  1.00  0.00     0.216 C 
BRANCH  25  26
HETATM   26  O   UNL     1      -8.996  14.096  50.687  1.00  0.00    -0.287 OA
BRANCH  26  27
HETATM   27  P   UNL     1      -8.652  13.108  49.478  1.00  0.00     0.417 P 
HETATM   28  O   UNL     1      -7.696  12.080  49.994  1.00  0.00    -0.624 OA
HETATM   29  O   UNL     1      -9.937  12.546  48.916  1.00  0.00    -0.624 OA
BRANCH  27  30
HETATM   30  O   UNL     1      -7.839  14.019  48.478  1.00  0.00    -0.180 OA
BRANCH  30  31
HETATM   31  P   UNL     1      -7.024  13.529  47.207  1.00  0.00     0.428 P 
HETATM   32  O   UNL     1      -7.059  14.611  46.093  1.00  0.00    -0.624 OA
HETATM   33  O   UNL     1      -7.707  12.289  46.695  1.00  0.00    -0.624 OA
BRANCH  31  34
HETATM   34  O   UNL     1      -5.560  13.163  47.722  1.00  0.00    -0.173 OA
BRANCH  34  35
HETATM   35  P   UNL     1      -4.557  14.131  48.454  1.00  0.00     0.431 P 
HETATM   36  O   UNL     1      -4.966  15.588  48.439  1.00  0.00    -0.616 OA
HETATM   37  O   UNL     1      -3.227  13.990  47.758  1.00  0.00    -0.616 OA
HETATM   38  O   UNL     1      -4.408  13.726  49.934  1.00  0.00    -0.616 OA
ENDBRANCH  34  35
ENDBRANCH  31  34
ENDBRANCH  30  31
ENDBRANCH  27  30
ENDBRANCH  26  27
ENDBRANCH  25  26
ENDBRANCH   1  25
TORSDOF 11
ENDMDL
MODEL 7
REMARK VINA RESULT:    -7.700      1.813      2.408
REMARK INTER + INTRA:         -13.858
REMARK INTER:                 -12.376
REMARK INTRA:                  -1.482
REMARK UNBOUND:                -1.882
REMARK  11 active torsions:
REMARK  status: ('A' for Active; 'I' for Inactive)
REMARK    1  A    between atoms: P_1  and  O_4 
REMARK    2  A    between atoms: P_1  and  O_5 
REMARK    3  A    between atoms: O_4  and  P_6 
REMARK    4  A    between atoms: O_5  and  C_14 
REMARK    5  A    between atoms: P_6  and  O_9 
REMARK    6  A    between atoms: O_9  and  P_10 
REMARK    7  A    between atoms: C_14  and  C_15 
REMARK    8  A    between atoms: C_17  and  O_18 
REMARK    9  A    between atoms: C_20  and  O_21 
REMARK   10  A    between atoms: C_23  and  N_24 
REMARK   11  A    between atoms: C_29  and  O_30 
ROOT
HETATM    1  C   UNL     1     -11.477  15.047  49.584  1.00  0.00     0.180 C 
HETATM    2  O   UNL     1     -11.852  13.597  49.138  1.00  0.00    -0.353 OA
HETATM    3  C   UNL     1     -12.373  15.845  49.039  1.00  0.00     0.182 C 
HETATM    4  C   UNL     1     -12.878  15.063  47.683  1.00  0.00     0.198 C 
HETATM    5  C   UNL     1     -12.730  13.783  47.854  1.00  0.00     0.262 C 
ENDROOT
BRANCH   5   6
HETATM    6  N   UNL     1     -14.001  13.155  48.031  1.00  0.00    -0.297 N 
HETATM    7  C   UNL     1     -14.801  12.666  47.052  1.00  0.00     0.190 A 
HETATM    8  N   UNL     1     -15.926  12.154  47.610  1.00  0.00    -0.341 N 
HETATM    9  C   UNL     1     -16.996  11.564  46.880  1.00  0.00     0.157 C 
HETATM   10  C   UNL     1     -15.870  12.321  48.983  1.00  0.00     0.131 A 
HETATM   11  C   UNL     1     -16.667  12.045  50.122  1.00  0.00     0.173 A 
HETATM   12  C   UNL     1     -14.612  12.962  49.236  1.00  0.00     0.144 A 
HETATM   13  N   UNL     1     -16.206  12.362  51.372  1.00  0.00    -0.309 N 
HETATM   14  C   UNL     1     -15.017  12.966  51.539  1.00  0.00     0.196 A 
ATOM     15  HN  UNL     1     -16.774  12.138  52.189  1.00  0.00     0.170 HD
HETATM   16  N   UNL     1     -14.565  13.326  52.855  1.00  0.00    -0.063 NA
HETATM   17  N   UNL     1     -14.260  13.268  50.510  1.00  0.00    -0.314 N 
ATOM     18  HN  UNL     1     -13.376  13.749  50.674  1.00  0.00     0.170 HD
BRANCH  11  19
HETATM   19  O   UNL     1     -17.945  11.393  50.024  1.00  0.00    -0.344 OA
ATOM     20  HO  UNL     1     -18.369  10.996  50.775  1.00  0.00     0.219 HD
ENDBRANCH  11  19
ENDBRANCH   5   6
BRANCH   4  21
HETATM   21  O   UNL     1     -11.962  15.538  46.658  1.00  0.00    -0.388 OA
ATOM     22  HO  UNL     1     -11.083  15.607  47.013  1.00  0.00     0.210 HD
ENDBRANCH   4  21
BRANCH   3  23
HETATM   23  O   UNL     1     -11.805  17.091  48.584  1.00  0.00    -0.390 OA
ATOM     24  HO  UNL     1     -12.141  17.843  49.059  1.00  0.00     0.210 HD
ENDBRANCH   3  23
BRANCH   1  25
HETATM   25  C   UNL     1     -11.623  15.132  51.098  1.00  0.00     0.216 C 
BRANCH  25  26
HETATM   26  O   UNL     1     -10.729  16.174  51.543  1.00  0.00    -0.287 OA
BRANCH  26  27
HETATM   27  P   UNL     1      -9.824  15.749  52.791  1.00  0.00     0.417 P 
HETATM   28  O   UNL     1     -10.310  16.511  53.981  1.00  0.00    -0.624 OA
HETATM   29  O   UNL     1      -9.868  14.246  52.945  1.00  0.00    -0.624 OA
BRANCH  27  30
HETATM   30  O   UNL     1      -8.402  16.332  52.430  1.00  0.00    -0.180 OA
BRANCH  30  31
HETATM   31  P   UNL     1      -7.699  16.287  51.008  1.00  0.00     0.428 P 
HETATM   32  O   UNL     1      -6.229  16.779  51.117  1.00  0.00    -0.624 OA
HETATM   33  O   UNL     1      -8.457  17.229  50.110  1.00  0.00    -0.624 OA
BRANCH  31  34
HETATM   34  O   UNL     1      -7.853  14.793  50.473  1.00  0.00    -0.173 OA
BRANCH  34  35
HETATM   35  P   UNL     1      -6.960  14.093  49.382  1.00  0.00     0.431 P 
HETATM   36  O   UNL     1      -5.530  13.839  49.809  1.00  0.00    -0.616 OA
HETATM   37  O   UNL     1      -6.955  14.998  48.176  1.00  0.00    -0.616 OA
HETATM   38  O   UNL     1      -7.559  12.727  48.996  1.00  0.00    -0.616 OA
ENDBRANCH  34  35
ENDBRANCH  31  34
ENDBRANCH  30  31
ENDBRANCH  27  30
ENDBRANCH  26  27
ENDBRANCH  25  26
ENDBRANCH   1  25
TORSDOF 11
ENDMDL
MODEL 8
REMARK VINA RESULT:    -7.663      4.310      6.122
REMARK INTER + INTRA:         -13.801
REMARK INTER:                 -12.212
REMARK INTRA:                  -1.589
REMARK UNBOUND:                -1.882
REMARK  11 active torsions:
REMARK  status: ('A' for Active; 'I' for Inactive)
REMARK    1  A    between atoms: P_1  and  O_4 
REMARK    2  A    between atoms: P_1  and  O_5 
REMARK    3  A    between atoms: O_4  and  P_6 
REMARK    4  A    between atoms: O_5  and  C_14 
REMARK    5  A    between atoms: P_6  and  O_9 
REMARK    6  A    between atoms: O_9  and  P_10 
REMARK    7  A    between atoms: C_14  and  C_15 
REMARK    8  A    between atoms: C_17  and  O_18 
REMARK    9  A    between atoms: C_20  and  O_21 
REMARK   10  A    between atoms: C_23  and  N_24 
REMARK   11  A    between atoms: C_29  and  O_30 
ROOT
HETATM    1  C   UNL     1     -10.691  16.397  51.744  1.00  0.00     0.180 C 
HETATM    2  O   UNL     1     -11.444  15.112  51.269  1.00  0.00    -0.353 OA
HETATM    3  C   UNL     1     -11.130  16.656  52.958  1.00  0.00     0.182 C 
HETATM    4  C   UNL     1     -12.649  16.026  53.010  1.00  0.00     0.198 C 
HETATM    5  C   UNL     1     -12.727  15.041  52.166  1.00  0.00     0.262 C 
ENDROOT
BRANCH   5   6
HETATM    6  N   UNL     1     -12.773  13.794  52.860  1.00  0.00    -0.297 N 
HETATM    7  C   UNL     1     -13.685  13.426  53.793  1.00  0.00     0.190 A 
HETATM    8  N   UNL     1     -13.397  12.174  54.229  1.00  0.00    -0.341 N 
HETATM    9  C   UNL     1     -14.138  11.470  55.219  1.00  0.00     0.157 C 
HETATM   10  C   UNL     1     -12.265  11.715  53.579  1.00  0.00     0.131 A 
HETATM   11  C   UNL     1     -11.444  10.560  53.557  1.00  0.00     0.173 A 
HETATM   12  C   UNL     1     -11.882  12.774  52.690  1.00  0.00     0.144 A 
HETATM   13  N   UNL     1     -10.377  10.494  52.700  1.00  0.00    -0.309 N 
HETATM   14  C   UNL     1     -10.073  11.525  51.894  1.00  0.00     0.196 A 
ATOM     15  HN  UNL     1      -9.806   9.650  52.672  1.00  0.00     0.170 HD
HETATM   16  N   UNL     1      -8.929  11.455  51.027  1.00  0.00    -0.063 NA
HETATM   17  N   UNL     1     -10.787  12.627  51.903  1.00  0.00    -0.314 N 
ATOM     18  HN  UNL     1     -10.509  13.398  51.296  1.00  0.00     0.170 HD
BRANCH  11  19
HETATM   19  O   UNL     1     -11.712   9.413  54.382  1.00  0.00    -0.344 OA
ATOM     20  HO  UNL     1     -12.259   8.694  54.087  1.00  0.00     0.219 HD
ENDBRANCH  11  19
ENDBRANCH   5   6
BRANCH   4  21
HETATM   21  O   UNL     1     -13.488  17.130  52.568  1.00  0.00    -0.388 OA
ATOM     22  HO  UNL     1     -14.252  17.202  53.128  1.00  0.00     0.210 HD
ENDBRANCH   4  21
BRANCH   3  23
HETATM   23  O   UNL     1     -11.284  18.070  53.206  1.00  0.00    -0.390 OA
ATOM     24  HO  UNL     1     -10.818  18.360  53.982  1.00  0.00     0.210 HD
ENDBRANCH   3  23
BRANCH   1  25
HETATM   25  C   UNL     1      -9.206  16.072  51.835  1.00  0.00     0.216 C 
BRANCH  25  26
HETATM   26  O   UNL     1      -8.997  14.866  51.070  1.00  0.00    -0.287 OA
BRANCH  26  27
HETATM   27  P   UNL     1      -8.103  15.086  49.763  1.00  0.00     0.417 P 
HETATM   28  O   UNL     1      -8.783  14.390  48.627  1.00  0.00    -0.624 OA
HETATM   29  O   UNL     1      -7.888  16.568  49.553  1.00  0.00    -0.624 OA
BRANCH  27  30
HETATM   30  O   UNL     1      -6.789  14.268  50.073  1.00  0.00    -0.180 OA
BRANCH  30  31
HETATM   31  P   UNL     1      -5.477  14.220  49.182  1.00  0.00     0.428 P 
HETATM   32  O   UNL     1      -5.143  15.637  48.637  1.00  0.00    -0.624 OA
HETATM   33  O   UNL     1      -5.765  13.312  48.017  1.00  0.00    -0.624 OA
BRANCH  31  34
HETATM   34  O   UNL     1      -4.334  13.582  50.092  1.00  0.00    -0.173 OA
BRANCH  34  35
HETATM   35  P   UNL     1      -2.863  13.244  49.646  1.00  0.00     0.431 P 
HETATM   36  O   UNL     1      -2.760  12.470  48.349  1.00  0.00    -0.616 OA
HETATM   37  O   UNL     1      -2.248  12.424  50.752  1.00  0.00    -0.616 OA
HETATM   38  O   UNL     1      -2.051  14.540  49.456  1.00  0.00    -0.616 OA
ENDBRANCH  34  35
ENDBRANCH  31  34
ENDBRANCH  30  31
ENDBRANCH  27  30
ENDBRANCH  26  27
ENDBRANCH  25  26
ENDBRANCH   1  25
TORSDOF 11
ENDMDL
MODEL 9
REMARK VINA RESULT:    -7.633      2.222      4.161
REMARK INTER + INTRA:         -13.755
REMARK INTER:                 -12.005
REMARK INTRA:                  -1.750
REMARK UNBOUND:                -1.882
REMARK  11 active torsions:
REMARK  status: ('A' for Active; 'I' for Inactive)
REMARK    1  A    between atoms: P_1  and  O_4 
REMARK    2  A    between atoms: P_1  and  O_5 
REMARK    3  A    between atoms: O_4  and  P_6 
REMARK    4  A    between atoms: O_5  and  C_14 
REMARK    5  A    between atoms: P_6  and  O_9 
REMARK    6  A    between atoms: O_9  and  P_10 
REMARK    7  A    between atoms: C_14  and  C_15 
REMARK    8  A    between atoms: C_17  and  O_18 
REMARK    9  A    between atoms: C_20  and  O_21 
REMARK   10  A    between atoms: C_23  and  N_24 
REMARK   11  A    between atoms: C_29  and  O_30 
ROOT
HETATM    1  C   UNL     1     -11.695  15.442  52.425  1.00  0.00     0.180 C 
HETATM    2  O   UNL     1     -13.256  15.399  52.377  1.00  0.00    -0.353 OA
HETATM    3  C   UNL     1     -11.285  14.202  52.250  1.00  0.00     0.182 C 
HETATM    4  C   UNL     1     -12.511  13.260  52.810  1.00  0.00     0.198 C 
HETATM    5  C   UNL     1     -13.630  13.912  52.698  1.00  0.00     0.262 C 
ENDROOT
BRANCH   5   6
HETATM    6  N   UNL     1     -14.420  13.364  51.642  1.00  0.00    -0.297 N 
HETATM    7  C   UNL     1     -15.596  12.703  51.775  1.00  0.00     0.190 A 
HETATM    8  N   UNL     1     -16.039  12.329  50.548  1.00  0.00    -0.341 N 
HETATM    9  C   UNL     1     -17.240  11.604  50.306  1.00  0.00     0.157 C 
HETATM   10  C   UNL     1     -15.129  12.742  49.590  1.00  0.00     0.131 A 
HETATM   11  C   UNL     1     -14.962  12.680  48.184  1.00  0.00     0.173 A 
HETATM   12  C   UNL     1     -14.094  13.418  50.317  1.00  0.00     0.144 A 
HETATM   13  N   UNL     1     -13.875  13.272  47.597  1.00  0.00    -0.309 N 
HETATM   14  C   UNL     1     -12.939  13.888  48.339  1.00  0.00     0.196 A 
ATOM     15  HN  UNL     1     -13.775  13.245  46.583  1.00  0.00     0.170 HD
HETATM   16  N   UNL     1     -11.786  14.472  47.711  1.00  0.00    -0.063 NA
HETATM   17  N   UNL     1     -13.037  13.943  49.647  1.00  0.00    -0.314 N 
ATOM     18  HN  UNL     1     -12.293  14.396  50.178  1.00  0.00     0.170 HD
BRANCH  11  19
HETATM   19  O   UNL     1     -15.926  12.048  47.325  1.00  0.00    -0.344 OA
ATOM     20  HO  UNL     1     -16.491  11.347  47.628  1.00  0.00     0.219 HD
ENDBRANCH  11  19
ENDBRANCH   5   6
BRANCH   4  21
HETATM   21  O   UNL     1     -12.181  13.075  54.215  1.00  0.00    -0.388 OA
ATOM     22  HO  UNL     1     -12.478  12.223  54.510  1.00  0.00     0.210 HD
ENDBRANCH   4  21
BRANCH   3  23
HETATM   23  O   UNL     1     -10.137  13.874  53.061  1.00  0.00    -0.390 OA
ATOM     24  HO  UNL     1      -9.779  14.630  53.512  1.00  0.00     0.210 HD
ENDBRANCH   3  23
BRANCH   1  25
HETATM   25  C   UNL     1     -11.205  16.275  51.248  1.00  0.00     0.216 C 
BRANCH  25  26
HETATM   26  O   UNL     1      -9.994  15.651  50.773  1.00  0.00    -0.287 OA
BRANCH  26  27
HETATM   27  P   UNL     1      -8.670  16.477  51.122  1.00  0.00     0.417 P 
HETATM   28  O   UNL     1      -9.032  17.928  51.126  1.00  0.00    -0.624 OA
HETATM   29  O   UNL     1      -8.098  15.969  52.425  1.00  0.00    -0.624 OA
BRANCH  27  30
HETATM   30  O   UNL     1      -7.748  16.245  49.862  1.00  0.00    -0.180 OA
BRANCH  30  31
HETATM   31  P   UNL     1      -7.544  14.877  49.084  1.00  0.00     0.428 P 
HETATM   32  O   UNL     1      -6.074  14.745  48.601  1.00  0.00    -0.624 OA
HETATM   33  O   UNL     1      -8.446  14.914  47.879  1.00  0.00    -0.624 OA
BRANCH  31  34
HETATM   34  O   UNL     1      -8.017  13.719  50.074  1.00  0.00    -0.173 OA
BRANCH  34  35
HETATM   35  P   UNL     1      -8.585  12.310  49.661  1.00  0.00     0.431 P 
HETATM   36  O   UNL     1      -8.156  11.836  48.288  1.00  0.00    -0.616 OA
HETATM   37  O   UNL     1     -10.088  12.419  49.691  1.00  0.00    -0.616 OA
HETATM   38  O   UNL     1      -8.128  11.234  50.665  1.00  0.00    -0.616 OA
ENDBRANCH  34  35
ENDBRANCH  31  34
ENDBRANCH  30  31
ENDBRANCH  27  30
ENDBRANCH  26  27
ENDBRANCH  25  26
ENDBRANCH   1  25
TORSDOF 11
ENDMDL
MODEL 10
REMARK VINA RESULT:    -7.609      2.705      5.245
REMARK INTER + INTRA:         -13.718
REMARK INTER:                 -11.908
REMARK INTRA:                  -1.809
REMARK UNBOUND:                -1.882
REMARK  11 active torsions:
REMARK  status: ('A' for Active; 'I' for Inactive)
REMARK    1  A    between atoms: P_1  and  O_4 
REMARK    2  A    between atoms: P_1  and  O_5 
REMARK    3  A    between atoms: O_4  and  P_6 
REMARK    4  A    between atoms: O_5  and  C_14 
REMARK    5  A    between atoms: P_6  and  O_9 
REMARK    6  A    between atoms: O_9  and  P_10 
REMARK    7  A    between atoms: C_14  and  C_15 
REMARK    8  A    between atoms: C_17  and  O_18 
REMARK    9  A    between atoms: C_20  and  O_21 
REMARK   10  A    between atoms: C_23  and  N_24 
REMARK   11  A    between atoms: C_29  and  O_30 
ROOT
HETATM    1  C   UNL     1     -10.918  14.199  51.854  1.00  0.00     0.180 C 
HETATM    2  O   UNL     1     -12.338  14.780  51.558  1.00  0.00    -0.353 OA
HETATM    3  C   UNL     1     -11.093  12.930  52.160  1.00  0.00     0.182 C 
HETATM    4  C   UNL     1     -12.615  12.843  52.778  1.00  0.00     0.198 C 
HETATM    5  C   UNL     1     -13.331  13.803  52.273  1.00  0.00     0.262 C 
ENDROOT
BRANCH   5   6
HETATM    6  N   UNL     1     -14.270  13.279  51.333  1.00  0.00    -0.297 N 
HETATM    7  C   UNL     1     -15.454  12.684  51.622  1.00  0.00     0.190 A 
HETATM    8  N   UNL     1     -16.061  12.313  50.467  1.00  0.00    -0.341 N 
HETATM    9  C   UNL     1     -17.317  11.649  50.389  1.00  0.00     0.157 C 
HETATM   10  C   UNL     1     -15.254  12.660  49.397  1.00  0.00     0.131 A 
HETATM   11  C   UNL     1     -15.262  12.565  47.983  1.00  0.00     0.173 A 
HETATM   12  C   UNL     1     -14.105  13.293  49.978  1.00  0.00     0.144 A 
HETATM   13  N   UNL     1     -14.226  13.088  47.256  1.00  0.00    -0.309 N 
HETATM   14  C   UNL     1     -13.176  13.666  47.865  1.00  0.00     0.196 A 
ATOM     15  HN  UNL     1     -14.250  13.038  46.238  1.00  0.00     0.170 HD
HETATM   16  N   UNL     1     -12.079  14.177  47.089  1.00  0.00    -0.063 NA
HETATM   17  N   UNL     1     -13.112  13.749  49.173  1.00  0.00    -0.314 N 
ATOM     18  HN  UNL     1     -12.287  14.171  49.600  1.00  0.00     0.170 HD
BRANCH  11  19
HETATM   19  O   UNL     1     -16.354  11.970  47.261  1.00  0.00    -0.344 OA
ATOM     20  HO  UNL     1     -16.220  11.288  46.614  1.00  0.00     0.219 HD
ENDBRANCH  11  19
ENDBRANCH   5   6
BRANCH   4  21
HETATM   21  O   UNL     1     -12.414  13.066  54.202  1.00  0.00    -0.388 OA
ATOM     22  HO  UNL     1     -12.138  13.962  54.355  1.00  0.00     0.210 HD
ENDBRANCH   4  21
BRANCH   3  23
HETATM   23  O   UNL     1     -10.215  12.485  53.215  1.00  0.00    -0.390 OA
ATOM     24  HO  UNL     1     -10.029  11.554  53.170  1.00  0.00     0.210 HD
ENDBRANCH   3  23
BRANCH   1  25
HETATM   25  C   UNL     1     -10.099  14.270  50.571  1.00  0.00     0.216 C 
BRANCH  25  26
HETATM   26  O   UNL     1     -10.037  12.928  50.044  1.00  0.00    -0.287 OA
BRANCH  26  27
HETATM   27  P   UNL     1      -8.786  12.676  49.081  1.00  0.00     0.417 P 
HETATM   28  O   UNL     1      -8.382  11.244  49.229  1.00  0.00    -0.624 OA
HETATM   29  O   UNL     1      -9.156  13.082  47.673  1.00  0.00    -0.624 OA
BRANCH  27  30
HETATM   30  O   UNL     1      -7.638  13.540  49.735  1.00  0.00    -0.180 OA
BRANCH  30  31
HETATM   31  P   UNL     1      -6.294  14.006  49.033  1.00  0.00     0.428 P 
HETATM   32  O   UNL     1      -6.016  13.142  47.772  1.00  0.00    -0.624 OA
HETATM   33  O   UNL     1      -5.179  13.789  50.021  1.00  0.00    -0.624 OA
BRANCH  31  34
HETATM   34  O   UNL     1      -6.454  15.565  48.737  1.00  0.00    -0.173 OA
BRANCH  34  35
HETATM   35  P   UNL     1      -6.988  16.656  49.738  1.00  0.00     0.431 P 
HETATM   36  O   UNL     1      -8.388  17.151  49.441  1.00  0.00    -0.616 OA
HETATM   37  O   UNL     1      -6.034  17.821  49.664  1.00  0.00    -0.616 OA
HETATM   38  O   UNL     1      -7.008  16.101  51.175  1.00  0.00    -0.616 OA
ENDBRANCH  34  35
ENDBRANCH  31  34
ENDBRANCH  30  31
ENDBRANCH  27  30
ENDBRANCH  26  27
ENDBRANCH  25  26
ENDBRANCH   1  25
TORSDOF 11
ENDMDL
MODEL 11
REMARK VINA RESULT:    -7.488      3.532      4.941
REMARK INTER + INTRA:         -13.528
REMARK INTER:                 -10.980
REMARK INTRA:                  -2.549
REMARK UNBOUND:                -1.882
REMARK  11 active torsions:
REMARK  status: ('A' for Active; 'I' for Inactive)
REMARK    1  A    between atoms: P_1  and  O_4 
REMARK    2  A    between atoms: P_1  and  O_5 
REMARK    3  A    between atoms: O_4  and  P_6 
REMARK    4  A    between atoms: O_5  and  C_14 
REMARK    5  A    between atoms: P_6  and  O_9 
REMARK    6  A    between atoms: O_9  and  P_10 
REMARK    7  A    between atoms: C_14  and  C_15 
REMARK    8  A    between atoms: C_17  and  O_18 
REMARK    9  A    between atoms: C_20  and  O_21 
REMARK   10  A    between atoms: C_23  and  N_24 
REMARK   11  A    between atoms: C_29  and  O_30 
ROOT
HETATM    1  C   UNL     1     -10.803  17.471  49.634  1.00  0.00     0.180 C 
HETATM    2  O   UNL     1     -10.170  17.076  48.262  1.00  0.00    -0.353 OA
HETATM    3  C   UNL     1     -11.856  16.695  49.794  1.00  0.00     0.182 C 
HETATM    4  C   UNL     1     -12.350  16.322  48.270  1.00  0.00     0.198 C 
HETATM    5  C   UNL     1     -11.327  16.377  47.469  1.00  0.00     0.262 C 
ENDROOT
BRANCH   5   6
HETATM    6  N   UNL     1     -10.931  15.062  47.078  1.00  0.00    -0.297 N 
HETATM    7  C   UNL     1     -11.481  14.316  46.089  1.00  0.00     0.190 A 
HETATM    8  N   UNL     1     -10.842  13.121  46.022  1.00  0.00    -0.341 N 
HETATM    9  C   UNL     1     -11.162  12.081  45.105  1.00  0.00     0.157 C 
HETATM   10  C   UNL     1      -9.860  13.076  46.996  1.00  0.00     0.131 A 
HETATM   11  C   UNL     1      -8.875  12.175  47.474  1.00  0.00     0.173 A 
HETATM   12  C   UNL     1      -9.927  14.345  47.662  1.00  0.00     0.144 A 
HETATM   13  N   UNL     1      -8.041  12.551  48.494  1.00  0.00    -0.309 N 
HETATM   14  C   UNL     1      -8.160  13.756  49.076  1.00  0.00     0.196 A 
ATOM     15  HN  UNL     1      -7.319  11.907  48.815  1.00  0.00     0.170 HD
HETATM   16  N   UNL     1      -7.302  14.121  50.170  1.00  0.00    -0.063 NA
HETATM   17  N   UNL     1      -9.078  14.610  48.687  1.00  0.00    -0.314 N 
ATOM     18  HN  UNL     1      -9.155  15.505  49.171  1.00  0.00     0.170 HD
BRANCH  11  19
HETATM   19  O   UNL     1      -8.681  10.874  46.895  1.00  0.00    -0.344 OA
ATOM     20  HO  UNL     1      -7.939  10.325  47.120  1.00  0.00     0.219 HD
ENDBRANCH  11  19
ENDBRANCH   5   6
BRANCH   4  21
HETATM   21  O   UNL     1     -13.291  17.383  47.950  1.00  0.00    -0.388 OA
ATOM     22  HO  UNL     1     -13.439  17.928  48.714  1.00  0.00     0.210 HD
ENDBRANCH   4  21
BRANCH   3  23
HETATM   23  O   UNL     1     -12.967  17.383  50.408  1.00  0.00    -0.390 OA
ATOM     24  HO  UNL     1     -13.584  16.788  50.819  1.00  0.00     0.210 HD
ENDBRANCH   3  23
BRANCH   1  25
HETATM   25  C   UNL     1      -9.800  17.142  50.733  1.00  0.00     0.216 C 
BRANCH  25  26
HETATM   26  O   UNL     1     -10.142  15.830  51.227  1.00  0.00    -0.287 OA
BRANCH  26  27
HETATM   27  P   UNL     1      -9.933  15.666  52.804  1.00  0.00     0.417 P 
HETATM   28  O   UNL     1      -8.461  15.694  53.069  1.00  0.00    -0.624 OA
HETATM   29  O   UNL     1     -10.721  16.737  53.522  1.00  0.00    -0.624 OA
BRANCH  27  30
HETATM   30  O   UNL     1     -10.416  14.190  53.089  1.00  0.00    -0.180 OA
BRANCH  30  31
HETATM   31  P   UNL     1     -11.715  13.495  52.501  1.00  0.00     0.428 P 
HETATM   32  O   UNL     1     -12.213  12.381  53.462  1.00  0.00    -0.624 OA
HETATM   33  O   UNL     1     -11.326  12.864  51.192  1.00  0.00    -0.624 OA
BRANCH  31  34
HETATM   34  O   UNL     1     -12.774  14.660  52.243  1.00  0.00    -0.173 OA
BRANCH  34  35
HETATM   35  P   UNL     1     -13.936  15.099  53.210  1.00  0.00     0.431 P 
HETATM   36  O   UNL     1     -13.610  14.970  54.683  1.00  0.00    -0.616 OA
HETATM   37  O   UNL     1     -15.122  14.223  52.894  1.00  0.00    -0.616 OA
HETATM   38  O   UNL     1     -14.307  16.574  52.964  1.00  0.00    -0.616 OA
ENDBRANCH  34  35
ENDBRANCH  31  34
ENDBRANCH  30  31
ENDBRANCH  27  30
ENDBRANCH  26  27
ENDBRANCH  25  26
ENDBRANCH   1  25
TORSDOF 11
ENDMDL
MODEL 12
REMARK VINA RESULT:    -7.464      3.540      5.236
REMARK INTER + INTRA:         -13.492
REMARK INTER:                 -11.459
REMARK INTRA:                  -2.033
REMARK UNBOUND:                -1.882
REMARK  11 active torsions:
REMARK  status: ('A' for Active; 'I' for Inactive)
REMARK    1  A    between atoms: P_1  and  O_4 
REMARK    2  A    between atoms: P_1  and  O_5 
REMARK    3  A    between atoms: O_4  and  P_6 
REMARK    4  A    between atoms: O_5  and  C_14 
REMARK    5  A    between atoms: P_6  and  O_9 
REMARK    6  A    between atoms: O_9  and  P_10 
REMARK    7  A    between atoms: C_14  and  C_15 
REMARK    8  A    between atoms: C_17  and  O_18 
REMARK    9  A    between atoms: C_20  and  O_21 
REMARK   10  A    between atoms: C_23  and  N_24 
REMARK   11  A    between atoms: C_29  and  O_30 
ROOT
HETATM    1  C   UNL     1     -12.413  16.229  50.891  1.00  0.00     0.180 C 
HETATM    2  O   UNL     1     -13.206  14.883  50.867  1.00  0.00    -0.353 OA
HETATM    3  C   UNL     1     -12.215  16.521  52.160  1.00  0.00     0.182 C 
HETATM    4  C   UNL     1     -13.462  15.810  52.964  1.00  0.00     0.198 C 
HETATM    5  C   UNL     1     -13.873  14.783  52.282  1.00  0.00     0.262 C 
ENDROOT
BRANCH   5   6
HETATM    6  N   UNL     1     -13.482  13.570  52.926  1.00  0.00    -0.297 N 
HETATM    7  C   UNL     1     -14.157  12.927  53.911  1.00  0.00     0.190 A 
HETATM    8  N   UNL     1     -13.468  11.816  54.271  1.00  0.00    -0.341 N 
HETATM    9  C   UNL     1     -13.874  10.904  55.286  1.00  0.00     0.157 C 
HETATM   10  C   UNL     1     -12.311  11.732  53.516  1.00  0.00     0.131 A 
HETATM   11  C   UNL     1     -11.186  10.881  53.383  1.00  0.00     0.173 A 
HETATM   12  C   UNL     1     -12.344  12.871  52.645  1.00  0.00     0.144 A 
HETATM   13  N   UNL     1     -10.228  11.155  52.443  1.00  0.00    -0.309 N 
HETATM   14  C   UNL     1     -10.319  12.243  51.660  1.00  0.00     0.196 A 
ATOM     15  HN  UNL     1      -9.434  10.524  52.336  1.00  0.00     0.170 HD
HETATM   16  N   UNL     1      -9.286  12.536  50.704  1.00  0.00    -0.063 NA
HETATM   17  N   UNL     1     -11.328  13.075  51.769  1.00  0.00    -0.314 N 
ATOM     18  HN  UNL     1     -11.349  13.904  51.175  1.00  0.00     0.170 HD
BRANCH  11  19
HETATM   19  O   UNL     1     -11.024   9.694  54.178  1.00  0.00    -0.344 OA
ATOM     20  HO  UNL     1     -10.987   8.827  53.792  1.00  0.00     0.219 HD
ENDBRANCH  11  19
ENDBRANCH   5   6
BRANCH   4  21
HETATM   21  O   UNL     1     -14.487  16.843  52.979  1.00  0.00    -0.388 OA
ATOM     22  HO  UNL     1     -14.653  17.148  52.095  1.00  0.00     0.210 HD
ENDBRANCH   4  21
BRANCH   3  23
HETATM   23  O   UNL     1     -12.329  17.934  52.432  1.00  0.00    -0.390 OA
ATOM     24  HO  UNL     1     -12.023  18.472  51.710  1.00  0.00     0.210 HD
ENDBRANCH   3  23
BRANCH   1  25
HETATM   25  C   UNL     1     -11.055  15.992  50.241  1.00  0.00     0.216 C 
BRANCH  25  26
HETATM   26  O   UNL     1     -10.123  15.734  51.312  1.00  0.00    -0.287 OA
BRANCH  26  27
HETATM   27  P   UNL     1      -8.718  16.475  51.128  1.00  0.00     0.417 P 
HETATM   28  O   UNL     1      -8.988  17.945  51.069  1.00  0.00    -0.624 OA
HETATM   29  O   UNL     1      -7.785  16.052  52.239  1.00  0.00    -0.624 OA
BRANCH  27  30
HETATM   30  O   UNL     1      -8.259  16.042  49.681  1.00  0.00    -0.180 OA
BRANCH  30  31
HETATM   31  P   UNL     1      -6.992  16.584  48.894  1.00  0.00     0.428 P 
HETATM   32  O   UNL     1      -5.910  17.083  49.890  1.00  0.00    -0.624 OA
HETATM   33  O   UNL     1      -7.455  17.750  48.061  1.00  0.00    -0.624 OA
BRANCH  31  34
HETATM   34  O   UNL     1      -6.511  15.399  47.941  1.00  0.00    -0.173 OA
BRANCH  34  35
HETATM   35  P   UNL     1      -6.300  13.895  48.352  1.00  0.00     0.431 P 
HETATM   36  O   UNL     1      -5.091  13.235  47.726  1.00  0.00    -0.616 OA
HETATM   37  O   UNL     1      -7.539  13.148  47.926  1.00  0.00    -0.616 OA
HETATM   38  O   UNL     1      -6.131  13.776  49.879  1.00  0.00    -0.616 OA
ENDBRANCH  34  35
ENDBRANCH  31  34
ENDBRANCH  30  31
ENDBRANCH  27  30
ENDBRANCH  26  27
ENDBRANCH  25  26
ENDBRANCH   1  25
TORSDOF 11
ENDMDL
MODEL 13
REMARK VINA RESULT:    -7.459      6.514      9.274
REMARK INTER + INTRA:         -13.484
REMARK INTER:                 -11.776
REMARK INTRA:                  -1.708
REMARK UNBOUND:                -1.882
REMARK  11 active torsions:
REMARK  status: ('A' for Active; 'I' for Inactive)
REMARK    1  A    between atoms: P_1  and  O_4 
REMARK    2  A    between atoms: P_1  and  O_5 
REMARK    3  A    between atoms: O_4  and  P_6 
REMARK    4  A    between atoms: O_5  and  C_14 
REMARK    5  A    between atoms: P_6  and  O_9 
REMARK    6  A    between atoms: O_9  and  P_10 
REMARK    7  A    between atoms: C_14  and  C_15 
REMARK    8  A    between atoms: C_17  and  O_18 
REMARK    9  A    between atoms: C_20  and  O_21 
REMARK   10  A    between atoms: C_23  and  N_24 
REMARK   11  A    between atoms: C_29  and  O_30 
ROOT
HETATM    1  C   UNL     1      -7.919  19.029  49.901  1.00  0.00     0.180 C 
HETATM    2  O   UNL     1      -8.268  20.499  50.295  1.00  0.00    -0.353 OA
HETATM    3  C   UNL     1      -6.824  18.717  50.566  1.00  0.00     0.182 C 
HETATM    4  C   UNL     1      -6.048  20.147  50.810  1.00  0.00     0.198 C 
HETATM    5  C   UNL     1      -6.925  21.106  50.827  1.00  0.00     0.262 C 
ENDROOT
BRANCH   5   6
HETATM    6  N   UNL     1      -7.098  21.597  52.157  1.00  0.00    -0.297 N 
HETATM    7  C   UNL     1      -6.216  21.481  53.180  1.00  0.00     0.190 A 
HETATM    8  N   UNL     1      -6.738  22.065  54.287  1.00  0.00    -0.341 N 
HETATM    9  C   UNL     1      -6.092  22.123  55.554  1.00  0.00     0.157 C 
HETATM   10  C   UNL     1      -7.994  22.565  53.989  1.00  0.00     0.131 A 
HETATM   11  C   UNL     1      -9.049  23.249  54.642  1.00  0.00     0.173 A 
HETATM   12  C   UNL     1      -8.204  22.261  52.603  1.00  0.00     0.144 A 
HETATM   13  N   UNL     1     -10.171  23.605  53.941  1.00  0.00    -0.309 N 
HETATM   14  C   UNL     1     -10.306  23.286  52.643  1.00  0.00     0.196 A 
ATOM     15  HN  UNL     1     -10.916  24.119  54.411  1.00  0.00     0.170 HD
HETATM   16  N   UNL     1     -11.505  23.633  51.931  1.00  0.00    -0.063 NA
HETATM   17  N   UNL     1      -9.367  22.626  52.006  1.00  0.00    -0.314 N 
ATOM     18  HN  UNL     1      -9.516  22.378  51.027  1.00  0.00     0.170 HD
BRANCH  11  19
HETATM   19  O   UNL     1      -8.974  23.634  56.026  1.00  0.00    -0.344 OA
ATOM     20  HO  UNL     1      -8.272  23.341  56.595  1.00  0.00     0.219 HD
ENDBRANCH  11  19
ENDBRANCH   5   6
BRANCH   4  21
HETATM   21  O   UNL     1      -5.194  20.272  49.639  1.00  0.00    -0.388 OA
ATOM     22  HO  UNL     1      -5.021  21.188  49.460  1.00  0.00     0.210 HD
ENDBRANCH   4  21
BRANCH   3  23
HETATM   23  O   UNL     1      -5.915  17.905  49.794  1.00  0.00    -0.390 OA
ATOM     24  HO  UNL     1      -5.874  18.166  48.881  1.00  0.00     0.210 HD
ENDBRANCH   3  23
BRANCH   1  25
HETATM   25  C   UNL     1      -9.044  18.125  50.389  1.00  0.00     0.216 C 
BRANCH  25  26
HETATM   26  O   UNL     1      -8.617  16.767  50.152  1.00  0.00    -0.287 OA
BRANCH  26  27
HETATM   27  P   UNL     1      -9.023  15.756  51.323  1.00  0.00     0.417 P 
HETATM   28  O   UNL     1      -8.900  14.367  50.783  1.00  0.00    -0.624 OA
HETATM   29  O   UNL     1      -8.168  16.036  52.537  1.00  0.00    -0.624 OA
BRANCH  27  30
HETATM   30  O   UNL     1     -10.565  16.028  51.526  1.00  0.00    -0.180 OA
BRANCH  30  31
HETATM   31  P   UNL     1     -11.397  15.778  52.854  1.00  0.00     0.428 P 
HETATM   32  O   UNL     1     -11.044  16.849  53.922  1.00  0.00    -0.624 OA
HETATM   33  O   UNL     1     -10.999  14.425  53.378  1.00  0.00    -0.624 OA
BRANCH  31  34
HETATM   34  O   UNL     1     -12.934  15.758  52.427  1.00  0.00    -0.173 OA
BRANCH  34  35
HETATM   35  P   UNL     1     -14.161  15.452  53.365  1.00  0.00     0.431 P 
HETATM   36  O   UNL     1     -13.794  15.151  54.802  1.00  0.00    -0.616 OA
HETATM   37  O   UNL     1     -14.869  14.256  52.781  1.00  0.00    -0.616 OA
HETATM   38  O   UNL     1     -15.124  16.655  53.395  1.00  0.00    -0.616 OA
ENDBRANCH  34  35
ENDBRANCH  31  34
ENDBRANCH  30  31
ENDBRANCH  27  30
ENDBRANCH  26  27
ENDBRANCH  25  26
ENDBRANCH   1  25
TORSDOF 11
ENDMDL
MODEL 14
REMARK VINA RESULT:    -7.327      3.842      5.721
REMARK INTER + INTRA:         -13.278
REMARK INTER:                 -11.191
REMARK INTRA:                  -2.087
REMARK UNBOUND:                -1.882
REMARK  11 active torsions:
REMARK  status: ('A' for Active; 'I' for Inactive)
REMARK    1  A    between atoms: P_1  and  O_4 
REMARK    2  A    between atoms: P_1  and  O_5 
REMARK    3  A    between atoms: O_4  and  P_6 
REMARK    4  A    between atoms: O_5  and  C_14 
REMARK    5  A    between atoms: P_6  and  O_9 
REMARK    6  A    between atoms: O_9  and  P_10 
REMARK    7  A    between atoms: C_14  and  C_15 
REMARK    8  A    between atoms: C_17  and  O_18 
REMARK    9  A    between atoms: C_20  and  O_21 
REMARK   10  A    between atoms: C_23  and  N_24 
REMARK   11  A    between atoms: C_29  and  O_30 
ROOT
HETATM    1  C   UNL     1     -10.954  16.273  51.595  1.00  0.00     0.180 C 
HETATM    2  O   UNL     1     -11.761  14.994  51.202  1.00  0.00    -0.353 OA
HETATM    3  C   UNL     1     -11.250  16.526  52.854  1.00  0.00     0.182 C 
HETATM    4  C   UNL     1     -12.754  15.899  53.077  1.00  0.00     0.198 C 
HETATM    5  C   UNL     1     -12.932  14.919  52.241  1.00  0.00     0.262 C 
ENDROOT
BRANCH   5   6
HETATM    6  N   UNL     1     -12.902  13.668  52.929  1.00  0.00    -0.297 N 
HETATM    7  C   UNL     1     -13.776  13.249  53.876  1.00  0.00     0.190 A 
HETATM    8  N   UNL     1     -13.415  12.011  54.299  1.00  0.00    -0.341 N 
HETATM    9  C   UNL     1     -14.101  11.265  55.298  1.00  0.00     0.157 C 
HETATM   10  C   UNL     1     -12.274  11.614  53.625  1.00  0.00     0.131 A 
HETATM   11  C   UNL     1     -11.396  10.503  53.581  1.00  0.00     0.173 A 
HETATM   12  C   UNL     1     -11.963  12.696  52.735  1.00  0.00     0.144 A 
HETATM   13  N   UNL     1     -10.344  10.496  52.703  1.00  0.00    -0.309 N 
HETATM   14  C   UNL     1     -10.107  11.546  51.899  1.00  0.00     0.196 A 
ATOM     15  HN  UNL     1      -9.731   9.682  52.660  1.00  0.00     0.170 HD
HETATM   16  N   UNL     1      -8.978  11.538  51.010  1.00  0.00    -0.063 NA
HETATM   17  N   UNL     1     -10.877  12.609  51.927  1.00  0.00    -0.314 N 
ATOM     18  HN  UNL     1     -10.650  13.397  51.320  1.00  0.00     0.170 HD
BRANCH  11  19
HETATM   19  O   UNL     1     -11.590   9.339  54.404  1.00  0.00    -0.344 OA
ATOM     20  HO  UNL     1     -11.863   9.401  55.311  1.00  0.00     0.219 HD
ENDBRANCH  11  19
ENDBRANCH   5   6
BRANCH   4  21
HETATM   21  O   UNL     1     -13.635  17.007  52.741  1.00  0.00    -0.388 OA
ATOM     22  HO  UNL     1     -13.506  17.262  51.836  1.00  0.00     0.210 HD
ENDBRANCH   4  21
BRANCH   3  23
HETATM   23  O   UNL     1     -11.369  17.938  53.126  1.00  0.00    -0.390 OA
ATOM     24  HO  UNL     1     -12.269  18.210  53.265  1.00  0.00     0.210 HD
ENDBRANCH   3  23
BRANCH   1  25
HETATM   25  C   UNL     1      -9.469  15.944  51.512  1.00  0.00     0.216 C 
BRANCH  25  26
HETATM   26  O   UNL     1      -9.346  14.803  50.637  1.00  0.00    -0.287 OA
BRANCH  26  27
HETATM   27  P   UNL     1      -8.129  14.917  49.606  1.00  0.00     0.417 P 
HETATM   28  O   UNL     1      -8.107  16.320  49.088  1.00  0.00    -0.624 OA
HETATM   29  O   UNL     1      -6.855  14.480  50.292  1.00  0.00    -0.624 OA
BRANCH  27  30
HETATM   30  O   UNL     1      -8.578  13.998  48.403  1.00  0.00    -0.180 OA
BRANCH  30  31
HETATM   31  P   UNL     1     -10.044  13.873  47.811  1.00  0.00     0.428 P 
HETATM   32  O   UNL     1     -10.667  15.282  47.609  1.00  0.00    -0.624 OA
HETATM   33  O   UNL     1     -10.868  13.122  48.822  1.00  0.00    -0.624 OA
BRANCH  31  34
HETATM   34  O   UNL     1      -9.920  13.013  46.473  1.00  0.00    -0.173 OA
BRANCH  34  35
HETATM   35  P   UNL     1      -9.063  11.708  46.277  1.00  0.00     0.431 P 
HETATM   36  O   UNL     1      -8.901  10.868  47.526  1.00  0.00    -0.616 OA
HETATM   37  O   UNL     1      -7.699  12.147  45.806  1.00  0.00    -0.616 OA
HETATM   38  O   UNL     1      -9.706  10.800  45.211  1.00  0.00    -0.616 OA
ENDBRANCH  34  35
ENDBRANCH  31  34
ENDBRANCH  30  31
ENDBRANCH  27  30
ENDBRANCH  26  27
ENDBRANCH  25  26
ENDBRANCH   1  25
TORSDOF 11
ENDMDL
MODEL 15
REMARK VINA RESULT:    -7.263      3.550      4.596
REMARK INTER + INTRA:         -13.179
REMARK INTER:                 -10.951
REMARK INTRA:                  -2.228
REMARK UNBOUND:                -1.882
REMARK  11 active torsions:
REMARK  status: ('A' for Active; 'I' for Inactive)
REMARK    1  A    between atoms: P_1  and  O_4 
REMARK    2  A    between atoms: P_1  and  O_5 
REMARK    3  A    between atoms: O_4  and  P_6 
REMARK    4  A    between atoms: O_5  and  C_14 
REMARK    5  A    between atoms: P_6  and  O_9 
REMARK    6  A    between atoms: O_9  and  P_10 
REMARK    7  A    between atoms: C_14  and  C_15 
REMARK    8  A    between atoms: C_17  and  O_18 
REMARK    9  A    between atoms: C_20  and  O_21 
REMARK   10  A    between atoms: C_23  and  N_24 
REMARK   11  A    between atoms: C_29  and  O_30 
ROOT
HETATM    1  C   UNL     1     -12.029  17.387  49.185  1.00  0.00     0.180 C 
HETATM    2  O   UNL     1     -10.682  16.627  48.962  1.00  0.00    -0.353 OA
HETATM    3  C   UNL     1     -12.758  17.172  48.109  1.00  0.00     0.182 C 
HETATM    4  C   UNL     1     -11.674  16.912  46.899  1.00  0.00     0.198 C 
HETATM    5  C   UNL     1     -10.578  16.436  47.410  1.00  0.00     0.262 C 
ENDROOT
BRANCH   5   6
HETATM    6  N   UNL     1     -10.442  15.051  47.092  1.00  0.00    -0.297 N 
HETATM    7  C   UNL     1     -11.201  14.347  46.216  1.00  0.00     0.190 A 
HETATM    8  N   UNL     1     -10.774  13.060  46.189  1.00  0.00    -0.341 N 
HETATM    9  C   UNL     1     -11.348  12.032  45.389  1.00  0.00     0.157 C 
HETATM   10  C   UNL     1      -9.721  12.911  47.075  1.00  0.00     0.131 A 
HETATM   11  C   UNL     1      -8.854  11.889  47.535  1.00  0.00     0.173 A 
HETATM   12  C   UNL     1      -9.515  14.213  47.641  1.00  0.00     0.144 A 
HETATM   13  N   UNL     1      -7.873  12.183  48.445  1.00  0.00    -0.309 N 
HETATM   14  C   UNL     1      -7.736  13.425  48.939  1.00  0.00     0.196 A 
ATOM     15  HN  UNL     1      -7.237  11.447  48.753  1.00  0.00     0.170 HD
HETATM   16  N   UNL     1      -6.726  13.708  49.921  1.00  0.00    -0.063 NA
HETATM   17  N   UNL     1      -8.536  14.396  48.564  1.00  0.00    -0.314 N 
ATOM     18  HN  UNL     1      -8.419  15.319  48.980  1.00  0.00     0.170 HD
BRANCH  11  19
HETATM   19  O   UNL     1      -8.932  10.539  47.046  1.00  0.00    -0.344 OA
ATOM     20  HO  UNL     1      -9.485   9.884  47.455  1.00  0.00     0.219 HD
ENDBRANCH  11  19
ENDBRANCH   5   6
BRANCH   4  21
HETATM   21  O   UNL     1     -11.438  18.244  46.364  1.00  0.00    -0.388 OA
ATOM     22  HO  UNL     1     -10.658  18.618  46.756  1.00  0.00     0.210 HD
ENDBRANCH   4  21
BRANCH   3  23
HETATM   23  O   UNL     1     -13.519  18.332  47.710  1.00  0.00    -0.390 OA
ATOM     24  HO  UNL     1     -13.892  18.245  46.840  1.00  0.00     0.210 HD
ENDBRANCH   3  23
BRANCH   1  25
HETATM   25  C   UNL     1     -12.741  16.755  50.374  1.00  0.00     0.216 C 
BRANCH  25  26
HETATM   26  O   UNL     1     -11.713  16.328  51.294  1.00  0.00    -0.287 OA
BRANCH  26  27
HETATM   27  P   UNL     1     -12.091  16.568  52.829  1.00  0.00     0.417 P 
HETATM   28  O   UNL     1     -11.238  17.687  53.334  1.00  0.00    -0.624 OA
HETATM   29  O   UNL     1     -13.578  16.811  52.941  1.00  0.00    -0.624 OA
BRANCH  27  30
HETATM   30  O   UNL     1     -11.582  15.254  53.542  1.00  0.00    -0.180 OA
BRANCH  30  31
HETATM   31  P   UNL     1     -12.291  13.835  53.517  1.00  0.00     0.428 P 
HETATM   32  O   UNL     1     -13.618  13.908  52.712  1.00  0.00    -0.624 OA
HETATM   33  O   UNL     1     -12.612  13.475  54.943  1.00  0.00    -0.624 OA
BRANCH  31  34
HETATM   34  O   UNL     1     -11.223  12.806  52.930  1.00  0.00    -0.173 OA
BRANCH  34  35
HETATM   35  P   UNL     1     -10.552  12.865  51.508  1.00  0.00     0.431 P 
HETATM   36  O   UNL     1      -9.784  11.618  51.123  1.00  0.00    -0.616 OA
HETATM   37  O   UNL     1      -9.604  14.037  51.520  1.00  0.00    -0.616 OA
HETATM   38  O   UNL     1     -11.622  13.081  50.420  1.00  0.00    -0.616 OA
ENDBRANCH  34  35
ENDBRANCH  31  34
ENDBRANCH  30  31
ENDBRANCH  27  30
ENDBRANCH  26  27
ENDBRANCH  25  26
ENDBRANCH   1  25
TORSDOF 11
ENDMDL
MODEL 16
REMARK VINA RESULT:    -7.234      3.429      6.081
REMARK INTER + INTRA:         -13.133
REMARK INTER:                  -9.889
REMARK INTRA:                  -3.245
REMARK UNBOUND:                -1.882
REMARK  11 active torsions:
REMARK  status: ('A' for Active; 'I' for Inactive)
REMARK    1  A    between atoms: P_1  and  O_4 
REMARK    2  A    between atoms: P_1  and  O_5 
REMARK    3  A    between atoms: O_4  and  P_6 
REMARK    4  A    between atoms: O_5  and  C_14 
REMARK    5  A    between atoms: P_6  and  O_9 
REMARK    6  A    between atoms: O_9  and  P_10 
REMARK    7  A    between atoms: C_14  and  C_15 
REMARK    8  A    between atoms: C_17  and  O_18 
REMARK    9  A    between atoms: C_20  and  O_21 
REMARK   10  A    between atoms: C_23  and  N_24 
REMARK   11  A    between atoms: C_29  and  O_30 
ROOT
HETATM    1  C   UNL     1      -8.153  12.663  47.206  1.00  0.00     0.180 C 
HETATM    2  O   UNL     1      -9.210  13.758  46.854  1.00  0.00    -0.353 OA
HETATM    3  C   UNL     1      -7.117  13.298  47.717  1.00  0.00     0.182 C 
HETATM    4  C   UNL     1      -7.161  14.800  47.049  1.00  0.00     0.198 C 
HETATM    5  C   UNL     1      -8.390  15.089  46.739  1.00  0.00     0.262 C 
ENDROOT
BRANCH   5   6
HETATM    6  N   UNL     1      -8.912  16.068  47.639  1.00  0.00    -0.297 N 
HETATM    7  C   UNL     1      -8.277  17.186  48.068  1.00  0.00     0.190 A 
HETATM    8  N   UNL     1      -9.090  17.861  48.919  1.00  0.00    -0.341 N 
HETATM    9  C   UNL     1      -8.747  19.078  49.573  1.00  0.00     0.157 C 
HETATM   10  C   UNL     1     -10.279  17.166  49.061  1.00  0.00     0.131 A 
HETATM   11  C   UNL     1     -11.503  17.284  49.766  1.00  0.00     0.173 A 
HETATM   12  C   UNL     1     -10.147  16.014  48.217  1.00  0.00     0.144 A 
HETATM   13  N   UNL     1     -12.484  16.343  49.594  1.00  0.00    -0.309 N 
HETATM   14  C   UNL     1     -12.293  15.284  48.789  1.00  0.00     0.196 A 
ATOM     15  HN  UNL     1     -13.371  16.447  50.086  1.00  0.00     0.170 HD
HETATM   16  N   UNL     1     -13.318  14.286  48.650  1.00  0.00    -0.063 NA
HETATM   17  N   UNL     1     -11.164  15.119  48.141  1.00  0.00    -0.314 N 
ATOM     18  HN  UNL     1     -11.047  14.289  47.559  1.00  0.00     0.170 HD
BRANCH  11  19
HETATM   19  O   UNL     1     -11.783  18.393  50.636  1.00  0.00    -0.344 OA
ATOM     20  HO  UNL     1     -12.444  18.348  51.317  1.00  0.00     0.219 HD
ENDBRANCH  11  19
ENDBRANCH   5   6
BRANCH   4  21
HETATM   21  O   UNL     1      -6.363  14.656  45.841  1.00  0.00    -0.388 OA
ATOM     22  HO  UNL     1      -5.472  14.941  46.004  1.00  0.00     0.210 HD
ENDBRANCH   4  21
BRANCH   3  23
HETATM   23  O   UNL     1      -5.856  12.725  47.311  1.00  0.00    -0.390 OA
ATOM     24  HO  UNL     1      -5.571  13.033  46.458  1.00  0.00     0.210 HD
ENDBRANCH   3  23
BRANCH   1  25
HETATM   25  C   UNL     1      -8.740  11.765  48.287  1.00  0.00     0.216 C 
BRANCH  25  26
HETATM   26  O   UNL     1      -9.866  12.473  48.848  1.00  0.00    -0.287 OA
BRANCH  26  27
HETATM   27  P   UNL     1      -9.783  12.648  50.435  1.00  0.00     0.417 P 
HETATM   28  O   UNL     1      -9.287  11.359  51.007  1.00  0.00    -0.624 OA
HETATM   29  O   UNL     1      -8.924  13.849  50.756  1.00  0.00    -0.624 OA
BRANCH  27  30
HETATM   30  O   UNL     1     -11.295  12.784  50.870  1.00  0.00    -0.180 OA
BRANCH  30  31
HETATM   31  P   UNL     1     -11.828  13.308  52.269  1.00  0.00     0.428 P 
HETATM   32  O   UNL     1     -11.131  12.548  53.431  1.00  0.00    -0.624 OA
HETATM   33  O   UNL     1     -13.304  13.014  52.318  1.00  0.00    -0.624 OA
BRANCH  31  34
HETATM   34  O   UNL     1     -11.593  14.885  52.282  1.00  0.00    -0.173 OA
BRANCH  34  35
HETATM   35  P   UNL     1     -12.008  15.883  53.426  1.00  0.00     0.431 P 
HETATM   36  O   UNL     1     -12.604  15.223  54.651  1.00  0.00    -0.616 OA
HETATM   37  O   UNL     1     -13.027  16.826  52.837  1.00  0.00    -0.616 OA
HETATM   38  O   UNL     1     -10.783  16.687  53.906  1.00  0.00    -0.616 OA
ENDBRANCH  34  35
ENDBRANCH  31  34
ENDBRANCH  30  31
ENDBRANCH  27  30
ENDBRANCH  26  27
ENDBRANCH  25  26
ENDBRANCH   1  25
TORSDOF 11
ENDMDL
MODEL 17
REMARK VINA RESULT:    -7.221      3.851      5.795
REMARK INTER + INTRA:         -13.114
REMARK INTER:                 -10.904
REMARK INTRA:                  -2.210
REMARK UNBOUND:                -1.882
REMARK  11 active torsions:
REMARK  status: ('A' for Active; 'I' for Inactive)
REMARK    1  A    between atoms: P_1  and  O_4 
REMARK    2  A    between atoms: P_1  and  O_5 
REMARK    3  A    between atoms: O_4  and  P_6 
REMARK    4  A    between atoms: O_5  and  C_14 
REMARK    5  A    between atoms: P_6  and  O_9 
REMARK    6  A    between atoms: O_9  and  P_10 
REMARK    7  A    between atoms: C_14  and  C_15 
REMARK    8  A    between atoms: C_17  and  O_18 
REMARK    9  A    between atoms: C_20  and  O_21 
REMARK   10  A    between atoms: C_23  and  N_24 
REMARK   11  A    between atoms: C_29  and  O_30 
ROOT
HETATM    1  C   UNL     1     -10.670  16.303  51.799  1.00  0.00     0.180 C 
HETATM    2  O   UNL     1     -11.444  15.030  51.330  1.00  0.00    -0.353 OA
HETATM    3  C   UNL     1     -11.097  16.570  53.017  1.00  0.00     0.182 C 
HETATM    4  C   UNL     1     -12.625  15.962  53.079  1.00  0.00     0.198 C 
HETATM    5  C   UNL     1     -12.722  14.978  52.235  1.00  0.00     0.262 C 
ENDROOT
BRANCH   5   6
HETATM    6  N   UNL     1     -12.783  13.732  52.930  1.00  0.00    -0.297 N 
HETATM    7  C   UNL     1     -13.703  13.372  53.859  1.00  0.00     0.190 A 
HETATM    8  N   UNL     1     -13.427  12.118  54.297  1.00  0.00    -0.341 N 
HETATM    9  C   UNL     1     -14.179  11.421  55.284  1.00  0.00     0.157 C 
HETATM   10  C   UNL     1     -12.295  11.650  53.653  1.00  0.00     0.131 A 
HETATM   11  C   UNL     1     -11.483  10.488  53.637  1.00  0.00     0.173 A 
HETATM   12  C   UNL     1     -11.899  12.705  52.766  1.00  0.00     0.144 A 
HETATM   13  N   UNL     1     -10.413  10.412  52.786  1.00  0.00    -0.309 N 
HETATM   14  C   UNL     1     -10.096  11.441  51.981  1.00  0.00     0.196 A 
ATOM     15  HN  UNL     1      -9.849   9.563  52.762  1.00  0.00     0.170 HD
HETATM   16  N   UNL     1      -8.947  11.360  51.120  1.00  0.00    -0.063 NA
HETATM   17  N   UNL     1     -10.801  12.547  51.984  1.00  0.00    -0.314 N 
ATOM     18  HN  UNL     1     -10.513  13.316  51.379  1.00  0.00     0.170 HD
BRANCH  11  19
HETATM   19  O   UNL     1     -11.766   9.344  54.462  1.00  0.00    -0.344 OA
ATOM     20  HO  UNL     1     -11.163   8.614  54.538  1.00  0.00     0.219 HD
ENDBRANCH  11  19
ENDBRANCH   5   6
BRANCH   4  21
HETATM   21  O   UNL     1     -13.450  17.078  52.641  1.00  0.00    -0.388 OA
ATOM     22  HO  UNL     1     -13.051  17.899  52.902  1.00  0.00     0.210 HD
ENDBRANCH   4  21
BRANCH   3  23
HETATM   23  O   UNL     1     -11.228  17.985  53.264  1.00  0.00    -0.390 OA
ATOM     24  HO  UNL     1     -12.119  18.297  53.150  1.00  0.00     0.210 HD
ENDBRANCH   3  23
BRANCH   1  25
HETATM   25  C   UNL     1      -9.189  15.956  51.881  1.00  0.00     0.216 C 
BRANCH  25  26
HETATM   26  O   UNL     1      -8.975  14.839  50.994  1.00  0.00    -0.287 OA
BRANCH  26  27
HETATM   27  P   UNL     1      -7.703  15.014  50.040  1.00  0.00     0.417 P 
HETATM   28  O   UNL     1      -6.852  16.100  50.618  1.00  0.00    -0.624 OA
HETATM   29  O   UNL     1      -7.006  13.682  49.893  1.00  0.00    -0.624 OA
BRANCH  27  30
HETATM   30  O   UNL     1      -8.320  15.586  48.705  1.00  0.00    -0.180 OA
BRANCH  30  31
HETATM   31  P   UNL     1      -9.493  14.937  47.856  1.00  0.00     0.428 P 
HETATM   32  O   UNL     1      -9.506  13.395  48.045  1.00  0.00    -0.624 OA
HETATM   33  O   UNL     1      -9.214  15.243  46.409  1.00  0.00    -0.624 OA
BRANCH  31  34
HETATM   34  O   UNL     1     -10.837  15.664  48.310  1.00  0.00    -0.173 OA
BRANCH  34  35
HETATM   35  P   UNL     1     -11.277  17.131  47.944  1.00  0.00     0.431 P 
HETATM   36  O   UNL     1     -10.169  18.159  48.029  1.00  0.00    -0.616 OA
HETATM   37  O   UNL     1     -12.372  17.513  48.907  1.00  0.00    -0.616 OA
HETATM   38  O   UNL     1     -11.821  17.182  46.503  1.00  0.00    -0.616 OA
ENDBRANCH  34  35
ENDBRANCH  31  34
ENDBRANCH  30  31
ENDBRANCH  27  30
ENDBRANCH  26  27
ENDBRANCH  25  26
ENDBRANCH   1  25
TORSDOF 11
ENDMDL
MODEL 18
REMARK VINA RESULT:    -7.181      2.340      3.211
REMARK INTER + INTRA:         -13.051
REMARK INTER:                 -11.385
REMARK INTRA:                  -1.666
REMARK UNBOUND:                -1.882
REMARK  11 active torsions:
REMARK  status: ('A' for Active; 'I' for Inactive)
REMARK    1  A    between atoms: P_1  and  O_4 
REMARK    2  A    between atoms: P_1  and  O_5 
REMARK    3  A    between atoms: O_4  and  P_6 
REMARK    4  A    between atoms: O_5  and  C_14 
REMARK    5  A    between atoms: P_6  and  O_9 
REMARK    6  A    between atoms: O_9  and  P_10 
REMARK    7  A    between atoms: C_14  and  C_15 
REMARK    8  A    between atoms: C_17  and  O_18 
REMARK    9  A    between atoms: C_20  and  O_21 
REMARK   10  A    between atoms: C_23  and  N_24 
REMARK   11  A    between atoms: C_29  and  O_30 
ROOT
HETATM    1  C   UNL     1     -11.394  15.946  48.749  1.00  0.00     0.180 C 
HETATM    2  O   UNL     1     -11.620  14.408  48.904  1.00  0.00    -0.353 OA
HETATM    3  C   UNL     1     -12.458  16.417  48.131  1.00  0.00     0.182 C 
HETATM    4  C   UNL     1     -13.029  15.158  47.239  1.00  0.00     0.198 C 
HETATM    5  C   UNL     1     -12.682  14.044  47.811  1.00  0.00     0.262 C 
ENDROOT
BRANCH   5   6
HETATM    6  N   UNL     1     -13.817  13.422  48.415  1.00  0.00    -0.297 N 
HETATM    7  C   UNL     1     -14.814  12.766  47.771  1.00  0.00     0.190 A 
HETATM    8  N   UNL     1     -15.716  12.320  48.681  1.00  0.00    -0.341 N 
HETATM    9  C   UNL     1     -16.900  11.599  48.362  1.00  0.00     0.157 C 
HETATM   10  C   UNL     1     -15.310  12.702  49.948  1.00  0.00     0.131 A 
HETATM   11  C   UNL     1     -15.757  12.588  51.289  1.00  0.00     0.173 A 
HETATM   12  C   UNL     1     -14.074  13.404  49.755  1.00  0.00     0.144 A 
HETATM   13  N   UNL     1     -15.004  13.109  52.308  1.00  0.00    -0.309 N 
HETATM   14  C   UNL     1     -13.855  13.759  52.056  1.00  0.00     0.196 A 
ATOM     15  HN  UNL     1     -15.319  13.001  53.271  1.00  0.00     0.170 HD
HETATM   16  N   UNL     1     -13.095  14.332  53.133  1.00  0.00    -0.063 NA
HETATM   17  N   UNL     1     -13.418  13.914  50.828  1.00  0.00    -0.314 N 
ATOM     18  HN  UNL     1     -12.555  14.437  50.675  1.00  0.00     0.170 HD
BRANCH  11  19
HETATM   19  O   UNL     1     -16.970  11.898  51.636  1.00  0.00    -0.344 OA
ATOM     20  HO  UNL     1     -17.760  12.360  51.889  1.00  0.00     0.219 HD
ENDBRANCH  11  19
ENDBRANCH   5   6
BRANCH   4  21
HETATM   21  O   UNL     1     -12.336  15.303  45.968  1.00  0.00    -0.388 OA
ATOM     22  HO  UNL     1     -12.903  15.728  45.335  1.00  0.00     0.210 HD
ENDBRANCH   4  21
BRANCH   3  23
HETATM   23  O   UNL     1     -12.137  17.456  47.182  1.00  0.00    -0.390 OA
ATOM     24  HO  UNL     1     -12.715  18.207  47.251  1.00  0.00     0.210 HD
ENDBRANCH   3  23
BRANCH   1  25
HETATM   25  C   UNL     1     -11.343  16.561  50.142  1.00  0.00     0.216 C 
BRANCH  25  26
HETATM   26  O   UNL     1     -10.619  15.635  50.979  1.00  0.00    -0.287 OA
BRANCH  26  27
HETATM   27  P   UNL     1      -9.080  16.021  51.176  1.00  0.00     0.417 P 
HETATM   28  O   UNL     1      -8.979  17.513  51.133  1.00  0.00    -0.624 OA
HETATM   29  O   UNL     1      -8.571  15.393  52.453  1.00  0.00    -0.624 OA
BRANCH  27  30
HETATM   30  O   UNL     1      -8.394  15.484  49.859  1.00  0.00    -0.180 OA
BRANCH  30  31
HETATM   31  P   UNL     1      -8.042  13.972  49.531  1.00  0.00     0.428 P 
HETATM   32  O   UNL     1      -8.325  13.665  48.034  1.00  0.00    -0.624 OA
HETATM   33  O   UNL     1      -8.944  13.114  50.377  1.00  0.00    -0.624 OA
BRANCH  31  34
HETATM   34  O   UNL     1      -6.525  13.754  49.970  1.00  0.00    -0.173 OA
BRANCH  34  35
HETATM   35  P   UNL     1      -5.246  14.128  49.132  1.00  0.00     0.431 P 
HETATM   36  O   UNL     1      -5.125  13.398  47.811  1.00  0.00    -0.616 OA
HETATM   37  O   UNL     1      -4.050  13.791  49.986  1.00  0.00    -0.616 OA
HETATM   38  O   UNL     1      -5.239  15.635  48.809  1.00  0.00    -0.616 OA
ENDBRANCH  34  35
ENDBRANCH  31  34
ENDBRANCH  30  31
ENDBRANCH  27  30
ENDBRANCH  26  27
ENDBRANCH  25  26
ENDBRANCH   1  25
TORSDOF 11
ENDMDL
MODEL 19
REMARK VINA RESULT:    -7.151      5.645      8.244
REMARK INTER + INTRA:         -13.005
REMARK INTER:                 -10.996
REMARK INTRA:                  -2.009
REMARK UNBOUND:                -1.882
REMARK  11 active torsions:
REMARK  status: ('A' for Active; 'I' for Inactive)
REMARK    1  A    between atoms: P_1  and  O_4 
REMARK    2  A    between atoms: P_1  and  O_5 
REMARK    3  A    between atoms: O_4  and  P_6 
REMARK    4  A    between atoms: O_5  and  C_14 
REMARK    5  A    between atoms: P_6  and  O_9 
REMARK    6  A    between atoms: O_9  and  P_10 
REMARK    7  A    between atoms: C_14  and  C_15 
REMARK    8  A    between atoms: C_17  and  O_18 
REMARK    9  A    between atoms: C_20  and  O_21 
REMARK   10  A    between atoms: C_23  and  N_24 
REMARK   11  A    between atoms: C_29  and  O_30 
ROOT
HETATM    1  C   UNL     1      -9.220  18.652  49.691  1.00  0.00     0.180 C 
HETATM    2  O   UNL     1      -9.100  20.209  49.760  1.00  0.00    -0.353 OA
HETATM    3  C   UNL     1      -8.313  18.174  50.518  1.00  0.00     0.182 C 
HETATM    4  C   UNL     1      -7.133  19.319  50.573  1.00  0.00     0.198 C 
HETATM    5  C   UNL     1      -7.658  20.479  50.312  1.00  0.00     0.262 C 
ENDROOT
BRANCH   5   6
HETATM    6  N   UNL     1      -7.726  21.271  51.498  1.00  0.00    -0.297 N 
HETATM    7  C   UNL     1      -6.675  21.763  52.199  1.00  0.00     0.190 A 
HETATM    8  N   UNL     1      -7.137  22.459  53.267  1.00  0.00    -0.341 N 
HETATM    9  C   UNL     1      -6.314  23.106  54.231  1.00  0.00     0.157 C 
HETATM   10  C   UNL     1      -8.520  22.413  53.276  1.00  0.00     0.131 A 
HETATM   11  C   UNL     1      -9.596  22.888  54.068  1.00  0.00     0.173 A 
HETATM   12  C   UNL     1      -8.882  21.648  52.118  1.00  0.00     0.144 A 
HETATM   13  N   UNL     1     -10.888  22.632  53.691  1.00  0.00    -0.309 N 
HETATM   14  C   UNL     1     -11.157  21.904  52.593  1.00  0.00     0.196 A 
ATOM     15  HN  UNL     1     -11.657  22.998  54.251  1.00  0.00     0.170 HD
HETATM   16  N   UNL     1     -12.517  21.613  52.232  1.00  0.00    -0.063 NA
HETATM   17  N   UNL     1     -10.192  21.419  51.848  1.00  0.00    -0.314 N 
ATOM     18  HN  UNL     1     -10.435  20.849  51.037  1.00  0.00     0.170 HD
BRANCH  11  19
HETATM   19  O   UNL     1      -9.387  23.680  55.249  1.00  0.00    -0.344 OA
ATOM     20  HO  UNL     1      -8.776  24.407  55.269  1.00  0.00     0.219 HD
ENDBRANCH  11  19
ENDBRANCH   5   6
BRANCH   4  21
HETATM   21  O   UNL     1      -6.232  18.927  49.499  1.00  0.00    -0.388 OA
ATOM     22  HO  UNL     1      -6.517  19.311  48.679  1.00  0.00     0.210 HD
ENDBRANCH   4  21
BRANCH   3  23
HETATM   23  O   UNL     1      -7.677  16.979  50.017  1.00  0.00    -0.390 OA
ATOM     24  HO  UNL     1      -7.862  16.214  50.549  1.00  0.00     0.210 HD
ENDBRANCH   3  23
BRANCH   1  25
HETATM   25  C   UNL     1     -10.595  18.257  50.214  1.00  0.00     0.216 C 
BRANCH  25  26
HETATM   26  O   UNL     1     -10.521  18.306  51.654  1.00  0.00    -0.287 OA
BRANCH  26  27
HETATM   27  P   UNL     1     -11.427  17.205  52.378  1.00  0.00     0.417 P 
HETATM   28  O   UNL     1     -10.993  17.132  53.807  1.00  0.00    -0.624 OA
HETATM   29  O   UNL     1     -12.884  17.555  52.181  1.00  0.00    -0.624 OA
BRANCH  27  30
HETATM   30  O   UNL     1     -10.977  15.853  51.698  1.00  0.00    -0.180 OA
BRANCH  30  31
HETATM   31  P   UNL     1      -9.748  14.947  52.129  1.00  0.00     0.428 P 
HETATM   32  O   UNL     1      -8.674  15.803  52.854  1.00  0.00    -0.624 OA
HETATM   33  O   UNL     1      -9.146  14.387  50.867  1.00  0.00    -0.624 OA
BRANCH  31  34
HETATM   34  O   UNL     1     -10.346  13.761  53.011  1.00  0.00    -0.173 OA
BRANCH  34  35
HETATM   35  P   UNL     1     -11.130  12.503  52.479  1.00  0.00     0.431 P 
HETATM   36  O   UNL     1     -12.169  12.811  51.422  1.00  0.00    -0.616 OA
HETATM   37  O   UNL     1     -11.814  11.879  53.669  1.00  0.00    -0.616 OA
HETATM   38  O   UNL     1     -10.152  11.487  51.858  1.00  0.00    -0.616 OA
ENDBRANCH  34  35
ENDBRANCH  31  34
ENDBRANCH  30  31
ENDBRANCH  27  30
ENDBRANCH  26  27
ENDBRANCH  25  26
ENDBRANCH   1  25
TORSDOF 11
ENDMDL
MODEL 20
REMARK VINA RESULT:    -7.037      3.039      5.370
REMARK INTER + INTRA:         -12.827
REMARK INTER:                  -9.830
REMARK INTRA:                  -2.996
REMARK UNBOUND:                -1.882
REMARK  11 active torsions:
REMARK  status: ('A' for Active; 'I' for Inactive)
REMARK    1  A    between atoms: P_1  and  O_4 
REMARK    2  A    between atoms: P_1  and  O_5 
REMARK    3  A    between atoms: O_4  and  P_6 
REMARK    4  A    between atoms: O_5  and  C_14 
REMARK    5  A    between atoms: P_6  and  O_9 
REMARK    6  A    between atoms: O_9  and  P_10 
REMARK    7  A    between atoms: C_14  and  C_15 
REMARK    8  A    between atoms: C_17  and  O_18 
REMARK    9  A    between atoms: C_20  and  O_21 
REMARK   10  A    between atoms: C_23  and  N_24 
REMARK   11  A    between atoms: C_29  and  O_30 
ROOT
HETATM    1  C   UNL     1     -11.498  13.421  47.253  1.00  0.00     0.180 C 
HETATM    2  O   UNL     1     -12.238  13.523  48.625  1.00  0.00    -0.353 OA
HETATM    3  C   UNL     1     -11.383  14.653  46.801  1.00  0.00     0.182 C 
HETATM    4  C   UNL     1     -12.645  15.474  47.463  1.00  0.00     0.198 C 
HETATM    5  C   UNL     1     -12.979  14.903  48.583  1.00  0.00     0.262 C 
ENDROOT
BRANCH   5   6
HETATM    6  N   UNL     1     -12.580  15.711  49.690  1.00  0.00    -0.297 N 
HETATM    7  C   UNL     1     -12.605  17.065  49.750  1.00  0.00     0.190 A 
HETATM    8  N   UNL     1     -12.143  17.466  50.961  1.00  0.00    -0.341 N 
HETATM    9  C   UNL     1     -12.019  18.824  51.371  1.00  0.00     0.157 C 
HETATM   10  C   UNL     1     -11.796  16.354  51.708  1.00  0.00     0.131 A 
HETATM   11  C   UNL     1     -11.265  16.054  52.987  1.00  0.00     0.173 A 
HETATM   12  C   UNL     1     -12.096  15.227  50.872  1.00  0.00     0.144 A 
HETATM   13  N   UNL     1     -11.093  14.750  53.368  1.00  0.00    -0.309 N 
HETATM   14  C   UNL     1     -11.392  13.740  52.533  1.00  0.00     0.196 A 
ATOM     15  HN  UNL     1     -10.734  14.541  54.299  1.00  0.00     0.170 HD
HETATM   16  N   UNL     1     -11.171  12.378  52.934  1.00  0.00    -0.063 NA
HETATM   17  N   UNL     1     -11.858  13.972  51.328  1.00  0.00    -0.314 N 
ATOM     18  HN  UNL     1     -12.048  13.180  50.713  1.00  0.00     0.170 HD
BRANCH  11  19
HETATM   19  O   UNL     1     -10.931  17.080  53.938  1.00  0.00    -0.344 OA
ATOM     20  HO  UNL     1     -10.898  16.912  54.872  1.00  0.00     0.219 HD
ENDBRANCH  11  19
ENDBRANCH   5   6
BRANCH   4  21
HETATM   21  O   UNL     1     -13.708  15.308  46.483  1.00  0.00    -0.388 OA
ATOM     22  HO  UNL     1     -13.350  15.358  45.605  1.00  0.00     0.210 HD
ENDBRANCH   4  21
BRANCH   3  23
HETATM   23  O   UNL     1     -11.565  14.742  45.372  1.00  0.00    -0.390 OA
ATOM     24  HO  UNL     1     -12.347  14.293  45.072  1.00  0.00     0.210 HD
ENDBRANCH   3  23
BRANCH   1  25
HETATM   25  C   UNL     1     -10.098  12.876  47.506  1.00  0.00     0.216 C 
BRANCH  25  26
HETATM   26  O   UNL     1      -9.932  12.809  48.938  1.00  0.00    -0.287 OA
BRANCH  26  27
HETATM   27  P   UNL     1      -8.476  13.246  49.434  1.00  0.00     0.417 P 
HETATM   28  O   UNL     1      -7.837  12.050  50.066  1.00  0.00    -0.624 OA
HETATM   29  O   UNL     1      -7.709  13.825  48.268  1.00  0.00    -0.624 OA
BRANCH  27  30
HETATM   30  O   UNL     1      -8.774  14.268  50.599  1.00  0.00    -0.180 OA
BRANCH  30  31
HETATM   31  P   UNL     1      -8.082  15.680  50.813  1.00  0.00     0.428 P 
HETATM   32  O   UNL     1      -6.569  15.596  50.472  1.00  0.00    -0.624 OA
HETATM   33  O   UNL     1      -8.229  16.028  52.270  1.00  0.00    -0.624 OA
BRANCH  31  34
HETATM   34  O   UNL     1      -8.898  16.723  49.926  1.00  0.00    -0.173 OA
BRANCH  34  35
HETATM   35  P   UNL     1      -8.493  18.215  49.628  1.00  0.00     0.431 P 
HETATM   36  O   UNL     1      -7.194  18.374  48.867  1.00  0.00    -0.616 OA
HETATM   37  O   UNL     1      -8.365  18.908  50.961  1.00  0.00    -0.616 OA
HETATM   38  O   UNL     1      -9.586  18.909  48.792  1.00  0.00    -0.616 OA
ENDBRANCH  34  35
ENDBRANCH  31  34
ENDBRANCH  30  31
ENDBRANCH  27  30
ENDBRANCH  26  27
ENDBRANCH  25  26
ENDBRANCH   1  25
TORSDOF 11
ENDMDL
