REMARK  7 active torsions:
REMARK  status: ('A' for Active; 'I' for Inactive)
REMARK    1  A    between atoms: N_1  and  C_3 
REMARK       I    between atoms: N_1  and  C_13 
REMARK    2  A    between atoms: C_3  and  C_4 
REMARK    3  A    between atoms: C_6  and  N_7 
REMARK    4  A    between atoms: C_13  and  C_15 
REMARK    5  A    between atoms: C_21  and  O_22 
REMARK    6  A    between atoms: O_22  and  C_23 
REMARK    7  A    between atoms: C_23  and  C_24 
ROOT
HETATM    1  N   UNL     1      82.846   8.501  67.010  1.00  0.00    -0.353 N 
ATOM      2  HN  UNL     1      83.168   7.533  66.995  1.00  0.00     0.163 HD
HETATM    3  C   UNL     1      83.742   9.487  66.949  1.00  0.00     0.254 C 
HETATM    4  O   UNL     1      83.411  10.669  66.921  1.00  0.00    -0.268 OA
ENDROOT
BRANCH   3   5
HETATM    5  C   UNL     1      85.182   9.087  66.892  1.00  0.00     0.065 A 
HETATM    6  C   UNL     1      85.732   7.986  67.555  1.00  0.00     0.088 A 
HETATM    7  C   UNL     1      87.049   7.612  67.361  1.00  0.00     0.080 A 
HETATM    8  C   UNL     1      87.815   8.387  66.524  1.00  0.00     0.119 A 
HETATM    9  F   UNL     1      89.113   8.042  66.347  1.00  0.00    -0.206 F 
HETATM   10  C   UNL     1      87.343   9.496  65.883  1.00  0.00     0.043 A 
HETATM   11  C   UNL     1      86.018   9.841  66.067  1.00  0.00     0.023 A 
BRANCH   6  12
HETATM   12  O   UNL     1      84.918   7.338  68.452  1.00  0.00    -0.340 OA
BRANCH  12  13
HETATM   13  C   UNL     1      85.207   5.960  68.638  1.00  0.00     0.288 C 
BRANCH  13  14
HETATM   14  C   UNL     1      84.750   5.182  67.430  1.00  0.00     0.198 C 
HETATM   15  O   UNL     1      83.967   5.665  66.620  1.00  0.00    -0.646 OA
HETATM   16  O   UNL     1      85.166   3.950  67.405  1.00  0.00    -0.646 OA
ENDBRANCH  13  14
ENDBRANCH  12  13
ENDBRANCH   6  12
ENDBRANCH   3   5
BRANCH   1  17
HETATM   17  C   UNL     1      81.420   8.773  67.097  1.00  0.00     0.161 C 
BRANCH  17  18
HETATM   18  C   UNL     1      80.697   8.742  65.775  1.00  0.00    -0.038 A 
HETATM   19  C   UNL     1      79.314   8.865  65.758  1.00  0.00     0.045 A 
HETATM   20  C   UNL     1      78.656   8.836  64.550  1.00  0.00     0.103 A 
HETATM   21  C   UNL     1      79.311   8.692  63.343  1.00  0.00     0.036 A 
HETATM   22  C   UNL     1      80.689   8.581  63.367  1.00  0.00     0.003 A 
HETATM   23  C   UNL     1      81.373   8.602  64.573  1.00  0.00     0.009 A 
BRANCH  20  24
HETATM   24  N   UNL     1      77.201   8.912  64.563  1.00  0.00    -0.116 N 
HETATM   25  O   UNL     1      76.643   9.108  65.635  1.00  0.00    -0.532 OA
HETATM   26  O   UNL     1      76.604   8.783  63.507  1.00  0.00    -0.532 OA
ENDBRANCH  20  24
ENDBRANCH  17  18
ENDBRANCH   1  17
TORSDOF 7
