REMARK  24 active torsions:
REMARK  status: ('A' for Active; 'I' for Inactive)
REMARK    1  A    between atoms: P_1  and  O_55 
REMARK    2  A    between atoms: P_1  and  O_56 
REMARK    3  A    between atoms: P_1  and  O_57 
REMARK    4  A    between atoms: N_2  and  C_21 
REMARK    5  A    between atoms: C_5  and  O_7 
REMARK    6  A    between atoms: P_12  and  O_26 
REMARK    7  A    between atoms: P_12  and  O_33 
REMARK    8  A    between atoms: P_12  and  O_48 
REMARK    9  A    between atoms: P_13  and  O_20 
REMARK   10  A    between atoms: P_13  and  O_33 
REMARK   11  A    between atoms: P_13  and  O_34 
REMARK   12  A    between atoms: O_14  and  C_49 
REMARK   13  A    between atoms: C_16  and  O_34 
REMARK   14  A    between atoms: C_22  and  N_23 
REMARK       I    between atoms: N_23  and  C_51 
REMARK   15  A    between atoms: C_28  and  O_29 
REMARK   16  A    between atoms: C_30  and  N_31 
REMARK   17  A    between atoms: C_35  and  O_36 
REMARK   18  A    between atoms: C_37  and  O_38 
REMARK   19  A    between atoms: C_39  and  C_40 
REMARK   20  A    between atoms: C_41  and  C_47 
REMARK   21  A    between atoms: C_43  and  C_49 
REMARK   22  A    between atoms: C_45  and  C_46 
REMARK   23  A    between atoms: C_46  and  O_57 
REMARK   24  A    between atoms: C_47  and  O_48 
ROOT
HETATM    1  C   UNL     1      -2.815  -1.877  -1.131  1.00  0.00     0.297 C 
HETATM    2  C   UNL     1      -1.369  -2.426  -1.019  1.00  0.00     0.165 C 
HETATM    3  C   UNL     1      -1.232  -3.395   0.188  1.00  0.00     0.140 C 
HETATM    4  C   UNL     1      -2.353  -3.173   1.217  1.00  0.00     0.182 C 
HETATM    5  C   UNL     1      -3.732  -3.314   0.510  1.00  0.00     0.253 C 
HETATM    6  O   UNL     1      -3.741  -2.915  -0.862  1.00  0.00    -0.340 OA
ENDROOT
BRANCH   1   7
HETATM    7  O   UNL     1      -3.044  -1.407  -2.447  1.00  0.00    -0.263 OA
BRANCH   7   8
HETATM    8  P   UNL     1      -2.913   0.298  -2.506  1.00  0.00     0.404 P 
HETATM    9  O   UNL     1      -4.242   0.892  -2.088  1.00  0.00    -0.631 OA
BRANCH   8  10
HETATM   10  O   UNL     1      -1.700   0.840  -1.454  1.00  0.00    -0.307 OA
HETATM   11  H   UNL     1      -0.852   0.618  -1.917  1.00  0.00     0.222 HD
ENDBRANCH   8  10
BRANCH   8  12
HETATM   12  O   UNL     1      -2.505   0.751  -4.097  1.00  0.00    -0.195 OA
BRANCH  12  13
HETATM   13  P   UNL     1      -2.872   2.403  -4.284  1.00  0.00     0.401 P 
HETATM   14  O   UNL     1      -2.195   2.914  -5.540  1.00  0.00    -0.631 OA
BRANCH  13  15
HETATM   15  O   UNL     1      -4.546   2.577  -4.474  1.00  0.00    -0.307 OA
HETATM   16  H   UNL     1      -4.787   1.939  -5.192  1.00  0.00     0.222 HD
ENDBRANCH  13  15
BRANCH  13  17
HETATM   17  O   UNL     1      -2.386   3.315  -2.922  1.00  0.00    -0.294 OA
BRANCH  17  18
HETATM   18  C   UNL     1      -1.023   3.647  -3.041  1.00  0.00     0.215 C 
BRANCH  18  19
HETATM   19  C   UNL     1      -0.560   4.306  -1.738  1.00  0.00     0.180 C 
HETATM   20  C   UNL     1       0.790   4.990  -1.893  1.00  0.00     0.182 C 
HETATM   21  C   UNL     1       1.321   4.974  -0.480  1.00  0.00     0.198 C 
HETATM   22  C   UNL     1       0.614   3.753   0.133  1.00  0.00     0.263 C 
HETATM   23  O   UNL     1      -0.439   3.338  -0.720  1.00  0.00    -0.353 OA
BRANCH  20  24
HETATM   24  O   UNL     1       0.638   6.293  -2.398  1.00  0.00    -0.390 OA
HETATM   25  H   UNL     1       1.552   6.628  -2.586  1.00  0.00     0.210 HD
ENDBRANCH  20  24
BRANCH  21  26
HETATM   26  O   UNL     1       0.951   6.147   0.202  1.00  0.00    -0.388 OA
HETATM   27  H   UNL     1       1.482   6.158   1.044  1.00  0.00     0.210 HD
ENDBRANCH  21  26
BRANCH  22  28
HETATM   28  N   UNL     1       1.583   2.652   0.339  1.00  0.00    -0.280 N 
HETATM   29  C   UNL     1       2.264   2.528   1.526  1.00  0.00     0.331 A 
HETATM   30  O   UNL     1       2.022   3.307   2.492  1.00  0.00    -0.246 OA
HETATM   31  N   UNL     1       3.218   1.567   1.675  1.00  0.00    -0.275 N 
HETATM   32  C   UNL     1       3.531   0.726   0.657  1.00  0.00     0.250 A 
HETATM   33  H   UNL     1       3.728   1.486   2.584  1.00  0.00     0.173 HD
HETATM   34  O   UNL     1       4.443  -0.130   0.801  1.00  0.00    -0.268 OA
HETATM   35  C   UNL     1       2.853   0.821  -0.552  1.00  0.00     0.092 A 
HETATM   36  C   UNL     1       1.883   1.809  -0.697  1.00  0.00     0.104 A 
ENDBRANCH  22  28
ENDBRANCH  18  19
ENDBRANCH  17  18
ENDBRANCH  13  17
ENDBRANCH  12  13
ENDBRANCH   8  12
ENDBRANCH   7   8
ENDBRANCH   1   7
BRANCH   2  37
HETATM   37  N   UNL     1      -0.992  -3.129  -2.251  1.00  0.00    -0.350 N 
HETATM   38  C   UNL     1       0.138  -2.759  -3.054  1.00  0.00     0.214 C 
HETATM   39  O   UNL     1       0.878  -1.792  -2.721  1.00  0.00    -0.274 OA
HETATM   40  C   UNL     1       0.460  -3.546  -4.282  1.00  0.00     0.117 C 
HETATM   41  H   UNL     1      -1.567  -3.950  -2.551  1.00  0.00     0.163 HD
ENDBRANCH   2  37
BRANCH   3  42
HETATM   42  N   UNL     1       0.093  -3.296   0.810  1.00  0.00    -0.389 N 
HETATM   43  C   UNL     1       0.572  -2.212   1.340  1.00  0.00     0.098 C 
ATOM     44  HN  UNL     1       0.676  -4.133   0.827  1.00  0.00     0.159 HD
BRANCH  43  45
HETATM   45  C   UNL     1       1.889  -2.212   2.016  1.00  0.00     0.024 A 
HETATM   46  C   UNL     1       2.999  -2.898   1.464  1.00  0.00     0.100 A 
HETATM   47  C   UNL     1       4.204  -2.944   2.185  1.00  0.00     0.039 A 
HETATM   48  N   UNL     1       4.319  -2.272   3.359  1.00  0.00    -0.367 N 
HETATM   49  C   UNL     1       5.398  -3.673   1.641  1.00  0.00     0.071 C 
HETATM   50  C   UNL     1       3.289  -1.568   3.891  1.00  0.00     0.098 A 
ATOM     51  HN  UNL     1       5.209  -2.297   3.857  1.00  0.00     0.165 HD
HETATM   52  C   UNL     1       2.045  -1.526   3.245  1.00  0.00    -0.004 A 
BRANCH  46  53
HETATM   53  O   UNL     1       2.953  -3.500   0.202  1.00  0.00    -0.358 OA
HETATM   54  H   UNL     1       2.197  -3.365  -0.454  1.00  0.00     0.217 HD
ENDBRANCH  46  53
BRANCH  52  55
HETATM   55  C   UNL     1       0.900  -0.782   3.893  1.00  0.00     0.221 C 
BRANCH  55  56
HETATM   56  O   UNL     1       0.591   0.354   3.122  1.00  0.00    -0.292 OA
BRANCH  56  57
HETATM   57  P   UNL     1      -0.794   1.095   3.783  1.00  0.00     0.391 P 
HETATM   58  O   UNL     1      -1.956   0.126   3.798  1.00  0.00    -0.632 OA
BRANCH  57  59
HETATM   59  O   UNL     1      -0.474   1.613   5.362  1.00  0.00    -0.307 OA
HETATM   60  H   UNL     1       0.291   2.237   5.269  1.00  0.00     0.222 HD
ENDBRANCH  57  59
BRANCH  57  61
HETATM   61  O   UNL     1      -1.207   2.430   2.828  1.00  0.00    -0.307 OA
HETATM   62  H   UNL     1      -1.855   2.941   3.376  1.00  0.00     0.222 HD
ENDBRANCH  57  61
ENDBRANCH  56  57
ENDBRANCH  55  56
ENDBRANCH  52  55
ENDBRANCH  43  45
ENDBRANCH   3  42
BRANCH   5  63
HETATM   63  C   UNL     1      -4.806  -2.593   1.277  1.00  0.00     0.172 C 
HETATM   64  O   UNL     1      -5.353  -3.149   2.265  1.00  0.00    -0.648 OA
BRANCH  63  65
HETATM   65  O   UNL     1      -5.174  -1.298   0.924  1.00  0.00    -0.774 OA
HETATM   66  H   UNL     1      -5.881  -0.798   1.449  1.00  0.00     0.167 HD
ENDBRANCH  63  65
ENDBRANCH   5  63
BRANCH   4  67
HETATM   67  O   UNL     1      -2.237  -4.118   2.250  1.00  0.00    -0.390 OA
HETATM   68  H   UNL     1      -2.716  -3.745   3.034  1.00  0.00     0.210 HD
ENDBRANCH   4  67
TORSDOF 24
