REMARK  19 active torsions:
REMARK  status: ('A' for Active; 'I' for Inactive)
REMARK    1  A    between atoms: P_1  and  O_63 
REMARK    2  A    between atoms: N_2  and  C_23 
REMARK    3  A    between atoms: C_5  and  O_8 
REMARK    4  A    between atoms: P_14  and  O_54 
REMARK    5  A    between atoms: P_14  and  O_37 
REMARK    6  A    between atoms: P_15  and  O_38 
REMARK    7  A    between atoms: P_15  and  O_37 
REMARK    8  A    between atoms: C_18  and  O_38 
REMARK    9  A    between atoms: C_24  and  N_25 
REMARK       I    between atoms: N_25  and  C_57 
REMARK   10  A    between atoms: C_31  and  O_32 
REMARK   11  A    between atoms: C_34  and  N_35 
REMARK   12  A    between atoms: C_39  and  O_40 
REMARK   13  A    between atoms: C_42  and  O_43 
REMARK   14  A    between atoms: C_45  and  C_46 
REMARK   15  A    between atoms: C_47  and  C_53 
REMARK   16  A    between atoms: C_49  and  C_55 
REMARK   17  A    between atoms: C_51  and  C_52 
REMARK   18  A    between atoms: C_52  and  O_63 
REMARK   19  A    between atoms: C_53  and  O_54 
ROOT
HETATM    1  C   UNL     1      17.062  -0.883  23.835  1.00  0.00     0.298 C 
HETATM    2  C   UNL     1      17.782   0.210  23.063  1.00  0.00     0.165 C 
HETATM    3  C   UNL     1      17.391   1.631  23.465  1.00  0.00     0.140 C 
HETATM    4  C   UNL     1      15.897   1.744  23.793  1.00  0.00     0.182 C 
HETATM    5  C   UNL     1      15.323   0.540  24.560  1.00  0.00     0.256 C 
HETATM    6  O   UNL     1      15.671  -0.677  23.903  1.00  0.00    -0.340 OA
ENDROOT
BRANCH   1   7
HETATM    7  O   UNL     1      17.611  -0.926  25.108  1.00  0.00    -0.256 OA
BRANCH   7   8
HETATM    8  P   UNL     1      17.866  -2.331  25.817  1.00  0.00     0.420 P 
HETATM    9  O   UNL     1      17.420  -3.529  25.019  1.00  0.00    -0.624 OA
HETATM   10  O   UNL     1      19.287  -2.313  26.196  1.00  0.00    -0.624 OA
BRANCH   8  11
HETATM   11  O   UNL     1      17.025  -2.052  27.135  1.00  0.00    -0.180 OA
BRANCH  11  12
HETATM   12  P   UNL     1      16.900  -2.880  28.488  1.00  0.00     0.417 P 
HETATM   13  O   UNL     1      15.494  -2.680  28.927  1.00  0.00    -0.624 OA
HETATM   14  O   UNL     1      17.382  -4.271  28.239  1.00  0.00    -0.624 OA
BRANCH  12  15
HETATM   15  O   UNL     1      17.859  -2.133  29.534  1.00  0.00    -0.287 OA
BRANCH  15  16
HETATM   16  C   UNL     1      19.266  -2.343  29.511  1.00  0.00     0.216 C 
BRANCH  16  17
HETATM   17  C   UNL     1      19.739  -2.696  30.898  1.00  0.00     0.180 C 
HETATM   18  C   UNL     1      19.137  -3.990  31.462  1.00  0.00     0.182 C 
HETATM   19  C   UNL     1      18.042  -3.494  32.406  1.00  0.00     0.198 C 
HETATM   20  C   UNL     1      18.628  -2.173  32.902  1.00  0.00     0.263 C 
HETATM   21  O   UNL     1      19.385  -1.642  31.834  1.00  0.00    -0.353 OA
BRANCH  18  22
HETATM   22  O   UNL     1      20.113  -4.763  32.135  1.00  0.00    -0.390 OA
ATOM     23  HO  UNL     1      19.740  -5.564  32.484  1.00  0.00     0.210 HD
ENDBRANCH  18  22
BRANCH  19  24
HETATM   24  O   UNL     1      17.802  -4.348  33.500  1.00  0.00    -0.388 OA
ATOM     25  HO  UNL     1      17.438  -5.169  33.192  1.00  0.00     0.210 HD
ENDBRANCH  19  24
BRANCH  20  26
HETATM   26  N   UNL     1      17.540  -1.248  33.231  1.00  0.00    -0.280 N 
HETATM   27  C   UNL     1      16.812  -0.664  32.224  1.00  0.00     0.104 A 
HETATM   28  C   UNL     1      15.776   0.142  32.459  1.00  0.00     0.092 A 
HETATM   29  C   UNL     1      15.393   0.395  33.812  1.00  0.00     0.250 A 
HETATM   30  O   UNL     1      14.468   1.107  34.169  1.00  0.00    -0.268 OA
HETATM   31  N   UNL     1      16.138  -0.259  34.769  1.00  0.00    -0.275 N 
HETATM   32  C   UNL     1      17.205  -1.082  34.567  1.00  0.00     0.331 A 
ATOM     33  HN  UNL     1      15.859  -0.110  35.739  1.00  0.00     0.173 HD
HETATM   34  O   UNL     1      17.821  -1.590  35.502  1.00  0.00    -0.246 OA
ENDBRANCH  20  26
ENDBRANCH  16  17
ENDBRANCH  15  16
ENDBRANCH  12  15
ENDBRANCH  11  12
ENDBRANCH   8  11
ENDBRANCH   7   8
ENDBRANCH   1   7
BRANCH   2  35
HETATM   35  N   UNL     1      19.211   0.029  23.187  1.00  0.00    -0.350 N 
HETATM   36  C   UNL     1      20.027  -0.141  22.158  1.00  0.00     0.214 C 
HETATM   37  O   UNL     1      19.648   0.005  21.012  1.00  0.00    -0.274 OA
HETATM   38  C   UNL     1      21.441  -0.500  22.505  1.00  0.00     0.117 C 
ATOM     39  HN  UNL     1      19.615   0.032  24.124  1.00  0.00     0.163 HD
ENDBRANCH   2  35
BRANCH   5  40
HETATM   40  C   UNL     1      13.799   0.530  24.746  1.00  0.00     0.206 C 
HETATM   41  O   UNL     1      13.121   1.328  24.241  1.00  0.00    -0.646 OA
HETATM   42  O   UNL     1      13.329  -0.292  25.458  1.00  0.00    -0.646 OA
ENDBRANCH   5  40
BRANCH   3  43
HETATM   43  N   UNL     1      17.728   2.433  22.285  1.00  0.00    -0.389 N 
HETATM   44  C   UNL     1      17.335   3.627  22.091  1.00  0.00     0.098 C 
ATOM     45  HN  UNL     1      18.317   2.005  21.571  1.00  0.00     0.159 HD
BRANCH  44  46
HETATM   46  C   UNL     1      17.776   4.345  20.872  1.00  0.00     0.024 A 
HETATM   47  C   UNL     1      19.025   4.028  20.294  1.00  0.00     0.100 A 
HETATM   48  C   UNL     1      19.412   4.653  19.093  1.00  0.00     0.039 A 
HETATM   49  N   UNL     1      18.635   5.579  18.537  1.00  0.00    -0.367 N 
HETATM   50  C   UNL     1      20.721   4.349  18.418  1.00  0.00     0.071 C 
HETATM   51  C   UNL     1      17.448   5.906  19.102  1.00  0.00     0.098 A 
ATOM     52  HN  UNL     1      18.935   6.045  17.681  1.00  0.00     0.165 HD
HETATM   53  C   UNL     1      16.980   5.323  20.246  1.00  0.00    -0.004 A 
BRANCH  47  54
HETATM   54  O   UNL     1      19.850   3.164  20.874  1.00  0.00    -0.358 OA
ATOM     55  HO  UNL     1      20.690   2.951  20.485  1.00  0.00     0.217 HD
ENDBRANCH  47  54
BRANCH  53  56
HETATM   56  C   UNL     1      15.615   5.699  20.753  1.00  0.00     0.223 C 
BRANCH  56  57
HETATM   57  O   UNL     1      15.735   6.378  22.039  1.00  0.00    -0.278 OA
BRANCH  57  58
HETATM   58  P   UNL     1      14.495   6.242  23.061  1.00  0.00     0.422 P 
HETATM   59  O   UNL     1      14.482   4.833  23.549  1.00  0.00    -0.617 OA
HETATM   60  O   UNL     1      13.214   6.561  22.295  1.00  0.00    -0.617 OA
HETATM   61  O   UNL     1      14.806   7.260  24.119  1.00  0.00    -0.617 OA
ENDBRANCH  57  58
ENDBRANCH  56  57
ENDBRANCH  53  56
ENDBRANCH  44  46
ENDBRANCH   3  43
BRANCH   4  62
HETATM   62  O   UNL     1      15.669   2.866  24.631  1.00  0.00    -0.390 OA
ATOM     63  HO  UNL     1      16.023   3.609  24.157  1.00  0.00     0.210 HD
ENDBRANCH   4  62
TORSDOF 19
