MODEL 1
REMARK VINA RESULT:    -5.931      0.000      0.000
REMARK INTER + INTRA:          -7.055
REMARK INTER:                  -6.971
REMARK INTRA:                  -0.084
REMARK UNBOUND:                -0.084
REMARK  3 active torsions:
REMARK  status: ('A' for Active; 'I' for Inactive)
REMARK    1  A    between atoms: C_1  and  C_2 
REMARK       I    between atoms: C_2  and  N_9 
REMARK    2  A    between atoms: C_3  and  C_4 
REMARK    3  A    between atoms: C_3  and  N_9 
ROOT
HETATM    1  C   UNL     1      37.561  16.704  58.795  1.00  0.00     0.318 C 
HETATM    2  O   UNL     1      37.471  17.797  58.283  1.00  0.00    -0.261 OA
HETATM    3  N   UNL     1      38.692  16.270  59.586  1.00  0.00    -0.342 N 
ATOM      4  HN  UNL     1      38.708  15.339  60.002  1.00  0.00     0.163 HD
ENDROOT
BRANCH   3   5
HETATM    5  C   UNL     1      39.785  17.168  59.775  1.00  0.00     0.236 C 
BRANCH   5   6
HETATM    6  C   UNL     1      41.099  16.381  59.890  1.00  0.00     0.191 C 
HETATM    7  O   UNL     1      42.252  16.960  60.027  1.00  0.00    -0.647 OA
HETATM    8  O   UNL     1      40.987  15.148  59.855  1.00  0.00    -0.647 OA
ENDBRANCH   5   6
ENDBRANCH   3   5
BRANCH   1   9
HETATM    9  C   UNL     1      36.395  15.790  58.575  1.00  0.00     0.270 C 
HETATM   10  O   UNL     1      35.322  16.061  59.207  1.00  0.00    -0.640 OA
HETATM   11  O   UNL     1      36.633  14.814  57.726  1.00  0.00    -0.640 OA
ENDBRANCH   1   9
TORSDOF 3
ENDMDL
MODEL 2
REMARK VINA RESULT:    -5.880      0.953      4.666
REMARK INTER + INTRA:          -6.995
REMARK INTER:                  -6.919
REMARK INTRA:                  -0.076
REMARK UNBOUND:                -0.084
REMARK  3 active torsions:
REMARK  status: ('A' for Active; 'I' for Inactive)
REMARK    1  A    between atoms: C_1  and  C_2 
REMARK       I    between atoms: C_2  and  N_9 
REMARK    2  A    between atoms: C_3  and  C_4 
REMARK    3  A    between atoms: C_3  and  N_9 
ROOT
HETATM    1  C   UNL     1      39.680  16.788  59.768  1.00  0.00     0.318 C 
HETATM    2  O   UNL     1      39.659  17.961  60.064  1.00  0.00    -0.261 OA
HETATM    3  N   UNL     1      38.527  16.051  59.297  1.00  0.00    -0.342 N 
ATOM      4  HN  UNL     1      38.607  15.064  59.053  1.00  0.00     0.163 HD
ENDROOT
BRANCH   3   5
HETATM    5  C   UNL     1      37.277  16.729  59.180  1.00  0.00     0.236 C 
BRANCH   5   6
HETATM    6  C   UNL     1      36.198  15.760  58.675  1.00  0.00     0.191 C 
HETATM    7  O   UNL     1      34.958  15.836  59.049  1.00  0.00    -0.647 OA
HETATM    8  O   UNL     1      36.587  14.901  57.872  1.00  0.00    -0.647 OA
ENDBRANCH   5   6
ENDBRANCH   3   5
BRANCH   1   9
HETATM    9  C   UNL     1      41.009  16.111  59.904  1.00  0.00     0.270 C 
HETATM   10  O   UNL     1      42.026  16.863  60.059  1.00  0.00    -0.640 OA
HETATM   11  O   UNL     1      40.947  14.798  59.861  1.00  0.00    -0.640 OA
ENDBRANCH   1   9
TORSDOF 3
ENDMDL
MODEL 3
REMARK VINA RESULT:    -5.450      1.144      4.967
REMARK INTER + INTRA:          -6.490
REMARK INTER:                  -6.416
REMARK INTRA:                  -0.074
REMARK UNBOUND:                -0.084
REMARK  3 active torsions:
REMARK  status: ('A' for Active; 'I' for Inactive)
REMARK    1  A    between atoms: C_1  and  C_2 
REMARK       I    between atoms: C_2  and  N_9 
REMARK    2  A    between atoms: C_3  and  C_4 
REMARK    3  A    between atoms: C_3  and  N_9 
ROOT
HETATM    1  C   UNL     1      39.857  15.700  59.565  1.00  0.00     0.318 C 
HETATM    2  O   UNL     1      40.174  14.537  59.682  1.00  0.00    -0.261 OA
HETATM    3  N   UNL     1      38.529  16.145  59.202  1.00  0.00    -0.342 N 
ATOM      4  HN  UNL     1      38.317  17.139  59.128  1.00  0.00     0.163 HD
ENDROOT
BRANCH   3   5
HETATM    5  C   UNL     1      37.521  15.167  58.950  1.00  0.00     0.236 C 
BRANCH   5   6
HETATM    6  C   UNL     1      36.225  15.853  58.492  1.00  0.00     0.191 C 
HETATM    7  O   UNL     1      35.067  15.576  59.006  1.00  0.00    -0.647 OA
HETATM    8  O   UNL     1      36.358  16.703  57.601  1.00  0.00    -0.647 OA
ENDBRANCH   5   6
ENDBRANCH   3   5
BRANCH   1   9
HETATM    9  C   UNL     1      40.942  16.696  59.838  1.00  0.00     0.270 C 
HETATM   10  O   UNL     1      42.142  16.303  59.665  1.00  0.00    -0.640 OA
HETATM   11  O   UNL     1      40.503  17.876  60.214  1.00  0.00    -0.640 OA
ENDBRANCH   1   9
TORSDOF 3
ENDMDL
MODEL 4
REMARK VINA RESULT:    -5.419      1.277      1.870
REMARK INTER + INTRA:          -6.453
REMARK INTER:                  -6.365
REMARK INTRA:                  -0.088
REMARK UNBOUND:                -0.084
REMARK  3 active torsions:
REMARK  status: ('A' for Active; 'I' for Inactive)
REMARK    1  A    between atoms: C_1  and  C_2 
REMARK       I    between atoms: C_2  and  N_9 
REMARK    2  A    between atoms: C_3  and  C_4 
REMARK    3  A    between atoms: C_3  and  N_9 
ROOT
HETATM    1  C   UNL     1      37.457  15.536  59.036  1.00  0.00     0.318 C 
HETATM    2  O   UNL     1      37.338  14.472  59.602  1.00  0.00    -0.261 OA
HETATM    3  N   UNL     1      38.707  16.254  58.916  1.00  0.00    -0.342 N 
ATOM      4  HN  UNL     1      38.749  17.143  58.418  1.00  0.00     0.163 HD
ENDROOT
BRANCH   3   5
HETATM    5  C   UNL     1      39.881  15.697  59.507  1.00  0.00     0.236 C 
BRANCH   5   6
HETATM    6  C   UNL     1      40.847  16.818  59.917  1.00  0.00     0.191 C 
HETATM    7  O   UNL     1      42.135  16.670  59.908  1.00  0.00    -0.647 OA
HETATM    8  O   UNL     1      40.314  17.885  60.251  1.00  0.00    -0.647 OA
ENDBRANCH   5   6
ENDBRANCH   3   5
BRANCH   1   9
HETATM    9  C   UNL     1      36.204  16.088  58.429  1.00  0.00     0.270 C 
HETATM   10  O   UNL     1      36.344  16.900  57.456  1.00  0.00    -0.640 OA
HETATM   11  O   UNL     1      35.099  15.641  58.983  1.00  0.00    -0.640 OA
ENDBRANCH   1   9
TORSDOF 3
ENDMDL
MODEL 5
REMARK VINA RESULT:    -5.229      1.507      4.466
REMARK INTER + INTRA:          -6.230
REMARK INTER:                  -6.148
REMARK INTRA:                  -0.082
REMARK UNBOUND:                -0.084
REMARK  3 active torsions:
REMARK  status: ('A' for Active; 'I' for Inactive)
REMARK    1  A    between atoms: C_1  and  C_2 
REMARK       I    between atoms: C_2  and  N_9 
REMARK    2  A    between atoms: C_3  and  C_4 
REMARK    3  A    between atoms: C_3  and  N_9 
ROOT
HETATM    1  C   UNL     1      39.649  16.835  59.806  1.00  0.00     0.318 C 
HETATM    2  O   UNL     1      39.622  17.931  60.317  1.00  0.00    -0.261 OA
HETATM    3  N   UNL     1      38.536  16.245  59.093  1.00  0.00    -0.342 N 
ATOM      4  HN  UNL     1      38.620  15.320  58.674  1.00  0.00     0.163 HD
ENDROOT
BRANCH   3   5
HETATM    5  C   UNL     1      37.318  16.982  58.988  1.00  0.00     0.236 C 
BRANCH   5   6
HETATM    6  C   UNL     1      37.284  17.756  57.662  1.00  0.00     0.191 C 
HETATM    7  O   UNL     1      38.304  18.418  57.211  1.00  0.00    -0.647 OA
HETATM    8  O   UNL     1      36.215  17.699  57.039  1.00  0.00    -0.647 OA
ENDBRANCH   5   6
ENDBRANCH   3   5
BRANCH   1   9
HETATM    9  C   UNL     1      40.943  16.092  59.937  1.00  0.00     0.270 C 
HETATM   10  O   UNL     1      40.883  14.819  59.908  1.00  0.00    -0.640 OA
HETATM   11  O   UNL     1      41.997  16.870  60.053  1.00  0.00    -0.640 OA
ENDBRANCH   1   9
TORSDOF 3
ENDMDL
MODEL 6
REMARK VINA RESULT:    -5.208      1.681      4.228
REMARK INTER + INTRA:          -6.205
REMARK INTER:                  -6.067
REMARK INTRA:                  -0.138
REMARK UNBOUND:                -0.084
REMARK  3 active torsions:
REMARK  status: ('A' for Active; 'I' for Inactive)
REMARK    1  A    between atoms: C_1  and  C_2 
REMARK       I    between atoms: C_2  and  N_9 
REMARK    2  A    between atoms: C_3  and  C_4 
REMARK    3  A    between atoms: C_3  and  N_9 
ROOT
HETATM    1  C   UNL     1      39.225  15.686  59.476  1.00  0.00     0.318 C 
HETATM    2  O   UNL     1      38.384  14.857  59.210  1.00  0.00    -0.261 OA
HETATM    3  N   UNL     1      38.968  17.108  59.548  1.00  0.00    -0.342 N 
ATOM      4  HN  UNL     1      39.715  17.759  59.787  1.00  0.00     0.163 HD
ENDROOT
BRANCH   3   5
HETATM    5  C   UNL     1      37.649  17.583  59.278  1.00  0.00     0.236 C 
BRANCH   5   6
HETATM    6  C   UNL     1      37.481  17.843  57.774  1.00  0.00     0.191 C 
HETATM    7  O   UNL     1      38.350  18.506  57.076  1.00  0.00    -0.647 OA
HETATM    8  O   UNL     1      36.459  17.367  57.262  1.00  0.00    -0.647 OA
ENDBRANCH   5   6
ENDBRANCH   3   5
BRANCH   1   9
HETATM    9  C   UNL     1      40.595  15.149  59.753  1.00  0.00     0.270 C 
HETATM   10  O   UNL     1      41.541  15.999  59.841  1.00  0.00    -0.640 OA
HETATM   11  O   UNL     1      40.641  13.841  59.886  1.00  0.00    -0.640 OA
ENDBRANCH   1   9
TORSDOF 3
ENDMDL
MODEL 7
REMARK VINA RESULT:    -5.163      3.007      4.547
REMARK INTER + INTRA:          -6.153
REMARK INTER:                  -6.059
REMARK INTRA:                  -0.094
REMARK UNBOUND:                -0.084
REMARK  3 active torsions:
REMARK  status: ('A' for Active; 'I' for Inactive)
REMARK    1  A    between atoms: C_1  and  C_2 
REMARK       I    between atoms: C_2  and  N_9 
REMARK    2  A    between atoms: C_3  and  C_4 
REMARK    3  A    between atoms: C_3  and  N_9 
ROOT
HETATM    1  C   UNL     1      37.358  18.321  57.298  1.00  0.00     0.318 C 
HETATM    2  O   UNL     1      38.164  18.783  58.075  1.00  0.00    -0.261 OA
HETATM    3  N   UNL     1      36.775  17.003  57.423  1.00  0.00    -0.342 N 
ATOM      4  HN  UNL     1      36.093  16.671  56.742  1.00  0.00     0.163 HD
ENDROOT
BRANCH   3   5
HETATM    5  C   UNL     1      37.173  16.175  58.515  1.00  0.00     0.236 C 
BRANCH   5   6
HETATM    6  C   UNL     1      35.973  15.362  59.024  1.00  0.00     0.191 C 
HETATM    7  O   UNL     1      36.088  14.153  59.477  1.00  0.00    -0.647 OA
HETATM    8  O   UNL     1      34.880  15.944  58.984  1.00  0.00    -0.647 OA
ENDBRANCH   5   6
ENDBRANCH   3   5
BRANCH   1   9
HETATM    9  C   UNL     1      36.966  19.220  56.166  1.00  0.00     0.270 C 
HETATM   10  O   UNL     1      36.906  20.468  56.414  1.00  0.00    -0.640 OA
HETATM   11  O   UNL     1      36.744  18.588  55.034  1.00  0.00    -0.640 OA
ENDBRANCH   1   9
TORSDOF 3
ENDMDL
MODEL 8
REMARK VINA RESULT:    -5.150      2.932      4.745
REMARK INTER + INTRA:          -6.137
REMARK INTER:                  -6.054
REMARK INTRA:                  -0.083
REMARK UNBOUND:                -0.084
REMARK  3 active torsions:
REMARK  status: ('A' for Active; 'I' for Inactive)
REMARK    1  A    between atoms: C_1  and  C_2 
REMARK       I    between atoms: C_2  and  N_9 
REMARK    2  A    between atoms: C_3  and  C_4 
REMARK    3  A    between atoms: C_3  and  N_9 
ROOT
HETATM    1  C   UNL     1      37.120  17.010  58.165  1.00  0.00     0.318 C 
HETATM    2  O   UNL     1      37.609  17.733  59.002  1.00  0.00    -0.261 OA
HETATM    3  N   UNL     1      36.615  17.472  56.890  1.00  0.00    -0.342 N 
ATOM      4  HN  UNL     1      36.221  16.813  56.218  1.00  0.00     0.163 HD
ENDROOT
BRANCH   3   5
HETATM    5  C   UNL     1      36.678  18.865  56.589  1.00  0.00     0.236 C 
BRANCH   5   6
HETATM    6  C   UNL     1      36.802  19.071  55.072  1.00  0.00     0.191 C 
HETATM    7  O   UNL     1      35.973  19.803  54.395  1.00  0.00    -0.647 OA
HETATM    8  O   UNL     1      37.757  18.497  54.532  1.00  0.00    -0.647 OA
ENDBRANCH   5   6
ENDBRANCH   3   5
BRANCH   1   9
HETATM    9  C   UNL     1      37.071  15.555  58.517  1.00  0.00     0.270 C 
HETATM   10  O   UNL     1      38.110  15.059  59.064  1.00  0.00    -0.640 OA
HETATM   11  O   UNL     1      35.930  14.971  58.223  1.00  0.00    -0.640 OA
ENDBRANCH   1   9
TORSDOF 3
ENDMDL
MODEL 9
REMARK VINA RESULT:    -4.988      2.438      3.293
REMARK INTER + INTRA:          -5.947
REMARK INTER:                  -5.797
REMARK INTRA:                  -0.150
REMARK UNBOUND:                -0.084
REMARK  3 active torsions:
REMARK  status: ('A' for Active; 'I' for Inactive)
REMARK    1  A    between atoms: C_1  and  C_2 
REMARK       I    between atoms: C_2  and  N_9 
REMARK    2  A    between atoms: C_3  and  C_4 
REMARK    3  A    between atoms: C_3  and  N_9 
ROOT
HETATM    1  C   UNL     1      37.340  18.291  57.318  1.00  0.00     0.318 C 
HETATM    2  O   UNL     1      36.507  17.414  57.338  1.00  0.00    -0.261 OA
HETATM    3  N   UNL     1      38.309  18.512  58.370  1.00  0.00    -0.342 N 
ATOM      4  HN  UNL     1      38.995  19.263  58.294  1.00  0.00     0.163 HD
ENDROOT
BRANCH   3   5
HETATM    5  C   UNL     1      38.288  17.661  59.515  1.00  0.00     0.236 C 
BRANCH   5   6
HETATM    6  C   UNL     1      39.362  16.571  59.381  1.00  0.00     0.191 C 
HETATM    7  O   UNL     1      40.631  16.824  59.467  1.00  0.00    -0.647 OA
HETATM    8  O   UNL     1      38.936  15.424  59.193  1.00  0.00    -0.647 OA
ENDBRANCH   5   6
ENDBRANCH   3   5
BRANCH   1   9
HETATM    9  C   UNL     1      37.331  19.164  56.101  1.00  0.00     0.270 C 
HETATM   10  O   UNL     1      37.749  18.644  55.015  1.00  0.00    -0.640 OA
HETATM   11  O   UNL     1      36.867  20.376  56.315  1.00  0.00    -0.640 OA
ENDBRANCH   1   9
TORSDOF 3
ENDMDL
MODEL 10
REMARK VINA RESULT:    -4.830      2.593      3.762
REMARK INTER + INTRA:          -5.761
REMARK INTER:                  -5.632
REMARK INTRA:                  -0.129
REMARK UNBOUND:                -0.084
REMARK  3 active torsions:
REMARK  status: ('A' for Active; 'I' for Inactive)
REMARK    1  A    between atoms: C_1  and  C_2 
REMARK       I    between atoms: C_2  and  N_9 
REMARK    2  A    between atoms: C_3  and  C_4 
REMARK    3  A    between atoms: C_3  and  N_9 
ROOT
HETATM    1  C   UNL     1      37.203  18.506  56.991  1.00  0.00     0.318 C 
HETATM    2  O   UNL     1      36.120  17.970  57.063  1.00  0.00    -0.261 OA
HETATM    3  N   UNL     1      38.228  18.402  58.006  1.00  0.00    -0.342 N 
ATOM      4  HN  UNL     1      39.126  18.869  57.886  1.00  0.00     0.163 HD
ENDROOT
BRANCH   3   5
HETATM    5  C   UNL     1      37.961  17.633  59.177  1.00  0.00     0.236 C 
BRANCH   5   6
HETATM    6  C   UNL     1      38.361  16.167  58.948  1.00  0.00     0.191 C 
HETATM    7  O   UNL     1      37.547  15.290  58.447  1.00  0.00    -0.647 OA
HETATM    8  O   UNL     1      39.522  15.876  59.266  1.00  0.00    -0.647 OA
ENDBRANCH   5   6
ENDBRANCH   3   5
BRANCH   1   9
HETATM    9  C   UNL     1      37.446  19.305  55.746  1.00  0.00     0.270 C 
HETATM   10  O   UNL     1      36.935  20.471  55.701  1.00  0.00    -0.640 OA
HETATM   11  O   UNL     1      38.184  18.687  54.851  1.00  0.00    -0.640 OA
ENDBRANCH   1   9
TORSDOF 3
ENDMDL
MODEL 11
REMARK VINA RESULT:    -4.768      4.858      6.821
REMARK INTER + INTRA:          -5.688
REMARK INTER:                  -5.533
REMARK INTRA:                  -0.155
REMARK UNBOUND:                -0.084
REMARK  3 active torsions:
REMARK  status: ('A' for Active; 'I' for Inactive)
REMARK    1  A    between atoms: C_1  and  C_2 
REMARK       I    between atoms: C_2  and  N_9 
REMARK    2  A    between atoms: C_3  and  C_4 
REMARK    3  A    between atoms: C_3  and  N_9 
ROOT
HETATM    1  C   UNL     1      37.176  19.150  55.929  1.00  0.00     0.318 C 
HETATM    2  O   UNL     1      38.024  18.908  55.100  1.00  0.00    -0.261 OA
HETATM    3  N   UNL     1      36.159  20.168  55.773  1.00  0.00    -0.342 N 
ATOM      4  HN  UNL     1      35.463  20.321  56.502  1.00  0.00     0.163 HD
ENDROOT
BRANCH   3   5
HETATM    5  C   UNL     1      36.147  20.952  54.581  1.00  0.00     0.236 C 
BRANCH   5   6
HETATM    6  C   UNL     1      35.151  20.362  53.572  1.00  0.00     0.191 C 
HETATM    7  O   UNL     1      35.485  19.457  52.706  1.00  0.00    -0.647 OA
HETATM    8  O   UNL     1      33.995  20.803  53.644  1.00  0.00    -0.647 OA
ENDBRANCH   5   6
ENDBRANCH   3   5
BRANCH   1   9
HETATM    9  C   UNL     1      37.221  18.306  57.165  1.00  0.00     0.270 C 
HETATM   10  O   UNL     1      36.326  17.406  57.281  1.00  0.00    -0.640 OA
HETATM   11  O   UNL     1      38.209  18.602  57.980  1.00  0.00    -0.640 OA
ENDBRANCH   1   9
TORSDOF 3
ENDMDL
MODEL 12
REMARK VINA RESULT:    -4.757     11.345     12.706
REMARK INTER + INTRA:          -5.675
REMARK INTER:                  -5.569
REMARK INTRA:                  -0.106
REMARK UNBOUND:                -0.084
REMARK  3 active torsions:
REMARK  status: ('A' for Active; 'I' for Inactive)
REMARK    1  A    between atoms: C_1  and  C_2 
REMARK       I    between atoms: C_2  and  N_9 
REMARK    2  A    between atoms: C_3  and  C_4 
REMARK    3  A    between atoms: C_3  and  N_9 
ROOT
HETATM    1  C   UNL     1      42.169  23.958  68.330  1.00  0.00     0.318 C 
HETATM    2  O   UNL     1      42.846  24.632  69.073  1.00  0.00    -0.261 OA
HETATM    3  N   UNL     1      41.095  24.481  67.514  1.00  0.00    -0.342 N 
ATOM      4  HN  UNL     1      40.564  23.866  66.899  1.00  0.00     0.163 HD
ENDROOT
BRANCH   3   5
HETATM    5  C   UNL     1      40.793  25.874  67.585  1.00  0.00     0.236 C 
BRANCH   5   6
HETATM    6  C   UNL     1      40.905  26.509  66.190  1.00  0.00     0.191 C 
HETATM    7  O   UNL     1      42.044  26.764  65.626  1.00  0.00    -0.647 OA
HETATM    8  O   UNL     1      39.828  26.754  65.629  1.00  0.00    -0.647 OA
ENDBRANCH   5   6
ENDBRANCH   3   5
BRANCH   1   9
HETATM    9  C   UNL     1      42.515  22.501  68.284  1.00  0.00     0.270 C 
HETATM   10  O   UNL     1      43.092  22.013  69.310  1.00  0.00    -0.640 OA
HETATM   11  O   UNL     1      42.157  21.901  67.170  1.00  0.00    -0.640 OA
ENDBRANCH   1   9
TORSDOF 3
ENDMDL
MODEL 13
REMARK VINA RESULT:    -4.719      5.414      6.515
REMARK INTER + INTRA:          -5.631
REMARK INTER:                  -5.559
REMARK INTRA:                  -0.072
REMARK UNBOUND:                -0.084
REMARK  3 active torsions:
REMARK  status: ('A' for Active; 'I' for Inactive)
REMARK    1  A    between atoms: C_1  and  C_2 
REMARK       I    between atoms: C_2  and  N_9 
REMARK    2  A    between atoms: C_3  and  C_4 
REMARK    3  A    between atoms: C_3  and  N_9 
ROOT
HETATM    1  C   UNL     1      35.853  20.594  54.128  1.00  0.00     0.318 C 
HETATM    2  O   UNL     1      36.713  21.413  53.890  1.00  0.00    -0.261 OA
HETATM    3  N   UNL     1      35.811  19.790  55.330  1.00  0.00    -0.342 N 
ATOM      4  HN  UNL     1      35.055  19.122  55.480  1.00  0.00     0.163 HD
ENDROOT
BRANCH   3   5
HETATM    5  C   UNL     1      36.844  19.948  56.300  1.00  0.00     0.236 C 
BRANCH   5   6
HETATM    6  C   UNL     1      37.171  18.594  56.947  1.00  0.00     0.191 C 
HETATM    7  O   UNL     1      36.322  17.614  56.987  1.00  0.00    -0.647 OA
HETATM    8  O   UNL     1      38.309  18.492  57.425  1.00  0.00    -0.647 OA
ENDBRANCH   5   6
ENDBRANCH   3   5
BRANCH   1   9
HETATM    9  C   UNL     1      34.786  20.457  53.085  1.00  0.00     0.270 C 
HETATM   10  O   UNL     1      34.980  19.587  52.174  1.00  0.00    -0.640 OA
HETATM   11  O   UNL     1      33.760  21.260  53.260  1.00  0.00    -0.640 OA
ENDBRANCH   1   9
TORSDOF 3
ENDMDL
MODEL 14
REMARK VINA RESULT:    -4.709      5.120      6.508
REMARK INTER + INTRA:          -5.619
REMARK INTER:                  -5.551
REMARK INTRA:                  -0.068
REMARK UNBOUND:                -0.084
REMARK  3 active torsions:
REMARK  status: ('A' for Active; 'I' for Inactive)
REMARK    1  A    between atoms: C_1  and  C_2 
REMARK       I    between atoms: C_2  and  N_9 
REMARK    2  A    between atoms: C_3  and  C_4 
REMARK    3  A    between atoms: C_3  and  N_9 
ROOT
HETATM    1  C   UNL     1      38.085  19.830  53.683  1.00  0.00     0.318 C 
HETATM    2  O   UNL     1      37.362  20.777  53.467  1.00  0.00    -0.261 OA
HETATM    3  N   UNL     1      37.937  18.939  54.814  1.00  0.00    -0.342 N 
ATOM      4  HN  UNL     1      38.571  18.151  54.939  1.00  0.00     0.163 HD
ENDROOT
BRANCH   3   5
HETATM    5  C   UNL     1      36.889  19.184  55.751  1.00  0.00     0.236 C 
BRANCH   5   6
HETATM    6  C   UNL     1      37.115  18.353  57.022  1.00  0.00     0.191 C 
HETATM    7  O   UNL     1      36.371  17.338  57.337  1.00  0.00    -0.647 OA
HETATM    8  O   UNL     1      38.067  18.709  57.730  1.00  0.00    -0.647 OA
ENDBRANCH   5   6
ENDBRANCH   3   5
BRANCH   1   9
HETATM    9  C   UNL     1      39.172  19.605  52.678  1.00  0.00     0.270 C 
HETATM   10  O   UNL     1      39.078  18.565  51.948  1.00  0.00    -0.640 OA
HETATM   11  O   UNL     1      40.095  20.542  52.670  1.00  0.00    -0.640 OA
ENDBRANCH   1   9
TORSDOF 3
ENDMDL
MODEL 15
REMARK VINA RESULT:    -4.678      5.401      6.922
REMARK INTER + INTRA:          -5.582
REMARK INTER:                  -5.435
REMARK INTRA:                  -0.147
REMARK UNBOUND:                -0.084
REMARK  3 active torsions:
REMARK  status: ('A' for Active; 'I' for Inactive)
REMARK    1  A    between atoms: C_1  and  C_2 
REMARK       I    between atoms: C_2  and  N_9 
REMARK    2  A    between atoms: C_3  and  C_4 
REMARK    3  A    between atoms: C_3  and  N_9 
ROOT
HETATM    1  C   UNL     1      37.109  18.961  54.654  1.00  0.00     0.318 C 
HETATM    2  O   UNL     1      38.308  18.798  54.670  1.00  0.00    -0.261 OA
HETATM    3  N   UNL     1      36.298  18.894  53.458  1.00  0.00    -0.342 N 
ATOM      4  HN  UNL     1      35.289  19.031  53.507  1.00  0.00     0.163 HD
ENDROOT
BRANCH   3   5
HETATM    5  C   UNL     1      36.935  18.632  52.208  1.00  0.00     0.236 C 
BRANCH   5   6
HETATM    6  C   UNL     1      36.960  17.120  51.937  1.00  0.00     0.191 C 
HETATM    7  O   UNL     1      37.943  16.359  52.306  1.00  0.00    -0.647 OA
HETATM    8  O   UNL     1      35.969  16.668  51.347  1.00  0.00    -0.647 OA
ENDBRANCH   5   6
ENDBRANCH   3   5
BRANCH   1   9
HETATM    9  C   UNL     1      36.477  19.234  55.985  1.00  0.00     0.270 C 
HETATM   10  O   UNL     1      36.086  18.224  56.655  1.00  0.00    -0.640 OA
HETATM   11  O   UNL     1      36.421  20.510  56.299  1.00  0.00    -0.640 OA
ENDBRANCH   1   9
TORSDOF 3
ENDMDL
MODEL 16
REMARK VINA RESULT:    -4.662      5.255      6.424
REMARK INTER + INTRA:          -5.564
REMARK INTER:                  -5.487
REMARK INTRA:                  -0.076
REMARK UNBOUND:                -0.084
REMARK  3 active torsions:
REMARK  status: ('A' for Active; 'I' for Inactive)
REMARK    1  A    between atoms: C_1  and  C_2 
REMARK       I    between atoms: C_2  and  N_9 
REMARK    2  A    between atoms: C_3  and  C_4 
REMARK    3  A    between atoms: C_3  and  N_9 
ROOT
HETATM    1  C   UNL     1      37.225  18.249  53.022  1.00  0.00     0.318 C 
HETATM    2  O   UNL     1      36.116  18.534  52.628  1.00  0.00    -0.261 OA
HETATM    3  N   UNL     1      37.715  18.549  54.349  1.00  0.00    -0.342 N 
ATOM      4  HN  UNL     1      38.657  18.275  54.629  1.00  0.00     0.163 HD
ENDROOT
BRANCH   3   5
HETATM    5  C   UNL     1      36.858  19.235  55.261  1.00  0.00     0.236 C 
BRANCH   5   6
HETATM    6  C   UNL     1      36.970  18.612  56.660  1.00  0.00     0.191 C 
HETATM    7  O   UNL     1      36.203  17.645  57.059  1.00  0.00    -0.647 OA
HETATM    8  O   UNL     1      37.853  19.087  57.386  1.00  0.00    -0.647 OA
ENDBRANCH   5   6
ENDBRANCH   3   5
BRANCH   1   9
HETATM    9  C   UNL     1      38.095  17.530  52.037  1.00  0.00     0.270 C 
HETATM   10  O   UNL     1      38.880  16.641  52.503  1.00  0.00    -0.640 OA
HETATM   11  O   UNL     1      37.918  17.909  50.790  1.00  0.00    -0.640 OA
ENDBRANCH   1   9
TORSDOF 3
ENDMDL
MODEL 17
REMARK VINA RESULT:    -4.657     11.368     12.218
REMARK INTER + INTRA:          -5.558
REMARK INTER:                  -5.460
REMARK INTRA:                  -0.098
REMARK UNBOUND:                -0.084
REMARK  3 active torsions:
REMARK  status: ('A' for Active; 'I' for Inactive)
REMARK    1  A    between atoms: C_1  and  C_2 
REMARK       I    between atoms: C_2  and  N_9 
REMARK    2  A    between atoms: C_3  and  C_4 
REMARK    3  A    between atoms: C_3  and  N_9 
ROOT
HETATM    1  C   UNL     1      41.097  25.156  67.487  1.00  0.00     0.318 C 
HETATM    2  O   UNL     1      40.220  24.935  68.291  1.00  0.00    -0.261 OA
HETATM    3  N   UNL     1      42.437  24.618  67.580  1.00  0.00    -0.342 N 
ATOM      4  HN  UNL     1      43.133  24.832  66.866  1.00  0.00     0.163 HD
ENDROOT
BRANCH   3   5
HETATM    5  C   UNL     1      42.767  23.782  68.689  1.00  0.00     0.236 C 
BRANCH   5   6
HETATM    6  C   UNL     1      42.534  22.308  68.325  1.00  0.00     0.191 C 
HETATM    7  O   UNL     1      42.101  21.934  67.161  1.00  0.00    -0.647 OA
HETATM    8  O   UNL     1      42.798  21.491  69.217  1.00  0.00    -0.647 OA
ENDBRANCH   5   6
ENDBRANCH   3   5
BRANCH   1   9
HETATM    9  C   UNL     1      40.713  26.037  66.338  1.00  0.00     0.270 C 
HETATM   10  O   UNL     1      39.475  26.084  66.037  1.00  0.00    -0.640 OA
HETATM   11  O   UNL     1      41.725  26.673  65.789  1.00  0.00    -0.640 OA
ENDBRANCH   1   9
TORSDOF 3
ENDMDL
MODEL 18
REMARK VINA RESULT:    -4.614      4.744      5.905
REMARK INTER + INTRA:          -5.507
REMARK INTER:                  -5.444
REMARK INTRA:                  -0.064
REMARK UNBOUND:                -0.084
REMARK  3 active torsions:
REMARK  status: ('A' for Active; 'I' for Inactive)
REMARK    1  A    between atoms: C_1  and  C_2 
REMARK       I    between atoms: C_2  and  N_9 
REMARK    2  A    between atoms: C_3  and  C_4 
REMARK    3  A    between atoms: C_3  and  N_9 
ROOT
HETATM    1  C   UNL     1      37.269  19.184  56.146  1.00  0.00     0.318 C 
HETATM    2  O   UNL     1      36.533  20.137  56.272  1.00  0.00    -0.261 OA
HETATM    3  N   UNL     1      38.015  18.890  54.942  1.00  0.00    -0.342 N 
ATOM      4  HN  UNL     1      38.628  18.076  54.896  1.00  0.00     0.163 HD
ENDROOT
BRANCH   3   5
HETATM    5  C   UNL     1      37.877  19.758  53.818  1.00  0.00     0.236 C 
BRANCH   5   6
HETATM    6  C   UNL     1      39.022  19.516  52.822  1.00  0.00     0.191 C 
HETATM    7  O   UNL     1      39.065  18.480  52.044  1.00  0.00    -0.647 OA
HETATM    8  O   UNL     1      39.904  20.386  52.802  1.00  0.00    -0.647 OA
ENDBRANCH   5   6
ENDBRANCH   3   5
BRANCH   1   9
HETATM    9  C   UNL     1      37.387  18.295  57.346  1.00  0.00     0.270 C 
HETATM   10  O   UNL     1      38.322  18.561  58.170  1.00  0.00    -0.640 OA
HETATM   11  O   UNL     1      36.479  17.346  57.401  1.00  0.00    -0.640 OA
ENDBRANCH   1   9
TORSDOF 3
ENDMDL
MODEL 19
REMARK VINA RESULT:    -4.550      2.881      4.979
REMARK INTER + INTRA:          -5.432
REMARK INTER:                  -5.365
REMARK INTRA:                  -0.067
REMARK UNBOUND:                -0.084
REMARK  3 active torsions:
REMARK  status: ('A' for Active; 'I' for Inactive)
REMARK    1  A    between atoms: C_1  and  C_2 
REMARK       I    between atoms: C_2  and  N_9 
REMARK    2  A    between atoms: C_3  and  C_4 
REMARK    3  A    between atoms: C_3  and  N_9 
ROOT
HETATM    1  C   UNL     1      37.892  17.444  58.574  1.00  0.00     0.318 C 
HETATM    2  O   UNL     1      36.888  16.821  58.835  1.00  0.00    -0.261 OA
HETATM    3  N   UNL     1      37.996  18.399  57.493  1.00  0.00    -0.342 N 
ATOM      4  HN  UNL     1      38.867  18.902  57.326  1.00  0.00     0.163 HD
ENDROOT
BRANCH   3   5
HETATM    5  C   UNL     1      36.857  18.624  56.662  1.00  0.00     0.236 C 
BRANCH   5   6
HETATM    6  C   UNL     1      37.288  19.291  55.347  1.00  0.00     0.191 C 
HETATM    7  O   UNL     1      38.120  18.736  54.521  1.00  0.00    -0.647 OA
HETATM    8  O   UNL     1      36.780  20.397  55.119  1.00  0.00    -0.647 OA
ENDBRANCH   5   6
ENDBRANCH   3   5
BRANCH   1   9
HETATM    9  C   UNL     1      39.066  17.180  59.467  1.00  0.00     0.270 C 
HETATM   10  O   UNL     1      39.695  16.087  59.284  1.00  0.00    -0.640 OA
HETATM   11  O   UNL     1      39.306  18.140  60.333  1.00  0.00    -0.640 OA
ENDBRANCH   1   9
TORSDOF 3
ENDMDL
MODEL 20
REMARK VINA RESULT:    -4.466      5.567      6.681
REMARK INTER + INTRA:          -5.334
REMARK INTER:                  -5.183
REMARK INTRA:                  -0.151
REMARK UNBOUND:                -0.084
REMARK  3 active torsions:
REMARK  status: ('A' for Active; 'I' for Inactive)
REMARK    1  A    between atoms: C_1  and  C_2 
REMARK       I    between atoms: C_2  and  N_9 
REMARK    2  A    between atoms: C_3  and  C_4 
REMARK    3  A    between atoms: C_3  and  N_9 
ROOT
HETATM    1  C   UNL     1      36.955  18.980  54.554  1.00  0.00     0.318 C 
HETATM    2  O   UNL     1      36.089  19.046  53.710  1.00  0.00    -0.261 OA
HETATM    3  N   UNL     1      38.352  18.746  54.263  1.00  0.00    -0.342 N 
ATOM      4  HN  UNL     1      39.040  18.709  55.015  1.00  0.00     0.163 HD
ENDROOT
BRANCH   3   5
HETATM    5  C   UNL     1      38.752  18.567  52.905  1.00  0.00     0.236 C 
BRANCH   5   6
HETATM    6  C   UNL     1      39.162  19.916  52.295  1.00  0.00     0.191 C 
HETATM    7  O   UNL     1      40.270  20.516  52.602  1.00  0.00    -0.647 OA
HETATM    8  O   UNL     1      38.365  20.395  51.477  1.00  0.00    -0.647 OA
ENDBRANCH   5   6
ENDBRANCH   3   5
BRANCH   1   9
HETATM    9  C   UNL     1      36.496  19.172  55.967  1.00  0.00     0.270 C 
HETATM   10  O   UNL     1      36.242  18.119  56.639  1.00  0.00    -0.640 OA
HETATM   11  O   UNL     1      36.428  20.430  56.341  1.00  0.00    -0.640 OA
ENDBRANCH   1   9
TORSDOF 3
ENDMDL
