REMARK  1 active torsions:
REMARK  status: ('A' for Active; 'I' for Inactive)
REMARK    1  A    between atoms: N_2  and  C_4 
ROOT
HETATM    1  C   UNL     1       0.710  12.914  10.870  1.00  0.00     0.072 A 
HETATM    2  C   UNL     1       1.043  13.239  12.255  1.00  0.00     0.138 A 
HETATM    3  N   UNL     1       0.338  14.026  13.030  1.00  0.00    -0.305 N 
ATOM      4  HN  UNL     1       0.653  14.256  13.973  1.00  0.00     0.186 HD
HETATM    5  N   UNL     1      -0.837  14.531  12.533  1.00  0.00    -0.261 N 
HETATM    6  C   UNL     1      -1.577  15.329  13.491  1.00  0.00     0.181 C 
HETATM    7  C   UNL     1      -1.355  14.319  11.245  1.00  0.00     0.285 A 
HETATM    8  O   UNL     1      -2.430  14.827  10.869  1.00  0.00    -0.265 OA
HETATM    9  C   UNL     1      -0.495  13.499  10.418  1.00  0.00     0.131 A 
HETATM   10 CL   UNL     1      -1.084  13.245   8.822  1.00  0.00    -0.076 Cl
ENDROOT
BRANCH   1  11
HETATM   11  N   UNL     1       1.485  12.141  10.118  1.00  0.00    -0.392 N 
HETATM   12  C   UNL     1       2.480  11.235  10.686  1.00  0.00     0.146 C 
ATOM     13  HN  UNL     1       1.381  12.182   9.104  1.00  0.00     0.159 HD
ENDBRANCH   1  11
TORSDOF 1
