MODEL 1
REMARK VINA RESULT:    -6.305      0.000      0.000
REMARK INTER + INTRA:          -7.300
REMARK INTER:                  -7.226
REMARK INTRA:                  -0.074
REMARK UNBOUND:                -0.074
REMARK  3 active torsions:
REMARK  status: ('A' for Active; 'I' for Inactive)
REMARK    1  A    between atoms: C_1  and  C_8 
REMARK    2  A    between atoms: C_3  and  O_10 
REMARK    3  A    between atoms: C_4  and  O_11 
ROOT
HETATM    1  C   UNL     1      23.076  11.207  35.375  1.00  0.00     0.004 A 
HETATM    2  C   UNL     1      22.387  10.329  36.102  1.00  0.00     0.054 A 
HETATM    3  C   UNL     1      21.518   9.289  35.399  1.00  0.00     0.102 A 
HETATM    4  C   UNL     1      21.481   9.280  34.093  1.00  0.00     0.099 A 
HETATM    5  C   UNL     1      22.272  10.280  33.263  1.00  0.00     0.040 A 
HETATM    6  C   UNL     1      23.015  11.177  33.858  1.00  0.00     0.017 A 
ENDROOT
BRANCH   1   7
HETATM    7  C   UNL     1      23.957  12.274  36.015  1.00  0.00     0.270 C 
HETATM    8  O   UNL     1      23.472  13.032  36.760  1.00  0.00    -0.301 OA
ENDBRANCH   1   7
BRANCH   3   9
HETATM    9  O   UNL     1      20.759   8.314  36.063  1.00  0.00    -0.353 OA
HETATM   10  C   UNL     1      21.338   7.786  37.229  1.00  0.00     0.210 C 
ENDBRANCH   3   9
BRANCH   4  11
HETATM   11  O   UNL     1      20.701   8.331  33.437  1.00  0.00    -0.358 OA
ATOM     12  HO  UNL     1      20.492   7.520  33.887  1.00  0.00     0.217 HD
ENDBRANCH   4  11
TORSDOF 3
ENDMDL
MODEL 2
REMARK VINA RESULT:    -5.684     10.861     12.102
REMARK INTER + INTRA:          -6.588
REMARK INTER:                  -6.509
REMARK INTRA:                  -0.079
REMARK UNBOUND:                -0.074
REMARK  3 active torsions:
REMARK  status: ('A' for Active; 'I' for Inactive)
REMARK    1  A    between atoms: C_1  and  C_8 
REMARK    2  A    between atoms: C_3  and  O_10 
REMARK    3  A    between atoms: C_4  and  O_11 
ROOT
HETATM    1  C   UNL     1      19.122  19.846  40.640  1.00  0.00     0.004 A 
HETATM    2  C   UNL     1      20.395  19.812  40.246  1.00  0.00     0.054 A 
HETATM    3  C   UNL     1      20.862  20.747  39.134  1.00  0.00     0.102 A 
HETATM    4  C   UNL     1      19.999  21.569  38.600  1.00  0.00     0.099 A 
HETATM    5  C   UNL     1      18.547  21.612  39.052  1.00  0.00     0.040 A 
HETATM    6  C   UNL     1      18.137  20.811  40.002  1.00  0.00     0.017 A 
ENDROOT
BRANCH   1   7
HETATM    7  C   UNL     1      18.590  18.935  41.741  1.00  0.00     0.270 C 
HETATM    8  O   UNL     1      17.436  18.794  41.846  1.00  0.00    -0.301 OA
ENDBRANCH   1   7
BRANCH   3   9
HETATM    9  O   UNL     1      22.177  20.801  38.648  1.00  0.00    -0.353 OA
HETATM   10  C   UNL     1      23.030  19.779  39.096  1.00  0.00     0.210 C 
ENDBRANCH   3   9
BRANCH   4  11
HETATM   11  O   UNL     1      20.413  22.436  37.591  1.00  0.00    -0.358 OA
ATOM     12  HO  UNL     1      20.797  22.070  36.803  1.00  0.00     0.217 HD
ENDBRANCH   4  11
TORSDOF 3
ENDMDL
MODEL 3
REMARK VINA RESULT:    -5.522      1.535      3.852
REMARK INTER + INTRA:          -6.403
REMARK INTER:                  -6.327
REMARK INTRA:                  -0.076
REMARK UNBOUND:                -0.074
REMARK  3 active torsions:
REMARK  status: ('A' for Active; 'I' for Inactive)
REMARK    1  A    between atoms: C_1  and  C_8 
REMARK    2  A    between atoms: C_3  and  O_10 
REMARK    3  A    between atoms: C_4  and  O_11 
ROOT
HETATM    1  C   UNL     1      21.728   9.404  35.882  1.00  0.00     0.004 A 
HETATM    2  C   UNL     1      22.613  10.379  36.087  1.00  0.00     0.054 A 
HETATM    3  C   UNL     1      23.133  11.183  34.898  1.00  0.00     0.102 A 
HETATM    4  C   UNL     1      22.686  10.900  33.704  1.00  0.00     0.099 A 
HETATM    5  C   UNL     1      21.671   9.790  33.471  1.00  0.00     0.040 A 
HETATM    6  C   UNL     1      21.224   9.093  34.484  1.00  0.00     0.017 A 
ENDROOT
BRANCH   1   7
HETATM    7  C   UNL     1      21.174   8.560  37.025  1.00  0.00     0.270 C 
HETATM    8  O   UNL     1      21.068   7.407  36.873  1.00  0.00    -0.301 OA
ENDBRANCH   1   7
BRANCH   3   9
HETATM    9  O   UNL     1      24.057  12.234  34.998  1.00  0.00    -0.353 OA
HETATM   10  C   UNL     1      24.338  12.670  36.304  1.00  0.00     0.210 C 
ENDBRANCH   3   9
BRANCH   4  11
HETATM   11  O   UNL     1      23.142  11.632  32.610  1.00  0.00    -0.358 OA
ATOM     12  HO  UNL     1      22.708  11.520  31.772  1.00  0.00     0.217 HD
ENDBRANCH   4  11
TORSDOF 3
ENDMDL
MODEL 4
REMARK VINA RESULT:    -5.503      1.176      2.611
REMARK INTER + INTRA:          -6.381
REMARK INTER:                  -6.296
REMARK INTRA:                  -0.085
REMARK UNBOUND:                -0.074
REMARK  3 active torsions:
REMARK  status: ('A' for Active; 'I' for Inactive)
REMARK    1  A    between atoms: C_1  and  C_8 
REMARK    2  A    between atoms: C_3  and  O_10 
REMARK    3  A    between atoms: C_4  and  O_11 
ROOT
HETATM    1  C   UNL     1      23.075  11.130  34.372  1.00  0.00     0.004 A 
HETATM    2  C   UNL     1      22.357  10.373  33.543  1.00  0.00     0.054 A 
HETATM    3  C   UNL     1      21.442   9.293  34.115  1.00  0.00     0.102 A 
HETATM    4  C   UNL     1      21.378   9.146  35.412  1.00  0.00     0.099 A 
HETATM    5  C   UNL     1      22.193  10.014  36.358  1.00  0.00     0.040 A 
HETATM    6  C   UNL     1      22.984  10.939  35.875  1.00  0.00     0.017 A 
ENDROOT
BRANCH   1   7
HETATM    7  C   UNL     1      24.011  12.222  33.864  1.00  0.00     0.270 C 
HETATM    8  O   UNL     1      24.737  12.737  34.620  1.00  0.00    -0.301 OA
ENDBRANCH   1   7
BRANCH   3   9
HETATM    9  O   UNL     1      20.638   8.446  33.339  1.00  0.00    -0.353 OA
HETATM   10  C   UNL     1      19.569   9.069  32.673  1.00  0.00     0.210 C 
ENDBRANCH   3   9
BRANCH   4  11
HETATM   11  O   UNL     1      20.540   8.172  35.949  1.00  0.00    -0.358 OA
ATOM     12  HO  UNL     1      20.617   7.278  35.636  1.00  0.00     0.217 HD
ENDBRANCH   4  11
TORSDOF 3
ENDMDL
MODEL 5
REMARK VINA RESULT:    -5.352      1.475      4.375
REMARK INTER + INTRA:          -6.208
REMARK INTER:                  -6.235
REMARK INTRA:                   0.028
REMARK UNBOUND:                -0.074
REMARK  3 active torsions:
REMARK  status: ('A' for Active; 'I' for Inactive)
REMARK    1  A    between atoms: C_1  and  C_8 
REMARK    2  A    between atoms: C_3  and  O_10 
REMARK    3  A    between atoms: C_4  and  O_11 
ROOT
HETATM    1  C   UNL     1      22.542  10.575  35.035  1.00  0.00     0.004 A 
HETATM    2  C   UNL     1      23.113  11.213  36.057  1.00  0.00     0.054 A 
HETATM    3  C   UNL     1      24.141  12.307  35.779  1.00  0.00     0.102 A 
HETATM    4  C   UNL     1      24.427  12.600  34.538  1.00  0.00     0.099 A 
HETATM    5  C   UNL     1      23.770  11.877  33.372  1.00  0.00     0.040 A 
HETATM    6  C   UNL     1      22.892  10.933  33.602  1.00  0.00     0.017 A 
ENDROOT
BRANCH   1   7
HETATM    7  C   UNL     1      21.514   9.469  35.245  1.00  0.00     0.270 C 
HETATM    8  O   UNL     1      21.224   9.169  36.336  1.00  0.00    -0.301 OA
ENDBRANCH   1   7
BRANCH   3   9
HETATM    9  O   UNL     1      24.797  13.046  36.774  1.00  0.00    -0.353 OA
HETATM   10  C   UNL     1      25.982  12.477  37.268  1.00  0.00     0.210 C 
ENDBRANCH   3   9
BRANCH   4  11
HETATM   11  O   UNL     1      25.354  13.604  34.268  1.00  0.00    -0.358 OA
ATOM     12  HO  UNL     1      26.081  13.411  33.687  1.00  0.00     0.217 HD
ENDBRANCH   4  11
TORSDOF 3
ENDMDL
MODEL 6
REMARK VINA RESULT:    -5.348     11.025     12.183
REMARK INTER + INTRA:          -6.203
REMARK INTER:                  -6.124
REMARK INTRA:                  -0.079
REMARK UNBOUND:                -0.074
REMARK  3 active torsions:
REMARK  status: ('A' for Active; 'I' for Inactive)
REMARK    1  A    between atoms: C_1  and  C_8 
REMARK    2  A    between atoms: C_3  and  O_10 
REMARK    3  A    between atoms: C_4  and  O_11 
ROOT
HETATM    1  C   UNL     1      20.876  20.675  39.347  1.00  0.00     0.004 A 
HETATM    2  C   UNL     1      20.144  19.959  40.201  1.00  0.00     0.054 A 
HETATM    3  C   UNL     1      18.781  20.482  40.644  1.00  0.00     0.102 A 
HETATM    4  C   UNL     1      18.358  21.621  40.163  1.00  0.00     0.099 A 
HETATM    5  C   UNL     1      19.190  22.436  39.185  1.00  0.00     0.040 A 
HETATM    6  C   UNL     1      20.363  21.997  38.804  1.00  0.00     0.017 A 
ENDROOT
BRANCH   1   7
HETATM    7  C   UNL     1      22.248  20.211  38.870  1.00  0.00     0.270 C 
HETATM    8  O   UNL     1      22.738  20.750  37.958  1.00  0.00    -0.301 OA
ENDBRANCH   1   7
BRANCH   3   9
HETATM    9  O   UNL     1      17.926  19.810  41.530  1.00  0.00    -0.353 OA
HETATM   10  C   UNL     1      18.426  18.608  42.058  1.00  0.00     0.210 C 
ENDBRANCH   3   9
BRANCH   4  11
HETATM   11  O   UNL     1      17.111  22.107  40.550  1.00  0.00    -0.358 OA
ATOM     12  HO  UNL     1      17.071  22.900  41.072  1.00  0.00     0.217 HD
ENDBRANCH   4  11
TORSDOF 3
ENDMDL
MODEL 7
REMARK VINA RESULT:    -5.298      1.290      1.436
REMARK INTER + INTRA:          -6.145
REMARK INTER:                  -6.056
REMARK INTRA:                  -0.089
REMARK UNBOUND:                -0.074
REMARK  3 active torsions:
REMARK  status: ('A' for Active; 'I' for Inactive)
REMARK    1  A    between atoms: C_1  and  C_8 
REMARK    2  A    between atoms: C_3  and  O_10 
REMARK    3  A    between atoms: C_4  and  O_11 
ROOT
HETATM    1  C   UNL     1      23.826  12.011  35.426  1.00  0.00     0.004 A 
HETATM    2  C   UNL     1      22.849  11.284  35.968  1.00  0.00     0.054 A 
HETATM    3  C   UNL     1      21.962  10.428  35.068  1.00  0.00     0.102 A 
HETATM    4  C   UNL     1      22.192  10.421  33.782  1.00  0.00     0.099 A 
HETATM    5  C   UNL     1      23.310  11.246  33.164  1.00  0.00     0.040 A 
HETATM    6  C   UNL     1      24.072  11.987  33.927  1.00  0.00     0.017 A 
ENDROOT
BRANCH   1   7
HETATM    7  C   UNL     1      24.742  12.892  36.267  1.00  0.00     0.270 C 
HETATM    8  O   UNL     1      25.781  13.200  35.833  1.00  0.00    -0.301 OA
ENDBRANCH   1   7
BRANCH   3   9
HETATM    9  O   UNL     1      20.913   9.620  35.531  1.00  0.00    -0.353 OA
HETATM   10  C   UNL     1      21.283   8.600  36.424  1.00  0.00     0.210 C 
ENDBRANCH   3   9
BRANCH   4  11
HETATM   11  O   UNL     1      21.398   9.636  32.949  1.00  0.00    -0.358 OA
ATOM     12  HO  UNL     1      21.041  10.024  32.158  1.00  0.00     0.217 HD
ENDBRANCH   4  11
TORSDOF 3
ENDMDL
MODEL 8
REMARK VINA RESULT:    -4.824     11.415     13.143
REMARK INTER + INTRA:          -5.602
REMARK INTER:                  -5.701
REMARK INTRA:                   0.099
REMARK UNBOUND:                -0.074
REMARK  3 active torsions:
REMARK  status: ('A' for Active; 'I' for Inactive)
REMARK    1  A    between atoms: C_1  and  C_8 
REMARK    2  A    between atoms: C_3  and  O_10 
REMARK    3  A    between atoms: C_4  and  O_11 
ROOT
HETATM    1  C   UNL     1      17.669  21.655  40.705  1.00  0.00     0.004 A 
HETATM    2  C   UNL     1      18.713  22.235  40.114  1.00  0.00     0.054 A 
HETATM    3  C   UNL     1      19.986  21.427  39.878  1.00  0.00     0.102 A 
HETATM    4  C   UNL     1      20.017  20.177  40.254  1.00  0.00     0.099 A 
HETATM    5  C   UNL     1      18.824  19.513  40.925  1.00  0.00     0.040 A 
HETATM    6  C   UNL     1      17.730  20.200  41.136  1.00  0.00     0.017 A 
ENDROOT
BRANCH   1   7
HETATM    7  C   UNL     1      16.370  22.407  40.976  1.00  0.00     0.270 C 
HETATM    8  O   UNL     1      15.953  22.436  42.066  1.00  0.00    -0.301 OA
ENDBRANCH   1   7
BRANCH   3   9
HETATM    9  O   UNL     1      21.139  21.933  39.259  1.00  0.00    -0.353 OA
HETATM   10  C   UNL     1      21.222  21.724  37.872  1.00  0.00     0.210 C 
ENDBRANCH   3   9
BRANCH   4  11
HETATM   11  O   UNL     1      21.168  19.424  40.036  1.00  0.00    -0.358 OA
ATOM     12  HO  UNL     1      22.004  19.872  39.982  1.00  0.00     0.217 HD
ENDBRANCH   4  11
TORSDOF 3
ENDMDL
MODEL 9
REMARK VINA RESULT:    -4.705     17.743     19.052
REMARK INTER + INTRA:          -5.466
REMARK INTER:                  -5.381
REMARK INTRA:                  -0.085
REMARK UNBOUND:                -0.074
REMARK  3 active torsions:
REMARK  status: ('A' for Active; 'I' for Inactive)
REMARK    1  A    between atoms: C_1  and  C_8 
REMARK    2  A    between atoms: C_3  and  O_10 
REMARK    3  A    between atoms: C_4  and  O_11 
ROOT
HETATM    1  C   UNL     1      10.881   1.607  23.189  1.00  0.00     0.004 A 
HETATM    2  C   UNL     1      10.422   0.377  22.961  1.00  0.00     0.054 A 
HETATM    3  C   UNL     1      10.040  -0.513  24.140  1.00  0.00     0.102 A 
HETATM    4  C   UNL     1      10.164  -0.038  25.351  1.00  0.00     0.099 A 
HETATM    5  C   UNL     1      10.683   1.368  25.612  1.00  0.00     0.040 A 
HETATM    6  C   UNL     1      11.017   2.135  24.606  1.00  0.00     0.017 A 
ENDROOT
BRANCH   1   7
HETATM    7  C   UNL     1      11.286   2.544  22.055  1.00  0.00     0.270 C 
HETATM    8  O   UNL     1      11.015   3.676  22.137  1.00  0.00    -0.301 OA
ENDBRANCH   1   7
BRANCH   3   9
HETATM    9  O   UNL     1       9.540  -1.817  24.017  1.00  0.00    -0.353 OA
HETATM   10  C   UNL     1      10.311  -2.689  23.229  1.00  0.00     0.210 C 
ENDBRANCH   3   9
BRANCH   4  11
HETATM   11  O   UNL     1       9.809  -0.834  26.438  1.00  0.00    -0.358 OA
ATOM     12  HO  UNL     1      10.496  -1.267  26.931  1.00  0.00     0.217 HD
ENDBRANCH   4  11
TORSDOF 3
ENDMDL
MODEL 10
REMARK VINA RESULT:    -4.698      5.233      7.264
REMARK INTER + INTRA:          -5.458
REMARK INTER:                  -5.379
REMARK INTRA:                  -0.079
REMARK UNBOUND:                -0.074
REMARK  3 active torsions:
REMARK  status: ('A' for Active; 'I' for Inactive)
REMARK    1  A    between atoms: C_1  and  C_8 
REMARK    2  A    between atoms: C_3  and  O_10 
REMARK    3  A    between atoms: C_4  and  O_11 
ROOT
HETATM    1  C   UNL     1      27.920  12.783  37.913  1.00  0.00     0.004 A 
HETATM    2  C   UNL     1      28.349  13.669  37.015  1.00  0.00     0.054 A 
HETATM    3  C   UNL     1      27.475  13.999  35.808  1.00  0.00     0.102 A 
HETATM    4  C   UNL     1      26.316  13.408  35.691  1.00  0.00     0.099 A 
HETATM    5  C   UNL     1      25.824  12.400  36.719  1.00  0.00     0.040 A 
HETATM    6  C   UNL     1      26.569  12.108  37.754  1.00  0.00     0.017 A 
ENDROOT
BRANCH   1   7
HETATM    7  C   UNL     1      28.748  12.404  39.137  1.00  0.00     0.270 C 
HETATM    8  O   UNL     1      29.541  13.162  39.536  1.00  0.00    -0.301 OA
ENDBRANCH   1   7
BRANCH   3   9
HETATM    9  O   UNL     1      27.822  14.920  34.809  1.00  0.00    -0.353 OA
HETATM   10  C   UNL     1      29.048  14.681  34.165  1.00  0.00     0.210 C 
ENDBRANCH   3   9
BRANCH   4  11
HETATM   11  O   UNL     1      25.502  13.707  34.602  1.00  0.00    -0.358 OA
ATOM     12  HO  UNL     1      25.886  13.715  33.732  1.00  0.00     0.217 HD
ENDBRANCH   4  11
TORSDOF 3
ENDMDL
MODEL 11
REMARK VINA RESULT:    -4.639     15.735     17.832
REMARK INTER + INTRA:          -5.391
REMARK INTER:                  -5.322
REMARK INTRA:                  -0.069
REMARK UNBOUND:                -0.074
REMARK  3 active torsions:
REMARK  status: ('A' for Active; 'I' for Inactive)
REMARK    1  A    between atoms: C_1  and  C_8 
REMARK    2  A    between atoms: C_3  and  O_10 
REMARK    3  A    between atoms: C_4  and  O_11 
ROOT
HETATM    1  C   UNL     1      10.530   0.491  24.818  1.00  0.00     0.004 A 
HETATM    2  C   UNL     1      11.002   1.436  25.631  1.00  0.00     0.054 A 
HETATM    3  C   UNL     1      11.255   2.839  25.086  1.00  0.00     0.102 A 
HETATM    4  C   UNL     1      10.990   3.082  23.830  1.00  0.00     0.099 A 
HETATM    5  C   UNL     1      10.446   2.006  22.903  1.00  0.00     0.040 A 
HETATM    6  C   UNL     1      10.232   0.799  23.361  1.00  0.00     0.017 A 
ENDROOT
BRANCH   1   7
HETATM    7  C   UNL     1      10.262  -0.931  25.298  1.00  0.00     0.270 C 
HETATM    8  O   UNL     1       9.851  -1.092  26.380  1.00  0.00    -0.301 OA
ENDBRANCH   1   7
BRANCH   3   9
HETATM    9  O   UNL     1      11.740   3.909  25.852  1.00  0.00    -0.353 OA
HETATM   10  C   UNL     1      11.723   3.714  27.243  1.00  0.00     0.210 C 
ENDBRANCH   3   9
BRANCH   4  11
HETATM   11  O   UNL     1      11.205   4.360  23.320  1.00  0.00    -0.358 OA
ATOM     12  HO  UNL     1      10.453   4.886  23.072  1.00  0.00     0.217 HD
ENDBRANCH   4  11
TORSDOF 3
ENDMDL
MODEL 12
REMARK VINA RESULT:    -4.600     11.852     13.459
REMARK INTER + INTRA:          -5.345
REMARK INTER:                  -5.264
REMARK INTRA:                  -0.082
REMARK UNBOUND:                -0.074
REMARK  3 active torsions:
REMARK  status: ('A' for Active; 'I' for Inactive)
REMARK    1  A    between atoms: C_1  and  C_8 
REMARK    2  A    between atoms: C_3  and  O_10 
REMARK    3  A    between atoms: C_4  and  O_11 
ROOT
HETATM    1  C   UNL     1      31.521   8.720  42.878  1.00  0.00     0.004 A 
HETATM    2  C   UNL     1      31.682   8.066  44.027  1.00  0.00     0.054 A 
HETATM    3  C   UNL     1      31.566   8.825  45.346  1.00  0.00     0.102 A 
HETATM    4  C   UNL     1      31.299  10.103  45.315  1.00  0.00     0.099 A 
HETATM    5  C   UNL     1      31.109  10.849  44.003  1.00  0.00     0.040 A 
HETATM    6  C   UNL     1      31.212  10.207  42.867  1.00  0.00     0.017 A 
ENDROOT
BRANCH   1   7
HETATM    7  C   UNL     1      31.630   8.023  41.526  1.00  0.00     0.270 C 
HETATM    8  O   UNL     1      30.861   8.293  40.689  1.00  0.00    -0.301 OA
ENDBRANCH   1   7
BRANCH   3   9
HETATM    9  O   UNL     1      31.709   8.236  46.611  1.00  0.00    -0.353 OA
HETATM   10  C   UNL     1      32.737   7.286  46.724  1.00  0.00     0.210 C 
ENDBRANCH   3   9
BRANCH   4  11
HETATM   11  O   UNL     1      31.179  10.807  46.510  1.00  0.00    -0.358 OA
ATOM     12  HO  UNL     1      31.967  11.016  46.999  1.00  0.00     0.217 HD
ENDBRANCH   4  11
TORSDOF 3
ENDMDL
MODEL 13
REMARK VINA RESULT:    -4.584     15.990     17.733
REMARK INTER + INTRA:          -5.328
REMARK INTER:                  -5.257
REMARK INTRA:                  -0.071
REMARK UNBOUND:                -0.074
REMARK  3 active torsions:
REMARK  status: ('A' for Active; 'I' for Inactive)
REMARK    1  A    between atoms: C_1  and  C_8 
REMARK    2  A    between atoms: C_3  and  O_10 
REMARK    3  A    between atoms: C_4  and  O_11 
ROOT
HETATM    1  C   UNL     1      11.365   2.648  25.201  1.00  0.00     0.004 A 
HETATM    2  C   UNL     1      10.893   1.486  25.650  1.00  0.00     0.054 A 
HETATM    3  C   UNL     1      10.409   0.436  24.653  1.00  0.00     0.102 A 
HETATM    4  C   UNL     1      10.481   0.702  23.376  1.00  0.00     0.099 A 
HETATM    5  C   UNL     1      11.025   2.026  22.863  1.00  0.00     0.040 A 
HETATM    6  C   UNL     1      11.437   2.934  23.711  1.00  0.00     0.017 A 
ENDROOT
BRANCH   1   7
HETATM    7  C   UNL     1      11.858   3.740  26.144  1.00  0.00     0.270 C 
HETATM    8  O   UNL     1      11.574   3.678  27.275  1.00  0.00    -0.301 OA
ENDBRANCH   1   7
BRANCH   3   9
HETATM    9  O   UNL     1       9.902  -0.821  25.013  1.00  0.00    -0.353 OA
HETATM   10  C   UNL     1      10.282  -1.286  26.283  1.00  0.00     0.210 C 
ENDBRANCH   3   9
BRANCH   4  11
HETATM   11  O   UNL     1      10.053  -0.250  22.453  1.00  0.00    -0.358 OA
ATOM     12  HO  UNL     1       9.194  -0.641  22.564  1.00  0.00     0.217 HD
ENDBRANCH   4  11
TORSDOF 3
ENDMDL
MODEL 14
REMARK VINA RESULT:    -4.547      4.312      7.583
REMARK INTER + INTRA:          -5.285
REMARK INTER:                  -5.215
REMARK INTRA:                  -0.071
REMARK UNBOUND:                -0.074
REMARK  3 active torsions:
REMARK  status: ('A' for Active; 'I' for Inactive)
REMARK    1  A    between atoms: C_1  and  C_8 
REMARK    2  A    between atoms: C_3  and  O_10 
REMARK    3  A    between atoms: C_4  and  O_11 
ROOT
HETATM    1  C   UNL     1      25.987  12.716  36.474  1.00  0.00     0.004 A 
HETATM    2  C   UNL     1      26.827  13.468  35.763  1.00  0.00     0.054 A 
HETATM    3  C   UNL     1      28.213  13.779  36.321  1.00  0.00     0.102 A 
HETATM    4  C   UNL     1      28.546  13.288  37.485  1.00  0.00     0.099 A 
HETATM    5  C   UNL     1      27.590  12.426  38.295  1.00  0.00     0.040 A 
HETATM    6  C   UNL     1      26.397  12.159  37.825  1.00  0.00     0.017 A 
ENDROOT
BRANCH   1   7
HETATM    7  C   UNL     1      24.586  12.375  35.976  1.00  0.00     0.270 C 
HETATM    8  O   UNL     1      24.377  12.394  34.828  1.00  0.00    -0.301 OA
ENDBRANCH   1   7
BRANCH   3   9
HETATM    9  O   UNL     1      29.178  14.550  35.657  1.00  0.00    -0.353 OA
HETATM   10  C   UNL     1      29.053  14.602  34.258  1.00  0.00     0.210 C 
ENDBRANCH   3   9
BRANCH   4  11
HETATM   11  O   UNL     1      29.811  13.553  38.003  1.00  0.00    -0.358 OA
ATOM     12  HO  UNL     1      30.451  13.986  37.449  1.00  0.00     0.217 HD
ENDBRANCH   4  11
TORSDOF 3
ENDMDL
MODEL 15
REMARK VINA RESULT:    -4.486      5.036      7.403
REMARK INTER + INTRA:          -5.215
REMARK INTER:                  -5.154
REMARK INTRA:                  -0.061
REMARK UNBOUND:                -0.074
REMARK  3 active torsions:
REMARK  status: ('A' for Active; 'I' for Inactive)
REMARK    1  A    between atoms: C_1  and  C_8 
REMARK    2  A    between atoms: C_3  and  O_10 
REMARK    3  A    between atoms: C_4  and  O_11 
ROOT
HETATM    1  C   UNL     1      29.315  11.852  36.114  1.00  0.00     0.004 A 
HETATM    2  C   UNL     1      28.006  11.943  36.346  1.00  0.00     0.054 A 
HETATM    3  C   UNL     1      27.262  13.218  35.962  1.00  0.00     0.102 A 
HETATM    4  C   UNL     1      27.929  14.191  35.401  1.00  0.00     0.099 A 
HETATM    5  C   UNL     1      29.422  14.086  35.131  1.00  0.00     0.040 A 
HETATM    6  C   UNL     1      30.069  12.998  35.462  1.00  0.00     0.017 A 
ENDROOT
BRANCH   1   7
HETATM    7  C   UNL     1      30.118  10.609  36.480  1.00  0.00     0.270 C 
HETATM    8  O   UNL     1      30.248   9.767  35.681  1.00  0.00    -0.301 OA
ENDBRANCH   1   7
BRANCH   3   9
HETATM    9  O   UNL     1      25.886  13.419  36.153  1.00  0.00    -0.353 OA
HETATM   10  C   UNL     1      25.045  12.706  35.282  1.00  0.00     0.210 C 
ENDBRANCH   3   9
BRANCH   4  11
HETATM   11  O   UNL     1      27.262  15.357  35.035  1.00  0.00    -0.358 OA
ATOM     12  HO  UNL     1      26.591  15.702  35.613  1.00  0.00     0.217 HD
ENDBRANCH   4  11
TORSDOF 3
ENDMDL
MODEL 16
REMARK VINA RESULT:    -4.480      7.068      9.355
REMARK INTER + INTRA:          -5.208
REMARK INTER:                  -5.122
REMARK INTRA:                  -0.086
REMARK UNBOUND:                -0.074
REMARK  3 active torsions:
REMARK  status: ('A' for Active; 'I' for Inactive)
REMARK    1  A    between atoms: C_1  and  C_8 
REMARK    2  A    between atoms: C_3  and  O_10 
REMARK    3  A    between atoms: C_4  and  O_11 
ROOT
HETATM    1  C   UNL     1      28.411  14.426  36.207  1.00  0.00     0.004 A 
HETATM    2  C   UNL     1      29.717  14.167  36.168  1.00  0.00     0.054 A 
HETATM    3  C   UNL     1      30.495  14.030  37.474  1.00  0.00     0.102 A 
HETATM    4  C   UNL     1      29.854  14.160  38.605  1.00  0.00     0.099 A 
HETATM    5  C   UNL     1      28.361  14.450  38.650  1.00  0.00     0.040 A 
HETATM    6  C   UNL     1      27.688  14.574  37.534  1.00  0.00     0.017 A 
ENDROOT
BRANCH   1   7
HETATM    7  C   UNL     1      27.578  14.582  34.940  1.00  0.00     0.270 C 
HETATM    8  O   UNL     1      26.503  14.125  34.913  1.00  0.00    -0.301 OA
ENDBRANCH   1   7
BRANCH   3   9
HETATM    9  O   UNL     1      31.868  13.751  37.551  1.00  0.00    -0.353 OA
HETATM   10  C   UNL     1      32.304  12.648  36.798  1.00  0.00     0.210 C 
ENDBRANCH   3   9
BRANCH   4  11
HETATM   11  O   UNL     1      30.547  14.026  39.805  1.00  0.00    -0.358 OA
ATOM     12  HO  UNL     1      30.070  14.120  40.622  1.00  0.00     0.217 HD
ENDBRANCH   4  11
TORSDOF 3
ENDMDL
MODEL 17
REMARK VINA RESULT:    -4.478      5.445      7.681
REMARK INTER + INTRA:          -5.206
REMARK INTER:                  -5.126
REMARK INTRA:                  -0.080
REMARK UNBOUND:                -0.074
REMARK  3 active torsions:
REMARK  status: ('A' for Active; 'I' for Inactive)
REMARK    1  A    between atoms: C_1  and  C_8 
REMARK    2  A    between atoms: C_3  and  O_10 
REMARK    3  A    between atoms: C_4  and  O_11 
ROOT
HETATM    1  C   UNL     1      28.347  12.997  37.751  1.00  0.00     0.004 A 
HETATM    2  C   UNL     1      27.281  13.159  36.968  1.00  0.00     0.054 A 
HETATM    3  C   UNL     1      27.419  13.945  35.666  1.00  0.00     0.102 A 
HETATM    4  C   UNL     1      28.589  14.432  35.346  1.00  0.00     0.099 A 
HETATM    5  C   UNL     1      29.806  14.242  36.238  1.00  0.00     0.040 A 
HETATM    6  C   UNL     1      29.695  13.574  37.358  1.00  0.00     0.017 A 
ENDROOT
BRANCH   1   7
HETATM    7  C   UNL     1      28.275  12.229  39.067  1.00  0.00     0.270 C 
HETATM    8  O   UNL     1      29.165  12.314  39.818  1.00  0.00    -0.301 OA
ENDBRANCH   1   7
BRANCH   3   9
HETATM    9  O   UNL     1      26.369  14.169  34.764  1.00  0.00    -0.353 OA
HETATM   10  C   UNL     1      25.250  13.334  34.917  1.00  0.00     0.210 C 
ENDBRANCH   3   9
BRANCH   4  11
HETATM   11  O   UNL     1      28.733  15.141  34.157  1.00  0.00    -0.358 OA
ATOM     12  HO  UNL     1      28.702  14.666  33.334  1.00  0.00     0.217 HD
ENDBRANCH   4  11
TORSDOF 3
ENDMDL
MODEL 18
REMARK VINA RESULT:    -4.423      4.472      7.208
REMARK INTER + INTRA:          -5.143
REMARK INTER:                  -5.062
REMARK INTRA:                  -0.081
REMARK UNBOUND:                -0.074
REMARK  3 active torsions:
REMARK  status: ('A' for Active; 'I' for Inactive)
REMARK    1  A    between atoms: C_1  and  C_8 
REMARK    2  A    between atoms: C_3  and  O_10 
REMARK    3  A    between atoms: C_4  and  O_11 
ROOT
HETATM    1  C   UNL     1      26.198  13.016  35.789  1.00  0.00     0.004 A 
HETATM    2  C   UNL     1      26.911  12.369  36.710  1.00  0.00     0.054 A 
HETATM    3  C   UNL     1      28.352  12.793  36.978  1.00  0.00     0.102 A 
HETATM    4  C   UNL     1      28.850  13.793  36.301  1.00  0.00     0.099 A 
HETATM    5  C   UNL     1      28.034  14.536  35.254  1.00  0.00     0.040 A 
HETATM    6  C   UNL     1      26.799  14.175  35.014  1.00  0.00     0.017 A 
ENDROOT
BRANCH   1   7
HETATM    7  C   UNL     1      24.755  12.638  35.469  1.00  0.00     0.270 C 
HETATM    8  O   UNL     1      24.487  12.312  34.381  1.00  0.00    -0.301 OA
ENDBRANCH   1   7
BRANCH   3   9
HETATM    9  O   UNL     1      29.190  12.189  37.927  1.00  0.00    -0.353 OA
HETATM   10  C   UNL     1      28.809  12.363  39.269  1.00  0.00     0.210 C 
ENDBRANCH   3   9
BRANCH   4  11
HETATM   11  O   UNL     1      30.160  14.199  36.542  1.00  0.00    -0.358 OA
ATOM     12  HO  UNL     1      30.350  15.129  36.585  1.00  0.00     0.217 HD
ENDBRANCH   4  11
TORSDOF 3
ENDMDL
