REMARK  5 active torsions:
REMARK  status: ('A' for Active; 'I' for Inactive)
REMARK    1  A    between atoms: N_3  and  C_10 
REMARK    2  A    between atoms: N_3  and  C_14 
REMARK    3  A    between atoms: C_5  and  C_7 
REMARK    4  A    between atoms: C_10  and  C_16 
REMARK    5  A    between atoms: C_17  and  O_25 
ROOT
HETATM    1  N   UNL     1      -0.631  -3.215   3.095  1.00  0.00    -0.326 N 
ATOM      2  HN  UNL     1      -0.696  -3.723   3.977  1.00  0.00     0.169 HD
HETATM    3  C   UNL     1       2.075  -1.981   1.052  1.00  0.00    -0.003 A 
HETATM    4  C   UNL     1       0.573  -2.857   2.594  1.00  0.00     0.091 A 
HETATM    5  C   UNL     1      -1.754  -2.886   2.402  1.00  0.00     0.181 A 
HETATM    6  C   UNL     1      -0.460  -1.794   0.717  1.00  0.00     0.117 A 
HETATM    7  C   UNL     1       2.949  -2.459   2.034  1.00  0.00     0.065 A 
HETATM    8  C   UNL     1       0.715  -2.180   1.394  1.00  0.00     0.053 A 
HETATM    9  N   UNL     1      -1.662  -2.178   1.240  1.00  0.00    -0.318 N 
ATOM     10  HN  UNL     1      -2.518  -1.927   0.746  1.00  0.00     0.170 HD
HETATM   11  S   UNL     1       2.065  -3.172   3.283  1.00  0.00    -0.082 SA
HETATM   12 CL   UNL     1      -3.326  -3.340   3.020  1.00  0.00    -0.045 Cl
ENDROOT
BRANCH   6  13
HETATM   13  N   UNL     1      -0.434  -0.936  -0.434  1.00  0.00    -0.371 N 
HETATM   14  H   UNL     1       0.333  -0.236  -0.533  1.00  0.00     0.161 HD
BRANCH  13  15
HETATM   15  C   UNL     1      -1.580  -0.801  -1.329  1.00  0.00     0.160 C 
BRANCH  15  16
HETATM   16  C   UNL     1      -2.538   0.227  -0.794  1.00  0.00    -0.038 A 
HETATM   17  C   UNL     1      -2.200   1.590  -0.834  1.00  0.00     0.045 A 
HETATM   18  C   UNL     1      -3.074   2.552  -0.314  1.00  0.00     0.066 A 
HETATM   19  C   UNL     1      -4.292   2.152   0.253  1.00  0.00     0.036 A 
HETATM   20  C   UNL     1      -4.631   0.797   0.300  1.00  0.00     0.003 A 
HETATM   21  C   UNL     1      -3.759  -0.163  -0.219  1.00  0.00     0.009 A 
BRANCH  18  22
HETATM   22  O   UNL     1      -2.722   3.899  -0.365  1.00  0.00    -0.361 OA
HETATM   23  H   UNL     1      -3.333   4.619   0.003  1.00  0.00     0.217 HD
ENDBRANCH  18  22
ENDBRANCH  15  16
ENDBRANCH  13  15
ENDBRANCH   6  13
BRANCH   3  24
HETATM   24  C   UNL     1       2.582  -1.473  -0.237  1.00  0.00    -0.024 A 
HETATM   25  C   UNL     1       2.187  -2.074  -1.444  1.00  0.00     0.012 A 
HETATM   26  C   UNL     1       2.685  -1.601  -2.662  1.00  0.00     0.001 A 
HETATM   27  C   UNL     1       3.591  -0.538  -2.682  1.00  0.00     0.000 A 
HETATM   28  C   UNL     1       4.006   0.051  -1.484  1.00  0.00     0.001 A 
HETATM   29  C   UNL     1       3.509  -0.418  -0.264  1.00  0.00     0.012 A 
ENDBRANCH   3  24
TORSDOF 5
