REMARK  14 active torsions:
REMARK  status: ('A' for Active; 'I' for Inactive)
REMARK       I    between atoms: C_3  and  N_26 
REMARK    1  A    between atoms: C_3  and  O_29 
REMARK    2  A    between atoms: C_4  and  O_29 
REMARK    3  A    between atoms: C_5  and  C_6 
REMARK    4  A    between atoms: C_5  and  C_7 
REMARK    5  A    between atoms: C_5  and  N_26 
REMARK    6  A    between atoms: C_6  and  C_14 
REMARK    7  A    between atoms: C_6  and  O_31 
REMARK    8  A    between atoms: C_7  and  C_8 
REMARK    9  A    between atoms: C_14  and  N_27 
REMARK   10  A    between atoms: C_15  and  C_16 
REMARK   11  A    between atoms: C_15  and  N_27 
REMARK   12  A    between atoms: C_17  and  S_35 
REMARK   13  A    between atoms: C_20  and  N_28 
REMARK   14  A    between atoms: N_27  and  S_35 
ROOT
HETATM    1  C   UNL     1       1.283   0.995   0.346  1.00  0.00     0.155 C 
ENDROOT
BRANCH   1   2
HETATM    2  C   UNL     1       1.225  -0.089   1.451  1.00  0.00     0.120 C 
BRANCH   2   3
HETATM    3  C   UNL     1       2.575  -0.817   1.645  1.00  0.00     0.066 C 
BRANCH   3   4
HETATM    4  C   UNL     1       3.007  -1.603   0.430  1.00  0.00    -0.056 A 
HETATM    5  C   UNL     1       2.555  -2.920   0.238  1.00  0.00     0.007 A 
HETATM    6  C   UNL     1       2.964  -3.649  -0.882  1.00  0.00     0.001 A 
HETATM    7  C   UNL     1       3.827  -3.072  -1.817  1.00  0.00     0.000 A 
HETATM    8  C   UNL     1       4.268  -1.757  -1.643  1.00  0.00     0.001 A 
HETATM    9  C   UNL     1       3.861  -1.024  -0.524  1.00  0.00     0.007 A 
ENDBRANCH   3   4
ENDBRANCH   2   3
BRANCH   2  10
HETATM   10  N   UNL     1       0.166  -1.065   1.165  1.00  0.00    -0.329 N 
HETATM   11  C   UNL     1      -0.500  -1.806   2.193  1.00  0.00     0.361 C 
HETATM   12  O   UNL     1      -0.198  -1.627   3.405  1.00  0.00    -0.238 OA
HETATM   13  H   UNL     1      -0.069  -1.290   0.172  1.00  0.00     0.165 HD
BRANCH  11  14
HETATM   14  O   UNL     1      -1.490  -2.726   1.837  1.00  0.00    -0.296 OA
BRANCH  14  15
HETATM   15  C   UNL     1      -2.180  -3.534   2.790  1.00  0.00     0.159 C 
HETATM   16  C   UNL     1      -1.304  -4.655   3.319  1.00  0.00     0.200 C 
HETATM   17  O   UNL     1      -2.102  -5.795   3.543  1.00  0.00    -0.389 OA
HETATM   18  C   UNL     1      -3.353  -5.572   2.931  1.00  0.00     0.170 C 
HETATM   19  C   UNL     1      -3.307  -4.278   2.143  1.00  0.00     0.061 C 
ENDBRANCH  14  15
ENDBRANCH  11  14
ENDBRANCH   2  10
ENDBRANCH   1   2
BRANCH   1  20
HETATM   20  C   UNL     1      -0.040   1.780   0.273  1.00  0.00     0.141 C 
BRANCH  20  21
HETATM   21  N   UNL     1       0.019   2.774  -0.820  1.00  0.00    -0.204 NA
BRANCH  21  22
HETATM   22  C   UNL     1      -0.421   4.127  -0.418  1.00  0.00     0.111 C 
BRANCH  22  23
HETATM   23  C   UNL     1      -1.898   4.199   0.084  1.00  0.00    -0.009 C 
HETATM   24  C   UNL     1      -1.976   4.819   1.486  1.00  0.00     0.011 C 
HETATM   25  C   UNL     1      -2.777   5.002  -0.885  1.00  0.00     0.011 C 
ENDBRANCH  22  23
ENDBRANCH  21  22
BRANCH  21  26
HETATM   26  S   UNL     1      -0.774   2.214  -2.277  1.00  0.00     0.243 S 
HETATM   27  O   UNL     1      -2.213   1.873  -2.004  1.00  0.00    -0.206 OA
HETATM   28  O   UNL     1      -0.730   3.288  -3.329  1.00  0.00    -0.206 OA
BRANCH  26  29
HETATM   29  C   UNL     1       0.052   0.789  -2.900  1.00  0.00     0.074 A 
HETATM   30  C   UNL     1       1.254   0.931  -3.605  1.00  0.00     0.027 A 
HETATM   31  C   UNL     1       1.914  -0.195  -4.105  1.00  0.00     0.030 A 
HETATM   32  C   UNL     1       1.379  -1.475  -3.900  1.00  0.00     0.025 A 
HETATM   33  C   UNL     1       0.190  -1.619  -3.171  1.00  0.00     0.030 A 
HETATM   34  C   UNL     1      -0.471  -0.492  -2.674  1.00  0.00     0.027 A 
BRANCH  32  35
HETATM   35  N   UNL     1       2.037  -2.624  -4.438  1.00  0.00    -0.399 N 
HETATM   36  H   UNL     1       2.924  -2.527  -4.980  1.00  0.00     0.156 HD
HETATM   37  H   UNL     1       1.643  -3.580  -4.294  1.00  0.00     0.156 HD
ENDBRANCH  32  35
ENDBRANCH  26  29
ENDBRANCH  21  26
ENDBRANCH  20  21
ENDBRANCH   1  20
BRANCH   1  38
HETATM   38  O   UNL     1       2.333   1.888   0.622  1.00  0.00    -0.392 OA
HETATM   39  H   UNL     1       2.630   2.265  -0.246  1.00  0.00     0.210 HD
ENDBRANCH   1  38
TORSDOF 14
