REMARK  2 active torsions:
REMARK  status: ('A' for Active; 'I' for Inactive)
REMARK    1  A    between atoms: C_1  and  C_6 
REMARK    2  A    between atoms: C_6  and  C_7 
ROOT
HETATM    1  C   UNK A   2       0.450   0.927   0.331  1.00  0.00     0.181 C 
HETATM    2  O   UNK A   2      -0.653   2.965   0.939  1.00  0.00    -0.271 OA
HETATM    3  C   UNK A   2      -0.567   1.719   1.108  1.00  0.00     0.243 C 
HETATM    4  N   UNK A   2       0.724  -0.366   0.969  1.00  0.00    -0.346 N 
HETATM    5  H   UNK A   2       1.561  -0.904   0.652  1.00  0.00     0.163 HD
ATOM      6  CD  PRO A   1      -2.925   1.380   1.957  1.00  0.00     0.127 C 
ATOM      7  C   PRO A   1      -0.206  -1.022   1.840  1.00  0.00     0.241 C 
ATOM      8  CA  PRO A   1      -1.233  -0.223   2.593  1.00  0.00     0.179 C 
ATOM      9  CB  PRO A   1      -2.591  -0.911   2.700  1.00  0.00     0.037 C 
ATOM     10  CG  PRO A   1      -3.607   0.230   2.693  1.00  0.00     0.022 C 
ATOM     11  N   PRO A   1      -1.513   1.043   1.940  1.00  0.00    -0.337 N 
ATOM     12  O   PRO A   1      -0.083  -2.255   2.065  1.00  0.00    -0.271 OA
ENDROOT
BRANCH   1  13
HETATM   13  C   UNK A   2      -0.066   0.712  -1.102  1.00  0.00     0.075 C 
BRANCH  13  14
HETATM   14  C   UNK A   2       0.947   0.008  -1.958  1.00  0.00    -0.028 A 
HETATM   15  C   UNK A   2       1.060  -1.349  -2.190  1.00  0.00     0.001 A 
HETATM   16  C   UNK A   2       2.176  -1.527  -2.968  1.00  0.00     0.082 A 
HETATM   17  C   UNK A   2       0.282  -2.427  -1.762  1.00  0.00     0.014 A 
HETATM   18  C   UNK A   2       2.587  -2.796  -3.376  1.00  0.00     0.143 A 
HETATM   19  N   UNK A   2       2.773  -0.351  -3.229  1.00  0.00    -0.362 N 
HETATM   20  C   UNK A   2       1.820  -3.902  -2.965  1.00  0.00     0.045 A 
HETATM   21  F   UNK A   2       3.694  -2.963  -4.141  1.00  0.00    -0.204 F 
HETATM   22  C   UNK A   2       0.674  -3.718  -2.160  1.00  0.00     0.004 A 
HETATM   23  C   UNK A   2       2.030   0.593  -2.608  1.00  0.00     0.096 A 
HETATM   24  H   UNK A   2       3.643  -0.194  -3.785  1.00  0.00     0.165 HD
ENDBRANCH  13  14
ENDBRANCH   1  13
TORSDOF 2
