MODEL 1
REMARK VINA RESULT:    -7.193      0.000      0.000
REMARK INTER + INTRA:          -9.366
REMARK INTER:                  -8.875
REMARK INTRA:                  -0.491
REMARK UNBOUND:                -0.491
REMARK  4 active torsions:
REMARK  status: ('A' for Active; 'I' for Inactive)
REMARK    1  A    between atoms: C_3  and  C_4 
REMARK    2  A    between atoms: C_7  and  S_9 
REMARK    3  A    between atoms: S_9  and  N_19 
REMARK    4  A    between atoms: C_14  and  C_15 
ROOT
HETATM    1  C   UNK A   1      21.481  41.455 -18.561  1.00  0.00     0.108 C 
HETATM    2  C   UNK A   1      20.955  42.674 -17.821  1.00  0.00     0.025 C 
HETATM    3  C   UNK A   1      22.022  43.233 -16.893  1.00  0.00     0.021 C 
HETATM    4  N   UNK A   1      22.707  41.743 -19.318  1.00  0.00    -0.206 NA
HETATM    5  C   UNK A   1      23.775  42.278 -18.449  1.00  0.00     0.108 C 
HETATM    6  C   UNK A   1      23.290  43.520 -17.687  1.00  0.00     0.025 C 
ENDROOT
BRANCH   4   7
HETATM    7  S   UNK A   1      23.172  40.533 -20.319  1.00  0.00     0.245 S 
HETATM    8  O   UNK A   1      22.132  39.552 -20.248  1.00  0.00    -0.206 OA
HETATM    9  O   UNK A   1      23.495  41.141 -21.570  1.00  0.00    -0.206 OA
BRANCH   7  10
HETATM   10  C   UNK A   1      24.634  39.749 -19.737  1.00  0.00     0.090 A 
HETATM   11  C   UNK A   1      24.586  38.819 -18.716  1.00  0.00     0.113 A 
HETATM   12  N   UNK A   1      25.672  38.287 -18.169  1.00  0.00    -0.362 N 
HETATM   13  C   UNK A   1      26.870  38.641 -18.667  1.00  0.00     0.070 A 
ATOM     14  HN  UNK A   1      25.600  37.628 -17.394  1.00  0.00     0.165 HD
HETATM   15  C   UNK A   1      27.008  39.551 -19.707  1.00  0.00     0.034 A 
HETATM   16  C   UNK A   1      25.867  40.119 -20.237  1.00  0.00     0.028 A 
BRANCH  13  17
HETATM   17  C   UNK A   1      28.091  37.944 -18.145  1.00  0.00     0.287 C 
HETATM   18  O   UNK A   1      28.062  36.786 -17.767  1.00  0.00    -0.300 OA
ENDBRANCH  13  17
ENDBRANCH   7  10
ENDBRANCH   4   7
BRANCH   3  19
HETATM   19  C   UNK A   1      21.501  44.438 -16.124  1.00  0.00    -0.054 A 
HETATM   20  C   UNK A   1      21.245  45.641 -16.759  1.00  0.00     0.009 A 
HETATM   21  C   UNK A   1      20.806  46.738 -16.049  1.00  0.00     0.024 A 
HETATM   22  C   UNK A   1      20.608  46.608 -14.713  1.00  0.00     0.034 A 
HETATM   23  C   UNK A   1      20.796  45.436 -14.060  1.00  0.00     0.024 A 
HETATM   24 CL   UNK A   1      20.213  48.004 -13.788  1.00  0.00    -0.084 Cl
HETATM   25  C   UNK A   1      21.263  44.349 -14.768  1.00  0.00     0.009 A 
ENDBRANCH   3  19
TORSDOF 4
ENDMDL
MODEL 2
REMARK VINA RESULT:    -6.487      2.721      4.670
REMARK INTER + INTRA:          -8.494
REMARK INTER:                  -7.971
REMARK INTRA:                  -0.523
REMARK UNBOUND:                -0.491
REMARK  4 active torsions:
REMARK  status: ('A' for Active; 'I' for Inactive)
REMARK    1  A    between atoms: C_3  and  C_4 
REMARK    2  A    between atoms: C_7  and  S_9 
REMARK    3  A    between atoms: S_9  and  N_19 
REMARK    4  A    between atoms: C_14  and  C_15 
ROOT
HETATM    1  C   UNK A   1      21.397  41.553 -18.605  1.00  0.00     0.108 C 
HETATM    2  C   UNK A   1      20.898  42.783 -17.864  1.00  0.00     0.025 C 
HETATM    3  C   UNK A   1      21.943  43.262 -16.868  1.00  0.00     0.021 C 
HETATM    4  N   UNK A   1      22.675  41.789 -19.290  1.00  0.00    -0.206 NA
HETATM    5  C   UNK A   1      23.723  42.245 -18.354  1.00  0.00     0.108 C 
HETATM    6  C   UNK A   1      23.266  43.495 -17.588  1.00  0.00     0.025 C 
ENDROOT
BRANCH   4   7
HETATM    7  S   UNK A   1      23.126  40.577 -20.295  1.00  0.00     0.245 S 
HETATM    8  O   UNK A   1      23.939  41.192 -21.300  1.00  0.00    -0.206 OA
HETATM    9  O   UNK A   1      23.670  39.546 -19.470  1.00  0.00    -0.206 OA
BRANCH   7  10
HETATM   10  C   UNK A   1      21.740  39.889 -21.129  1.00  0.00     0.090 A 
HETATM   11  C   UNK A   1      21.107  40.578 -22.146  1.00  0.00     0.113 A 
HETATM   12  N   UNK A   1      19.992  40.149 -22.727  1.00  0.00    -0.362 N 
HETATM   13  C   UNK A   1      19.486  38.968 -22.332  1.00  0.00     0.070 A 
ATOM     14  HN  UNK A   1      19.534  40.701 -23.452  1.00  0.00     0.165 HD
HETATM   15  C   UNK A   1      20.072  38.201 -21.332  1.00  0.00     0.034 A 
HETATM   16  C   UNK A   1      21.210  38.682 -20.718  1.00  0.00     0.028 A 
BRANCH  13  17
HETATM   17  C   UNK A   1      18.306  38.416 -23.074  1.00  0.00     0.287 C 
HETATM   18  O   UNK A   1      17.651  39.096 -23.844  1.00  0.00    -0.300 OA
ENDBRANCH  13  17
ENDBRANCH   7  10
ENDBRANCH   4   7
BRANCH   3  19
HETATM   19  C   UNK A   1      21.448  44.477 -16.099  1.00  0.00    -0.054 A 
HETATM   20  C   UNK A   1      21.187  45.677 -16.738  1.00  0.00     0.009 A 
HETATM   21  C   UNK A   1      20.773  46.783 -16.027  1.00  0.00     0.024 A 
HETATM   22  C   UNK A   1      20.603  46.666 -14.687  1.00  0.00     0.034 A 
HETATM   23  C   UNK A   1      20.797  45.498 -14.028  1.00  0.00     0.024 A 
HETATM   24 CL   UNK A   1      20.239  48.072 -13.766  1.00  0.00    -0.084 Cl
HETATM   25  C   UNK A   1      21.239  44.401 -14.737  1.00  0.00     0.009 A 
ENDBRANCH   3  19
TORSDOF 4
ENDMDL
MODEL 3
REMARK VINA RESULT:    -6.479      2.756      3.921
REMARK INTER + INTRA:          -8.485
REMARK INTER:                  -7.907
REMARK INTRA:                  -0.577
REMARK UNBOUND:                -0.491
REMARK  4 active torsions:
REMARK  status: ('A' for Active; 'I' for Inactive)
REMARK    1  A    between atoms: C_3  and  C_4 
REMARK    2  A    between atoms: C_7  and  S_9 
REMARK    3  A    between atoms: S_9  and  N_19 
REMARK    4  A    between atoms: C_14  and  C_15 
ROOT
HETATM    1  C   UNK A   1      20.860  41.621 -18.801  1.00  0.00     0.108 C 
HETATM    2  C   UNK A   1      20.540  42.869 -17.995  1.00  0.00     0.025 C 
HETATM    3  C   UNK A   1      21.649  43.152 -16.993  1.00  0.00     0.021 C 
HETATM    4  N   UNK A   1      22.153  41.714 -19.492  1.00  0.00    -0.206 NA
HETATM    5  C   UNK A   1      23.261  41.976 -18.551  1.00  0.00     0.108 C 
HETATM    6  C   UNK A   1      22.985  43.238 -17.720  1.00  0.00     0.025 C 
ENDROOT
BRANCH   4   7
HETATM    7  S   UNK A   1      22.426  40.503 -20.560  1.00  0.00     0.245 S 
HETATM    8  O   UNK A   1      23.334  39.609 -19.906  1.00  0.00    -0.206 OA
HETATM    9  O   UNK A   1      21.145  40.035 -20.983  1.00  0.00    -0.206 OA
BRANCH   7  10
HETATM   10  C   UNK A   1      23.257  41.090 -21.994  1.00  0.00     0.090 A 
HETATM   11  C   UNK A   1      24.030  40.245 -22.766  1.00  0.00     0.113 A 
HETATM   12  N   UNK A   1      24.764  40.666 -23.789  1.00  0.00    -0.362 N 
HETATM   13  C   UNK A   1      24.713  41.971 -24.110  1.00  0.00     0.070 A 
ATOM     14  HN  UNK A   1      25.350  40.019 -24.316  1.00  0.00     0.165 HD
HETATM   15  C   UNK A   1      23.943  42.885 -23.402  1.00  0.00     0.034 A 
HETATM   16  C   UNK A   1      23.216  42.431 -22.320  1.00  0.00     0.028 A 
BRANCH  13  17
HETATM   17  C   UNK A   1      25.432  42.428 -25.344  1.00  0.00     0.287 C 
HETATM   18  O   UNK A   1      26.618  42.704 -25.337  1.00  0.00    -0.300 OA
ENDBRANCH  13  17
ENDBRANCH   7  10
ENDBRANCH   4   7
BRANCH   3  19
HETATM   19  C   UNK A   1      21.331  44.384 -16.159  1.00  0.00    -0.054 A 
HETATM   20  C   UNK A   1      21.183  44.305 -14.784  1.00  0.00     0.009 A 
HETATM   21  C   UNK A   1      20.861  45.420 -14.041  1.00  0.00     0.024 A 
HETATM   22  C   UNK A   1      20.712  46.605 -14.683  1.00  0.00     0.034 A 
HETATM   23  C   UNK A   1      20.898  46.739 -16.018  1.00  0.00     0.024 A 
HETATM   24 CL   UNK A   1      20.158  47.971 -13.795  1.00  0.00    -0.084 Cl
HETATM   25  C   UNK A   1      21.192  45.617 -16.763  1.00  0.00     0.009 A 
ENDBRANCH   3  19
TORSDOF 4
ENDMDL
MODEL 4
REMARK VINA RESULT:    -6.378      5.286      8.341
REMARK INTER + INTRA:          -8.360
REMARK INTER:                  -7.816
REMARK INTRA:                  -0.544
REMARK UNBOUND:                -0.491
REMARK  4 active torsions:
REMARK  status: ('A' for Active; 'I' for Inactive)
REMARK    1  A    between atoms: C_3  and  C_4 
REMARK    2  A    between atoms: C_7  and  S_9 
REMARK    3  A    between atoms: S_9  and  N_19 
REMARK    4  A    between atoms: C_14  and  C_15 
ROOT
HETATM    1  C   UNK A   1      26.144  42.399 -20.221  1.00  0.00     0.108 C 
HETATM    2  C   UNK A   1      26.760  43.378 -21.208  1.00  0.00     0.025 C 
HETATM    3  C   UNK A   1      26.409  42.984 -22.634  1.00  0.00     0.021 C 
HETATM    4  N   UNK A   1      24.687  42.293 -20.370  1.00  0.00    -0.206 NA
HETATM    5  C   UNK A   1      24.303  41.900 -21.742  1.00  0.00     0.108 C 
HETATM    6  C   UNK A   1      24.897  42.868 -22.775  1.00  0.00     0.025 C 
ENDROOT
BRANCH   4   7
HETATM    7  S   UNK A   1      23.954  41.442 -19.178  1.00  0.00     0.245 S 
HETATM    8  O   UNK A   1      22.954  40.651 -19.827  1.00  0.00    -0.206 OA
HETATM    9  O   UNK A   1      24.994  40.807 -18.433  1.00  0.00    -0.206 OA
BRANCH   7  10
HETATM   10  C   UNK A   1      23.102  42.504 -18.066  1.00  0.00     0.090 A 
HETATM   11  C   UNK A   1      23.782  43.449 -17.321  1.00  0.00     0.113 A 
HETATM   12  N   UNK A   1      23.198  44.193 -16.388  1.00  0.00    -0.362 N 
HETATM   13  C   UNK A   1      21.876  44.046 -16.196  1.00  0.00     0.070 A 
ATOM     14  HN  UNK A   1      23.738  44.857 -15.834  1.00  0.00     0.165 HD
HETATM   15  C   UNK A   1      21.113  43.136 -16.918  1.00  0.00     0.034 A 
HETATM   16  C   UNK A   1      21.746  42.348 -17.857  1.00  0.00     0.028 A 
BRANCH  13  17
HETATM   17  C   UNK A   1      21.188  44.976 -15.242  1.00  0.00     0.287 C 
HETATM   18  O   UNK A   1      20.754  44.596 -14.169  1.00  0.00    -0.300 OA
ENDBRANCH  13  17
ENDBRANCH   7  10
ENDBRANCH   4   7
BRANCH   3  19
HETATM   19  C   UNK A   1      27.041  43.938 -23.636  1.00  0.00    -0.054 A 
HETATM   20  C   UNK A   1      27.630  45.124 -23.228  1.00  0.00     0.009 A 
HETATM   21  C   UNK A   1      28.169  45.999 -24.146  1.00  0.00     0.024 A 
HETATM   22  C   UNK A   1      28.132  45.664 -25.460  1.00  0.00     0.034 A 
HETATM   23  C   UNK A   1      27.613  44.492 -25.898  1.00  0.00     0.024 A 
HETATM   24 CL   UNK A   1      28.658  46.812 -26.629  1.00  0.00    -0.084 Cl
HETATM   25  C   UNK A   1      27.048  43.632 -24.981  1.00  0.00     0.009 A 
ENDBRANCH   3  19
TORSDOF 4
ENDMDL
MODEL 5
REMARK VINA RESULT:    -6.338      3.745      4.767
REMARK INTER + INTRA:          -8.310
REMARK INTER:                  -7.777
REMARK INTRA:                  -0.533
REMARK UNBOUND:                -0.491
REMARK  4 active torsions:
REMARK  status: ('A' for Active; 'I' for Inactive)
REMARK    1  A    between atoms: C_3  and  C_4 
REMARK    2  A    between atoms: C_7  and  S_9 
REMARK    3  A    between atoms: S_9  and  N_19 
REMARK    4  A    between atoms: C_14  and  C_15 
ROOT
HETATM    1  C   UNK A   1      23.329  38.956 -19.948  1.00  0.00     0.108 C 
HETATM    2  C   UNK A   1      23.311  40.016 -18.858  1.00  0.00     0.025 C 
HETATM    3  C   UNK A   1      22.428  41.184 -19.268  1.00  0.00     0.021 C 
HETATM    4  N   UNK A   1      21.982  38.475 -20.286  1.00  0.00    -0.206 NA
HETATM    5  C   UNK A   1      21.094  39.580 -20.702  1.00  0.00     0.108 C 
HETATM    6  C   UNK A   1      21.037  40.672 -19.624  1.00  0.00     0.025 C 
ENDROOT
BRANCH   4   7
HETATM    7  S   UNK A   1      21.969  37.170 -21.275  1.00  0.00     0.245 S 
HETATM    8  O   UNK A   1      20.656  37.128 -21.842  1.00  0.00    -0.206 OA
HETATM    9  O   UNK A   1      23.110  37.291 -22.125  1.00  0.00    -0.206 OA
BRANCH   7  10
HETATM   10  C   UNK A   1      22.165  35.678 -20.365  1.00  0.00     0.090 A 
HETATM   11  C   UNK A   1      23.397  35.306 -19.862  1.00  0.00     0.113 A 
HETATM   12  N   UNK A   1      23.615  34.138 -19.269  1.00  0.00    -0.362 N 
HETATM   13  C   UNK A   1      22.574  33.302 -19.115  1.00  0.00     0.070 A 
ATOM     14  HN  UNK A   1      24.546  33.883 -18.939  1.00  0.00     0.165 HD
HETATM   15  C   UNK A   1      21.297  33.606 -19.571  1.00  0.00     0.034 A 
HETATM   16  C   UNK A   1      21.101  34.811 -20.216  1.00  0.00     0.028 A 
BRANCH  13  17
HETATM   17  C   UNK A   1      22.783  32.043 -18.329  1.00  0.00     0.287 C 
HETATM   18  O   UNK A   1      23.218  32.056 -17.191  1.00  0.00    -0.300 OA
ENDBRANCH  13  17
ENDBRANCH   7  10
ENDBRANCH   4   7
BRANCH   3  19
HETATM   19  C   UNK A   1      22.421  42.265 -18.199  1.00  0.00    -0.054 A 
HETATM   20  C   UNK A   1      23.576  42.951 -17.861  1.00  0.00     0.009 A 
HETATM   21  C   UNK A   1      23.568  43.905 -16.866  1.00  0.00     0.024 A 
HETATM   22  C   UNK A   1      22.397  44.177 -16.238  1.00  0.00     0.034 A 
HETATM   23  C   UNK A   1      21.234  43.568 -16.571  1.00  0.00     0.024 A 
HETATM   24 CL   UNK A   1      22.401  45.248 -14.892  1.00  0.00    -0.084 Cl
HETATM   25  C   UNK A   1      21.250  42.593 -17.546  1.00  0.00     0.009 A 
ENDBRANCH   3  19
TORSDOF 4
ENDMDL
MODEL 6
REMARK VINA RESULT:    -6.331      6.051      8.766
REMARK INTER + INTRA:          -8.301
REMARK INTER:                  -7.768
REMARK INTRA:                  -0.534
REMARK UNBOUND:                -0.491
REMARK  4 active torsions:
REMARK  status: ('A' for Active; 'I' for Inactive)
REMARK    1  A    between atoms: C_3  and  C_4 
REMARK    2  A    between atoms: C_7  and  S_9 
REMARK    3  A    between atoms: S_9  and  N_19 
REMARK    4  A    between atoms: C_14  and  C_15 
ROOT
HETATM    1  C   UNK A   1      27.670  44.928 -19.736  1.00  0.00     0.108 C 
HETATM    2  C   UNK A   1      27.781  45.596 -21.097  1.00  0.00     0.025 C 
HETATM    3  C   UNK A   1      28.194  44.583 -22.154  1.00  0.00     0.021 C 
HETATM    4  N   UNK A   1      26.735  43.795 -19.741  1.00  0.00    -0.206 NA
HETATM    5  C   UNK A   1      27.108  42.780 -20.747  1.00  0.00     0.108 C 
HETATM    6  C   UNK A   1      27.222  43.409 -22.143  1.00  0.00     0.025 C 
ENDROOT
BRANCH   4   7
HETATM    7  S   UNK A   1      26.400  43.201 -18.252  1.00  0.00     0.245 S 
HETATM    8  O   UNK A   1      26.976  41.891 -18.221  1.00  0.00    -0.206 OA
HETATM    9  O   UNK A   1      26.825  44.190 -17.314  1.00  0.00    -0.206 OA
BRANCH   7  10
HETATM   10  C   UNK A   1      24.670  42.987 -18.023  1.00  0.00     0.090 A 
HETATM   11  C   UNK A   1      23.947  42.124 -18.823  1.00  0.00     0.113 A 
HETATM   12  N   UNK A   1      22.625  42.015 -18.762  1.00  0.00    -0.362 N 
HETATM   13  C   UNK A   1      21.971  42.750 -17.847  1.00  0.00     0.070 A 
ATOM     14  HN  UNK A   1      22.121  41.391 -19.392  1.00  0.00     0.165 HD
HETATM   15  C   UNK A   1      22.622  43.626 -16.987  1.00  0.00     0.034 A 
HETATM   16  C   UNK A   1      23.993  43.749 -17.092  1.00  0.00     0.028 A 
BRANCH  13  17
HETATM   17  C   UNK A   1      20.496  42.533 -17.682  1.00  0.00     0.287 C 
HETATM   18  O   UNK A   1      19.685  42.970 -18.478  1.00  0.00    -0.300 OA
ENDBRANCH  13  17
ENDBRANCH   7  10
ENDBRANCH   4   7
BRANCH   3  19
HETATM   19  C   UNK A   1      28.336  45.242 -23.517  1.00  0.00    -0.054 A 
HETATM   20  C   UNK A   1      27.244  45.791 -24.168  1.00  0.00     0.009 A 
HETATM   21  C   UNK A   1      27.376  46.355 -25.419  1.00  0.00     0.024 A 
HETATM   22  C   UNK A   1      28.605  46.382 -25.992  1.00  0.00     0.034 A 
HETATM   23  C   UNK A   1      29.708  45.903 -25.370  1.00  0.00     0.024 A 
HETATM   24 CL   UNK A   1      28.758  46.938 -27.613  1.00  0.00    -0.084 Cl
HETATM   25  C   UNK A   1      29.569  45.313 -24.131  1.00  0.00     0.009 A 
ENDBRANCH   3  19
TORSDOF 4
ENDMDL
MODEL 7
REMARK VINA RESULT:    -6.251      2.382      3.619
REMARK INTER + INTRA:          -8.203
REMARK INTER:                  -8.196
REMARK INTRA:                  -0.007
REMARK UNBOUND:                -0.491
REMARK  4 active torsions:
REMARK  status: ('A' for Active; 'I' for Inactive)
REMARK    1  A    between atoms: C_3  and  C_4 
REMARK    2  A    between atoms: C_7  and  S_9 
REMARK    3  A    between atoms: S_9  and  N_19 
REMARK    4  A    between atoms: C_14  and  C_15 
ROOT
HETATM    1  C   UNK A   1      24.367  42.546 -18.421  1.00  0.00     0.108 C 
HETATM    2  C   UNK A   1      23.783  43.478 -17.372  1.00  0.00     0.025 C 
HETATM    3  C   UNK A   1      22.303  43.710 -17.633  1.00  0.00     0.021 C 
HETATM    4  N   UNK A   1      23.659  41.260 -18.486  1.00  0.00    -0.206 NA
HETATM    5  C   UNK A   1      22.217  41.441 -18.751  1.00  0.00     0.108 C 
HETATM    6  C   UNK A   1      21.581  42.370 -17.707  1.00  0.00     0.025 C 
ENDROOT
BRANCH   4   7
HETATM    7  S   UNK A   1      24.398  40.139 -19.424  1.00  0.00     0.245 S 
HETATM    8  O   UNK A   1      24.741  40.817 -20.638  1.00  0.00    -0.206 OA
HETATM    9  O   UNK A   1      25.422  39.549 -18.623  1.00  0.00    -0.206 OA
BRANCH   7  10
HETATM   10  C   UNK A   1      23.290  38.850 -19.873  1.00  0.00     0.090 A 
HETATM   11  C   UNK A   1      22.156  39.112 -20.618  1.00  0.00     0.113 A 
HETATM   12  N   UNK A   1      21.235  38.193 -20.883  1.00  0.00    -0.362 N 
HETATM   13  C   UNK A   1      21.443  36.941 -20.440  1.00  0.00     0.070 A 
ATOM     14  HN  UNK A   1      20.393  38.431 -21.408  1.00  0.00     0.165 HD
HETATM   15  C   UNK A   1      22.567  36.586 -19.704  1.00  0.00     0.034 A 
HETATM   16  C   UNK A   1      23.494  37.566 -19.410  1.00  0.00     0.028 A 
BRANCH  13  17
HETATM   17  C   UNK A   1      20.476  35.872 -20.850  1.00  0.00     0.287 C 
HETATM   18  O   UNK A   1      20.042  35.054 -20.058  1.00  0.00    -0.300 OA
ENDBRANCH  13  17
ENDBRANCH   7  10
ENDBRANCH   4   7
BRANCH   3  19
HETATM   19  C   UNK A   1      21.710  44.663 -16.606  1.00  0.00    -0.054 A 
HETATM   20  C   UNK A   1      21.092  45.841 -16.990  1.00  0.00     0.009 A 
HETATM   21  C   UNK A   1      20.588  46.716 -16.052  1.00  0.00     0.024 A 
HETATM   22  C   UNK A   1      20.690  46.388 -14.740  1.00  0.00     0.034 A 
HETATM   23  C   UNK A   1      21.240  45.223 -14.322  1.00  0.00     0.024 A 
HETATM   24 CL   UNK A   1      20.209  47.536 -13.552  1.00  0.00    -0.084 Cl
HETATM   25  C   UNK A   1      21.769  44.363 -15.261  1.00  0.00     0.009 A 
ENDBRANCH   3  19
TORSDOF 4
ENDMDL
MODEL 8
REMARK VINA RESULT:    -6.161      4.004      5.287
REMARK INTER + INTRA:          -8.092
REMARK INTER:                  -7.510
REMARK INTRA:                  -0.582
REMARK UNBOUND:                -0.491
REMARK  4 active torsions:
REMARK  status: ('A' for Active; 'I' for Inactive)
REMARK    1  A    between atoms: C_3  and  C_4 
REMARK    2  A    between atoms: C_7  and  S_9 
REMARK    3  A    between atoms: S_9  and  N_19 
REMARK    4  A    between atoms: C_14  and  C_15 
ROOT
HETATM    1  C   UNK A   1      24.307  39.504 -20.102  1.00  0.00     0.108 C 
HETATM    2  C   UNK A   1      24.046  40.493 -18.977  1.00  0.00     0.025 C 
HETATM    3  C   UNK A   1      22.800  41.313 -19.271  1.00  0.00     0.021 C 
HETATM    4  N   UNK A   1      23.164  38.615 -20.345  1.00  0.00    -0.206 NA
HETATM    5  C   UNK A   1      21.933  39.373 -20.647  1.00  0.00     0.108 C 
HETATM    6  C   UNK A   1      21.623  40.380 -19.530  1.00  0.00     0.025 C 
ENDROOT
BRANCH   4   7
HETATM    7  S   UNK A   1      23.485  37.382 -21.374  1.00  0.00     0.245 S 
HETATM    8  O   UNK A   1      23.111  37.856 -22.672  1.00  0.00    -0.206 OA
HETATM    9  O   UNK A   1      24.832  36.981 -21.122  1.00  0.00    -0.206 OA
BRANCH   7  10
HETATM   10  C   UNK A   1      22.464  35.990 -21.043  1.00  0.00     0.090 A 
HETATM   11  C   UNK A   1      21.721  35.396 -22.045  1.00  0.00     0.113 A 
HETATM   12  N   UNK A   1      20.852  34.417 -21.820  1.00  0.00    -0.362 N 
HETATM   13  C   UNK A   1      20.728  33.957 -20.563  1.00  0.00     0.070 A 
ATOM     14  HN  UNK A   1      20.296  34.025 -22.580  1.00  0.00     0.165 HD
HETATM   15  C   UNK A   1      21.454  34.481 -19.500  1.00  0.00     0.034 A 
HETATM   16  C   UNK A   1      22.324  35.522 -19.751  1.00  0.00     0.028 A 
BRANCH  13  17
HETATM   17  C   UNK A   1      19.851  32.765 -20.326  1.00  0.00     0.287 C 
HETATM   18  O   UNK A   1      18.650  32.869 -20.154  1.00  0.00    -0.300 OA
ENDBRANCH  13  17
ENDBRANCH   7  10
ENDBRANCH   4   7
BRANCH   3  19
HETATM   19  C   UNK A   1      22.540  42.327 -18.167  1.00  0.00    -0.054 A 
HETATM   20  C   UNK A   1      23.554  43.130 -17.673  1.00  0.00     0.009 A 
HETATM   21  C   UNK A   1      23.317  44.021 -16.648  1.00  0.00     0.024 A 
HETATM   22  C   UNK A   1      22.060  44.112 -16.147  1.00  0.00     0.034 A 
HETATM   23  C   UNK A   1      21.028  43.384 -16.634  1.00  0.00     0.024 A 
HETATM   24 CL   UNK A   1      21.782  45.102 -14.767  1.00  0.00    -0.084 Cl
HETATM   25  C   UNK A   1      21.273  42.473 -17.639  1.00  0.00     0.009 A 
ENDBRANCH   3  19
TORSDOF 4
ENDMDL
MODEL 9
REMARK VINA RESULT:    -6.161      5.227      8.212
REMARK INTER + INTRA:          -8.092
REMARK INTER:                  -7.521
REMARK INTRA:                  -0.572
REMARK UNBOUND:                -0.491
REMARK  4 active torsions:
REMARK  status: ('A' for Active; 'I' for Inactive)
REMARK    1  A    between atoms: C_3  and  C_4 
REMARK    2  A    between atoms: C_7  and  S_9 
REMARK    3  A    between atoms: S_9  and  N_19 
REMARK    4  A    between atoms: C_14  and  C_15 
ROOT
HETATM    1  C   UNK A   1      25.417  41.995 -20.701  1.00  0.00     0.108 C 
HETATM    2  C   UNK A   1      26.091  42.964 -21.660  1.00  0.00     0.025 C 
HETATM    3  C   UNK A   1      25.525  42.802 -23.062  1.00  0.00     0.021 C 
HETATM    4  N   UNK A   1      23.957  42.154 -20.676  1.00  0.00    -0.206 NA
HETATM    5  C   UNK A   1      23.365  41.992 -22.020  1.00  0.00     0.108 C 
HETATM    6  C   UNK A   1      24.009  42.960 -23.022  1.00  0.00     0.025 C 
ENDROOT
BRANCH   4   7
HETATM    7  S   UNK A   1      23.214  41.306 -19.488  1.00  0.00     0.245 S 
HETATM    8  O   UNK A   1      22.010  40.797 -20.071  1.00  0.00    -0.206 OA
HETATM    9  O   UNK A   1      24.188  40.405 -18.961  1.00  0.00    -0.206 OA
BRANCH   7  10
HETATM   10  C   UNK A   1      22.720  42.356 -18.167  1.00  0.00     0.090 A 
HETATM   11  C   UNK A   1      21.406  42.394 -17.741  1.00  0.00     0.113 A 
HETATM   12  N   UNK A   1      20.965  43.250 -16.827  1.00  0.00    -0.362 N 
HETATM   13  C   UNK A   1      21.854  44.087 -16.262  1.00  0.00     0.070 A 
ATOM     14  HN  UNK A   1      19.981  43.273 -16.561  1.00  0.00     0.165 HD
HETATM   15  C   UNK A   1      23.198  44.099 -16.615  1.00  0.00     0.034 A 
HETATM   16  C   UNK A   1      23.626  43.225 -17.593  1.00  0.00     0.028 A 
BRANCH  13  17
HETATM   17  C   UNK A   1      21.390  44.961 -15.136  1.00  0.00     0.287 C 
HETATM   18  O   UNK A   1      20.763  44.519 -14.190  1.00  0.00    -0.300 OA
ENDBRANCH  13  17
ENDBRANCH   7  10
ENDBRANCH   4   7
BRANCH   3  19
HETATM   19  C   UNK A   1      26.208  43.746 -24.039  1.00  0.00    -0.054 A 
HETATM   20  C   UNK A   1      27.519  43.545 -24.438  1.00  0.00     0.009 A 
HETATM   21  C   UNK A   1      28.141  44.425 -25.297  1.00  0.00     0.024 A 
HETATM   22  C   UNK A   1      27.434  45.484 -25.764  1.00  0.00     0.034 A 
HETATM   23  C   UNK A   1      26.135  45.691 -25.442  1.00  0.00     0.024 A 
HETATM   24 CL   UNK A   1      28.241  46.674 -26.709  1.00  0.00    -0.084 Cl
HETATM   25  C   UNK A   1      25.524  44.826 -24.560  1.00  0.00     0.009 A 
ENDBRANCH   3  19
TORSDOF 4
ENDMDL
MODEL 10
REMARK VINA RESULT:    -6.067      3.139      4.103
REMARK INTER + INTRA:          -7.976
REMARK INTER:                  -7.410
REMARK INTRA:                  -0.567
REMARK UNBOUND:                -0.491
REMARK  4 active torsions:
REMARK  status: ('A' for Active; 'I' for Inactive)
REMARK    1  A    between atoms: C_3  and  C_4 
REMARK    2  A    between atoms: C_7  and  S_9 
REMARK    3  A    between atoms: S_9  and  N_19 
REMARK    4  A    between atoms: C_14  and  C_15 
ROOT
HETATM    1  C   UNK A   1      25.491  40.483 -19.998  1.00  0.00     0.108 C 
HETATM    2  C   UNK A   1      24.906  41.373 -18.913  1.00  0.00     0.025 C 
HETATM    3  C   UNK A   1      23.404  41.522 -19.102  1.00  0.00     0.021 C 
HETATM    4  N   UNK A   1      24.854  39.159 -20.042  1.00  0.00    -0.206 NA
HETATM    5  C   UNK A   1      23.393  39.260 -20.238  1.00  0.00     0.108 C 
HETATM    6  C   UNK A   1      22.757  40.144 -19.156  1.00  0.00     0.025 C 
ENDROOT
BRANCH   4   7
HETATM    7  S   UNK A   1      25.610  38.089 -21.025  1.00  0.00     0.245 S 
HETATM    8  O   UNK A   1      24.842  38.064 -22.233  1.00  0.00    -0.206 OA
HETATM    9  O   UNK A   1      26.985  38.471 -21.062  1.00  0.00    -0.206 OA
BRANCH   7  10
HETATM   10  C   UNK A   1      25.548  36.461 -20.365  1.00  0.00     0.090 A 
HETATM   11  C   UNK A   1      26.603  35.947 -19.636  1.00  0.00     0.113 A 
HETATM   12  N   UNK A   1      26.648  34.688 -19.216  1.00  0.00    -0.362 N 
HETATM   13  C   UNK A   1      25.594  33.895 -19.477  1.00  0.00     0.070 A 
ATOM     14  HN  UNK A   1      27.459  34.333 -18.709  1.00  0.00     0.165 HD
HETATM   15  C   UNK A   1      24.482  34.338 -20.183  1.00  0.00     0.034 A 
HETATM   16  C   UNK A   1      24.473  35.640 -20.641  1.00  0.00     0.028 A 
BRANCH  13  17
HETATM   17  C   UNK A   1      25.580  32.515 -18.890  1.00  0.00     0.287 C 
HETATM   18  O   UNK A   1      24.544  31.900 -18.709  1.00  0.00    -0.300 OA
ENDBRANCH  13  17
ENDBRANCH   7  10
ENDBRANCH   4   7
BRANCH   3  19
HETATM   19  C   UNK A   1      22.808  42.433 -18.040  1.00  0.00    -0.054 A 
HETATM   20  C   UNK A   1      23.587  43.352 -17.359  1.00  0.00     0.009 A 
HETATM   21  C   UNK A   1      23.045  44.149 -16.374  1.00  0.00     0.024 A 
HETATM   22  C   UNK A   1      21.723  44.030 -16.099  1.00  0.00     0.034 A 
HETATM   23  C   UNK A   1      20.912  43.182 -16.775  1.00  0.00     0.024 A 
HETATM   24 CL   UNK A   1      21.065  44.902 -14.769  1.00  0.00    -0.084 Cl
HETATM   25  C   UNK A   1      21.462  42.365 -17.740  1.00  0.00     0.009 A 
ENDBRANCH   3  19
TORSDOF 4
ENDMDL
MODEL 11
REMARK VINA RESULT:    -5.980      6.010      8.602
REMARK INTER + INTRA:          -7.869
REMARK INTER:                  -7.484
REMARK INTRA:                  -0.385
REMARK UNBOUND:                -0.491
REMARK  4 active torsions:
REMARK  status: ('A' for Active; 'I' for Inactive)
REMARK    1  A    between atoms: C_3  and  C_4 
REMARK    2  A    between atoms: C_7  and  S_9 
REMARK    3  A    between atoms: S_9  and  N_19 
REMARK    4  A    between atoms: C_14  and  C_15 
ROOT
HETATM    1  C   UNK A   1      26.460  42.900 -20.773  1.00  0.00     0.108 C 
HETATM    2  C   UNK A   1      27.163  43.339 -22.047  1.00  0.00     0.025 C 
HETATM    3  C   UNK A   1      27.310  44.852 -22.077  1.00  0.00     0.021 C 
HETATM    4  N   UNK A   1      27.152  43.363 -19.562  1.00  0.00    -0.206 NA
HETATM    5  C   UNK A   1      27.305  44.833 -19.546  1.00  0.00     0.108 C 
HETATM    6  C   UNK A   1      28.021  45.321 -20.814  1.00  0.00     0.025 C 
ENDROOT
BRANCH   4   7
HETATM    7  S   UNK A   1      26.573  42.715 -18.174  1.00  0.00     0.245 S 
HETATM    8  O   UNK A   1      27.070  41.373 -18.138  1.00  0.00    -0.206 OA
HETATM    9  O   UNK A   1      26.906  43.628 -17.128  1.00  0.00    -0.206 OA
BRANCH   7  10
HETATM   10  C   UNK A   1      24.819  42.592 -18.209  1.00  0.00     0.090 A 
HETATM   11  C   UNK A   1      24.028  43.512 -17.548  1.00  0.00     0.113 A 
HETATM   12  N   UNK A   1      22.709  43.396 -17.452  1.00  0.00    -0.362 N 
HETATM   13  C   UNK A   1      22.118  42.357 -18.066  1.00  0.00     0.070 A 
ATOM     14  HN  UNK A   1      22.159  44.077 -16.927  1.00  0.00     0.165 HD
HETATM   15  C   UNK A   1      22.836  41.399 -18.771  1.00  0.00     0.034 A 
HETATM   16  C   UNK A   1      24.210  41.520 -18.828  1.00  0.00     0.028 A 
BRANCH  13  17
HETATM   17  C   UNK A   1      20.620  42.294 -18.075  1.00  0.00     0.287 C 
HETATM   18  O   UNK A   1      19.943  43.098 -18.691  1.00  0.00    -0.300 OA
ENDBRANCH  13  17
ENDBRANCH   7  10
ENDBRANCH   4   7
BRANCH   3  19
HETATM   19  C   UNK A   1      27.987  45.310 -23.360  1.00  0.00    -0.054 A 
HETATM   20  C   UNK A   1      29.349  45.148 -23.553  1.00  0.00     0.009 A 
HETATM   21  C   UNK A   1      29.960  45.597 -24.704  1.00  0.00     0.024 A 
HETATM   22  C   UNK A   1      29.194  46.183 -25.658  1.00  0.00     0.034 A 
HETATM   23  C   UNK A   1      27.852  46.315 -25.534  1.00  0.00     0.024 A 
HETATM   24 CL   UNK A   1      29.960  46.888 -27.028  1.00  0.00    -0.084 Cl
HETATM   25  C   UNK A   1      27.247  45.892 -24.369  1.00  0.00     0.009 A 
ENDBRANCH   3  19
TORSDOF 4
ENDMDL
MODEL 12
REMARK VINA RESULT:    -5.958      2.351      3.598
REMARK INTER + INTRA:          -7.842
REMARK INTER:                  -7.277
REMARK INTRA:                  -0.564
REMARK UNBOUND:                -0.491
REMARK  4 active torsions:
REMARK  status: ('A' for Active; 'I' for Inactive)
REMARK    1  A    between atoms: C_3  and  C_4 
REMARK    2  A    between atoms: C_7  and  S_9 
REMARK    3  A    between atoms: S_9  and  N_19 
REMARK    4  A    between atoms: C_14  and  C_15 
ROOT
HETATM    1  C   UNK A   1      25.648  40.639 -19.767  1.00  0.00     0.108 C 
HETATM    2  C   UNK A   1      25.003  41.567 -18.750  1.00  0.00     0.025 C 
HETATM    3  C   UNK A   1      23.491  41.563 -18.913  1.00  0.00     0.021 C 
HETATM    4  N   UNK A   1      25.135  39.265 -19.679  1.00  0.00    -0.206 NA
HETATM    5  C   UNK A   1      23.668  39.216 -19.844  1.00  0.00     0.108 C 
HETATM    6  C   UNK A   1      22.972  40.133 -18.829  1.00  0.00     0.025 C 
ENDROOT
BRANCH   4   7
HETATM    7  S   UNK A   1      25.968  38.183 -20.583  1.00  0.00     0.245 S 
HETATM    8  O   UNK A   1      24.979  37.350 -21.196  1.00  0.00    -0.206 OA
HETATM    9  O   UNK A   1      26.868  38.938 -21.395  1.00  0.00    -0.206 OA
BRANCH   7  10
HETATM   10  C   UNK A   1      26.949  37.128 -19.574  1.00  0.00     0.090 A 
HETATM   11  C   UNK A   1      27.452  37.566 -18.364  1.00  0.00     0.113 A 
HETATM   12  N   UNK A   1      28.288  36.846 -17.624  1.00  0.00    -0.362 N 
HETATM   13  C   UNK A   1      28.621  35.618 -18.058  1.00  0.00     0.070 A 
ATOM     14  HN  UNK A   1      28.666  37.215 -16.752  1.00  0.00     0.165 HD
HETATM   15  C   UNK A   1      28.142  35.092 -19.252  1.00  0.00     0.034 A 
HETATM   16  C   UNK A   1      27.303  35.871 -20.022  1.00  0.00     0.028 A 
BRANCH  13  17
HETATM   17  C   UNK A   1      29.455  34.751 -17.164  1.00  0.00     0.287 C 
HETATM   18  O   UNK A   1      29.181  33.581 -16.960  1.00  0.00    -0.300 OA
ENDBRANCH  13  17
ENDBRANCH   7  10
ENDBRANCH   4   7
BRANCH   3  19
HETATM   19  C   UNK A   1      22.833  42.509 -17.920  1.00  0.00    -0.054 A 
HETATM   20  C   UNK A   1      23.568  43.466 -17.241  1.00  0.00     0.009 A 
HETATM   21  C   UNK A   1      22.969  44.295 -16.317  1.00  0.00     0.024 A 
HETATM   22  C   UNK A   1      21.636  44.170 -16.102  1.00  0.00     0.034 A 
HETATM   23  C   UNK A   1      20.869  43.283 -16.780  1.00  0.00     0.024 A 
HETATM   24 CL   UNK A   1      20.904  45.086 -14.843  1.00  0.00    -0.084 Cl
HETATM   25  C   UNK A   1      21.476  42.435 -17.682  1.00  0.00     0.009 A 
ENDBRANCH   3  19
TORSDOF 4
ENDMDL
MODEL 13
REMARK VINA RESULT:    -5.745      2.580      2.718
REMARK INTER + INTRA:          -7.579
REMARK INTER:                  -7.034
REMARK INTRA:                  -0.545
REMARK UNBOUND:                -0.491
REMARK  4 active torsions:
REMARK  status: ('A' for Active; 'I' for Inactive)
REMARK    1  A    between atoms: C_3  and  C_4 
REMARK    2  A    between atoms: C_7  and  S_9 
REMARK    3  A    between atoms: S_9  and  N_19 
REMARK    4  A    between atoms: C_14  and  C_15 
ROOT
HETATM    1  C   UNK A   1      19.642  42.020 -19.114  1.00  0.00     0.108 C 
HETATM    2  C   UNK A   1      19.920  43.278 -18.307  1.00  0.00     0.025 C 
HETATM    3  C   UNK A   1      20.977  43.006 -17.248  1.00  0.00     0.021 C 
HETATM    4  N   UNK A   1      20.854  41.476 -19.741  1.00  0.00    -0.206 NA
HETATM    5  C   UNK A   1      21.904  41.186 -18.743  1.00  0.00     0.108 C 
HETATM    6  C   UNK A   1      22.226  42.434 -17.909  1.00  0.00     0.025 C 
ENDROOT
BRANCH   4   7
HETATM    7  S   UNK A   1      20.567  40.270 -20.811  1.00  0.00     0.245 S 
HETATM    8  O   UNK A   1      19.725  39.338 -20.126  1.00  0.00    -0.206 OA
HETATM    9  O   UNK A   1      20.112  40.892 -22.013  1.00  0.00    -0.206 OA
BRANCH   7  10
HETATM   10  C   UNK A   1      22.044  39.404 -21.210  1.00  0.00     0.090 A 
HETATM   11  C   UNK A   1      22.277  38.132 -20.723  1.00  0.00     0.113 A 
HETATM   12  N   UNK A   1      23.423  37.485 -20.903  1.00  0.00    -0.362 N 
HETATM   13  C   UNK A   1      24.381  38.086 -21.631  1.00  0.00     0.070 A 
ATOM     14  HN  UNK A   1      23.573  36.560 -20.501  1.00  0.00     0.165 HD
HETATM   15  C   UNK A   1      24.221  39.354 -22.177  1.00  0.00     0.034 A 
HETATM   16  C   UNK A   1      23.035  40.021 -21.947  1.00  0.00     0.028 A 
BRANCH  13  17
HETATM   17  C   UNK A   1      25.623  37.309 -21.951  1.00  0.00     0.287 C 
HETATM   18  O   UNK A   1      26.217  37.445 -23.006  1.00  0.00    -0.300 OA
ENDBRANCH  13  17
ENDBRANCH   7  10
ENDBRANCH   4   7
BRANCH   3  19
HETATM   19  C   UNK A   1      21.247  44.248 -16.413  1.00  0.00    -0.054 A 
HETATM   20  C   UNK A   1      20.595  45.443 -16.669  1.00  0.00     0.009 A 
HETATM   21  C   UNK A   1      20.872  46.573 -15.930  1.00  0.00     0.024 A 
HETATM   22  C   UNK A   1      21.782  46.486 -14.928  1.00  0.00     0.034 A 
HETATM   23  C   UNK A   1      22.404  45.326 -14.610  1.00  0.00     0.024 A 
HETATM   24 CL   UNK A   1      22.252  47.919 -14.100  1.00  0.00    -0.084 Cl
HETATM   25  C   UNK A   1      22.148  44.204 -15.369  1.00  0.00     0.009 A 
ENDBRANCH   3  19
TORSDOF 4
ENDMDL
MODEL 14
REMARK VINA RESULT:    -5.741      4.092      8.512
REMARK INTER + INTRA:          -7.574
REMARK INTER:                  -7.006
REMARK INTRA:                  -0.568
REMARK UNBOUND:                -0.491
REMARK  4 active torsions:
REMARK  status: ('A' for Active; 'I' for Inactive)
REMARK    1  A    between atoms: C_3  and  C_4 
REMARK    2  A    between atoms: C_7  and  S_9 
REMARK    3  A    between atoms: S_9  and  N_19 
REMARK    4  A    between atoms: C_14  and  C_15 
ROOT
HETATM    1  C   UNK A   1      24.669  39.324 -18.890  1.00  0.00     0.108 C 
HETATM    2  C   UNK A   1      25.894  38.673 -18.270  1.00  0.00     0.025 C 
HETATM    3  C   UNK A   1      27.165  39.263 -18.860  1.00  0.00     0.021 C 
HETATM    4  N   UNK A   1      24.668  40.785 -18.730  1.00  0.00    -0.206 NA
HETATM    5  C   UNK A   1      25.883  41.400 -19.303  1.00  0.00     0.108 C 
HETATM    6  C   UNK A   1      27.149  40.778 -18.697  1.00  0.00     0.025 C 
ENDROOT
BRANCH   4   7
HETATM    7  S   UNK A   1      23.261  41.502 -19.164  1.00  0.00     0.245 S 
HETATM    8  O   UNK A   1      23.589  42.364 -20.259  1.00  0.00    -0.206 OA
HETATM    9  O   UNK A   1      22.308  40.455 -19.341  1.00  0.00    -0.206 OA
BRANCH   7  10
HETATM   10  C   UNK A   1      22.651  42.540 -17.883  1.00  0.00     0.090 A 
HETATM   11  C   UNK A   1      21.318  42.516 -17.520  1.00  0.00     0.113 A 
HETATM   12  N   UNK A   1      20.791  43.359 -16.639  1.00  0.00    -0.362 N 
HETATM   13  C   UNK A   1      21.608  44.246 -16.045  1.00  0.00     0.070 A 
ATOM     14  HN  UNK A   1      19.795  43.334 -16.421  1.00  0.00     0.165 HD
HETATM   15  C   UNK A   1      22.965  44.323 -16.334  1.00  0.00     0.034 A 
HETATM   16  C   UNK A   1      23.484  43.461 -17.278  1.00  0.00     0.028 A 
BRANCH  13  17
HETATM   17  C   UNK A   1      21.047  45.108 -14.954  1.00  0.00     0.287 C 
HETATM   18  O   UNK A   1      20.772  44.662 -13.854  1.00  0.00    -0.300 OA
ENDBRANCH  13  17
ENDBRANCH   7  10
ENDBRANCH   4   7
BRANCH   3  19
HETATM   19  C   UNK A   1      28.401  38.601 -18.269  1.00  0.00    -0.054 A 
HETATM   20  C   UNK A   1      28.476  37.228 -18.110  1.00  0.00     0.009 A 
HETATM   21  C   UNK A   1      29.585  36.640 -17.541  1.00  0.00     0.024 A 
HETATM   22  C   UNK A   1      30.616  37.434 -17.160  1.00  0.00     0.034 A 
HETATM   23  C   UNK A   1      30.607  38.776 -17.344  1.00  0.00     0.024 A 
HETATM   24 CL   UNK A   1      31.937  36.736 -16.308  1.00  0.00    -0.084 Cl
HETATM   25  C   UNK A   1      29.484  39.365 -17.886  1.00  0.00     0.009 A 
ENDBRANCH   3  19
TORSDOF 4
ENDMDL
MODEL 15
REMARK VINA RESULT:    -5.716      5.877      8.423
REMARK INTER + INTRA:          -7.543
REMARK INTER:                  -7.064
REMARK INTRA:                  -0.479
REMARK UNBOUND:                -0.491
REMARK  4 active torsions:
REMARK  status: ('A' for Active; 'I' for Inactive)
REMARK    1  A    between atoms: C_3  and  C_4 
REMARK    2  A    between atoms: C_7  and  S_9 
REMARK    3  A    between atoms: S_9  and  N_19 
REMARK    4  A    between atoms: C_14  and  C_15 
ROOT
HETATM    1  C   UNK A   1      25.313  42.573 -22.029  1.00  0.00     0.108 C 
HETATM    2  C   UNK A   1      25.875  43.286 -23.248  1.00  0.00     0.025 C 
HETATM    3  C   UNK A   1      26.777  44.434 -22.821  1.00  0.00     0.021 C 
HETATM    4  N   UNK A   1      26.367  42.079 -21.131  1.00  0.00    -0.206 NA
HETATM    5  C   UNK A   1      27.260  43.168 -20.683  1.00  0.00     0.108 C 
HETATM    6  C   UNK A   1      27.860  43.912 -21.885  1.00  0.00     0.025 C 
ENDROOT
BRANCH   4   7
HETATM    7  S   UNK A   1      25.821  41.099 -19.938  1.00  0.00     0.245 S 
HETATM    8  O   UNK A   1      25.059  40.080 -20.594  1.00  0.00    -0.206 OA
HETATM    9  O   UNK A   1      26.957  40.744 -19.150  1.00  0.00    -0.206 OA
BRANCH   7  10
HETATM   10  C   UNK A   1      24.704  41.946 -18.876  1.00  0.00     0.090 A 
HETATM   11  C   UNK A   1      23.351  41.670 -18.900  1.00  0.00     0.113 A 
HETATM   12  N   UNK A   1      22.458  42.361 -18.200  1.00  0.00    -0.362 N 
HETATM   13  C   UNK A   1      22.905  43.344 -17.400  1.00  0.00     0.070 A 
ATOM     14  HN  UNK A   1      21.462  42.151 -18.268  1.00  0.00     0.165 HD
HETATM   15  C   UNK A   1      24.251  43.672 -17.298  1.00  0.00     0.034 A 
HETATM   16  C   UNK A   1      25.157  42.964 -18.062  1.00  0.00     0.028 A 
BRANCH  13  17
HETATM   17  C   UNK A   1      21.919  44.037 -16.507  1.00  0.00     0.287 C 
HETATM   18  O   UNK A   1      21.232  44.964 -16.898  1.00  0.00    -0.300 OA
ENDBRANCH  13  17
ENDBRANCH   7  10
ENDBRANCH   4   7
BRANCH   3  19
HETATM   19  C   UNK A   1      27.326  45.176 -24.030  1.00  0.00    -0.054 A 
HETATM   20  C   UNK A   1      26.483  45.740 -24.973  1.00  0.00     0.009 A 
HETATM   21  C   UNK A   1      26.990  46.380 -26.084  1.00  0.00     0.024 A 
HETATM   22  C   UNK A   1      28.336  46.467 -26.224  1.00  0.00     0.034 A 
HETATM   23  C   UNK A   1      29.197  45.975 -25.301  1.00  0.00     0.024 A 
HETATM   24 CL   UNK A   1      28.983  47.121 -27.677  1.00  0.00    -0.084 Cl
HETATM   25  C   UNK A   1      28.688  45.310 -24.206  1.00  0.00     0.009 A 
ENDBRANCH   3  19
TORSDOF 4
ENDMDL
MODEL 16
REMARK VINA RESULT:    -5.676      4.380      5.872
REMARK INTER + INTRA:          -7.494
REMARK INTER:                  -6.937
REMARK INTRA:                  -0.556
REMARK UNBOUND:                -0.491
REMARK  4 active torsions:
REMARK  status: ('A' for Active; 'I' for Inactive)
REMARK    1  A    between atoms: C_3  and  C_4 
REMARK    2  A    between atoms: C_7  and  S_9 
REMARK    3  A    between atoms: S_9  and  N_19 
REMARK    4  A    between atoms: C_14  and  C_15 
ROOT
HETATM    1  C   UNK A   1      24.035  41.197 -21.182  1.00  0.00     0.108 C 
HETATM    2  C   UNK A   1      23.207  41.923 -20.134  1.00  0.00     0.025 C 
HETATM    3  C   UNK A   1      24.024  42.145 -18.871  1.00  0.00     0.021 C 
HETATM    4  N   UNK A   1      25.279  41.908 -21.505  1.00  0.00    -0.206 NA
HETATM    5  C   UNK A   1      26.110  42.133 -20.305  1.00  0.00     0.108 C 
HETATM    6  C   UNK A   1      25.315  42.874 -19.221  1.00  0.00     0.025 C 
ENDROOT
BRANCH   4   7
HETATM    7  S   UNK A   1      26.081  41.295 -22.795  1.00  0.00     0.245 S 
HETATM    8  O   UNK A   1      27.294  40.745 -22.270  1.00  0.00    -0.206 OA
HETATM    9  O   UNK A   1      25.157  40.456 -23.488  1.00  0.00    -0.206 OA
BRANCH   7  10
HETATM   10  C   UNK A   1      26.558  42.565 -23.914  1.00  0.00     0.090 A 
HETATM   11  C   UNK A   1      27.767  43.220 -23.775  1.00  0.00     0.113 A 
HETATM   12  N   UNK A   1      28.118  44.259 -24.525  1.00  0.00    -0.362 N 
HETATM   13  C   UNK A   1      27.272  44.658 -25.490  1.00  0.00     0.070 A 
ATOM     14  HN  UNK A   1      29.005  44.739 -24.372  1.00  0.00     0.165 HD
HETATM   15  C   UNK A   1      26.047  44.041 -25.713  1.00  0.00     0.034 A 
HETATM   16  C   UNK A   1      25.687  42.986 -24.899  1.00  0.00     0.028 A 
BRANCH  13  17
HETATM   17  C   UNK A   1      27.721  45.741 -26.425  1.00  0.00     0.287 C 
HETATM   18  O   UNK A   1      27.615  46.922 -26.145  1.00  0.00    -0.300 OA
ENDBRANCH  13  17
ENDBRANCH   7  10
ENDBRANCH   4   7
BRANCH   3  19
HETATM   19  C   UNK A   1      23.200  42.846 -17.803  1.00  0.00    -0.054 A 
HETATM   20  C   UNK A   1      23.774  43.760 -16.935  1.00  0.00     0.009 A 
HETATM   21  C   UNK A   1      23.026  44.365 -15.947  1.00  0.00     0.024 A 
HETATM   22  C   UNK A   1      21.708  44.062 -15.856  1.00  0.00     0.034 A 
HETATM   23  C   UNK A   1      21.094  43.214 -16.714  1.00  0.00     0.024 A 
HETATM   24 CL   UNK A   1      20.798  44.686 -14.535  1.00  0.00    -0.084 Cl
HETATM   25  C   UNK A   1      21.850  42.588 -17.683  1.00  0.00     0.009 A 
ENDBRANCH   3  19
TORSDOF 4
ENDMDL
MODEL 17
REMARK VINA RESULT:    -5.627      5.127      8.772
REMARK INTER + INTRA:          -7.433
REMARK INTER:                  -6.900
REMARK INTRA:                  -0.533
REMARK UNBOUND:                -0.491
REMARK  4 active torsions:
REMARK  status: ('A' for Active; 'I' for Inactive)
REMARK    1  A    between atoms: C_3  and  C_4 
REMARK    2  A    between atoms: C_7  and  S_9 
REMARK    3  A    between atoms: S_9  and  N_19 
REMARK    4  A    between atoms: C_14  and  C_15 
ROOT
HETATM    1  C   UNK A   1      20.077  42.067 -18.672  1.00  0.00     0.108 C 
HETATM    2  C   UNK A   1      21.549  41.801 -18.401  1.00  0.00     0.025 C 
HETATM    3  C   UNK A   1      22.034  40.616 -19.221  1.00  0.00     0.021 C 
HETATM    4  N   UNK A   1      19.800  42.293 -20.097  1.00  0.00    -0.206 NA
HETATM    5  C   UNK A   1      20.246  41.157 -20.929  1.00  0.00     0.108 C 
HETATM    6  C   UNK A   1      21.734  40.858 -20.695  1.00  0.00     0.025 C 
ENDROOT
BRANCH   4   7
HETATM    7  S   UNK A   1      18.281  42.820 -20.405  1.00  0.00     0.245 S 
HETATM    8  O   UNK A   1      17.808  42.020 -21.494  1.00  0.00    -0.206 OA
HETATM    9  O   UNK A   1      17.585  42.811 -19.158  1.00  0.00    -0.206 OA
BRANCH   7  10
HETATM   10  C   UNK A   1      18.285  44.483 -20.977  1.00  0.00     0.090 A 
HETATM   11  C   UNK A   1      18.327  45.541 -20.090  1.00  0.00     0.113 A 
HETATM   12  N   UNK A   1      18.218  46.809 -20.469  1.00  0.00    -0.362 N 
HETATM   13  C   UNK A   1      18.106  47.070 -21.784  1.00  0.00     0.070 A 
ATOM     14  HN  UNK A   1      18.219  47.564 -19.783  1.00  0.00     0.165 HD
HETATM   15  C   UNK A   1      18.078  46.067 -22.745  1.00  0.00     0.034 A 
HETATM   16  C   UNK A   1      18.157  44.754 -22.325  1.00  0.00     0.028 A 
BRANCH  13  17
HETATM   17  C   UNK A   1      18.118  48.502 -22.228  1.00  0.00     0.287 C 
HETATM   18  O   UNK A   1      17.128  49.208 -22.160  1.00  0.00    -0.300 OA
ENDBRANCH  13  17
ENDBRANCH   7  10
ENDBRANCH   4   7
BRANCH   3  19
HETATM   19  C   UNK A   1      23.499  40.320 -18.940  1.00  0.00    -0.054 A 
HETATM   20  C   UNK A   1      24.470  41.299 -19.071  1.00  0.00     0.009 A 
HETATM   21  C   UNK A   1      25.799  41.013 -18.849  1.00  0.00     0.024 A 
HETATM   22  C   UNK A   1      26.138  39.754 -18.475  1.00  0.00     0.034 A 
HETATM   23  C   UNK A   1      25.216  38.779 -18.285  1.00  0.00     0.024 A 
HETATM   24 CL   UNK A   1      27.803  39.340 -18.346  1.00  0.00    -0.084 Cl
HETATM   25  C   UNK A   1      23.891  39.060 -18.536  1.00  0.00     0.009 A 
ENDBRANCH   3  19
TORSDOF 4
ENDMDL
MODEL 18
REMARK VINA RESULT:    -5.568      4.417      6.022
REMARK INTER + INTRA:          -7.361
REMARK INTER:                  -6.826
REMARK INTRA:                  -0.535
REMARK UNBOUND:                -0.491
REMARK  4 active torsions:
REMARK  status: ('A' for Active; 'I' for Inactive)
REMARK    1  A    between atoms: C_3  and  C_4 
REMARK    2  A    between atoms: C_7  and  S_9 
REMARK    3  A    between atoms: S_9  and  N_19 
REMARK    4  A    between atoms: C_14  and  C_15 
ROOT
HETATM    1  C   UNK A   1      23.792  41.466 -19.319  1.00  0.00     0.108 C 
HETATM    2  C   UNK A   1      22.359  41.496 -19.825  1.00  0.00     0.025 C 
HETATM    3  C   UNK A   1      21.394  41.725 -18.672  1.00  0.00     0.021 C 
HETATM    4  N   UNK A   1      24.156  42.690 -18.593  1.00  0.00    -0.206 NA
HETATM    5  C   UNK A   1      23.249  42.944 -17.455  1.00  0.00     0.108 C 
HETATM    6  C   UNK A   1      21.787  42.992 -17.922  1.00  0.00     0.025 C 
ENDROOT
BRANCH   4   7
HETATM    7  S   UNK A   1      25.752  42.807 -18.243  1.00  0.00     0.245 S 
HETATM    8  O   UNK A   1      25.834  43.662 -17.097  1.00  0.00    -0.206 OA
HETATM    9  O   UNK A   1      26.253  41.472 -18.174  1.00  0.00    -0.206 OA
BRANCH   7  10
HETATM   10  C   UNK A   1      26.631  43.619 -19.531  1.00  0.00     0.090 A 
HETATM   11  C   UNK A   1      27.277  44.819 -19.306  1.00  0.00     0.113 A 
HETATM   12  N   UNK A   1      27.856  45.523 -20.272  1.00  0.00    -0.362 N 
HETATM   13  C   UNK A   1      27.847  45.016 -21.517  1.00  0.00     0.070 A 
ATOM     14  HN  UNK A   1      28.295  46.422 -20.075  1.00  0.00     0.165 HD
HETATM   15  C   UNK A   1      27.240  43.804 -21.826  1.00  0.00     0.034 A 
HETATM   16  C   UNK A   1      26.614  43.107 -20.813  1.00  0.00     0.028 A 
BRANCH  13  17
HETATM   17  C   UNK A   1      28.614  45.738 -22.584  1.00  0.00     0.287 C 
HETATM   18  O   UNK A   1      28.068  46.472 -23.388  1.00  0.00    -0.300 OA
ENDBRANCH  13  17
ENDBRANCH   7  10
ENDBRANCH   4   7
BRANCH   3  19
HETATM   19  C   UNK A   1      19.952  41.730 -19.158  1.00  0.00    -0.054 A 
HETATM   20  C   UNK A   1      19.405  40.632 -19.800  1.00  0.00     0.009 A 
HETATM   21  C   UNK A   1      18.109  40.658 -20.268  1.00  0.00     0.024 A 
HETATM   22  C   UNK A   1      17.370  41.777 -20.067  1.00  0.00     0.034 A 
HETATM   23  C   UNK A   1      17.848  42.854 -19.400  1.00  0.00     0.024 A 
HETATM   24 CL   UNK A   1      15.808  41.884 -20.781  1.00  0.00    -0.084 Cl
HETATM   25  C   UNK A   1      19.153  42.837 -18.958  1.00  0.00     0.009 A 
ENDBRANCH   3  19
TORSDOF 4
ENDMDL
MODEL 19
REMARK VINA RESULT:    -5.562      5.470      8.129
REMARK INTER + INTRA:          -7.353
REMARK INTER:                  -6.865
REMARK INTRA:                  -0.488
REMARK UNBOUND:                -0.491
REMARK  4 active torsions:
REMARK  status: ('A' for Active; 'I' for Inactive)
REMARK    1  A    between atoms: C_3  and  C_4 
REMARK    2  A    between atoms: C_7  and  S_9 
REMARK    3  A    between atoms: S_9  and  N_19 
REMARK    4  A    between atoms: C_14  and  C_15 
ROOT
HETATM    1  C   UNK A   1      22.579  42.221 -21.649  1.00  0.00     0.108 C 
HETATM    2  C   UNK A   1      22.937  42.624 -23.071  1.00  0.00     0.025 C 
HETATM    3  C   UNK A   1      24.267  43.361 -23.095  1.00  0.00     0.021 C 
HETATM    4  N   UNK A   1      23.622  41.400 -21.020  1.00  0.00    -0.206 NA
HETATM    5  C   UNK A   1      24.930  42.086 -21.011  1.00  0.00     0.108 C 
HETATM    6  C   UNK A   1      25.338  42.503 -22.431  1.00  0.00     0.025 C 
ENDROOT
BRANCH   4   7
HETATM    7  S   UNK A   1      23.178  40.743 -19.586  1.00  0.00     0.245 S 
HETATM    8  O   UNK A   1      21.971  40.020 -19.851  1.00  0.00    -0.206 OA
HETATM    9  O   UNK A   1      24.324  40.058 -19.080  1.00  0.00    -0.206 OA
BRANCH   7  10
HETATM   10  C   UNK A   1      22.764  41.986 -18.414  1.00  0.00     0.090 A 
HETATM   11  C   UNK A   1      23.734  42.813 -17.881  1.00  0.00     0.113 A 
HETATM   12  N   UNK A   1      23.488  43.688 -16.912  1.00  0.00    -0.362 N 
HETATM   13  C   UNK A   1      22.224  43.799 -16.466  1.00  0.00     0.070 A 
ATOM     14  HN  UNK A   1      24.235  44.259 -16.518  1.00  0.00     0.165 HD
HETATM   15  C   UNK A   1      21.185  43.023 -16.963  1.00  0.00     0.034 A 
HETATM   16  C   UNK A   1      21.471  42.096 -17.945  1.00  0.00     0.028 A 
BRANCH  13  17
HETATM   17  C   UNK A   1      21.915  44.876 -15.470  1.00  0.00     0.287 C 
HETATM   18  O   UNK A   1      20.883  44.881 -14.822  1.00  0.00    -0.300 OA
ENDBRANCH  13  17
ENDBRANCH   7  10
ENDBRANCH   4   7
BRANCH   3  19
HETATM   19  C   UNK A   1      24.626  43.795 -24.508  1.00  0.00    -0.054 A 
HETATM   20  C   UNK A   1      24.141  44.977 -25.043  1.00  0.00     0.009 A 
HETATM   21  C   UNK A   1      24.443  45.345 -26.336  1.00  0.00     0.024 A 
HETATM   22  C   UNK A   1      25.246  44.535 -27.070  1.00  0.00     0.034 A 
HETATM   23  C   UNK A   1      25.784  43.397 -26.570  1.00  0.00     0.024 A 
HETATM   24 CL   UNK A   1      25.505  44.899 -28.731  1.00  0.00    -0.084 Cl
HETATM   25  C   UNK A   1      25.457  43.016 -25.286  1.00  0.00     0.009 A 
ENDBRANCH   3  19
TORSDOF 4
ENDMDL
MODEL 20
REMARK VINA RESULT:    -5.348      8.056     11.207
REMARK INTER + INTRA:          -7.089
REMARK INTER:                  -6.528
REMARK INTRA:                  -0.560
REMARK UNBOUND:                -0.491
REMARK  4 active torsions:
REMARK  status: ('A' for Active; 'I' for Inactive)
REMARK    1  A    between atoms: C_3  and  C_4 
REMARK    2  A    between atoms: C_7  and  S_9 
REMARK    3  A    between atoms: S_9  and  N_19 
REMARK    4  A    between atoms: C_14  and  C_15 
ROOT
HETATM    1  C   UNK A   1      21.669  43.842 -24.269  1.00  0.00     0.108 C 
HETATM    2  C   UNK A   1      23.136  44.069 -23.943  1.00  0.00     0.025 C 
HETATM    3  C   UNK A   1      23.852  44.697 -25.128  1.00  0.00     0.021 C 
HETATM    4  N   UNK A   1      20.985  45.078 -24.674  1.00  0.00    -0.206 NA
HETATM    5  C   UNK A   1      21.644  45.715 -25.833  1.00  0.00     0.108 C 
HETATM    6  C   UNK A   1      23.130  45.973 -25.544  1.00  0.00     0.025 C 
ENDROOT
BRANCH   4   7
HETATM    7  S   UNK A   1      19.359  44.930 -24.799  1.00  0.00     0.245 S 
HETATM    8  O   UNK A   1      19.094  44.757 -26.195  1.00  0.00    -0.206 OA
HETATM    9  O   UNK A   1      18.969  43.921 -23.868  1.00  0.00    -0.206 OA
BRANCH   7  10
HETATM   10  C   UNK A   1      18.544  46.413 -24.320  1.00  0.00     0.090 A 
HETATM   11  C   UNK A   1      18.366  47.449 -25.217  1.00  0.00     0.113 A 
HETATM   12  N   UNK A   1      17.859  48.627 -24.871  1.00  0.00    -0.362 N 
HETATM   13  C   UNK A   1      17.462  48.797 -23.598  1.00  0.00     0.070 A 
ATOM     14  HN  UNK A   1      17.773  49.381 -25.552  1.00  0.00     0.165 HD
HETATM   15  C   UNK A   1      17.584  47.799 -22.638  1.00  0.00     0.034 A 
HETATM   16  C   UNK A   1      18.146  46.595 -23.011  1.00  0.00     0.028 A 
BRANCH  13  17
HETATM   17  C   UNK A   1      16.767  50.074 -23.234  1.00  0.00     0.287 C 
HETATM   18  O   UNK A   1      16.803  50.531 -22.106  1.00  0.00    -0.300 OA
ENDBRANCH  13  17
ENDBRANCH   7  10
ENDBRANCH   4   7
BRANCH   3  19
HETATM   19  C   UNK A   1      25.328  44.906 -24.827  1.00  0.00    -0.054 A 
HETATM   20  C   UNK A   1      25.989  44.128 -23.892  1.00  0.00     0.009 A 
HETATM   21  C   UNK A   1      27.318  44.347 -23.600  1.00  0.00     0.024 A 
HETATM   22  C   UNK A   1      27.975  45.329 -24.266  1.00  0.00     0.034 A 
HETATM   23  C   UNK A   1      27.382  46.080 -25.225  1.00  0.00     0.024 A 
HETATM   24 CL   UNK A   1      29.586  45.719 -23.803  1.00  0.00    -0.084 Cl
HETATM   25  C   UNK A   1      26.045  45.878 -25.494  1.00  0.00     0.009 A 
ENDBRANCH   3  19
TORSDOF 4
ENDMDL
