MODEL 1
REMARK VINA RESULT:   -12.385      0.000      0.000
REMARK INTER + INTRA:         -23.845
REMARK INTER:                 -21.798
REMARK INTRA:                  -2.048
REMARK UNBOUND:                -2.048
REMARK  15 active torsions:
REMARK  status: ('A' for Active; 'I' for Inactive)
REMARK    1  A    between atoms: P_1  and  O_4 
REMARK    2  A    between atoms: P_1  and  O_28 
REMARK    3  A    between atoms: O_4  and  C_5 
REMARK    4  A    between atoms: C_5  and  C_6 
REMARK    5  A    between atoms: C_8  and  O_9 
REMARK    6  A    between atoms: C_11  and  O_12 
REMARK    7  A    between atoms: C_14  and  N_15 
REMARK    8  A    between atoms: O_28  and  P_29 
REMARK    9  A    between atoms: P_29  and  O_32 
REMARK   10  A    between atoms: O_32  and  C_33 
REMARK   11  A    between atoms: C_33  and  C_34 
REMARK   12  A    between atoms: C_36  and  O_37 
REMARK   13  A    between atoms: C_39  and  O_40 
REMARK   14  A    between atoms: C_42  and  N_43 
REMARK   15  A    between atoms: C_45  and  C_46 
ROOT
HETATM    1  P   UNL     1     -45.195  52.268 -27.143  1.00  0.00     0.417 P 
HETATM    2  O   UNL     1     -46.210  53.037 -26.321  1.00  0.00    -0.624 OA
HETATM    3  O   UNL     1     -45.310  52.554 -28.606  1.00  0.00    -0.624 OA
ENDROOT
BRANCH   1   4
HETATM    4  O   UNL     1     -43.742  52.637 -26.446  1.00  0.00    -0.287 OA
BRANCH   4   5
HETATM    5  C   UNL     1     -43.612  53.938 -25.999  1.00  0.00     0.216 C 
BRANCH   5   6
HETATM    6  C   UNL     1     -43.052  53.823 -24.547  1.00  0.00     0.180 C 
HETATM    7  C   UNL     1     -43.037  52.618 -24.119  1.00  0.00     0.182 C 
HETATM    8  C   UNL     1     -43.894  52.633 -22.701  1.00  0.00     0.198 C 
HETATM    9  C   UNL     1     -43.837  53.878 -22.358  1.00  0.00     0.262 C 
HETATM   10  O   UNL     1     -44.095  54.580 -23.670  1.00  0.00    -0.353 OA
BRANCH   7  11
HETATM   11  O   UNL     1     -41.709  52.231 -23.687  1.00  0.00    -0.390 OA
ATOM     12  HO  UNL     1     -41.166  52.933 -24.025  1.00  0.00     0.210 HD
ENDBRANCH   7  11
BRANCH   8  13
HETATM   13  O   UNL     1     -43.284  51.713 -21.748  1.00  0.00    -0.388 OA
ATOM     14  HO  UNL     1     -42.576  51.189 -22.103  1.00  0.00     0.210 HD
ENDBRANCH   8  13
BRANCH   9  15
HETATM   15  N   UNL     1     -44.934  54.175 -21.410  1.00  0.00    -0.297 N 
HETATM   16  C   UNL     1     -44.858  53.888 -20.075  1.00  0.00     0.142 A 
HETATM   17  N   UNL     1     -43.890  53.361 -19.298  1.00  0.00    -0.336 N 
HETATM   18  C   UNL     1     -46.059  54.232 -19.544  1.00  0.00     0.119 A 
HETATM   19  C   UNL     1     -44.120  53.171 -18.007  1.00  0.00     0.183 A 
ATOM     20  HN  UNL     1     -42.987  53.111 -19.702  1.00  0.00     0.168 HD
HETATM   21  N   UNL     1     -45.259  53.518 -17.466  1.00  0.00    -0.339 N 
HETATM   22  C   UNL     1     -46.252  54.034 -18.172  1.00  0.00     0.148 A 
ATOM     23  HN  UNL     1     -45.387  53.386 -16.462  1.00  0.00     0.167 HD
HETATM   24  N   UNL     1     -47.496  54.401 -17.582  1.00  0.00    -0.080 NA
HETATM   25  N   UNL     1     -46.820  54.724 -20.553  1.00  0.00    -0.346 N 
HETATM   26  C   UNL     1     -46.103  54.694 -21.686  1.00  0.00     0.188 A 
ATOM     27  HN  UNL     1     -47.778  55.061 -20.464  1.00  0.00     0.167 HD
ENDBRANCH   9  15
ENDBRANCH   5   6
ENDBRANCH   4   5
ENDBRANCH   1   4
BRANCH   1  28
HETATM   28  O   UNL     1     -45.403  50.671 -26.938  1.00  0.00    -0.180 OA
BRANCH  28  29
HETATM   29  P   UNL     1     -46.791  49.816 -27.227  1.00  0.00     0.417 P 
HETATM   30  O   UNL     1     -47.930  50.427 -26.441  1.00  0.00    -0.624 OA
HETATM   31  O   UNL     1     -46.958  49.779 -28.705  1.00  0.00    -0.624 OA
BRANCH  29  32
HETATM   32  O   UNL     1     -46.457  48.277 -26.662  1.00  0.00    -0.287 OA
BRANCH  32  33
HETATM   33  C   UNL     1     -46.424  48.059 -25.210  1.00  0.00     0.216 C 
BRANCH  33  34
HETATM   34  C   UNL     1     -45.856  46.647 -24.965  1.00  0.00     0.180 C 
HETATM   35  C   UNL     1     -44.319  46.677 -24.641  1.00  0.00     0.182 C 
HETATM   36  C   UNL     1     -43.680  46.200 -25.940  1.00  0.00     0.198 C 
HETATM   37  C   UNL     1     -44.564  45.247 -26.332  1.00  0.00     0.259 C 
HETATM   38  O   UNL     1     -45.989  45.933 -26.088  1.00  0.00    -0.353 OA
BRANCH  35  39
HETATM   39  O   UNL     1     -44.014  45.807 -23.622  1.00  0.00    -0.390 OA
ATOM     40  HO  UNL     1     -44.256  44.922 -23.869  1.00  0.00     0.210 HD
ENDBRANCH  35  39
BRANCH  36  41
HETATM   41  O   UNL     1     -42.307  45.666 -25.676  1.00  0.00    -0.388 OA
ATOM     42  HO  UNL     1     -42.213  45.436 -24.759  1.00  0.00     0.210 HD
ENDBRANCH  36  41
BRANCH  37  43
HETATM   43  N   UNL     1     -44.639  44.850 -27.702  1.00  0.00    -0.336 N 
HETATM   44  C   UNL     1     -44.619  45.750 -28.697  1.00  0.00     0.110 A 
HETATM   45  C   UNL     1     -44.764  45.311 -30.036  1.00  0.00     0.044 A 
HETATM   46  C   UNL     1     -44.953  43.970 -30.374  1.00  0.00     0.019 A 
HETATM   47  C   UNL     1     -44.979  43.074 -29.270  1.00  0.00     0.018 A 
HETATM   48  C   UNL     1     -44.836  43.562 -27.958  1.00  0.00     0.093 A 
BRANCH  45  49
HETATM   49  C   UNL     1     -44.694  46.313 -31.179  1.00  0.00     0.266 C 
HETATM   50  N   UNL     1     -45.138  47.711 -30.867  1.00  0.00    -0.057 NA
HETATM   51  O   UNL     1     -44.290  45.977 -32.277  1.00  0.00    -0.271 OA
ENDBRANCH  45  49
ENDBRANCH  37  43
ENDBRANCH  33  34
ENDBRANCH  32  33
ENDBRANCH  29  32
ENDBRANCH  28  29
ENDBRANCH   1  28
TORSDOF 15
ENDMDL
MODEL 2
REMARK VINA RESULT:   -12.137      0.607      1.357
REMARK INTER + INTRA:         -23.409
REMARK INTER:                 -21.524
REMARK INTRA:                  -1.885
REMARK UNBOUND:                -2.048
REMARK  15 active torsions:
REMARK  status: ('A' for Active; 'I' for Inactive)
REMARK    1  A    between atoms: P_1  and  O_4 
REMARK    2  A    between atoms: P_1  and  O_28 
REMARK    3  A    between atoms: O_4  and  C_5 
REMARK    4  A    between atoms: C_5  and  C_6 
REMARK    5  A    between atoms: C_8  and  O_9 
REMARK    6  A    between atoms: C_11  and  O_12 
REMARK    7  A    between atoms: C_14  and  N_15 
REMARK    8  A    between atoms: O_28  and  P_29 
REMARK    9  A    between atoms: P_29  and  O_32 
REMARK   10  A    between atoms: O_32  and  C_33 
REMARK   11  A    between atoms: C_33  and  C_34 
REMARK   12  A    between atoms: C_36  and  O_37 
REMARK   13  A    between atoms: C_39  and  O_40 
REMARK   14  A    between atoms: C_42  and  N_43 
REMARK   15  A    between atoms: C_45  and  C_46 
ROOT
HETATM    1  P   UNL     1     -45.318  52.348 -27.123  1.00  0.00     0.417 P 
HETATM    2  O   UNL     1     -46.435  53.095 -26.421  1.00  0.00    -0.624 OA
HETATM    3  O   UNL     1     -45.317  52.579 -28.601  1.00  0.00    -0.624 OA
ENDROOT
BRANCH   1   4
HETATM    4  O   UNL     1     -43.950  52.811 -26.319  1.00  0.00    -0.287 OA
BRANCH   4   5
HETATM    5  C   UNL     1     -44.074  53.946 -25.541  1.00  0.00     0.216 C 
BRANCH   5   6
HETATM    6  C   UNL     1     -43.118  53.723 -24.327  1.00  0.00     0.180 C 
HETATM    7  C   UNL     1     -42.888  52.486 -24.103  1.00  0.00     0.182 C 
HETATM    8  C   UNL     1     -43.307  52.229 -22.521  1.00  0.00     0.198 C 
HETATM    9  C   UNL     1     -43.254  53.422 -22.025  1.00  0.00     0.262 C 
HETATM   10  O   UNL     1     -43.928  54.241 -23.100  1.00  0.00    -0.353 OA
BRANCH   7  11
HETATM   11  O   UNL     1     -41.466  52.208 -24.107  1.00  0.00    -0.390 OA
ATOM     12  HO  UNL     1     -41.388  51.502 -23.477  1.00  0.00     0.210 HD
ENDBRANCH   7  11
BRANCH   8  13
HETATM   13  O   UNL     1     -42.382  51.279 -21.915  1.00  0.00    -0.388 OA
ATOM     14  HO  UNL     1     -41.475  51.561 -21.908  1.00  0.00     0.210 HD
ENDBRANCH   8  13
BRANCH   9  15
HETATM   15  N   UNL     1     -44.058  53.471 -20.783  1.00  0.00    -0.297 N 
HETATM   16  C   UNL     1     -45.264  54.110 -20.706  1.00  0.00     0.142 A 
HETATM   17  N   UNL     1     -46.020  54.769 -21.608  1.00  0.00    -0.336 N 
HETATM   18  C   UNL     1     -45.667  54.006 -19.413  1.00  0.00     0.119 A 
HETATM   19  C   UNL     1     -47.161  55.324 -21.225  1.00  0.00     0.183 A 
ATOM     20  HN  UNL     1     -45.715  54.839 -22.579  1.00  0.00     0.168 HD
HETATM   21  N   UNL     1     -47.583  55.214 -19.991  1.00  0.00    -0.339 N 
HETATM   22  C   UNL     1     -46.888  54.588 -19.056  1.00  0.00     0.148 A 
ATOM     23  HN  UNL     1     -48.482  55.627 -19.741  1.00  0.00     0.167 HD
HETATM   24  N   UNL     1     -47.346  54.480 -17.711  1.00  0.00    -0.080 NA
HETATM   25  N   UNL     1     -44.715  53.303 -18.751  1.00  0.00    -0.346 N 
HETATM   26  C   UNL     1     -43.745  52.971 -19.615  1.00  0.00     0.188 A 
ATOM     27  HN  UNL     1     -44.734  53.066 -17.758  1.00  0.00     0.167 HD
ENDBRANCH   9  15
ENDBRANCH   5   6
ENDBRANCH   4   5
ENDBRANCH   1   4
BRANCH   1  28
HETATM   28  O   UNL     1     -45.471  50.751 -26.877  1.00  0.00    -0.180 OA
BRANCH  28  29
HETATM   29  P   UNL     1     -46.803  49.828 -27.214  1.00  0.00     0.417 P 
HETATM   30  O   UNL     1     -47.994  50.370 -26.456  1.00  0.00    -0.624 OA
HETATM   31  O   UNL     1     -46.926  49.799 -28.697  1.00  0.00    -0.624 OA
BRANCH  29  32
HETATM   32  O   UNL     1     -46.404  48.302 -26.654  1.00  0.00    -0.287 OA
BRANCH  32  33
HETATM   33  C   UNL     1     -46.399  48.071 -25.204  1.00  0.00     0.216 C 
BRANCH  33  34
HETATM   34  C   UNL     1     -45.838  46.656 -24.962  1.00  0.00     0.180 C 
HETATM   35  C   UNL     1     -44.300  46.677 -24.642  1.00  0.00     0.182 C 
HETATM   36  C   UNL     1     -43.667  46.198 -25.943  1.00  0.00     0.198 C 
HETATM   37  C   UNL     1     -44.557  45.250 -26.333  1.00  0.00     0.259 C 
HETATM   38  O   UNL     1     -45.978  45.943 -26.084  1.00  0.00    -0.353 OA
BRANCH  35  39
HETATM   39  O   UNL     1     -43.997  45.806 -23.625  1.00  0.00    -0.390 OA
ATOM     40  HO  UNL     1     -44.643  45.879 -22.932  1.00  0.00     0.210 HD
ENDBRANCH  35  39
BRANCH  36  41
HETATM   41  O   UNL     1     -42.296  45.657 -25.683  1.00  0.00    -0.388 OA
ATOM     42  HO  UNL     1     -42.345  44.739 -25.439  1.00  0.00     0.210 HD
ENDBRANCH  36  41
BRANCH  37  43
HETATM   43  N   UNL     1     -44.638  44.854 -27.704  1.00  0.00    -0.336 N 
HETATM   44  C   UNL     1     -44.615  45.755 -28.698  1.00  0.00     0.110 A 
HETATM   45  C   UNL     1     -44.766  45.318 -30.036  1.00  0.00     0.044 A 
HETATM   46  C   UNL     1     -44.964  43.978 -30.374  1.00  0.00     0.019 A 
HETATM   47  C   UNL     1     -44.993  43.082 -29.272  1.00  0.00     0.018 A 
HETATM   48  C   UNL     1     -44.844  43.567 -27.959  1.00  0.00     0.093 A 
BRANCH  45  49
HETATM   49  C   UNL     1     -44.692  46.320 -31.179  1.00  0.00     0.266 C 
HETATM   50  N   UNL     1     -45.042  47.738 -30.843  1.00  0.00    -0.057 NA
HETATM   51  O   UNL     1     -44.359  45.966 -32.295  1.00  0.00    -0.271 OA
ENDBRANCH  45  49
ENDBRANCH  37  43
ENDBRANCH  33  34
ENDBRANCH  32  33
ENDBRANCH  29  32
ENDBRANCH  28  29
ENDBRANCH   1  28
TORSDOF 15
ENDMDL
MODEL 3
REMARK VINA RESULT:   -11.669      1.394      2.333
REMARK INTER + INTRA:         -22.585
REMARK INTER:                 -20.460
REMARK INTRA:                  -2.124
REMARK UNBOUND:                -2.048
REMARK  15 active torsions:
REMARK  status: ('A' for Active; 'I' for Inactive)
REMARK    1  A    between atoms: P_1  and  O_4 
REMARK    2  A    between atoms: P_1  and  O_28 
REMARK    3  A    between atoms: O_4  and  C_5 
REMARK    4  A    between atoms: C_5  and  C_6 
REMARK    5  A    between atoms: C_8  and  O_9 
REMARK    6  A    between atoms: C_11  and  O_12 
REMARK    7  A    between atoms: C_14  and  N_15 
REMARK    8  A    between atoms: O_28  and  P_29 
REMARK    9  A    between atoms: P_29  and  O_32 
REMARK   10  A    between atoms: O_32  and  C_33 
REMARK   11  A    between atoms: C_33  and  C_34 
REMARK   12  A    between atoms: C_36  and  O_37 
REMARK   13  A    between atoms: C_39  and  O_40 
REMARK   14  A    between atoms: C_42  and  N_43 
REMARK   15  A    between atoms: C_45  and  C_46 
ROOT
HETATM    1  P   UNL     1     -45.351  52.389 -27.130  1.00  0.00     0.417 P 
HETATM    2  O   UNL     1     -46.533  53.113 -26.516  1.00  0.00    -0.624 OA
HETATM    3  O   UNL     1     -45.262  52.592 -28.609  1.00  0.00    -0.624 OA
ENDROOT
BRANCH   1   4
HETATM    4  O   UNL     1     -44.053  52.909 -26.249  1.00  0.00    -0.287 OA
BRANCH   4   5
HETATM    5  C   UNL     1     -43.518  51.983 -25.375  1.00  0.00     0.216 C 
BRANCH   5   6
HETATM    6  C   UNL     1     -44.234  52.239 -24.011  1.00  0.00     0.180 C 
HETATM    7  C   UNL     1     -44.408  53.482 -23.772  1.00  0.00     0.182 C 
HETATM    8  C   UNL     1     -43.705  53.761 -22.298  1.00  0.00     0.198 C 
HETATM    9  C   UNL     1     -43.678  52.577 -21.779  1.00  0.00     0.262 C 
HETATM   10  O   UNL     1     -43.219  51.731 -22.942  1.00  0.00    -0.353 OA
BRANCH   7  11
HETATM   11  O   UNL     1     -45.804  53.778 -23.523  1.00  0.00    -0.390 OA
ATOM     12  HO  UNL     1     -46.206  53.622 -24.369  1.00  0.00     0.210 HD
ENDBRANCH   7  11
BRANCH   8  13
HETATM   13  O   UNL     1     -44.495  54.733 -21.552  1.00  0.00    -0.388 OA
ATOM     14  HO  UNL     1     -44.541  55.594 -21.950  1.00  0.00     0.210 HD
ENDBRANCH   8  13
BRANCH   9  15
HETATM   15  N   UNL     1     -42.661  52.539 -20.703  1.00  0.00    -0.297 N 
HETATM   16  C   UNL     1     -42.958  52.796 -19.394  1.00  0.00     0.142 A 
HETATM   17  N   UNL     1     -44.105  53.084 -18.746  1.00  0.00    -0.336 N 
HETATM   18  C   UNL     1     -41.780  52.738 -18.719  1.00  0.00     0.119 A 
HETATM   19  C   UNL     1     -44.078  53.319 -17.442  1.00  0.00     0.183 A 
ATOM     20  HN  UNL     1     -44.987  53.122 -19.257  1.00  0.00     0.168 HD
HETATM   21  N   UNL     1     -42.961  53.242 -16.765  1.00  0.00    -0.339 N 
HETATM   22  C   UNL     1     -41.801  52.971 -17.340  1.00  0.00     0.148 A 
ATOM     23  HN  UNL     1     -42.986  53.397 -15.757  1.00  0.00     0.167 HD
HETATM   24  N   UNL     1     -40.585  52.899 -16.602  1.00  0.00    -0.080 NA
HETATM   25  N   UNL     1     -40.814  52.436 -19.622  1.00  0.00    -0.346 N 
HETATM   26  C   UNL     1     -41.380  52.303 -20.830  1.00  0.00     0.188 A 
ATOM     27  HN  UNL     1     -39.821  52.328 -19.415  1.00  0.00     0.167 HD
ENDBRANCH   9  15
ENDBRANCH   5   6
ENDBRANCH   4   5
ENDBRANCH   1   4
BRANCH   1  28
HETATM   28  O   UNL     1     -45.471  50.792 -26.861  1.00  0.00    -0.180 OA
BRANCH  28  29
HETATM   29  P   UNL     1     -46.791  49.841 -27.164  1.00  0.00     0.417 P 
HETATM   30  O   UNL     1     -47.966  50.341 -26.353  1.00  0.00    -0.624 OA
HETATM   31  O   UNL     1     -46.969  49.833 -28.641  1.00  0.00    -0.624 OA
BRANCH  29  32
HETATM   32  O   UNL     1     -46.334  48.317 -26.645  1.00  0.00    -0.287 OA
BRANCH  32  33
HETATM   33  C   UNL     1     -46.618  47.940 -25.255  1.00  0.00     0.216 C 
BRANCH  33  34
HETATM   34  C   UNL     1     -45.974  46.562 -25.007  1.00  0.00     0.180 C 
HETATM   35  C   UNL     1     -44.441  46.676 -24.681  1.00  0.00     0.182 C 
HETATM   36  C   UNL     1     -43.775  46.234 -25.978  1.00  0.00     0.198 C 
HETATM   37  C   UNL     1     -44.605  45.233 -26.370  1.00  0.00     0.259 C 
HETATM   38  O   UNL     1     -46.066  45.840 -26.129  1.00  0.00    -0.353 OA
BRANCH  35  39
HETATM   39  O   UNL     1     -44.091  45.826 -23.660  1.00  0.00    -0.390 OA
ATOM     40  HO  UNL     1     -44.870  45.519 -23.213  1.00  0.00     0.210 HD
ENDBRANCH  35  39
BRANCH  36  41
HETATM   41  O   UNL     1     -42.375  45.776 -25.712  1.00  0.00    -0.388 OA
ATOM     42  HO  UNL     1     -41.866  46.479 -25.325  1.00  0.00     0.210 HD
ENDBRANCH  36  41
BRANCH  37  43
HETATM   43  N   UNL     1     -44.656  44.830 -27.740  1.00  0.00    -0.336 N 
HETATM   44  C   UNL     1     -44.620  45.727 -28.738  1.00  0.00     0.110 A 
HETATM   45  C   UNL     1     -44.742  45.282 -30.077  1.00  0.00     0.044 A 
HETATM   46  C   UNL     1     -44.923  43.940 -30.413  1.00  0.00     0.019 A 
HETATM   47  C   UNL     1     -44.966  43.048 -29.306  1.00  0.00     0.018 A 
HETATM   48  C   UNL     1     -44.846  43.541 -27.993  1.00  0.00     0.093 A 
BRANCH  45  49
HETATM   49  C   UNL     1     -44.655  46.280 -31.222  1.00  0.00     0.266 C 
HETATM   50  N   UNL     1     -45.040  47.694 -30.904  1.00  0.00    -0.057 NA
HETATM   51  O   UNL     1     -44.283  45.927 -32.327  1.00  0.00    -0.271 OA
ENDBRANCH  45  49
ENDBRANCH  37  43
ENDBRANCH  33  34
ENDBRANCH  32  33
ENDBRANCH  29  32
ENDBRANCH  28  29
ENDBRANCH   1  28
TORSDOF 15
ENDMDL
MODEL 4
REMARK VINA RESULT:   -11.663      1.514     10.296
REMARK INTER + INTRA:         -22.573
REMARK INTER:                 -20.356
REMARK INTRA:                  -2.217
REMARK UNBOUND:                -2.048
REMARK  15 active torsions:
REMARK  status: ('A' for Active; 'I' for Inactive)
REMARK    1  A    between atoms: P_1  and  O_4 
REMARK    2  A    between atoms: P_1  and  O_28 
REMARK    3  A    between atoms: O_4  and  C_5 
REMARK    4  A    between atoms: C_5  and  C_6 
REMARK    5  A    between atoms: C_8  and  O_9 
REMARK    6  A    between atoms: C_11  and  O_12 
REMARK    7  A    between atoms: C_14  and  N_15 
REMARK    8  A    between atoms: O_28  and  P_29 
REMARK    9  A    between atoms: P_29  and  O_32 
REMARK   10  A    between atoms: O_32  and  C_33 
REMARK   11  A    between atoms: C_33  and  C_34 
REMARK   12  A    between atoms: C_36  and  O_37 
REMARK   13  A    between atoms: C_39  and  O_40 
REMARK   14  A    between atoms: C_42  and  N_43 
REMARK   15  A    between atoms: C_45  and  C_46 
ROOT
HETATM    1  P   UNL     1     -47.130  50.268 -26.744  1.00  0.00     0.417 P 
HETATM    2  O   UNL     1     -47.217  50.099 -28.248  1.00  0.00    -0.624 OA
HETATM    3  O   UNL     1     -48.438  50.018 -26.064  1.00  0.00    -0.624 OA
ENDROOT
BRANCH   1   4
HETATM    4  O   UNL     1     -45.882  49.281 -26.296  1.00  0.00    -0.287 OA
BRANCH   4   5
HETATM    5  C   UNL     1     -45.845  48.941 -24.957  1.00  0.00     0.216 C 
BRANCH   5   6
HETATM    6  C   UNL     1     -45.573  47.404 -24.928  1.00  0.00     0.180 C 
HETATM    7  C   UNL     1     -44.346  47.126 -24.701  1.00  0.00     0.182 C 
HETATM    8  C   UNL     1     -43.863  46.161 -25.958  1.00  0.00     0.198 C 
HETATM    9  C   UNL     1     -44.988  45.702 -26.400  1.00  0.00     0.262 C 
HETATM   10  O   UNL     1     -45.860  46.934 -26.386  1.00  0.00    -0.353 OA
BRANCH   7  11
HETATM   11  O   UNL     1     -44.210  46.251 -23.555  1.00  0.00    -0.390 OA
ATOM     12  HO  UNL     1     -45.024  46.392 -23.085  1.00  0.00     0.210 HD
ENDBRANCH   7  11
BRANCH   8  13
HETATM   13  O   UNL     1     -42.942  45.142 -25.470  1.00  0.00    -0.388 OA
ATOM     14  HO  UNL     1     -42.641  44.531 -26.133  1.00  0.00     0.210 HD
ENDBRANCH   8  13
BRANCH   9  15
HETATM   15  N   UNL     1     -44.810  45.232 -27.793  1.00  0.00    -0.297 N 
HETATM   16  C   UNL     1     -44.803  46.080 -28.865  1.00  0.00     0.142 A 
HETATM   17  N   UNL     1     -44.900  47.420 -28.984  1.00  0.00    -0.336 N 
HETATM   18  C   UNL     1     -44.690  45.295 -29.968  1.00  0.00     0.119 A 
HETATM   19  C   UNL     1     -44.891  47.972 -30.189  1.00  0.00     0.183 A 
ATOM     20  HN  UNL     1     -44.980  48.004 -28.152  1.00  0.00     0.168 HD
HETATM   21  N   UNL     1     -44.755  47.240 -31.266  1.00  0.00    -0.339 N 
HETATM   22  C   UNL     1     -44.662  45.921 -31.220  1.00  0.00     0.148 A 
ATOM     23  HN  UNL     1     -44.720  47.704 -32.174  1.00  0.00     0.167 HD
HETATM   24  N   UNL     1     -44.526  45.126 -32.394  1.00  0.00    -0.080 NA
HETATM   25  N   UNL     1     -44.616  44.010 -29.542  1.00  0.00    -0.346 N 
HETATM   26  C   UNL     1     -44.676  43.997 -28.202  1.00  0.00     0.188 A 
ATOM     27  HN  UNL     1     -44.530  43.190 -30.142  1.00  0.00     0.167 HD
ENDBRANCH   9  15
ENDBRANCH   5   6
ENDBRANCH   4   5
ENDBRANCH   1   4
BRANCH   1  28
HETATM   28  O   UNL     1     -46.668  51.780 -26.376  1.00  0.00    -0.180 OA
BRANCH  28  29
HETATM   29  P   UNL     1     -45.552  52.692 -27.190  1.00  0.00     0.417 P 
HETATM   30  O   UNL     1     -44.667  51.784 -28.016  1.00  0.00    -0.624 OA
HETATM   31  O   UNL     1     -46.322  53.720 -27.942  1.00  0.00    -0.624 OA
BRANCH  29  32
HETATM   32  O   UNL     1     -44.658  53.431 -25.984  1.00  0.00    -0.287 OA
BRANCH  32  33
HETATM   33  C   UNL     1     -44.932  53.064 -24.589  1.00  0.00     0.216 C 
BRANCH  33  34
HETATM   34  C   UNL     1     -43.702  53.467 -23.752  1.00  0.00     0.180 C 
HETATM   35  C   UNL     1     -42.727  52.258 -23.515  1.00  0.00     0.182 C 
HETATM   36  C   UNL     1     -43.001  51.867 -22.068  1.00  0.00     0.198 C 
HETATM   37  C   UNL     1     -43.180  53.087 -21.498  1.00  0.00     0.259 C 
HETATM   38  O   UNL     1     -44.118  53.856 -22.542  1.00  0.00    -0.353 OA
BRANCH  35  39
HETATM   39  O   UNL     1     -41.417  52.647 -23.656  1.00  0.00    -0.390 OA
ATOM     40  HO  UNL     1     -41.212  52.765 -24.576  1.00  0.00     0.210 HD
ENDBRANCH  35  39
BRANCH  36  41
HETATM   41  O   UNL     1     -41.837  51.113 -21.505  1.00  0.00    -0.388 OA
ATOM     42  HO  UNL     1     -41.681  50.323 -22.010  1.00  0.00     0.210 HD
ENDBRANCH  36  41
BRANCH  37  43
HETATM   43  N   UNL     1     -43.906  53.214 -20.274  1.00  0.00    -0.336 N 
HETATM   44  C   UNL     1     -45.165  53.677 -20.248  1.00  0.00     0.110 A 
HETATM   45  C   UNL     1     -45.818  53.848 -19.003  1.00  0.00     0.044 A 
HETATM   46  C   UNL     1     -45.198  53.575 -17.782  1.00  0.00     0.019 A 
HETATM   47  C   UNL     1     -43.861  53.102 -17.884  1.00  0.00     0.018 A 
HETATM   48  C   UNL     1     -43.255  52.956 -19.146  1.00  0.00     0.093 A 
BRANCH  45  49
HETATM   49  C   UNL     1     -47.261  54.326 -18.958  1.00  0.00     0.266 C 
HETATM   50  N   UNL     1     -47.660  55.337 -19.990  1.00  0.00    -0.057 NA
HETATM   51  O   UNL     1     -48.035  53.891 -18.123  1.00  0.00    -0.271 OA
ENDBRANCH  45  49
ENDBRANCH  37  43
ENDBRANCH  33  34
ENDBRANCH  32  33
ENDBRANCH  29  32
ENDBRANCH  28  29
ENDBRANCH   1  28
TORSDOF 15
ENDMDL
MODEL 5
REMARK VINA RESULT:   -11.332      1.186      1.878
REMARK INTER + INTRA:         -21.991
REMARK INTER:                 -20.066
REMARK INTRA:                  -1.925
REMARK UNBOUND:                -2.048
REMARK  15 active torsions:
REMARK  status: ('A' for Active; 'I' for Inactive)
REMARK    1  A    between atoms: P_1  and  O_4 
REMARK    2  A    between atoms: P_1  and  O_28 
REMARK    3  A    between atoms: O_4  and  C_5 
REMARK    4  A    between atoms: C_5  and  C_6 
REMARK    5  A    between atoms: C_8  and  O_9 
REMARK    6  A    between atoms: C_11  and  O_12 
REMARK    7  A    between atoms: C_14  and  N_15 
REMARK    8  A    between atoms: O_28  and  P_29 
REMARK    9  A    between atoms: P_29  and  O_32 
REMARK   10  A    between atoms: O_32  and  C_33 
REMARK   11  A    between atoms: C_33  and  C_34 
REMARK   12  A    between atoms: C_36  and  O_37 
REMARK   13  A    between atoms: C_39  and  O_40 
REMARK   14  A    between atoms: C_42  and  N_43 
REMARK   15  A    between atoms: C_45  and  C_46 
ROOT
HETATM    1  P   UNL     1     -43.719  50.736 -25.158  1.00  0.00     0.417 P 
HETATM    2  O   UNL     1     -43.001  49.685 -25.982  1.00  0.00    -0.624 OA
HETATM    3  O   UNL     1     -43.890  50.324 -23.731  1.00  0.00    -0.624 OA
ENDROOT
BRANCH   1   4
HETATM    4  O   UNL     1     -42.848  52.117 -25.411  1.00  0.00    -0.287 OA
BRANCH   4   5
HETATM    5  C   UNL     1     -42.525  52.833 -24.274  1.00  0.00     0.216 C 
BRANCH   5   6
HETATM    6  C   UNL     1     -43.471  54.075 -24.284  1.00  0.00     0.180 C 
HETATM    7  C   UNL     1     -42.899  55.133 -23.854  1.00  0.00     0.182 C 
HETATM    8  C   UNL     1     -43.850  55.689 -22.616  1.00  0.00     0.198 C 
HETATM    9  C   UNL     1     -44.988  55.130 -22.872  1.00  0.00     0.262 C 
HETATM   10  O   UNL     1     -44.575  53.726 -23.241  1.00  0.00    -0.353 OA
BRANCH   7  11
HETATM   11  O   UNL     1     -42.979  56.205 -24.825  1.00  0.00    -0.390 OA
ATOM     12  HO  UNL     1     -43.322  56.928 -24.313  1.00  0.00     0.210 HD
ENDBRANCH   7  11
BRANCH   8  13
HETATM   13  O   UNL     1     -43.874  57.147 -22.629  1.00  0.00    -0.388 OA
ATOM     14  HO  UNL     1     -43.849  57.550 -21.770  1.00  0.00     0.210 HD
ENDBRANCH   8  13
BRANCH   9  15
HETATM   15  N   UNL     1     -45.807  55.103 -21.639  1.00  0.00    -0.297 N 
HETATM   16  C   UNL     1     -45.403  54.473 -20.495  1.00  0.00     0.142 A 
HETATM   17  N   UNL     1     -44.280  53.808 -20.154  1.00  0.00    -0.336 N 
HETATM   18  C   UNL     1     -46.427  54.597 -19.612  1.00  0.00     0.119 A 
HETATM   19  C   UNL     1     -44.182  53.267 -18.948  1.00  0.00     0.183 A 
ATOM     20  HN  UNL     1     -43.512  53.724 -20.820  1.00  0.00     0.168 HD
HETATM   21  N   UNL     1     -45.144  53.395 -18.070  1.00  0.00    -0.339 N 
HETATM   22  C   UNL     1     -46.273  54.028 -18.343  1.00  0.00     0.148 A 
ATOM     23  HN  UNL     1     -45.018  52.991 -17.142  1.00  0.00     0.167 HD
HETATM   24  N   UNL     1     -47.323  54.156 -17.388  1.00  0.00    -0.080 NA
HETATM   25  N   UNL     1     -47.408  55.301 -20.229  1.00  0.00    -0.346 N 
HETATM   26  C   UNL     1     -46.999  55.615 -21.467  1.00  0.00     0.188 A 
ATOM     27  HN  UNL     1     -48.308  55.551 -19.819  1.00  0.00     0.167 HD
ENDBRANCH   9  15
ENDBRANCH   5   6
ENDBRANCH   4   5
ENDBRANCH   1   4
BRANCH   1  28
HETATM   28  O   UNL     1     -45.197  51.013 -25.769  1.00  0.00    -0.180 OA
BRANCH  28  29
HETATM   29  P   UNL     1     -45.878  50.258 -27.075  1.00  0.00     0.417 P 
HETATM   30  O   UNL     1     -47.304  50.733 -27.243  1.00  0.00    -0.624 OA
HETATM   31  O   UNL     1     -44.963  50.504 -28.223  1.00  0.00    -0.624 OA
BRANCH  29  32
HETATM   32  O   UNL     1     -45.852  48.633 -26.675  1.00  0.00    -0.287 OA
BRANCH  32  33
HETATM   33  C   UNL     1     -46.425  48.222 -25.388  1.00  0.00     0.216 C 
BRANCH  33  34
HETATM   34  C   UNL     1     -45.939  46.788 -25.099  1.00  0.00     0.180 C 
HETATM   35  C   UNL     1     -44.417  46.747 -24.714  1.00  0.00     0.182 C 
HETATM   36  C   UNL     1     -43.751  46.218 -25.978  1.00  0.00     0.198 C 
HETATM   37  C   UNL     1     -44.666  45.303 -26.392  1.00  0.00     0.259 C 
HETATM   38  O   UNL     1     -46.063  46.063 -26.215  1.00  0.00    -0.353 OA
BRANCH  35  39
HETATM   39  O   UNL     1     -44.196  45.881 -23.671  1.00  0.00    -0.390 OA
ATOM     40  HO  UNL     1     -43.591  46.270 -23.050  1.00  0.00     0.210 HD
ENDBRANCH  35  39
BRANCH  36  41
HETATM   41  O   UNL     1     -42.418  45.621 -25.651  1.00  0.00    -0.388 OA
ATOM     42  HO  UNL     1     -42.351  44.745 -26.015  1.00  0.00     0.210 HD
ENDBRANCH  36  41
BRANCH  37  43
HETATM   43  N   UNL     1     -44.706  44.887 -27.758  1.00  0.00    -0.336 N 
HETATM   44  C   UNL     1     -44.630  45.771 -28.764  1.00  0.00     0.110 A 
HETATM   45  C   UNL     1     -44.743  45.316 -30.101  1.00  0.00     0.044 A 
HETATM   46  C   UNL     1     -44.955  43.975 -30.425  1.00  0.00     0.019 A 
HETATM   47  C   UNL     1     -45.040  43.097 -29.310  1.00  0.00     0.018 A 
HETATM   48  C   UNL     1     -44.928  43.601 -28.001  1.00  0.00     0.093 A 
BRANCH  45  49
HETATM   49  C   UNL     1     -44.610  46.298 -31.255  1.00  0.00     0.266 C 
HETATM   50  N   UNL     1     -44.821  47.745 -30.925  1.00  0.00    -0.057 NA
HETATM   51  O   UNL     1     -44.339  45.907 -32.376  1.00  0.00    -0.271 OA
ENDBRANCH  45  49
ENDBRANCH  37  43
ENDBRANCH  33  34
ENDBRANCH  32  33
ENDBRANCH  29  32
ENDBRANCH  28  29
ENDBRANCH   1  28
TORSDOF 15
ENDMDL
MODEL 6
REMARK VINA RESULT:   -11.281      1.437     10.250
REMARK INTER + INTRA:         -21.903
REMARK INTER:                 -19.597
REMARK INTRA:                  -2.306
REMARK UNBOUND:                -2.048
REMARK  15 active torsions:
REMARK  status: ('A' for Active; 'I' for Inactive)
REMARK    1  A    between atoms: P_1  and  O_4 
REMARK    2  A    between atoms: P_1  and  O_28 
REMARK    3  A    between atoms: O_4  and  C_5 
REMARK    4  A    between atoms: C_5  and  C_6 
REMARK    5  A    between atoms: C_8  and  O_9 
REMARK    6  A    between atoms: C_11  and  O_12 
REMARK    7  A    between atoms: C_14  and  N_15 
REMARK    8  A    between atoms: O_28  and  P_29 
REMARK    9  A    between atoms: P_29  and  O_32 
REMARK   10  A    between atoms: O_32  and  C_33 
REMARK   11  A    between atoms: C_33  and  C_34 
REMARK   12  A    between atoms: C_36  and  O_37 
REMARK   13  A    between atoms: C_39  and  O_40 
REMARK   14  A    between atoms: C_42  and  N_43 
REMARK   15  A    between atoms: C_45  and  C_46 
ROOT
HETATM    1  P   UNL     1     -47.130  50.298 -26.689  1.00  0.00     0.417 P 
HETATM    2  O   UNL     1     -47.206  50.187 -28.199  1.00  0.00    -0.624 OA
HETATM    3  O   UNL     1     -48.447  50.038 -26.029  1.00  0.00    -0.624 OA
ENDROOT
BRANCH   1   4
HETATM    4  O   UNL     1     -45.898  49.280 -26.268  1.00  0.00    -0.287 OA
BRANCH   4   5
HETATM    5  C   UNL     1     -45.841  48.936 -24.931  1.00  0.00     0.216 C 
BRANCH   5   6
HETATM    6  C   UNL     1     -45.542  47.404 -24.910  1.00  0.00     0.180 C 
HETATM    7  C   UNL     1     -44.307  47.146 -24.710  1.00  0.00     0.182 C 
HETATM    8  C   UNL     1     -43.835  46.190 -25.979  1.00  0.00     0.198 C 
HETATM    9  C   UNL     1     -44.961  45.713 -26.397  1.00  0.00     0.262 C 
HETATM   10  O   UNL     1     -45.853  46.931 -26.362  1.00  0.00    -0.353 OA
BRANCH   7  11
HETATM   11  O   UNL     1     -44.131  46.273 -23.568  1.00  0.00    -0.390 OA
ATOM     12  HO  UNL     1     -43.378  45.749 -23.818  1.00  0.00     0.210 HD
ENDBRANCH   7  11
BRANCH   8  13
HETATM   13  O   UNL     1     -42.886  45.186 -25.512  1.00  0.00    -0.388 OA
ATOM     14  HO  UNL     1     -43.230  44.301 -25.486  1.00  0.00     0.210 HD
ENDBRANCH   8  13
BRANCH   9  15
HETATM   15  N   UNL     1     -44.806  45.248 -27.794  1.00  0.00    -0.297 N 
HETATM   16  C   UNL     1     -44.817  46.098 -28.863  1.00  0.00     0.142 A 
HETATM   17  N   UNL     1     -44.915  47.439 -28.977  1.00  0.00    -0.336 N 
HETATM   18  C   UNL     1     -44.721  45.317 -29.970  1.00  0.00     0.119 A 
HETATM   19  C   UNL     1     -44.925  47.994 -30.180  1.00  0.00     0.183 A 
ATOM     20  HN  UNL     1     -44.981  48.021 -28.141  1.00  0.00     0.168 HD
HETATM   21  N   UNL     1     -44.807  47.266 -31.261  1.00  0.00    -0.339 N 
HETATM   22  C   UNL     1     -44.714  45.947 -31.220  1.00  0.00     0.148 A 
ATOM     23  HN  UNL     1     -44.786  47.732 -32.167  1.00  0.00     0.167 HD
HETATM   24  N   UNL     1     -44.596  45.156 -32.399  1.00  0.00    -0.080 NA
HETATM   25  N   UNL     1     -44.642  44.031 -29.550  1.00  0.00    -0.346 N 
HETATM   26  C   UNL     1     -44.680  44.013 -28.209  1.00  0.00     0.188 A 
ATOM     27  HN  UNL     1     -44.565  43.212 -30.153  1.00  0.00     0.167 HD
ENDBRANCH   9  15
ENDBRANCH   5   6
ENDBRANCH   4   5
ENDBRANCH   1   4
BRANCH   1  28
HETATM   28  O   UNL     1     -46.653  51.789 -26.260  1.00  0.00    -0.180 OA
BRANCH  28  29
HETATM   29  P   UNL     1     -45.532  52.725 -27.040  1.00  0.00     0.417 P 
HETATM   30  O   UNL     1     -44.639  51.841 -27.882  1.00  0.00    -0.624 OA
HETATM   31  O   UNL     1     -46.298  53.770 -27.771  1.00  0.00    -0.624 OA
BRANCH  29  32
HETATM   32  O   UNL     1     -44.651  53.434 -25.807  1.00  0.00    -0.287 OA
BRANCH  32  33
HETATM   33  C   UNL     1     -43.265  53.834 -26.081  1.00  0.00     0.216 C 
BRANCH  33  34
HETATM   34  C   UNL     1     -42.524  53.894 -24.731  1.00  0.00     0.180 C 
HETATM   35  C   UNL     1     -42.259  52.463 -24.139  1.00  0.00     0.182 C 
HETATM   36  C   UNL     1     -43.298  52.346 -23.031  1.00  0.00     0.198 C 
HETATM   37  C   UNL     1     -43.295  53.610 -22.535  1.00  0.00     0.259 C 
HETATM   38  O   UNL     1     -43.300  54.528 -23.846  1.00  0.00    -0.353 OA
BRANCH  35  39
HETATM   39  O   UNL     1     -40.995  52.377 -23.606  1.00  0.00    -0.390 OA
ATOM     40  HO  UNL     1     -40.849  53.096 -23.002  1.00  0.00     0.210 HD
ENDBRANCH  35  39
BRANCH  36  41
HETATM   41  O   UNL     1     -42.877  51.314 -22.032  1.00  0.00    -0.388 OA
ATOM     42  HO  UNL     1     -42.927  51.668 -21.151  1.00  0.00     0.210 HD
ENDBRANCH  36  41
BRANCH  37  43
HETATM   43  N   UNL     1     -44.420  54.103 -21.804  1.00  0.00    -0.336 N 
HETATM   44  C   UNL     1     -44.676  53.697 -20.551  1.00  0.00     0.110 A 
HETATM   45  C   UNL     1     -45.841  54.163 -19.894  1.00  0.00     0.044 A 
HETATM   46  C   UNL     1     -46.761  55.017 -20.504  1.00  0.00     0.019 A 
HETATM   47  C   UNL     1     -46.434  55.395 -21.835  1.00  0.00     0.018 A 
HETATM   48  C   UNL     1     -45.267  54.899 -22.446  1.00  0.00     0.093 A 
BRANCH  45  49
HETATM   49  C   UNL     1     -46.122  53.751 -18.457  1.00  0.00     0.266 C 
HETATM   50  N   UNL     1     -47.558  53.509 -18.102  1.00  0.00    -0.057 NA
HETATM   51  O   UNL     1     -45.212  53.625 -17.657  1.00  0.00    -0.271 OA
ENDBRANCH  45  49
ENDBRANCH  37  43
ENDBRANCH  33  34
ENDBRANCH  32  33
ENDBRANCH  29  32
ENDBRANCH  28  29
ENDBRANCH   1  28
TORSDOF 15
ENDMDL
MODEL 7
REMARK VINA RESULT:   -11.266      2.034     10.371
REMARK INTER + INTRA:         -21.875
REMARK INTER:                 -19.664
REMARK INTRA:                  -2.211
REMARK UNBOUND:                -2.048
REMARK  15 active torsions:
REMARK  status: ('A' for Active; 'I' for Inactive)
REMARK    1  A    between atoms: P_1  and  O_4 
REMARK    2  A    between atoms: P_1  and  O_28 
REMARK    3  A    between atoms: O_4  and  C_5 
REMARK    4  A    between atoms: C_5  and  C_6 
REMARK    5  A    between atoms: C_8  and  O_9 
REMARK    6  A    between atoms: C_11  and  O_12 
REMARK    7  A    between atoms: C_14  and  N_15 
REMARK    8  A    between atoms: O_28  and  P_29 
REMARK    9  A    between atoms: P_29  and  O_32 
REMARK   10  A    between atoms: O_32  and  C_33 
REMARK   11  A    between atoms: C_33  and  C_34 
REMARK   12  A    between atoms: C_36  and  O_37 
REMARK   13  A    between atoms: C_39  and  O_40 
REMARK   14  A    between atoms: C_42  and  N_43 
REMARK   15  A    between atoms: C_45  and  C_46 
ROOT
HETATM    1  P   UNL     1     -45.236  52.703 -27.281  1.00  0.00     0.417 P 
HETATM    2  O   UNL     1     -44.929  51.841 -28.489  1.00  0.00    -0.624 OA
HETATM    3  O   UNL     1     -46.427  53.583 -27.494  1.00  0.00    -0.624 OA
ENDROOT
BRANCH   1   4
HETATM    4  O   UNL     1     -45.347  51.627 -26.031  1.00  0.00    -0.287 OA
BRANCH   4   5
HETATM    5  C   UNL     1     -46.106  50.500 -26.283  1.00  0.00     0.216 C 
BRANCH   5   6
HETATM    6  C   UNL     1     -45.345  49.325 -25.592  1.00  0.00     0.180 C 
HETATM    7  C   UNL     1     -44.078  49.407 -25.737  1.00  0.00     0.182 C 
HETATM    8  C   UNL     1     -43.607  47.970 -26.415  1.00  0.00     0.198 C 
HETATM    9  C   UNL     1     -44.589  47.187 -26.107  1.00  0.00     0.262 C 
HETATM   10  O   UNL     1     -45.790  48.060 -26.386  1.00  0.00    -0.353 OA
BRANCH   7  11
HETATM   11  O   UNL     1     -43.402  49.394 -24.456  1.00  0.00    -0.390 OA
ATOM     12  HO  UNL     1     -42.695  48.774 -24.597  1.00  0.00     0.210 HD
ENDBRANCH   7  11
BRANCH   8  13
HETATM   13  O   UNL     1     -42.317  47.568 -25.869  1.00  0.00    -0.388 OA
ATOM     14  HO  UNL     1     -42.200  47.762 -24.947  1.00  0.00     0.210 HD
ENDBRANCH   8  13
BRANCH   9  15
HETATM   15  N   UNL     1     -44.593  46.025 -27.024  1.00  0.00    -0.297 N 
HETATM   16  C   UNL     1     -44.658  46.154 -28.384  1.00  0.00     0.142 A 
HETATM   17  N   UNL     1     -44.693  47.220 -29.209  1.00  0.00    -0.336 N 
HETATM   18  C   UNL     1     -44.711  44.892 -28.883  1.00  0.00     0.119 A 
HETATM   19  C   UNL     1     -44.787  47.030 -30.518  1.00  0.00     0.183 A 
ATOM     20  HN  UNL     1     -44.648  48.165 -28.829  1.00  0.00     0.168 HD
HETATM   21  N   UNL     1     -44.812  45.824 -31.025  1.00  0.00    -0.339 N 
HETATM   22  C   UNL     1     -44.787  44.737 -30.271  1.00  0.00     0.148 A 
ATOM     23  HN  UNL     1     -44.852  45.719 -32.039  1.00  0.00     0.167 HD
HETATM   24  N   UNL     1     -44.826  43.426 -30.826  1.00  0.00    -0.080 NA
HETATM   25  N   UNL     1     -44.662  44.041 -27.829  1.00  0.00    -0.346 N 
HETATM   26  C   UNL     1     -44.574  44.758 -26.699  1.00  0.00     0.188 A 
ATOM     27  HN  UNL     1     -44.688  43.022 -27.886  1.00  0.00     0.167 HD
ENDBRANCH   9  15
ENDBRANCH   5   6
ENDBRANCH   4   5
ENDBRANCH   1   4
BRANCH   1  28
HETATM   28  O   UNL     1     -43.972  53.663 -26.942  1.00  0.00    -0.180 OA
BRANCH  28  29
HETATM   29  P   UNL     1     -42.512  53.184 -26.326  1.00  0.00     0.417 P 
HETATM   30  O   UNL     1     -42.419  51.675 -26.369  1.00  0.00    -0.624 OA
HETATM   31  O   UNL     1     -41.473  53.928 -27.089  1.00  0.00    -0.624 OA
BRANCH  29  32
HETATM   32  O   UNL     1     -42.534  53.719 -24.740  1.00  0.00    -0.287 OA
BRANCH  32  33
HETATM   33  C   UNL     1     -42.411  52.724 -23.668  1.00  0.00     0.216 C 
BRANCH  33  34
HETATM   34  C   UNL     1     -43.819  52.499 -23.080  1.00  0.00     0.180 C 
HETATM   35  C   UNL     1     -44.733  53.766 -23.237  1.00  0.00     0.182 C 
HETATM   36  C   UNL     1     -44.752  54.359 -21.833  1.00  0.00     0.198 C 
HETATM   37  C   UNL     1     -44.787  53.233 -21.075  1.00  0.00     0.259 C 
HETATM   38  O   UNL     1     -43.703  52.281 -21.766  1.00  0.00    -0.353 OA
BRANCH  35  39
HETATM   39  O   UNL     1     -46.006  53.411 -23.613  1.00  0.00    -0.390 OA
ATOM     40  HO  UNL     1     -46.312  53.987 -24.304  1.00  0.00     0.210 HD
ENDBRANCH  35  39
BRANCH  36  41
HETATM   41  O   UNL     1     -45.954  55.233 -21.656  1.00  0.00    -0.388 OA
ATOM     42  HO  UNL     1     -45.728  56.005 -21.149  1.00  0.00     0.210 HD
ENDBRANCH  36  41
BRANCH  37  43
HETATM   43  N   UNL     1     -44.353  53.264 -19.714  1.00  0.00    -0.336 N 
HETATM   44  C   UNL     1     -43.079  53.015 -19.376  1.00  0.00     0.110 A 
HETATM   45  C   UNL     1     -42.714  52.991 -18.008  1.00  0.00     0.044 A 
HETATM   46  C   UNL     1     -43.634  53.194 -16.978  1.00  0.00     0.019 A 
HETATM   47  C   UNL     1     -44.967  53.438 -17.407  1.00  0.00     0.018 A 
HETATM   48  C   UNL     1     -45.280  53.445 -18.779  1.00  0.00     0.093 A 
BRANCH  45  49
HETATM   49  C   UNL     1     -41.264  52.759 -17.610  1.00  0.00     0.266 C 
HETATM   50  N   UNL     1     -40.243  52.903 -18.698  1.00  0.00    -0.057 NA
HETATM   51  O   UNL     1     -40.972  52.480 -16.461  1.00  0.00    -0.271 OA
ENDBRANCH  45  49
ENDBRANCH  37  43
ENDBRANCH  33  34
ENDBRANCH  32  33
ENDBRANCH  29  32
ENDBRANCH  28  29
ENDBRANCH   1  28
TORSDOF 15
ENDMDL
MODEL 8
REMARK VINA RESULT:   -11.083      1.892     10.165
REMARK INTER + INTRA:         -21.554
REMARK INTER:                 -19.823
REMARK INTRA:                  -1.731
REMARK UNBOUND:                -2.048
REMARK  15 active torsions:
REMARK  status: ('A' for Active; 'I' for Inactive)
REMARK    1  A    between atoms: P_1  and  O_4 
REMARK    2  A    between atoms: P_1  and  O_28 
REMARK    3  A    between atoms: O_4  and  C_5 
REMARK    4  A    between atoms: C_5  and  C_6 
REMARK    5  A    between atoms: C_8  and  O_9 
REMARK    6  A    between atoms: C_11  and  O_12 
REMARK    7  A    between atoms: C_14  and  N_15 
REMARK    8  A    between atoms: O_28  and  P_29 
REMARK    9  A    between atoms: P_29  and  O_32 
REMARK   10  A    between atoms: O_32  and  C_33 
REMARK   11  A    between atoms: C_33  and  C_34 
REMARK   12  A    between atoms: C_36  and  O_37 
REMARK   13  A    between atoms: C_39  and  O_40 
REMARK   14  A    between atoms: C_42  and  N_43 
REMARK   15  A    between atoms: C_45  and  C_46 
ROOT
HETATM    1  P   UNL     1     -45.798  52.403 -27.520  1.00  0.00     0.417 P 
HETATM    2  O   UNL     1     -46.368  51.544 -28.632  1.00  0.00    -0.624 OA
HETATM    3  O   UNL     1     -46.396  53.773 -27.491  1.00  0.00    -0.624 OA
ENDROOT
BRANCH   1   4
HETATM    4  O   UNL     1     -46.008  51.494 -26.156  1.00  0.00    -0.287 OA
BRANCH   4   5
HETATM    5  C   UNL     1     -46.837  50.397 -26.295  1.00  0.00     0.216 C 
BRANCH   5   6
HETATM    6  C   UNL     1     -46.092  49.222 -25.587  1.00  0.00     0.180 C 
HETATM    7  C   UNL     1     -44.825  49.390 -25.556  1.00  0.00     0.182 C 
HETATM    8  C   UNL     1     -44.175  48.037 -26.258  1.00  0.00     0.198 C 
HETATM    9  C   UNL     1     -45.132  47.176 -26.134  1.00  0.00     0.262 C 
HETATM   10  O   UNL     1     -46.343  47.994 -26.513  1.00  0.00    -0.353 OA
BRANCH   7  11
HETATM   11  O   UNL     1     -44.320  49.323 -24.201  1.00  0.00    -0.390 OA
ATOM     12  HO  UNL     1     -43.769  48.549 -24.220  1.00  0.00     0.210 HD
ENDBRANCH   7  11
BRANCH   8  13
HETATM   13  O   UNL     1     -42.940  47.673 -25.574  1.00  0.00    -0.388 OA
ATOM     14  HO  UNL     1     -43.022  46.941 -24.974  1.00  0.00     0.210 HD
ENDBRANCH   8  13
BRANCH   9  15
HETATM   15  N   UNL     1     -44.938  46.086 -27.118  1.00  0.00    -0.297 N 
HETATM   16  C   UNL     1     -44.895  46.304 -28.466  1.00  0.00     0.142 A 
HETATM   17  N   UNL     1     -44.962  47.417 -29.225  1.00  0.00    -0.336 N 
HETATM   18  C   UNL     1     -44.777  45.081 -29.045  1.00  0.00     0.119 A 
HETATM   19  C   UNL     1     -44.919  47.312 -30.545  1.00  0.00     0.183 A 
ATOM     20  HN  UNL     1     -45.045  48.334 -28.784  1.00  0.00     0.168 HD
HETATM   21  N   UNL     1     -44.779  46.148 -31.125  1.00  0.00    -0.339 N 
HETATM   22  C   UNL     1     -44.714  45.018 -30.441  1.00  0.00     0.148 A 
ATOM     23  HN  UNL     1     -44.718  46.111 -32.143  1.00  0.00     0.167 HD
HETATM   24  N   UNL     1     -44.572  43.751 -31.076  1.00  0.00    -0.080 NA
HETATM   25  N   UNL     1     -44.738  44.165 -28.045  1.00  0.00    -0.346 N 
HETATM   26  C   UNL     1     -44.823  44.807 -26.870  1.00  0.00     0.188 A 
ATOM     27  HN  UNL     1     -44.657  43.156 -28.167  1.00  0.00     0.167 HD
ENDBRANCH   9  15
ENDBRANCH   5   6
ENDBRANCH   4   5
ENDBRANCH   1   4
BRANCH   1  28
HETATM   28  O   UNL     1     -44.194  52.572 -27.710  1.00  0.00    -0.180 OA
BRANCH  28  29
HETATM   29  P   UNL     1     -43.080  52.789 -26.505  1.00  0.00     0.417 P 
HETATM   30  O   UNL     1     -42.781  51.458 -25.852  1.00  0.00    -0.624 OA
HETATM   31  O   UNL     1     -41.924  53.490 -27.127  1.00  0.00    -0.624 OA
BRANCH  29  32
HETATM   32  O   UNL     1     -43.837  53.811 -25.417  1.00  0.00    -0.287 OA
BRANCH  32  33
HETATM   33  C   UNL     1     -44.214  53.275 -24.104  1.00  0.00     0.216 C 
BRANCH  33  34
HETATM   34  C   UNL     1     -43.058  53.578 -23.130  1.00  0.00     0.180 C 
HETATM   35  C   UNL     1     -42.156  52.317 -22.874  1.00  0.00     0.182 C 
HETATM   36  C   UNL     1     -42.585  51.856 -21.487  1.00  0.00     0.198 C 
HETATM   37  C   UNL     1     -42.775  53.048 -20.863  1.00  0.00     0.259 C 
HETATM   38  O   UNL     1     -43.577  53.914 -21.944  1.00  0.00    -0.353 OA
BRANCH  35  39
HETATM   39  O   UNL     1     -40.825  52.658 -22.865  1.00  0.00    -0.390 OA
ATOM     40  HO  UNL     1     -40.536  52.808 -21.972  1.00  0.00     0.210 HD
ENDBRANCH  35  39
BRANCH  36  41
HETATM   41  O   UNL     1     -41.510  51.023 -20.862  1.00  0.00    -0.388 OA
ATOM     42  HO  UNL     1     -40.709  51.083 -21.370  1.00  0.00     0.210 HD
ENDBRANCH  36  41
BRANCH  37  43
HETATM   43  N   UNL     1     -43.613  53.134 -19.709  1.00  0.00    -0.336 N 
HETATM   44  C   UNL     1     -44.885  53.555 -19.793  1.00  0.00     0.110 A 
HETATM   45  C   UNL     1     -45.653  53.687 -18.611  1.00  0.00     0.044 A 
HETATM   46  C   UNL     1     -45.137  53.420 -17.342  1.00  0.00     0.019 A 
HETATM   47  C   UNL     1     -43.781  52.994 -17.326  1.00  0.00     0.018 A 
HETATM   48  C   UNL     1     -43.058  52.884 -18.529  1.00  0.00     0.093 A 
BRANCH  45  49
HETATM   49  C   UNL     1     -47.111  54.115 -18.693  1.00  0.00     0.266 C 
HETATM   50  N   UNL     1     -47.450  55.121 -19.752  1.00  0.00    -0.057 NA
HETATM   51  O   UNL     1     -47.940  53.648 -17.934  1.00  0.00    -0.271 OA
ENDBRANCH  45  49
ENDBRANCH  37  43
ENDBRANCH  33  34
ENDBRANCH  32  33
ENDBRANCH  29  32
ENDBRANCH  28  29
ENDBRANCH   1  28
TORSDOF 15
ENDMDL
MODEL 9
REMARK VINA RESULT:   -10.870      1.772      2.926
REMARK INTER + INTRA:         -21.179
REMARK INTER:                 -19.646
REMARK INTRA:                  -1.532
REMARK UNBOUND:                -2.048
REMARK  15 active torsions:
REMARK  status: ('A' for Active; 'I' for Inactive)
REMARK    1  A    between atoms: P_1  and  O_4 
REMARK    2  A    between atoms: P_1  and  O_28 
REMARK    3  A    between atoms: O_4  and  C_5 
REMARK    4  A    between atoms: C_5  and  C_6 
REMARK    5  A    between atoms: C_8  and  O_9 
REMARK    6  A    between atoms: C_11  and  O_12 
REMARK    7  A    between atoms: C_14  and  N_15 
REMARK    8  A    between atoms: O_28  and  P_29 
REMARK    9  A    between atoms: P_29  and  O_32 
REMARK   10  A    between atoms: O_32  and  C_33 
REMARK   11  A    between atoms: C_33  and  C_34 
REMARK   12  A    between atoms: C_36  and  O_37 
REMARK   13  A    between atoms: C_39  and  O_40 
REMARK   14  A    between atoms: C_42  and  N_43 
REMARK   15  A    between atoms: C_45  and  C_46 
ROOT
HETATM    1  P   UNL     1     -43.674  51.435 -24.594  1.00  0.00     0.417 P 
HETATM    2  O   UNL     1     -42.484  51.366 -25.531  1.00  0.00    -0.624 OA
HETATM    3  O   UNL     1     -43.845  50.184 -23.793  1.00  0.00    -0.624 OA
ENDROOT
BRANCH   1   4
HETATM    4  O   UNL     1     -43.430  52.821 -23.728  1.00  0.00    -0.287 OA
BRANCH   4   5
HETATM    5  C   UNL     1     -44.358  53.823 -23.935  1.00  0.00     0.216 C 
BRANCH   5   6
HETATM    6  C   UNL     1     -45.365  53.708 -22.748  1.00  0.00     0.180 C 
HETATM    7  C   UNL     1     -45.765  54.847 -22.329  1.00  0.00     0.182 C 
HETATM    8  C   UNL     1     -45.424  54.875 -20.707  1.00  0.00     0.198 C 
HETATM    9  C   UNL     1     -45.330  53.617 -20.425  1.00  0.00     0.262 C 
HETATM   10  O   UNL     1     -44.526  53.090 -21.589  1.00  0.00    -0.353 OA
BRANCH   7  11
HETATM   11  O   UNL     1     -47.210  54.939 -22.354  1.00  0.00    -0.390 OA
ATOM     12  HO  UNL     1     -47.359  55.867 -22.487  1.00  0.00     0.210 HD
ENDBRANCH   7  11
BRANCH   8  13
HETATM   13  O   UNL     1     -46.483  55.579 -19.994  1.00  0.00    -0.388 OA
ATOM     14  HO  UNL     1     -47.250  55.775 -20.519  1.00  0.00     0.210 HD
ENDBRANCH   8  13
BRANCH   9  15
HETATM   15  N   UNL     1     -44.558  53.454 -19.172  1.00  0.00    -0.297 N 
HETATM   16  C   UNL     1     -43.226  53.151 -19.156  1.00  0.00     0.142 A 
HETATM   17  N   UNL     1     -42.308  52.969 -20.128  1.00  0.00    -0.336 N 
HETATM   18  C   UNL     1     -42.883  53.014 -17.849  1.00  0.00     0.119 A 
HETATM   19  C   UNL     1     -41.065  52.647 -19.802  1.00  0.00     0.183 A 
ATOM     20  HN  UNL     1     -42.571  53.078 -21.108  1.00  0.00     0.168 HD
HETATM   21  N   UNL     1     -40.703  52.535 -18.549  1.00  0.00    -0.339 N 
HETATM   22  C   UNL     1     -41.554  52.694 -17.548  1.00  0.00     0.148 A 
ATOM     23  HN  UNL     1     -39.730  52.318 -18.336  1.00  0.00     0.167 HD
HETATM   24  N   UNL     1     -41.160  52.562 -16.186  1.00  0.00    -0.080 NA
HETATM   25  N   UNL     1     -43.997  53.249 -17.114  1.00  0.00    -0.346 N 
HETATM   26  C   UNL     1     -45.010  53.533 -17.946  1.00  0.00     0.188 A 
ATOM     27  HN  UNL     1     -44.056  53.216 -16.096  1.00  0.00     0.167 HD
ENDBRANCH   9  15
ENDBRANCH   5   6
ENDBRANCH   4   5
ENDBRANCH   1   4
BRANCH   1  28
HETATM   28  O   UNL     1     -45.040  51.665 -25.441  1.00  0.00    -0.180 OA
BRANCH  28  29
HETATM   29  P   UNL     1     -45.566  50.757 -26.722  1.00  0.00     0.417 P 
HETATM   30  O   UNL     1     -47.032  51.037 -26.967  1.00  0.00    -0.624 OA
HETATM   31  O   UNL     1     -44.643  51.054 -27.850  1.00  0.00    -0.624 OA
BRANCH  29  32
HETATM   32  O   UNL     1     -45.353  49.173 -26.225  1.00  0.00    -0.287 OA
BRANCH  32  33
HETATM   33  C   UNL     1     -46.481  48.486 -25.585  1.00  0.00     0.216 C 
BRANCH  33  34
HETATM   34  C   UNL     1     -46.004  47.072 -25.197  1.00  0.00     0.180 C 
HETATM   35  C   UNL     1     -44.490  47.054 -24.779  1.00  0.00     0.182 C 
HETATM   36  C   UNL     1     -43.799  46.446 -25.994  1.00  0.00     0.198 C 
HETATM   37  C   UNL     1     -44.708  45.508 -26.368  1.00  0.00     0.259 C 
HETATM   38  O   UNL     1     -46.107  46.278 -26.268  1.00  0.00    -0.353 OA
BRANCH  35  39
HETATM   39  O   UNL     1     -44.293  46.255 -23.679  1.00  0.00    -0.390 OA
ATOM     40  HO  UNL     1     -44.861  46.533 -22.970  1.00  0.00     0.210 HD
ENDBRANCH  35  39
BRANCH  36  41
HETATM   41  O   UNL     1     -42.475  45.870 -25.602  1.00  0.00    -0.388 OA
ATOM     42  HO  UNL     1     -42.072  46.399 -24.924  1.00  0.00     0.210 HD
ENDBRANCH  36  41
BRANCH  37  43
HETATM   43  N   UNL     1     -44.720  45.008 -27.706  1.00  0.00    -0.336 N 
HETATM   44  C   UNL     1     -44.701  45.832 -28.765  1.00  0.00     0.110 A 
HETATM   45  C   UNL     1     -44.783  45.289 -30.070  1.00  0.00     0.044 A 
HETATM   46  C   UNL     1     -44.910  43.920 -30.312  1.00  0.00     0.019 A 
HETATM   47  C   UNL     1     -44.939  43.108 -29.145  1.00  0.00     0.018 A 
HETATM   48  C   UNL     1     -44.860  43.697 -27.869  1.00  0.00     0.093 A 
BRANCH  45  49
HETATM   49  C   UNL     1     -44.713  46.205 -31.283  1.00  0.00     0.266 C 
HETATM   50  N   UNL     1     -45.299  47.575 -31.117  1.00  0.00    -0.057 NA
HETATM   51  O   UNL     1     -44.197  45.827 -32.319  1.00  0.00    -0.271 OA
ENDBRANCH  45  49
ENDBRANCH  37  43
ENDBRANCH  33  34
ENDBRANCH  32  33
ENDBRANCH  29  32
ENDBRANCH  28  29
ENDBRANCH   1  28
TORSDOF 15
ENDMDL
MODEL 10
REMARK VINA RESULT:   -10.788      1.668      2.236
REMARK INTER + INTRA:         -21.034
REMARK INTER:                 -18.972
REMARK INTRA:                  -2.062
REMARK UNBOUND:                -2.048
REMARK  15 active torsions:
REMARK  status: ('A' for Active; 'I' for Inactive)
REMARK    1  A    between atoms: P_1  and  O_4 
REMARK    2  A    between atoms: P_1  and  O_28 
REMARK    3  A    between atoms: O_4  and  C_5 
REMARK    4  A    between atoms: C_5  and  C_6 
REMARK    5  A    between atoms: C_8  and  O_9 
REMARK    6  A    between atoms: C_11  and  O_12 
REMARK    7  A    between atoms: C_14  and  N_15 
REMARK    8  A    between atoms: O_28  and  P_29 
REMARK    9  A    between atoms: P_29  and  O_32 
REMARK   10  A    between atoms: O_32  and  C_33 
REMARK   11  A    between atoms: C_33  and  C_34 
REMARK   12  A    between atoms: C_36  and  O_37 
REMARK   13  A    between atoms: C_39  and  O_40 
REMARK   14  A    between atoms: C_42  and  N_43 
REMARK   15  A    between atoms: C_45  and  C_46 
ROOT
HETATM    1  P   UNL     1     -43.785  53.924 -26.079  1.00  0.00     0.417 P 
HETATM    2  O   UNL     1     -44.682  53.631 -24.893  1.00  0.00    -0.624 OA
HETATM    3  O   UNL     1     -43.977  55.308 -26.613  1.00  0.00    -0.624 OA
ENDROOT
BRANCH   1   4
HETATM    4  O   UNL     1     -42.265  53.563 -25.539  1.00  0.00    -0.287 OA
BRANCH   4   5
HETATM    5  C   UNL     1     -41.641  54.558 -24.811  1.00  0.00     0.216 C 
BRANCH   5   6
HETATM    6  C   UNL     1     -41.584  54.025 -23.345  1.00  0.00     0.180 C 
HETATM    7  C   UNL     1     -41.776  52.764 -23.271  1.00  0.00     0.182 C 
HETATM    8  C   UNL     1     -43.041  52.560 -22.220  1.00  0.00     0.198 C 
HETATM    9  C   UNL     1     -43.025  53.669 -21.555  1.00  0.00     0.262 C 
HETATM   10  O   UNL     1     -42.808  54.690 -22.645  1.00  0.00    -0.353 OA
BRANCH   7  11
HETATM   11  O   UNL     1     -40.682  52.105 -22.588  1.00  0.00    -0.390 OA
ATOM     12  HO  UNL     1     -41.060  51.269 -22.343  1.00  0.00     0.210 HD
ENDBRANCH   7  11
BRANCH   8  13
HETATM   13  O   UNL     1     -42.822  51.366 -21.413  1.00  0.00    -0.388 OA
ATOM     14  HO  UNL     1     -41.981  50.946 -21.548  1.00  0.00     0.210 HD
ENDBRANCH   8  13
BRANCH   9  15
HETATM   15  N   UNL     1     -44.350  53.881 -20.928  1.00  0.00    -0.297 N 
HETATM   16  C   UNL     1     -44.587  53.655 -19.601  1.00  0.00     0.142 A 
HETATM   17  N   UNL     1     -43.802  53.264 -18.577  1.00  0.00    -0.336 N 
HETATM   18  C   UNL     1     -45.911  53.887 -19.408  1.00  0.00     0.119 A 
HETATM   19  C   UNL     1     -44.333  53.099 -17.373  1.00  0.00     0.183 A 
ATOM     20  HN  UNL     1     -42.807  53.097 -18.727  1.00  0.00     0.168 HD
HETATM   21  N   UNL     1     -45.600  53.342 -17.155  1.00  0.00    -0.339 N 
HETATM   22  C   UNL     1     -46.425  53.721 -18.117  1.00  0.00     0.148 A 
ATOM     23  HN  UNL     1     -45.964  53.235 -16.208  1.00  0.00     0.167 HD
HETATM   24  N   UNL     1     -47.807  53.974 -17.878  1.00  0.00    -0.080 NA
HETATM   25  N   UNL     1     -46.434  54.257 -20.602  1.00  0.00    -0.346 N 
HETATM   26  C   UNL     1     -45.454  54.262 -21.518  1.00  0.00     0.188 A 
ATOM     27  HN  UNL     1     -47.411  54.493 -20.776  1.00  0.00     0.167 HD
ENDBRANCH   9  15
ENDBRANCH   5   6
ENDBRANCH   4   5
ENDBRANCH   1   4
BRANCH   1  28
HETATM   28  O   UNL     1     -44.096  52.885 -27.287  1.00  0.00    -0.180 OA
BRANCH  28  29
HETATM   29  P   UNL     1     -45.584  52.313 -27.732  1.00  0.00     0.417 P 
HETATM   30  O   UNL     1     -46.357  53.411 -28.427  1.00  0.00    -0.624 OA
HETATM   31  O   UNL     1     -45.336  51.079 -28.526  1.00  0.00    -0.624 OA
BRANCH  29  32
HETATM   32  O   UNL     1     -46.324  51.910 -26.286  1.00  0.00    -0.287 OA
BRANCH  32  33
HETATM   33  C   UNL     1     -47.115  50.675 -26.228  1.00  0.00     0.216 C 
BRANCH  33  34
HETATM   34  C   UNL     1     -46.341  49.668 -25.355  1.00  0.00     0.180 C 
HETATM   35  C   UNL     1     -44.861  50.127 -25.095  1.00  0.00     0.182 C 
HETATM   36  C   UNL     1     -44.050  49.232 -26.025  1.00  0.00     0.198 C 
HETATM   37  C   UNL     1     -44.729  48.060 -25.917  1.00  0.00     0.259 C 
HETATM   38  O   UNL     1     -46.263  48.505 -26.011  1.00  0.00    -0.353 OA
BRANCH  35  39
HETATM   39  O   UNL     1     -44.497  49.899 -23.790  1.00  0.00    -0.390 OA
ATOM     40  HO  UNL     1     -44.441  48.965 -23.628  1.00  0.00     0.210 HD
ENDBRANCH  35  39
BRANCH  36  41
HETATM   41  O   UNL     1     -42.632  49.143 -25.553  1.00  0.00    -0.388 OA
ATOM     42  HO  UNL     1     -42.393  48.237 -25.398  1.00  0.00     0.210 HD
ENDBRANCH  36  41
BRANCH  37  43
HETATM   43  N   UNL     1     -44.628  47.069 -26.941  1.00  0.00    -0.336 N 
HETATM   44  C   UNL     1     -44.675  47.395 -28.242  1.00  0.00     0.110 A 
HETATM   45  C   UNL     1     -44.638  46.370 -29.218  1.00  0.00     0.044 A 
HETATM   46  C   UNL     1     -44.579  45.015 -28.887  1.00  0.00     0.019 A 
HETATM   47  C   UNL     1     -44.547  44.742 -27.492  1.00  0.00     0.018 A 
HETATM   48  C   UNL     1     -44.592  45.797 -26.562  1.00  0.00     0.093 A 
BRANCH  45  49
HETATM   49  C   UNL     1     -44.641  46.725 -30.698  1.00  0.00     0.266 C 
HETATM   50  N   UNL     1     -44.862  45.591 -31.653  1.00  0.00    -0.057 NA
HETATM   51  O   UNL     1     -44.477  47.875 -31.062  1.00  0.00    -0.271 OA
ENDBRANCH  45  49
ENDBRANCH  37  43
ENDBRANCH  33  34
ENDBRANCH  32  33
ENDBRANCH  29  32
ENDBRANCH  28  29
ENDBRANCH   1  28
TORSDOF 15
ENDMDL
MODEL 11
REMARK VINA RESULT:   -10.752      2.087     10.584
REMARK INTER + INTRA:         -20.971
REMARK INTER:                 -18.648
REMARK INTRA:                  -2.322
REMARK UNBOUND:                -2.048
REMARK  15 active torsions:
REMARK  status: ('A' for Active; 'I' for Inactive)
REMARK    1  A    between atoms: P_1  and  O_4 
REMARK    2  A    between atoms: P_1  and  O_28 
REMARK    3  A    between atoms: O_4  and  C_5 
REMARK    4  A    between atoms: C_5  and  C_6 
REMARK    5  A    between atoms: C_8  and  O_9 
REMARK    6  A    between atoms: C_11  and  O_12 
REMARK    7  A    between atoms: C_14  and  N_15 
REMARK    8  A    between atoms: O_28  and  P_29 
REMARK    9  A    between atoms: P_29  and  O_32 
REMARK   10  A    between atoms: O_32  and  C_33 
REMARK   11  A    between atoms: C_33  and  C_34 
REMARK   12  A    between atoms: C_36  and  O_37 
REMARK   13  A    between atoms: C_39  and  O_40 
REMARK   14  A    between atoms: C_42  and  N_43 
REMARK   15  A    between atoms: C_45  and  C_46 
ROOT
HETATM    1  P   UNL     1     -45.018  52.278 -27.283  1.00  0.00     0.417 P 
HETATM    2  O   UNL     1     -45.524  52.639 -28.667  1.00  0.00    -0.624 OA
HETATM    3  O   UNL     1     -45.769  52.983 -26.199  1.00  0.00    -0.624 OA
ENDROOT
BRANCH   1   4
HETATM    4  O   UNL     1     -45.077  50.627 -27.247  1.00  0.00    -0.287 OA
BRANCH   4   5
HETATM    5  C   UNL     1     -46.035  50.085 -26.412  1.00  0.00     0.216 C 
BRANCH   5   6
HETATM    6  C   UNL     1     -45.343  48.867 -25.723  1.00  0.00     0.180 C 
HETATM    7  C   UNL     1     -44.069  48.909 -25.813  1.00  0.00     0.182 C 
HETATM    8  C   UNL     1     -43.619  47.474 -26.509  1.00  0.00     0.198 C 
HETATM    9  C   UNL     1     -44.638  46.718 -26.263  1.00  0.00     0.262 C 
HETATM   10  O   UNL     1     -45.796  47.638 -26.567  1.00  0.00    -0.353 OA
BRANCH   7  11
HETATM   11  O   UNL     1     -43.448  48.840 -24.506  1.00  0.00    -0.390 OA
ATOM     12  HO  UNL     1     -42.586  49.206 -24.663  1.00  0.00     0.210 HD
ENDBRANCH   7  11
BRANCH   8  13
HETATM   13  O   UNL     1     -42.366  47.014 -25.922  1.00  0.00    -0.388 OA
ATOM     14  HO  UNL     1     -42.110  47.471 -25.129  1.00  0.00     0.210 HD
ENDBRANCH   8  13
BRANCH   9  15
HETATM   15  N   UNL     1     -44.642  45.580 -27.210  1.00  0.00    -0.297 N 
HETATM   16  C   UNL     1     -44.678  45.746 -28.567  1.00  0.00     0.142 A 
HETATM   17  N   UNL     1     -44.678  46.833 -29.365  1.00  0.00    -0.336 N 
HETATM   18  C   UNL     1     -44.740  44.498 -29.100  1.00  0.00     0.119 A 
HETATM   19  C   UNL     1     -44.748  46.679 -30.679  1.00  0.00     0.183 A 
ATOM     20  HN  UNL     1     -44.625  47.767 -28.959  1.00  0.00     0.168 HD
HETATM   21  N   UNL     1     -44.782  45.487 -31.218  1.00  0.00    -0.339 N 
HETATM   22  C   UNL     1     -44.791  44.381 -30.493  1.00  0.00     0.148 A 
ATOM     23  HN  UNL     1     -44.803  45.408 -32.235  1.00  0.00     0.167 HD
HETATM   24  N   UNL     1     -44.840  43.085 -31.083  1.00  0.00    -0.080 NA
HETATM   25  N   UNL     1     -44.727  43.619 -28.068  1.00  0.00    -0.346 N 
HETATM   26  C   UNL     1     -44.651  44.305 -26.918  1.00  0.00     0.188 A 
ATOM     27  HN  UNL     1     -44.769  42.603 -28.153  1.00  0.00     0.167 HD
ENDBRANCH   9  15
ENDBRANCH   5   6
ENDBRANCH   4   5
ENDBRANCH   1   4
BRANCH   1  28
HETATM   28  O   UNL     1     -43.453  52.681 -27.137  1.00  0.00    -0.180 OA
BRANCH  28  29
HETATM   29  P   UNL     1     -42.466  52.338 -25.853  1.00  0.00     0.417 P 
HETATM   30  O   UNL     1     -43.290  51.751 -24.729  1.00  0.00    -0.624 OA
HETATM   31  O   UNL     1     -41.373  51.479 -26.384  1.00  0.00    -0.624 OA
BRANCH  29  32
HETATM   32  O   UNL     1     -41.842  53.824 -25.400  1.00  0.00    -0.287 OA
BRANCH  32  33
HETATM   33  C   UNL     1     -41.987  54.952 -26.327  1.00  0.00     0.216 C 
BRANCH  33  34
HETATM   34  C   UNL     1     -42.997  55.937 -25.706  1.00  0.00     0.180 C 
HETATM   35  C   UNL     1     -42.286  57.076 -24.891  1.00  0.00     0.182 C 
HETATM   36  C   UNL     1     -42.511  56.661 -23.442  1.00  0.00     0.198 C 
HETATM   37  C   UNL     1     -43.774  56.165 -23.506  1.00  0.00     0.259 C 
HETATM   38  O   UNL     1     -43.760  55.271 -24.833  1.00  0.00    -0.353 OA
BRANCH  35  39
HETATM   39  O   UNL     1     -42.879  58.293 -25.127  1.00  0.00    -0.390 OA
ATOM     40  HO  UNL     1     -43.202  58.328 -26.020  1.00  0.00     0.210 HD
ENDBRANCH  35  39
BRANCH  36  41
HETATM   41  O   UNL     1     -42.382  57.846 -22.537  1.00  0.00    -0.388 OA
ATOM     42  HO  UNL     1     -42.746  58.619 -22.953  1.00  0.00     0.210 HD
ENDBRANCH  36  41
BRANCH  37  43
HETATM   43  N   UNL     1     -44.240  55.247 -22.515  1.00  0.00    -0.336 N 
HETATM   44  C   UNL     1     -45.293  55.531 -21.734  1.00  0.00     0.110 A 
HETATM   45  C   UNL     1     -45.675  54.618 -20.721  1.00  0.00     0.044 A 
HETATM   46  C   UNL     1     -44.984  53.430 -20.478  1.00  0.00     0.019 A 
HETATM   47  C   UNL     1     -43.871  53.200 -21.332  1.00  0.00     0.018 A 
HETATM   48  C   UNL     1     -43.529  54.142 -22.320  1.00  0.00     0.093 A 
BRANCH  45  49
HETATM   49  C   UNL     1     -46.896  54.901 -19.859  1.00  0.00     0.266 C 
HETATM   50  N   UNL     1     -46.826  54.439 -18.434  1.00  0.00    -0.057 NA
HETATM   51  O   UNL     1     -47.863  55.479 -20.321  1.00  0.00    -0.271 OA
ENDBRANCH  45  49
ENDBRANCH  37  43
ENDBRANCH  33  34
ENDBRANCH  32  33
ENDBRANCH  29  32
ENDBRANCH  28  29
ENDBRANCH   1  28
TORSDOF 15
ENDMDL
MODEL 12
REMARK VINA RESULT:   -10.631      1.878     10.427
REMARK INTER + INTRA:         -20.758
REMARK INTER:                 -18.429
REMARK INTRA:                  -2.329
REMARK UNBOUND:                -2.048
REMARK  15 active torsions:
REMARK  status: ('A' for Active; 'I' for Inactive)
REMARK    1  A    between atoms: P_1  and  O_4 
REMARK    2  A    between atoms: P_1  and  O_28 
REMARK    3  A    between atoms: O_4  and  C_5 
REMARK    4  A    between atoms: C_5  and  C_6 
REMARK    5  A    between atoms: C_8  and  O_9 
REMARK    6  A    between atoms: C_11  and  O_12 
REMARK    7  A    between atoms: C_14  and  N_15 
REMARK    8  A    between atoms: O_28  and  P_29 
REMARK    9  A    between atoms: P_29  and  O_32 
REMARK   10  A    between atoms: O_32  and  C_33 
REMARK   11  A    between atoms: C_33  and  C_34 
REMARK   12  A    between atoms: C_36  and  O_37 
REMARK   13  A    between atoms: C_39  and  O_40 
REMARK   14  A    between atoms: C_42  and  N_43 
REMARK   15  A    between atoms: C_45  and  C_46 
ROOT
HETATM    1  P   UNL     1     -47.170  50.131 -26.766  1.00  0.00     0.417 P 
HETATM    2  O   UNL     1     -47.201  49.849 -28.255  1.00  0.00    -0.624 OA
HETATM    3  O   UNL     1     -48.485  49.862 -26.106  1.00  0.00    -0.624 OA
ENDROOT
BRANCH   1   4
HETATM    4  O   UNL     1     -45.889  49.247 -26.210  1.00  0.00    -0.287 OA
BRANCH   4   5
HETATM    5  C   UNL     1     -45.976  48.838 -24.894  1.00  0.00     0.216 C 
BRANCH   5   6
HETATM    6  C   UNL     1     -45.620  47.318 -24.908  1.00  0.00     0.180 C 
HETATM    7  C   UNL     1     -44.375  47.102 -24.714  1.00  0.00     0.182 C 
HETATM    8  C   UNL     1     -43.870  46.194 -26.005  1.00  0.00     0.198 C 
HETATM    9  C   UNL     1     -44.978  45.685 -26.433  1.00  0.00     0.262 C 
HETATM   10  O   UNL     1     -45.915  46.867 -26.370  1.00  0.00    -0.353 OA
BRANCH   7  11
HETATM   11  O   UNL     1     -44.166  46.209 -23.593  1.00  0.00    -0.390 OA
ATOM     12  HO  UNL     1     -44.592  45.410 -23.878  1.00  0.00     0.210 HD
ENDBRANCH   7  11
BRANCH   8  13
HETATM   13  O   UNL     1     -42.884  45.215 -25.562  1.00  0.00    -0.388 OA
ATOM     14  HO  UNL     1     -41.996  45.548 -25.502  1.00  0.00     0.210 HD
ENDBRANCH   8  13
BRANCH   9  15
HETATM   15  N   UNL     1     -44.808  45.258 -27.841  1.00  0.00    -0.297 N 
HETATM   16  C   UNL     1     -44.831  46.135 -28.889  1.00  0.00     0.142 A 
HETATM   17  N   UNL     1     -44.955  47.476 -28.969  1.00  0.00    -0.336 N 
HETATM   18  C   UNL     1     -44.714  45.384 -30.015  1.00  0.00     0.119 A 
HETATM   19  C   UNL     1     -44.971  48.061 -30.158  1.00  0.00     0.183 A 
ATOM     20  HN  UNL     1     -45.037  48.035 -28.120  1.00  0.00     0.168 HD
HETATM   21  N   UNL     1     -44.834  47.363 -31.256  1.00  0.00    -0.339 N 
HETATM   22  C   UNL     1     -44.714  46.045 -31.248  1.00  0.00     0.148 A 
ATOM     23  HN  UNL     1     -44.819  47.852 -32.151  1.00  0.00     0.167 HD
HETATM   24  N   UNL     1     -44.576  45.287 -32.446  1.00  0.00    -0.080 NA
HETATM   25  N   UNL     1     -44.610  44.090 -29.626  1.00  0.00    -0.346 N 
HETATM   26  C   UNL     1     -44.654  44.037 -28.287  1.00  0.00     0.188 A 
ATOM     27  HN  UNL     1     -44.515  43.288 -30.250  1.00  0.00     0.167 HD
ENDBRANCH   9  15
ENDBRANCH   5   6
ENDBRANCH   4   5
ENDBRANCH   1   4
BRANCH   1  28
HETATM   28  O   UNL     1     -46.797  51.688 -26.499  1.00  0.00    -0.180 OA
BRANCH  28  29
HETATM   29  P   UNL     1     -45.525  52.520 -27.155  1.00  0.00     0.417 P 
HETATM   30  O   UNL     1     -44.782  51.623 -28.119  1.00  0.00    -0.624 OA
HETATM   31  O   UNL     1     -46.095  53.771 -27.726  1.00  0.00    -0.624 OA
BRANCH  29  32
HETATM   32  O   UNL     1     -44.553  52.895 -25.845  1.00  0.00    -0.287 OA
BRANCH  32  33
HETATM   33  C   UNL     1     -44.396  51.892 -24.784  1.00  0.00     0.216 C 
BRANCH  33  34
HETATM   34  C   UNL     1     -45.171  52.395 -23.551  1.00  0.00     0.180 C 
HETATM   35  C   UNL     1     -45.283  53.962 -23.522  1.00  0.00     0.182 C 
HETATM   36  C   UNL     1     -44.263  54.365 -22.464  1.00  0.00     0.198 C 
HETATM   37  C   UNL     1     -44.423  53.370 -21.553  1.00  0.00     0.259 C 
HETATM   38  O   UNL     1     -44.494  52.047 -22.451  1.00  0.00    -0.353 OA
BRANCH  35  39
HETATM   39  O   UNL     1     -46.540  54.358 -23.135  1.00  0.00    -0.390 OA
ATOM     40  HO  UNL     1     -46.571  55.305 -23.056  1.00  0.00     0.210 HD
ENDBRANCH  35  39
BRANCH  36  41
HETATM   41  O   UNL     1     -44.585  55.724 -21.924  1.00  0.00    -0.388 OA
ATOM     42  HO  UNL     1     -45.526  55.835 -21.853  1.00  0.00     0.210 HD
ENDBRANCH  36  41
BRANCH  37  43
HETATM   43  N   UNL     1     -43.381  53.064 -20.626  1.00  0.00    -0.336 N 
HETATM   44  C   UNL     1     -43.566  53.165 -19.301  1.00  0.00     0.110 A 
HETATM   45  C   UNL     1     -42.482  52.915 -18.425  1.00  0.00     0.044 A 
HETATM   46  C   UNL     1     -41.204  52.588 -18.882  1.00  0.00     0.019 A 
HETATM   47  C   UNL     1     -41.075  52.513 -20.296  1.00  0.00     0.018 A 
HETATM   48  C   UNL     1     -42.183  52.776 -21.123  1.00  0.00     0.093 A 
BRANCH  45  49
HETATM   49  C   UNL     1     -42.687  52.977 -16.919  1.00  0.00     0.266 C 
HETATM   50  N   UNL     1     -44.106  52.925 -16.439  1.00  0.00    -0.057 NA
HETATM   51  O   UNL     1     -41.735  53.058 -16.164  1.00  0.00    -0.271 OA
ENDBRANCH  45  49
ENDBRANCH  37  43
ENDBRANCH  33  34
ENDBRANCH  32  33
ENDBRANCH  29  32
ENDBRANCH  28  29
ENDBRANCH   1  28
TORSDOF 15
ENDMDL
MODEL 13
REMARK VINA RESULT:   -10.542      3.145      3.774
REMARK INTER + INTRA:         -20.601
REMARK INTER:                 -18.822
REMARK INTRA:                  -1.778
REMARK UNBOUND:                -2.048
REMARK  15 active torsions:
REMARK  status: ('A' for Active; 'I' for Inactive)
REMARK    1  A    between atoms: P_1  and  O_4 
REMARK    2  A    between atoms: P_1  and  O_28 
REMARK    3  A    between atoms: O_4  and  C_5 
REMARK    4  A    between atoms: C_5  and  C_6 
REMARK    5  A    between atoms: C_8  and  O_9 
REMARK    6  A    between atoms: C_11  and  O_12 
REMARK    7  A    between atoms: C_14  and  N_15 
REMARK    8  A    between atoms: O_28  and  P_29 
REMARK    9  A    between atoms: P_29  and  O_32 
REMARK   10  A    between atoms: O_32  and  C_33 
REMARK   11  A    between atoms: C_33  and  C_34 
REMARK   12  A    between atoms: C_36  and  O_37 
REMARK   13  A    between atoms: C_39  and  O_40 
REMARK   14  A    between atoms: C_42  and  N_43 
REMARK   15  A    between atoms: C_45  and  C_46 
ROOT
HETATM    1  P   UNL     1     -45.206  52.215 -26.991  1.00  0.00     0.417 P 
HETATM    2  O   UNL     1     -46.391  52.939 -26.382  1.00  0.00    -0.624 OA
HETATM    3  O   UNL     1     -45.009  52.555 -28.434  1.00  0.00    -0.624 OA
ENDROOT
BRANCH   1   4
HETATM    4  O   UNL     1     -43.947  52.579 -25.984  1.00  0.00    -0.287 OA
BRANCH   4   5
HETATM    5  C   UNL     1     -43.301  53.771 -26.248  1.00  0.00     0.216 C 
BRANCH   5   6
HETATM    6  C   UNL     1     -42.014  53.750 -25.364  1.00  0.00     0.180 C 
HETATM    7  C   UNL     1     -42.224  53.263 -24.201  1.00  0.00     0.182 C 
HETATM    8  C   UNL     1     -41.714  54.419 -23.129  1.00  0.00     0.198 C 
HETATM    9  C   UNL     1     -40.907  55.125 -23.851  1.00  0.00     0.262 C 
HETATM   10  O   UNL     1     -41.671  55.255 -25.147  1.00  0.00    -0.353 OA
BRANCH   7  11
HETATM   11  O   UNL     1     -41.331  52.156 -23.927  1.00  0.00    -0.390 OA
ATOM     12  HO  UNL     1     -41.361  51.656 -24.734  1.00  0.00     0.210 HD
ENDBRANCH   7  11
BRANCH   8  13
HETATM   13  O   UNL     1     -41.095  53.781 -21.974  1.00  0.00    -0.388 OA
ATOM     14  HO  UNL     1     -40.784  52.897 -22.131  1.00  0.00     0.210 HD
ENDBRANCH   8  13
BRANCH   9  15
HETATM   15  N   UNL     1     -40.742  56.461 -23.234  1.00  0.00    -0.297 N 
HETATM   16  C   UNL     1     -39.707  56.767 -22.395  1.00  0.00     0.142 A 
HETATM   17  N   UNL     1     -38.640  56.071 -21.954  1.00  0.00    -0.336 N 
HETATM   18  C   UNL     1     -39.922  58.041 -21.977  1.00  0.00     0.119 A 
HETATM   19  C   UNL     1     -37.798  56.637 -21.100  1.00  0.00     0.183 A 
ATOM     20  HN  UNL     1     -38.481  55.116 -22.275  1.00  0.00     0.168 HD
HETATM   21  N   UNL     1     -37.968  57.872 -20.703  1.00  0.00    -0.339 N 
HETATM   22  C   UNL     1     -38.997  58.607 -21.092  1.00  0.00     0.148 A 
ATOM     23  HN  UNL     1     -37.281  58.283 -20.071  1.00  0.00     0.167 HD
HETATM   24  N   UNL     1     -39.185  59.948 -20.649  1.00  0.00    -0.080 NA
HETATM   25  N   UNL     1     -41.057  58.476 -22.576  1.00  0.00    -0.346 N 
HETATM   26  C   UNL     1     -41.535  57.495 -23.356  1.00  0.00     0.188 A 
ATOM     27  HN  UNL     1     -41.479  59.397 -22.454  1.00  0.00     0.167 HD
ENDBRANCH   9  15
ENDBRANCH   5   6
ENDBRANCH   4   5
ENDBRANCH   1   4
BRANCH   1  28
HETATM   28  O   UNL     1     -45.418  50.609 -26.890  1.00  0.00    -0.180 OA
BRANCH  28  29
HETATM   29  P   UNL     1     -46.810  49.779 -27.227  1.00  0.00     0.417 P 
HETATM   30  O   UNL     1     -47.961  50.399 -26.467  1.00  0.00    -0.624 OA
HETATM   31  O   UNL     1     -46.936  49.761 -28.710  1.00  0.00    -0.624 OA
BRANCH  29  32
HETATM   32  O   UNL     1     -46.515  48.228 -26.670  1.00  0.00    -0.287 OA
BRANCH  32  33
HETATM   33  C   UNL     1     -46.458  48.008 -25.220  1.00  0.00     0.216 C 
BRANCH  33  34
HETATM   34  C   UNL     1     -45.866  46.604 -24.987  1.00  0.00     0.180 C 
HETATM   35  C   UNL     1     -44.328  46.656 -24.673  1.00  0.00     0.182 C 
HETATM   36  C   UNL     1     -43.690  46.197 -25.979  1.00  0.00     0.198 C 
HETATM   37  C   UNL     1     -44.562  45.232 -26.370  1.00  0.00     0.259 C 
HETATM   38  O   UNL     1     -45.995  45.894 -26.113  1.00  0.00    -0.353 OA
BRANCH  35  39
HETATM   39  O   UNL     1     -44.002  45.786 -23.661  1.00  0.00    -0.390 OA
ATOM     40  HO  UNL     1     -43.177  45.357 -23.856  1.00  0.00     0.210 HD
ENDBRANCH  35  39
BRANCH  36  41
HETATM   41  O   UNL     1     -42.307  45.683 -25.727  1.00  0.00    -0.388 OA
ATOM     42  HO  UNL     1     -41.964  46.043 -24.917  1.00  0.00     0.210 HD
ENDBRANCH  36  41
BRANCH  37  43
HETATM   43  N   UNL     1     -44.639  44.842 -27.742  1.00  0.00    -0.336 N 
HETATM   44  C   UNL     1     -44.611  45.746 -28.733  1.00  0.00     0.110 A 
HETATM   45  C   UNL     1     -44.759  45.314 -30.074  1.00  0.00     0.044 A 
HETATM   46  C   UNL     1     -44.960  43.976 -30.418  1.00  0.00     0.019 A 
HETATM   47  C   UNL     1     -44.994  43.076 -29.318  1.00  0.00     0.018 A 
HETATM   48  C   UNL     1     -44.848  43.556 -28.003  1.00  0.00     0.093 A 
BRANCH  45  49
HETATM   49  C   UNL     1     -44.680  46.320 -31.212  1.00  0.00     0.266 C 
HETATM   50  N   UNL     1     -45.182  47.701 -30.916  1.00  0.00    -0.057 NA
HETATM   51  O   UNL     1     -44.223  46.000 -32.295  1.00  0.00    -0.271 OA
ENDBRANCH  45  49
ENDBRANCH  37  43
ENDBRANCH  33  34
ENDBRANCH  32  33
ENDBRANCH  29  32
ENDBRANCH  28  29
ENDBRANCH   1  28
TORSDOF 15
ENDMDL
MODEL 14
REMARK VINA RESULT:   -10.536      2.064     10.238
REMARK INTER + INTRA:         -20.590
REMARK INTER:                 -18.238
REMARK INTRA:                  -2.352
REMARK UNBOUND:                -2.048
REMARK  15 active torsions:
REMARK  status: ('A' for Active; 'I' for Inactive)
REMARK    1  A    between atoms: P_1  and  O_4 
REMARK    2  A    between atoms: P_1  and  O_28 
REMARK    3  A    between atoms: O_4  and  C_5 
REMARK    4  A    between atoms: C_5  and  C_6 
REMARK    5  A    between atoms: C_8  and  O_9 
REMARK    6  A    between atoms: C_11  and  O_12 
REMARK    7  A    between atoms: C_14  and  N_15 
REMARK    8  A    between atoms: O_28  and  P_29 
REMARK    9  A    between atoms: P_29  and  O_32 
REMARK   10  A    between atoms: O_32  and  C_33 
REMARK   11  A    between atoms: C_33  and  C_34 
REMARK   12  A    between atoms: C_36  and  O_37 
REMARK   13  A    between atoms: C_39  and  O_40 
REMARK   14  A    between atoms: C_42  and  N_43 
REMARK   15  A    between atoms: C_45  and  C_46 
ROOT
HETATM    1  P   UNL     1     -44.723  52.677 -27.134  1.00  0.00     0.417 P 
HETATM    2  O   UNL     1     -45.052  52.017 -28.459  1.00  0.00    -0.624 OA
HETATM    3  O   UNL     1     -45.229  54.082 -27.054  1.00  0.00    -0.624 OA
ENDROOT
BRANCH   1   4
HETATM    4  O   UNL     1     -45.315  51.630 -26.000  1.00  0.00    -0.287 OA
BRANCH   4   5
HETATM    5  C   UNL     1     -45.945  50.507 -26.500  1.00  0.00     0.216 C 
BRANCH   5   6
HETATM    6  C   UNL     1     -45.278  49.298 -25.771  1.00  0.00     0.180 C 
HETATM    7  C   UNL     1     -44.002  49.328 -25.836  1.00  0.00     0.182 C 
HETATM    8  C   UNL     1     -43.550  47.876 -26.493  1.00  0.00     0.198 C 
HETATM    9  C   UNL     1     -44.580  47.133 -26.253  1.00  0.00     0.262 C 
HETATM   10  O   UNL     1     -45.724  48.055 -26.600  1.00  0.00    -0.353 OA
BRANCH   7  11
HETATM   11  O   UNL     1     -43.408  49.281 -24.516  1.00  0.00    -0.390 OA
ATOM     12  HO  UNL     1     -43.225  50.195 -24.335  1.00  0.00     0.210 HD
ENDBRANCH   7  11
BRANCH   8  13
HETATM   13  O   UNL     1     -42.313  47.418 -25.872  1.00  0.00    -0.388 OA
ATOM     14  HO  UNL     1     -42.087  46.515 -26.061  1.00  0.00     0.210 HD
ENDBRANCH   8  13
BRANCH   9  15
HETATM   15  N   UNL     1     -44.574  45.975 -27.177  1.00  0.00    -0.297 N 
HETATM   16  C   UNL     1     -44.652  46.111 -28.534  1.00  0.00     0.142 A 
HETATM   17  N   UNL     1     -44.708  47.181 -29.354  1.00  0.00    -0.336 N 
HETATM   18  C   UNL     1     -44.690  44.851 -29.040  1.00  0.00     0.119 A 
HETATM   19  C   UNL     1     -44.809  46.997 -30.663  1.00  0.00     0.183 A 
ATOM     20  HN  UNL     1     -44.673  48.125 -28.969  1.00  0.00     0.168 HD
HETATM   21  N   UNL     1     -44.820  45.794 -31.176  1.00  0.00    -0.339 N 
HETATM   22  C   UNL     1     -44.775  44.703 -30.429  1.00  0.00     0.148 A 
ATOM     23  HN  UNL     1     -44.867  45.693 -32.190  1.00  0.00     0.167 HD
HETATM   24  N   UNL     1     -44.799  43.394 -30.991  1.00  0.00    -0.080 NA
HETATM   25  N   UNL     1     -44.622  43.995 -27.992  1.00  0.00    -0.346 N 
HETATM   26  C   UNL     1     -44.535  44.707 -26.858  1.00  0.00     0.188 A 
ATOM     27  HN  UNL     1     -44.634  42.976 -28.054  1.00  0.00     0.167 HD
ENDBRANCH   9  15
ENDBRANCH   5   6
ENDBRANCH   4   5
ENDBRANCH   1   4
BRANCH   1  28
HETATM   28  O   UNL     1     -43.115  52.722 -26.914  1.00  0.00    -0.180 OA
BRANCH  28  29
HETATM   29  P   UNL     1     -42.250  53.962 -26.240  1.00  0.00     0.417 P 
HETATM   30  O   UNL     1     -41.433  54.645 -27.313  1.00  0.00    -0.624 OA
HETATM   31  O   UNL     1     -43.235  54.815 -25.521  1.00  0.00    -0.624 OA
BRANCH  29  32
HETATM   32  O   UNL     1     -41.243  53.212 -25.133  1.00  0.00    -0.287 OA
BRANCH  32  33
HETATM   33  C   UNL     1     -40.857  53.956 -23.928  1.00  0.00     0.216 C 
BRANCH  33  34
HETATM   34  C   UNL     1     -41.530  53.271 -22.723  1.00  0.00     0.180 C 
HETATM   35  C   UNL     1     -42.433  52.062 -23.159  1.00  0.00     0.182 C 
HETATM   36  C   UNL     1     -43.846  52.619 -23.036  1.00  0.00     0.198 C 
HETATM   37  C   UNL     1     -43.729  53.381 -21.918  1.00  0.00     0.259 C 
HETATM   38  O   UNL     1     -42.343  54.151 -22.130  1.00  0.00    -0.353 OA
BRANCH  35  39
HETATM   39  O   UNL     1     -42.273  50.995 -22.308  1.00  0.00    -0.390 OA
ATOM     40  HO  UNL     1     -43.078  50.491 -22.266  1.00  0.00     0.210 HD
ENDBRANCH  35  39
BRANCH  36  41
HETATM   41  O   UNL     1     -44.833  51.502 -22.896  1.00  0.00    -0.388 OA
ATOM     42  HO  UNL     1     -45.671  51.755 -23.266  1.00  0.00     0.210 HD
ENDBRANCH  36  41
BRANCH  37  43
HETATM   43  N   UNL     1     -44.646  54.448 -21.671  1.00  0.00    -0.336 N 
HETATM   44  C   UNL     1     -45.734  54.277 -20.905  1.00  0.00     0.110 A 
HETATM   45  C   UNL     1     -46.649  55.347 -20.747  1.00  0.00     0.044 A 
HETATM   46  C   UNL     1     -46.483  56.581 -21.378  1.00  0.00     0.019 A 
HETATM   47  C   UNL     1     -45.317  56.687 -22.185  1.00  0.00     0.018 A 
HETATM   48  C   UNL     1     -44.443  55.592 -22.315  1.00  0.00     0.093 A 
BRANCH  45  49
HETATM   49  C   UNL     1     -47.861  55.186 -19.842  1.00  0.00     0.266 C 
HETATM   50  N   UNL     1     -47.609  54.592 -18.490  1.00  0.00    -0.057 NA
HETATM   51  O   UNL     1     -48.967  55.536 -20.216  1.00  0.00    -0.271 OA
ENDBRANCH  45  49
ENDBRANCH  37  43
ENDBRANCH  33  34
ENDBRANCH  32  33
ENDBRANCH  29  32
ENDBRANCH  28  29
ENDBRANCH   1  28
TORSDOF 15
ENDMDL
MODEL 15
REMARK VINA RESULT:   -10.452      2.832      3.702
REMARK INTER + INTRA:         -20.442
REMARK INTER:                 -18.738
REMARK INTRA:                  -1.704
REMARK UNBOUND:                -2.048
REMARK  15 active torsions:
REMARK  status: ('A' for Active; 'I' for Inactive)
REMARK    1  A    between atoms: P_1  and  O_4 
REMARK    2  A    between atoms: P_1  and  O_28 
REMARK    3  A    between atoms: O_4  and  C_5 
REMARK    4  A    between atoms: C_5  and  C_6 
REMARK    5  A    between atoms: C_8  and  O_9 
REMARK    6  A    between atoms: C_11  and  O_12 
REMARK    7  A    between atoms: C_14  and  N_15 
REMARK    8  A    between atoms: O_28  and  P_29 
REMARK    9  A    between atoms: P_29  and  O_32 
REMARK   10  A    between atoms: O_32  and  C_33 
REMARK   11  A    between atoms: C_33  and  C_34 
REMARK   12  A    between atoms: C_36  and  O_37 
REMARK   13  A    between atoms: C_39  and  O_40 
REMARK   14  A    between atoms: C_42  and  N_43 
REMARK   15  A    between atoms: C_45  and  C_46 
ROOT
HETATM    1  P   UNL     1     -45.292  52.279 -27.053  1.00  0.00     0.417 P 
HETATM    2  O   UNL     1     -46.420  53.276 -26.878  1.00  0.00    -0.624 OA
HETATM    3  O   UNL     1     -44.967  52.029 -28.492  1.00  0.00    -0.624 OA
ENDROOT
BRANCH   1   4
HETATM    4  O   UNL     1     -44.063  52.888 -26.131  1.00  0.00    -0.287 OA
BRANCH   4   5
HETATM    5  C   UNL     1     -42.837  52.272 -26.291  1.00  0.00     0.216 C 
BRANCH   5   6
HETATM    6  C   UNL     1     -42.114  52.424 -24.916  1.00  0.00     0.180 C 
HETATM    7  C   UNL     1     -42.926  52.422 -23.929  1.00  0.00     0.182 C 
HETATM    8  C   UNL     1     -42.625  53.822 -23.095  1.00  0.00     0.198 C 
HETATM    9  C   UNL     1     -41.426  54.117 -23.478  1.00  0.00     0.262 C 
HETATM   10  O   UNL     1     -41.494  53.853 -24.963  1.00  0.00    -0.353 OA
BRANCH   7  11
HETATM   11  O   UNL     1     -42.582  51.396 -22.968  1.00  0.00    -0.390 OA
ATOM     12  HO  UNL     1     -42.199  51.895 -22.256  1.00  0.00     0.210 HD
ENDBRANCH   7  11
BRANCH   8  13
HETATM   13  O   UNL     1     -42.763  53.581 -21.664  1.00  0.00    -0.388 OA
ATOM     14  HO  UNL     1     -42.129  54.038 -21.124  1.00  0.00     0.210 HD
ENDBRANCH   8  13
BRANCH   9  15
HETATM   15  N   UNL     1     -41.178  55.557 -23.238  1.00  0.00    -0.297 N 
HETATM   16  C   UNL     1     -41.904  56.545 -23.843  1.00  0.00     0.142 A 
HETATM   17  N   UNL     1     -42.951  56.534 -24.692  1.00  0.00    -0.336 N 
HETATM   18  C   UNL     1     -41.353  57.720 -23.442  1.00  0.00     0.119 A 
HETATM   19  C   UNL     1     -43.440  57.680 -25.143  1.00  0.00     0.183 A 
ATOM     20  HN  UNL     1     -43.364  55.648 -24.986  1.00  0.00     0.168 HD
HETATM   21  N   UNL     1     -42.944  58.826 -24.751  1.00  0.00    -0.339 N 
HETATM   22  C   UNL     1     -41.914  58.907 -23.925  1.00  0.00     0.148 A 
ATOM     23  HN  UNL     1     -43.367  59.688 -25.095  1.00  0.00     0.167 HD
HETATM   24  N   UNL     1     -41.369  60.156 -23.509  1.00  0.00    -0.080 NA
HETATM   25  N   UNL     1     -40.330  57.420 -22.604  1.00  0.00    -0.346 N 
HETATM   26  C   UNL     1     -40.251  56.087 -22.482  1.00  0.00     0.188 A 
ATOM     27  HN  UNL     1     -39.721  58.097 -22.144  1.00  0.00     0.167 HD
ENDBRANCH   9  15
ENDBRANCH   5   6
ENDBRANCH   4   5
ENDBRANCH   1   4
BRANCH   1  28
HETATM   28  O   UNL     1     -45.695  50.854 -26.388  1.00  0.00    -0.180 OA
BRANCH  28  29
HETATM   29  P   UNL     1     -46.859  49.811 -26.931  1.00  0.00     0.417 P 
HETATM   30  O   UNL     1     -48.169  50.114 -26.239  1.00  0.00    -0.624 OA
HETATM   31  O   UNL     1     -46.859  49.922 -28.415  1.00  0.00    -0.624 OA
BRANCH  29  32
HETATM   32  O   UNL     1     -46.303  48.297 -26.483  1.00  0.00    -0.287 OA
BRANCH  32  33
HETATM   33  C   UNL     1     -46.697  47.770 -25.171  1.00  0.00     0.216 C 
BRANCH  33  34
HETATM   34  C   UNL     1     -45.954  46.435 -24.964  1.00  0.00     0.180 C 
HETATM   35  C   UNL     1     -44.423  46.648 -24.686  1.00  0.00     0.182 C 
HETATM   36  C   UNL     1     -43.772  46.268 -26.010  1.00  0.00     0.198 C 
HETATM   37  C   UNL     1     -44.546  45.218 -26.391  1.00  0.00     0.259 C 
HETATM   38  O   UNL     1     -46.035  45.723 -26.094  1.00  0.00    -0.353 OA
BRANCH  35  39
HETATM   39  O   UNL     1     -43.983  45.810 -23.690  1.00  0.00    -0.390 OA
ATOM     40  HO  UNL     1     -43.072  45.584 -23.837  1.00  0.00     0.210 HD
ENDBRANCH  35  39
BRANCH  36  41
HETATM   41  O   UNL     1     -42.336  45.901 -25.796  1.00  0.00    -0.388 OA
ATOM     42  HO  UNL     1     -41.909  46.548 -25.246  1.00  0.00     0.210 HD
ENDBRANCH  36  41
BRANCH  37  43
HETATM   43  N   UNL     1     -44.615  44.831 -27.764  1.00  0.00    -0.336 N 
HETATM   44  C   UNL     1     -44.606  45.740 -28.752  1.00  0.00     0.110 A 
HETATM   45  C   UNL     1     -44.744  45.310 -30.094  1.00  0.00     0.044 A 
HETATM   46  C   UNL     1     -44.916  43.969 -30.443  1.00  0.00     0.019 A 
HETATM   47  C   UNL     1     -44.931  43.064 -29.346  1.00  0.00     0.018 A 
HETATM   48  C   UNL     1     -44.796  43.543 -28.030  1.00  0.00     0.093 A 
BRANCH  45  49
HETATM   49  C   UNL     1     -44.687  46.321 -31.229  1.00  0.00     0.266 C 
HETATM   50  N   UNL     1     -45.226  47.688 -30.930  1.00  0.00    -0.057 NA
HETATM   51  O   UNL     1     -44.217  46.017 -32.310  1.00  0.00    -0.271 OA
ENDBRANCH  45  49
ENDBRANCH  37  43
ENDBRANCH  33  34
ENDBRANCH  32  33
ENDBRANCH  29  32
ENDBRANCH  28  29
ENDBRANCH   1  28
TORSDOF 15
ENDMDL
MODEL 16
REMARK VINA RESULT:   -10.444      2.029      2.886
REMARK INTER + INTRA:         -20.429
REMARK INTER:                 -18.693
REMARK INTRA:                  -1.736
REMARK UNBOUND:                -2.048
REMARK  15 active torsions:
REMARK  status: ('A' for Active; 'I' for Inactive)
REMARK    1  A    between atoms: P_1  and  O_4 
REMARK    2  A    between atoms: P_1  and  O_28 
REMARK    3  A    between atoms: O_4  and  C_5 
REMARK    4  A    between atoms: C_5  and  C_6 
REMARK    5  A    between atoms: C_8  and  O_9 
REMARK    6  A    between atoms: C_11  and  O_12 
REMARK    7  A    between atoms: C_14  and  N_15 
REMARK    8  A    between atoms: O_28  and  P_29 
REMARK    9  A    between atoms: P_29  and  O_32 
REMARK   10  A    between atoms: O_32  and  C_33 
REMARK   11  A    between atoms: C_33  and  C_34 
REMARK   12  A    between atoms: C_36  and  O_37 
REMARK   13  A    between atoms: C_39  and  O_40 
REMARK   14  A    between atoms: C_42  and  N_43 
REMARK   15  A    between atoms: C_45  and  C_46 
ROOT
HETATM    1  P   UNL     1     -43.026  52.875 -25.825  1.00  0.00     0.417 P 
HETATM    2  O   UNL     1     -42.346  51.882 -26.747  1.00  0.00    -0.624 OA
HETATM    3  O   UNL     1     -43.496  52.245 -24.553  1.00  0.00    -0.624 OA
ENDROOT
BRANCH   1   4
HETATM    4  O   UNL     1     -41.926  54.098 -25.662  1.00  0.00    -0.287 OA
BRANCH   4   5
HETATM    5  C   UNL     1     -41.731  54.554 -24.373  1.00  0.00     0.216 C 
BRANCH   5   6
HETATM    6  C   UNL     1     -42.665  55.797 -24.227  1.00  0.00     0.180 C 
HETATM    7  C   UNL     1     -42.190  56.679 -23.434  1.00  0.00     0.182 C 
HETATM    8  C   UNL     1     -43.362  56.935 -22.291  1.00  0.00     0.198 C 
HETATM    9  C   UNL     1     -44.427  56.514 -22.891  1.00  0.00     0.262 C 
HETATM   10  O   UNL     1     -43.945  55.237 -23.535  1.00  0.00    -0.353 OA
BRANCH   7  11
HETATM   11  O   UNL     1     -42.091  57.969 -24.085  1.00  0.00    -0.390 OA
ATOM     12  HO  UNL     1     -42.286  58.576 -23.380  1.00  0.00     0.210 HD
ENDBRANCH   7  11
BRANCH   8  13
HETATM   13  O   UNL     1     -43.390  58.345 -21.922  1.00  0.00    -0.388 OA
ATOM     14  HO  UNL     1     -43.361  58.509 -20.986  1.00  0.00     0.210 HD
ENDBRANCH   8  13
BRANCH   9  15
HETATM   15  N   UNL     1     -45.465  56.203 -21.881  1.00  0.00    -0.297 N 
HETATM   16  C   UNL     1     -45.326  55.202 -20.960  1.00  0.00     0.142 A 
HETATM   17  N   UNL     1     -44.333  54.332 -20.684  1.00  0.00    -0.336 N 
HETATM   18  C   UNL     1     -46.489  55.168 -20.260  1.00  0.00     0.119 A 
HETATM   19  C   UNL     1     -44.500  53.433 -19.725  1.00  0.00     0.183 A 
ATOM     20  HN  UNL     1     -43.460  54.367 -21.210  1.00  0.00     0.168 HD
HETATM   21  N   UNL     1     -45.600  53.397 -19.018  1.00  0.00    -0.339 N 
HETATM   22  C   UNL     1     -46.614  54.216 -19.241  1.00  0.00     0.148 A 
ATOM     23  HN  UNL     1     -45.679  52.711 -18.267  1.00  0.00     0.167 HD
HETATM   24  N   UNL     1     -47.815  54.167 -18.477  1.00  0.00    -0.080 NA
HETATM   25  N   UNL     1     -47.288  56.144 -20.757  1.00  0.00    -0.346 N 
HETATM   26  C   UNL     1     -46.633  56.777 -21.741  1.00  0.00     0.188 A 
ATOM     27  HN  UNL     1     -48.231  56.361 -20.435  1.00  0.00     0.167 HD
ENDBRANCH   9  15
ENDBRANCH   5   6
ENDBRANCH   4   5
ENDBRANCH   1   4
BRANCH   1  28
HETATM   28  O   UNL     1     -44.320  53.524 -26.558  1.00  0.00    -0.180 OA
BRANCH  28  29
HETATM   29  P   UNL     1     -45.515  52.700 -27.354  1.00  0.00     0.417 P 
HETATM   30  O   UNL     1     -46.444  53.686 -28.026  1.00  0.00    -0.624 OA
HETATM   31  O   UNL     1     -44.827  51.730 -28.249  1.00  0.00    -0.624 OA
BRANCH  29  32
HETATM   32  O   UNL     1     -46.324  51.871 -26.146  1.00  0.00    -0.287 OA
BRANCH  32  33
HETATM   33  C   UNL     1     -46.956  50.589 -26.483  1.00  0.00     0.216 C 
BRANCH  33  34
HETATM   34  C   UNL     1     -46.301  49.504 -25.606  1.00  0.00     0.180 C 
HETATM   35  C   UNL     1     -44.811  49.852 -25.249  1.00  0.00     0.182 C 
HETATM   36  C   UNL     1     -44.010  48.935 -26.165  1.00  0.00     0.198 C 
HETATM   37  C   UNL     1     -44.770  47.810 -26.137  1.00  0.00     0.259 C 
HETATM   38  O   UNL     1     -46.263  48.361 -26.298  1.00  0.00    -0.353 OA
BRANCH  35  39
HETATM   39  O   UNL     1     -44.538  49.558 -23.936  1.00  0.00    -0.390 OA
ATOM     40  HO  UNL     1     -45.334  49.608 -23.420  1.00  0.00     0.210 HD
ENDBRANCH  35  39
BRANCH  36  41
HETATM   41  O   UNL     1     -42.630  48.735 -25.620  1.00  0.00    -0.388 OA
ATOM     42  HO  UNL     1     -42.534  49.189 -24.791  1.00  0.00     0.210 HD
ENDBRANCH  36  41
BRANCH  37  43
HETATM   43  N   UNL     1     -44.676  46.848 -27.190  1.00  0.00    -0.336 N 
HETATM   44  C   UNL     1     -44.701  47.214 -28.480  1.00  0.00     0.110 A 
HETATM   45  C   UNL     1     -44.674  46.217 -29.486  1.00  0.00     0.044 A 
HETATM   46  C   UNL     1     -44.645  44.852 -29.196  1.00  0.00     0.019 A 
HETATM   47  C   UNL     1     -44.635  44.537 -27.810  1.00  0.00     0.018 A 
HETATM   48  C   UNL     1     -44.670  45.564 -26.848  1.00  0.00     0.093 A 
BRANCH  45  49
HETATM   49  C   UNL     1     -44.652  46.616 -30.954  1.00  0.00     0.266 C 
HETATM   50  N   UNL     1     -45.141  45.588 -31.930  1.00  0.00    -0.057 NA
HETATM   51  O   UNL     1     -44.262  47.718 -31.294  1.00  0.00    -0.271 OA
ENDBRANCH  45  49
ENDBRANCH  37  43
ENDBRANCH  33  34
ENDBRANCH  32  33
ENDBRANCH  29  32
ENDBRANCH  28  29
ENDBRANCH   1  28
TORSDOF 15
ENDMDL
MODEL 17
REMARK VINA RESULT:   -10.356      2.693      9.988
REMARK INTER + INTRA:         -20.273
REMARK INTER:                 -18.300
REMARK INTRA:                  -1.974
REMARK UNBOUND:                -2.048
REMARK  15 active torsions:
REMARK  status: ('A' for Active; 'I' for Inactive)
REMARK    1  A    between atoms: P_1  and  O_4 
REMARK    2  A    between atoms: P_1  and  O_28 
REMARK    3  A    between atoms: O_4  and  C_5 
REMARK    4  A    between atoms: C_5  and  C_6 
REMARK    5  A    between atoms: C_8  and  O_9 
REMARK    6  A    between atoms: C_11  and  O_12 
REMARK    7  A    between atoms: C_14  and  N_15 
REMARK    8  A    between atoms: O_28  and  P_29 
REMARK    9  A    between atoms: P_29  and  O_32 
REMARK   10  A    between atoms: O_32  and  C_33 
REMARK   11  A    between atoms: C_33  and  C_34 
REMARK   12  A    between atoms: C_36  and  O_37 
REMARK   13  A    between atoms: C_39  and  O_40 
REMARK   14  A    between atoms: C_42  and  N_43 
REMARK   15  A    between atoms: C_45  and  C_46 
ROOT
HETATM    1  P   UNL     1     -42.584  54.849 -25.966  1.00  0.00     0.417 P 
HETATM    2  O   UNL     1     -41.557  54.440 -27.004  1.00  0.00    -0.624 OA
HETATM    3  O   UNL     1     -43.202  56.178 -26.266  1.00  0.00    -0.624 OA
ENDROOT
BRANCH   1   4
HETATM    4  O   UNL     1     -43.625  53.568 -25.896  1.00  0.00    -0.287 OA
BRANCH   4   5
HETATM    5  C   UNL     1     -43.468  52.620 -26.889  1.00  0.00     0.216 C 
BRANCH   5   6
HETATM    6  C   UNL     1     -44.831  51.862 -26.958  1.00  0.00     0.180 C 
HETATM    7  C   UNL     1     -45.506  51.964 -25.877  1.00  0.00     0.182 C 
HETATM    8  C   UNL     1     -45.824  50.411 -25.396  1.00  0.00     0.198 C 
HETATM    9  C   UNL     1     -45.683  49.748 -26.497  1.00  0.00     0.262 C 
HETATM   10  O   UNL     1     -44.431  50.360 -27.077  1.00  0.00    -0.353 OA
BRANCH   7  11
HETATM   11  O   UNL     1     -46.828  52.498 -26.134  1.00  0.00    -0.390 OA
ATOM     12  HO  UNL     1     -47.104  52.014 -26.903  1.00  0.00     0.210 HD
ENDBRANCH   7  11
BRANCH   8  13
HETATM   13  O   UNL     1     -47.159  50.340 -24.813  1.00  0.00    -0.388 OA
ATOM     14  HO  UNL     1     -47.194  50.530 -23.882  1.00  0.00     0.210 HD
ENDBRANCH   8  13
BRANCH   9  15
HETATM   15  N   UNL     1     -45.441  48.322 -26.180  1.00  0.00    -0.297 N 
HETATM   16  C   UNL     1     -45.072  47.406 -27.125  1.00  0.00     0.142 A 
HETATM   17  N   UNL     1     -44.808  47.495 -28.445  1.00  0.00    -0.336 N 
HETATM   18  C   UNL     1     -45.010  46.207 -26.488  1.00  0.00     0.119 A 
HETATM   19  C   UNL     1     -44.493  46.401 -29.124  1.00  0.00     0.183 A 
ATOM     20  HN  UNL     1     -44.850  48.398 -28.916  1.00  0.00     0.168 HD
HETATM   21  N   UNL     1     -44.401  45.240 -28.528  1.00  0.00    -0.339 N 
HETATM   22  C   UNL     1     -44.653  45.082 -27.239  1.00  0.00     0.148 A 
ATOM     23  HN  UNL     1     -44.125  44.426 -29.078  1.00  0.00     0.167 HD
HETATM   24  N   UNL     1     -44.563  43.814 -26.596  1.00  0.00    -0.080 NA
HETATM   25  N   UNL     1     -45.325  46.426 -25.188  1.00  0.00    -0.346 N 
HETATM   26  C   UNL     1     -45.570  47.734 -25.018  1.00  0.00     0.188 A 
ATOM     27  HN  UNL     1     -45.368  45.714 -24.459  1.00  0.00     0.167 HD
ENDBRANCH   9  15
ENDBRANCH   5   6
ENDBRANCH   4   5
ENDBRANCH   1   4
BRANCH   1  28
HETATM   28  O   UNL     1     -41.890  54.951 -24.502  1.00  0.00    -0.180 OA
BRANCH  28  29
HETATM   29  P   UNL     1     -40.953  53.796 -23.777  1.00  0.00     0.417 P 
HETATM   30  O   UNL     1     -40.467  52.815 -24.820  1.00  0.00    -0.624 OA
HETATM   31  O   UNL     1     -39.899  54.527 -23.022  1.00  0.00    -0.624 OA
BRANCH  29  32
HETATM   32  O   UNL     1     -41.987  53.035 -22.702  1.00  0.00    -0.287 OA
BRANCH  32  33
HETATM   33  C   UNL     1     -42.897  52.007 -23.221  1.00  0.00     0.216 C 
BRANCH  33  34
HETATM   34  C   UNL     1     -44.290  52.273 -22.617  1.00  0.00     0.180 C 
HETATM   35  C   UNL     1     -44.757  53.755 -22.841  1.00  0.00     0.182 C 
HETATM   36  C   UNL     1     -44.557  54.395 -21.473  1.00  0.00     0.198 C 
HETATM   37  C   UNL     1     -44.932  53.380 -20.652  1.00  0.00     0.259 C 
HETATM   38  O   UNL     1     -44.222  52.097 -21.293  1.00  0.00    -0.353 OA
BRANCH  35  39
HETATM   39  O   UNL     1     -46.085  53.805 -23.192  1.00  0.00    -0.390 OA
ATOM     40  HO  UNL     1     -46.212  54.439 -23.889  1.00  0.00     0.210 HD
ENDBRANCH  35  39
BRANCH  36  41
HETATM   41  O   UNL     1     -45.415  55.615 -21.340  1.00  0.00    -0.388 OA
ATOM     42  HO  UNL     1     -44.951  56.380 -21.661  1.00  0.00     0.210 HD
ENDBRANCH  36  41
BRANCH  37  43
HETATM   43  N   UNL     1     -44.483  53.342 -19.297  1.00  0.00    -0.336 N 
HETATM   44  C   UNL     1     -43.199  53.105 -18.988  1.00  0.00     0.110 A 
HETATM   45  C   UNL     1     -42.816  53.010 -17.628  1.00  0.00     0.044 A 
HETATM   46  C   UNL     1     -43.728  53.130 -16.578  1.00  0.00     0.019 A 
HETATM   47  C   UNL     1     -45.072  53.365 -16.977  1.00  0.00     0.018 A 
HETATM   48  C   UNL     1     -45.402  53.445 -18.343  1.00  0.00     0.093 A 
BRANCH  45  49
HETATM   49  C   UNL     1     -41.357  52.791 -17.260  1.00  0.00     0.266 C 
HETATM   50  N   UNL     1     -40.362  52.929 -18.373  1.00  0.00    -0.057 NA
HETATM   51  O   UNL     1     -41.037  52.526 -16.115  1.00  0.00    -0.271 OA
ENDBRANCH  45  49
ENDBRANCH  37  43
ENDBRANCH  33  34
ENDBRANCH  32  33
ENDBRANCH  29  32
ENDBRANCH  28  29
ENDBRANCH   1  28
TORSDOF 15
ENDMDL
MODEL 18
REMARK VINA RESULT:   -10.213      4.381      9.502
REMARK INTER + INTRA:         -20.023
REMARK INTER:                 -17.504
REMARK INTRA:                  -2.519
REMARK UNBOUND:                -2.048
REMARK  15 active torsions:
REMARK  status: ('A' for Active; 'I' for Inactive)
REMARK    1  A    between atoms: P_1  and  O_4 
REMARK    2  A    between atoms: P_1  and  O_28 
REMARK    3  A    between atoms: O_4  and  C_5 
REMARK    4  A    between atoms: C_5  and  C_6 
REMARK    5  A    between atoms: C_8  and  O_9 
REMARK    6  A    between atoms: C_11  and  O_12 
REMARK    7  A    between atoms: C_14  and  N_15 
REMARK    8  A    between atoms: O_28  and  P_29 
REMARK    9  A    between atoms: P_29  and  O_32 
REMARK   10  A    between atoms: O_32  and  C_33 
REMARK   11  A    between atoms: C_33  and  C_34 
REMARK   12  A    between atoms: C_36  and  O_37 
REMARK   13  A    between atoms: C_39  and  O_40 
REMARK   14  A    between atoms: C_42  and  N_43 
REMARK   15  A    between atoms: C_45  and  C_46 
ROOT
HETATM    1  P   UNL     1     -41.078  56.404 -25.694  1.00  0.00     0.417 P 
HETATM    2  O   UNL     1     -40.321  57.716 -25.647  1.00  0.00    -0.624 OA
HETATM    3  O   UNL     1     -41.425  55.994 -27.090  1.00  0.00    -0.624 OA
ENDROOT
BRANCH   1   4
HETATM    4  O   UNL     1     -40.124  55.352 -24.848  1.00  0.00    -0.287 OA
BRANCH   4   5
HETATM    5  C   UNL     1     -40.578  55.023 -23.585  1.00  0.00     0.216 C 
BRANCH   5   6
HETATM    6  C   UNL     1     -40.945  53.507 -23.659  1.00  0.00     0.180 C 
HETATM    7  C   UNL     1     -40.643  52.982 -24.784  1.00  0.00     0.182 C 
HETATM    8  C   UNL     1     -42.043  52.308 -25.359  1.00  0.00     0.198 C 
HETATM    9  C   UNL     1     -42.744  52.171 -24.281  1.00  0.00     0.262 C 
HETATM   10  O   UNL     1     -42.501  53.484 -23.576  1.00  0.00    -0.353 OA
BRANCH   7  11
HETATM   11  O   UNL     1     -39.781  51.831 -24.611  1.00  0.00    -0.390 OA
ATOM     12  HO  UNL     1     -40.186  51.373 -23.883  1.00  0.00     0.210 HD
ENDBRANCH   7  11
BRANCH   8  13
HETATM   13  O   UNL     1     -41.742  51.060 -26.049  1.00  0.00    -0.388 OA
ATOM     14  HO  UNL     1     -42.432  50.750 -26.624  1.00  0.00     0.210 HD
ENDBRANCH   8  13
BRANCH   9  15
HETATM   15  N   UNL     1     -44.176  52.055 -24.640  1.00  0.00    -0.297 N 
HETATM   16  C   UNL     1     -44.788  50.853 -24.863  1.00  0.00     0.142 A 
HETATM   17  N   UNL     1     -44.364  49.574 -24.799  1.00  0.00    -0.336 N 
HETATM   18  C   UNL     1     -46.063  51.140 -25.232  1.00  0.00     0.119 A 
HETATM   19  C   UNL     1     -45.200  48.593 -25.106  1.00  0.00     0.183 A 
ATOM     20  HN  UNL     1     -43.407  49.365 -24.516  1.00  0.00     0.168 HD
HETATM   21  N   UNL     1     -46.441  48.842 -25.438  1.00  0.00    -0.339 N 
HETATM   22  C   UNL     1     -46.918  50.072 -25.527  1.00  0.00     0.148 A 
ATOM     23  HN  UNL     1     -47.063  48.058 -25.636  1.00  0.00     0.167 HD
HETATM   24  N   UNL     1     -48.267  50.340 -25.900  1.00  0.00    -0.080 NA
HETATM   25  N   UNL     1     -46.195  52.489 -25.210  1.00  0.00    -0.346 N 
HETATM   26  C   UNL     1     -45.028  53.030 -24.828  1.00  0.00     0.188 A 
ATOM     27  HN  UNL     1     -47.041  53.008 -25.445  1.00  0.00     0.167 HD
ENDBRANCH   9  15
ENDBRANCH   5   6
ENDBRANCH   4   5
ENDBRANCH   1   4
BRANCH   1  28
HETATM   28  O   UNL     1     -42.466  56.528 -24.861  1.00  0.00    -0.180 OA
BRANCH  28  29
HETATM   29  P   UNL     1     -43.080  57.902 -24.174  1.00  0.00     0.417 P 
HETATM   30  O   UNL     1     -42.112  58.418 -23.132  1.00  0.00    -0.624 OA
HETATM   31  O   UNL     1     -43.391  58.827 -25.297  1.00  0.00    -0.624 OA
BRANCH  29  32
HETATM   32  O   UNL     1     -44.503  57.404 -23.447  1.00  0.00    -0.287 OA
BRANCH  32  33
HETATM   33  C   UNL     1     -44.448  56.929 -22.059  1.00  0.00     0.216 C 
BRANCH  33  34
HETATM   34  C   UNL     1     -45.216  55.595 -21.994  1.00  0.00     0.180 C 
HETATM   35  C   UNL     1     -46.697  55.789 -21.506  1.00  0.00     0.182 C 
HETATM   36  C   UNL     1     -46.656  55.299 -20.063  1.00  0.00     0.198 C 
HETATM   37  C   UNL     1     -45.807  54.244 -20.170  1.00  0.00     0.259 C 
HETATM   38  O   UNL     1     -44.625  54.805 -21.091  1.00  0.00    -0.353 OA
BRANCH  35  39
HETATM   39  O   UNL     1     -47.563  55.015 -22.240  1.00  0.00    -0.390 OA
ATOM     40  HO  UNL     1     -48.431  55.049 -21.856  1.00  0.00     0.210 HD
ENDBRANCH  35  39
BRANCH  36  41
HETATM   41  O   UNL     1     -48.029  54.914 -19.608  1.00  0.00    -0.388 OA
ATOM     42  HO  UNL     1     -48.547  55.690 -19.431  1.00  0.00     0.210 HD
ENDBRANCH  36  41
BRANCH  37  43
HETATM   43  N   UNL     1     -45.107  53.761 -19.022  1.00  0.00    -0.336 N 
HETATM   44  C   UNL     1     -43.790  53.504 -19.058  1.00  0.00     0.110 A 
HETATM   45  C   UNL     1     -43.156  52.962 -17.914  1.00  0.00     0.044 A 
HETATM   46  C   UNL     1     -43.849  52.655 -16.742  1.00  0.00     0.019 A 
HETATM   47  C   UNL     1     -45.241  52.939 -16.779  1.00  0.00     0.018 A 
HETATM   48  C   UNL     1     -45.825  53.472 -17.943  1.00  0.00     0.093 A 
BRANCH  45  49
HETATM   49  C   UNL     1     -41.656  52.710 -17.921  1.00  0.00     0.266 C 
HETATM   50  N   UNL     1     -40.997  52.649 -19.267  1.00  0.00    -0.057 NA
HETATM   51  O   UNL     1     -41.042  52.576 -16.878  1.00  0.00    -0.271 OA
ENDBRANCH  45  49
ENDBRANCH  37  43
ENDBRANCH  33  34
ENDBRANCH  32  33
ENDBRANCH  29  32
ENDBRANCH  28  29
ENDBRANCH   1  28
TORSDOF 15
ENDMDL
MODEL 19
REMARK VINA RESULT:   -10.146      3.217      9.702
REMARK INTER + INTRA:         -19.904
REMARK INTER:                 -17.603
REMARK INTRA:                  -2.301
REMARK UNBOUND:                -2.048
REMARK  15 active torsions:
REMARK  status: ('A' for Active; 'I' for Inactive)
REMARK    1  A    between atoms: P_1  and  O_4 
REMARK    2  A    between atoms: P_1  and  O_28 
REMARK    3  A    between atoms: O_4  and  C_5 
REMARK    4  A    between atoms: C_5  and  C_6 
REMARK    5  A    between atoms: C_8  and  O_9 
REMARK    6  A    between atoms: C_11  and  O_12 
REMARK    7  A    between atoms: C_14  and  N_15 
REMARK    8  A    between atoms: O_28  and  P_29 
REMARK    9  A    between atoms: P_29  and  O_32 
REMARK   10  A    between atoms: O_32  and  C_33 
REMARK   11  A    between atoms: C_33  and  C_34 
REMARK   12  A    between atoms: C_36  and  O_37 
REMARK   13  A    between atoms: C_39  and  O_40 
REMARK   14  A    between atoms: C_42  and  N_43 
REMARK   15  A    between atoms: C_45  and  C_46 
ROOT
HETATM    1  P   UNL     1     -42.121  55.438 -26.137  1.00  0.00     0.417 P 
HETATM    2  O   UNL     1     -40.962  54.543 -26.530  1.00  0.00    -0.624 OA
HETATM    3  O   UNL     1     -42.294  56.593 -27.071  1.00  0.00    -0.624 OA
ENDROOT
BRANCH   1   4
HETATM    4  O   UNL     1     -43.407  54.408 -26.016  1.00  0.00    -0.287 OA
BRANCH   4   5
HETATM    5  C   UNL     1     -43.247  53.183 -26.635  1.00  0.00     0.216 C 
BRANCH   5   6
HETATM    6  C   UNL     1     -44.687  52.593 -26.765  1.00  0.00     0.180 C 
HETATM    7  C   UNL     1     -45.326  52.606 -25.658  1.00  0.00     0.182 C 
HETATM    8  C   UNL     1     -45.805  51.042 -25.395  1.00  0.00     0.198 C 
HETATM    9  C   UNL     1     -45.759  50.537 -26.584  1.00  0.00     0.262 C 
HETATM   10  O   UNL     1     -44.458  51.091 -27.113  1.00  0.00    -0.353 OA
BRANCH   7  11
HETATM   11  O   UNL     1     -46.586  53.309 -25.788  1.00  0.00    -0.390 OA
ATOM     12  HO  UNL     1     -47.103  52.948 -25.078  1.00  0.00     0.210 HD
ENDBRANCH   7  11
BRANCH   8  13
HETATM   13  O   UNL     1     -47.128  51.029 -24.782  1.00  0.00    -0.388 OA
ATOM     14  HO  UNL     1     -47.849  51.006 -25.399  1.00  0.00     0.210 HD
ENDBRANCH   8  13
BRANCH   9  15
HETATM   15  N   UNL     1     -45.670  49.062 -26.486  1.00  0.00    -0.297 N 
HETATM   16  C   UNL     1     -44.494  48.405 -26.257  1.00  0.00     0.142 A 
HETATM   17  N   UNL     1     -43.230  48.821 -26.039  1.00  0.00    -0.336 N 
HETATM   18  C   UNL     1     -44.786  47.079 -26.301  1.00  0.00     0.119 A 
HETATM   19  C   UNL     1     -42.266  47.927 -25.872  1.00  0.00     0.183 A 
ATOM     20  HN  UNL     1     -43.018  49.818 -26.002  1.00  0.00     0.168 HD
HETATM   21  N   UNL     1     -42.526  46.645 -25.883  1.00  0.00    -0.339 N 
HETATM   22  C   UNL     1     -43.742  46.169 -26.099  1.00  0.00     0.148 A 
ATOM     23  HN  UNL     1     -41.763  45.988 -25.719  1.00  0.00     0.167 HD
HETATM   24  N   UNL     1     -44.020  44.772 -26.121  1.00  0.00    -0.080 NA
HETATM   25  N   UNL     1     -46.116  46.967 -26.537  1.00  0.00    -0.346 N 
HETATM   26  C   UNL     1     -46.641  48.198 -26.631  1.00  0.00     0.188 A 
ATOM     27  HN  UNL     1     -46.632  46.092 -26.628  1.00  0.00     0.167 HD
ENDBRANCH   9  15
ENDBRANCH   5   6
ENDBRANCH   4   5
ENDBRANCH   1   4
BRANCH   1  28
HETATM   28  O   UNL     1     -41.882  56.042 -24.649  1.00  0.00    -0.180 OA
BRANCH  28  29
HETATM   29  P   UNL     1     -40.436  56.141 -23.849  1.00  0.00     0.417 P 
HETATM   30  O   UNL     1     -39.380  56.682 -24.787  1.00  0.00    -0.624 OA
HETATM   31  O   UNL     1     -40.694  56.939 -22.620  1.00  0.00    -0.624 OA
BRANCH  29  32
HETATM   32  O   UNL     1     -40.085  54.560 -23.428  1.00  0.00    -0.287 OA
BRANCH  32  33
HETATM   33  C   UNL     1     -40.205  54.171 -22.018  1.00  0.00     0.216 C 
BRANCH  33  34
HETATM   34  C   UNL     1     -41.104  52.920 -21.957  1.00  0.00     0.180 C 
HETATM   35  C   UNL     1     -42.326  53.022 -22.938  1.00  0.00     0.182 C 
HETATM   36  C   UNL     1     -43.494  53.333 -22.010  1.00  0.00     0.198 C 
HETATM   37  C   UNL     1     -43.184  52.565 -20.934  1.00  0.00     0.259 C 
HETATM   38  O   UNL     1     -41.618  52.824 -20.726  1.00  0.00    -0.353 OA
BRANCH  35  39
HETATM   39  O   UNL     1     -42.543  51.827 -23.580  1.00  0.00    -0.390 OA
ATOM     40  HO  UNL     1     -43.021  51.975 -24.388  1.00  0.00     0.210 HD
ENDBRANCH  35  39
BRANCH  36  41
HETATM   41  O   UNL     1     -44.788  52.952 -22.660  1.00  0.00    -0.388 OA
ATOM     42  HO  UNL     1     -44.771  53.176 -23.583  1.00  0.00     0.210 HD
ENDBRANCH  36  41
BRANCH  37  43
HETATM   43  N   UNL     1     -43.725  52.871 -19.647  1.00  0.00    -0.336 N 
HETATM   44  C   UNL     1     -44.993  53.284 -19.498  1.00  0.00     0.110 A 
HETATM   45  C   UNL     1     -45.462  53.640 -18.211  1.00  0.00     0.044 A 
HETATM   46  C   UNL     1     -44.650  53.605 -17.076  1.00  0.00     0.019 A 
HETATM   47  C   UNL     1     -43.316  53.173 -17.309  1.00  0.00     0.018 A 
HETATM   48  C   UNL     1     -42.897  52.836 -18.610  1.00  0.00     0.093 A 
BRANCH  45  49
HETATM   49  C   UNL     1     -46.910  54.063 -18.016  1.00  0.00     0.266 C 
HETATM   50  N   UNL     1     -47.541  54.817 -19.148  1.00  0.00    -0.057 NA
HETATM   51  O   UNL     1     -47.507  53.787 -16.991  1.00  0.00    -0.271 OA
ENDBRANCH  45  49
ENDBRANCH  37  43
ENDBRANCH  33  34
ENDBRANCH  32  33
ENDBRANCH  29  32
ENDBRANCH  28  29
ENDBRANCH   1  28
TORSDOF 15
ENDMDL
MODEL 20
REMARK VINA RESULT:   -10.028      2.931      9.733
REMARK INTER + INTRA:         -19.697
REMARK INTER:                 -17.100
REMARK INTRA:                  -2.597
REMARK UNBOUND:                -2.048
REMARK  15 active torsions:
REMARK  status: ('A' for Active; 'I' for Inactive)
REMARK    1  A    between atoms: P_1  and  O_4 
REMARK    2  A    between atoms: P_1  and  O_28 
REMARK    3  A    between atoms: O_4  and  C_5 
REMARK    4  A    between atoms: C_5  and  C_6 
REMARK    5  A    between atoms: C_8  and  O_9 
REMARK    6  A    between atoms: C_11  and  O_12 
REMARK    7  A    between atoms: C_14  and  N_15 
REMARK    8  A    between atoms: O_28  and  P_29 
REMARK    9  A    between atoms: P_29  and  O_32 
REMARK   10  A    between atoms: O_32  and  C_33 
REMARK   11  A    between atoms: C_33  and  C_34 
REMARK   12  A    between atoms: C_36  and  O_37 
REMARK   13  A    between atoms: C_39  and  O_40 
REMARK   14  A    between atoms: C_42  and  N_43 
REMARK   15  A    between atoms: C_45  and  C_46 
ROOT
HETATM    1  P   UNL     1     -42.596  54.807 -24.918  1.00  0.00     0.417 P 
HETATM    2  O   UNL     1     -42.071  54.548 -23.519  1.00  0.00    -0.624 OA
HETATM    3  O   UNL     1     -41.498  54.985 -25.917  1.00  0.00    -0.624 OA
ENDROOT
BRANCH   1   4
HETATM    4  O   UNL     1     -43.633  53.551 -25.201  1.00  0.00    -0.287 OA
BRANCH   4   5
HETATM    5  C   UNL     1     -43.379  52.816 -26.343  1.00  0.00     0.216 C 
BRANCH   5   6
HETATM    6  C   UNL     1     -44.685  52.004 -26.613  1.00  0.00     0.180 C 
HETATM    7  C   UNL     1     -45.496  52.034 -25.626  1.00  0.00     0.182 C 
HETATM    8  C   UNL     1     -45.799  50.451 -25.243  1.00  0.00     0.198 C 
HETATM    9  C   UNL     1     -45.487  49.839 -26.338  1.00  0.00     0.262 C 
HETATM   10  O   UNL     1     -44.202  50.527 -26.731  1.00  0.00    -0.353 OA
BRANCH   7  11
HETATM   11  O   UNL     1     -46.798  52.521 -26.032  1.00  0.00    -0.390 OA
ATOM     12  HO  UNL     1     -46.691  52.655 -26.966  1.00  0.00     0.210 HD
ENDBRANCH   7  11
BRANCH   8  13
HETATM   13  O   UNL     1     -47.191  50.300 -24.839  1.00  0.00    -0.388 OA
ATOM     14  HO  UNL     1     -47.413  49.442 -24.498  1.00  0.00     0.210 HD
ENDBRANCH   8  13
BRANCH   9  15
HETATM   15  N   UNL     1     -45.220  48.413 -26.042  1.00  0.00    -0.297 N 
HETATM   16  C   UNL     1     -44.929  47.497 -27.014  1.00  0.00     0.142 A 
HETATM   17  N   UNL     1     -44.773  47.586 -28.351  1.00  0.00    -0.336 N 
HETATM   18  C   UNL     1     -44.815  46.299 -26.384  1.00  0.00     0.119 A 
HETATM   19  C   UNL     1     -44.514  46.492 -29.053  1.00  0.00     0.183 A 
ATOM     20  HN  UNL     1     -44.854  48.489 -28.817  1.00  0.00     0.168 HD
HETATM   21  N   UNL     1     -44.374  45.331 -28.466  1.00  0.00    -0.339 N 
HETATM   22  C   UNL     1     -44.520  45.173 -27.161  1.00  0.00     0.148 A 
ATOM     23  HN  UNL     1     -44.143  44.517 -29.037  1.00  0.00     0.167 HD
HETATM   24  N   UNL     1     -44.377  43.906 -26.527  1.00  0.00    -0.080 NA
HETATM   25  N   UNL     1     -45.023  46.518 -25.062  1.00  0.00    -0.346 N 
HETATM   26  C   UNL     1     -45.254  47.826 -24.874  1.00  0.00     0.188 A 
ATOM     27  HN  UNL     1     -45.007  45.806 -24.332  1.00  0.00     0.167 HD
ENDBRANCH   9  15
ENDBRANCH   5   6
ENDBRANCH   4   5
ENDBRANCH   1   4
BRANCH   1  28
HETATM   28  O   UNL     1     -43.500  56.155 -24.937  1.00  0.00    -0.180 OA
BRANCH  28  29
HETATM   29  P   UNL     1     -43.356  57.449 -23.915  1.00  0.00     0.417 P 
HETATM   30  O   UNL     1     -41.891  57.753 -23.693  1.00  0.00    -0.624 OA
HETATM   31  O   UNL     1     -44.172  58.543 -24.508  1.00  0.00    -0.624 OA
BRANCH  29  32
HETATM   32  O   UNL     1     -44.062  56.933 -22.488  1.00  0.00    -0.287 OA
BRANCH  32  33
HETATM   33  C   UNL     1     -45.484  57.225 -22.269  1.00  0.00     0.216 C 
BRANCH  33  34
HETATM   34  C   UNL     1     -46.216  55.879 -22.107  1.00  0.00     0.180 C 
HETATM   35  C   UNL     1     -46.824  55.705 -20.669  1.00  0.00     0.182 C 
HETATM   36  C   UNL     1     -45.863  54.731 -19.999  1.00  0.00     0.198 C 
HETATM   37  C   UNL     1     -45.576  53.896 -21.031  1.00  0.00     0.259 C 
HETATM   38  O   UNL     1     -45.329  54.890 -22.261  1.00  0.00    -0.353 OA
BRANCH  35  39
HETATM   39  O   UNL     1     -48.082  55.156 -20.730  1.00  0.00    -0.390 OA
ATOM     40  HO  UNL     1     -48.595  55.440 -19.982  1.00  0.00     0.210 HD
ENDBRANCH  35  39
BRANCH  36  41
HETATM   41  O   UNL     1     -46.536  54.047 -18.850  1.00  0.00    -0.388 OA
ATOM     42  HO  UNL     1     -46.220  53.155 -18.766  1.00  0.00     0.210 HD
ENDBRANCH  36  41
BRANCH  37  43
HETATM   43  N   UNL     1     -44.381  53.113 -21.017  1.00  0.00    -0.336 N 
HETATM   44  C   UNL     1     -43.439  53.286 -20.077  1.00  0.00     0.110 A 
HETATM   45  C   UNL     1     -42.242  52.533 -20.145  1.00  0.00     0.044 A 
HETATM   46  C   UNL     1     -41.981  51.622 -21.171  1.00  0.00     0.019 A 
HETATM   47  C   UNL     1     -43.015  51.500 -22.139  1.00  0.00     0.018 A 
HETATM   48  C   UNL     1     -44.184  52.277 -22.029  1.00  0.00     0.093 A 
BRANCH  45  49
HETATM   49  C   UNL     1     -41.184  52.681 -19.062  1.00  0.00     0.266 C 
HETATM   50  N   UNL     1     -39.797  53.010 -19.526  1.00  0.00    -0.057 NA
HETATM   51  O   UNL     1     -41.474  52.542 -17.887  1.00  0.00    -0.271 OA
ENDBRANCH  45  49
ENDBRANCH  37  43
ENDBRANCH  33  34
ENDBRANCH  32  33
ENDBRANCH  29  32
ENDBRANCH  28  29
ENDBRANCH   1  28
TORSDOF 15
ENDMDL
