REMARK  3 active torsions:
REMARK  status: ('A' for Active; 'I' for Inactive)
REMARK    1  A    between atoms: N_8  and  C_9 
REMARK    2  A    between atoms: C_9  and  C_10 
REMARK       I    between atoms: C_10  and  N_20 
REMARK    3  A    between atoms: C_16  and  N_20 
ROOT
HETATM    1  C   UNL     1       1.463  -0.879   1.991  1.00  0.00     0.231 C 
ENDROOT
BRANCH   1   2
HETATM    2  N   UNL     1       1.853  -1.110   0.601  1.00  0.00    -0.347 N 
HETATM    3  C   UNL     1       1.114  -1.657  -0.385  1.00  0.00     0.051 A 
HETATM    4  C   UNL     1      -0.170  -2.191  -0.310  1.00  0.00     0.048 A 
HETATM    5  C   UNL     1       1.794  -1.617  -1.569  1.00  0.00     0.060 A 
HETATM    6  C   UNL     1      -0.734  -2.690  -1.497  1.00  0.00     0.096 A 
HETATM    7  N   UNL     1      -0.037  -2.655  -2.686  1.00  0.00    -0.328 N 
HETATM    8  C   UNL     1      -0.665  -3.172  -3.907  1.00  0.00     0.159 C 
HETATM    9  C   UNL     1       1.227  -2.112  -2.741  1.00  0.00     0.259 A 
HETATM   10  O   UNL     1       1.866  -2.056  -3.828  1.00  0.00    -0.267 OA
HETATM   11  C   UNL     1       3.012  -1.012  -1.333  1.00  0.00     0.036 A 
HETATM   12  C   UNL     1       3.010  -0.705   0.023  1.00  0.00     0.093 A 
ENDBRANCH   1   2
BRANCH   1  13
HETATM   13  C   UNL     1       0.620   0.355   2.083  1.00  0.00     0.240 C 
HETATM   14  O   UNL     1       1.177   1.486   2.036  1.00  0.00    -0.271 OA
HETATM   15  N   UNL     1      -0.806   0.251   2.208  1.00  0.00    -0.324 N 
HETATM   16  H   UNL     1      -1.204  -0.657   2.538  1.00  0.00     0.169 HD
BRANCH  15  17
HETATM   17  C   UNL     1      -1.708   1.338   1.935  1.00  0.00     0.059 A 
HETATM   18  C   UNL     1      -1.458   2.226   0.875  1.00  0.00     0.048 A 
HETATM   19  C   UNL     1      -2.363   3.255   0.607  1.00  0.00     0.090 A 
HETATM   20  N   UNL     1      -3.485   3.389   1.359  1.00  0.00    -0.373 N 
HETATM   21  C   UNL     1      -3.764   2.539   2.382  1.00  0.00     0.113 A 
ATOM     22  HN  UNL     1      -4.135   4.147   1.151  1.00  0.00     0.164 HD
HETATM   23  C   UNL     1      -2.888   1.492   2.687  1.00  0.00     0.076 A 
HETATM   24 CL   UNL     1      -3.273   0.422   4.029  1.00  0.00    -0.080 Cl
ENDBRANCH  15  17
ENDBRANCH   1  13
TORSDOF 3
