REMARK  9 active torsions:
REMARK  status: ('A' for Active; 'I' for Inactive)
REMARK    1  A    between atoms: C_1  and  C_2 
REMARK    2  A    between atoms: C_2  and  C_3 
REMARK    3  A    between atoms: C_3  and  C_28 
REMARK    4  A    between atoms: C_9  and  N_22 
REMARK    5  A    between atoms: C_10  and  C_12 
REMARK       I    between atoms: C_12  and  N_19 
REMARK    6  A    between atoms: N_22  and  C_23 
REMARK    7  A    between atoms: C_25  and  N_26 
REMARK    8  A    between atoms: N_26  and  C_27 
REMARK    9  A    between atoms: C_27  and  C_28 
ROOT
HETATM    1  C   UNL     1       2.367   1.338  -0.387  1.00  0.00     0.031 A 
HETATM    2  C   UNL     1       3.257   0.543   0.338  1.00  0.00     0.033 A 
HETATM    3  C   UNL     1       2.882  -0.738   0.751  1.00  0.00     0.044 A 
HETATM    4  C   UNL     1       1.604  -1.244   0.428  1.00  0.00     0.021 A 
HETATM    5  C   UNL     1       0.708  -0.426  -0.287  1.00  0.00     0.045 A 
HETATM    6  C   UNL     1       1.261  -2.550   0.851  1.00  0.00     0.062 A 
HETATM    7  C   UNL     1       2.183  -3.299   1.617  1.00  0.00     0.074 A 
HETATM    8  C   UNL     1       3.435  -2.736   1.908  1.00  0.00     0.107 A 
HETATM    9  N   UNL     1       3.751  -1.491   1.471  1.00  0.00    -0.364 N 
ATOM     10  HN  UNL     1       4.671  -1.109   1.691  1.00  0.00     0.165 HD
HETATM   11  C   UNL     1       1.079   0.865  -0.697  1.00  0.00     0.028 A 
ENDROOT
BRANCH   6  12
HETATM   12  N   UNL     1      -0.035  -3.096   0.554  1.00  0.00    -0.355 N 
HETATM   13  H   UNL     1      -0.663  -3.311   1.361  1.00  0.00     0.166 HD
BRANCH  12  14
HETATM   14  C   UNL     1      -0.449  -3.485  -0.769  1.00  0.00     0.032 A 
HETATM   15  C   UNL     1      -1.776  -3.889  -0.985  1.00  0.00     0.029 A 
HETATM   16  C   UNL     1      -2.202  -4.271  -2.260  1.00  0.00     0.002 A 
HETATM   17  C   UNL     1      -1.306  -4.258  -3.332  1.00  0.00     0.000 A 
HETATM   18  C   UNL     1       0.019  -3.865  -3.128  1.00  0.00     0.002 A 
HETATM   19  C   UNL     1       0.450  -3.482  -1.855  1.00  0.00     0.029 A 
ENDBRANCH  12  14
ENDBRANCH   6  12
BRANCH   7  20
HETATM   20  C   UNL     1       1.876  -4.676   2.079  1.00  0.00     0.254 C 
HETATM   21  O   UNL     1       1.183  -5.440   1.354  1.00  0.00    -0.268 OA
HETATM   22  N   UNL     1       2.368  -5.150   3.341  1.00  0.00    -0.361 N 
HETATM   23  C   UNL     1       2.166  -6.528   3.772  1.00  0.00     0.149 C 
HETATM   24  H   UNL     1       2.853  -4.493   3.992  1.00  0.00     0.162 HD
ENDBRANCH   7  20
BRANCH  11  25
HETATM   25  N   UNL     1       0.134   1.662  -1.437  1.00  0.00    -0.390 N 
HETATM   26  H   UNL     1      -0.723   1.195  -1.813  1.00  0.00     0.159 HD
BRANCH  25  27
HETATM   27  C   UNL     1       0.255   3.103  -1.664  1.00  0.00     0.119 C 
BRANCH  27  28
HETATM   28  C   UNL     1       0.083   3.900  -0.359  1.00  0.00     0.020 C 
BRANCH  28  29
HETATM   29  C   UNL     1      -1.216   3.581   0.401  1.00  0.00     0.002 C 
BRANCH  29  30
HETATM   30  C   UNL     1      -2.476   3.994  -0.374  1.00  0.00    -0.000 C 
BRANCH  30  31
HETATM   31  C   UNL     1      -3.734   3.798   0.480  1.00  0.00    -0.005 C 
HETATM   32  C   UNL     1      -4.991   4.191  -0.291  1.00  0.00     0.005 C 
ENDBRANCH  30  31
ENDBRANCH  29  30
ENDBRANCH  28  29
ENDBRANCH  27  28
ENDBRANCH  25  27
ENDBRANCH  11  25
TORSDOF 9
