REMARK  9 active torsions:
REMARK  status: ('A' for Active; 'I' for Inactive)
REMARK    1  A    between atoms: C_1  and  C_2 
REMARK    2  A    between atoms: C_2  and  C_3 
REMARK    3  A    between atoms: C_3  and  C_31 
REMARK    4  A    between atoms: C_9  and  N_23 
REMARK    5  A    between atoms: C_10  and  C_12 
REMARK       I    between atoms: C_12  and  N_19 
REMARK    6  A    between atoms: N_23  and  C_25 
REMARK    7  A    between atoms: C_27  and  N_28 
REMARK    8  A    between atoms: N_28  and  C_30 
REMARK    9  A    between atoms: C_30  and  C_31 
ROOT
HETATM    1  C   UNL     1     -41.085   9.836   5.082  1.00  0.00     0.031 A 
HETATM    2  C   UNL     1     -41.890   8.778   4.774  1.00  0.00     0.033 A 
HETATM    3  C   UNL     1     -43.108   8.982   4.082  1.00  0.00     0.044 A 
HETATM    4  C   UNL     1     -43.471  10.297   3.706  1.00  0.00     0.021 A 
HETATM    5  C   UNL     1     -42.593  11.364   4.017  1.00  0.00     0.045 A 
HETATM    6  C   UNL     1     -44.700  10.463   3.015  1.00  0.00     0.062 A 
HETATM    7  C   UNL     1     -45.443   9.334   2.633  1.00  0.00     0.074 A 
HETATM    8  C   UNL     1     -44.978   8.088   3.083  1.00  0.00     0.107 A 
HETATM    9  N   UNL     1     -43.883   7.903   3.786  1.00  0.00    -0.364 N 
ATOM     10  HN  UNL     1     -43.619   6.970   4.103  1.00  0.00     0.165 HD
HETATM   11  C   UNL     1     -41.410  11.133   4.694  1.00  0.00     0.028 A 
ENDROOT
BRANCH   6  12
HETATM   12  N   UNL     1     -45.166  11.730   2.688  1.00  0.00    -0.355 N 
ATOM     13  HN  UNL     1     -45.502  11.872   1.736  1.00  0.00     0.166 HD
BRANCH  12  14
HETATM   14  C   UNL     1     -45.215  12.865   3.582  1.00  0.00     0.032 A 
HETATM   15  C   UNL     1     -45.238  12.766   4.963  1.00  0.00     0.029 A 
HETATM   16  C   UNL     1     -45.388  13.898   5.746  1.00  0.00     0.002 A 
HETATM   17  C   UNL     1     -45.479  15.130   5.147  1.00  0.00     0.000 A 
HETATM   18  C   UNL     1     -45.494  15.227   3.763  1.00  0.00     0.002 A 
HETATM   19  C   UNL     1     -45.351  14.108   2.975  1.00  0.00     0.029 A 
ENDBRANCH  12  14
ENDBRANCH   6  12
BRANCH   7  20
HETATM   20  C   UNL     1     -46.682   9.445   1.811  1.00  0.00     0.254 C 
HETATM   21  O   UNL     1     -47.041  10.518   1.295  1.00  0.00    -0.268 OA
HETATM   22  N   UNL     1     -47.400   8.351   1.566  1.00  0.00    -0.361 N 
HETATM   23  C   UNL     1     -48.567   8.395   0.698  1.00  0.00     0.149 C 
ATOM     24  HN  UNL     1     -47.127   7.466   1.994  1.00  0.00     0.162 HD
ENDBRANCH   7  20
BRANCH  11  25
HETATM   25  N   UNL     1     -40.547  12.183   4.934  1.00  0.00    -0.390 N 
ATOM     26  HN  UNL     1     -39.945  12.170   5.757  1.00  0.00     0.159 HD
BRANCH  25  27
HETATM   27  C   UNL     1     -40.496  13.310   4.013  1.00  0.00     0.119 C 
BRANCH  27  28
HETATM   28  C   UNL     1     -41.371  14.458   4.456  1.00  0.00     0.020 C 
BRANCH  28  29
HETATM   29  C   UNL     1     -41.268  15.719   3.634  1.00  0.00     0.002 C 
BRANCH  29  30
HETATM   30  C   UNL     1     -41.164  16.983   4.472  1.00  0.00    -0.000 C 
BRANCH  30  31
HETATM   31  C   UNL     1     -42.530  17.537   4.867  1.00  0.00    -0.005 C 
HETATM   32  C   UNL     1     -42.546  19.015   5.177  1.00  0.00     0.005 C 
ENDBRANCH  30  31
ENDBRANCH  29  30
ENDBRANCH  28  29
ENDBRANCH  27  28
ENDBRANCH  25  27
ENDBRANCH  11  25
TORSDOF 9
