MODEL 1
REMARK VINA RESULT:    -7.913      0.000      0.000
REMARK INTER + INTRA:         -10.898
REMARK INTER:                  -9.994
REMARK INTRA:                  -0.904
REMARK UNBOUND:                -0.904
REMARK  5 active torsions:
REMARK  status: ('A' for Active; 'I' for Inactive)
REMARK    1  A    between atoms: C_8  and  O_34 
REMARK    2  A    between atoms: C_16  and  C_22 
REMARK    3  A    between atoms: C_18  and  N_28 
REMARK    4  A    between atoms: C_20  and  S_38 
REMARK    5  A    between atoms: N_28  and  S_38 
ROOT
HETATM    1  N   UNL     1     -21.698 -38.837   2.494  1.00  0.00    -0.320 N 
ATOM      2  HN  UNL     1     -21.959 -38.546   3.436  1.00  0.00     0.169 HD
HETATM    3  N   UNL     1     -22.996 -40.613  -0.319  1.00  0.00    -0.278 N 
ATOM      4  HN  UNL     1     -23.938 -40.939  -0.106  1.00  0.00     0.189 HD
HETATM    5  C   UNL     1     -19.584 -37.790   2.748  1.00  0.00     0.055 A 
HETATM    6  C   UNL     1     -20.434 -38.514   1.967  1.00  0.00     0.051 A 
HETATM    7  C   UNL     1     -20.017 -38.886   0.660  1.00  0.00     0.038 A 
HETATM    8  C   UNL     1     -22.562 -39.545   1.723  1.00  0.00     0.245 A 
HETATM    9  C   UNL     1     -20.976 -39.630  -0.104  1.00  0.00     0.145 A 
HETATM   10  C   UNL     1     -22.735 -41.529  -2.705  1.00  0.00     0.090 C 
HETATM   11  C   UNL     1     -18.771 -38.536   0.135  1.00  0.00     0.031 A 
HETATM   12  C   UNL     1     -17.921 -37.800   0.952  1.00  0.00    -0.003 A 
HETATM   13  C   UNL     1     -18.359 -37.456   2.237  1.00  0.00     0.047 A 
HETATM   14  C   UNL     1     -22.267 -40.772  -1.468  1.00  0.00     0.094 A 
HETATM   15  N   UNL     1     -22.184 -39.942   0.424  1.00  0.00    -0.200 N 
HETATM   16  N   UNL     1     -20.953 -40.162  -1.344  1.00  0.00    -0.329 N 
ATOM     17  HN  UNL     1     -20.197 -40.141  -2.029  1.00  0.00     0.168 HD
HETATM   18 CL   UNL     1     -17.328 -36.528   3.338  1.00  0.00    -0.083 Cl
ENDROOT
BRANCH  12  19
HETATM   19  C   UNL     1     -16.531 -37.344   0.540  1.00  0.00    -0.018 A 
HETATM   20  C   UNL     1     -16.367 -35.873   0.143  1.00  0.00    -0.049 A 
HETATM   21  C   UNL     1     -17.566 -34.922   0.113  1.00  0.00     0.049 C 
HETATM   22  C   UNL     1     -15.180 -35.427  -0.189  1.00  0.00     0.037 A 
HETATM   23  C   UNL     1     -13.999 -36.382  -0.175  1.00  0.00     0.043 A 
HETATM   24  C   UNL     1     -14.139 -37.640   0.175  1.00  0.00     0.031 A 
HETATM   25  C   UNL     1     -15.510 -38.165   0.559  1.00  0.00     0.015 A 
BRANCH  23  26
HETATM   26  N   UNL     1     -12.676 -35.904  -0.469  1.00  0.00    -0.278 N 
ATOM     27  HN  UNL     1     -11.977 -35.962   0.272  1.00  0.00     0.179 HD
BRANCH  26  28
HETATM   28  S   UNL     1     -12.193 -35.261  -1.936  1.00  0.00     0.295 S 
HETATM   29  O   UNL     1     -10.847 -35.626  -2.358  1.00  0.00    -0.197 OA
HETATM   30  O   UNL     1     -13.144 -35.659  -2.986  1.00  0.00    -0.197 OA
BRANCH  28  31
HETATM   31  C   UNL     1     -12.381 -33.483  -1.774  1.00  0.00     0.220 A 
HETATM   32  N   UNL     1     -11.425 -32.604  -1.704  1.00  0.00    -0.361 N 
HETATM   33  C   UNL     1     -12.170 -31.236  -1.583  1.00  0.00     0.166 A 
ATOM     34  HN  UNL     1     -10.419 -32.769  -1.723  1.00  0.00     0.162 HD
HETATM   35  C   UNL     1     -13.465 -31.495  -1.603  1.00  0.00     0.083 A 
HETATM   36  N   UNL     1     -13.564 -32.817  -1.722  1.00  0.00    -0.344 N 
ATOM     37  HN  UNL     1     -14.464 -33.296  -1.771  1.00  0.00     0.167 HD
ENDBRANCH  28  31
ENDBRANCH  26  28
ENDBRANCH  23  26
ENDBRANCH  12  19
BRANCH   8  38
HETATM   38  O   UNL     1     -23.806 -39.866   2.228  1.00  0.00    -0.331 OA
ATOM     39  HO  UNL     1     -24.064 -40.780   2.274  1.00  0.00     0.221 HD
ENDBRANCH   8  38
TORSDOF 5
ENDMDL
MODEL 2
REMARK VINA RESULT:    -7.742      1.704      2.584
REMARK INTER + INTRA:         -10.683
REMARK INTER:                  -9.628
REMARK INTRA:                  -1.055
REMARK UNBOUND:                -0.904
REMARK  5 active torsions:
REMARK  status: ('A' for Active; 'I' for Inactive)
REMARK    1  A    between atoms: C_8  and  O_34 
REMARK    2  A    between atoms: C_16  and  C_22 
REMARK    3  A    between atoms: C_18  and  N_28 
REMARK    4  A    between atoms: C_20  and  S_38 
REMARK    5  A    between atoms: N_28  and  S_38 
ROOT
HETATM    1  N   UNL     1     -21.711 -38.829   2.488  1.00  0.00    -0.320 N 
ATOM      2  HN  UNL     1     -21.962 -38.530   3.430  1.00  0.00     0.169 HD
HETATM    3  N   UNL     1     -23.045 -40.620  -0.299  1.00  0.00    -0.278 N 
ATOM      4  HN  UNL     1     -23.987 -40.941  -0.075  1.00  0.00     0.189 HD
HETATM    5  C   UNL     1     -19.590 -37.790   2.713  1.00  0.00     0.055 A 
HETATM    6  C   UNL     1     -20.451 -38.517   1.946  1.00  0.00     0.051 A 
HETATM    7  C   UNL     1     -20.048 -38.900   0.639  1.00  0.00     0.038 A 
HETATM    8  C   UNL     1     -22.586 -39.539   1.730  1.00  0.00     0.245 A 
HETATM    9  C   UNL     1     -21.018 -39.646  -0.111  1.00  0.00     0.145 A 
HETATM   10  C   UNL     1     -22.812 -41.556  -2.680  1.00  0.00     0.090 C 
HETATM   11  C   UNL     1     -18.806 -38.561   0.099  1.00  0.00     0.031 A 
HETATM   12  C   UNL     1     -17.945 -37.822   0.902  1.00  0.00    -0.003 A 
HETATM   13  C   UNL     1     -18.368 -37.467   2.189  1.00  0.00     0.047 A 
HETATM   14  C   UNL     1     -22.327 -40.792  -1.454  1.00  0.00     0.094 A 
HETATM   15  N   UNL     1     -22.222 -39.947   0.431  1.00  0.00    -0.200 N 
HETATM   16  N   UNL     1     -21.010 -40.187  -1.347  1.00  0.00    -0.329 N 
ATOM     17  HN  UNL     1     -20.261 -40.175  -2.039  1.00  0.00     0.168 HD
HETATM   18 CL   UNL     1     -17.322 -36.535   3.272  1.00  0.00    -0.083 Cl
ENDROOT
BRANCH  12  19
HETATM   19  C   UNL     1     -16.556 -37.377   0.473  1.00  0.00    -0.018 A 
HETATM   20  C   UNL     1     -16.408 -35.935  -0.023  1.00  0.00    -0.049 A 
HETATM   21  C   UNL     1     -17.619 -35.005  -0.132  1.00  0.00     0.049 C 
HETATM   22  C   UNL     1     -15.223 -35.496  -0.374  1.00  0.00     0.037 A 
HETATM   23  C   UNL     1     -14.030 -36.431  -0.281  1.00  0.00     0.043 A 
HETATM   24  C   UNL     1     -14.156 -37.664   0.155  1.00  0.00     0.031 A 
HETATM   25  C   UNL     1     -15.525 -38.179   0.560  1.00  0.00     0.015 A 
BRANCH  23  26
HETATM   26  N   UNL     1     -12.710 -35.956  -0.595  1.00  0.00    -0.278 N 
ATOM     27  HN  UNL     1     -12.047 -35.862   0.175  1.00  0.00     0.179 HD
BRANCH  26  28
HETATM   28  S   UNL     1     -12.178 -35.544  -2.127  1.00  0.00     0.295 S 
HETATM   29  O   UNL     1     -12.938 -34.485  -2.780  1.00  0.00    -0.197 OA
HETATM   30  O   UNL     1     -10.764 -35.145  -2.068  1.00  0.00    -0.197 OA
BRANCH  28  31
HETATM   31  C   UNL     1     -12.205 -37.066  -3.078  1.00  0.00     0.220 A 
HETATM   32  N   UNL     1     -11.590 -38.176  -2.787  1.00  0.00    -0.361 N 
HETATM   33  C   UNL     1     -11.977 -39.144  -3.950  1.00  0.00     0.166 A 
ATOM     34  HN  UNL     1     -10.993 -38.369  -1.983  1.00  0.00     0.162 HD
HETATM   35  C   UNL     1     -12.770 -38.475  -4.767  1.00  0.00     0.083 A 
HETATM   36  N   UNL     1     -12.895 -37.262  -4.232  1.00  0.00    -0.344 N 
ATOM     37  HN  UNL     1     -13.466 -36.532  -4.658  1.00  0.00     0.167 HD
ENDBRANCH  28  31
ENDBRANCH  26  28
ENDBRANCH  23  26
ENDBRANCH  12  19
BRANCH   8  38
HETATM   38  O   UNL     1     -23.827 -39.850   2.250  1.00  0.00    -0.331 OA
ATOM     39  HO  UNL     1     -24.258 -40.650   1.971  1.00  0.00     0.221 HD
ENDBRANCH   8  38
TORSDOF 5
ENDMDL
MODEL 3
REMARK VINA RESULT:    -6.878      4.471     10.369
REMARK INTER + INTRA:          -9.591
REMARK INTER:                  -8.675
REMARK INTRA:                  -0.916
REMARK UNBOUND:                -0.904
REMARK  5 active torsions:
REMARK  status: ('A' for Active; 'I' for Inactive)
REMARK    1  A    between atoms: C_8  and  O_34 
REMARK    2  A    between atoms: C_16  and  C_22 
REMARK    3  A    between atoms: C_18  and  N_28 
REMARK    4  A    between atoms: C_20  and  S_38 
REMARK    5  A    between atoms: N_28  and  S_38 
ROOT
HETATM    1  N   UNL     1     -11.490 -29.691  -1.786  1.00  0.00    -0.320 N 
ATOM      2  HN  UNL     1     -10.561 -30.005  -2.065  1.00  0.00     0.169 HD
HETATM    3  N   UNL     1     -13.324 -26.699  -1.126  1.00  0.00    -0.278 N 
ATOM      4  HN  UNL     1     -12.713 -25.893  -1.257  1.00  0.00     0.189 HD
HETATM    5  C   UNL     1     -12.232 -31.943  -1.692  1.00  0.00     0.055 A 
HETATM    6  C   UNL     1     -12.517 -30.620  -1.534  1.00  0.00     0.051 A 
HETATM    7  C   UNL     1     -13.831 -30.242  -1.149  1.00  0.00     0.038 A 
HETATM    8  C   UNL     1     -11.763 -28.368  -1.648  1.00  0.00     0.245 A 
HETATM    9  C   UNL     1     -14.055 -28.831  -1.023  1.00  0.00     0.145 A 
HETATM   10  C   UNL     1     -15.496 -25.505  -0.448  1.00  0.00     0.090 C 
HETATM   11  C   UNL     1     -14.852 -31.170  -0.930  1.00  0.00     0.031 A 
HETATM   12  C   UNL     1     -14.535 -32.513  -1.094  1.00  0.00    -0.003 A 
HETATM   13  C   UNL     1     -13.228 -32.853  -1.466  1.00  0.00     0.047 A 
HETATM   14  C   UNL     1     -14.646 -26.729  -0.765  1.00  0.00     0.094 A 
HETATM   15  N   UNL     1     -13.052 -27.952  -1.259  1.00  0.00    -0.200 N 
HETATM   16  N   UNL     1     -15.133 -28.096  -0.675  1.00  0.00    -0.329 N 
ATOM     17  HN  UNL     1     -16.063 -28.421  -0.412  1.00  0.00     0.168 HD
HETATM   18 CL   UNL     1     -12.748 -34.543  -1.685  1.00  0.00    -0.083 Cl
ENDROOT
BRANCH  12  19
HETATM   19  C   UNL     1     -15.523 -33.650  -0.888  1.00  0.00    -0.018 A 
HETATM   20  C   UNL     1     -16.257 -34.171  -2.128  1.00  0.00    -0.049 A 
HETATM   21  C   UNL     1     -16.042 -33.533  -3.503  1.00  0.00     0.049 C 
HETATM   22  C   UNL     1     -17.095 -35.171  -2.004  1.00  0.00     0.037 A 
HETATM   23  C   UNL     1     -17.317 -35.786  -0.632  1.00  0.00     0.043 A 
HETATM   24  C   UNL     1     -16.680 -35.345   0.428  1.00  0.00     0.031 A 
HETATM   25  C   UNL     1     -15.710 -34.186   0.292  1.00  0.00     0.015 A 
BRANCH  23  26
HETATM   26  N   UNL     1     -18.179 -36.926  -0.480  1.00  0.00    -0.278 N 
ATOM     27  HN  UNL     1     -18.993 -36.987  -1.091  1.00  0.00     0.179 HD
BRANCH  26  28
HETATM   28  S   UNL     1     -17.947 -38.161   0.624  1.00  0.00     0.295 S 
HETATM   29  O   UNL     1     -17.955 -37.749   2.023  1.00  0.00    -0.197 OA
HETATM   30  O   UNL     1     -18.974 -39.197   0.430  1.00  0.00    -0.197 OA
BRANCH  28  31
HETATM   31  C   UNL     1     -16.394 -38.939   0.169  1.00  0.00     0.220 A 
HETATM   32  N   UNL     1     -16.240 -39.967  -0.613  1.00  0.00    -0.361 N 
HETATM   33  C   UNL     1     -14.694 -40.190  -0.651  1.00  0.00     0.166 A 
ATOM     34  HN  UNL     1     -16.962 -40.504  -1.091  1.00  0.00     0.162 HD
HETATM   35  C   UNL     1     -14.148 -39.260   0.110  1.00  0.00     0.083 A 
HETATM   36  N   UNL     1     -15.162 -38.534   0.575  1.00  0.00    -0.344 N 
ATOM     37  HN  UNL     1     -15.025 -37.733   1.191  1.00  0.00     0.167 HD
ENDBRANCH  28  31
ENDBRANCH  26  28
ENDBRANCH  23  26
ENDBRANCH  12  19
BRANCH   8  38
HETATM   38  O   UNL     1     -10.764 -27.447  -1.894  1.00  0.00    -0.331 OA
ATOM     39  HO  UNL     1      -9.874 -27.648  -1.628  1.00  0.00     0.221 HD
ENDBRANCH   8  38
TORSDOF 5
ENDMDL
MODEL 4
REMARK VINA RESULT:    -6.796      4.479      6.969
REMARK INTER + INTRA:          -9.488
REMARK INTER:                  -8.569
REMARK INTRA:                  -0.919
REMARK UNBOUND:                -0.904
REMARK  5 active torsions:
REMARK  status: ('A' for Active; 'I' for Inactive)
REMARK    1  A    between atoms: C_8  and  O_34 
REMARK    2  A    between atoms: C_16  and  C_22 
REMARK    3  A    between atoms: C_18  and  N_28 
REMARK    4  A    between atoms: C_20  and  S_38 
REMARK    5  A    between atoms: N_28  and  S_38 
ROOT
HETATM    1  N   UNL     1     -17.291 -36.312  -2.390  1.00  0.00    -0.320 N 
ATOM      2  HN  UNL     1     -17.464 -36.542  -3.368  1.00  0.00     0.169 HD
HETATM    3  N   UNL     1     -18.152 -37.384   0.906  1.00  0.00    -0.278 N 
ATOM      4  HN  UNL     1     -18.784 -38.182   0.847  1.00  0.00     0.189 HD
HETATM    5  C   UNL     1     -15.873 -34.528  -3.053  1.00  0.00     0.055 A 
HETATM    6  C   UNL     1     -16.453 -35.236  -2.043  1.00  0.00     0.051 A 
HETATM    7  C   UNL     1     -16.169 -34.872  -0.699  1.00  0.00     0.038 A 
HETATM    8  C   UNL     1     -17.864 -37.036  -1.395  1.00  0.00     0.245 A 
HETATM    9  C   UNL     1     -16.803 -35.677   0.305  1.00  0.00     0.145 A 
HETATM   10  C   UNL     1     -17.982 -37.139   3.458  1.00  0.00     0.090 C 
HETATM   11  C   UNL     1     -15.313 -33.820  -0.364  1.00  0.00     0.031 A 
HETATM   12  C   UNL     1     -14.736 -33.113  -1.411  1.00  0.00    -0.003 A 
HETATM   13  C   UNL     1     -15.043 -33.491  -2.725  1.00  0.00     0.047 A 
HETATM   14  C   UNL     1     -17.653 -36.759   2.019  1.00  0.00     0.094 A 
HETATM   15  N   UNL     1     -17.615 -36.702  -0.047  1.00  0.00    -0.200 N 
HETATM   16  N   UNL     1     -16.795 -35.644   1.654  1.00  0.00    -0.329 N 
ATOM     17  HN  UNL     1     -16.306 -34.994   2.269  1.00  0.00     0.168 HD
HETATM   18 CL   UNL     1     -14.354 -32.630  -4.110  1.00  0.00    -0.083 Cl
ENDROOT
BRANCH  12  19
HETATM   19  C   UNL     1     -13.790 -31.938  -1.224  1.00  0.00    -0.018 A 
HETATM   20  C   UNL     1     -12.291 -32.218  -1.376  1.00  0.00    -0.049 A 
HETATM   21  C   UNL     1     -11.772 -33.632  -1.650  1.00  0.00     0.049 C 
HETATM   22  C   UNL     1     -11.438 -31.230  -1.253  1.00  0.00     0.037 A 
HETATM   23  C   UNL     1     -11.961 -29.833  -0.962  1.00  0.00     0.043 A 
HETATM   24  C   UNL     1     -13.246 -29.593  -0.842  1.00  0.00     0.031 A 
HETATM   25  C   UNL     1     -14.239 -30.732  -0.980  1.00  0.00     0.015 A 
BRANCH  23  26
HETATM   26  N   UNL     1     -11.054 -28.720  -0.890  1.00  0.00    -0.278 N 
ATOM     27  HN  UNL     1     -10.914 -28.284   0.022  1.00  0.00     0.179 HD
BRANCH  26  28
HETATM   28  S   UNL     1     -10.210 -28.086  -2.187  1.00  0.00     0.295 S 
HETATM   29  O   UNL     1     -10.375 -28.808  -3.443  1.00  0.00    -0.197 OA
HETATM   30  O   UNL     1     -10.602 -26.682  -2.393  1.00  0.00    -0.197 OA
BRANCH  28  31
HETATM   31  C   UNL     1      -8.491 -28.030  -1.672  1.00  0.00     0.220 A 
HETATM   32  N   UNL     1      -7.504 -28.705  -2.184  1.00  0.00    -0.361 N 
HETATM   33  C   UNL     1      -6.260 -28.252  -1.354  1.00  0.00     0.166 A 
ATOM     34  HN  UNL     1      -7.535 -29.375  -2.951  1.00  0.00     0.162 HD
HETATM   35  C   UNL     1      -6.684 -27.369  -0.468  1.00  0.00     0.083 A 
HETATM   36  N   UNL     1      -7.993 -27.249  -0.677  1.00  0.00    -0.344 N 
ATOM     37  HN  UNL     1      -8.579 -26.618  -0.131  1.00  0.00     0.167 HD
ENDBRANCH  28  31
ENDBRANCH  26  28
ENDBRANCH  23  26
ENDBRANCH  12  19
BRANCH   8  38
HETATM   38  O   UNL     1     -18.686 -38.096  -1.722  1.00  0.00    -0.331 OA
ATOM     39  HO  UNL     1     -19.397 -38.328  -1.136  1.00  0.00     0.221 HD
ENDBRANCH   8  38
TORSDOF 5
ENDMDL
MODEL 5
REMARK VINA RESULT:    -6.794      4.036     10.491
REMARK INTER + INTRA:          -9.485
REMARK INTER:                  -8.925
REMARK INTRA:                  -0.560
REMARK UNBOUND:                -0.904
REMARK  5 active torsions:
REMARK  status: ('A' for Active; 'I' for Inactive)
REMARK    1  A    between atoms: C_8  and  O_34 
REMARK    2  A    between atoms: C_16  and  C_22 
REMARK    3  A    between atoms: C_18  and  N_28 
REMARK    4  A    between atoms: C_20  and  S_38 
REMARK    5  A    between atoms: N_28  and  S_38 
ROOT
HETATM    1  N   UNL     1     -11.401 -29.161  -1.751  1.00  0.00    -0.320 N 
ATOM      2  HN  UNL     1     -10.420 -29.317  -1.983  1.00  0.00     0.169 HD
HETATM    3  N   UNL     1     -13.709 -26.518  -1.093  1.00  0.00    -0.278 N 
ATOM      4  HN  UNL     1     -13.224 -25.623  -1.154  1.00  0.00     0.189 HD
HETATM    5  C   UNL     1     -11.789 -31.502  -1.791  1.00  0.00     0.055 A 
HETATM    6  C   UNL     1     -12.284 -30.246  -1.600  1.00  0.00     0.051 A 
HETATM    7  C   UNL     1     -13.661 -30.092  -1.285  1.00  0.00     0.038 A 
HETATM    8  C   UNL     1     -11.882 -27.904  -1.580  1.00  0.00     0.245 A 
HETATM    9  C   UNL     1     -14.107 -28.739  -1.118  1.00  0.00     0.145 A 
HETATM   10  C   UNL     1     -16.074 -25.702  -0.508  1.00  0.00     0.090 C 
HETATM   11  C   UNL     1     -14.536 -31.174  -1.165  1.00  0.00     0.031 A 
HETATM   12  C   UNL     1     -14.007 -32.444  -1.361  1.00  0.00    -0.003 A 
HETATM   13  C   UNL     1     -12.644 -32.562  -1.663  1.00  0.00     0.047 A 
HETATM   14  C   UNL     1     -15.029 -26.766  -0.817  1.00  0.00     0.094 A 
HETATM   15  N   UNL     1     -13.240 -27.707  -1.256  1.00  0.00    -0.200 N 
HETATM   16  N   UNL     1     -15.303 -28.194  -0.810  1.00  0.00    -0.329 N 
ATOM     17  HN  UNL     1     -16.185 -28.669  -0.619  1.00  0.00     0.168 HD
HETATM   18 CL   UNL     1     -11.897 -34.148  -1.916  1.00  0.00    -0.083 Cl
ENDROOT
BRANCH  12  19
HETATM   19  C   UNL     1     -14.817 -33.726  -1.262  1.00  0.00    -0.018 A 
HETATM   20  C   UNL     1     -15.364 -34.310  -2.569  1.00  0.00    -0.049 A 
HETATM   21  C   UNL     1     -15.147 -33.598  -3.907  1.00  0.00     0.049 C 
HETATM   22  C   UNL     1     -16.042 -35.432  -2.536  1.00  0.00     0.037 A 
HETATM   23  C   UNL     1     -16.268 -36.121  -1.201  1.00  0.00     0.043 A 
HETATM   24  C   UNL     1     -15.790 -35.625  -0.083  1.00  0.00     0.031 A 
HETATM   25  C   UNL     1     -15.006 -34.326  -0.113  1.00  0.00     0.015 A 
BRANCH  23  26
HETATM   26  N   UNL     1     -16.950 -37.386  -1.144  1.00  0.00    -0.278 N 
ATOM     27  HN  UNL     1     -17.629 -37.589  -1.878  1.00  0.00     0.179 HD
BRANCH  26  28
HETATM   28  S   UNL     1     -16.713 -38.550   0.033  1.00  0.00     0.295 S 
HETATM   29  O   UNL     1     -16.964 -39.921  -0.395  1.00  0.00    -0.197 OA
HETATM   30  O   UNL     1     -15.338 -38.459   0.548  1.00  0.00    -0.197 OA
BRANCH  28  31
HETATM   31  C   UNL     1     -17.768 -38.077   1.406  1.00  0.00     0.220 A 
HETATM   32  N   UNL     1     -17.406 -37.442   2.482  1.00  0.00    -0.361 N 
HETATM   33  C   UNL     1     -18.726 -37.301   3.306  1.00  0.00     0.166 A 
ATOM     34  HN  UNL     1     -16.474 -37.112   2.731  1.00  0.00     0.162 HD
HETATM   35  C   UNL     1     -19.687 -37.869   2.601  1.00  0.00     0.083 A 
HETATM   36  N   UNL     1     -19.104 -38.311   1.489  1.00  0.00    -0.344 N 
ATOM     37  HN  UNL     1     -19.623 -38.790   0.753  1.00  0.00     0.167 HD
ENDBRANCH  28  31
ENDBRANCH  26  28
ENDBRANCH  23  26
ENDBRANCH  12  19
BRANCH   8  38
HETATM   38  O   UNL     1     -11.026 -26.831  -1.727  1.00  0.00    -0.331 OA
ATOM     39  HO  UNL     1     -11.192 -26.035  -1.233  1.00  0.00     0.221 HD
ENDBRANCH   8  38
TORSDOF 5
ENDMDL
MODEL 6
REMARK VINA RESULT:    -6.659      5.055      8.808
REMARK INTER + INTRA:          -9.314
REMARK INTER:                  -8.428
REMARK INTRA:                  -0.886
REMARK UNBOUND:                -0.904
REMARK  5 active torsions:
REMARK  status: ('A' for Active; 'I' for Inactive)
REMARK    1  A    between atoms: C_8  and  O_34 
REMARK    2  A    between atoms: C_16  and  C_22 
REMARK    3  A    between atoms: C_18  and  N_28 
REMARK    4  A    between atoms: C_20  and  S_38 
REMARK    5  A    between atoms: N_28  and  S_38 
ROOT
HETATM    1  N   UNL     1     -17.287 -33.558  -0.093  1.00  0.00    -0.320 N 
ATOM      2  HN  UNL     1     -18.225 -33.333   0.236  1.00  0.00     0.169 HD
HETATM    3  N   UNL     1     -14.353 -31.987  -1.388  1.00  0.00    -0.278 N 
ATOM      4  HN  UNL     1     -14.509 -30.982  -1.454  1.00  0.00     0.189 HD
HETATM    5  C   UNL     1     -17.676 -35.858   0.341  1.00  0.00     0.055 A 
HETATM    6  C   UNL     1     -16.831 -34.889  -0.110  1.00  0.00     0.051 A 
HETATM    7  C   UNL     1     -15.532 -35.262  -0.550  1.00  0.00     0.038 A 
HETATM    8  C   UNL     1     -16.450 -32.579  -0.523  1.00  0.00     0.245 A 
HETATM    9  C   UNL     1     -14.697 -34.182  -0.991  1.00  0.00     0.145 A 
HETATM   10  C   UNL     1     -11.949 -32.123  -2.286  1.00  0.00     0.090 C 
HETATM   11  C   UNL     1     -15.079 -36.583  -0.536  1.00  0.00     0.031 A 
HETATM   12  C   UNL     1     -15.960 -37.552  -0.075  1.00  0.00    -0.003 A 
HETATM   13  C   UNL     1     -17.236 -37.153   0.344  1.00  0.00     0.047 A 
HETATM   14  C   UNL     1     -13.233 -32.709  -1.711  1.00  0.00     0.094 A 
HETATM   15  N   UNL     1     -15.156 -32.908  -0.978  1.00  0.00    -0.200 N 
HETATM   16  N   UNL     1     -13.440 -34.129  -1.481  1.00  0.00    -0.329 N 
ATOM     17  HN  UNL     1     -12.793 -34.899  -1.648  1.00  0.00     0.168 HD
HETATM   18 CL   UNL     1     -18.417 -38.333   0.935  1.00  0.00    -0.083 Cl
ENDROOT
BRANCH  12  19
HETATM   19  C   UNL     1     -15.631 -39.034  -0.001  1.00  0.00    -0.018 A 
HETATM   20  C   UNL     1     -16.079 -39.909  -1.177  1.00  0.00    -0.049 A 
HETATM   21  C   UNL     1     -16.871 -39.320  -2.346  1.00  0.00     0.049 C 
HETATM   22  C   UNL     1     -15.789 -41.188  -1.172  1.00  0.00     0.037 A 
HETATM   23  C   UNL     1     -15.019 -41.768   0.003  1.00  0.00     0.043 A 
HETATM   24  C   UNL     1     -14.627 -41.015   1.005  1.00  0.00     0.031 A 
HETATM   25  C   UNL     1     -14.960 -39.535   1.007  1.00  0.00     0.015 A 
BRANCH  23  26
HETATM   26  N   UNL     1     -14.630 -43.152   0.002  1.00  0.00    -0.278 N 
ATOM     27  HN  UNL     1     -14.337 -43.559  -0.886  1.00  0.00     0.179 HD
BRANCH  26  28
HETATM   28  S   UNL     1     -14.621 -44.146   1.347  1.00  0.00     0.295 S 
HETATM   29  O   UNL     1     -15.498 -43.723   2.432  1.00  0.00    -0.197 OA
HETATM   30  O   UNL     1     -14.983 -45.516   0.951  1.00  0.00    -0.197 OA
BRANCH  28  31
HETATM   31  C   UNL     1     -12.908 -44.239   1.874  1.00  0.00     0.220 A 
HETATM   32  N   UNL     1     -11.944 -43.435   1.532  1.00  0.00    -0.361 N 
HETATM   33  C   UNL     1     -10.695 -43.990   2.290  1.00  0.00     0.166 A 
ATOM     34  HN  UNL     1     -11.993 -42.628   0.911  1.00  0.00     0.162 HD
HETATM   35  C   UNL     1     -11.095 -45.043   2.979  1.00  0.00     0.083 A 
HETATM   36  N   UNL     1     -12.396 -45.166   2.726  1.00  0.00    -0.344 N 
ATOM     37  HN  UNL     1     -12.966 -45.903   3.140  1.00  0.00     0.167 HD
ENDBRANCH  28  31
ENDBRANCH  26  28
ENDBRANCH  23  26
ENDBRANCH  12  19
BRANCH   8  38
HETATM   38  O   UNL     1     -16.885 -31.269  -0.510  1.00  0.00    -0.331 OA
ATOM     39  HO  UNL     1     -17.400 -30.945  -1.240  1.00  0.00     0.221 HD
ENDBRANCH   8  38
TORSDOF 5
ENDMDL
MODEL 7
REMARK VINA RESULT:    -6.618      4.641      7.039
REMARK INTER + INTRA:          -9.263
REMARK INTER:                  -8.193
REMARK INTRA:                  -1.071
REMARK UNBOUND:                -0.904
REMARK  5 active torsions:
REMARK  status: ('A' for Active; 'I' for Inactive)
REMARK    1  A    between atoms: C_8  and  O_34 
REMARK    2  A    between atoms: C_16  and  C_22 
REMARK    3  A    between atoms: C_18  and  N_28 
REMARK    4  A    between atoms: C_20  and  S_38 
REMARK    5  A    between atoms: N_28  and  S_38 
ROOT
HETATM    1  N   UNL     1     -17.323 -36.387  -1.951  1.00  0.00    -0.320 N 
ATOM      2  HN  UNL     1     -17.512 -36.728  -2.893  1.00  0.00     0.169 HD
HETATM    3  N   UNL     1     -17.918 -37.218   1.470  1.00  0.00    -0.278 N 
ATOM      4  HN  UNL     1     -18.461 -38.080   1.519  1.00  0.00     0.189 HD
HETATM    5  C   UNL     1     -16.139 -34.538  -2.850  1.00  0.00     0.055 A 
HETATM    6  C   UNL     1     -16.594 -35.201  -1.750  1.00  0.00     0.051 A 
HETATM    7  C   UNL     1     -16.293 -34.681  -0.462  1.00  0.00     0.038 A 
HETATM    8  C   UNL     1     -17.769 -37.068  -0.865  1.00  0.00     0.245 A 
HETATM    9  C   UNL     1     -16.791 -35.447   0.644  1.00  0.00     0.145 A 
HETATM   10  C   UNL     1     -17.666 -36.710   3.976  1.00  0.00     0.090 C 
HETATM   11  C   UNL     1     -15.543 -33.518  -0.272  1.00  0.00     0.031 A 
HETATM   12  C   UNL     1     -15.093 -32.859  -1.409  1.00  0.00    -0.003 A 
HETATM   13  C   UNL     1     -15.414 -33.393  -2.664  1.00  0.00     0.047 A 
HETATM   14  C   UNL     1     -17.442 -36.440   2.493  1.00  0.00     0.094 A 
HETATM   15  N   UNL     1     -17.501 -36.580   0.431  1.00  0.00    -0.200 N 
HETATM   16  N   UNL     1     -16.728 -35.282   1.982  1.00  0.00    -0.329 N 
ATOM     17  HN  UNL     1     -16.287 -34.527   2.507  1.00  0.00     0.168 HD
HETATM   18 CL   UNL     1     -14.884 -32.603  -4.158  1.00  0.00    -0.083 Cl
ENDROOT
BRANCH  12  19
HETATM   19  C   UNL     1     -14.274 -31.579  -1.381  1.00  0.00    -0.018 A 
HETATM   20  C   UNL     1     -15.045 -30.255  -1.408  1.00  0.00    -0.049 A 
HETATM   21  C   UNL     1     -16.572 -30.229  -1.513  1.00  0.00     0.049 C 
HETATM   22  C   UNL     1     -14.382 -29.125  -1.354  1.00  0.00     0.037 A 
HETATM   23  C   UNL     1     -12.865 -29.160  -1.269  1.00  0.00     0.043 A 
HETATM   24  C   UNL     1     -12.206 -30.296  -1.236  1.00  0.00     0.031 A 
HETATM   25  C   UNL     1     -12.967 -31.607  -1.300  1.00  0.00     0.015 A 
BRANCH  23  26
HETATM   26  N   UNL     1     -12.117 -27.939  -1.140  1.00  0.00    -0.278 N 
ATOM     27  HN  UNL     1     -12.130 -27.472  -0.234  1.00  0.00     0.179 HD
BRANCH  26  28
HETATM   28  S   UNL     1     -11.229 -27.226  -2.365  1.00  0.00     0.295 S 
HETATM   29  O   UNL     1     -11.572 -27.664  -3.713  1.00  0.00    -0.197 OA
HETATM   30  O   UNL     1     -11.371 -25.763  -2.291  1.00  0.00    -0.197 OA
BRANCH  28  31
HETATM   31  C   UNL     1      -9.508 -27.557  -1.976  1.00  0.00     0.220 A 
HETATM   32  N   UNL     1      -8.806 -28.581  -2.364  1.00  0.00    -0.361 N 
HETATM   33  C   UNL     1      -7.395 -28.338  -1.739  1.00  0.00     0.166 A 
ATOM     34  HN  UNL     1      -9.108 -29.364  -2.943  1.00  0.00     0.162 HD
HETATM   35  C   UNL     1      -7.456 -27.200  -1.071  1.00  0.00     0.083 A 
HETATM   36  N   UNL     1      -8.702 -26.757  -1.230  1.00  0.00    -0.344 N 
ATOM     37  HN  UNL     1      -9.027 -25.882  -0.820  1.00  0.00     0.167 HD
ENDBRANCH  28  31
ENDBRANCH  26  28
ENDBRANCH  23  26
ENDBRANCH  12  19
BRANCH   8  38
HETATM   38  O   UNL     1     -18.485 -38.234  -1.049  1.00  0.00    -0.331 OA
ATOM     39  HO  UNL     1     -18.620 -38.559  -1.932  1.00  0.00     0.221 HD
ENDBRANCH   8  38
TORSDOF 5
ENDMDL
MODEL 8
REMARK VINA RESULT:    -6.551      4.844      9.591
REMARK INTER + INTRA:          -9.179
REMARK INTER:                  -8.259
REMARK INTRA:                  -0.919
REMARK UNBOUND:                -0.904
REMARK  5 active torsions:
REMARK  status: ('A' for Active; 'I' for Inactive)
REMARK    1  A    between atoms: C_8  and  O_34 
REMARK    2  A    between atoms: C_16  and  C_22 
REMARK    3  A    between atoms: C_18  and  N_28 
REMARK    4  A    between atoms: C_20  and  S_38 
REMARK    5  A    between atoms: N_28  and  S_38 
ROOT
HETATM    1  N   UNL     1     -16.310 -29.753  -0.990  1.00  0.00    -0.320 N 
ATOM      2  HN  UNL     1     -17.261 -29.386  -0.980  1.00  0.00     0.169 HD
HETATM    3  N   UNL     1     -12.914 -28.653  -1.090  1.00  0.00    -0.278 N 
ATOM      4  HN  UNL     1     -12.890 -27.635  -1.124  1.00  0.00     0.189 HD
HETATM    5  C   UNL     1     -17.155 -31.968  -0.898  1.00  0.00     0.055 A 
HETATM    6  C   UNL     1     -16.075 -31.140  -0.958  1.00  0.00     0.051 A 
HETATM    7  C   UNL     1     -14.773 -31.710  -0.963  1.00  0.00     0.038 A 
HETATM    8  C   UNL     1     -15.243 -28.915  -1.034  1.00  0.00     0.245 A 
HETATM    9  C   UNL     1     -13.690 -30.771  -1.009  1.00  0.00     0.145 A 
HETATM   10  C   UNL     1     -10.395 -29.159  -1.133  1.00  0.00     0.090 C 
HETATM   11  C   UNL     1     -14.549 -33.087  -0.902  1.00  0.00     0.031 A 
HETATM   12  C   UNL     1     -15.667 -33.910  -0.844  1.00  0.00    -0.003 A 
HETATM   13  C   UNL     1     -16.936 -33.318  -0.850  1.00  0.00     0.047 A 
HETATM   14  C   UNL     1     -11.869 -29.541  -1.074  1.00  0.00     0.094 A 
HETATM   15  N   UNL     1     -13.934 -29.440  -1.050  1.00  0.00    -0.200 N 
HETATM   16  N   UNL     1     -12.347 -30.913  -1.040  1.00  0.00    -0.329 N 
ATOM     17  HN  UNL     1     -11.802 -31.774  -1.040  1.00  0.00     0.168 HD
HETATM   18 CL   UNL     1     -18.407 -34.303  -0.788  1.00  0.00    -0.083 Cl
ENDROOT
BRANCH  12  19
HETATM   19  C   UNL     1     -15.603 -35.428  -0.782  1.00  0.00    -0.018 A 
HETATM   20  C   UNL     1     -15.827 -36.081   0.586  1.00  0.00    -0.049 A 
HETATM   21  C   UNL     1     -16.052 -35.234   1.841  1.00  0.00     0.049 C 
HETATM   22  C   UNL     1     -15.811 -37.388   0.683  1.00  0.00     0.037 A 
HETATM   23  C   UNL     1     -15.568 -38.220  -0.565  1.00  0.00     0.043 A 
HETATM   24  C   UNL     1     -15.387 -37.660  -1.739  1.00  0.00     0.031 A 
HETATM   25  C   UNL     1     -15.401 -36.147  -1.858  1.00  0.00     0.015 A 
BRANCH  23  26
HETATM   26  N   UNL     1     -15.613 -39.656  -0.499  1.00  0.00    -0.278 N 
ATOM     27  HN  UNL     1     -16.526 -40.094  -0.372  1.00  0.00     0.179 HD
BRANCH  26  28
HETATM   28  S   UNL     1     -14.283 -40.663  -0.615  1.00  0.00     0.295 S 
HETATM   29  O   UNL     1     -13.952 -41.097  -1.967  1.00  0.00    -0.197 OA
HETATM   30  O   UNL     1     -13.108 -39.997  -0.031  1.00  0.00    -0.197 OA
BRANCH  28  31
HETATM   31  C   UNL     1     -14.628 -42.054   0.465  1.00  0.00     0.220 A 
HETATM   32  N   UNL     1     -15.167 -43.188   0.124  1.00  0.00    -0.361 N 
HETATM   33  C   UNL     1     -15.213 -44.006   1.455  1.00  0.00     0.166 A 
ATOM     34  HN  UNL     1     -15.487 -43.477  -0.800  1.00  0.00     0.162 HD
HETATM   35  C   UNL     1     -14.690 -43.243   2.398  1.00  0.00     0.083 A 
HETATM   36  N   UNL     1     -14.349 -42.107   1.794  1.00  0.00    -0.344 N 
ATOM     37  HN  UNL     1     -13.909 -41.333   2.292  1.00  0.00     0.167 HD
ENDBRANCH  28  31
ENDBRANCH  26  28
ENDBRANCH  23  26
ENDBRANCH  12  19
BRANCH   8  38
HETATM   38  O   UNL     1     -15.461 -27.551  -1.063  1.00  0.00    -0.331 OA
ATOM     39  HO  UNL     1     -15.191 -27.056  -1.829  1.00  0.00     0.221 HD
ENDBRANCH   8  38
TORSDOF 5
ENDMDL
MODEL 9
REMARK VINA RESULT:    -6.532      3.810      9.919
REMARK INTER + INTRA:          -9.155
REMARK INTER:                  -8.496
REMARK INTRA:                  -0.659
REMARK UNBOUND:                -0.904
REMARK  5 active torsions:
REMARK  status: ('A' for Active; 'I' for Inactive)
REMARK    1  A    between atoms: C_8  and  O_34 
REMARK    2  A    between atoms: C_16  and  C_22 
REMARK    3  A    between atoms: C_18  and  N_28 
REMARK    4  A    between atoms: C_20  and  S_38 
REMARK    5  A    between atoms: N_28  and  S_38 
ROOT
HETATM    1  N   UNL     1     -15.198 -28.765  -0.801  1.00  0.00    -0.320 N 
ATOM      2  HN  UNL     1     -16.093 -28.316  -0.605  1.00  0.00     0.169 HD
HETATM    3  N   UNL     1     -11.773 -27.969  -1.420  1.00  0.00    -0.278 N 
ATOM      4  HN  UNL     1     -11.652 -26.957  -1.397  1.00  0.00     0.189 HD
HETATM    5  C   UNL     1     -16.237 -30.896  -0.697  1.00  0.00     0.055 A 
HETATM    6  C   UNL     1     -15.103 -30.166  -0.894  1.00  0.00     0.051 A 
HETATM    7  C   UNL     1     -13.885 -30.848  -1.157  1.00  0.00     0.038 A 
HETATM    8  C   UNL     1     -14.075 -28.024  -0.978  1.00  0.00     0.245 A 
HETATM    9  C   UNL     1     -12.734 -30.009  -1.334  1.00  0.00     0.145 A 
HETATM   10  C   UNL     1      -9.360 -28.693  -1.928  1.00  0.00     0.090 C 
HETATM   11  C   UNL     1     -13.794 -32.240  -1.219  1.00  0.00     0.031 A 
HETATM   12  C   UNL     1     -14.964 -32.962  -1.018  1.00  0.00    -0.003 A 
HETATM   13  C   UNL     1     -16.150 -32.260  -0.769  1.00  0.00     0.047 A 
HETATM   14  C   UNL     1     -10.835 -28.945  -1.638  1.00  0.00     0.094 A 
HETATM   15  N   UNL     1     -12.847 -28.662  -1.252  1.00  0.00    -0.200 N 
HETATM   16  N   UNL     1     -11.438 -30.267  -1.605  1.00  0.00    -0.329 N 
ATOM     17  HN  UNL     1     -10.989 -31.171  -1.751  1.00  0.00     0.168 HD
HETATM   18 CL   UNL     1     -17.682 -33.111  -0.513  1.00  0.00    -0.083 Cl
ENDROOT
BRANCH  12  19
HETATM   19  C   UNL     1     -15.044 -34.479  -1.059  1.00  0.00    -0.018 A 
HETATM   20  C   UNL     1     -15.536 -35.118  -2.362  1.00  0.00    -0.049 A 
HETATM   21  C   UNL     1     -15.978 -34.258  -3.549  1.00  0.00     0.049 C 
HETATM   22  C   UNL     1     -15.592 -36.425  -2.455  1.00  0.00     0.037 A 
HETATM   23  C   UNL     1     -15.169 -37.270  -1.265  1.00  0.00     0.043 A 
HETATM   24  C   UNL     1     -14.738 -36.722  -0.153  1.00  0.00     0.031 A 
HETATM   25  C   UNL     1     -14.673 -35.210  -0.037  1.00  0.00     0.015 A 
BRANCH  23  26
HETATM   26  N   UNL     1     -15.156 -38.705  -1.363  1.00  0.00    -0.278 N 
ATOM     27  HN  UNL     1     -14.321 -39.143  -1.751  1.00  0.00     0.179 HD
BRANCH  26  28
HETATM   28  S   UNL     1     -16.407 -39.709  -0.888  1.00  0.00     0.295 S 
HETATM   29  O   UNL     1     -17.276 -40.164  -1.966  1.00  0.00    -0.197 OA
HETATM   30  O   UNL     1     -15.859 -40.884  -0.192  1.00  0.00    -0.197 OA
BRANCH  28  31
HETATM   31  C   UNL     1     -17.317 -38.797   0.362  1.00  0.00     0.220 A 
HETATM   32  N   UNL     1     -18.568 -38.443   0.309  1.00  0.00    -0.361 N 
HETATM   33  C   UNL     1     -18.812 -37.694   1.658  1.00  0.00     0.166 A 
ATOM     34  HN  UNL     1     -19.237 -38.616  -0.441  1.00  0.00     0.162 HD
HETATM   35  C   UNL     1     -17.672 -37.712   2.324  1.00  0.00     0.083 A 
HETATM   36  N   UNL     1     -16.812 -38.369   1.548  1.00  0.00    -0.344 N 
ATOM     37  HN  UNL     1     -15.845 -38.538   1.824  1.00  0.00     0.167 HD
ENDBRANCH  28  31
ENDBRANCH  26  28
ENDBRANCH  23  26
ENDBRANCH  12  19
BRANCH   8  38
HETATM   38  O   UNL     1     -14.155 -26.649  -0.888  1.00  0.00    -0.331 OA
ATOM     39  HO  UNL     1     -14.388 -26.253  -0.056  1.00  0.00     0.221 HD
ENDBRANCH   8  38
TORSDOF 5
ENDMDL
MODEL 10
REMARK VINA RESULT:    -6.465      5.308      7.403
REMARK INTER + INTRA:          -9.070
REMARK INTER:                  -8.127
REMARK INTRA:                  -0.943
REMARK UNBOUND:                -0.904
REMARK  5 active torsions:
REMARK  status: ('A' for Active; 'I' for Inactive)
REMARK    1  A    between atoms: C_8  and  O_34 
REMARK    2  A    between atoms: C_16  and  C_22 
REMARK    3  A    between atoms: C_18  and  N_28 
REMARK    4  A    between atoms: C_20  and  S_38 
REMARK    5  A    between atoms: N_28  and  S_38 
ROOT
HETATM    1  N   UNL     1     -13.656 -41.708   0.450  1.00  0.00    -0.320 N 
ATOM      2  HN  UNL     1     -14.090 -42.311   1.148  1.00  0.00     0.169 HD
HETATM    3  N   UNL     1     -11.030 -41.712  -1.970  1.00  0.00    -0.278 N 
ATOM      4  HN  UNL     1     -10.557 -42.615  -1.953  1.00  0.00     0.189 HD
HETATM    5  C   UNL     1     -15.185 -39.974   0.985  1.00  0.00     0.055 A 
HETATM    6  C   UNL     1     -14.126 -40.398   0.239  1.00  0.00     0.051 A 
HETATM    7  C   UNL     1     -13.567 -39.515  -0.723  1.00  0.00     0.038 A 
HETATM    8  C   UNL     1     -12.612 -42.151  -0.296  1.00  0.00     0.245 A 
HETATM    9  C   UNL     1     -12.468 -40.043  -1.478  1.00  0.00     0.145 A 
HETATM   10  C   UNL     1      -9.670 -40.532  -3.802  1.00  0.00     0.090 C 
HETATM   11  C   UNL     1     -14.059 -38.227  -0.944  1.00  0.00     0.031 A 
HETATM   12  C   UNL     1     -15.137 -37.817  -0.170  1.00  0.00    -0.003 A 
HETATM   13  C   UNL     1     -15.660 -38.708   0.775  1.00  0.00     0.047 A 
HETATM   14  C   UNL     1     -10.779 -40.621  -2.761  1.00  0.00     0.094 A 
HETATM   15  N   UNL     1     -12.021 -41.302  -1.255  1.00  0.00    -0.200 N 
HETATM   16  N   UNL     1     -11.682 -39.527  -2.447  1.00  0.00    -0.329 N 
ATOM     17  HN  UNL     1     -11.716 -38.595  -2.860  1.00  0.00     0.168 HD
HETATM   18 CL   UNL     1     -17.027 -38.252   1.805  1.00  0.00    -0.083 Cl
ENDROOT
BRANCH  12  19
HETATM   19  C   UNL     1     -15.788 -36.448  -0.277  1.00  0.00    -0.018 A 
HETATM   20  C   UNL     1     -17.094 -36.356  -1.074  1.00  0.00    -0.049 A 
HETATM   21  C   UNL     1     -17.683 -37.583  -1.775  1.00  0.00     0.049 C 
HETATM   22  C   UNL     1     -17.708 -35.201  -1.168  1.00  0.00     0.037 A 
HETATM   23  C   UNL     1     -17.106 -33.985  -0.486  1.00  0.00     0.043 A 
HETATM   24  C   UNL     1     -15.993 -34.067   0.206  1.00  0.00     0.031 A 
HETATM   25  C   UNL     1     -15.275 -35.399   0.317  1.00  0.00     0.015 A 
BRANCH  23  26
HETATM   26  N   UNL     1     -17.793 -32.722  -0.516  1.00  0.00    -0.278 N 
ATOM     27  HN  UNL     1     -18.663 -32.646   0.012  1.00  0.00     0.179 HD
BRANCH  26  28
HETATM   28  S   UNL     1     -17.275 -31.368  -1.350  1.00  0.00     0.295 S 
HETATM   29  O   UNL     1     -16.289 -30.553  -0.652  1.00  0.00    -0.197 OA
HETATM   30  O   UNL     1     -16.720 -31.773  -2.651  1.00  0.00    -0.197 OA
BRANCH  28  31
HETATM   31  C   UNL     1     -18.759 -30.434  -1.735  1.00  0.00     0.220 A 
HETATM   32  N   UNL     1     -19.927 -30.921  -2.038  1.00  0.00    -0.361 N 
HETATM   33  C   UNL     1     -20.821 -29.659  -2.261  1.00  0.00     0.166 A 
ATOM     34  HN  UNL     1     -20.197 -31.901  -2.114  1.00  0.00     0.162 HD
HETATM   35  C   UNL     1     -20.059 -28.600  -2.055  1.00  0.00     0.083 A 
HETATM   36  N   UNL     1     -18.857 -29.079  -1.741  1.00  0.00    -0.344 N 
ATOM     37  HN  UNL     1     -18.066 -28.473  -1.522  1.00  0.00     0.167 HD
ENDBRANCH  28  31
ENDBRANCH  26  28
ENDBRANCH  23  26
ENDBRANCH  12  19
BRANCH   8  38
HETATM   38  O   UNL     1     -12.143 -43.434  -0.100  1.00  0.00    -0.331 OA
ATOM     39  HO  UNL     1     -11.218 -43.614  -0.232  1.00  0.00     0.221 HD
ENDBRANCH   8  38
TORSDOF 5
ENDMDL
MODEL 11
REMARK VINA RESULT:    -6.461      5.214     10.072
REMARK INTER + INTRA:          -9.065
REMARK INTER:                  -8.092
REMARK INTRA:                  -0.973
REMARK UNBOUND:                -0.904
REMARK  5 active torsions:
REMARK  status: ('A' for Active; 'I' for Inactive)
REMARK    1  A    between atoms: C_8  and  O_34 
REMARK    2  A    between atoms: C_16  and  C_22 
REMARK    3  A    between atoms: C_18  and  N_28 
REMARK    4  A    between atoms: C_20  and  S_38 
REMARK    5  A    between atoms: N_28  and  S_38 
ROOT
HETATM    1  N   UNL     1     -15.349 -29.106  -0.741  1.00  0.00    -0.320 N 
ATOM      2  HN  UNL     1     -16.272 -28.709  -0.567  1.00  0.00     0.169 HD
HETATM    3  N   UNL     1     -11.963 -28.113  -1.290  1.00  0.00    -0.278 N 
ATOM      4  HN  UNL     1     -11.902 -27.096  -1.269  1.00  0.00     0.189 HD
HETATM    5  C   UNL     1     -16.263 -31.293  -0.649  1.00  0.00     0.055 A 
HETATM    6  C   UNL     1     -15.170 -30.499  -0.825  1.00  0.00     0.051 A 
HETATM    7  C   UNL     1     -13.908 -31.109  -1.058  1.00  0.00     0.038 A 
HETATM    8  C   UNL     1     -14.266 -28.301  -0.897  1.00  0.00     0.245 A 
HETATM    9  C   UNL     1     -12.805 -30.205  -1.214  1.00  0.00     0.145 A 
HETATM   10  C   UNL     1      -9.502 -28.697  -1.741  1.00  0.00     0.090 C 
HETATM   11  C   UNL     1     -13.736 -32.494  -1.111  1.00  0.00     0.031 A 
HETATM   12  C   UNL     1     -14.866 -33.282  -0.932  1.00  0.00    -0.003 A 
HETATM   13  C   UNL     1     -16.096 -32.650  -0.712  1.00  0.00     0.047 A 
HETATM   14  C   UNL     1     -10.965 -29.033  -1.482  1.00  0.00     0.094 A 
HETATM   15  N   UNL     1     -12.998 -28.867  -1.141  1.00  0.00    -0.200 N 
HETATM   16  N   UNL     1     -11.490 -30.388  -1.455  1.00  0.00    -0.329 N 
ATOM     17  HN  UNL     1     -10.987 -31.265  -1.587  1.00  0.00     0.168 HD
HETATM   18 CL   UNL     1     -17.580 -33.588  -0.485  1.00  0.00    -0.083 Cl
ENDROOT
BRANCH  12  19
HETATM   19  C   UNL     1     -14.856 -34.802  -0.967  1.00  0.00    -0.018 A 
HETATM   20  C   UNL     1     -15.100 -35.471  -2.324  1.00  0.00    -0.049 A 
HETATM   21  C   UNL     1     -15.395 -34.641  -3.576  1.00  0.00     0.049 C 
HETATM   22  C   UNL     1     -15.070 -36.779  -2.409  1.00  0.00     0.037 A 
HETATM   23  C   UNL     1     -14.796 -37.596  -1.157  1.00  0.00     0.043 A 
HETATM   24  C   UNL     1     -14.576 -37.021   0.003  1.00  0.00     0.031 A 
HETATM   25  C   UNL     1     -14.612 -35.508   0.109  1.00  0.00     0.015 A 
BRANCH  23  26
HETATM   26  N   UNL     1     -14.690 -39.028  -1.235  1.00  0.00    -0.278 N 
ATOM     27  HN  UNL     1     -13.810 -39.418  -1.573  1.00  0.00     0.179 HD
BRANCH  26  28
HETATM   28  S   UNL     1     -15.900 -40.102  -0.812  1.00  0.00     0.295 S 
HETATM   29  O   UNL     1     -16.964 -39.542   0.012  1.00  0.00    -0.197 OA
HETATM   30  O   UNL     1     -16.496 -40.678  -2.028  1.00  0.00    -0.197 OA
BRANCH  28  31
HETATM   31  C   UNL     1     -15.075 -41.470   0.007  1.00  0.00     0.220 A 
HETATM   32  N   UNL     1     -14.412 -41.421   1.125  1.00  0.00    -0.361 N 
HETATM   33  C   UNL     1     -13.931 -42.890   1.350  1.00  0.00     0.166 A 
ATOM     34  HN  UNL     1     -14.246 -40.609   1.719  1.00  0.00     0.162 HD
HETATM   35  C   UNL     1     -14.378 -43.606   0.335  1.00  0.00     0.083 A 
HETATM   36  N   UNL     1     -15.051 -42.754  -0.436  1.00  0.00    -0.344 N 
ATOM     37  HN  UNL     1     -15.516 -43.045  -1.297  1.00  0.00     0.167 HD
ENDBRANCH  28  31
ENDBRANCH  26  28
ENDBRANCH  23  26
ENDBRANCH  12  19
BRANCH   8  38
HETATM   38  O   UNL     1     -14.429 -26.932  -0.816  1.00  0.00    -0.331 OA
ATOM     39  HO  UNL     1     -15.059 -26.577  -0.199  1.00  0.00     0.221 HD
ENDBRANCH   8  38
TORSDOF 5
ENDMDL
MODEL 12
REMARK VINA RESULT:    -6.448      4.503      7.150
REMARK INTER + INTRA:          -9.047
REMARK INTER:                  -7.982
REMARK INTRA:                  -1.066
REMARK UNBOUND:                -0.904
REMARK  5 active torsions:
REMARK  status: ('A' for Active; 'I' for Inactive)
REMARK    1  A    between atoms: C_8  and  O_34 
REMARK    2  A    between atoms: C_16  and  C_22 
REMARK    3  A    between atoms: C_18  and  N_28 
REMARK    4  A    between atoms: C_20  and  S_38 
REMARK    5  A    between atoms: N_28  and  S_38 
ROOT
HETATM    1  N   UNL     1     -13.665 -37.441  -0.359  1.00  0.00    -0.320 N 
ATOM      2  HN  UNL     1     -12.789 -37.847  -0.685  1.00  0.00     0.169 HD
HETATM    3  N   UNL     1     -16.652 -38.327   1.385  1.00  0.00    -0.278 N 
ATOM      4  HN  UNL     1     -16.617 -39.315   1.636  1.00  0.00     0.189 HD
HETATM    5  C   UNL     1     -13.030 -35.335  -1.250  1.00  0.00     0.055 A 
HETATM    6  C   UNL     1     -13.959 -36.085  -0.592  1.00  0.00     0.051 A 
HETATM    7  C   UNL     1     -15.160 -35.462  -0.157  1.00  0.00     0.038 A 
HETATM    8  C   UNL     1     -14.574 -38.197   0.308  1.00  0.00     0.245 A 
HETATM    9  C   UNL     1     -16.078 -36.314   0.543  1.00  0.00     0.145 A 
HETATM   10  C   UNL     1     -18.948 -37.706   2.357  1.00  0.00     0.090 C 
HETATM   11  C   UNL     1     -15.430 -34.108  -0.368  1.00  0.00     0.031 A 
HETATM   12  C   UNL     1     -14.469 -33.366  -1.043  1.00  0.00    -0.003 A 
HETATM   13  C   UNL     1     -13.300 -34.011  -1.466  1.00  0.00     0.047 A 
HETATM   14  C   UNL     1     -17.638 -37.409   1.638  1.00  0.00     0.094 A 
HETATM   15  N   UNL     1     -15.783 -37.620   0.749  1.00  0.00    -0.200 N 
HETATM   16  N   UNL     1     -17.295 -36.108   1.087  1.00  0.00    -0.329 N 
ATOM     17  HN  UNL     1     -17.843 -35.248   1.107  1.00  0.00     0.168 HD
HETATM   18 CL   UNL     1     -12.035 -33.133  -2.340  1.00  0.00    -0.083 Cl
ENDROOT
BRANCH  12  19
HETATM   19  C   UNL     1     -14.607 -31.887  -1.362  1.00  0.00    -0.018 A 
HETATM   20  C   UNL     1     -15.149 -31.518  -2.746  1.00  0.00    -0.049 A 
HETATM   21  C   UNL     1     -15.484 -32.596  -3.780  1.00  0.00     0.049 C 
HETATM   22  C   UNL     1     -15.315 -30.254  -3.055  1.00  0.00     0.037 A 
HETATM   23  C   UNL     1     -14.962 -29.189  -2.030  1.00  0.00     0.043 A 
HETATM   24  C   UNL     1     -14.507 -29.507  -0.840  1.00  0.00     0.031 A 
HETATM   25  C   UNL     1     -14.310 -30.967  -0.477  1.00  0.00     0.015 A 
BRANCH  23  26
HETATM   26  N   UNL     1     -15.197 -27.800  -2.317  1.00  0.00    -0.278 N 
ATOM     27  HN  UNL     1     -16.158 -27.513  -2.501  1.00  0.00     0.179 HD
BRANCH  26  28
HETATM   28  S   UNL     1     -14.013 -26.620  -2.373  1.00  0.00     0.295 S 
HETATM   29  O   UNL     1     -14.223 -25.582  -3.375  1.00  0.00    -0.197 OA
HETATM   30  O   UNL     1     -13.887 -25.985  -1.052  1.00  0.00    -0.197 OA
BRANCH  28  31
HETATM   31  C   UNL     1     -12.466 -27.491  -2.633  1.00  0.00     0.220 A 
HETATM   32  N   UNL     1     -12.053 -28.029  -3.743  1.00  0.00    -0.361 N 
HETATM   33  C   UNL     1     -10.657 -28.630  -3.382  1.00  0.00     0.166 A 
ATOM     34  HN  UNL     1     -12.531 -28.052  -4.644  1.00  0.00     0.162 HD
HETATM   35  C   UNL     1     -10.435 -28.362  -2.108  1.00  0.00     0.083 A 
HETATM   36  N   UNL     1     -11.506 -27.688  -1.692  1.00  0.00    -0.344 N 
ATOM     37  HN  UNL     1     -11.598 -27.345  -0.735  1.00  0.00     0.167 HD
ENDBRANCH  28  31
ENDBRANCH  26  28
ENDBRANCH  23  26
ENDBRANCH  12  19
BRANCH   8  38
HETATM   38  O   UNL     1     -14.296 -39.529   0.545  1.00  0.00    -0.331 OA
ATOM     39  HO  UNL     1     -13.769 -40.010  -0.083  1.00  0.00     0.221 HD
ENDBRANCH   8  38
TORSDOF 5
ENDMDL
MODEL 13
REMARK VINA RESULT:    -6.403      5.111      6.886
REMARK INTER + INTRA:          -8.991
REMARK INTER:                  -8.016
REMARK INTRA:                  -0.975
REMARK UNBOUND:                -0.904
REMARK  5 active torsions:
REMARK  status: ('A' for Active; 'I' for Inactive)
REMARK    1  A    between atoms: C_8  and  O_34 
REMARK    2  A    between atoms: C_16  and  C_22 
REMARK    3  A    between atoms: C_18  and  N_28 
REMARK    4  A    between atoms: C_20  and  S_38 
REMARK    5  A    between atoms: N_28  and  S_38 
ROOT
HETATM    1  N   UNL     1     -13.921 -41.549   0.486  1.00  0.00    -0.320 N 
ATOM      2  HN  UNL     1     -14.380 -42.145   1.174  1.00  0.00     0.169 HD
HETATM    3  N   UNL     1     -11.270 -41.607  -1.906  1.00  0.00    -0.278 N 
ATOM      4  HN  UNL     1     -10.822 -42.522  -1.891  1.00  0.00     0.189 HD
HETATM    5  C   UNL     1     -15.408 -39.778   1.018  1.00  0.00     0.055 A 
HETATM    6  C   UNL     1     -14.353 -40.226   0.281  1.00  0.00     0.051 A 
HETATM    7  C   UNL     1     -13.759 -39.351  -0.668  1.00  0.00     0.038 A 
HETATM    8  C   UNL     1     -12.882 -42.015  -0.252  1.00  0.00     0.245 A 
HETATM    9  C   UNL     1     -12.666 -39.903  -1.416  1.00  0.00     0.145 A 
HETATM   10  C   UNL     1      -9.858 -40.450  -3.713  1.00  0.00     0.090 C 
HETATM   11  C   UNL     1     -14.213 -38.048  -0.884  1.00  0.00     0.031 A 
HETATM   12  C   UNL     1     -15.288 -37.614  -0.118  1.00  0.00    -0.003 A 
HETATM   13  C   UNL     1     -15.846 -38.498   0.814  1.00  0.00     0.047 A 
HETATM   14  C   UNL     1     -10.980 -40.517  -2.685  1.00  0.00     0.094 A 
HETATM   15  N   UNL     1     -12.257 -41.176  -1.198  1.00  0.00    -0.200 N 
HETATM   16  N   UNL     1     -11.857 -39.401  -2.372  1.00  0.00    -0.329 N 
ATOM     17  HN  UNL     1     -11.860 -38.465  -2.777  1.00  0.00     0.168 HD
HETATM   18 CL   UNL     1     -17.211 -38.013   1.832  1.00  0.00    -0.083 Cl
ENDROOT
BRANCH  12  19
HETATM   19  C   UNL     1     -15.900 -36.227  -0.222  1.00  0.00    -0.018 A 
HETATM   20  C   UNL     1     -17.208 -36.097  -1.008  1.00  0.00    -0.049 A 
HETATM   21  C   UNL     1     -17.838 -37.307  -1.703  1.00  0.00     0.049 C 
HETATM   22  C   UNL     1     -17.790 -34.926  -1.098  1.00  0.00     0.037 A 
HETATM   23  C   UNL     1     -17.148 -33.727  -0.421  1.00  0.00     0.043 A 
HETATM   24  C   UNL     1     -16.031 -33.840   0.261  1.00  0.00     0.031 A 
HETATM   25  C   UNL     1     -15.352 -35.193   0.368  1.00  0.00     0.015 A 
BRANCH  23  26
HETATM   26  N   UNL     1     -17.798 -32.445  -0.447  1.00  0.00    -0.278 N 
ATOM     27  HN  UNL     1     -18.339 -32.174   0.374  1.00  0.00     0.179 HD
BRANCH  26  28
HETATM   28  S   UNL     1     -17.736 -31.364  -1.722  1.00  0.00     0.295 S 
HETATM   29  O   UNL     1     -17.887 -31.959  -3.044  1.00  0.00    -0.197 OA
HETATM   30  O   UNL     1     -18.770 -30.332  -1.545  1.00  0.00    -0.197 OA
BRANCH  28  31
HETATM   31  C   UNL     1     -16.170 -30.502  -1.555  1.00  0.00     0.220 A 
HETATM   32  N   UNL     1     -15.721 -29.906  -0.489  1.00  0.00    -0.361 N 
HETATM   33  C   UNL     1     -14.326 -29.348  -0.922  1.00  0.00     0.166 A 
ATOM     34  HN  UNL     1     -16.174 -29.823   0.420  1.00  0.00     0.162 HD
HETATM   35  C   UNL     1     -14.143 -29.694  -2.183  1.00  0.00     0.083 A 
HETATM   36  N   UNL     1     -15.233 -30.375  -2.531  1.00  0.00    -0.344 N 
ATOM     37  HN  UNL     1     -15.356 -30.772  -3.462  1.00  0.00     0.167 HD
ENDBRANCH  28  31
ENDBRANCH  26  28
ENDBRANCH  23  26
ENDBRANCH  12  19
BRANCH   8  38
HETATM   38  O   UNL     1     -12.450 -43.312  -0.062  1.00  0.00    -0.331 OA
ATOM     39  HO  UNL     1     -12.827 -44.008  -0.588  1.00  0.00     0.221 HD
ENDBRANCH   8  38
TORSDOF 5
ENDMDL
MODEL 14
REMARK VINA RESULT:    -6.334      7.670     11.942
REMARK INTER + INTRA:          -8.904
REMARK INTER:                  -7.989
REMARK INTRA:                  -0.915
REMARK UNBOUND:                -0.904
REMARK  5 active torsions:
REMARK  status: ('A' for Active; 'I' for Inactive)
REMARK    1  A    between atoms: C_8  and  O_34 
REMARK    2  A    between atoms: C_16  and  C_22 
REMARK    3  A    between atoms: C_18  and  N_28 
REMARK    4  A    between atoms: C_20  and  S_38 
REMARK    5  A    between atoms: N_28  and  S_38 
ROOT
HETATM    1  N   UNL     1     -15.652 -30.292  -3.644  1.00  0.00    -0.320 N 
ATOM      2  HN  UNL     1     -15.256 -29.739  -4.404  1.00  0.00     0.169 HD
HETATM    3  N   UNL     1     -14.830 -32.997  -1.463  1.00  0.00    -0.278 N 
ATOM      4  HN  UNL     1     -13.890 -33.328  -1.675  1.00  0.00     0.189 HD
HETATM    5  C   UNL     1     -17.651 -29.018  -3.749  1.00  0.00     0.055 A 
HETATM    6  C   UNL     1     -16.952 -30.035  -3.170  1.00  0.00     0.051 A 
HETATM    7  C   UNL     1     -17.554 -30.765  -2.111  1.00  0.00     0.038 A 
HETATM    8  C   UNL     1     -14.936 -31.291  -3.067  1.00  0.00     0.245 A 
HETATM    9  C   UNL     1     -16.746 -31.806  -1.544  1.00  0.00     0.145 A 
HETATM   10  C   UNL     1     -15.447 -34.604   0.444  1.00  0.00     0.090 C 
HETATM   11  C   UNL     1     -18.834 -30.484  -1.629  1.00  0.00     0.031 A 
HETATM   12  C   UNL     1     -19.528 -29.445  -2.237  1.00  0.00    -0.003 A 
HETATM   13  C   UNL     1     -18.910 -28.750  -3.284  1.00  0.00     0.047 A 
HETATM   14  C   UNL     1     -15.709 -33.447  -0.512  1.00  0.00     0.094 A 
HETATM   15  N   UNL     1     -15.500 -32.047  -2.019  1.00  0.00    -0.200 N 
HETATM   16  N   UNL     1     -16.958 -32.705  -0.559  1.00  0.00    -0.329 N 
ATOM     17  HN  UNL     1     -17.792 -32.832   0.013  1.00  0.00     0.168 HD
HETATM   18 CL   UNL     1     -19.736 -27.420  -4.113  1.00  0.00    -0.083 Cl
ENDROOT
BRANCH  12  19
HETATM   19  C   UNL     1     -20.930 -29.014  -1.840  1.00  0.00    -0.018 A 
HETATM   20  C   UNL     1     -22.090 -29.908  -2.292  1.00  0.00    -0.049 A 
HETATM   21  C   UNL     1     -21.844 -31.151  -3.150  1.00  0.00     0.049 C 
HETATM   22  C   UNL     1     -23.315 -29.593  -1.947  1.00  0.00     0.037 A 
HETATM   23  C   UNL     1     -23.551 -28.347  -1.111  1.00  0.00     0.043 A 
HETATM   24  C   UNL     1     -22.556 -27.587  -0.716  1.00  0.00     0.031 A 
HETATM   25  C   UNL     1     -21.135 -27.944  -1.113  1.00  0.00     0.015 A 
BRANCH  23  26
HETATM   26  N   UNL     1     -24.876 -28.015  -0.662  1.00  0.00    -0.278 N 
ATOM     27  HN  UNL     1     -25.432 -27.395  -1.251  1.00  0.00     0.179 HD
BRANCH  26  28
HETATM   28  S   UNL     1     -25.575 -28.568   0.754  1.00  0.00     0.295 S 
HETATM   29  O   UNL     1     -24.727 -28.481   1.936  1.00  0.00    -0.197 OA
HETATM   30  O   UNL     1     -26.822 -27.830   1.009  1.00  0.00    -0.197 OA
BRANCH  28  31
HETATM   31  C   UNL     1     -26.082 -30.257   0.420  1.00  0.00     0.220 A 
HETATM   32  N   UNL     1     -26.575 -30.716  -0.692  1.00  0.00    -0.361 N 
HETATM   33  C   UNL     1     -26.817 -32.233  -0.408  1.00  0.00     0.166 A 
ATOM     34  HN  UNL     1     -26.762 -30.203  -1.553  1.00  0.00     0.162 HD
HETATM   35  C   UNL     1     -26.429 -32.463   0.833  1.00  0.00     0.083 A 
HETATM   36  N   UNL     1     -25.995 -31.292   1.297  1.00  0.00    -0.344 N 
ATOM     37  HN  UNL     1     -25.626 -31.181   2.241  1.00  0.00     0.167 HD
ENDBRANCH  28  31
ENDBRANCH  26  28
ENDBRANCH  23  26
ENDBRANCH  12  19
BRANCH   8  38
HETATM   38  O   UNL     1     -13.659 -31.551  -3.522  1.00  0.00    -0.331 OA
ATOM     39  HO  UNL     1     -12.934 -31.035  -3.187  1.00  0.00     0.221 HD
ENDBRANCH   8  38
TORSDOF 5
ENDMDL
MODEL 15
REMARK VINA RESULT:    -6.332      3.550     10.497
REMARK INTER + INTRA:          -8.901
REMARK INTER:                  -7.955
REMARK INTRA:                  -0.946
REMARK UNBOUND:                -0.904
REMARK  5 active torsions:
REMARK  status: ('A' for Active; 'I' for Inactive)
REMARK    1  A    between atoms: C_8  and  O_34 
REMARK    2  A    between atoms: C_16  and  C_22 
REMARK    3  A    between atoms: C_18  and  N_28 
REMARK    4  A    between atoms: C_20  and  S_38 
REMARK    5  A    between atoms: N_28  and  S_38 
ROOT
HETATM    1  N   UNL     1     -11.139 -30.932  -1.392  1.00  0.00    -0.320 N 
ATOM      2  HN  UNL     1     -10.189 -31.285  -1.501  1.00  0.00     0.169 HD
HETATM    3  N   UNL     1     -12.930 -27.872  -0.969  1.00  0.00    -0.278 N 
ATOM      4  HN  UNL     1     -12.270 -27.095  -0.944  1.00  0.00     0.189 HD
HETATM    5  C   UNL     1     -11.986 -33.144  -1.542  1.00  0.00     0.055 A 
HETATM    6  C   UNL     1     -12.236 -31.814  -1.385  1.00  0.00     0.051 A 
HETATM    7  C   UNL     1     -13.582 -31.381  -1.245  1.00  0.00     0.038 A 
HETATM    8  C   UNL     1     -11.374 -29.603  -1.253  1.00  0.00     0.245 A 
HETATM    9  C   UNL     1     -13.763 -29.965  -1.102  1.00  0.00     0.145 A 
HETATM   10  C   UNL     1     -15.136 -26.590  -0.672  1.00  0.00     0.090 C 
HETATM   11  C   UNL     1     -14.667 -32.261  -1.267  1.00  0.00     0.031 A 
HETATM   12  C   UNL     1     -14.385 -33.612  -1.426  1.00  0.00    -0.003 A 
HETATM   13  C   UNL     1     -13.047 -34.008  -1.553  1.00  0.00     0.047 A 
HETATM   14  C   UNL     1     -14.297 -27.845  -0.872  1.00  0.00     0.094 A 
HETATM   15  N   UNL     1     -12.695 -29.132  -1.101  1.00  0.00    -0.200 N 
HETATM   16  N   UNL     1     -14.853 -29.187  -0.937  1.00  0.00    -0.329 N 
ATOM     17  HN  UNL     1     -15.830 -29.471  -0.873  1.00  0.00     0.168 HD
HETATM   18 CL   UNL     1     -12.610 -35.713  -1.749  1.00  0.00    -0.083 Cl
ENDROOT
BRANCH  12  19
HETATM   19  C   UNL     1     -15.444 -34.702  -1.464  1.00  0.00    -0.018 A 
HETATM   20  C   UNL     1     -15.972 -35.210  -0.119  1.00  0.00    -0.049 A 
HETATM   21  C   UNL     1     -15.415 -34.678   1.204  1.00  0.00     0.049 C 
HETATM   22  C   UNL     1     -16.909 -36.128  -0.102  1.00  0.00     0.037 A 
HETATM   23  C   UNL     1     -17.443 -36.664  -1.420  1.00  0.00     0.043 A 
HETATM   24  C   UNL     1     -16.996 -36.221  -2.572  1.00  0.00     0.031 A 
HETATM   25  C   UNL     1     -15.911 -35.160  -2.599  1.00  0.00     0.015 A 
BRANCH  23  26
HETATM   26  N   UNL     1     -18.516 -37.621  -1.432  1.00  0.00    -0.278 N 
ATOM     27  HN  UNL     1     -19.337 -37.401  -1.996  1.00  0.00     0.179 HD
BRANCH  26  28
HETATM   28  S   UNL     1     -18.521 -39.066  -0.590  1.00  0.00     0.295 S 
HETATM   29  O   UNL     1     -17.207 -39.661  -0.376  1.00  0.00    -0.197 OA
HETATM   30  O   UNL     1     -19.173 -38.876   0.715  1.00  0.00    -0.197 OA
BRANCH  28  31
HETATM   31  C   UNL     1     -19.606 -40.162  -1.509  1.00  0.00     0.220 A 
HETATM   32  N   UNL     1     -20.904 -40.205  -1.444  1.00  0.00    -0.361 N 
HETATM   33  C   UNL     1     -21.302 -41.328  -2.455  1.00  0.00     0.166 A 
ATOM     34  HN  UNL     1     -21.521 -39.635  -0.865  1.00  0.00     0.162 HD
HETATM   35  C   UNL     1     -20.183 -41.792  -2.981  1.00  0.00     0.083 A 
HETATM   36  N   UNL     1     -19.203 -41.089  -2.417  1.00  0.00    -0.344 N 
ATOM     37  HN  UNL     1     -18.221 -41.237  -2.649  1.00  0.00     0.167 HD
ENDBRANCH  28  31
ENDBRANCH  26  28
ENDBRANCH  23  26
ENDBRANCH  12  19
BRANCH   8  38
HETATM   38  O   UNL     1     -10.306 -28.727  -1.260  1.00  0.00    -0.331 OA
ATOM     39  HO  UNL     1     -10.450 -27.820  -1.017  1.00  0.00     0.221 HD
ENDBRANCH   8  38
TORSDOF 5
ENDMDL
MODEL 16
REMARK VINA RESULT:    -6.324      5.947      7.695
REMARK INTER + INTRA:          -8.892
REMARK INTER:                  -7.755
REMARK INTRA:                  -1.137
REMARK UNBOUND:                -0.904
REMARK  5 active torsions:
REMARK  status: ('A' for Active; 'I' for Inactive)
REMARK    1  A    between atoms: C_8  and  O_34 
REMARK    2  A    between atoms: C_16  and  C_22 
REMARK    3  A    between atoms: C_18  and  N_28 
REMARK    4  A    between atoms: C_20  and  S_38 
REMARK    5  A    between atoms: N_28  and  S_38 
ROOT
HETATM    1  N   UNL     1     -12.440 -45.130   0.968  1.00  0.00    -0.320 N 
ATOM      2  HN  UNL     1     -11.609 -45.450   0.471  1.00  0.00     0.169 HD
HETATM    3  N   UNL     1     -14.809 -46.229   3.403  1.00  0.00    -0.278 N 
ATOM      4  HN  UNL     1     -14.579 -47.180   3.694  1.00  0.00     0.189 HD
HETATM    5  C   UNL     1     -12.323 -43.047  -0.161  1.00  0.00     0.055 A 
HETATM    6  C   UNL     1     -12.967 -43.847   0.734  1.00  0.00     0.051 A 
HETATM    7  C   UNL     1     -14.117 -43.344   1.401  1.00  0.00     0.038 A 
HETATM    8  C   UNL     1     -13.061 -45.934   1.869  1.00  0.00     0.245 A 
HETATM    9  C   UNL     1     -14.726 -44.241   2.341  1.00  0.00     0.145 A 
HETATM   10  C   UNL     1     -16.896 -45.818   4.845  1.00  0.00     0.090 C 
HETATM   11  C   UNL     1     -14.616 -42.058   1.183  1.00  0.00     0.031 A 
HETATM   12  C   UNL     1     -13.943 -41.262   0.264  1.00  0.00    -0.003 A 
HETATM   13  C   UNL     1     -12.818 -41.790  -0.382  1.00  0.00     0.047 A 
HETATM   14  C   UNL     1     -15.833 -45.423   3.827  1.00  0.00     0.094 A 
HETATM   15  N   UNL     1     -14.211 -45.477   2.545  1.00  0.00    -0.200 N 
HETATM   16  N   UNL     1     -15.809 -44.142   3.140  1.00  0.00    -0.329 N 
ATOM     17  HN  UNL     1     -16.454 -43.358   3.238  1.00  0.00     0.168 HD
HETATM   18 CL   UNL     1     -11.916 -40.840  -1.573  1.00  0.00    -0.083 Cl
ENDROOT
BRANCH  12  19
HETATM   19  C   UNL     1     -14.356 -39.845  -0.095  1.00  0.00    -0.018 A 
HETATM   20  C   UNL     1     -15.467 -39.684  -1.139  1.00  0.00    -0.049 A 
HETATM   21  C   UNL     1     -16.091 -40.901  -1.827  1.00  0.00     0.049 C 
HETATM   22  C   UNL     1     -15.878 -38.481  -1.459  1.00  0.00     0.037 A 
HETATM   23  C   UNL     1     -15.240 -37.277  -0.785  1.00  0.00     0.043 A 
HETATM   24  C   UNL     1     -14.295 -37.416   0.117  1.00  0.00     0.031 A 
HETATM   25  C   UNL     1     -13.813 -38.806   0.489  1.00  0.00     0.015 A 
BRANCH  23  26
HETATM   26  N   UNL     1     -15.718 -35.951  -1.067  1.00  0.00    -0.278 N 
ATOM     27  HN  UNL     1     -15.129 -35.350  -1.643  1.00  0.00     0.179 HD
BRANCH  26  28
HETATM   28  S   UNL     1     -17.166 -35.318  -0.520  1.00  0.00     0.295 S 
HETATM   29  O   UNL     1     -17.253 -33.863  -0.545  1.00  0.00    -0.197 OA
HETATM   30  O   UNL     1     -18.277 -35.873  -1.310  1.00  0.00    -0.197 OA
BRANCH  28  31
HETATM   31  C   UNL     1     -17.389 -35.970   1.138  1.00  0.00     0.220 A 
HETATM   32  N   UNL     1     -17.005 -35.414   2.250  1.00  0.00    -0.361 N 
HETATM   33  C   UNL     1     -17.468 -36.415   3.357  1.00  0.00     0.166 A 
ATOM     34  HN  UNL     1     -16.515 -34.529   2.370  1.00  0.00     0.162 HD
HETATM   35  C   UNL     1     -18.065 -37.422   2.747  1.00  0.00     0.083 A 
HETATM   36  N   UNL     1     -18.013 -37.137   1.448  1.00  0.00    -0.344 N 
ATOM     37  HN  UNL     1     -18.412 -37.750   0.737  1.00  0.00     0.167 HD
ENDBRANCH  28  31
ENDBRANCH  26  28
ENDBRANCH  23  26
ENDBRANCH  12  19
BRANCH   8  38
HETATM   38  O   UNL     1     -12.553 -47.195   2.108  1.00  0.00    -0.331 OA
ATOM     39  HO  UNL     1     -11.913 -47.558   1.506  1.00  0.00     0.221 HD
ENDBRANCH   8  38
TORSDOF 5
ENDMDL
MODEL 17
REMARK VINA RESULT:    -6.301      4.600      6.803
REMARK INTER + INTRA:          -8.863
REMARK INTER:                  -8.229
REMARK INTRA:                  -0.634
REMARK UNBOUND:                -0.904
REMARK  5 active torsions:
REMARK  status: ('A' for Active; 'I' for Inactive)
REMARK    1  A    between atoms: C_8  and  O_34 
REMARK    2  A    between atoms: C_16  and  C_22 
REMARK    3  A    between atoms: C_18  and  N_28 
REMARK    4  A    between atoms: C_20  and  S_38 
REMARK    5  A    between atoms: N_28  and  S_38 
ROOT
HETATM    1  N   UNL     1     -14.255 -38.897  -0.542  1.00  0.00    -0.320 N 
ATOM      2  HN  UNL     1     -13.708 -39.653  -0.952  1.00  0.00     0.169 HD
HETATM    3  N   UNL     1     -16.974 -38.345   1.705  1.00  0.00    -0.278 N 
ATOM      4  HN  UNL     1     -17.318 -39.242   2.046  1.00  0.00     0.189 HD
HETATM    5  C   UNL     1     -12.952 -37.304  -1.723  1.00  0.00     0.055 A 
HETATM    6  C   UNL     1     -13.980 -37.555  -0.864  1.00  0.00     0.051 A 
HETATM    7  C   UNL     1     -14.702 -36.460  -0.320  1.00  0.00     0.038 A 
HETATM    8  C   UNL     1     -15.265 -39.163   0.325  1.00  0.00     0.245 A 
HETATM    9  C   UNL     1     -15.756 -36.807   0.590  1.00  0.00     0.145 A 
HETATM   10  C   UNL     1     -18.574 -36.758   2.940  1.00  0.00     0.090 C 
HETATM   11  C   UNL     1     -14.403 -35.129  -0.623  1.00  0.00     0.031 A 
HETATM   12  C   UNL     1     -13.353 -34.900  -1.504  1.00  0.00    -0.003 A 
HETATM   13  C   UNL     1     -12.666 -36.001  -2.029  1.00  0.00     0.047 A 
HETATM   14  C   UNL     1     -17.412 -37.082   2.009  1.00  0.00     0.094 A 
HETATM   15  N   UNL     1     -16.014 -38.105   0.880  1.00  0.00    -0.200 N 
HETATM   16  N   UNL     1     -16.652 -36.076   1.286  1.00  0.00    -0.329 N 
ATOM     17  HN  UNL     1     -16.767 -35.063   1.300  1.00  0.00     0.168 HD
HETATM   18 CL   UNL     1     -11.324 -35.786  -3.164  1.00  0.00    -0.083 Cl
ENDROOT
BRANCH  12  19
HETATM   19  C   UNL     1     -12.902 -33.517  -1.945  1.00  0.00    -0.018 A 
HETATM   20  C   UNL     1     -13.878 -32.704  -2.802  1.00  0.00    -0.049 A 
HETATM   21  C   UNL     1     -15.225 -33.286  -3.238  1.00  0.00     0.049 C 
HETATM   22  C   UNL     1     -13.544 -31.494  -3.180  1.00  0.00     0.037 A 
HETATM   23  C   UNL     1     -12.197 -30.931  -2.759  1.00  0.00     0.043 A 
HETATM   24  C   UNL     1     -11.366 -31.624  -2.015  1.00  0.00     0.031 A 
HETATM   25  C   UNL     1     -11.744 -33.027  -1.576  1.00  0.00     0.015 A 
BRANCH  23  26
HETATM   26  N   UNL     1     -11.835 -29.583  -3.102  1.00  0.00    -0.278 N 
ATOM     27  HN  UNL     1     -11.525 -29.407  -4.058  1.00  0.00     0.179 HD
BRANCH  26  28
HETATM   28  S   UNL     1     -11.884 -28.280  -2.054  1.00  0.00     0.295 S 
HETATM   29  O   UNL     1     -12.635 -27.127  -2.535  1.00  0.00    -0.197 OA
HETATM   30  O   UNL     1     -12.447 -28.707  -0.763  1.00  0.00    -0.197 OA
BRANCH  28  31
HETATM   31  C   UNL     1     -10.172 -27.864  -1.712  1.00  0.00     0.220 A 
HETATM   32  N   UNL     1      -9.259 -28.659  -1.235  1.00  0.00    -0.361 N 
HETATM   33  C   UNL     1      -7.978 -27.768  -1.157  1.00  0.00     0.166 A 
ATOM     34  HN  UNL     1      -9.357 -29.639  -0.972  1.00  0.00     0.162 HD
HETATM   35  C   UNL     1      -8.309 -26.570  -1.603  1.00  0.00     0.083 A 
HETATM   36  N   UNL     1      -9.598 -26.652  -1.929  1.00  0.00    -0.344 N 
ATOM     37  HN  UNL     1     -10.116 -25.862  -2.313  1.00  0.00     0.167 HD
ENDBRANCH  28  31
ENDBRANCH  26  28
ENDBRANCH  23  26
ENDBRANCH  12  19
BRANCH   8  38
HETATM   38  O   UNL     1     -15.544 -40.476   0.650  1.00  0.00    -0.331 OA
ATOM     39  HO  UNL     1     -16.054 -40.661   1.430  1.00  0.00     0.221 HD
ENDBRANCH   8  38
TORSDOF 5
ENDMDL
MODEL 18
REMARK VINA RESULT:    -6.289      4.770      7.614
REMARK INTER + INTRA:          -8.848
REMARK INTER:                  -7.726
REMARK INTRA:                  -1.121
REMARK UNBOUND:                -0.904
REMARK  5 active torsions:
REMARK  status: ('A' for Active; 'I' for Inactive)
REMARK    1  A    between atoms: C_8  and  O_34 
REMARK    2  A    between atoms: C_16  and  C_22 
REMARK    3  A    between atoms: C_18  and  N_28 
REMARK    4  A    between atoms: C_20  and  S_38 
REMARK    5  A    between atoms: N_28  and  S_38 
ROOT
HETATM    1  N   UNL     1     -13.660 -37.458  -0.491  1.00  0.00    -0.320 N 
ATOM      2  HN  UNL     1     -12.858 -37.966  -0.864  1.00  0.00     0.169 HD
HETATM    3  N   UNL     1     -16.631 -37.980   1.420  1.00  0.00    -0.278 N 
ATOM      4  HN  UNL     1     -16.701 -38.966   1.672  1.00  0.00     0.189 HD
HETATM    5  C   UNL     1     -12.824 -35.442  -1.423  1.00  0.00     0.055 A 
HETATM    6  C   UNL     1     -13.799 -36.075  -0.713  1.00  0.00     0.051 A 
HETATM    7  C   UNL     1     -14.889 -35.313  -0.213  1.00  0.00     0.038 A 
HETATM    8  C   UNL     1     -14.615 -38.100   0.229  1.00  0.00     0.245 A 
HETATM    9  C   UNL     1     -15.863 -36.049   0.539  1.00  0.00     0.145 A 
HETATM   10  C   UNL     1     -18.776 -37.088   2.515  1.00  0.00     0.090 C 
HETATM   11  C   UNL     1     -15.005 -33.935  -0.414  1.00  0.00     0.031 A 
HETATM   12  C   UNL     1     -13.999 -33.313  -1.144  1.00  0.00    -0.003 A 
HETATM   13  C   UNL     1     -12.943 -34.094  -1.629  1.00  0.00     0.047 A 
HETATM   14  C   UNL     1     -17.482 -36.950   1.724  1.00  0.00     0.094 A 
HETATM   15  N   UNL     1     -15.718 -37.382   0.734  1.00  0.00    -0.200 N 
HETATM   16  N   UNL     1     -17.015 -35.698   1.150  1.00  0.00    -0.329 N 
ATOM     17  HN  UNL     1     -17.452 -34.778   1.197  1.00  0.00     0.168 HD
HETATM   18 CL   UNL     1     -11.631 -33.374  -2.575  1.00  0.00    -0.083 Cl
ENDROOT
BRANCH  12  19
HETATM   19  C   UNL     1     -13.974 -31.827  -1.460  1.00  0.00    -0.018 A 
HETATM   20  C   UNL     1     -14.609 -31.383  -2.782  1.00  0.00    -0.049 A 
HETATM   21  C   UNL     1     -15.193 -32.402  -3.763  1.00  0.00     0.049 C 
HETATM   22  C   UNL     1     -14.638 -30.107  -3.083  1.00  0.00     0.037 A 
HETATM   23  C   UNL     1     -14.039 -29.103  -2.112  1.00  0.00     0.043 A 
HETATM   24  C   UNL     1     -13.505 -29.484  -0.974  1.00  0.00     0.031 A 
HETATM   25  C   UNL     1     -13.465 -30.959  -0.621  1.00  0.00     0.015 A 
BRANCH  23  26
HETATM   26  N   UNL     1     -14.119 -27.694  -2.385  1.00  0.00    -0.278 N 
ATOM     27  HN  UNL     1     -13.389 -27.285  -2.969  1.00  0.00     0.179 HD
BRANCH  26  28
HETATM   28  S   UNL     1     -15.316 -26.673  -1.818  1.00  0.00     0.295 S 
HETATM   29  O   UNL     1     -15.382 -26.544  -0.367  1.00  0.00    -0.197 OA
HETATM   30  O   UNL     1     -15.144 -25.336  -2.405  1.00  0.00    -0.197 OA
BRANCH  28  31
HETATM   31  C   UNL     1     -16.854 -27.299  -2.500  1.00  0.00     0.220 A 
HETATM   32  N   UNL     1     -17.421 -26.926  -3.610  1.00  0.00    -0.361 N 
HETATM   33  C   UNL     1     -18.710 -27.805  -3.696  1.00  0.00     0.166 A 
ATOM     34  HN  UNL     1     -17.097 -26.222  -4.273  1.00  0.00     0.162 HD
HETATM   35  C   UNL     1     -18.726 -28.579  -2.626  1.00  0.00     0.083 A 
HETATM   36  N   UNL     1     -17.626 -28.270  -1.943  1.00  0.00    -0.344 N 
ATOM     37  HN  UNL     1     -17.380 -28.728  -1.066  1.00  0.00     0.167 HD
ENDBRANCH  28  31
ENDBRANCH  26  28
ENDBRANCH  23  26
ENDBRANCH  12  19
BRANCH   8  38
HETATM   38  O   UNL     1     -14.488 -39.456   0.454  1.00  0.00    -0.331 OA
ATOM     39  HO  UNL     1     -13.919 -39.968  -0.110  1.00  0.00     0.221 HD
ENDBRANCH   8  38
TORSDOF 5
ENDMDL
MODEL 19
REMARK VINA RESULT:    -6.282      4.171      9.765
REMARK INTER + INTRA:          -8.839
REMARK INTER:                  -7.848
REMARK INTRA:                  -0.991
REMARK UNBOUND:                -0.904
REMARK  5 active torsions:
REMARK  status: ('A' for Active; 'I' for Inactive)
REMARK    1  A    between atoms: C_8  and  O_34 
REMARK    2  A    between atoms: C_16  and  C_22 
REMARK    3  A    between atoms: C_18  and  N_28 
REMARK    4  A    between atoms: C_20  and  S_38 
REMARK    5  A    between atoms: N_28  and  S_38 
ROOT
HETATM    1  N   UNL     1     -15.584 -29.113  -0.731  1.00  0.00    -0.320 N 
ATOM      2  HN  UNL     1     -16.485 -28.663  -0.573  1.00  0.00     0.169 HD
HETATM    3  N   UNL     1     -12.126 -28.324  -1.144  1.00  0.00    -0.278 N 
ATOM      4  HN  UNL     1     -12.001 -27.313  -1.089  1.00  0.00     0.189 HD
HETATM    5  C   UNL     1     -16.637 -31.240  -0.736  1.00  0.00     0.055 A 
HETATM    6  C   UNL     1     -15.490 -30.512  -0.852  1.00  0.00     0.051 A 
HETATM    7  C   UNL     1     -14.263 -31.195  -1.066  1.00  0.00     0.038 A 
HETATM    8  C   UNL     1     -14.448 -28.375  -0.829  1.00  0.00     0.245 A 
HETATM    9  C   UNL     1     -13.101 -30.359  -1.159  1.00  0.00     0.145 A 
HETATM   10  C   UNL     1      -9.693 -29.051  -1.537  1.00  0.00     0.090 C 
HETATM   11  C   UNL     1     -14.176 -32.586  -1.157  1.00  0.00     0.031 A 
HETATM   12  C   UNL     1     -15.359 -33.305  -1.038  1.00  0.00    -0.003 A 
HETATM   13  C   UNL     1     -16.553 -32.602  -0.836  1.00  0.00     0.047 A 
HETATM   14  C   UNL     1     -11.182 -29.300  -1.334  1.00  0.00     0.094 A 
HETATM   15  N   UNL     1     -13.211 -29.013  -1.050  1.00  0.00    -0.200 N 
HETATM   16  N   UNL     1     -11.792 -30.619  -1.366  1.00  0.00    -0.329 N 
ATOM     17  HN  UNL     1     -11.341 -31.522  -1.509  1.00  0.00     0.168 HD
HETATM   18 CL   UNL     1     -18.101 -33.449  -0.684  1.00  0.00    -0.083 Cl
ENDROOT
BRANCH  12  19
HETATM   19  C   UNL     1     -15.444 -34.820  -1.120  1.00  0.00    -0.018 A 
HETATM   20  C   UNL     1     -15.588 -35.584   0.201  1.00  0.00    -0.049 A 
HETATM   21  C   UNL     1     -15.590 -34.851   1.545  1.00  0.00     0.049 C 
HETATM   22  C   UNL     1     -15.696 -36.891   0.177  1.00  0.00     0.037 A 
HETATM   23  C   UNL     1     -15.673 -37.612  -1.160  1.00  0.00     0.043 A 
HETATM   24  C   UNL     1     -15.560 -36.955  -2.291  1.00  0.00     0.031 A 
HETATM   25  C   UNL     1     -15.432 -35.443  -2.272  1.00  0.00     0.015 A 
BRANCH  23  26
HETATM   26  N   UNL     1     -15.858 -39.036  -1.219  1.00  0.00    -0.278 N 
ATOM     27  HN  UNL     1     -15.023 -39.617  -1.298  1.00  0.00     0.179 HD
BRANCH  26  28
HETATM   28  S   UNL     1     -17.338 -39.814  -1.166  1.00  0.00     0.295 S 
HETATM   29  O   UNL     1     -17.270 -41.270  -1.159  1.00  0.00    -0.197 OA
HETATM   30  O   UNL     1     -18.088 -39.368   0.018  1.00  0.00    -0.197 OA
BRANCH  28  31
HETATM   31  C   UNL     1     -18.263 -39.198  -2.576  1.00  0.00     0.220 A 
HETATM   32  N   UNL     1     -18.251 -39.680  -3.784  1.00  0.00    -0.361 N 
HETATM   33  C   UNL     1     -19.238 -38.761  -4.573  1.00  0.00     0.166 A 
ATOM     34  HN  UNL     1     -17.719 -40.476  -4.136  1.00  0.00     0.162 HD
HETATM   35  C   UNL     1     -19.701 -37.865  -3.721  1.00  0.00     0.083 A 
HETATM   36  N   UNL     1     -19.120 -38.144  -2.555  1.00  0.00    -0.344 N 
ATOM     37  HN  UNL     1     -19.306 -37.606  -1.709  1.00  0.00     0.167 HD
ENDBRANCH  28  31
ENDBRANCH  26  28
ENDBRANCH  23  26
ENDBRANCH  12  19
BRANCH   8  38
HETATM   38  O   UNL     1     -14.527 -27.002  -0.709  1.00  0.00    -0.331 OA
ATOM     39  HO  UNL     1     -14.884 -26.495  -1.430  1.00  0.00     0.221 HD
ENDBRANCH   8  38
TORSDOF 5
ENDMDL
MODEL 20
REMARK VINA RESULT:    -6.209      4.634      9.172
REMARK INTER + INTRA:          -8.746
REMARK INTER:                  -7.661
REMARK INTRA:                  -1.085
REMARK UNBOUND:                -0.904
REMARK  5 active torsions:
REMARK  status: ('A' for Active; 'I' for Inactive)
REMARK    1  A    between atoms: C_8  and  O_34 
REMARK    2  A    between atoms: C_16  and  C_22 
REMARK    3  A    between atoms: C_18  and  N_28 
REMARK    4  A    between atoms: C_20  and  S_38 
REMARK    5  A    between atoms: N_28  and  S_38 
ROOT
HETATM    1  N   UNL     1     -16.285 -29.606  -0.983  1.00  0.00    -0.320 N 
ATOM      2  HN  UNL     1     -17.209 -29.177  -0.981  1.00  0.00     0.169 HD
HETATM    3  N   UNL     1     -12.822 -28.734  -0.994  1.00  0.00    -0.278 N 
ATOM      4  HN  UNL     1     -12.730 -27.718  -1.001  1.00  0.00     0.189 HD
HETATM    5  C   UNL     1     -17.277 -31.761  -0.965  1.00  0.00     0.055 A 
HETATM    6  C   UNL     1     -16.143 -31.006  -0.985  1.00  0.00     0.051 A 
HETATM    7  C   UNL     1     -14.882 -31.661  -0.981  1.00  0.00     0.038 A 
HETATM    8  C   UNL     1     -15.164 -28.840  -0.986  1.00  0.00     0.245 A 
HETATM    9  C   UNL     1     -13.738 -30.796  -0.983  1.00  0.00     0.145 A 
HETATM   10  C   UNL     1     -10.342 -29.405  -1.005  1.00  0.00     0.090 C 
HETATM   11  C   UNL     1     -14.752 -33.052  -0.953  1.00  0.00     0.031 A 
HETATM   12  C   UNL     1     -15.923 -33.799  -0.937  1.00  0.00    -0.003 A 
HETATM   13  C   UNL     1     -17.149 -33.123  -0.949  1.00  0.00     0.047 A 
HETATM   14  C   UNL     1     -11.839 -29.689  -0.983  1.00  0.00     0.094 A 
HETATM   15  N   UNL     1     -13.893 -29.451  -0.993  1.00  0.00    -0.200 N 
HETATM   16  N   UNL     1     -12.408 -31.027  -0.994  1.00  0.00    -0.329 N 
ATOM     17  HN  UNL     1     -11.921 -31.922  -1.007  1.00  0.00     0.168 HD
HETATM   18 CL   UNL     1     -18.683 -34.009  -0.940  1.00  0.00    -0.083 Cl
ENDROOT
BRANCH  12  19
HETATM   19  C   UNL     1     -15.960 -35.319  -0.914  1.00  0.00    -0.018 A 
HETATM   20  C   UNL     1     -16.112 -35.993   0.454  1.00  0.00    -0.049 A 
HETATM   21  C   UNL     1     -16.169 -35.168   1.742  1.00  0.00     0.049 C 
HETATM   22  C   UNL     1     -16.181 -37.300   0.520  1.00  0.00     0.037 A 
HETATM   23  C   UNL     1     -16.105 -38.112  -0.762  1.00  0.00     0.043 A 
HETATM   24  C   UNL     1     -15.985 -37.533  -1.934  1.00  0.00     0.031 A 
HETATM   25  C   UNL     1     -15.902 -36.020  -2.019  1.00  0.00     0.015 A 
BRANCH  23  26
HETATM   26  N   UNL     1     -16.245 -39.542  -0.724  1.00  0.00    -0.278 N 
ATOM     27  HN  UNL     1     -17.126 -39.938  -1.051  1.00  0.00     0.179 HD
BRANCH  26  28
HETATM   28  S   UNL     1     -15.073 -40.606  -0.184  1.00  0.00     0.295 S 
HETATM   29  O   UNL     1     -14.635 -40.397   1.191  1.00  0.00    -0.197 OA
HETATM   30  O   UNL     1     -15.559 -41.988  -0.321  1.00  0.00    -0.197 OA
BRANCH  28  31
HETATM   31  C   UNL     1     -13.712 -40.464  -1.346  1.00  0.00     0.220 A 
HETATM   32  N   UNL     1     -12.712 -39.634  -1.273  1.00  0.00    -0.361 N 
HETATM   33  C   UNL     1     -11.848 -39.966  -2.533  1.00  0.00     0.166 A 
ATOM     34  HN  UNL     1     -12.533 -38.930  -0.559  1.00  0.00     0.162 HD
HETATM   35  C   UNL     1     -12.455 -40.948  -3.173  1.00  0.00     0.083 A 
HETATM   36  N   UNL     1     -13.541 -41.228  -2.456  1.00  0.00    -0.344 N 
ATOM     37  HN  UNL     1     -14.197 -41.962  -2.721  1.00  0.00     0.167 HD
ENDBRANCH  28  31
ENDBRANCH  26  28
ENDBRANCH  23  26
ENDBRANCH  12  19
BRANCH   8  38
HETATM   38  O   UNL     1     -15.290 -27.465  -0.983  1.00  0.00    -0.331 OA
ATOM     39  HO  UNL     1     -15.562 -27.027  -0.185  1.00  0.00     0.221 HD
ENDBRANCH   8  38
TORSDOF 5
ENDMDL
