MODEL 1
REMARK VINA RESULT:   -11.498      0.000      0.000
REMARK INTER + INTRA:         -18.994
REMARK INTER:                 -17.548
REMARK INTRA:                  -1.446
REMARK UNBOUND:                -1.446
REMARK  10 active torsions:
REMARK  status: ('A' for Active; 'I' for Inactive)
REMARK    1  A    between atoms: C_3  and  C_13 
REMARK    2  A    between atoms: C_3  and  N_20 
REMARK       I    between atoms: C_4  and  N_22 
REMARK       I    between atoms: C_4  and  N_20 
REMARK    3  A    between atoms: C_6  and  N_24 
REMARK    4  A    between atoms: C_7  and  O_25 
REMARK    5  A    between atoms: C_8  and  O_27 
REMARK    6  A    between atoms: C_9  and  N_19 
REMARK    7  A    between atoms: C_10  and  C_11 
REMARK    8  A    between atoms: C_11  and  O_30 
REMARK    9  A    between atoms: C_15  and  N_22 
REMARK   10  A    between atoms: O_30  and  P_37 
ROOT
HETATM    1  C   UNL     1      22.679  -5.515 -31.311  1.00  0.00     0.093 A 
HETATM    2  C   UNL     1      23.047  -3.793 -32.875  1.00  0.00     0.011 A 
HETATM    3  C   UNL     1      22.372  -4.287 -31.820  1.00  0.00     0.018 A 
HETATM    4  C   UNL     1      24.044  -4.595 -33.398  1.00  0.00    -0.025 A 
HETATM    5  C   UNL     1      24.327  -5.824 -32.856  1.00  0.00     0.102 A 
HETATM    6  N   UNL     1      23.658  -6.244 -31.842  1.00  0.00    -0.337 N 
ENDROOT
BRANCH   4   7
HETATM    7  C   UNL     1      24.847  -3.990 -34.592  1.00  0.00     0.164 C 
BRANCH   7   8
HETATM    8  N   UNL     1      25.217  -4.928 -35.597  1.00  0.00    -0.339 N 
HETATM    9  C   UNL     1      26.573  -4.838 -36.113  1.00  0.00     0.320 C 
HETATM   10  O   UNL     1      27.345  -4.063 -35.691  1.00  0.00    -0.247 OA
HETATM   11  N   UNL     1      26.856  -5.846 -37.182  1.00  0.00    -0.309 N 
ATOM     12  HN  UNL     1      26.135  -6.522 -37.434  1.00  0.00     0.170 HD
ATOM     13  HN  UNL     1      24.560  -5.630 -35.939  1.00  0.00     0.164 HD
BRANCH  11  14
HETATM   14  C   UNL     1      28.134  -5.881 -37.868  1.00  0.00     0.036 A 
HETATM   15  C   UNL     1      28.350  -4.885 -38.813  1.00  0.00     0.032 A 
HETATM   16  C   UNL     1      29.522  -4.866 -39.535  1.00  0.00     0.038 A 
HETATM   17  C   UNL     1      30.445  -5.856 -39.350  1.00  0.00     0.103 A 
HETATM   18  C   UNL     1      30.212  -6.873 -38.439  1.00  0.00     0.038 A 
HETATM   19  C   UNL     1      29.031  -6.894 -37.703  1.00  0.00     0.032 A 
BRANCH  17  20
HETATM   20  N   UNL     1      31.647  -5.830 -40.115  1.00  0.00    -0.116 N 
HETATM   21  O   UNL     1      31.873  -6.691 -40.869  1.00  0.00    -0.532 OA
HETATM   22  O   UNL     1      32.553  -4.805 -39.930  1.00  0.00    -0.532 OA
ENDBRANCH  17  20
ENDBRANCH  11  14
ENDBRANCH   7   8
ENDBRANCH   4   7
BRANCH   6  23
HETATM   23  C   UNL     1      23.916  -7.563 -31.259  1.00  0.00     0.259 C 
HETATM   24  O   UNL     1      25.155  -8.187 -32.033  1.00  0.00    -0.353 OA
HETATM   25  C   UNL     1      24.860  -9.449 -32.286  1.00  0.00     0.180 C 
HETATM   26  C   UNL     1      23.534  -9.824 -31.503  1.00  0.00     0.182 C 
HETATM   27  C   UNL     1      22.885  -8.453 -31.448  1.00  0.00     0.198 C 
BRANCH  25  28
HETATM   28  C   UNL     1      24.535  -9.631 -33.790  1.00  0.00     0.217 C 
BRANCH  28  29
HETATM   29  O   UNL     1      25.660 -10.221 -34.371  1.00  0.00    -0.280 OA
BRANCH  29  30
HETATM   30  P   UNL     1      26.184  -9.496 -35.750  1.00  0.00     0.422 P 
HETATM   31  O   UNL     1      27.201 -10.404 -36.414  1.00  0.00    -0.617 OA
HETATM   32  O   UNL     1      24.980  -9.299 -36.681  1.00  0.00    -0.617 OA
HETATM   33  O   UNL     1      26.819  -8.203 -35.297  1.00  0.00    -0.617 OA
ENDBRANCH  29  30
ENDBRANCH  28  29
ENDBRANCH  25  28
BRANCH  26  34
HETATM   34  O   UNL     1      23.852 -10.336 -30.211  1.00  0.00    -0.390 OA
ATOM     35  HO  UNL     1      23.424  -9.819 -29.538  1.00  0.00     0.210 HD
ENDBRANCH  26  34
BRANCH  27  36
HETATM   36  O   UNL     1      21.952  -8.394 -30.446  1.00  0.00    -0.388 OA
ATOM     37  HO  UNL     1      22.266  -8.834 -29.665  1.00  0.00     0.210 HD
ENDBRANCH  27  36
ENDBRANCH   6  23
TORSDOF 10
ENDMDL
MODEL 2
REMARK VINA RESULT:   -10.672      4.085      9.903
REMARK INTER + INTRA:         -17.732
REMARK INTER:                 -16.609
REMARK INTRA:                  -1.123
REMARK UNBOUND:                -1.446
REMARK  10 active torsions:
REMARK  status: ('A' for Active; 'I' for Inactive)
REMARK    1  A    between atoms: C_3  and  C_13 
REMARK    2  A    between atoms: C_3  and  N_20 
REMARK       I    between atoms: C_4  and  N_22 
REMARK       I    between atoms: C_4  and  N_20 
REMARK    3  A    between atoms: C_6  and  N_24 
REMARK    4  A    between atoms: C_7  and  O_25 
REMARK    5  A    between atoms: C_8  and  O_27 
REMARK    6  A    between atoms: C_9  and  N_19 
REMARK    7  A    between atoms: C_10  and  C_11 
REMARK    8  A    between atoms: C_11  and  O_30 
REMARK    9  A    between atoms: C_15  and  N_22 
REMARK   10  A    between atoms: O_30  and  P_37 
ROOT
HETATM    1  C   UNL     1      26.140  -7.399 -34.002  1.00  0.00     0.093 A 
HETATM    2  C   UNL     1      24.761  -7.668 -32.112  1.00  0.00     0.011 A 
HETATM    3  C   UNL     1      25.785  -8.088 -32.880  1.00  0.00     0.018 A 
HETATM    4  C   UNL     1      24.106  -6.525 -32.531  1.00  0.00    -0.025 A 
HETATM    5  C   UNL     1      24.495  -5.857 -33.666  1.00  0.00     0.102 A 
HETATM    6  N   UNL     1      25.486  -6.295 -34.357  1.00  0.00    -0.337 N 
ENDROOT
BRANCH   4   7
HETATM    7  C   UNL     1      22.950  -6.027 -31.608  1.00  0.00     0.164 C 
BRANCH   7   8
HETATM    8  N   UNL     1      22.531  -4.688 -31.849  1.00  0.00    -0.339 N 
HETATM    9  C   UNL     1      21.626  -4.098 -30.877  1.00  0.00     0.320 C 
HETATM   10  O   UNL     1      21.292  -4.674 -29.912  1.00  0.00    -0.247 OA
HETATM   11  N   UNL     1      21.222  -2.701 -31.232  1.00  0.00    -0.309 N 
ATOM     12  HN  UNL     1      21.620  -2.262 -32.063  1.00  0.00     0.170 HD
ATOM     13  HN  UNL     1      22.851  -4.167 -32.666  1.00  0.00     0.164 HD
BRANCH  11  14
HETATM   14  C   UNL     1      20.275  -1.960 -30.421  1.00  0.00     0.036 A 
HETATM   15  C   UNL     1      20.817  -1.176 -29.409  1.00  0.00     0.032 A 
HETATM   16  C   UNL     1      19.986  -0.468 -28.569  1.00  0.00     0.038 A 
HETATM   17  C   UNL     1      18.632  -0.579 -28.708  1.00  0.00     0.103 A 
HETATM   18  C   UNL     1      18.090  -1.393 -29.689  1.00  0.00     0.038 A 
HETATM   19  C   UNL     1      18.924  -2.108 -30.543  1.00  0.00     0.032 A 
BRANCH  17  20
HETATM   20  N   UNL     1      17.786   0.149 -27.823  1.00  0.00    -0.116 N 
HETATM   21  O   UNL     1      16.736   0.506 -28.185  1.00  0.00    -0.532 OA
HETATM   22  O   UNL     1      18.232   0.463 -26.554  1.00  0.00    -0.532 OA
ENDBRANCH  17  20
ENDBRANCH  11  14
ENDBRANCH   7   8
ENDBRANCH   4   7
BRANCH   6  23
HETATM   23  C   UNL     1      25.907  -5.622 -35.588  1.00  0.00     0.259 C 
HETATM   24  O   UNL     1      25.604  -6.612 -36.793  1.00  0.00    -0.353 OA
HETATM   25  C   UNL     1      26.657  -6.587 -37.590  1.00  0.00     0.180 C 
HETATM   26  C   UNL     1      27.622  -5.420 -37.118  1.00  0.00     0.182 C 
HETATM   27  C   UNL     1      27.261  -5.387 -35.644  1.00  0.00     0.198 C 
BRANCH  25  28
HETATM   28  C   UNL     1      27.468  -7.899 -37.444  1.00  0.00     0.217 C 
BRANCH  28  29
HETATM   29  O   UNL     1      26.790  -8.870 -38.183  1.00  0.00    -0.280 OA
BRANCH  29  30
HETATM   30  P   UNL     1      26.500 -10.272 -37.376  1.00  0.00     0.422 P 
HETATM   31  O   UNL     1      27.783 -10.708 -36.694  1.00  0.00    -0.617 OA
HETATM   32  O   UNL     1      25.417 -10.009 -36.321  1.00  0.00    -0.617 OA
HETATM   33  O   UNL     1      26.085 -11.260 -38.439  1.00  0.00    -0.617 OA
ENDBRANCH  29  30
ENDBRANCH  28  29
ENDBRANCH  25  28
BRANCH  26  34
HETATM   34  O   UNL     1      27.297  -4.208 -37.793  1.00  0.00    -0.390 OA
ATOM     35  HO  UNL     1      26.709  -4.383 -38.519  1.00  0.00     0.210 HD
ENDBRANCH  26  34
BRANCH  27  36
HETATM   36  O   UNL     1      27.607  -4.184 -35.084  1.00  0.00    -0.388 OA
ATOM     37  HO  UNL     1      26.888  -3.830 -34.575  1.00  0.00     0.210 HD
ENDBRANCH  27  36
ENDBRANCH   6  23
TORSDOF 10
ENDMDL
MODEL 3
REMARK VINA RESULT:   -10.336      3.892      6.363
REMARK INTER + INTRA:         -17.221
REMARK INTER:                 -15.141
REMARK INTRA:                  -2.080
REMARK UNBOUND:                -1.446
REMARK  10 active torsions:
REMARK  status: ('A' for Active; 'I' for Inactive)
REMARK    1  A    between atoms: C_3  and  C_13 
REMARK    2  A    between atoms: C_3  and  N_20 
REMARK       I    between atoms: C_4  and  N_22 
REMARK       I    between atoms: C_4  and  N_20 
REMARK    3  A    between atoms: C_6  and  N_24 
REMARK    4  A    between atoms: C_7  and  O_25 
REMARK    5  A    between atoms: C_8  and  O_27 
REMARK    6  A    between atoms: C_9  and  N_19 
REMARK    7  A    between atoms: C_10  and  C_11 
REMARK    8  A    between atoms: C_11  and  O_30 
REMARK    9  A    between atoms: C_15  and  N_22 
REMARK   10  A    between atoms: O_30  and  P_37 
ROOT
HETATM    1  C   UNL     1      19.668  -1.654 -29.901  1.00  0.00     0.093 A 
HETATM    2  C   UNL     1      21.623  -1.208 -31.136  1.00  0.00     0.011 A 
HETATM    3  C   UNL     1      20.681  -0.814 -30.257  1.00  0.00     0.018 A 
HETATM    4  C   UNL     1      21.493  -2.488 -31.644  1.00  0.00    -0.025 A 
HETATM    5  C   UNL     1      20.461  -3.306 -31.258  1.00  0.00     0.102 A 
HETATM    6  N   UNL     1      19.594  -2.882 -30.408  1.00  0.00    -0.337 N 
ENDROOT
BRANCH   4   7
HETATM    7  C   UNL     1      22.617  -2.946 -32.626  1.00  0.00     0.164 C 
BRANCH   7   8
HETATM    8  N   UNL     1      23.252  -4.170 -32.275  1.00  0.00    -0.339 N 
HETATM    9  C   UNL     1      23.805  -4.959 -33.363  1.00  0.00     0.320 C 
HETATM   10  O   UNL     1      23.776  -4.588 -34.474  1.00  0.00    -0.247 OA
HETATM   11  N   UNL     1      24.425  -6.238 -32.896  1.00  0.00    -0.309 N 
ATOM     12  HN  UNL     1      24.459  -6.441 -31.896  1.00  0.00     0.170 HD
ATOM     13  HN  UNL     1      23.316  -4.479 -31.304  1.00  0.00     0.164 HD
BRANCH  11  14
HETATM   14  C   UNL     1      24.980  -7.196 -33.834  1.00  0.00     0.036 A 
HETATM   15  C   UNL     1      24.486  -8.492 -33.751  1.00  0.00     0.032 A 
HETATM   16  C   UNL     1      24.985  -9.472 -34.581  1.00  0.00     0.038 A 
HETATM   17  C   UNL     1      25.996  -9.171 -35.448  1.00  0.00     0.103 A 
HETATM   18  C   UNL     1      26.518  -7.890 -35.503  1.00  0.00     0.038 A 
HETATM   19  C   UNL     1      26.015  -6.895 -34.669  1.00  0.00     0.032 A 
BRANCH  17  20
HETATM   20  N   UNL     1      26.510 -10.199 -36.290  1.00  0.00    -0.116 N 
HETATM   21  O   UNL     1      27.619 -10.542 -36.176  1.00  0.00    -0.532 OA
HETATM   22  O   UNL     1      25.702 -10.754 -37.263  1.00  0.00    -0.532 OA
ENDBRANCH  17  20
ENDBRANCH  11  14
ENDBRANCH   7   8
ENDBRANCH   4   7
BRANCH   6  23
HETATM   23  C   UNL     1      18.465  -3.720 -29.998  1.00  0.00     0.259 C 
HETATM   24  O   UNL     1      19.068  -5.030 -29.330  1.00  0.00    -0.353 OA
HETATM   25  C   UNL     1      18.383  -6.056 -29.800  1.00  0.00     0.180 C 
HETATM   26  C   UNL     1      17.138  -5.504 -30.613  1.00  0.00     0.182 C 
HETATM   27  C   UNL     1      17.708  -4.169 -31.055  1.00  0.00     0.198 C 
BRANCH  25  28
HETATM   28  C   UNL     1      19.241  -6.850 -30.818  1.00  0.00     0.217 C 
BRANCH  28  29
HETATM   29  O   UNL     1      20.327  -7.364 -30.106  1.00  0.00    -0.280 OA
BRANCH  29  30
HETATM   30  P   UNL     1      21.752  -7.358 -30.925  1.00  0.00     0.422 P 
HETATM   31  O   UNL     1      22.340  -8.756 -30.876  1.00  0.00    -0.617 OA
HETATM   32  O   UNL     1      21.472  -6.966 -32.383  1.00  0.00    -0.617 OA
HETATM   33  O   UNL     1      22.625  -6.372 -30.189  1.00  0.00    -0.617 OA
ENDBRANCH  29  30
ENDBRANCH  28  29
ENDBRANCH  25  28
BRANCH  26  34
HETATM   34  O   UNL     1      16.010  -5.365 -29.753  1.00  0.00    -0.390 OA
ATOM     35  HO  UNL     1      15.463  -4.644 -30.042  1.00  0.00     0.210 HD
ENDBRANCH  26  34
BRANCH  27  36
HETATM   36  O   UNL     1      16.704  -3.296 -31.388  1.00  0.00    -0.388 OA
ATOM     37  HO  UNL     1      16.894  -2.860 -32.209  1.00  0.00     0.210 HD
ENDBRANCH  27  36
ENDBRANCH   6  23
TORSDOF 10
ENDMDL
MODEL 4
REMARK VINA RESULT:   -10.300      4.037      9.896
REMARK INTER + INTRA:         -17.166
REMARK INTER:                 -16.067
REMARK INTRA:                  -1.098
REMARK UNBOUND:                -1.446
REMARK  10 active torsions:
REMARK  status: ('A' for Active; 'I' for Inactive)
REMARK    1  A    between atoms: C_3  and  C_13 
REMARK    2  A    between atoms: C_3  and  N_20 
REMARK       I    between atoms: C_4  and  N_22 
REMARK       I    between atoms: C_4  and  N_20 
REMARK    3  A    between atoms: C_6  and  N_24 
REMARK    4  A    between atoms: C_7  and  O_25 
REMARK    5  A    between atoms: C_8  and  O_27 
REMARK    6  A    between atoms: C_9  and  N_19 
REMARK    7  A    between atoms: C_10  and  C_11 
REMARK    8  A    between atoms: C_11  and  O_30 
REMARK    9  A    between atoms: C_15  and  N_22 
REMARK   10  A    between atoms: O_30  and  P_37 
ROOT
HETATM    1  C   UNL     1      26.097  -7.582 -34.032  1.00  0.00     0.093 A 
HETATM    2  C   UNL     1      24.782  -7.846 -32.096  1.00  0.00     0.011 A 
HETATM    3  C   UNL     1      25.733  -8.303 -32.934  1.00  0.00     0.018 A 
HETATM    4  C   UNL     1      24.211  -6.629 -32.420  1.00  0.00    -0.025 A 
HETATM    5  C   UNL     1      24.607  -5.930 -33.533  1.00  0.00     0.102 A 
HETATM    6  N   UNL     1      25.526  -6.408 -34.294  1.00  0.00    -0.337 N 
ENDROOT
BRANCH   4   7
HETATM    7  C   UNL     1      23.143  -6.092 -31.416  1.00  0.00     0.164 C 
BRANCH   7   8
HETATM    8  N   UNL     1      22.710  -4.759 -31.665  1.00  0.00    -0.339 N 
HETATM    9  C   UNL     1      21.657  -4.240 -30.808  1.00  0.00     0.320 C 
HETATM   10  O   UNL     1      21.215  -4.867 -29.921  1.00  0.00    -0.247 OA
HETATM   11  N   UNL     1      21.253  -2.844 -31.165  1.00  0.00    -0.309 N 
ATOM     12  HN  UNL     1      21.745  -2.358 -31.915  1.00  0.00     0.170 HD
ATOM     13  HN  UNL     1      23.120  -4.195 -32.409  1.00  0.00     0.164 HD
BRANCH  11  14
HETATM   14  C   UNL     1      20.175  -2.168 -30.467  1.00  0.00     0.036 A 
HETATM   15  C   UNL     1      18.886  -2.469 -30.892  1.00  0.00     0.032 A 
HETATM   16  C   UNL     1      17.807  -1.844 -30.307  1.00  0.00     0.038 A 
HETATM   17  C   UNL     1      18.015  -0.896 -29.346  1.00  0.00     0.103 A 
HETATM   18  C   UNL     1      19.301  -0.564 -28.952  1.00  0.00     0.038 A 
HETATM   19  C   UNL     1      20.395  -1.196 -29.536  1.00  0.00     0.032 A 
BRANCH  17  20
HETATM   20  N   UNL     1      16.889  -0.249 -28.761  1.00  0.00    -0.116 N 
HETATM   21  O   UNL     1      17.034   0.440 -27.832  1.00  0.00    -0.532 OA
HETATM   22  O   UNL     1      15.627  -0.475 -29.275  1.00  0.00    -0.532 OA
ENDBRANCH  17  20
ENDBRANCH  11  14
ENDBRANCH   7   8
ENDBRANCH   4   7
BRANCH   6  23
HETATM   23  C   UNL     1      25.950  -5.700 -35.504  1.00  0.00     0.259 C 
HETATM   24  O   UNL     1      25.637  -6.649 -36.739  1.00  0.00    -0.353 OA
HETATM   25  C   UNL     1      26.689  -6.609 -37.537  1.00  0.00     0.180 C 
HETATM   26  C   UNL     1      27.663  -5.465 -37.031  1.00  0.00     0.182 C 
HETATM   27  C   UNL     1      27.306  -5.475 -35.556  1.00  0.00     0.198 C 
BRANCH  25  28
HETATM   28  C   UNL     1      27.489  -7.931 -37.433  1.00  0.00     0.217 C 
BRANCH  28  29
HETATM   29  O   UNL     1      26.805  -8.872 -38.207  1.00  0.00    -0.280 OA
BRANCH  29  30
HETATM   30  P   UNL     1      26.488 -10.292 -37.444  1.00  0.00     0.422 P 
HETATM   31  O   UNL     1      25.354 -10.067 -36.462  1.00  0.00    -0.617 OA
HETATM   32  O   UNL     1      26.063 -11.324 -38.498  1.00  0.00    -0.617 OA
HETATM   33  O   UNL     1      27.768 -10.648 -36.728  1.00  0.00    -0.617 OA
ENDBRANCH  29  30
ENDBRANCH  28  29
ENDBRANCH  25  28
BRANCH  26  34
HETATM   34  O   UNL     1      27.347  -4.230 -37.667  1.00  0.00    -0.390 OA
ATOM     35  HO  UNL     1      27.880  -4.115 -38.445  1.00  0.00     0.210 HD
ENDBRANCH  26  34
BRANCH  27  36
HETATM   36  O   UNL     1      27.663  -4.293 -34.960  1.00  0.00    -0.388 OA
ATOM     37  HO  UNL     1      28.565  -4.322 -34.665  1.00  0.00     0.210 HD
ENDBRANCH  27  36
ENDBRANCH   6  23
TORSDOF 10
ENDMDL
MODEL 5
REMARK VINA RESULT:   -10.037      4.305      9.787
REMARK INTER + INTRA:         -16.764
REMARK INTER:                 -14.800
REMARK INTRA:                  -1.963
REMARK UNBOUND:                -1.446
REMARK  10 active torsions:
REMARK  status: ('A' for Active; 'I' for Inactive)
REMARK    1  A    between atoms: C_3  and  C_13 
REMARK    2  A    between atoms: C_3  and  N_20 
REMARK       I    between atoms: C_4  and  N_22 
REMARK       I    between atoms: C_4  and  N_20 
REMARK    3  A    between atoms: C_6  and  N_24 
REMARK    4  A    between atoms: C_7  and  O_25 
REMARK    5  A    between atoms: C_8  and  O_27 
REMARK    6  A    between atoms: C_9  and  N_19 
REMARK    7  A    between atoms: C_10  and  C_11 
REMARK    8  A    between atoms: C_11  and  O_30 
REMARK    9  A    between atoms: C_15  and  N_22 
REMARK   10  A    between atoms: O_30  and  P_37 
ROOT
HETATM    1  C   UNL     1      26.128  -6.206 -35.318  1.00  0.00     0.093 A 
HETATM    2  C   UNL     1      25.727  -3.939 -34.823  1.00  0.00     0.011 A 
HETATM    3  C   UNL     1      26.461  -4.889 -35.434  1.00  0.00     0.018 A 
HETATM    4  C   UNL     1      24.644  -4.378 -34.084  1.00  0.00    -0.025 A 
HETATM    5  C   UNL     1      24.339  -5.713 -33.994  1.00  0.00     0.102 A 
HETATM    6  N   UNL     1      25.067  -6.578 -34.605  1.00  0.00    -0.337 N 
ENDROOT
BRANCH   4   7
HETATM    7  C   UNL     1      23.778  -3.263 -33.419  1.00  0.00     0.164 C 
BRANCH   7   8
HETATM    8  N   UNL     1      22.754  -3.741 -32.553  1.00  0.00    -0.339 N 
HETATM    9  C   UNL     1      22.007  -2.744 -31.806  1.00  0.00     0.320 C 
HETATM   10  O   UNL     1      22.199  -1.595 -31.942  1.00  0.00    -0.247 OA
HETATM   11  N   UNL     1      20.975  -3.346 -30.905  1.00  0.00    -0.309 N 
ATOM     12  HN  UNL     1      20.839  -4.357 -30.907  1.00  0.00     0.170 HD
ATOM     13  HN  UNL     1      22.555  -4.738 -32.462  1.00  0.00     0.164 HD
BRANCH  11  14
HETATM   14  C   UNL     1      20.163  -2.522 -30.029  1.00  0.00     0.036 A 
HETATM   15  C   UNL     1      20.572  -2.451 -28.702  1.00  0.00     0.032 A 
HETATM   16  C   UNL     1      19.837  -1.720 -27.795  1.00  0.00     0.038 A 
HETATM   17  C   UNL     1      18.685  -1.107 -28.198  1.00  0.00     0.103 A 
HETATM   18  C   UNL     1      18.254  -1.212 -29.510  1.00  0.00     0.038 A 
HETATM   19  C   UNL     1      18.994  -1.946 -30.432  1.00  0.00     0.032 A 
BRANCH  17  20
HETATM   20  N   UNL     1      17.929  -0.365 -27.245  1.00  0.00    -0.116 N 
HETATM   21  O   UNL     1      18.479   0.305 -26.464  1.00  0.00    -0.532 OA
HETATM   22  O   UNL     1      16.553  -0.476 -27.227  1.00  0.00    -0.532 OA
ENDBRANCH  17  20
ENDBRANCH  11  14
ENDBRANCH   7   8
ENDBRANCH   4   7
BRANCH   6  23
HETATM   23  C   UNL     1      24.785  -8.012 -34.505  1.00  0.00     0.259 C 
HETATM   24  O   UNL     1      23.353  -8.164 -33.834  1.00  0.00    -0.353 OA
HETATM   25  C   UNL     1      23.447  -9.124 -32.931  1.00  0.00     0.180 C 
HETATM   26  C   UNL     1      24.853  -9.838 -33.097  1.00  0.00     0.182 C 
HETATM   27  C   UNL     1      25.649  -8.680 -33.669  1.00  0.00     0.198 C 
BRANCH  25  28
HETATM   28  C   UNL     1      23.439  -8.520 -31.505  1.00  0.00     0.217 C 
BRANCH  28  29
HETATM   29  O   UNL     1      22.100  -8.429 -31.119  1.00  0.00    -0.280 OA
BRANCH  29  30
HETATM   30  P   UNL     1      21.550  -6.896 -30.897  1.00  0.00     0.422 P 
HETATM   31  O   UNL     1      22.671  -6.064 -30.305  1.00  0.00    -0.617 OA
HETATM   32  O   UNL     1      21.146  -6.324 -32.263  1.00  0.00    -0.617 OA
HETATM   33  O   UNL     1      20.398  -7.028 -29.930  1.00  0.00    -0.617 OA
ENDBRANCH  29  30
ENDBRANCH  28  29
ENDBRANCH  25  28
BRANCH  26  34
HETATM   34  O   UNL     1      24.746 -10.934 -34.002  1.00  0.00    -0.390 OA
ATOM     35  HO  UNL     1      24.165 -11.597 -33.649  1.00  0.00     0.210 HD
ENDBRANCH  26  34
BRANCH  27  36
HETATM   36  O   UNL     1      26.766  -9.131 -34.323  1.00  0.00    -0.388 OA
ATOM     37  HO  UNL     1      27.470  -8.495 -34.268  1.00  0.00     0.210 HD
ENDBRANCH  27  36
ENDBRANCH   6  23
TORSDOF 10
ENDMDL
MODEL 6
REMARK VINA RESULT:    -9.764      4.293      9.638
REMARK INTER + INTRA:         -16.347
REMARK INTER:                 -15.288
REMARK INTRA:                  -1.059
REMARK UNBOUND:                -1.446
REMARK  10 active torsions:
REMARK  status: ('A' for Active; 'I' for Inactive)
REMARK    1  A    between atoms: C_3  and  C_13 
REMARK    2  A    between atoms: C_3  and  N_20 
REMARK       I    between atoms: C_4  and  N_22 
REMARK       I    between atoms: C_4  and  N_20 
REMARK    3  A    between atoms: C_6  and  N_24 
REMARK    4  A    between atoms: C_7  and  O_25 
REMARK    5  A    between atoms: C_8  and  O_27 
REMARK    6  A    between atoms: C_9  and  N_19 
REMARK    7  A    between atoms: C_10  and  C_11 
REMARK    8  A    between atoms: C_11  and  O_30 
REMARK    9  A    between atoms: C_15  and  N_22 
REMARK   10  A    between atoms: O_30  and  P_37 
ROOT
HETATM    1  C   UNL     1      26.695  -5.213 -35.504  1.00  0.00     0.093 A 
HETATM    2  C   UNL     1      25.155  -3.988 -34.210  1.00  0.00     0.011 A 
HETATM    3  C   UNL     1      26.242  -4.028 -35.005  1.00  0.00     0.018 A 
HETATM    4  C   UNL     1      24.547  -5.200 -33.937  1.00  0.00    -0.025 A 
HETATM    5  C   UNL     1      25.031  -6.373 -34.462  1.00  0.00     0.102 A 
HETATM    6  N   UNL     1      26.066  -6.353 -35.223  1.00  0.00    -0.337 N 
ENDROOT
BRANCH   4   7
HETATM    7  C   UNL     1      23.264  -5.132 -33.052  1.00  0.00     0.164 C 
BRANCH   7   8
HETATM    8  N   UNL     1      22.669  -3.842 -32.964  1.00  0.00    -0.339 N 
HETATM    9  C   UNL     1      21.850  -3.574 -31.794  1.00  0.00     0.320 C 
HETATM   10  O   UNL     1      21.722  -4.361 -30.934  1.00  0.00    -0.247 OA
HETATM   11  N   UNL     1      21.248  -2.204 -31.807  1.00  0.00    -0.309 N 
ATOM     12  HN  UNL     1      21.474  -1.567 -32.571  1.00  0.00     0.170 HD
ATOM     13  HN  UNL     1      22.810  -3.138 -33.690  1.00  0.00     0.164 HD
BRANCH  11  14
HETATM   14  C   UNL     1      20.349  -1.764 -30.756  1.00  0.00     0.036 A 
HETATM   15  C   UNL     1      20.895  -0.919 -29.797  1.00  0.00     0.032 A 
HETATM   16  C   UNL     1      20.120  -0.484 -28.744  1.00  0.00     0.038 A 
HETATM   17  C   UNL     1      18.833  -0.925 -28.626  1.00  0.00     0.103 A 
HETATM   18  C   UNL     1      18.301  -1.800 -29.558  1.00  0.00     0.038 A 
HETATM   19  C   UNL     1      19.078  -2.240 -30.626  1.00  0.00     0.032 A 
BRANCH  17  20
HETATM   20  N   UNL     1      18.049  -0.476 -27.525  1.00  0.00    -0.116 N 
HETATM   21  O   UNL     1      16.896  -0.653 -27.522  1.00  0.00    -0.532 OA
HETATM   22  O   UNL     1      18.655   0.202 -26.485  1.00  0.00    -0.532 OA
ENDBRANCH  17  20
ENDBRANCH  11  14
ENDBRANCH   7   8
ENDBRANCH   4   7
BRANCH   6  23
HETATM   23  C   UNL     1      26.623  -7.590 -35.775  1.00  0.00     0.259 C 
HETATM   24  O   UNL     1      26.242  -7.632 -37.316  1.00  0.00    -0.353 OA
HETATM   25  C   UNL     1      25.836  -8.860 -37.583  1.00  0.00     0.180 C 
HETATM   26  C   UNL     1      26.140  -9.777 -36.326  1.00  0.00     0.182 C 
HETATM   27  C   UNL     1      26.068  -8.726 -35.234  1.00  0.00     0.198 C 
BRANCH  25  28
HETATM   28  C   UNL     1      24.299  -8.886 -37.771  1.00  0.00     0.217 C 
BRANCH  28  29
HETATM   29  O   UNL     1      23.865  -7.561 -37.684  1.00  0.00    -0.280 OA
BRANCH  29  30
HETATM   30  P   UNL     1      22.276  -7.379 -37.309  1.00  0.00     0.422 P 
HETATM   31  O   UNL     1      22.156  -7.171 -35.811  1.00  0.00    -0.617 OA
HETATM   32  O   UNL     1      21.742  -6.143 -38.047  1.00  0.00    -0.617 OA
HETATM   33  O   UNL     1      21.621  -8.670 -37.736  1.00  0.00    -0.617 OA
ENDBRANCH  29  30
ENDBRANCH  28  29
ENDBRANCH  25  28
BRANCH  26  34
HETATM   34  O   UNL     1      27.434 -10.363 -36.444  1.00  0.00    -0.390 OA
ATOM     35  HO  UNL     1      27.628 -10.888 -35.676  1.00  0.00     0.210 HD
ENDBRANCH  26  34
BRANCH  27  36
HETATM   36  O   UNL     1      26.727  -9.146 -34.108  1.00  0.00    -0.388 OA
ATOM     37  HO  UNL     1      26.851 -10.088 -34.120  1.00  0.00     0.210 HD
ENDBRANCH  27  36
ENDBRANCH   6  23
TORSDOF 10
ENDMDL
MODEL 7
REMARK VINA RESULT:    -9.708      4.174      9.638
REMARK INTER + INTRA:         -16.261
REMARK INTER:                 -15.327
REMARK INTRA:                  -0.934
REMARK UNBOUND:                -1.446
REMARK  10 active torsions:
REMARK  status: ('A' for Active; 'I' for Inactive)
REMARK    1  A    between atoms: C_3  and  C_13 
REMARK    2  A    between atoms: C_3  and  N_20 
REMARK       I    between atoms: C_4  and  N_22 
REMARK       I    between atoms: C_4  and  N_20 
REMARK    3  A    between atoms: C_6  and  N_24 
REMARK    4  A    between atoms: C_7  and  O_25 
REMARK    5  A    between atoms: C_8  and  O_27 
REMARK    6  A    between atoms: C_9  and  N_19 
REMARK    7  A    between atoms: C_10  and  C_11 
REMARK    8  A    between atoms: C_11  and  O_30 
REMARK    9  A    between atoms: C_15  and  N_22 
REMARK   10  A    between atoms: O_30  and  P_37 
ROOT
HETATM    1  C   UNL     1      25.296  -6.026 -34.279  1.00  0.00     0.093 A 
HETATM    2  C   UNL     1      23.851  -5.458 -32.509  1.00  0.00     0.011 A 
HETATM    3  C   UNL     1      24.558  -5.103 -33.599  1.00  0.00     0.018 A 
HETATM    4  C   UNL     1      23.926  -6.786 -32.131  1.00  0.00    -0.025 A 
HETATM    5  C   UNL     1      24.678  -7.686 -32.844  1.00  0.00     0.102 A 
HETATM    6  N   UNL     1      25.326  -7.297 -33.883  1.00  0.00    -0.337 N 
ENDROOT
BRANCH   4   7
HETATM    7  C   UNL     1      23.067  -7.190 -30.893  1.00  0.00     0.164 C 
BRANCH   7   8
HETATM    8  N   UNL     1      22.363  -6.115 -30.281  1.00  0.00    -0.339 N 
HETATM    9  C   UNL     1      20.983  -5.915 -30.691  1.00  0.00     0.320 C 
HETATM   10  O   UNL     1      20.453  -6.632 -31.453  1.00  0.00    -0.247 OA
HETATM   11  N   UNL     1      20.339  -4.747 -30.013  1.00  0.00    -0.309 N 
ATOM     12  HN  UNL     1      20.865  -4.223 -29.313  1.00  0.00     0.170 HD
ATOM     13  HN  UNL     1      22.806  -5.513 -29.586  1.00  0.00     0.164 HD
BRANCH  11  14
HETATM   14  C   UNL     1      18.982  -4.343 -30.331  1.00  0.00     0.036 A 
HETATM   15  C   UNL     1      18.824  -3.049 -30.812  1.00  0.00     0.032 A 
HETATM   16  C   UNL     1      17.565  -2.573 -31.104  1.00  0.00     0.038 A 
HETATM   17  C   UNL     1      16.475  -3.363 -30.874  1.00  0.00     0.103 A 
HETATM   18  C   UNL     1      16.627  -4.637 -30.354  1.00  0.00     0.038 A 
HETATM   19  C   UNL     1      17.897  -5.125 -30.061  1.00  0.00     0.032 A 
BRANCH  17  20
HETATM   20  N   UNL     1      15.178  -2.851 -31.168  1.00  0.00    -0.116 N 
HETATM   21  O   UNL     1      14.827  -2.764 -32.277  1.00  0.00    -0.532 OA
HETATM   22  O   UNL     1      14.362  -2.423 -30.140  1.00  0.00    -0.532 OA
ENDBRANCH  17  20
ENDBRANCH  11  14
ENDBRANCH   7   8
ENDBRANCH   4   7
BRANCH   6  23
HETATM   23  C   UNL     1      26.160  -8.227 -34.648  1.00  0.00     0.259 C 
HETATM   24  O   UNL     1      26.408  -7.574 -36.075  1.00  0.00    -0.353 OA
HETATM   25  C   UNL     1      26.247  -8.529 -36.973  1.00  0.00     0.180 C 
HETATM   26  C   UNL     1      26.122  -9.917 -36.217  1.00  0.00     0.182 C 
HETATM   27  C   UNL     1      25.542  -9.429 -34.903  1.00  0.00     0.198 C 
BRANCH  25  28
HETATM   28  C   UNL     1      24.909  -8.331 -37.729  1.00  0.00     0.217 C 
BRANCH  28  29
HETATM   29  O   UNL     1      24.343  -7.155 -37.233  1.00  0.00    -0.280 OA
BRANCH  29  30
HETATM   30  P   UNL     1      22.702  -7.166 -37.141  1.00  0.00     0.422 P 
HETATM   31  O   UNL     1      22.199  -8.493 -37.678  1.00  0.00    -0.617 OA
HETATM   32  O   UNL     1      22.298  -7.017 -35.668  1.00  0.00    -0.617 OA
HETATM   33  O   UNL     1      22.251  -6.019 -38.013  1.00  0.00    -0.617 OA
ENDBRANCH  29  30
ENDBRANCH  28  29
ENDBRANCH  25  28
BRANCH  26  34
HETATM   34  O   UNL     1      27.408 -10.513 -36.065  1.00  0.00    -0.390 OA
ATOM     35  HO  UNL     1      27.873 -10.112 -35.340  1.00  0.00     0.210 HD
ENDBRANCH  26  34
BRANCH  27  36
HETATM   36  O   UNL     1      25.751 -10.347 -33.906  1.00  0.00    -0.388 OA
ATOM     37  HO  UNL     1      24.927 -10.704 -33.597  1.00  0.00     0.210 HD
ENDBRANCH  27  36
ENDBRANCH   6  23
TORSDOF 10
ENDMDL
MODEL 8
REMARK VINA RESULT:    -9.684      4.372     10.630
REMARK INTER + INTRA:         -16.225
REMARK INTER:                 -15.318
REMARK INTRA:                  -0.907
REMARK UNBOUND:                -1.446
REMARK  10 active torsions:
REMARK  status: ('A' for Active; 'I' for Inactive)
REMARK    1  A    between atoms: C_3  and  C_13 
REMARK    2  A    between atoms: C_3  and  N_20 
REMARK       I    between atoms: C_4  and  N_22 
REMARK       I    between atoms: C_4  and  N_20 
REMARK    3  A    between atoms: C_6  and  N_24 
REMARK    4  A    between atoms: C_7  and  O_25 
REMARK    5  A    between atoms: C_8  and  O_27 
REMARK    6  A    between atoms: C_9  and  N_19 
REMARK    7  A    between atoms: C_10  and  C_11 
REMARK    8  A    between atoms: C_11  and  O_30 
REMARK    9  A    between atoms: C_15  and  N_22 
REMARK   10  A    between atoms: O_30  and  P_37 
ROOT
HETATM    1  C   UNL     1      24.957  -6.199 -33.780  1.00  0.00     0.093 A 
HETATM    2  C   UNL     1      23.472  -5.544 -32.073  1.00  0.00     0.011 A 
HETATM    3  C   UNL     1      24.266  -6.475 -32.637  1.00  0.00     0.018 A 
HETATM    4  C   UNL     1      23.402  -4.323 -32.718  1.00  0.00    -0.025 A 
HETATM    5  C   UNL     1      24.116  -4.081 -33.865  1.00  0.00     0.102 A 
HETATM    6  N   UNL     1      24.866  -5.002 -34.356  1.00  0.00    -0.337 N 
ENDROOT
BRANCH   4   7
HETATM    7  C   UNL     1      22.513  -3.241 -32.028  1.00  0.00     0.164 C 
BRANCH   7   8
HETATM    8  N   UNL     1      21.113  -3.492 -32.091  1.00  0.00    -0.339 N 
HETATM    9  C   UNL     1      20.381  -3.449 -30.837  1.00  0.00     0.320 C 
HETATM   10  O   UNL     1      20.903  -3.174 -29.824  1.00  0.00    -0.247 OA
HETATM   11  N   UNL     1      18.925  -3.753 -31.003  1.00  0.00    -0.309 N 
ATOM     12  HN  UNL     1      18.553  -3.916 -31.939  1.00  0.00     0.170 HD
ATOM     13  HN  UNL     1      20.646  -3.692 -32.976  1.00  0.00     0.164 HD
BRANCH  11  14
HETATM   14  C   UNL     1      18.032  -3.820 -29.862  1.00  0.00     0.036 A 
HETATM   15  C   UNL     1      17.583  -2.603 -29.363  1.00  0.00     0.032 A 
HETATM   16  C   UNL     1      16.761  -2.575 -28.258  1.00  0.00     0.038 A 
HETATM   17  C   UNL     1      16.431  -3.743 -27.632  1.00  0.00     0.103 A 
HETATM   18  C   UNL     1      16.913  -4.953 -28.103  1.00  0.00     0.038 A 
HETATM   19  C   UNL     1      17.741  -4.988 -29.221  1.00  0.00     0.032 A 
BRANCH  17  20
HETATM   20  N   UNL     1      15.591  -3.696 -26.482  1.00  0.00    -0.116 N 
HETATM   21  O   UNL     1      14.679  -2.969 -26.460  1.00  0.00    -0.532 OA
HETATM   22  O   UNL     1      15.886  -4.483 -25.387  1.00  0.00    -0.532 OA
ENDBRANCH  17  20
ENDBRANCH  11  14
ENDBRANCH   7   8
ENDBRANCH   4   7
BRANCH   6  23
HETATM   23  C   UNL     1      25.618  -4.785 -35.594  1.00  0.00     0.259 C 
HETATM   24  O   UNL     1      25.214  -5.948 -36.599  1.00  0.00    -0.353 OA
HETATM   25  C   UNL     1      26.329  -6.379 -37.162  1.00  0.00     0.180 C 
HETATM   26  C   UNL     1      27.508  -5.396 -36.766  1.00  0.00     0.182 C 
HETATM   27  C   UNL     1      26.979  -4.903 -35.433  1.00  0.00     0.198 C 
BRANCH  25  28
HETATM   28  C   UNL     1      26.715  -7.765 -36.587  1.00  0.00     0.217 C 
BRANCH  28  29
HETATM   29  O   UNL     1      26.672  -8.665 -37.654  1.00  0.00    -0.280 OA
BRANCH  29  30
HETATM   30  P   UNL     1      26.497 -10.240 -37.221  1.00  0.00     0.422 P 
HETATM   31  O   UNL     1      26.130 -11.041 -38.456  1.00  0.00    -0.617 OA
HETATM   32  O   UNL     1      27.836 -10.740 -36.660  1.00  0.00    -0.617 OA
HETATM   33  O   UNL     1      25.375 -10.248 -36.211  1.00  0.00    -0.617 OA
ENDBRANCH  29  30
ENDBRANCH  28  29
ENDBRANCH  25  28
BRANCH  26  34
HETATM   34  O   UNL     1      27.627  -4.355 -37.732  1.00  0.00    -0.390 OA
ATOM     35  HO  UNL     1      26.793  -3.914 -37.844  1.00  0.00     0.210 HD
ENDBRANCH  26  34
BRANCH  27  36
HETATM   36  O   UNL     1      27.569  -3.716 -35.082  1.00  0.00    -0.388 OA
ATOM     37  HO  UNL     1      26.915  -3.040 -34.949  1.00  0.00     0.210 HD
ENDBRANCH  27  36
ENDBRANCH   6  23
TORSDOF 10
ENDMDL
MODEL 9
REMARK VINA RESULT:    -9.676      4.278     10.228
REMARK INTER + INTRA:         -16.212
REMARK INTER:                 -14.177
REMARK INTRA:                  -2.035
REMARK UNBOUND:                -1.446
REMARK  10 active torsions:
REMARK  status: ('A' for Active; 'I' for Inactive)
REMARK    1  A    between atoms: C_3  and  C_13 
REMARK    2  A    between atoms: C_3  and  N_20 
REMARK       I    between atoms: C_4  and  N_22 
REMARK       I    between atoms: C_4  and  N_20 
REMARK    3  A    between atoms: C_6  and  N_24 
REMARK    4  A    between atoms: C_7  and  O_25 
REMARK    5  A    between atoms: C_8  and  O_27 
REMARK    6  A    between atoms: C_9  and  N_19 
REMARK    7  A    between atoms: C_10  and  C_11 
REMARK    8  A    between atoms: C_11  and  O_30 
REMARK    9  A    between atoms: C_15  and  N_22 
REMARK   10  A    between atoms: O_30  and  P_37 
ROOT
HETATM    1  C   UNL     1      24.788  -5.585 -35.730  1.00  0.00     0.093 A 
HETATM    2  C   UNL     1      24.084  -3.525 -34.832  1.00  0.00     0.011 A 
HETATM    3  C   UNL     1      24.606  -4.239 -35.849  1.00  0.00     0.018 A 
HETATM    4  C   UNL     1      23.760  -4.230 -33.688  1.00  0.00    -0.025 A 
HETATM    5  C   UNL     1      23.955  -5.586 -33.608  1.00  0.00     0.102 A 
HETATM    6  N   UNL     1      24.447  -6.221 -34.611  1.00  0.00    -0.337 N 
ENDROOT
BRANCH   4   7
HETATM    7  C   UNL     1      23.116  -3.396 -32.536  1.00  0.00     0.164 C 
BRANCH   7   8
HETATM    8  N   UNL     1      22.407  -4.164 -31.570  1.00  0.00    -0.339 N 
HETATM    9  C   UNL     1      21.156  -3.610 -31.081  1.00  0.00     0.320 C 
HETATM   10  O   UNL     1      20.721  -2.602 -31.494  1.00  0.00    -0.247 OA
HETATM   11  N   UNL     1      20.501  -4.476 -30.051  1.00  0.00    -0.309 N 
ATOM     12  HN  UNL     1      20.927  -5.369 -29.805  1.00  0.00     0.170 HD
ATOM     13  HN  UNL     1      22.761  -5.061 -31.237  1.00  0.00     0.164 HD
BRANCH  11  14
HETATM   14  C   UNL     1      19.272  -4.070 -29.394  1.00  0.00     0.036 A 
HETATM   15  C   UNL     1      19.412  -3.211 -28.310  1.00  0.00     0.032 A 
HETATM   16  C   UNL     1      18.299  -2.805 -27.607  1.00  0.00     0.038 A 
HETATM   17  C   UNL     1      17.069  -3.290 -27.952  1.00  0.00     0.103 A 
HETATM   18  C   UNL     1      16.934  -4.179 -29.005  1.00  0.00     0.038 A 
HETATM   19  C   UNL     1      18.055  -4.589 -29.721  1.00  0.00     0.032 A 
BRANCH  17  20
HETATM   20  N   UNL     1      15.930  -2.871 -27.206  1.00  0.00    -0.116 N 
HETATM   21  O   UNL     1      15.435  -3.603 -26.444  1.00  0.00    -0.532 OA
HETATM   22  O   UNL     1      15.395  -1.617 -27.421  1.00  0.00    -0.532 OA
ENDBRANCH  17  20
ENDBRANCH  11  14
ENDBRANCH   7   8
ENDBRANCH   4   7
BRANCH   6  23
HETATM   23  C   UNL     1      24.694  -7.663 -34.547  1.00  0.00     0.259 C 
HETATM   24  O   UNL     1      23.486  -8.313 -33.745  1.00  0.00    -0.353 OA
HETATM   25  C   UNL     1      24.005  -9.185 -32.900  1.00  0.00     0.180 C 
HETATM   26  C   UNL     1      25.545  -9.359 -33.235  1.00  0.00     0.182 C 
HETATM   27  C   UNL     1      25.822  -7.991 -33.830  1.00  0.00     0.198 C 
BRANCH  25  28
HETATM   28  C   UNL     1      23.941  -8.631 -31.454  1.00  0.00     0.217 C 
BRANCH  28  29
HETATM   29  O   UNL     1      22.650  -8.888 -30.987  1.00  0.00    -0.280 OA
BRANCH  29  30
HETATM   30  P   UNL     1      21.796  -7.553 -30.554  1.00  0.00     0.422 P 
HETATM   31  O   UNL     1      20.689  -7.976 -29.606  1.00  0.00    -0.617 OA
HETATM   32  O   UNL     1      22.745  -6.581 -29.839  1.00  0.00    -0.617 OA
HETATM   33  O   UNL     1      21.231  -7.011 -31.844  1.00  0.00    -0.617 OA
ENDBRANCH  29  30
ENDBRANCH  28  29
ENDBRANCH  25  28
BRANCH  26  34
HETATM   34  O   UNL     1      25.730 -10.417 -34.172  1.00  0.00    -0.390 OA
ATOM     35  HO  UNL     1      26.479 -10.237 -34.727  1.00  0.00     0.210 HD
ENDBRANCH  26  34
BRANCH  27  36
HETATM   36  O   UNL     1      26.948  -8.017 -34.610  1.00  0.00    -0.388 OA
ATOM     37  HO  UNL     1      26.770  -7.663 -35.473  1.00  0.00     0.210 HD
ENDBRANCH  27  36
ENDBRANCH   6  23
TORSDOF 10
ENDMDL
MODEL 10
REMARK VINA RESULT:    -9.632      4.023      9.841
REMARK INTER + INTRA:         -16.145
REMARK INTER:                 -15.270
REMARK INTRA:                  -0.875
REMARK UNBOUND:                -1.446
REMARK  10 active torsions:
REMARK  status: ('A' for Active; 'I' for Inactive)
REMARK    1  A    between atoms: C_3  and  C_13 
REMARK    2  A    between atoms: C_3  and  N_20 
REMARK       I    between atoms: C_4  and  N_22 
REMARK       I    between atoms: C_4  and  N_20 
REMARK    3  A    between atoms: C_6  and  N_24 
REMARK    4  A    between atoms: C_7  and  O_25 
REMARK    5  A    between atoms: C_8  and  O_27 
REMARK    6  A    between atoms: C_9  and  N_19 
REMARK    7  A    between atoms: C_10  and  C_11 
REMARK    8  A    between atoms: C_11  and  O_30 
REMARK    9  A    between atoms: C_15  and  N_22 
REMARK   10  A    between atoms: O_30  and  P_37 
ROOT
HETATM    1  C   UNL     1      24.691  -5.928 -33.868  1.00  0.00     0.093 A 
HETATM    2  C   UNL     1      23.941  -3.703 -34.044  1.00  0.00     0.011 A 
HETATM    3  C   UNL     1      24.609  -4.754 -34.556  1.00  0.00     0.018 A 
HETATM    4  C   UNL     1      23.363  -3.888 -32.801  1.00  0.00    -0.025 A 
HETATM    5  C   UNL     1      23.463  -5.086 -32.140  1.00  0.00     0.102 A 
HETATM    6  N   UNL     1      24.105  -6.061 -32.679  1.00  0.00    -0.337 N 
ENDROOT
BRANCH   4   7
HETATM    7  C   UNL     1      22.555  -2.675 -32.241  1.00  0.00     0.164 C 
BRANCH   7   8
HETATM    8  N   UNL     1      21.152  -2.894 -32.133  1.00  0.00    -0.339 N 
HETATM    9  C   UNL     1      20.639  -3.231 -30.816  1.00  0.00     0.320 C 
HETATM   10  O   UNL     1      21.335  -3.274 -29.873  1.00  0.00    -0.247 OA
HETATM   11  N   UNL     1      19.162  -3.467 -30.811  1.00  0.00    -0.309 N 
ATOM     12  HN  UNL     1      18.633  -3.340 -31.674  1.00  0.00     0.170 HD
ATOM     13  HN  UNL     1      20.536  -2.817 -32.943  1.00  0.00     0.164 HD
BRANCH  11  14
HETATM   14  C   UNL     1      18.466  -3.875 -29.604  1.00  0.00     0.036 A 
HETATM   15  C   UNL     1      17.690  -5.023 -29.702  1.00  0.00     0.032 A 
HETATM   16  C   UNL     1      16.967  -5.459 -28.614  1.00  0.00     0.038 A 
HETATM   17  C   UNL     1      16.983  -4.731 -27.458  1.00  0.00     0.103 A 
HETATM   18  C   UNL     1      17.722  -3.563 -27.372  1.00  0.00     0.038 A 
HETATM   19  C   UNL     1      18.458  -3.120 -28.468  1.00  0.00     0.032 A 
BRANCH  17  20
HETATM   20  N   UNL     1      16.219  -5.188 -26.346  1.00  0.00    -0.116 N 
HETATM   21  O   UNL     1      15.962  -6.321 -26.245  1.00  0.00    -0.532 OA
HETATM   22  O   UNL     1      15.755  -4.280 -25.415  1.00  0.00    -0.532 OA
ENDBRANCH  17  20
ENDBRANCH  11  14
ENDBRANCH   7   8
ENDBRANCH   4   7
BRANCH   6  23
HETATM   23  C   UNL     1      24.255  -7.343 -31.987  1.00  0.00     0.259 C 
HETATM   24  O   UNL     1      25.578  -8.026 -32.543  1.00  0.00    -0.353 OA
HETATM   25  C   UNL     1      25.297  -9.299 -32.758  1.00  0.00     0.180 C 
HETATM   26  C   UNL     1      23.868  -9.612 -32.146  1.00  0.00     0.182 C 
HETATM   27  C   UNL     1      23.244  -8.233 -32.265  1.00  0.00     0.198 C 
BRANCH  25  28
HETATM   28  C   UNL     1      25.181  -9.571 -34.279  1.00  0.00     0.217 C 
BRANCH  28  29
HETATM   29  O   UNL     1      26.473  -9.842 -34.734  1.00  0.00    -0.280 OA
BRANCH  29  30
HETATM   30  P   UNL     1      26.686  -9.658 -36.353  1.00  0.00     0.422 P 
HETATM   31  O   UNL     1      25.347  -9.849 -37.039  1.00  0.00    -0.617 OA
HETATM   32  O   UNL     1      27.203  -8.236 -36.615  1.00  0.00    -0.617 OA
HETATM   33  O   UNL     1      27.661 -10.740 -36.747  1.00  0.00    -0.617 OA
ENDBRANCH  29  30
ENDBRANCH  28  29
ENDBRANCH  25  28
BRANCH  26  34
HETATM   34  O   UNL     1      23.994 -10.045 -30.794  1.00  0.00    -0.390 OA
ATOM     35  HO  UNL     1      23.667  -9.377 -30.203  1.00  0.00     0.210 HD
ENDBRANCH  26  34
BRANCH  27  36
HETATM   36  O   UNL     1      22.182  -8.103 -31.409  1.00  0.00    -0.388 OA
ATOM     37  HO  UNL     1      21.384  -8.429 -31.807  1.00  0.00     0.210 HD
ENDBRANCH  27  36
ENDBRANCH   6  23
TORSDOF 10
ENDMDL
MODEL 11
REMARK VINA RESULT:    -9.516      4.510      9.916
REMARK INTER + INTRA:         -15.969
REMARK INTER:                 -14.881
REMARK INTRA:                  -1.088
REMARK UNBOUND:                -1.446
REMARK  10 active torsions:
REMARK  status: ('A' for Active; 'I' for Inactive)
REMARK    1  A    between atoms: C_3  and  C_13 
REMARK    2  A    between atoms: C_3  and  N_20 
REMARK       I    between atoms: C_4  and  N_22 
REMARK       I    between atoms: C_4  and  N_20 
REMARK    3  A    between atoms: C_6  and  N_24 
REMARK    4  A    between atoms: C_7  and  O_25 
REMARK    5  A    between atoms: C_8  and  O_27 
REMARK    6  A    between atoms: C_9  and  N_19 
REMARK    7  A    between atoms: C_10  and  C_11 
REMARK    8  A    between atoms: C_11  and  O_30 
REMARK    9  A    between atoms: C_15  and  N_22 
REMARK   10  A    between atoms: O_30  and  P_37 
ROOT
HETATM    1  C   UNL     1      23.477  -8.880 -30.970  1.00  0.00     0.093 A 
HETATM    2  C   UNL     1      21.590  -7.481 -30.796  1.00  0.00     0.011 A 
HETATM    3  C   UNL     1      22.394  -8.428 -30.275  1.00  0.00     0.018 A 
HETATM    4  C   UNL     1      21.924  -7.015 -32.054  1.00  0.00    -0.025 A 
HETATM    5  C   UNL     1      23.025  -7.492 -32.721  1.00  0.00     0.102 A 
HETATM    6  N   UNL     1      23.765  -8.389 -32.173  1.00  0.00    -0.337 N 
ENDROOT
BRANCH   4   7
HETATM    7  C   UNL     1      21.009  -5.887 -32.625  1.00  0.00     0.164 C 
BRANCH   7   8
HETATM    8  N   UNL     1      19.909  -5.534 -31.793  1.00  0.00    -0.339 N 
HETATM    9  C   UNL     1      20.056  -4.337 -30.983  1.00  0.00     0.320 C 
HETATM   10  O   UNL     1      21.013  -3.661 -31.044  1.00  0.00    -0.247 OA
HETATM   11  N   UNL     1      18.861  -4.066 -30.124  1.00  0.00    -0.309 N 
ATOM     12  HN  UNL     1      18.048  -4.679 -30.192  1.00  0.00     0.170 HD
ATOM     13  HN  UNL     1      19.058  -6.096 -31.767  1.00  0.00     0.164 HD
BRANCH  11  14
HETATM   14  C   UNL     1      18.834  -2.950 -29.197  1.00  0.00     0.036 A 
HETATM   15  C   UNL     1      18.302  -1.762 -29.684  1.00  0.00     0.032 A 
HETATM   16  C   UNL     1      18.272  -0.643 -28.881  1.00  0.00     0.038 A 
HETATM   17  C   UNL     1      18.810  -0.698 -27.627  1.00  0.00     0.103 A 
HETATM   18  C   UNL     1      19.379  -1.870 -27.156  1.00  0.00     0.038 A 
HETATM   19  C   UNL     1      19.408  -3.004 -27.961  1.00  0.00     0.032 A 
BRANCH  17  20
HETATM   20  N   UNL     1      18.783   0.472 -26.814  1.00  0.00    -0.116 N 
HETATM   21  O   UNL     1      19.009   0.390 -25.672  1.00  0.00    -0.532 OA
HETATM   22  O   UNL     1      18.452   1.688 -27.376  1.00  0.00    -0.532 OA
ENDBRANCH  17  20
ENDBRANCH  11  14
ENDBRANCH   7   8
ENDBRANCH   4   7
BRANCH   6  23
HETATM   23  C   UNL     1      24.929  -8.939 -32.871  1.00  0.00     0.259 C 
HETATM   24  O   UNL     1      25.884  -7.720 -33.229  1.00  0.00    -0.353 OA
HETATM   25  C   UNL     1      26.291  -7.898 -34.472  1.00  0.00     0.180 C 
HETATM   26  C   UNL     1      25.847  -9.343 -34.948  1.00  0.00     0.182 C 
HETATM   27  C   UNL     1      24.616  -9.520 -34.078  1.00  0.00     0.198 C 
BRANCH  25  28
HETATM   28  C   UNL     1      25.579  -6.898 -35.417  1.00  0.00     0.217 C 
BRANCH  28  29
HETATM   29  O   UNL     1      26.546  -6.439 -36.314  1.00  0.00    -0.280 OA
BRANCH  29  30
HETATM   30  P   UNL     1      26.840  -4.824 -36.244  1.00  0.00     0.422 P 
HETATM   31  O   UNL     1      27.648  -4.536 -34.993  1.00  0.00    -0.617 OA
HETATM   32  O   UNL     1      27.649  -4.425 -37.486  1.00  0.00    -0.617 OA
HETATM   33  O   UNL     1      25.478  -4.179 -36.174  1.00  0.00    -0.617 OA
ENDBRANCH  29  30
ENDBRANCH  28  29
ENDBRANCH  25  28
BRANCH  26  34
HETATM   34  O   UNL     1      26.869 -10.294 -34.659  1.00  0.00    -0.390 OA
ATOM     35  HO  UNL     1      26.791 -11.046 -35.234  1.00  0.00     0.210 HD
ENDBRANCH  26  34
BRANCH  27  36
HETATM   36  O   UNL     1      24.293 -10.846 -33.952  1.00  0.00    -0.388 OA
ATOM     37  HO  UNL     1      25.029 -11.397 -34.191  1.00  0.00     0.210 HD
ENDBRANCH  27  36
ENDBRANCH   6  23
TORSDOF 10
ENDMDL
MODEL 12
REMARK VINA RESULT:    -9.445      3.041      4.755
REMARK INTER + INTRA:         -15.860
REMARK INTER:                 -15.279
REMARK INTRA:                  -0.581
REMARK UNBOUND:                -1.446
REMARK  10 active torsions:
REMARK  status: ('A' for Active; 'I' for Inactive)
REMARK    1  A    between atoms: C_3  and  C_13 
REMARK    2  A    between atoms: C_3  and  N_20 
REMARK       I    between atoms: C_4  and  N_22 
REMARK       I    between atoms: C_4  and  N_20 
REMARK    3  A    between atoms: C_6  and  N_24 
REMARK    4  A    between atoms: C_7  and  O_25 
REMARK    5  A    between atoms: C_8  and  O_27 
REMARK    6  A    between atoms: C_9  and  N_19 
REMARK    7  A    between atoms: C_10  and  C_11 
REMARK    8  A    between atoms: C_11  and  O_30 
REMARK    9  A    between atoms: C_15  and  N_22 
REMARK   10  A    between atoms: O_30  and  P_37 
ROOT
HETATM    1  C   UNL     1      24.620  -8.310 -32.671  1.00  0.00     0.093 A 
HETATM    2  C   UNL     1      26.110  -7.022 -33.961  1.00  0.00     0.011 A 
HETATM    3  C   UNL     1      25.848  -8.124 -33.232  1.00  0.00     0.018 A 
HETATM    4  C   UNL     1      25.077  -6.113 -34.094  1.00  0.00    -0.025 A 
HETATM    5  C   UNL     1      23.852  -6.337 -33.517  1.00  0.00     0.102 A 
HETATM    6  N   UNL     1      23.653  -7.411 -32.839  1.00  0.00    -0.337 N 
ENDROOT
BRANCH   4   7
HETATM    7  C   UNL     1      25.381  -4.863 -34.978  1.00  0.00     0.164 C 
BRANCH   7   8
HETATM    8  N   UNL     1      25.729  -5.158 -36.327  1.00  0.00    -0.339 N 
HETATM    9  C   UNL     1      27.146  -5.215 -36.643  1.00  0.00     0.320 C 
HETATM   10  O   UNL     1      27.970  -5.074 -35.820  1.00  0.00    -0.247 OA
HETATM   11  N   UNL     1      27.408  -5.504 -38.087  1.00  0.00    -0.309 N 
ATOM     12  HN  UNL     1      26.621  -5.678 -38.713  1.00  0.00     0.170 HD
ATOM     13  HN  UNL     1      25.016  -5.322 -37.038  1.00  0.00     0.164 HD
BRANCH  11  14
HETATM   14  C   UNL     1      28.759  -5.543 -38.617  1.00  0.00     0.036 A 
HETATM   15  C   UNL     1      29.139  -4.463 -39.405  1.00  0.00     0.032 A 
HETATM   16  C   UNL     1      30.391  -4.438 -39.977  1.00  0.00     0.038 A 
HETATM   17  C   UNL     1      31.234  -5.498 -39.804  1.00  0.00     0.103 A 
HETATM   18  C   UNL     1      30.841  -6.594 -39.054  1.00  0.00     0.038 A 
HETATM   19  C   UNL     1      29.578  -6.623 -38.470  1.00  0.00     0.032 A 
BRANCH  17  20
HETATM   20  N   UNL     1      32.522  -5.462 -40.413  1.00  0.00    -0.116 N 
HETATM   21  O   UNL     1      33.327  -4.714 -40.024  1.00  0.00    -0.532 OA
HETATM   22  O   UNL     1      32.793  -6.287 -41.487  1.00  0.00    -0.532 OA
ENDBRANCH  17  20
ENDBRANCH  11  14
ENDBRANCH   7   8
ENDBRANCH   4   7
BRANCH   6  23
HETATM   23  C   UNL     1      22.366  -7.666 -32.187  1.00  0.00     0.259 C 
HETATM   24  O   UNL     1      21.504  -6.337 -32.309  1.00  0.00    -0.353 OA
HETATM   25  C   UNL     1      20.940  -6.131 -31.133  1.00  0.00     0.180 C 
HETATM   26  C   UNL     1      21.179  -7.409 -30.225  1.00  0.00     0.182 C 
HETATM   27  C   UNL     1      22.478  -7.902 -30.836  1.00  0.00     0.198 C 
BRANCH  25  28
HETATM   28  C   UNL     1      21.635  -4.953 -30.406  1.00  0.00     0.217 C 
BRANCH  28  29
HETATM   29  O   UNL     1      21.612  -3.871 -31.289  1.00  0.00    -0.280 OA
BRANCH  29  30
HETATM   30  P   UNL     1      20.701  -2.597 -30.794  1.00  0.00     0.422 P 
HETATM   31  O   UNL     1      20.699  -2.567 -29.277  1.00  0.00    -0.617 OA
HETATM   32  O   UNL     1      21.335  -1.308 -31.335  1.00  0.00    -0.617 OA
HETATM   33  O   UNL     1      19.318  -2.867 -31.336  1.00  0.00    -0.617 OA
ENDBRANCH  29  30
ENDBRANCH  28  29
ENDBRANCH  25  28
BRANCH  26  34
HETATM   34  O   UNL     1      20.108  -8.335 -30.385  1.00  0.00    -0.390 OA
ATOM     35  HO  UNL     1      20.446  -9.221 -30.452  1.00  0.00     0.210 HD
ENDBRANCH  26  34
BRANCH  27  36
HETATM   36  O   UNL     1      22.679  -9.228 -30.551  1.00  0.00    -0.388 OA
ATOM     37  HO  UNL     1      22.062  -9.772 -31.024  1.00  0.00     0.210 HD
ENDBRANCH  27  36
ENDBRANCH   6  23
TORSDOF 10
ENDMDL
MODEL 13
REMARK VINA RESULT:    -9.421      4.938     10.923
REMARK INTER + INTRA:         -15.823
REMARK INTER:                 -14.991
REMARK INTRA:                  -0.832
REMARK UNBOUND:                -1.446
REMARK  10 active torsions:
REMARK  status: ('A' for Active; 'I' for Inactive)
REMARK    1  A    between atoms: C_3  and  C_13 
REMARK    2  A    between atoms: C_3  and  N_20 
REMARK       I    between atoms: C_4  and  N_22 
REMARK       I    between atoms: C_4  and  N_20 
REMARK    3  A    between atoms: C_6  and  N_24 
REMARK    4  A    between atoms: C_7  and  O_25 
REMARK    5  A    between atoms: C_8  and  O_27 
REMARK    6  A    between atoms: C_9  and  N_19 
REMARK    7  A    between atoms: C_10  and  C_11 
REMARK    8  A    between atoms: C_11  and  O_30 
REMARK    9  A    between atoms: C_15  and  N_22 
REMARK   10  A    between atoms: O_30  and  P_37 
ROOT
HETATM    1  C   UNL     1      24.773  -6.066 -33.520  1.00  0.00     0.093 A 
HETATM    2  C   UNL     1      23.224  -5.420 -31.868  1.00  0.00     0.011 A 
HETATM    3  C   UNL     1      24.094  -6.321 -32.365  1.00  0.00     0.018 A 
HETATM    4  C   UNL     1      23.065  -4.253 -32.592  1.00  0.00    -0.025 A 
HETATM    5  C   UNL     1      23.770  -4.032 -33.749  1.00  0.00     0.102 A 
HETATM    6  N   UNL     1      24.595  -4.920 -34.174  1.00  0.00    -0.337 N 
ENDROOT
BRANCH   4   7
HETATM    7  C   UNL     1      22.087  -3.202 -31.980  1.00  0.00     0.164 C 
BRANCH   7   8
HETATM    8  N   UNL     1      21.344  -3.664 -30.857  1.00  0.00    -0.339 N 
HETATM    9  C   UNL     1      20.058  -3.031 -30.616  1.00  0.00     0.320 C 
HETATM   10  O   UNL     1      19.625  -2.213 -31.336  1.00  0.00    -0.247 OA
HETATM   11  N   UNL     1      19.367  -3.564 -29.400  1.00  0.00    -0.309 N 
ATOM     12  HN  UNL     1      19.798  -4.325 -28.875  1.00  0.00     0.170 HD
ATOM     13  HN  UNL     1      21.697  -4.404 -30.251  1.00  0.00     0.164 HD
BRANCH  11  14
HETATM   14  C   UNL     1      18.099  -3.021 -28.952  1.00  0.00     0.036 A 
HETATM   15  C   UNL     1      18.139  -1.747 -28.398  1.00  0.00     0.032 A 
HETATM   16  C   UNL     1      16.985  -1.171 -27.914  1.00  0.00     0.038 A 
HETATM   17  C   UNL     1      15.816  -1.878 -27.942  1.00  0.00     0.103 A 
HETATM   18  C   UNL     1      15.783  -3.163 -28.455  1.00  0.00     0.038 A 
HETATM   19  C   UNL     1      16.945  -3.748 -28.949  1.00  0.00     0.032 A 
BRANCH  17  20
HETATM   20  N   UNL     1      14.634  -1.273 -27.425  1.00  0.00    -0.116 N 
HETATM   21  O   UNL     1      14.065  -0.477 -28.060  1.00  0.00    -0.532 OA
HETATM   22  O   UNL     1      14.192  -1.605 -26.160  1.00  0.00    -0.532 OA
ENDBRANCH  17  20
ENDBRANCH  11  14
ENDBRANCH   7   8
ENDBRANCH   4   7
BRANCH   6  23
HETATM   23  C   UNL     1      25.341  -4.727 -35.420  1.00  0.00     0.259 C 
HETATM   24  O   UNL     1      24.919  -5.897 -36.408  1.00  0.00    -0.353 OA
HETATM   25  C   UNL     1      26.026  -6.347 -36.972  1.00  0.00     0.180 C 
HETATM   26  C   UNL     1      27.217  -5.370 -36.597  1.00  0.00     0.182 C 
HETATM   27  C   UNL     1      26.701  -4.856 -35.266  1.00  0.00     0.198 C 
BRANCH  25  28
HETATM   28  C   UNL     1      26.402  -7.729 -36.383  1.00  0.00     0.217 C 
BRANCH  28  29
HETATM   29  O   UNL     1      26.734  -8.546 -37.466  1.00  0.00    -0.280 OA
BRANCH  29  30
HETATM   30  P   UNL     1      26.495 -10.153 -37.215  1.00  0.00     0.422 P 
HETATM   31  O   UNL     1      27.812 -10.774 -36.790  1.00  0.00    -0.617 OA
HETATM   32  O   UNL     1      25.458 -10.319 -36.095  1.00  0.00    -0.617 OA
HETATM   33  O   UNL     1      26.041 -10.695 -38.548  1.00  0.00    -0.617 OA
ENDBRANCH  29  30
ENDBRANCH  28  29
ENDBRANCH  25  28
BRANCH  26  34
HETATM   34  O   UNL     1      27.339  -4.342 -37.577  1.00  0.00    -0.390 OA
ATOM     35  HO  UNL     1      28.009  -3.719 -37.318  1.00  0.00     0.210 HD
ENDBRANCH  26  34
BRANCH  27  36
HETATM   36  O   UNL     1      27.305  -3.670 -34.934  1.00  0.00    -0.388 OA
ATOM     37  HO  UNL     1      28.101  -3.544 -35.437  1.00  0.00     0.210 HD
ENDBRANCH  27  36
ENDBRANCH   6  23
TORSDOF 10
ENDMDL
MODEL 14
REMARK VINA RESULT:    -9.401      4.592     10.199
REMARK INTER + INTRA:         -15.793
REMARK INTER:                 -14.756
REMARK INTRA:                  -1.036
REMARK UNBOUND:                -1.446
REMARK  10 active torsions:
REMARK  status: ('A' for Active; 'I' for Inactive)
REMARK    1  A    between atoms: C_3  and  C_13 
REMARK    2  A    between atoms: C_3  and  N_20 
REMARK       I    between atoms: C_4  and  N_22 
REMARK       I    between atoms: C_4  and  N_20 
REMARK    3  A    between atoms: C_6  and  N_24 
REMARK    4  A    between atoms: C_7  and  O_25 
REMARK    5  A    between atoms: C_8  and  O_27 
REMARK    6  A    between atoms: C_9  and  N_19 
REMARK    7  A    between atoms: C_10  and  C_11 
REMARK    8  A    between atoms: C_11  and  O_30 
REMARK    9  A    between atoms: C_15  and  N_22 
REMARK   10  A    between atoms: O_30  and  P_37 
ROOT
HETATM    1  C   UNL     1      24.219  -8.837 -33.340  1.00  0.00     0.093 A 
HETATM    2  C   UNL     1      23.604  -9.201 -31.096  1.00  0.00     0.011 A 
HETATM    3  C   UNL     1      24.335  -9.538 -32.177  1.00  0.00     0.018 A 
HETATM    4  C   UNL     1      22.745  -8.128 -31.245  1.00  0.00    -0.025 A 
HETATM    5  C   UNL     1      22.659  -7.444 -32.432  1.00  0.00     0.102 A 
HETATM    6  N   UNL     1      23.387  -7.801 -33.429  1.00  0.00    -0.337 N 
ENDROOT
BRANCH   4   7
HETATM    7  C   UNL     1      21.938  -7.722 -29.972  1.00  0.00     0.164 C 
BRANCH   7   8
HETATM    8  N   UNL     1      20.527  -7.867 -30.091  1.00  0.00    -0.339 N 
HETATM    9  C   UNL     1      19.746  -6.644 -30.170  1.00  0.00     0.320 C 
HETATM   10  O   UNL     1      20.252  -5.586 -30.186  1.00  0.00    -0.247 OA
HETATM   11  N   UNL     1      18.275  -6.900 -30.265  1.00  0.00    -0.309 N 
ATOM     12  HN  UNL     1      17.937  -7.861 -30.311  1.00  0.00     0.170 HD
ATOM     13  HN  UNL     1      20.085  -8.786 -30.118  1.00  0.00     0.164 HD
BRANCH  11  14
HETATM   14  C   UNL     1      17.319  -5.808 -30.294  1.00  0.00     0.036 A 
HETATM   15  C   UNL     1      16.719  -5.550 -31.521  1.00  0.00     0.032 A 
HETATM   16  C   UNL     1      15.827  -4.509 -31.644  1.00  0.00     0.038 A 
HETATM   17  C   UNL     1      15.574  -3.706 -30.568  1.00  0.00     0.103 A 
HETATM   18  C   UNL     1      16.203  -3.936 -29.356  1.00  0.00     0.038 A 
HETATM   19  C   UNL     1      17.102  -4.990 -29.224  1.00  0.00     0.032 A 
BRANCH  17  20
HETATM   20  N   UNL     1      14.659  -2.624 -30.715  1.00  0.00    -0.116 N 
HETATM   21  O   UNL     1      14.167  -2.147 -29.771  1.00  0.00    -0.532 OA
HETATM   22  O   UNL     1      14.329  -2.174 -31.978  1.00  0.00    -0.532 OA
ENDBRANCH  17  20
ENDBRANCH  11  14
ENDBRANCH   7   8
ENDBRANCH   4   7
BRANCH   6  23
HETATM   23  C   UNL     1      23.297  -7.110 -34.718  1.00  0.00     0.259 C 
HETATM   24  O   UNL     1      23.934  -8.070 -35.812  1.00  0.00    -0.353 OA
HETATM   25  C   UNL     1      24.704  -7.323 -36.583  1.00  0.00     0.180 C 
HETATM   26  C   UNL     1      24.454  -5.799 -36.222  1.00  0.00     0.182 C 
HETATM   27  C   UNL     1      24.044  -5.956 -34.770  1.00  0.00     0.198 C 
BRANCH  25  28
HETATM   28  C   UNL     1      26.197  -7.597 -36.274  1.00  0.00     0.217 C 
BRANCH  28  29
HETATM   29  O   UNL     1      26.640  -8.510 -37.234  1.00  0.00    -0.280 OA
BRANCH  29  30
HETATM   30  P   UNL     1      26.838 -10.046 -36.686  1.00  0.00     0.422 P 
HETATM   31  O   UNL     1      28.193 -10.550 -37.145  1.00  0.00    -0.617 OA
HETATM   32  O   UNL     1      26.787 -10.023 -35.151  1.00  0.00    -0.617 OA
HETATM   33  O   UNL     1      25.718 -10.836 -37.318  1.00  0.00    -0.617 OA
ENDBRANCH  29  30
ENDBRANCH  28  29
ENDBRANCH  25  28
BRANCH  26  34
HETATM   34  O   UNL     1      23.413  -5.264 -37.035  1.00  0.00    -0.390 OA
ATOM     35  HO  UNL     1      23.352  -5.746 -37.851  1.00  0.00     0.210 HD
ENDBRANCH  26  34
BRANCH  27  36
HETATM   36  O   UNL     1      23.342  -4.860 -34.339  1.00  0.00    -0.388 OA
ATOM     37  HO  UNL     1      22.675  -5.110 -33.712  1.00  0.00     0.210 HD
ENDBRANCH  27  36
ENDBRANCH   6  23
TORSDOF 10
ENDMDL
MODEL 15
REMARK VINA RESULT:    -9.397      3.691      9.345
REMARK INTER + INTRA:         -15.786
REMARK INTER:                 -14.957
REMARK INTRA:                  -0.829
REMARK UNBOUND:                -1.446
REMARK  10 active torsions:
REMARK  status: ('A' for Active; 'I' for Inactive)
REMARK    1  A    between atoms: C_3  and  C_13 
REMARK    2  A    between atoms: C_3  and  N_20 
REMARK       I    between atoms: C_4  and  N_22 
REMARK       I    between atoms: C_4  and  N_20 
REMARK    3  A    between atoms: C_6  and  N_24 
REMARK    4  A    between atoms: C_7  and  O_25 
REMARK    5  A    between atoms: C_8  and  O_27 
REMARK    6  A    between atoms: C_9  and  N_19 
REMARK    7  A    between atoms: C_10  and  C_11 
REMARK    8  A    between atoms: C_11  and  O_30 
REMARK    9  A    between atoms: C_15  and  N_22 
REMARK   10  A    between atoms: O_30  and  P_37 
ROOT
HETATM    1  C   UNL     1      25.694  -8.105 -33.407  1.00  0.00     0.093 A 
HETATM    2  C   UNL     1      24.813  -9.024 -31.426  1.00  0.00     0.011 A 
HETATM    3  C   UNL     1      25.787  -8.967 -32.355  1.00  0.00     0.018 A 
HETATM    4  C   UNL     1      23.737  -8.176 -31.610  1.00  0.00    -0.025 A 
HETATM    5  C   UNL     1      23.680  -7.319 -32.681  1.00  0.00     0.102 A 
HETATM    6  N   UNL     1      24.642  -7.298 -33.533  1.00  0.00    -0.337 N 
ENDROOT
BRANCH   4   7
HETATM    7  C   UNL     1      22.638  -8.223 -30.503  1.00  0.00     0.164 C 
BRANCH   7   8
HETATM    8  N   UNL     1      22.275  -6.953 -29.970  1.00  0.00    -0.339 N 
HETATM    9  C   UNL     1      21.084  -6.327 -30.518  1.00  0.00     0.320 C 
HETATM   10  O   UNL     1      20.421  -6.858 -31.326  1.00  0.00    -0.247 OA
HETATM   11  N   UNL     1      20.803  -4.986 -29.915  1.00  0.00    -0.309 N 
ATOM     12  HN  UNL     1      21.405  -4.638 -29.169  1.00  0.00     0.170 HD
ATOM     13  HN  UNL     1      22.827  -6.504 -29.238  1.00  0.00     0.164 HD
BRANCH  11  14
HETATM   14  C   UNL     1      19.692  -4.172 -30.370  1.00  0.00     0.036 A 
HETATM   15  C   UNL     1      19.937  -2.808 -30.481  1.00  0.00     0.032 A 
HETATM   16  C   UNL     1      18.926  -1.958 -30.871  1.00  0.00     0.038 A 
HETATM   17  C   UNL     1      17.675  -2.457 -31.100  1.00  0.00     0.103 A 
HETATM   18  C   UNL     1      17.419  -3.810 -30.948  1.00  0.00     0.038 A 
HETATM   19  C   UNL     1      18.438  -4.674 -30.559  1.00  0.00     0.032 A 
BRANCH  17  20
HETATM   20  N   UNL     1      16.637  -1.563 -31.490  1.00  0.00    -0.116 N 
HETATM   21  O   UNL     1      16.332  -1.481 -32.613  1.00  0.00    -0.532 OA
HETATM   22  O   UNL     1      16.026  -0.769 -30.540  1.00  0.00    -0.532 OA
ENDBRANCH  17  20
ENDBRANCH  11  14
ENDBRANCH   7   8
ENDBRANCH   4   7
BRANCH   6  23
HETATM   23  C   UNL     1      24.599  -6.416 -34.702  1.00  0.00     0.259 C 
HETATM   24  O   UNL     1      24.598  -7.344 -35.992  1.00  0.00    -0.353 OA
HETATM   25  C   UNL     1      25.445  -6.811 -36.854  1.00  0.00     0.180 C 
HETATM   26  C   UNL     1      25.883  -5.385 -36.317  1.00  0.00     0.182 C 
HETATM   27  C   UNL     1      25.715  -5.623 -34.827  1.00  0.00     0.198 C 
BRANCH  25  28
HETATM   28  C   UNL     1      26.740  -7.659 -36.925  1.00  0.00     0.217 C 
BRANCH  28  29
HETATM   29  O   UNL     1      26.518  -8.645 -37.888  1.00  0.00    -0.280 OA
BRANCH  29  30
HETATM   30  P   UNL     1      26.551 -10.185 -37.318  1.00  0.00     0.422 P 
HETATM   31  O   UNL     1      27.955 -10.487 -36.829  1.00  0.00    -0.617 OA
HETATM   32  O   UNL     1      25.562 -10.291 -36.149  1.00  0.00    -0.617 OA
HETATM   33  O   UNL     1      26.188 -11.051 -38.500  1.00  0.00    -0.617 OA
ENDBRANCH  29  30
ENDBRANCH  28  29
ENDBRANCH  25  28
BRANCH  26  34
HETATM   34  O   UNL     1      25.007  -4.378 -36.817  1.00  0.00    -0.390 OA
ATOM     35  HO  UNL     1      25.249  -4.144 -37.706  1.00  0.00     0.210 HD
ENDBRANCH  26  34
BRANCH  27  36
HETATM   36  O   UNL     1      25.591  -4.435 -34.154  1.00  0.00    -0.388 OA
ATOM     37  HO  UNL     1      26.440  -4.116 -33.872  1.00  0.00     0.210 HD
ENDBRANCH  27  36
ENDBRANCH   6  23
TORSDOF 10
ENDMDL
MODEL 16
REMARK VINA RESULT:    -9.338      4.033      9.726
REMARK INTER + INTRA:         -15.697
REMARK INTER:                 -14.704
REMARK INTRA:                  -0.993
REMARK UNBOUND:                -1.446
REMARK  10 active torsions:
REMARK  status: ('A' for Active; 'I' for Inactive)
REMARK    1  A    between atoms: C_3  and  C_13 
REMARK    2  A    between atoms: C_3  and  N_20 
REMARK       I    between atoms: C_4  and  N_22 
REMARK       I    between atoms: C_4  and  N_20 
REMARK    3  A    between atoms: C_6  and  N_24 
REMARK    4  A    between atoms: C_7  and  O_25 
REMARK    5  A    between atoms: C_8  and  O_27 
REMARK    6  A    between atoms: C_9  and  N_19 
REMARK    7  A    between atoms: C_10  and  C_11 
REMARK    8  A    between atoms: C_11  and  O_30 
REMARK    9  A    between atoms: C_15  and  N_22 
REMARK   10  A    between atoms: O_30  and  P_37 
ROOT
HETATM    1  C   UNL     1      25.671  -8.034 -33.969  1.00  0.00     0.093 A 
HETATM    2  C   UNL     1      24.126  -6.951 -32.560  1.00  0.00     0.011 A 
HETATM    3  C   UNL     1      25.359  -7.448 -32.778  1.00  0.00     0.018 A 
HETATM    4  C   UNL     1      23.219  -7.078 -33.596  1.00  0.00    -0.025 A 
HETATM    5  C   UNL     1      23.573  -7.672 -34.782  1.00  0.00     0.102 A 
HETATM    6  N   UNL     1      24.766  -8.121 -34.941  1.00  0.00    -0.337 N 
ENDROOT
BRANCH   4   7
HETATM    7  C   UNL     1      21.809  -6.459 -33.345  1.00  0.00     0.164 C 
BRANCH   7   8
HETATM    8  N   UNL     1      21.813  -5.062 -33.071  1.00  0.00    -0.339 N 
HETATM    9  C   UNL     1      21.020  -4.613 -31.938  1.00  0.00     0.320 C 
HETATM   10  O   UNL     1      20.442  -5.365 -31.249  1.00  0.00    -0.247 OA
HETATM   11  N   UNL     1      21.066  -3.129 -31.749  1.00  0.00    -0.309 N 
ATOM     12  HN  UNL     1      21.653  -2.565 -32.364  1.00  0.00     0.170 HD
ATOM     13  HN  UNL     1      22.347  -4.407 -33.643  1.00  0.00     0.164 HD
BRANCH  11  14
HETATM   14  C   UNL     1      20.293  -2.476 -30.709  1.00  0.00     0.036 A 
HETATM   15  C   UNL     1      20.945  -2.272 -29.498  1.00  0.00     0.032 A 
HETATM   16  C   UNL     1      20.272  -1.691 -28.446  1.00  0.00     0.038 A 
HETATM   17  C   UNL     1      18.953  -1.363 -28.587  1.00  0.00     0.103 A 
HETATM   18  C   UNL     1      18.292  -1.605 -29.779  1.00  0.00     0.038 A 
HETATM   19  C   UNL     1      18.967  -2.188 -30.847  1.00  0.00     0.032 A 
BRANCH  17  20
HETATM   20  N   UNL     1      18.268  -0.776 -27.484  1.00  0.00    -0.116 N 
HETATM   21  O   UNL     1      17.103  -0.720 -27.489  1.00  0.00    -0.532 OA
HETATM   22  O   UNL     1      18.990  -0.241 -26.436  1.00  0.00    -0.532 OA
ENDBRANCH  17  20
ENDBRANCH  11  14
ENDBRANCH   7   8
ENDBRANCH   4   7
BRANCH   6  23
HETATM   23  C   UNL     1      25.166  -8.785 -36.184  1.00  0.00     0.259 C 
HETATM   24  O   UNL     1      26.754  -8.769 -36.238  1.00  0.00    -0.353 OA
HETATM   25  C   UNL     1      27.098  -8.431 -37.467  1.00  0.00     0.180 C 
HETATM   26  C   UNL     1      25.798  -8.433 -38.375  1.00  0.00     0.182 C 
HETATM   27  C   UNL     1      24.759  -8.116 -37.315  1.00  0.00     0.198 C 
BRANCH  25  28
HETATM   28  C   UNL     1      27.634  -6.977 -37.491  1.00  0.00     0.217 C 
BRANCH  28  29
HETATM   29  O   UNL     1      27.508  -6.485 -36.190  1.00  0.00    -0.280 OA
BRANCH  29  30
HETATM   30  P   UNL     1      27.081  -4.901 -36.091  1.00  0.00     0.422 P 
HETATM   31  O   UNL     1      27.589  -4.188 -37.330  1.00  0.00    -0.617 OA
HETATM   32  O   UNL     1      25.549  -4.815 -36.037  1.00  0.00    -0.617 OA
HETATM   33  O   UNL     1      27.762  -4.387 -34.847  1.00  0.00    -0.617 OA
ENDBRANCH  29  30
ENDBRANCH  28  29
ENDBRANCH  25  28
BRANCH  26  34
HETATM   34  O   UNL     1      25.610  -9.717 -38.964  1.00  0.00    -0.390 OA
ATOM     35  HO  UNL     1      25.990  -9.739 -39.834  1.00  0.00     0.210 HD
ENDBRANCH  26  34
BRANCH  27  36
HETATM   36  O   UNL     1      23.508  -8.497 -37.727  1.00  0.00    -0.388 OA
ATOM     37  HO  UNL     1      22.854  -8.268 -37.078  1.00  0.00     0.210 HD
ENDBRANCH  27  36
ENDBRANCH   6  23
TORSDOF 10
ENDMDL
MODEL 17
REMARK VINA RESULT:    -9.297      4.651      9.982
REMARK INTER + INTRA:         -15.635
REMARK INTER:                 -14.390
REMARK INTRA:                  -1.245
REMARK UNBOUND:                -1.446
REMARK  10 active torsions:
REMARK  status: ('A' for Active; 'I' for Inactive)
REMARK    1  A    between atoms: C_3  and  C_13 
REMARK    2  A    between atoms: C_3  and  N_20 
REMARK       I    between atoms: C_4  and  N_22 
REMARK       I    between atoms: C_4  and  N_20 
REMARK    3  A    between atoms: C_6  and  N_24 
REMARK    4  A    between atoms: C_7  and  O_25 
REMARK    5  A    between atoms: C_8  and  O_27 
REMARK    6  A    between atoms: C_9  and  N_19 
REMARK    7  A    between atoms: C_10  and  C_11 
REMARK    8  A    between atoms: C_11  and  O_30 
REMARK    9  A    between atoms: C_15  and  N_22 
REMARK   10  A    between atoms: O_30  and  P_37 
ROOT
HETATM    1  C   UNL     1      21.390  -7.406 -35.989  1.00  0.00     0.093 A 
HETATM    2  C   UNL     1      19.753  -7.144 -34.317  1.00  0.00     0.011 A 
HETATM    3  C   UNL     1      20.082  -7.360 -35.605  1.00  0.00     0.018 A 
HETATM    4  C   UNL     1      20.802  -6.972 -33.433  1.00  0.00    -0.025 A 
HETATM    5  C   UNL     1      22.106  -7.029 -33.858  1.00  0.00     0.102 A 
HETATM    6  N   UNL     1      22.366  -7.248 -35.097  1.00  0.00    -0.337 N 
ENDROOT
BRANCH   4   7
HETATM    7  C   UNL     1      20.405  -6.767 -31.938  1.00  0.00     0.164 C 
BRANCH   7   8
HETATM    8  N   UNL     1      21.090  -5.707 -31.280  1.00  0.00    -0.339 N 
HETATM    9  C   UNL     1      20.285  -4.804 -30.475  1.00  0.00     0.320 C 
HETATM   10  O   UNL     1      19.132  -4.963 -30.331  1.00  0.00    -0.247 OA
HETATM   11  N   UNL     1      21.091  -3.710 -29.847  1.00  0.00    -0.309 N 
ATOM     12  HN  UNL     1      22.102  -3.696 -29.981  1.00  0.00     0.170 HD
ATOM     13  HN  UNL     1      22.100  -5.588 -31.369  1.00  0.00     0.164 HD
BRANCH  11  14
HETATM   14  C   UNL     1      20.464  -2.669 -29.055  1.00  0.00     0.036 A 
HETATM   15  C   UNL     1      20.651  -1.365 -29.497  1.00  0.00     0.032 A 
HETATM   16  C   UNL     1      20.120  -0.314 -28.782  1.00  0.00     0.038 A 
HETATM   17  C   UNL     1      19.452  -0.561 -27.616  1.00  0.00     0.103 A 
HETATM   18  C   UNL     1      19.302  -1.857 -27.152  1.00  0.00     0.038 A 
HETATM   19  C   UNL     1      19.833  -2.923 -27.872  1.00  0.00     0.032 A 
BRANCH  17  20
HETATM   20  N   UNL     1      18.921   0.538 -26.881  1.00  0.00    -0.116 N 
HETATM   21  O   UNL     1      18.507   1.470 -27.448  1.00  0.00    -0.532 OA
HETATM   22  O   UNL     1      18.935   0.509 -25.501  1.00  0.00    -0.532 OA
ENDBRANCH  17  20
ENDBRANCH  11  14
ENDBRANCH   7   8
ENDBRANCH   4   7
BRANCH   6  23
HETATM   23  C   UNL     1      23.746  -7.286 -35.586  1.00  0.00     0.259 C 
HETATM   24  O   UNL     1      24.347  -8.702 -35.189  1.00  0.00    -0.353 OA
HETATM   25  C   UNL     1      25.563  -8.490 -34.719  1.00  0.00     0.180 C 
HETATM   26  C   UNL     1      25.952  -6.977 -34.988  1.00  0.00     0.182 C 
HETATM   27  C   UNL     1      24.565  -6.363 -34.979  1.00  0.00     0.198 C 
BRANCH  25  28
HETATM   28  C   UNL     1      25.581  -8.670 -33.181  1.00  0.00     0.217 C 
BRANCH  28  29
HETATM   29  O   UNL     1      24.348  -9.226 -32.831  1.00  0.00    -0.280 OA
BRANCH  29  30
HETATM   30  P   UNL     1      24.116  -9.428 -31.217  1.00  0.00     0.422 P 
HETATM   31  O   UNL     1      23.387 -10.740 -30.996  1.00  0.00    -0.617 OA
HETATM   32  O   UNL     1      25.489  -9.477 -30.532  1.00  0.00    -0.617 OA
HETATM   33  O   UNL     1      23.267  -8.255 -30.792  1.00  0.00    -0.617 OA
ENDBRANCH  29  30
ENDBRANCH  28  29
ENDBRANCH  25  28
BRANCH  26  34
HETATM   34  O   UNL     1      26.603  -6.851 -36.250  1.00  0.00    -0.390 OA
ATOM     35  HO  UNL     1      26.088  -7.271 -36.929  1.00  0.00     0.210 HD
ENDBRANCH  26  34
BRANCH  27  36
HETATM   36  O   UNL     1      24.561  -5.155 -35.627  1.00  0.00    -0.388 OA
ATOM     37  HO  UNL     1      24.015  -4.527 -35.170  1.00  0.00     0.210 HD
ENDBRANCH  27  36
ENDBRANCH   6  23
TORSDOF 10
ENDMDL
MODEL 18
REMARK VINA RESULT:    -9.252      4.440      9.931
REMARK INTER + INTRA:         -15.566
REMARK INTER:                 -14.642
REMARK INTRA:                  -0.924
REMARK UNBOUND:                -1.446
REMARK  10 active torsions:
REMARK  status: ('A' for Active; 'I' for Inactive)
REMARK    1  A    between atoms: C_3  and  C_13 
REMARK    2  A    between atoms: C_3  and  N_20 
REMARK       I    between atoms: C_4  and  N_22 
REMARK       I    between atoms: C_4  and  N_20 
REMARK    3  A    between atoms: C_6  and  N_24 
REMARK    4  A    between atoms: C_7  and  O_25 
REMARK    5  A    between atoms: C_8  and  O_27 
REMARK    6  A    between atoms: C_9  and  N_19 
REMARK    7  A    between atoms: C_10  and  C_11 
REMARK    8  A    between atoms: C_11  and  O_30 
REMARK    9  A    between atoms: C_15  and  N_22 
REMARK   10  A    between atoms: O_30  and  P_37 
ROOT
HETATM    1  C   UNL     1      25.140  -9.278 -32.632  1.00  0.00     0.093 A 
HETATM    2  C   UNL     1      23.211  -8.856 -31.349  1.00  0.00     0.011 A 
HETATM    3  C   UNL     1      24.346  -9.551 -31.558  1.00  0.00     0.018 A 
HETATM    4  C   UNL     1      22.910  -7.876 -32.276  1.00  0.00    -0.025 A 
HETATM    5  C   UNL     1      23.737  -7.628 -33.344  1.00  0.00     0.102 A 
HETATM    6  N   UNL     1      24.813  -8.314 -33.491  1.00  0.00    -0.337 N 
ENDROOT
BRANCH   4   7
HETATM    7  C   UNL     1      21.615  -7.050 -31.996  1.00  0.00     0.164 C 
BRANCH   7   8
HETATM    8  N   UNL     1      21.837  -5.670 -31.728  1.00  0.00    -0.339 N 
HETATM    9  C   UNL     1      20.966  -5.043 -30.747  1.00  0.00     0.320 C 
HETATM   10  O   UNL     1      20.150  -5.652 -30.165  1.00  0.00    -0.247 OA
HETATM   11  N   UNL     1      21.259  -3.589 -30.555  1.00  0.00    -0.309 N 
ATOM     12  HN  UNL     1      22.035  -3.165 -31.062  1.00  0.00     0.170 HD
ATOM     13  HN  UNL     1      22.572  -5.145 -32.201  1.00  0.00     0.164 HD
BRANCH  11  14
HETATM   14  C   UNL     1      20.460  -2.769 -29.663  1.00  0.00     0.036 A 
HETATM   15  C   UNL     1      19.431  -2.044 -30.253  1.00  0.00     0.032 A 
HETATM   16  C   UNL     1      18.648  -1.212 -29.484  1.00  0.00     0.038 A 
HETATM   17  C   UNL     1      18.920  -1.070 -28.153  1.00  0.00     0.103 A 
HETATM   18  C   UNL     1      19.971  -1.759 -27.572  1.00  0.00     0.038 A 
HETATM   19  C   UNL     1      20.763  -2.604 -28.343  1.00  0.00     0.032 A 
BRANCH  17  20
HETATM   20  N   UNL     1      18.109  -0.195 -27.374  1.00  0.00    -0.116 N 
HETATM   21  O   UNL     1      16.949  -0.318 -27.383  1.00  0.00    -0.532 OA
HETATM   22  O   UNL     1      18.700   0.817 -26.644  1.00  0.00    -0.532 OA
ENDBRANCH  17  20
ENDBRANCH  11  14
ENDBRANCH   7   8
ENDBRANCH   4   7
BRANCH   6  23
HETATM   23  C   UNL     1      25.701  -8.093 -34.634  1.00  0.00     0.259 C 
HETATM   24  O   UNL     1      25.025  -6.984 -35.549  1.00  0.00    -0.353 OA
HETATM   25  C   UNL     1      25.137  -7.391 -36.800  1.00  0.00     0.180 C 
HETATM   26  C   UNL     1      26.091  -8.657 -36.837  1.00  0.00     0.182 C 
HETATM   27  C   UNL     1      25.832  -9.198 -35.443  1.00  0.00     0.198 C 
BRANCH  25  28
HETATM   28  C   UNL     1      23.763  -7.874 -37.329  1.00  0.00     0.217 C 
BRANCH  28  29
HETATM   29  O   UNL     1      22.796  -7.084 -36.704  1.00  0.00    -0.280 OA
BRANCH  29  30
HETATM   30  P   UNL     1      21.243  -7.505 -37.037  1.00  0.00     0.422 P 
HETATM   31  O   UNL     1      20.654  -6.468 -37.975  1.00  0.00    -0.617 OA
HETATM   32  O   UNL     1      21.249  -8.879 -37.722  1.00  0.00    -0.617 OA
HETATM   33  O   UNL     1      20.538  -7.496 -35.702  1.00  0.00    -0.617 OA
ENDBRANCH  29  30
ENDBRANCH  28  29
ENDBRANCH  25  28
BRANCH  26  34
HETATM   34  O   UNL     1      27.443  -8.250 -37.029  1.00  0.00    -0.390 OA
ATOM     35  HO  UNL     1      27.662  -8.262 -37.953  1.00  0.00     0.210 HD
ENDBRANCH  26  34
BRANCH  27  36
HETATM   36  O   UNL     1      26.852 -10.022 -35.042  1.00  0.00    -0.388 OA
ATOM     37  HO  UNL     1      27.473 -10.159 -35.748  1.00  0.00     0.210 HD
ENDBRANCH  27  36
ENDBRANCH   6  23
TORSDOF 10
ENDMDL
MODEL 19
REMARK VINA RESULT:    -9.097      4.709     10.131
REMARK INTER + INTRA:         -15.329
REMARK INTER:                 -14.363
REMARK INTRA:                  -0.966
REMARK UNBOUND:                -1.446
REMARK  10 active torsions:
REMARK  status: ('A' for Active; 'I' for Inactive)
REMARK    1  A    between atoms: C_3  and  C_13 
REMARK    2  A    between atoms: C_3  and  N_20 
REMARK       I    between atoms: C_4  and  N_22 
REMARK       I    between atoms: C_4  and  N_20 
REMARK    3  A    between atoms: C_6  and  N_24 
REMARK    4  A    between atoms: C_7  and  O_25 
REMARK    5  A    between atoms: C_8  and  O_27 
REMARK    6  A    between atoms: C_9  and  N_19 
REMARK    7  A    between atoms: C_10  and  C_11 
REMARK    8  A    between atoms: C_11  and  O_30 
REMARK    9  A    between atoms: C_15  and  N_22 
REMARK   10  A    between atoms: O_30  and  P_37 
ROOT
HETATM    1  C   UNL     1      23.751  -6.895 -32.262  1.00  0.00     0.093 A 
HETATM    2  C   UNL     1      21.984  -7.382 -30.782  1.00  0.00     0.011 A 
HETATM    3  C   UNL     1      23.296  -7.419 -31.088  1.00  0.00     0.018 A 
HETATM    4  C   UNL     1      21.151  -6.797 -31.717  1.00  0.00    -0.025 A 
HETATM    5  C   UNL     1      21.647  -6.277 -32.887  1.00  0.00     0.102 A 
HETATM    6  N   UNL     1      22.909  -6.330 -33.125  1.00  0.00    -0.337 N 
ENDROOT
BRANCH   4   7
HETATM    7  C   UNL     1      19.641  -6.722 -31.329  1.00  0.00     0.164 C 
BRANCH   7   8
HETATM    8  N   UNL     1      19.047  -5.439 -31.494  1.00  0.00    -0.339 N 
HETATM    9  C   UNL     1      19.204  -4.497 -30.398  1.00  0.00     0.320 C 
HETATM   10  O   UNL     1      19.830  -4.759 -29.442  1.00  0.00    -0.247 OA
HETATM   11  N   UNL     1      18.523  -3.189 -30.654  1.00  0.00    -0.309 N 
ATOM     12  HN  UNL     1      18.057  -3.036 -31.548  1.00  0.00     0.170 HD
ATOM     13  HN  UNL     1      18.536  -5.192 -32.341  1.00  0.00     0.164 HD
BRANCH  11  14
HETATM   14  C   UNL     1      18.511  -2.136 -29.656  1.00  0.00     0.036 A 
HETATM   15  C   UNL     1      19.709  -1.459 -29.465  1.00  0.00     0.032 A 
HETATM   16  C   UNL     1      19.795  -0.469 -28.511  1.00  0.00     0.038 A 
HETATM   17  C   UNL     1      18.711  -0.193 -27.726  1.00  0.00     0.103 A 
HETATM   18  C   UNL     1      17.529  -0.897 -27.886  1.00  0.00     0.038 A 
HETATM   19  C   UNL     1      17.436  -1.895 -28.851  1.00  0.00     0.032 A 
BRANCH  17  20
HETATM   20  N   UNL     1      18.820   0.824 -26.735  1.00  0.00    -0.116 N 
HETATM   21  O   UNL     1      18.957   0.530 -25.614  1.00  0.00    -0.532 OA
HETATM   22  O   UNL     1      18.723   2.151 -27.103  1.00  0.00    -0.532 OA
ENDBRANCH  17  20
ENDBRANCH  11  14
ENDBRANCH   7   8
ENDBRANCH   4   7
BRANCH   6  23
HETATM   23  C   UNL     1      23.466  -5.810 -34.376  1.00  0.00     0.259 C 
HETATM   24  O   UNL     1      23.498  -7.013 -35.413  1.00  0.00    -0.353 OA
HETATM   25  C   UNL     1      24.667  -6.967 -36.025  1.00  0.00     0.180 C 
HETATM   26  C   UNL     1      25.394  -5.615 -35.627  1.00  0.00     0.182 C 
HETATM   27  C   UNL     1      24.773  -5.398 -34.260  1.00  0.00     0.198 C 
BRANCH  25  28
HETATM   28  C   UNL     1      25.581  -8.111 -35.517  1.00  0.00     0.217 C 
BRANCH  28  29
HETATM   29  O   UNL     1      25.174  -9.270 -36.181  1.00  0.00    -0.280 OA
BRANCH  29  30
HETATM   30  P   UNL     1      26.327  -9.963 -37.125  1.00  0.00     0.422 P 
HETATM   31  O   UNL     1      27.452 -10.449 -36.231  1.00  0.00    -0.617 OA
HETATM   32  O   UNL     1      25.698 -11.156 -37.860  1.00  0.00    -0.617 OA
HETATM   33  O   UNL     1      26.797  -8.863 -38.045  1.00  0.00    -0.617 OA
ENDBRANCH  29  30
ENDBRANCH  28  29
ENDBRANCH  25  28
BRANCH  26  34
HETATM   34  O   UNL     1      25.062  -4.585 -36.554  1.00  0.00    -0.390 OA
ATOM     35  HO  UNL     1      24.500  -4.928 -37.239  1.00  0.00     0.210 HD
ENDBRANCH  26  34
BRANCH  27  36
HETATM   36  O   UNL     1      24.876  -4.084 -33.880  1.00  0.00    -0.388 OA
ATOM     37  HO  UNL     1      25.581  -3.967 -33.256  1.00  0.00     0.210 HD
ENDBRANCH  27  36
ENDBRANCH   6  23
TORSDOF 10
ENDMDL
MODEL 20
REMARK VINA RESULT:    -9.079      5.326     10.794
REMARK INTER + INTRA:         -15.302
REMARK INTER:                 -14.488
REMARK INTRA:                  -0.814
REMARK UNBOUND:                -1.446
REMARK  10 active torsions:
REMARK  status: ('A' for Active; 'I' for Inactive)
REMARK    1  A    between atoms: C_3  and  C_13 
REMARK    2  A    between atoms: C_3  and  N_20 
REMARK       I    between atoms: C_4  and  N_22 
REMARK       I    between atoms: C_4  and  N_20 
REMARK    3  A    between atoms: C_6  and  N_24 
REMARK    4  A    between atoms: C_7  and  O_25 
REMARK    5  A    between atoms: C_8  and  O_27 
REMARK    6  A    between atoms: C_9  and  N_19 
REMARK    7  A    between atoms: C_10  and  C_11 
REMARK    8  A    between atoms: C_11  and  O_30 
REMARK    9  A    between atoms: C_15  and  N_22 
REMARK   10  A    between atoms: O_30  and  P_37 
ROOT
HETATM    1  C   UNL     1      24.235  -5.329 -33.339  1.00  0.00     0.093 A 
HETATM    2  C   UNL     1      22.678  -3.972 -32.207  1.00  0.00     0.011 A 
HETATM    3  C   UNL     1      23.586  -4.140 -33.189  1.00  0.00     0.018 A 
HETATM    4  C   UNL     1      22.459  -5.057 -31.380  1.00  0.00    -0.025 A 
HETATM    5  C   UNL     1      23.130  -6.241 -31.565  1.00  0.00     0.102 A 
HETATM    6  N   UNL     1      23.979  -6.350 -32.524  1.00  0.00    -0.337 N 
ENDROOT
BRANCH   4   7
HETATM    7  C   UNL     1      21.373  -4.862 -30.276  1.00  0.00     0.164 C 
BRANCH   7   8
HETATM    8  N   UNL     1      20.113  -4.405 -30.755  1.00  0.00    -0.339 N 
HETATM    9  C   UNL     1      19.294  -3.645 -29.826  1.00  0.00     0.320 C 
HETATM   10  O   UNL     1      19.667  -3.376 -28.747  1.00  0.00    -0.247 OA
HETATM   11  N   UNL     1      17.980  -3.234 -30.412  1.00  0.00    -0.309 N 
ATOM     12  HN  UNL     1      17.774  -3.461 -31.385  1.00  0.00     0.170 HD
ATOM     13  HN  UNL     1      19.800  -4.601 -31.706  1.00  0.00     0.164 HD
BRANCH  11  14
HETATM   14  C   UNL     1      16.992  -2.519 -29.626  1.00  0.00     0.036 A 
HETATM   15  C   UNL     1      17.068  -1.131 -29.660  1.00  0.00     0.032 A 
HETATM   16  C   UNL     1      16.192  -0.376 -28.913  1.00  0.00     0.038 A 
HETATM   17  C   UNL     1      15.283  -1.000 -28.106  1.00  0.00     0.103 A 
HETATM   18  C   UNL     1      15.234  -2.382 -28.038  1.00  0.00     0.038 A 
HETATM   19  C   UNL     1      16.114  -3.150 -28.794  1.00  0.00     0.032 A 
BRANCH  17  20
HETATM   20  N   UNL     1      14.392  -0.204 -27.329  1.00  0.00    -0.116 N 
HETATM   21  O   UNL     1      14.081  -0.556 -26.262  1.00  0.00    -0.532 OA
HETATM   22  O   UNL     1      13.871   0.958 -27.862  1.00  0.00    -0.532 OA
ENDBRANCH  17  20
ENDBRANCH  11  14
ENDBRANCH   7   8
ENDBRANCH   4   7
BRANCH   6  23
HETATM   23  C   UNL     1      24.732  -7.590 -32.730  1.00  0.00     0.259 C 
HETATM   24  O   UNL     1      25.805  -7.305 -33.867  1.00  0.00    -0.353 OA
HETATM   25  C   UNL     1      25.788  -8.342 -34.685  1.00  0.00     0.180 C 
HETATM   26  C   UNL     1      24.897  -9.483 -34.037  1.00  0.00     0.182 C 
HETATM   27  C   UNL     1      23.960  -8.622 -33.211  1.00  0.00     0.198 C 
BRANCH  25  28
HETATM   28  C   UNL     1      25.093  -7.960 -36.016  1.00  0.00     0.217 C 
BRANCH  28  29
HETATM   29  O   UNL     1      24.990  -9.136 -36.762  1.00  0.00    -0.280 OA
BRANCH  29  30
HETATM   30  P   UNL     1      26.298  -9.476 -37.697  1.00  0.00     0.422 P 
HETATM   31  O   UNL     1      25.817 -10.143 -38.973  1.00  0.00    -0.617 OA
HETATM   32  O   UNL     1      27.006  -8.158 -38.038  1.00  0.00    -0.617 OA
HETATM   33  O   UNL     1      27.137 -10.420 -36.871  1.00  0.00    -0.617 OA
ENDBRANCH  29  30
ENDBRANCH  28  29
ENDBRANCH  25  28
BRANCH  26  34
HETATM   34  O   UNL     1      25.704 -10.344 -33.238  1.00  0.00    -0.390 OA
ATOM     35  HO  UNL     1      26.575 -10.420 -33.611  1.00  0.00     0.210 HD
ENDBRANCH  26  34
BRANCH  27  36
HETATM   36  O   UNL     1      23.382  -9.355 -32.207  1.00  0.00    -0.388 OA
ATOM     37  HO  UNL     1      22.551  -8.976 -31.947  1.00  0.00     0.210 HD
ENDBRANCH  27  36
ENDBRANCH   6  23
TORSDOF 10
ENDMDL
