MODEL 1
REMARK VINA RESULT:   -11.527      0.000      0.000
REMARK INTER + INTRA:         -23.017
REMARK INTER:                 -20.287
REMARK INTRA:                  -2.729
REMARK UNBOUND:                -2.729
REMARK  15 active torsions:
REMARK  status: ('A' for Active; 'I' for Inactive)
REMARK    1  A    between atoms: P_1  and  O_28 
REMARK    2  A    between atoms: P_1  and  O_4 
REMARK    3  A    between atoms: O_4  and  C_5 
REMARK    4  A    between atoms: C_5  and  C_6 
REMARK    5  A    between atoms: C_8  and  O_9 
REMARK    6  A    between atoms: C_11  and  O_12 
REMARK    7  A    between atoms: C_14  and  N_15 
REMARK    8  A    between atoms: O_28  and  P_29 
REMARK    9  A    between atoms: P_29  and  O_32 
REMARK   10  A    between atoms: O_32  and  C_33 
REMARK   11  A    between atoms: C_33  and  C_34 
REMARK   12  A    between atoms: C_36  and  O_37 
REMARK   13  A    between atoms: C_39  and  O_40 
REMARK   14  A    between atoms: C_42  and  N_43 
REMARK   15  A    between atoms: C_45  and  C_46 
ROOT
HETATM    1  P   UNL     1      30.948  -4.631 -38.987  1.00  0.00     0.417 P 
HETATM    2  O   UNL     1      32.004  -5.259 -38.110  1.00  0.00    -0.624 OA
HETATM    3  O   UNL     1      30.997  -4.876 -40.467  1.00  0.00    -0.624 OA
ENDROOT
BRANCH   1   4
HETATM    4  O   UNL     1      29.571  -5.148 -38.354  1.00  0.00    -0.180 OA
BRANCH   4   5
HETATM    5  P   UNL     1      28.030  -4.911 -38.807  1.00  0.00     0.417 P 
HETATM    6  O   UNL     1      27.773  -5.513 -40.146  1.00  0.00    -0.624 OA
HETATM    7  O   UNL     1      27.600  -3.515 -38.542  1.00  0.00    -0.624 OA
BRANCH   5   8
HETATM    8  O   UNL     1      27.343  -5.930 -37.751  1.00  0.00    -0.287 OA
BRANCH   8   9
HETATM    9  C   UNL     1      28.113  -6.292 -36.585  1.00  0.00     0.216 C 
BRANCH   9  10
HETATM   10  C   UNL     1      27.697  -7.715 -36.162  1.00  0.00     0.180 C 
HETATM   11  O   UNL     1      26.342  -7.907 -36.301  1.00  0.00    -0.354 OA
HETATM   12  C   UNL     1      26.173  -9.242 -37.094  1.00  0.00     0.251 C 
HETATM   13  C   UNL     1      27.314  -9.251 -37.886  1.00  0.00     0.198 C 
HETATM   14  C   UNL     1      28.460  -8.827 -36.938  1.00  0.00     0.182 C 
BRANCH  12  15
HETATM   15  N   UNL     1      24.890  -9.084 -37.737  1.00  0.00    -0.382 N 
HETATM   16  C   UNL     1      24.724  -8.123 -38.767  1.00  0.00     0.120 C 
HETATM   17  C   UNL     1      23.378  -7.877 -39.277  1.00  0.00     0.024 C 
HETATM   18  C   UNL     1      22.263  -8.828 -38.986  1.00  0.00     0.043 C 
HETATM   19  C   UNL     1      22.465  -9.563 -37.673  1.00  0.00     0.002 C 
HETATM   20  C   UNL     1      23.807  -9.781 -37.153  1.00  0.00     0.159 C 
BRANCH  19  21
HETATM   21  C   UNL     1      21.291 -10.212 -37.032  1.00  0.00     0.258 C 
HETATM   22  O   UNL     1      21.404 -10.671 -35.920  1.00  0.00    -0.272 OA
HETATM   23  N   UNL     1      20.113 -10.301 -37.816  1.00  0.00    -0.058 NA
ENDBRANCH  19  21
ENDBRANCH  12  15
BRANCH  13  24
HETATM   24  O   UNL     1      27.557 -10.558 -38.445  1.00  0.00    -0.389 OA
ATOM     25  HO  UNL     1      28.443 -10.851 -38.267  1.00  0.00     0.210 HD
ENDBRANCH  13  24
BRANCH  14  26
HETATM   26  O   UNL     1      28.775  -9.952 -36.124  1.00  0.00    -0.390 OA
ATOM     27  HO  UNL     1      28.094 -10.155 -35.494  1.00  0.00     0.210 HD
ENDBRANCH  14  26
ENDBRANCH   9  10
ENDBRANCH   8   9
ENDBRANCH   5   8
ENDBRANCH   4   5
ENDBRANCH   1   4
BRANCH   1  28
HETATM   28  O   UNL     1      30.952  -3.043 -38.774  1.00  0.00    -0.287 OA
BRANCH  28  29
HETATM   29  C   UNL     1      31.120  -2.201 -39.895  1.00  0.00     0.216 C 
BRANCH  29  30
HETATM   30  C   UNL     1      32.505  -1.481 -39.746  1.00  0.00     0.180 C 
HETATM   31  O   UNL     1      32.793  -1.423 -38.412  1.00  0.00    -0.353 OA
HETATM   32  C   UNL     1      34.306  -1.598 -38.316  1.00  0.00     0.262 C 
HETATM   33  C   UNL     1      34.605  -2.576 -39.274  1.00  0.00     0.198 C 
HETATM   34  C   UNL     1      33.671  -2.223 -40.471  1.00  0.00     0.182 C 
BRANCH  32  35
HETATM   35  N   UNL     1      34.581  -1.977 -36.920  1.00  0.00    -0.297 N 
HETATM   36  C   UNL     1      35.782  -1.835 -36.306  1.00  0.00     0.188 A 
HETATM   37  N   UNL     1      35.652  -2.237 -35.009  1.00  0.00    -0.346 N 
HETATM   38  C   UNL     1      34.378  -2.646 -34.873  1.00  0.00     0.119 A 
ATOM     39  HN  UNL     1      36.374  -2.230 -34.288  1.00  0.00     0.167 HD
HETATM   40  C   UNL     1      33.714  -2.503 -36.041  1.00  0.00     0.142 A 
HETATM   41  C   UNL     1      33.681  -3.186 -33.817  1.00  0.00     0.148 A 
HETATM   42  N   UNL     1      32.448  -2.834 -36.241  1.00  0.00    -0.336 N 
HETATM   43  C   UNL     1      31.792  -3.379 -35.166  1.00  0.00     0.183 A 
ATOM     44  HN  UNL     1      31.988  -2.692 -37.140  1.00  0.00     0.168 HD
HETATM   45  N   UNL     1      32.442  -3.522 -33.980  1.00  0.00    -0.339 N 
ATOM     46  HN  UNL     1      31.932  -3.910 -33.186  1.00  0.00     0.167 HD
HETATM   47  N   UNL     1      34.147  -3.454 -32.486  1.00  0.00    -0.080 NA
ENDBRANCH  32  35
BRANCH  33  48
HETATM   48  O   UNL     1      36.019  -2.595 -39.658  1.00  0.00    -0.388 OA
ATOM     49  HO  UNL     1      36.140  -2.516 -40.597  1.00  0.00     0.210 HD
ENDBRANCH  33  48
BRANCH  34  50
HETATM   50  O   UNL     1      34.268  -1.430 -41.433  1.00  0.00    -0.390 OA
ATOM     51  HO  UNL     1      34.969  -1.886 -41.882  1.00  0.00     0.210 HD
ENDBRANCH  34  50
ENDBRANCH  29  30
ENDBRANCH  28  29
ENDBRANCH   1  28
TORSDOF 15
ENDMDL
MODEL 2
REMARK VINA RESULT:   -11.295      1.995      3.097
REMARK INTER + INTRA:         -22.609
REMARK INTER:                 -20.774
REMARK INTRA:                  -1.835
REMARK UNBOUND:                -2.729
REMARK  15 active torsions:
REMARK  status: ('A' for Active; 'I' for Inactive)
REMARK    1  A    between atoms: P_1  and  O_28 
REMARK    2  A    between atoms: P_1  and  O_4 
REMARK    3  A    between atoms: O_4  and  C_5 
REMARK    4  A    between atoms: C_5  and  C_6 
REMARK    5  A    between atoms: C_8  and  O_9 
REMARK    6  A    between atoms: C_11  and  O_12 
REMARK    7  A    between atoms: C_14  and  N_15 
REMARK    8  A    between atoms: O_28  and  P_29 
REMARK    9  A    between atoms: P_29  and  O_32 
REMARK   10  A    between atoms: O_32  and  C_33 
REMARK   11  A    between atoms: C_33  and  C_34 
REMARK   12  A    between atoms: C_36  and  O_37 
REMARK   13  A    between atoms: C_39  and  O_40 
REMARK   14  A    between atoms: C_42  and  N_43 
REMARK   15  A    between atoms: C_45  and  C_46 
ROOT
HETATM    1  P   UNL     1      30.826  -4.350 -38.416  1.00  0.00     0.417 P 
HETATM    2  O   UNL     1      31.960  -5.337 -38.277  1.00  0.00    -0.624 OA
HETATM    3  O   UNL     1      30.807  -3.433 -39.604  1.00  0.00    -0.624 OA
ENDROOT
BRANCH   1   4
HETATM    4  O   UNL     1      29.515  -5.268 -38.364  1.00  0.00    -0.180 OA
BRANCH   4   5
HETATM    5  P   UNL     1      27.977  -4.960 -38.784  1.00  0.00     0.417 P 
HETATM    6  O   UNL     1      27.660  -5.560 -40.111  1.00  0.00    -0.624 OA
HETATM    7  O   UNL     1      27.622  -3.543 -38.522  1.00  0.00    -0.624 OA
BRANCH   5   8
HETATM    8  O   UNL     1      27.267  -5.935 -37.703  1.00  0.00    -0.287 OA
BRANCH   8   9
HETATM    9  C   UNL     1      28.033  -6.297 -36.534  1.00  0.00     0.216 C 
BRANCH   9  10
HETATM   10  C   UNL     1      27.631  -7.728 -36.125  1.00  0.00     0.180 C 
HETATM   11  O   UNL     1      26.279  -7.935 -36.276  1.00  0.00    -0.354 OA
HETATM   12  C   UNL     1      26.132  -9.266 -37.079  1.00  0.00     0.251 C 
HETATM   13  C   UNL     1      27.279  -9.255 -37.863  1.00  0.00     0.198 C 
HETATM   14  C   UNL     1      28.413  -8.825 -36.904  1.00  0.00     0.182 C 
BRANCH  12  15
HETATM   15  N   UNL     1      24.852  -9.119 -37.731  1.00  0.00    -0.382 N 
HETATM   16  C   UNL     1      24.693  -8.181 -38.783  1.00  0.00     0.120 C 
HETATM   17  C   UNL     1      23.350  -7.942 -39.304  1.00  0.00     0.024 C 
HETATM   18  C   UNL     1      22.231  -8.883 -38.995  1.00  0.00     0.043 C 
HETATM   19  C   UNL     1      22.426  -9.588 -37.666  1.00  0.00     0.002 C 
HETATM   20  C   UNL     1      23.764  -9.799 -37.136  1.00  0.00     0.159 C 
BRANCH  19  21
HETATM   21  C   UNL     1      21.246 -10.219 -37.015  1.00  0.00     0.258 C 
HETATM   22  O   UNL     1      21.340 -10.609 -35.875  1.00  0.00    -0.272 OA
HETATM   23  N   UNL     1      20.090 -10.374 -37.819  1.00  0.00    -0.058 NA
ENDBRANCH  19  21
ENDBRANCH  12  15
BRANCH  13  24
HETATM   24  O   UNL     1      27.542 -10.555 -38.429  1.00  0.00    -0.389 OA
ATOM     25  HO  UNL     1      27.681 -11.207 -37.752  1.00  0.00     0.210 HD
ENDBRANCH  13  24
BRANCH  14  26
HETATM   26  O   UNL     1      28.736  -9.952 -36.095  1.00  0.00    -0.390 OA
ATOM     27  HO  UNL     1      28.051 -10.611 -36.090  1.00  0.00     0.210 HD
ENDBRANCH  14  26
ENDBRANCH   9  10
ENDBRANCH   8   9
ENDBRANCH   5   8
ENDBRANCH   4   5
ENDBRANCH   1   4
BRANCH   1  28
HETATM   28  O   UNL     1      30.759  -3.426 -37.108  1.00  0.00    -0.287 OA
BRANCH  28  29
HETATM   29  C   UNL     1      31.239  -3.936 -35.884  1.00  0.00     0.216 C 
BRANCH  29  30
HETATM   30  C   UNL     1      32.097  -2.814 -35.203  1.00  0.00     0.180 C 
HETATM   31  O   UNL     1      32.560  -3.317 -34.020  1.00  0.00    -0.353 OA
HETATM   32  C   UNL     1      33.955  -2.720 -33.845  1.00  0.00     0.262 C 
HETATM   33  C   UNL     1      34.510  -2.750 -35.132  1.00  0.00     0.198 C 
HETATM   34  C   UNL     1      33.320  -2.362 -36.060  1.00  0.00     0.182 C 
BRANCH  32  35
HETATM   35  N   UNL     1      34.632  -3.564 -32.847  1.00  0.00    -0.297 N 
HETATM   36  C   UNL     1      35.305  -4.706 -33.134  1.00  0.00     0.188 A 
HETATM   37  N   UNL     1      35.845  -5.190 -31.978  1.00  0.00    -0.346 N 
HETATM   38  C   UNL     1      35.461  -4.343 -31.007  1.00  0.00     0.119 A 
ATOM     39  HN  UNL     1      36.423  -6.023 -31.872  1.00  0.00     0.167 HD
HETATM   40  C   UNL     1      34.707  -3.348 -31.525  1.00  0.00     0.142 A 
HETATM   41  C   UNL     1      35.665  -4.332 -29.647  1.00  0.00     0.148 A 
HETATM   42  N   UNL     1      34.160  -2.366 -30.826  1.00  0.00    -0.336 N 
HETATM   43  C   UNL     1      34.378  -2.398 -29.470  1.00  0.00     0.183 A 
ATOM     44  HN  UNL     1      33.609  -1.630 -31.267  1.00  0.00     0.168 HD
HETATM   45  N   UNL     1      35.142  -3.386 -28.933  1.00  0.00    -0.339 N 
ATOM     46  HN  UNL     1      35.311  -3.382 -27.928  1.00  0.00     0.167 HD
HETATM   47  N   UNL     1      36.408  -5.266 -28.850  1.00  0.00    -0.080 NA
ENDBRANCH  32  35
BRANCH  33  48
HETATM   48  O   UNL     1      35.654  -1.848 -35.287  1.00  0.00    -0.388 OA
ATOM     49  HO  UNL     1      35.447  -1.089 -35.819  1.00  0.00     0.210 HD
ENDBRANCH  33  48
BRANCH  34  50
HETATM   50  O   UNL     1      33.264  -1.015 -36.368  1.00  0.00    -0.390 OA
ATOM     51  HO  UNL     1      33.968  -0.529 -35.956  1.00  0.00     0.210 HD
ENDBRANCH  34  50
ENDBRANCH  29  30
ENDBRANCH  28  29
ENDBRANCH   1  28
TORSDOF 15
ENDMDL
MODEL 3
REMARK VINA RESULT:   -10.872      2.080      2.639
REMARK INTER + INTRA:         -21.864
REMARK INTER:                 -19.498
REMARK INTRA:                  -2.366
REMARK UNBOUND:                -2.729
REMARK  15 active torsions:
REMARK  status: ('A' for Active; 'I' for Inactive)
REMARK    1  A    between atoms: P_1  and  O_28 
REMARK    2  A    between atoms: P_1  and  O_4 
REMARK    3  A    between atoms: O_4  and  C_5 
REMARK    4  A    between atoms: C_5  and  C_6 
REMARK    5  A    between atoms: C_8  and  O_9 
REMARK    6  A    between atoms: C_11  and  O_12 
REMARK    7  A    between atoms: C_14  and  N_15 
REMARK    8  A    between atoms: O_28  and  P_29 
REMARK    9  A    between atoms: P_29  and  O_32 
REMARK   10  A    between atoms: O_32  and  C_33 
REMARK   11  A    between atoms: C_33  and  C_34 
REMARK   12  A    between atoms: C_36  and  O_37 
REMARK   13  A    between atoms: C_39  and  O_40 
REMARK   14  A    between atoms: C_42  and  N_43 
REMARK   15  A    between atoms: C_45  and  C_46 
ROOT
HETATM    1  P   UNL     1      30.897  -4.243 -38.819  1.00  0.00     0.417 P 
HETATM    2  O   UNL     1      32.045  -5.122 -38.384  1.00  0.00    -0.624 OA
HETATM    3  O   UNL     1      30.942  -3.615 -40.181  1.00  0.00    -0.624 OA
ENDROOT
BRANCH   1   4
HETATM    4  O   UNL     1      29.612  -5.184 -38.649  1.00  0.00    -0.180 OA
BRANCH   4   5
HETATM    5  P   UNL     1      28.047  -4.929 -38.997  1.00  0.00     0.417 P 
HETATM    6  O   UNL     1      27.749  -5.309 -40.406  1.00  0.00    -0.624 OA
HETATM    7  O   UNL     1      27.591  -3.612 -38.485  1.00  0.00    -0.624 OA
BRANCH   5   8
HETATM    8  O   UNL     1      27.436  -6.132 -38.100  1.00  0.00    -0.287 OA
BRANCH   8   9
HETATM    9  C   UNL     1      27.864  -6.215 -36.724  1.00  0.00     0.216 C 
BRANCH   9  10
HETATM   10  C   UNL     1      27.501  -7.618 -36.197  1.00  0.00     0.180 C 
HETATM   11  O   UNL     1      26.150  -7.859 -36.292  1.00  0.00    -0.354 OA
HETATM   12  C   UNL     1      26.008  -9.250 -36.988  1.00  0.00     0.251 C 
HETATM   13  C   UNL     1      27.132  -9.279 -37.803  1.00  0.00     0.198 C 
HETATM   14  C   UNL     1      28.283  -8.757 -36.912  1.00  0.00     0.182 C 
BRANCH  12  15
HETATM   15  N   UNL     1      24.708  -9.175 -37.611  1.00  0.00    -0.382 N 
HETATM   16  C   UNL     1      24.476  -8.256 -38.666  1.00  0.00     0.120 C 
HETATM   17  C   UNL     1      23.111  -8.092 -39.158  1.00  0.00     0.024 C 
HETATM   18  C   UNL     1      22.050  -9.088 -38.818  1.00  0.00     0.043 C 
HETATM   19  C   UNL     1      22.311  -9.771 -37.488  1.00  0.00     0.002 C 
HETATM   20  C   UNL     1      23.671  -9.907 -36.987  1.00  0.00     0.159 C 
BRANCH  19  21
HETATM   21  C   UNL     1      21.182 -10.458 -36.807  1.00  0.00     0.258 C 
HETATM   22  O   UNL     1      20.106 -10.513 -37.357  1.00  0.00    -0.272 OA
HETATM   23  N   UNL     1      21.438 -10.956 -35.506  1.00  0.00    -0.058 NA
ENDBRANCH  19  21
ENDBRANCH  12  15
BRANCH  13  24
HETATM   24  O   UNL     1      27.405 -10.613 -38.277  1.00  0.00    -0.389 OA
ATOM     25  HO  UNL     1      27.895 -11.115 -37.636  1.00  0.00     0.210 HD
ENDBRANCH  13  24
BRANCH  14  26
HETATM   26  O   UNL     1      28.650  -9.813 -36.030  1.00  0.00    -0.390 OA
ATOM     27  HO  UNL     1      28.725  -9.531 -35.126  1.00  0.00     0.210 HD
ENDBRANCH  14  26
ENDBRANCH   9  10
ENDBRANCH   8   9
ENDBRANCH   5   8
ENDBRANCH   4   5
ENDBRANCH   1   4
BRANCH   1  28
HETATM   28  O   UNL     1      30.705  -3.055 -37.760  1.00  0.00    -0.287 OA
BRANCH  28  29
HETATM   29  C   UNL     1      30.628  -3.367 -36.386  1.00  0.00     0.216 C 
BRANCH  29  30
HETATM   30  C   UNL     1      31.702  -2.503 -35.639  1.00  0.00     0.180 C 
HETATM   31  O   UNL     1      32.435  -3.351 -34.858  1.00  0.00    -0.353 OA
HETATM   32  C   UNL     1      33.858  -2.800 -34.886  1.00  0.00     0.262 C 
HETATM   33  C   UNL     1      34.045  -2.388 -36.213  1.00  0.00     0.198 C 
HETATM   34  C   UNL     1      32.675  -1.755 -36.603  1.00  0.00     0.182 C 
BRANCH  32  35
HETATM   35  N   UNL     1      34.726  -3.902 -34.440  1.00  0.00    -0.297 N 
HETATM   36  C   UNL     1      35.727  -3.774 -33.533  1.00  0.00     0.188 A 
HETATM   37  N   UNL     1      36.278  -5.005 -33.323  1.00  0.00    -0.346 N 
HETATM   38  C   UNL     1      35.617  -5.849 -34.135  1.00  0.00     0.119 A 
ATOM     39  HN  UNL     1      37.036  -5.237 -32.682  1.00  0.00     0.167 HD
HETATM   40  C   UNL     1      34.672  -5.183 -34.834  1.00  0.00     0.142 A 
HETATM   41  C   UNL     1      35.753  -7.194 -34.388  1.00  0.00     0.148 A 
HETATM   42  N   UNL     1      33.866  -5.727 -35.732  1.00  0.00    -0.336 N 
HETATM   43  C   UNL     1      34.040  -7.070 -35.963  1.00  0.00     0.183 A 
ATOM     44  HN  UNL     1      33.157  -5.182 -36.223  1.00  0.00     0.168 HD
HETATM   45  N   UNL     1      34.981  -7.758 -35.262  1.00  0.00    -0.339 N 
ATOM     46  HN  UNL     1      35.082  -8.758 -35.432  1.00  0.00     0.167 HD
HETATM   47  N   UNL     1      36.676  -8.123 -33.800  1.00  0.00    -0.080 NA
ENDBRANCH  32  35
BRANCH  33  48
HETATM   48  O   UNL     1      35.158  -1.448 -36.374  1.00  0.00    -0.388 OA
ATOM     49  HO  UNL     1      35.753  -1.463 -35.633  1.00  0.00     0.210 HD
ENDBRANCH  33  48
BRANCH  34  50
HETATM   50  O   UNL     1      32.620  -0.385 -36.430  1.00  0.00    -0.390 OA
ATOM     51  HO  UNL     1      32.998  -0.118 -35.600  1.00  0.00     0.210 HD
ENDBRANCH  34  50
ENDBRANCH  29  30
ENDBRANCH  28  29
ENDBRANCH   1  28
TORSDOF 15
ENDMDL
MODEL 4
REMARK VINA RESULT:   -10.702      2.683      3.090
REMARK INTER + INTRA:         -21.565
REMARK INTER:                 -19.326
REMARK INTRA:                  -2.239
REMARK UNBOUND:                -2.729
REMARK  15 active torsions:
REMARK  status: ('A' for Active; 'I' for Inactive)
REMARK    1  A    between atoms: P_1  and  O_28 
REMARK    2  A    between atoms: P_1  and  O_4 
REMARK    3  A    between atoms: O_4  and  C_5 
REMARK    4  A    between atoms: C_5  and  C_6 
REMARK    5  A    between atoms: C_8  and  O_9 
REMARK    6  A    between atoms: C_11  and  O_12 
REMARK    7  A    between atoms: C_14  and  N_15 
REMARK    8  A    between atoms: O_28  and  P_29 
REMARK    9  A    between atoms: P_29  and  O_32 
REMARK   10  A    between atoms: O_32  and  C_33 
REMARK   11  A    between atoms: C_33  and  C_34 
REMARK   12  A    between atoms: C_36  and  O_37 
REMARK   13  A    between atoms: C_39  and  O_40 
REMARK   14  A    between atoms: C_42  and  N_43 
REMARK   15  A    between atoms: C_45  and  C_46 
ROOT
HETATM    1  P   UNL     1      30.940  -4.024 -38.668  1.00  0.00     0.417 P 
HETATM    2  O   UNL     1      32.091  -4.997 -38.589  1.00  0.00    -0.624 OA
HETATM    3  O   UNL     1      30.720  -3.264 -39.943  1.00  0.00    -0.624 OA
ENDROOT
BRANCH   1   4
HETATM    4  O   UNL     1      29.663  -4.913 -38.289  1.00  0.00    -0.180 OA
BRANCH   4   5
HETATM    5  P   UNL     1      28.084  -4.707 -38.605  1.00  0.00     0.417 P 
HETATM    6  O   UNL     1      27.795  -4.951 -40.046  1.00  0.00    -0.624 OA
HETATM    7  O   UNL     1      27.563  -3.477 -37.956  1.00  0.00    -0.624 OA
BRANCH   5   8
HETATM    8  O   UNL     1      27.544  -6.028 -37.839  1.00  0.00    -0.287 OA
BRANCH   8   9
HETATM    9  C   UNL     1      28.015  -6.252 -36.493  1.00  0.00     0.216 C 
BRANCH   9  10
HETATM   10  C   UNL     1      27.629  -7.688 -36.086  1.00  0.00     0.180 C 
HETATM   11  O   UNL     1      26.280  -7.912 -36.241  1.00  0.00    -0.354 OA
HETATM   12  C   UNL     1      26.152  -9.244 -37.046  1.00  0.00     0.251 C 
HETATM   13  C   UNL     1      27.302  -9.218 -37.826  1.00  0.00     0.198 C 
HETATM   14  C   UNL     1      28.427  -8.775 -36.863  1.00  0.00     0.182 C 
BRANCH  12  15
HETATM   15  N   UNL     1      24.873  -9.112 -37.701  1.00  0.00    -0.382 N 
HETATM   16  C   UNL     1      24.705  -8.174 -38.751  1.00  0.00     0.120 C 
HETATM   17  C   UNL     1      23.360  -7.952 -39.276  1.00  0.00     0.024 C 
HETATM   18  C   UNL     1      22.253  -8.908 -38.973  1.00  0.00     0.043 C 
HETATM   19  C   UNL     1      22.453  -9.614 -37.644  1.00  0.00     0.002 C 
HETATM   20  C   UNL     1      23.792  -9.808 -37.111  1.00  0.00     0.159 C 
BRANCH  19  21
HETATM   21  C   UNL     1      21.280 -10.262 -36.999  1.00  0.00     0.258 C 
HETATM   22  O   UNL     1      21.381 -10.671 -35.866  1.00  0.00    -0.272 OA
HETATM   23  N   UNL     1      20.120 -10.410 -37.800  1.00  0.00    -0.058 NA
ENDBRANCH  19  21
ENDBRANCH  12  15
BRANCH  13  24
HETATM   24  O   UNL     1      27.582 -10.515 -38.392  1.00  0.00    -0.389 OA
ATOM     25  HO  UNL     1      27.631 -10.475 -39.340  1.00  0.00     0.210 HD
ENDBRANCH  13  24
BRANCH  14  26
HETATM   26  O   UNL     1      28.761  -9.898 -36.054  1.00  0.00    -0.390 OA
ATOM     27  HO  UNL     1      29.458 -10.427 -36.426  1.00  0.00     0.210 HD
ENDBRANCH  14  26
ENDBRANCH   9  10
ENDBRANCH   8   9
ENDBRANCH   5   8
ENDBRANCH   4   5
ENDBRANCH   1   4
BRANCH   1  28
HETATM   28  O   UNL     1      31.075  -2.941 -37.493  1.00  0.00    -0.287 OA
BRANCH  28  29
HETATM   29  C   UNL     1      31.176  -3.388 -36.158  1.00  0.00     0.216 C 
BRANCH  29  30
HETATM   30  C   UNL     1      32.647  -3.132 -35.679  1.00  0.00     0.180 C 
HETATM   31  O   UNL     1      33.293  -4.336 -35.688  1.00  0.00    -0.353 OA
HETATM   32  C   UNL     1      34.726  -4.023 -36.112  1.00  0.00     0.262 C 
HETATM   33  C   UNL     1      34.588  -3.052 -37.113  1.00  0.00     0.198 C 
HETATM   34  C   UNL     1      33.433  -2.142 -36.594  1.00  0.00     0.182 C 
BRANCH  32  35
HETATM   35  N   UNL     1      35.304  -5.303 -36.551  1.00  0.00    -0.297 N 
HETATM   36  C   UNL     1      36.592  -5.472 -36.943  1.00  0.00     0.188 A 
HETATM   37  N   UNL     1      36.787  -6.792 -37.226  1.00  0.00    -0.346 N 
HETATM   38  C   UNL     1      35.600  -7.392 -37.029  1.00  0.00     0.119 A 
ATOM     39  HN  UNL     1      37.656  -7.234 -37.526  1.00  0.00     0.167 HD
HETATM   40  C   UNL     1      34.680  -6.489 -36.627  1.00  0.00     0.142 A 
HETATM   41  C   UNL     1      35.176  -8.691 -37.190  1.00  0.00     0.148 A 
HETATM   42  N   UNL     1      33.410  -6.759 -36.369  1.00  0.00    -0.336 N 
HETATM   43  C   UNL     1      33.024  -8.065 -36.552  1.00  0.00     0.183 A 
ATOM     44  HN  UNL     1      32.758  -6.042 -36.054  1.00  0.00     0.168 HD
HETATM   45  N   UNL     1      33.939  -8.989 -36.947  1.00  0.00    -0.339 N 
ATOM     46  HN  UNL     1      33.639  -9.958 -37.058  1.00  0.00     0.167 HD
HETATM   47  N   UNL     1      35.937  -9.831 -37.613  1.00  0.00    -0.080 NA
ENDBRANCH  32  35
BRANCH  33  48
HETATM   48  O   UNL     1      35.821  -2.300 -37.361  1.00  0.00    -0.388 OA
ATOM     49  HO  UNL     1      36.596  -2.778 -37.092  1.00  0.00     0.210 HD
ENDBRANCH  33  48
BRANCH  34  50
HETATM   50  O   UNL     1      33.866  -1.029 -35.898  1.00  0.00    -0.390 OA
ATOM     51  HO  UNL     1      33.309  -0.839 -35.153  1.00  0.00     0.210 HD
ENDBRANCH  34  50
ENDBRANCH  29  30
ENDBRANCH  28  29
ENDBRANCH   1  28
TORSDOF 15
ENDMDL
MODEL 5
REMARK VINA RESULT:   -10.618      2.241     11.102
REMARK INTER + INTRA:         -21.417
REMARK INTER:                 -19.651
REMARK INTRA:                  -1.766
REMARK UNBOUND:                -2.729
REMARK  15 active torsions:
REMARK  status: ('A' for Active; 'I' for Inactive)
REMARK    1  A    between atoms: P_1  and  O_28 
REMARK    2  A    between atoms: P_1  and  O_4 
REMARK    3  A    between atoms: O_4  and  C_5 
REMARK    4  A    between atoms: C_5  and  C_6 
REMARK    5  A    between atoms: C_8  and  O_9 
REMARK    6  A    between atoms: C_11  and  O_12 
REMARK    7  A    between atoms: C_14  and  N_15 
REMARK    8  A    between atoms: O_28  and  P_29 
REMARK    9  A    between atoms: P_29  and  O_32 
REMARK   10  A    between atoms: O_32  and  C_33 
REMARK   11  A    between atoms: C_33  and  C_34 
REMARK   12  A    between atoms: C_36  and  O_37 
REMARK   13  A    between atoms: C_39  and  O_40 
REMARK   14  A    between atoms: C_42  and  N_43 
REMARK   15  A    between atoms: C_45  and  C_46 
ROOT
HETATM    1  P   UNL     1      28.269  -4.845 -39.182  1.00  0.00     0.417 P 
HETATM    2  O   UNL     1      27.691  -3.528 -38.723  1.00  0.00    -0.624 OA
HETATM    3  O   UNL     1      27.527  -5.640 -40.216  1.00  0.00    -0.624 OA
ENDROOT
BRANCH   1   4
HETATM    4  O   UNL     1      29.741  -4.459 -39.683  1.00  0.00    -0.180 OA
BRANCH   4   5
HETATM    5  P   UNL     1      31.155  -4.389 -38.890  1.00  0.00     0.417 P 
HETATM    6  O   UNL     1      32.197  -3.722 -39.721  1.00  0.00    -0.624 OA
HETATM    7  O   UNL     1      31.467  -5.682 -38.231  1.00  0.00    -0.624 OA
BRANCH   5   8
HETATM    8  O   UNL     1      30.723  -3.279 -37.791  1.00  0.00    -0.287 OA
BRANCH   8   9
HETATM    9  C   UNL     1      30.827  -3.649 -36.400  1.00  0.00     0.216 C 
BRANCH   9  10
HETATM   10  C   UNL     1      31.608  -2.538 -35.669  1.00  0.00     0.180 C 
HETATM   11  O   UNL     1      32.273  -3.028 -34.569  1.00  0.00    -0.354 OA
HETATM   12  C   UNL     1      33.742  -2.511 -34.686  1.00  0.00     0.251 C 
HETATM   13  C   UNL     1      33.912  -2.442 -36.063  1.00  0.00     0.198 C 
HETATM   14  C   UNL     1      32.613  -1.793 -36.593  1.00  0.00     0.182 C 
BRANCH  12  15
HETATM   15  N   UNL     1      34.497  -3.494 -33.947  1.00  0.00    -0.382 N 
HETATM   16  C   UNL     1      34.937  -4.682 -34.586  1.00  0.00     0.120 C 
HETATM   17  C   UNL     1      35.552  -5.724 -33.770  1.00  0.00     0.024 C 
HETATM   18  C   UNL     1      36.021  -5.432 -32.382  1.00  0.00     0.043 C 
HETATM   19  C   UNL     1      35.225  -4.315 -31.731  1.00  0.00     0.002 C 
HETATM   20  C   UNL     1      34.589  -3.294 -32.550  1.00  0.00     0.159 C 
BRANCH  19  21
HETATM   21  C   UNL     1      35.266  -4.180 -30.251  1.00  0.00     0.258 C 
HETATM   22  O   UNL     1      35.462  -5.163 -29.574  1.00  0.00    -0.272 OA
HETATM   23  N   UNL     1      35.006  -2.890 -29.727  1.00  0.00    -0.058 NA
ENDBRANCH  19  21
ENDBRANCH  12  15
BRANCH  13  24
HETATM   24  O   UNL     1      35.068  -1.654 -36.411  1.00  0.00    -0.389 OA
ATOM     25  HO  UNL     1      35.536  -2.031 -37.147  1.00  0.00     0.210 HD
ENDBRANCH  13  24
BRANCH  14  26
HETATM   26  O   UNL     1      32.691  -0.398 -36.314  1.00  0.00    -0.390 OA
ATOM     27  HO  UNL     1      32.896  -0.215 -35.405  1.00  0.00     0.210 HD
ENDBRANCH  14  26
ENDBRANCH   9  10
ENDBRANCH   8   9
ENDBRANCH   5   8
ENDBRANCH   4   5
ENDBRANCH   1   4
BRANCH   1  28
HETATM   28  O   UNL     1      28.481  -5.804 -37.916  1.00  0.00    -0.287 OA
BRANCH  28  29
HETATM   29  C   UNL     1      27.565  -5.738 -36.845  1.00  0.00     0.216 C 
BRANCH  29  30
HETATM   30  C   UNL     1      27.206  -7.207 -36.432  1.00  0.00     0.180 C 
HETATM   31  O   UNL     1      25.874  -7.385 -36.679  1.00  0.00    -0.353 OA
HETATM   32  C   UNL     1      25.738  -8.833 -37.144  1.00  0.00     0.262 C 
HETATM   33  C   UNL     1      26.856  -9.041 -37.964  1.00  0.00     0.198 C 
HETATM   34  C   UNL     1      28.004  -8.287 -37.228  1.00  0.00     0.182 C 
BRANCH  32  35
HETATM   35  N   UNL     1      24.434  -8.918 -37.822  1.00  0.00    -0.297 N 
HETATM   36  C   UNL     1      24.166  -8.390 -39.043  1.00  0.00     0.188 A 
HETATM   37  N   UNL     1      22.881  -8.707 -39.376  1.00  0.00    -0.346 N 
HETATM   38  C   UNL     1      22.387  -9.395 -38.332  1.00  0.00     0.119 A 
ATOM     39  HN  UNL     1      22.394  -8.470 -40.241  1.00  0.00     0.167 HD
HETATM   40  C   UNL     1      23.325  -9.521 -37.368  1.00  0.00     0.142 A 
HETATM   41  C   UNL     1      21.148  -9.936 -38.076  1.00  0.00     0.148 A 
HETATM   42  N   UNL     1      23.145 -10.129 -36.206  1.00  0.00    -0.336 N 
HETATM   43  C   UNL     1      21.892 -10.645 -35.985  1.00  0.00     0.183 A 
ATOM     44  HN  UNL     1      23.892 -10.209 -35.516  1.00  0.00     0.168 HD
HETATM   45  N   UNL     1      20.938 -10.536 -36.948  1.00  0.00    -0.339 N 
ATOM     46  HN  UNL     1      20.019 -10.944 -36.775  1.00  0.00     0.167 HD
HETATM   47  N   UNL     1      19.984  -9.933 -38.915  1.00  0.00    -0.080 NA
ENDBRANCH  32  35
BRANCH  33  48
HETATM   48  O   UNL     1      27.163 -10.459 -38.172  1.00  0.00    -0.388 OA
ATOM     49  HO  UNL     1      27.829 -10.775 -37.573  1.00  0.00     0.210 HD
ENDBRANCH  33  48
BRANCH  34  50
HETATM   50  O   UNL     1      28.757  -9.091 -36.393  1.00  0.00    -0.390 OA
ATOM     51  HO  UNL     1      28.253  -9.822 -36.056  1.00  0.00     0.210 HD
ENDBRANCH  34  50
ENDBRANCH  29  30
ENDBRANCH  28  29
ENDBRANCH   1  28
TORSDOF 15
ENDMDL
MODEL 6
REMARK VINA RESULT:   -10.467      1.889      2.979
REMARK INTER + INTRA:         -21.151
REMARK INTER:                 -19.234
REMARK INTRA:                  -1.918
REMARK UNBOUND:                -2.729
REMARK  15 active torsions:
REMARK  status: ('A' for Active; 'I' for Inactive)
REMARK    1  A    between atoms: P_1  and  O_28 
REMARK    2  A    between atoms: P_1  and  O_4 
REMARK    3  A    between atoms: O_4  and  C_5 
REMARK    4  A    between atoms: C_5  and  C_6 
REMARK    5  A    between atoms: C_8  and  O_9 
REMARK    6  A    between atoms: C_11  and  O_12 
REMARK    7  A    between atoms: C_14  and  N_15 
REMARK    8  A    between atoms: O_28  and  P_29 
REMARK    9  A    between atoms: P_29  and  O_32 
REMARK   10  A    between atoms: O_32  and  C_33 
REMARK   11  A    between atoms: C_33  and  C_34 
REMARK   12  A    between atoms: C_36  and  O_37 
REMARK   13  A    between atoms: C_39  and  O_40 
REMARK   14  A    between atoms: C_42  and  N_43 
REMARK   15  A    between atoms: C_45  and  C_46 
ROOT
HETATM    1  P   UNL     1      30.816  -4.241 -38.443  1.00  0.00     0.417 P 
HETATM    2  O   UNL     1      31.947  -5.152 -38.031  1.00  0.00    -0.624 OA
HETATM    3  O   UNL     1      30.970  -3.412 -39.684  1.00  0.00    -0.624 OA
ENDROOT
BRANCH   1   4
HETATM    4  O   UNL     1      29.556  -5.225 -38.549  1.00  0.00    -0.180 OA
BRANCH   4   5
HETATM    5  P   UNL     1      28.008  -4.941 -38.949  1.00  0.00     0.417 P 
HETATM    6  O   UNL     1      27.726  -5.405 -40.336  1.00  0.00    -0.624 OA
HETATM    7  O   UNL     1      27.589  -3.577 -38.537  1.00  0.00    -0.624 OA
BRANCH   5   8
HETATM    8  O   UNL     1      27.337  -6.058 -37.988  1.00  0.00    -0.287 OA
BRANCH   8   9
HETATM    9  C   UNL     1      27.911  -6.235 -36.676  1.00  0.00     0.216 C 
BRANCH   9  10
HETATM   10  C   UNL     1      27.541  -7.647 -36.179  1.00  0.00     0.180 C 
HETATM   11  O   UNL     1      26.189  -7.880 -36.283  1.00  0.00    -0.354 OA
HETATM   12  C   UNL     1      26.042  -9.255 -37.009  1.00  0.00     0.251 C 
HETATM   13  C   UNL     1      27.169  -9.271 -37.822  1.00  0.00     0.198 C 
HETATM   14  C   UNL     1      28.319  -8.774 -36.917  1.00  0.00     0.182 C 
BRANCH  12  15
HETATM   15  N   UNL     1      24.745  -9.161 -37.634  1.00  0.00    -0.382 N 
HETATM   16  C   UNL     1      24.526  -8.233 -38.684  1.00  0.00     0.120 C 
HETATM   17  C   UNL     1      23.164  -8.049 -39.178  1.00  0.00     0.024 C 
HETATM   18  C   UNL     1      22.090  -9.034 -38.845  1.00  0.00     0.043 C 
HETATM   19  C   UNL     1      22.340  -9.727 -37.518  1.00  0.00     0.002 C 
HETATM   20  C   UNL     1      23.697  -9.883 -37.016  1.00  0.00     0.159 C 
BRANCH  19  21
HETATM   21  C   UNL     1      21.201 -10.403 -36.842  1.00  0.00     0.258 C 
HETATM   22  O   UNL     1      20.149 -10.515 -37.427  1.00  0.00    -0.272 OA
HETATM   23  N   UNL     1      21.419 -10.823 -35.506  1.00  0.00    -0.058 NA
ENDBRANCH  19  21
ENDBRANCH  12  15
BRANCH  13  24
HETATM   24  O   UNL     1      27.437 -10.596 -38.323  1.00  0.00    -0.389 OA
ATOM     25  HO  UNL     1      28.193 -10.603 -38.899  1.00  0.00     0.210 HD
ENDBRANCH  13  24
BRANCH  14  26
HETATM   26  O   UNL     1      28.680  -9.851 -36.057  1.00  0.00    -0.390 OA
ATOM     27  HO  UNL     1      28.300  -9.773 -35.190  1.00  0.00     0.210 HD
ENDBRANCH  14  26
ENDBRANCH   9  10
ENDBRANCH   8   9
ENDBRANCH   5   8
ENDBRANCH   4   5
ENDBRANCH   1   4
BRANCH   1  28
HETATM   28  O   UNL     1      30.477  -3.234 -37.244  1.00  0.00    -0.287 OA
BRANCH  28  29
HETATM   29  C   UNL     1      30.851  -3.584 -35.929  1.00  0.00     0.216 C 
BRANCH  29  30
HETATM   30  C   UNL     1      32.005  -2.619 -35.487  1.00  0.00     0.180 C 
HETATM   31  O   UNL     1      33.030  -3.396 -35.026  1.00  0.00    -0.353 OA
HETATM   32  C   UNL     1      34.307  -2.673 -35.449  1.00  0.00     0.262 C 
HETATM   33  C   UNL     1      34.027  -2.199 -36.738  1.00  0.00     0.198 C 
HETATM   34  C   UNL     1      32.545  -1.727 -36.648  1.00  0.00     0.182 C 
BRANCH  32  35
HETATM   35  N   UNL     1      35.383  -3.674 -35.365  1.00  0.00    -0.297 N 
HETATM   36  C   UNL     1      35.184  -5.014 -35.292  1.00  0.00     0.188 A 
HETATM   37  N   UNL     1      36.401  -5.631 -35.283  1.00  0.00    -0.346 N 
HETATM   38  C   UNL     1      37.316  -4.646 -35.318  1.00  0.00     0.119 A 
ATOM     39  HN  UNL     1      36.581  -6.634 -35.254  1.00  0.00     0.167 HD
HETATM   40  C   UNL     1      36.705  -3.441 -35.357  1.00  0.00     0.142 A 
HETATM   41  C   UNL     1      38.691  -4.651 -35.291  1.00  0.00     0.148 A 
HETATM   42  N   UNL     1      37.327  -2.273 -35.379  1.00  0.00    -0.336 N 
HETATM   43  C   UNL     1      38.699  -2.322 -35.339  1.00  0.00     0.183 A 
ATOM     44  HN  UNL     1      36.818  -1.390 -35.422  1.00  0.00     0.168 HD
HETATM   45  N   UNL     1      39.331  -3.525 -35.309  1.00  0.00    -0.339 N 
ATOM     46  HN  UNL     1      40.350  -3.542 -35.301  1.00  0.00     0.167 HD
HETATM   47  N   UNL     1      39.577  -5.779 -35.237  1.00  0.00    -0.080 NA
ENDBRANCH  32  35
BRANCH  33  48
HETATM   48  O   UNL     1      34.929  -1.125 -37.165  1.00  0.00    -0.388 OA
ATOM     49  HO  UNL     1      34.568  -0.263 -36.998  1.00  0.00     0.210 HD
ENDBRANCH  33  48
BRANCH  34  50
HETATM   50  O   UNL     1      32.401  -0.380 -36.373  1.00  0.00    -0.390 OA
ATOM     51  HO  UNL     1      33.132   0.129 -36.701  1.00  0.00     0.210 HD
ENDBRANCH  34  50
ENDBRANCH  29  30
ENDBRANCH  28  29
ENDBRANCH   1  28
TORSDOF 15
ENDMDL
MODEL 7
REMARK VINA RESULT:   -10.227      2.206     10.894
REMARK INTER + INTRA:         -20.729
REMARK INTER:                 -18.593
REMARK INTRA:                  -2.135
REMARK UNBOUND:                -2.729
REMARK  15 active torsions:
REMARK  status: ('A' for Active; 'I' for Inactive)
REMARK    1  A    between atoms: P_1  and  O_28 
REMARK    2  A    between atoms: P_1  and  O_4 
REMARK    3  A    between atoms: O_4  and  C_5 
REMARK    4  A    between atoms: C_5  and  C_6 
REMARK    5  A    between atoms: C_8  and  O_9 
REMARK    6  A    between atoms: C_11  and  O_12 
REMARK    7  A    between atoms: C_14  and  N_15 
REMARK    8  A    between atoms: O_28  and  P_29 
REMARK    9  A    between atoms: P_29  and  O_32 
REMARK   10  A    between atoms: O_32  and  C_33 
REMARK   11  A    between atoms: C_33  and  C_34 
REMARK   12  A    between atoms: C_36  and  O_37 
REMARK   13  A    between atoms: C_39  and  O_40 
REMARK   14  A    between atoms: C_42  and  N_43 
REMARK   15  A    between atoms: C_45  and  C_46 
ROOT
HETATM    1  P   UNL     1      27.926  -4.948 -38.769  1.00  0.00     0.417 P 
HETATM    2  O   UNL     1      27.591  -3.494 -38.542  1.00  0.00    -0.624 OA
HETATM    3  O   UNL     1      27.703  -5.539 -40.130  1.00  0.00    -0.624 OA
ENDROOT
BRANCH   1   4
HETATM    4  O   UNL     1      29.462  -5.057 -38.327  1.00  0.00    -0.180 OA
BRANCH   4   5
HETATM    5  P   UNL     1      30.765  -4.194 -38.765  1.00  0.00     0.417 P 
HETATM    6  O   UNL     1      30.515  -3.468 -40.042  1.00  0.00    -0.624 OA
HETATM    7  O   UNL     1      32.011  -4.985 -38.609  1.00  0.00    -0.624 OA
BRANCH   5   8
HETATM    8  O   UNL     1      30.661  -3.061 -37.612  1.00  0.00    -0.287 OA
BRANCH   8   9
HETATM    9  C   UNL     1      30.999  -3.454 -36.265  1.00  0.00     0.216 C 
BRANCH   9  10
HETATM   10  C   UNL     1      32.185  -2.587 -35.799  1.00  0.00     0.180 C 
HETATM   11  O   UNL     1      33.207  -3.357 -35.294  1.00  0.00    -0.354 OA
HETATM   12  C   UNL     1      34.509  -2.870 -36.006  1.00  0.00     0.251 C 
HETATM   13  C   UNL     1      34.023  -2.461 -37.242  1.00  0.00     0.198 C 
HETATM   14  C   UNL     1      32.739  -1.662 -36.921  1.00  0.00     0.182 C 
BRANCH  12  15
HETATM   15  N   UNL     1      35.367  -4.029 -35.953  1.00  0.00    -0.382 N 
HETATM   16  C   UNL     1      36.739  -3.885 -35.623  1.00  0.00     0.120 C 
HETATM   17  C   UNL     1      37.609  -5.052 -35.741  1.00  0.00     0.024 C 
HETATM   18  C   UNL     1      37.035  -6.425 -35.869  1.00  0.00     0.043 C 
HETATM   19  C   UNL     1      35.668  -6.415 -36.529  1.00  0.00     0.002 C 
HETATM   20  C   UNL     1      34.815  -5.240 -36.433  1.00  0.00     0.159 C 
BRANCH  19  21
HETATM   21  C   UNL     1      35.147  -7.683 -37.107  1.00  0.00     0.258 C 
HETATM   22  O   UNL     1      35.901  -8.410 -37.711  1.00  0.00    -0.272 OA
HETATM   23  N   UNL     1      33.758  -7.922 -36.956  1.00  0.00    -0.058 NA
ENDBRANCH  19  21
ENDBRANCH  12  15
BRANCH  13  24
HETATM   24  O   UNL     1      34.984  -1.644 -37.941  1.00  0.00    -0.389 OA
ATOM     25  HO  UNL     1      34.800  -0.719 -37.827  1.00  0.00     0.210 HD
ENDBRANCH  13  24
BRANCH  14  26
HETATM   26  O   UNL     1      33.144  -0.386 -36.435  1.00  0.00    -0.390 OA
ATOM     27  HO  UNL     1      32.447   0.076 -35.985  1.00  0.00     0.210 HD
ENDBRANCH  14  26
ENDBRANCH   9  10
ENDBRANCH   8   9
ENDBRANCH   5   8
ENDBRANCH   4   5
ENDBRANCH   1   4
BRANCH   1  28
HETATM   28  O   UNL     1      27.112  -5.852 -37.726  1.00  0.00    -0.287 OA
BRANCH  28  29
HETATM   29  C   UNL     1      27.725  -6.213 -36.507  1.00  0.00     0.216 C 
BRANCH  29  30
HETATM   30  C   UNL     1      27.274  -7.675 -36.161  1.00  0.00     0.180 C 
HETATM   31  O   UNL     1      25.943  -7.769 -36.453  1.00  0.00    -0.353 OA
HETATM   32  C   UNL     1      25.743  -9.190 -36.976  1.00  0.00     0.262 C 
HETATM   33  C   UNL     1      26.872  -9.429 -37.770  1.00  0.00     0.198 C 
HETATM   34  C   UNL     1      28.036  -8.768 -36.973  1.00  0.00     0.182 C 
BRANCH  32  35
HETATM   35  N   UNL     1      24.458  -9.177 -37.695  1.00  0.00    -0.297 N 
HETATM   36  C   UNL     1      24.265  -8.622 -38.917  1.00  0.00     0.188 A 
HETATM   37  N   UNL     1      22.973  -8.845 -39.293  1.00  0.00    -0.346 N 
HETATM   38  C   UNL     1      22.399  -9.507 -38.272  1.00  0.00     0.119 A 
ATOM     39  HN  UNL     1      22.531  -8.568 -40.170  1.00  0.00     0.167 HD
HETATM   40  C   UNL     1      23.296  -9.706 -37.282  1.00  0.00     0.142 A 
HETATM   41  C   UNL     1      21.119  -9.962 -38.060  1.00  0.00     0.148 A 
HETATM   42  N   UNL     1      23.038 -10.310 -36.132  1.00  0.00    -0.336 N 
HETATM   43  C   UNL     1      21.745 -10.740 -35.956  1.00  0.00     0.183 A 
ATOM     44  HN  UNL     1      23.755 -10.448 -35.421  1.00  0.00     0.168 HD
HETATM   45  N   UNL     1      20.832 -10.556 -36.946  1.00  0.00    -0.339 N 
ATOM     46  HN  UNL     1      19.882 -10.900 -36.805  1.00  0.00     0.167 HD
HETATM   47  N   UNL     1      19.984  -9.870 -38.935  1.00  0.00    -0.080 NA
ENDBRANCH  32  35
BRANCH  33  48
HETATM   48  O   UNL     1      27.108 -10.854 -38.022  1.00  0.00    -0.388 OA
ATOM     49  HO  UNL     1      27.725 -11.232 -37.405  1.00  0.00     0.210 HD
ENDBRANCH  33  48
BRANCH  34  50
HETATM   50  O   UNL     1      28.718  -9.642 -36.147  1.00  0.00    -0.390 OA
ATOM     51  HO  UNL     1      29.573  -9.865 -36.496  1.00  0.00     0.210 HD
ENDBRANCH  34  50
ENDBRANCH  29  30
ENDBRANCH  28  29
ENDBRANCH   1  28
TORSDOF 15
ENDMDL
MODEL 8
REMARK VINA RESULT:   -10.211      2.128     11.238
REMARK INTER + INTRA:         -20.700
REMARK INTER:                 -19.580
REMARK INTRA:                  -1.120
REMARK UNBOUND:                -2.729
REMARK  15 active torsions:
REMARK  status: ('A' for Active; 'I' for Inactive)
REMARK    1  A    between atoms: P_1  and  O_28 
REMARK    2  A    between atoms: P_1  and  O_4 
REMARK    3  A    between atoms: O_4  and  C_5 
REMARK    4  A    between atoms: C_5  and  C_6 
REMARK    5  A    between atoms: C_8  and  O_9 
REMARK    6  A    between atoms: C_11  and  O_12 
REMARK    7  A    between atoms: C_14  and  N_15 
REMARK    8  A    between atoms: O_28  and  P_29 
REMARK    9  A    between atoms: P_29  and  O_32 
REMARK   10  A    between atoms: O_32  and  C_33 
REMARK   11  A    between atoms: C_33  and  C_34 
REMARK   12  A    between atoms: C_36  and  O_37 
REMARK   13  A    between atoms: C_39  and  O_40 
REMARK   14  A    between atoms: C_42  and  N_43 
REMARK   15  A    between atoms: C_45  and  C_46 
ROOT
HETATM    1  P   UNL     1      28.176  -3.992 -38.026  1.00  0.00     0.417 P 
HETATM    2  O   UNL     1      27.761  -3.056 -36.918  1.00  0.00    -0.624 OA
HETATM    3  O   UNL     1      27.613  -3.781 -39.401  1.00  0.00    -0.624 OA
ENDROOT
BRANCH   1   4
HETATM    4  O   UNL     1      29.775  -3.895 -38.027  1.00  0.00    -0.180 OA
BRANCH   4   5
HETATM    5  P   UNL     1      30.833  -3.670 -36.816  1.00  0.00     0.417 P 
HETATM    6  O   UNL     1      31.524  -4.944 -36.472  1.00  0.00    -0.624 OA
HETATM    7  O   UNL     1      30.241  -2.847 -35.732  1.00  0.00    -0.624 OA
BRANCH   5   8
HETATM    8  O   UNL     1      31.925  -2.813 -37.651  1.00  0.00    -0.287 OA
BRANCH   8   9
HETATM    9  C   UNL     1      32.580  -1.727 -36.964  1.00  0.00     0.216 C 
BRANCH   9  10
HETATM   10  C   UNL     1      34.102  -1.960 -37.045  1.00  0.00     0.180 C 
HETATM   11  O   UNL     1      34.662  -2.077 -35.793  1.00  0.00    -0.354 OA
HETATM   12  C   UNL     1      35.537  -3.371 -35.830  1.00  0.00     0.251 C 
HETATM   13  C   UNL     1      34.843  -4.159 -36.740  1.00  0.00     0.198 C 
HETATM   14  C   UNL     1      34.482  -3.203 -37.900  1.00  0.00     0.182 C 
BRANCH  12  15
HETATM   15  N   UNL     1      35.571  -3.785 -34.448  1.00  0.00    -0.382 N 
HETATM   16  C   UNL     1      36.025  -5.084 -34.105  1.00  0.00     0.120 C 
HETATM   17  C   UNL     1      35.890  -5.525 -32.719  1.00  0.00     0.024 C 
HETATM   18  C   UNL     1      35.608  -4.544 -31.628  1.00  0.00     0.043 C 
HETATM   19  C   UNL     1      34.840  -3.334 -32.129  1.00  0.00     0.002 C 
HETATM   20  C   UNL     1      34.955  -2.915 -33.518  1.00  0.00     0.159 C 
BRANCH  19  21
HETATM   21  C   UNL     1      34.124  -2.486 -31.139  1.00  0.00     0.258 C 
HETATM   22  O   UNL     1      33.085  -1.956 -31.457  1.00  0.00    -0.272 OA
HETATM   23  N   UNL     1      34.759  -2.306 -29.885  1.00  0.00    -0.058 NA
ENDBRANCH  19  21
ENDBRANCH  12  15
BRANCH  13  24
HETATM   24  O   UNL     1      35.650  -5.260 -37.205  1.00  0.00    -0.389 OA
ATOM     25  HO  UNL     1      35.278  -5.659 -37.983  1.00  0.00     0.210 HD
ENDBRANCH  13  24
BRANCH  14  26
HETATM   26  O   UNL     1      35.663  -3.004 -38.670  1.00  0.00    -0.390 OA
ATOM     27  HO  UNL     1      36.050  -3.818 -38.970  1.00  0.00     0.210 HD
ENDBRANCH  14  26
ENDBRANCH   9  10
ENDBRANCH   8   9
ENDBRANCH   5   8
ENDBRANCH   4   5
ENDBRANCH   1   4
BRANCH   1  28
HETATM   28  O   UNL     1      27.835  -5.501 -37.606  1.00  0.00    -0.287 OA
BRANCH  28  29
HETATM   29  C   UNL     1      27.178  -5.738 -36.380  1.00  0.00     0.216 C 
BRANCH  29  30
HETATM   30  C   UNL     1      26.974  -7.287 -36.241  1.00  0.00     0.180 C 
HETATM   31  O   UNL     1      25.661  -7.550 -36.511  1.00  0.00    -0.353 OA
HETATM   32  C   UNL     1      25.658  -8.896 -37.232  1.00  0.00     0.262 C 
HETATM   33  C   UNL     1      26.772  -8.839 -38.080  1.00  0.00     0.198 C 
HETATM   34  C   UNL     1      27.857  -8.119 -37.223  1.00  0.00     0.182 C 
BRANCH  32  35
HETATM   35  N   UNL     1      24.354  -8.988 -37.909  1.00  0.00    -0.297 N 
HETATM   36  C   UNL     1      24.101  -8.523 -39.158  1.00  0.00     0.188 A 
HETATM   37  N   UNL     1      22.810  -8.827 -39.478  1.00  0.00    -0.346 N 
HETATM   38  C   UNL     1      22.297  -9.445 -38.399  1.00  0.00     0.119 A 
ATOM     39  HN  UNL     1      22.332  -8.627 -40.356  1.00  0.00     0.167 HD
HETATM   40  C   UNL     1      23.230  -9.539 -37.426  1.00  0.00     0.142 A 
HETATM   41  C   UNL     1      21.046  -9.941 -38.118  1.00  0.00     0.148 A 
HETATM   42  N   UNL     1      23.032 -10.077 -36.233  1.00  0.00    -0.336 N 
HETATM   43  C   UNL     1      21.767 -10.551 -35.989  1.00  0.00     0.183 A 
ATOM     44  HN  UNL     1      23.775 -10.136 -35.537  1.00  0.00     0.168 HD
HETATM   45  N   UNL     1      20.818 -10.473 -36.960  1.00  0.00    -0.339 N 
ATOM     46  HN  UNL     1      19.890 -10.849 -36.768  1.00  0.00     0.167 HD
HETATM   47  N   UNL     1      19.884  -9.957 -38.961  1.00  0.00    -0.080 NA
ENDBRANCH  32  35
BRANCH  33  48
HETATM   48  O   UNL     1      27.213 -10.158 -38.543  1.00  0.00    -0.388 OA
ATOM     49  HO  UNL     1      26.602 -10.846 -38.307  1.00  0.00     0.210 HD
ENDBRANCH  33  48
BRANCH  34  50
HETATM   50  O   UNL     1      28.703  -8.981 -36.551  1.00  0.00    -0.390 OA
ATOM     51  HO  UNL     1      29.265  -9.462 -37.147  1.00  0.00     0.210 HD
ENDBRANCH  34  50
ENDBRANCH  29  30
ENDBRANCH  28  29
ENDBRANCH   1  28
TORSDOF 15
ENDMDL
MODEL 9
REMARK VINA RESULT:   -10.209      2.330      3.602
REMARK INTER + INTRA:         -20.696
REMARK INTER:                 -18.257
REMARK INTRA:                  -2.439
REMARK UNBOUND:                -2.729
REMARK  15 active torsions:
REMARK  status: ('A' for Active; 'I' for Inactive)
REMARK    1  A    between atoms: P_1  and  O_28 
REMARK    2  A    between atoms: P_1  and  O_4 
REMARK    3  A    between atoms: O_4  and  C_5 
REMARK    4  A    between atoms: C_5  and  C_6 
REMARK    5  A    between atoms: C_8  and  O_9 
REMARK    6  A    between atoms: C_11  and  O_12 
REMARK    7  A    between atoms: C_14  and  N_15 
REMARK    8  A    between atoms: O_28  and  P_29 
REMARK    9  A    between atoms: P_29  and  O_32 
REMARK   10  A    between atoms: O_32  and  C_33 
REMARK   11  A    between atoms: C_33  and  C_34 
REMARK   12  A    between atoms: C_36  and  O_37 
REMARK   13  A    between atoms: C_39  and  O_40 
REMARK   14  A    between atoms: C_42  and  N_43 
REMARK   15  A    between atoms: C_45  and  C_46 
ROOT
HETATM    1  P   UNL     1      31.186  -4.268 -38.247  1.00  0.00     0.417 P 
HETATM    2  O   UNL     1      31.620  -4.580 -39.659  1.00  0.00    -0.624 OA
HETATM    3  O   UNL     1      31.057  -2.833 -37.830  1.00  0.00    -0.624 OA
ENDROOT
BRANCH   1   4
HETATM    4  O   UNL     1      29.797  -5.050 -38.095  1.00  0.00    -0.180 OA
BRANCH   4   5
HETATM    5  P   UNL     1      28.331  -4.760 -38.730  1.00  0.00     0.417 P 
HETATM    6  O   UNL     1      28.295  -5.129 -40.173  1.00  0.00    -0.624 OA
HETATM    7  O   UNL     1      27.815  -3.434 -38.304  1.00  0.00    -0.624 OA
BRANCH   5   8
HETATM    8  O   UNL     1      27.536  -5.950 -37.972  1.00  0.00    -0.287 OA
BRANCH   8   9
HETATM    9  C   UNL     1      27.733  -6.076 -36.548  1.00  0.00     0.216 C 
BRANCH   9  10
HETATM   10  C   UNL     1      27.499  -7.550 -36.163  1.00  0.00     0.180 C 
HETATM   11  O   UNL     1      26.169  -7.891 -36.252  1.00  0.00    -0.354 OA
HETATM   12  C   UNL     1      26.116  -9.210 -37.087  1.00  0.00     0.251 C 
HETATM   13  C   UNL     1      27.213  -9.062 -37.926  1.00  0.00     0.198 C 
HETATM   14  C   UNL     1      28.346  -8.541 -37.011  1.00  0.00     0.182 C 
BRANCH  12  15
HETATM   15  N   UNL     1      24.795  -9.178 -37.669  1.00  0.00    -0.382 N 
HETATM   16  C   UNL     1      24.521  -8.320 -38.764  1.00  0.00     0.120 C 
HETATM   17  C   UNL     1      23.139  -8.193 -39.219  1.00  0.00     0.024 C 
HETATM   18  C   UNL     1      22.098  -9.175 -38.788  1.00  0.00     0.043 C 
HETATM   19  C   UNL     1      22.409  -9.781 -37.432  1.00  0.00     0.002 C 
HETATM   20  C   UNL     1      23.786  -9.881 -36.970  1.00  0.00     0.159 C 
BRANCH  19  21
HETATM   21  C   UNL     1      21.309 -10.436 -36.675  1.00  0.00     0.258 C 
HETATM   22  O   UNL     1      21.515 -10.824 -35.549  1.00  0.00    -0.272 OA
HETATM   23  N   UNL     1      20.086 -10.616 -37.369  1.00  0.00    -0.058 NA
ENDBRANCH  19  21
ENDBRANCH  12  15
BRANCH  13  24
HETATM   24  O   UNL     1      27.576 -10.314 -38.543  1.00  0.00    -0.389 OA
ATOM     25  HO  UNL     1      28.140 -10.178 -39.296  1.00  0.00     0.210 HD
ENDBRANCH  13  24
BRANCH  14  26
HETATM   26  O   UNL     1      28.824  -9.650 -36.254  1.00  0.00    -0.390 OA
ATOM     27  HO  UNL     1      29.527 -10.117 -36.688  1.00  0.00     0.210 HD
ENDBRANCH  14  26
ENDBRANCH   9  10
ENDBRANCH   8   9
ENDBRANCH   5   8
ENDBRANCH   4   5
ENDBRANCH   1   4
BRANCH   1  28
HETATM   28  O   UNL     1      32.191  -4.969 -37.213  1.00  0.00    -0.287 OA
BRANCH  28  29
HETATM   29  C   UNL     1      31.916  -6.281 -36.773  1.00  0.00     0.216 C 
BRANCH  29  30
HETATM   30  C   UNL     1      33.270  -7.071 -36.754  1.00  0.00     0.180 C 
HETATM   31  O   UNL     1      34.225  -6.254 -37.288  1.00  0.00    -0.353 OA
HETATM   32  C   UNL     1      35.502  -6.560 -36.507  1.00  0.00     0.262 C 
HETATM   33  C   UNL     1      35.070  -6.719 -35.184  1.00  0.00     0.198 C 
HETATM   34  C   UNL     1      33.723  -7.491 -35.321  1.00  0.00     0.182 C 
BRANCH  32  35
HETATM   35  N   UNL     1      36.402  -5.419 -36.744  1.00  0.00    -0.297 N 
HETATM   36  C   UNL     1      37.745  -5.520 -36.907  1.00  0.00     0.188 A 
HETATM   37  N   UNL     1      38.243  -4.275 -37.159  1.00  0.00    -0.346 N 
HETATM   38  C   UNL     1      37.191  -3.438 -37.111  1.00  0.00     0.119 A 
ATOM     39  HN  UNL     1      39.215  -4.028 -37.345  1.00  0.00     0.167 HD
HETATM   40  C   UNL     1      36.058  -4.126 -36.846  1.00  0.00     0.142 A 
HETATM   41  C   UNL     1      37.079  -2.074 -37.246  1.00  0.00     0.148 A 
HETATM   42  N   UNL     1      34.855  -3.589 -36.715  1.00  0.00    -0.336 N 
HETATM   43  C   UNL     1      34.788  -2.224 -36.847  1.00  0.00     0.183 A 
ATOM     44  HN  UNL     1      34.028  -4.155 -36.529  1.00  0.00     0.168 HD
HETATM   45  N   UNL     1      35.917  -1.517 -37.123  1.00  0.00    -0.339 N 
ATOM     46  HN  UNL     1      35.844  -0.506 -37.237  1.00  0.00     0.167 HD
HETATM   47  N   UNL     1      38.115  -1.118 -37.515  1.00  0.00    -0.080 NA
ENDBRANCH  32  35
BRANCH  33  48
HETATM   48  O   UNL     1      36.037  -7.432 -34.344  1.00  0.00    -0.388 OA
ATOM     49  HO  UNL     1      36.202  -8.315 -34.652  1.00  0.00     0.210 HD
ENDBRANCH  33  48
BRANCH  34  50
HETATM   50  O   UNL     1      33.848  -8.863 -35.201  1.00  0.00    -0.390 OA
ATOM     51  HO  UNL     1      33.462  -9.319 -35.939  1.00  0.00     0.210 HD
ENDBRANCH  34  50
ENDBRANCH  29  30
ENDBRANCH  28  29
ENDBRANCH   1  28
TORSDOF 15
ENDMDL
MODEL 10
REMARK VINA RESULT:   -10.168      1.805      2.403
REMARK INTER + INTRA:         -20.626
REMARK INTER:                 -18.482
REMARK INTRA:                  -2.144
REMARK UNBOUND:                -2.729
REMARK  15 active torsions:
REMARK  status: ('A' for Active; 'I' for Inactive)
REMARK    1  A    between atoms: P_1  and  O_28 
REMARK    2  A    between atoms: P_1  and  O_4 
REMARK    3  A    between atoms: O_4  and  C_5 
REMARK    4  A    between atoms: C_5  and  C_6 
REMARK    5  A    between atoms: C_8  and  O_9 
REMARK    6  A    between atoms: C_11  and  O_12 
REMARK    7  A    between atoms: C_14  and  N_15 
REMARK    8  A    between atoms: O_28  and  P_29 
REMARK    9  A    between atoms: P_29  and  O_32 
REMARK   10  A    between atoms: O_32  and  C_33 
REMARK   11  A    between atoms: C_33  and  C_34 
REMARK   12  A    between atoms: C_36  and  O_37 
REMARK   13  A    between atoms: C_39  and  O_40 
REMARK   14  A    between atoms: C_42  and  N_43 
REMARK   15  A    between atoms: C_45  and  C_46 
ROOT
HETATM    1  P   UNL     1      31.350  -4.712 -37.002  1.00  0.00     0.417 P 
HETATM    2  O   UNL     1      30.921  -5.691 -35.936  1.00  0.00    -0.624 OA
HETATM    3  O   UNL     1      32.024  -5.236 -38.236  1.00  0.00    -0.624 OA
ENDROOT
BRANCH   1   4
HETATM    4  O   UNL     1      30.003  -3.924 -37.359  1.00  0.00    -0.180 OA
BRANCH   4   5
HETATM    5  P   UNL     1      28.769  -4.307 -38.343  1.00  0.00     0.417 P 
HETATM    6  O   UNL     1      29.255  -4.563 -39.728  1.00  0.00    -0.624 OA
HETATM    7  O   UNL     1      27.613  -3.399 -38.133  1.00  0.00    -0.624 OA
BRANCH   5   8
HETATM    8  O   UNL     1      28.460  -5.774 -37.729  1.00  0.00    -0.287 OA
BRANCH   8   9
HETATM    9  C   UNL     1      27.428  -5.867 -36.725  1.00  0.00     0.216 C 
BRANCH   9  10
HETATM   10  C   UNL     1      27.315  -7.343 -36.294  1.00  0.00     0.180 C 
HETATM   11  O   UNL     1      26.009  -7.777 -36.314  1.00  0.00    -0.354 OA
HETATM   12  C   UNL     1      26.011  -9.118 -37.114  1.00  0.00     0.251 C 
HETATM   13  C   UNL     1      27.058  -8.918 -38.005  1.00  0.00     0.198 C 
HETATM   14  C   UNL     1      28.191  -8.297 -37.156  1.00  0.00     0.182 C 
BRANCH  12  15
HETATM   15  N   UNL     1      24.668  -9.193 -37.636  1.00  0.00    -0.382 N 
HETATM   16  C   UNL     1      24.305  -8.437 -38.780  1.00  0.00     0.120 C 
HETATM   17  C   UNL     1      22.901  -8.409 -39.179  1.00  0.00     0.024 C 
HETATM   18  C   UNL     1      21.929  -9.401 -38.628  1.00  0.00     0.043 C 
HETATM   19  C   UNL     1      22.326  -9.884 -37.245  1.00  0.00     0.002 C 
HETATM   20  C   UNL     1      23.724  -9.884 -36.840  1.00  0.00     0.159 C 
BRANCH  19  21
HETATM   21  C   UNL     1      21.292 -10.528 -36.391  1.00  0.00     0.258 C 
HETATM   22  O   UNL     1      20.123 -10.343 -36.640  1.00  0.00    -0.272 OA
HETATM   23  N   UNL     1      21.763 -11.279 -35.286  1.00  0.00    -0.058 NA
ENDBRANCH  19  21
ENDBRANCH  12  15
BRANCH  13  24
HETATM   24  O   UNL     1      27.479 -10.159 -38.608  1.00  0.00    -0.389 OA
ATOM     25  HO  UNL     1      26.791 -10.536 -39.143  1.00  0.00     0.210 HD
ENDBRANCH  13  24
BRANCH  14  26
HETATM   26  O   UNL     1      28.777  -9.349 -36.395  1.00  0.00    -0.390 OA
ATOM     27  HO  UNL     1      28.844 -10.162 -36.881  1.00  0.00     0.210 HD
ENDBRANCH  14  26
ENDBRANCH   9  10
ENDBRANCH   8   9
ENDBRANCH   5   8
ENDBRANCH   4   5
ENDBRANCH   1   4
BRANCH   1  28
HETATM   28  O   UNL     1      32.331  -3.620 -36.359  1.00  0.00    -0.287 OA
BRANCH  28  29
HETATM   29  C   UNL     1      31.911  -2.275 -36.294  1.00  0.00     0.216 C 
BRANCH  29  30
HETATM   30  C   UNL     1      32.873  -1.431 -37.201  1.00  0.00     0.180 C 
HETATM   31  O   UNL     1      34.133  -1.566 -36.692  1.00  0.00    -0.353 OA
HETATM   32  C   UNL     1      35.060  -1.574 -37.905  1.00  0.00     0.262 C 
HETATM   33  C   UNL     1      34.374  -2.333 -38.863  1.00  0.00     0.198 C 
HETATM   34  C   UNL     1      32.888  -1.896 -38.690  1.00  0.00     0.182 C 
BRANCH  32  35
HETATM   35  N   UNL     1      36.332  -2.149 -37.437  1.00  0.00    -0.297 N 
HETATM   36  C   UNL     1      37.559  -1.727 -37.832  1.00  0.00     0.188 A 
HETATM   37  N   UNL     1      38.501  -2.448 -37.157  1.00  0.00    -0.346 N 
HETATM   38  C   UNL     1      37.821  -3.317 -36.388  1.00  0.00     0.119 A 
ATOM     39  HN  UNL     1      39.514  -2.349 -37.222  1.00  0.00     0.167 HD
HETATM   40  C   UNL     1      36.491  -3.152 -36.559  1.00  0.00     0.142 A 
HETATM   41  C   UNL     1      38.223  -4.312 -35.528  1.00  0.00     0.148 A 
HETATM   42  N   UNL     1      35.552  -3.866 -35.959  1.00  0.00    -0.336 N 
HETATM   43  C   UNL     1      35.996  -4.856 -35.117  1.00  0.00     0.183 A 
ATOM     44  HN  UNL     1      34.559  -3.692 -36.113  1.00  0.00     0.168 HD
HETATM   45  N   UNL     1      37.330  -5.031 -34.926  1.00  0.00    -0.339 N 
ATOM     46  HN  UNL     1      37.641  -5.757 -34.281  1.00  0.00     0.167 HD
HETATM   47  N   UNL     1      39.560  -4.701 -35.179  1.00  0.00    -0.080 NA
ENDBRANCH  32  35
BRANCH  33  48
HETATM   48  O   UNL     1      34.863  -2.119 -40.227  1.00  0.00    -0.388 OA
ATOM     49  HO  UNL     1      35.741  -1.756 -40.244  1.00  0.00     0.210 HD
ENDBRANCH  33  48
BRANCH  34  50
HETATM   50  O   UNL     1      32.497  -0.886 -39.550  1.00  0.00    -0.390 OA
ATOM     51  HO  UNL     1      32.015  -0.204 -39.098  1.00  0.00     0.210 HD
ENDBRANCH  34  50
ENDBRANCH  29  30
ENDBRANCH  28  29
ENDBRANCH   1  28
TORSDOF 15
ENDMDL
MODEL 11
REMARK VINA RESULT:   -10.168      4.098      4.893
REMARK INTER + INTRA:         -20.624
REMARK INTER:                 -18.680
REMARK INTRA:                  -1.944
REMARK UNBOUND:                -2.729
REMARK  15 active torsions:
REMARK  status: ('A' for Active; 'I' for Inactive)
REMARK    1  A    between atoms: P_1  and  O_28 
REMARK    2  A    between atoms: P_1  and  O_4 
REMARK    3  A    between atoms: O_4  and  C_5 
REMARK    4  A    between atoms: C_5  and  C_6 
REMARK    5  A    between atoms: C_8  and  O_9 
REMARK    6  A    between atoms: C_11  and  O_12 
REMARK    7  A    between atoms: C_14  and  N_15 
REMARK    8  A    between atoms: O_28  and  P_29 
REMARK    9  A    between atoms: P_29  and  O_32 
REMARK   10  A    between atoms: O_32  and  C_33 
REMARK   11  A    between atoms: C_33  and  C_34 
REMARK   12  A    between atoms: C_36  and  O_37 
REMARK   13  A    between atoms: C_39  and  O_40 
REMARK   14  A    between atoms: C_42  and  N_43 
REMARK   15  A    between atoms: C_45  and  C_46 
ROOT
HETATM    1  P   UNL     1      30.798  -4.261 -38.340  1.00  0.00     0.417 P 
HETATM    2  O   UNL     1      30.899  -3.848 -39.789  1.00  0.00    -0.624 OA
HETATM    3  O   UNL     1      30.723  -3.194 -37.287  1.00  0.00    -0.624 OA
ENDROOT
BRANCH   1   4
HETATM    4  O   UNL     1      29.509  -5.211 -38.305  1.00  0.00    -0.180 OA
BRANCH   4   5
HETATM    5  P   UNL     1      27.966  -4.935 -38.726  1.00  0.00     0.417 P 
HETATM    6  O   UNL     1      27.664  -5.535 -40.056  1.00  0.00    -0.624 OA
HETATM    7  O   UNL     1      27.579  -3.527 -38.457  1.00  0.00    -0.624 OA
BRANCH   5   8
HETATM    8  O   UNL     1      27.276  -5.931 -37.651  1.00  0.00    -0.287 OA
BRANCH   8   9
HETATM    9  C   UNL     1      28.061  -6.310 -36.501  1.00  0.00     0.216 C 
BRANCH   9  10
HETATM   10  C   UNL     1      27.640  -7.734 -36.085  1.00  0.00     0.180 C 
HETATM   11  O   UNL     1      26.288  -7.929 -36.248  1.00  0.00    -0.354 OA
HETATM   12  C   UNL     1      26.136  -9.265 -37.043  1.00  0.00     0.251 C 
HETATM   13  C   UNL     1      27.292  -9.272 -37.814  1.00  0.00     0.198 C 
HETATM   14  C   UNL     1      28.419  -8.845 -36.846  1.00  0.00     0.182 C 
BRANCH  12  15
HETATM   15  N   UNL     1      24.866  -9.110 -37.709  1.00  0.00    -0.382 N 
HETATM   16  C   UNL     1      24.719  -8.159 -38.751  1.00  0.00     0.120 C 
HETATM   17  C   UNL     1      23.383  -7.914 -39.287  1.00  0.00     0.024 C 
HETATM   18  C   UNL     1      22.261  -8.860 -39.005  1.00  0.00     0.043 C 
HETATM   19  C   UNL     1      22.439  -9.582 -37.682  1.00  0.00     0.002 C 
HETATM   20  C   UNL     1      23.770  -9.799 -37.137  1.00  0.00     0.159 C 
BRANCH  19  21
HETATM   21  C   UNL     1      21.251 -10.222 -37.055  1.00  0.00     0.258 C 
HETATM   22  O   UNL     1      21.336 -10.646 -35.926  1.00  0.00    -0.272 OA
HETATM   23  N   UNL     1      20.098 -10.346 -37.869  1.00  0.00    -0.058 NA
ENDBRANCH  19  21
ENDBRANCH  12  15
BRANCH  13  24
HETATM   24  O   UNL     1      27.548 -10.579 -38.367  1.00  0.00    -0.389 OA
ATOM     25  HO  UNL     1      27.037 -11.248 -37.926  1.00  0.00     0.210 HD
ENDBRANCH  13  24
BRANCH  14  26
HETATM   26  O   UNL     1      28.722  -9.969 -36.025  1.00  0.00    -0.390 OA
ATOM     27  HO  UNL     1      29.562  -9.891 -35.588  1.00  0.00     0.210 HD
ENDBRANCH  14  26
ENDBRANCH   9  10
ENDBRANCH   8   9
ENDBRANCH   5   8
ENDBRANCH   4   5
ENDBRANCH   1   4
BRANCH   1  28
HETATM   28  O   UNL     1      32.039  -5.203 -37.966  1.00  0.00    -0.287 OA
BRANCH  28  29
HETATM   29  C   UNL     1      33.156  -4.638 -37.314  1.00  0.00     0.216 C 
BRANCH  29  30
HETATM   30  C   UNL     1      33.509  -5.554 -36.091  1.00  0.00     0.180 C 
HETATM   31  O   UNL     1      33.642  -6.829 -36.564  1.00  0.00    -0.353 OA
HETATM   32  C   UNL     1      34.759  -7.454 -35.731  1.00  0.00     0.262 C 
HETATM   33  C   UNL     1      35.703  -6.428 -35.589  1.00  0.00     0.198 C 
HETATM   34  C   UNL     1      34.836  -5.150 -35.377  1.00  0.00     0.182 C 
BRANCH  32  35
HETATM   35  N   UNL     1      35.216  -8.631 -36.488  1.00  0.00    -0.297 N 
HETATM   36  C   UNL     1      36.053  -8.583 -37.555  1.00  0.00     0.188 A 
HETATM   37  N   UNL     1      36.300  -9.859 -37.967  1.00  0.00    -0.346 N 
HETATM   38  C   UNL     1      35.580 -10.656 -37.158  1.00  0.00     0.119 A 
ATOM     39  HN  UNL     1      36.907 -10.151 -38.733  1.00  0.00     0.167 HD
HETATM   40  C   UNL     1      34.902  -9.914 -36.255  1.00  0.00     0.142 A 
HETATM   41  C   UNL     1      35.398 -12.018 -37.113  1.00  0.00     0.148 A 
HETATM   42  N   UNL     1      34.086 -10.399 -35.331  1.00  0.00    -0.336 N 
HETATM   43  C   UNL     1      33.924 -11.763 -35.328  1.00  0.00     0.183 A 
ATOM     44  HN  UNL     1      33.608  -9.796 -34.662  1.00  0.00     0.168 HD
HETATM   45  N   UNL     1      34.606 -12.525 -36.223  1.00  0.00    -0.339 N 
ATOM     46  HN  UNL     1      34.489 -13.538 -36.193  1.00  0.00     0.167 HD
HETATM   47  N   UNL     1      35.983 -13.023 -37.956  1.00  0.00    -0.080 NA
ENDBRANCH  32  35
BRANCH  33  48
HETATM   48  O   UNL     1      36.640  -6.655 -34.485  1.00  0.00    -0.388 OA
ATOM     49  HO  UNL     1      36.363  -6.229 -33.682  1.00  0.00     0.210 HD
ENDBRANCH  33  48
BRANCH  34  50
HETATM   50  O   UNL     1      34.629  -4.828 -34.048  1.00  0.00    -0.390 OA
ATOM     51  HO  UNL     1      34.734  -3.897 -33.890  1.00  0.00     0.210 HD
ENDBRANCH  34  50
ENDBRANCH  29  30
ENDBRANCH  28  29
ENDBRANCH   1  28
TORSDOF 15
ENDMDL
MODEL 12
REMARK VINA RESULT:   -10.094      2.288      3.325
REMARK INTER + INTRA:         -20.495
REMARK INTER:                 -18.319
REMARK INTRA:                  -2.176
REMARK UNBOUND:                -2.729
REMARK  15 active torsions:
REMARK  status: ('A' for Active; 'I' for Inactive)
REMARK    1  A    between atoms: P_1  and  O_28 
REMARK    2  A    between atoms: P_1  and  O_4 
REMARK    3  A    between atoms: O_4  and  C_5 
REMARK    4  A    between atoms: C_5  and  C_6 
REMARK    5  A    between atoms: C_8  and  O_9 
REMARK    6  A    between atoms: C_11  and  O_12 
REMARK    7  A    between atoms: C_14  and  N_15 
REMARK    8  A    between atoms: O_28  and  P_29 
REMARK    9  A    between atoms: P_29  and  O_32 
REMARK   10  A    between atoms: O_32  and  C_33 
REMARK   11  A    between atoms: C_33  and  C_34 
REMARK   12  A    between atoms: C_36  and  O_37 
REMARK   13  A    between atoms: C_39  and  O_40 
REMARK   14  A    between atoms: C_42  and  N_43 
REMARK   15  A    between atoms: C_45  and  C_46 
ROOT
HETATM    1  P   UNL     1      30.568  -3.840 -39.903  1.00  0.00     0.417 P 
HETATM    2  O   UNL     1      31.701  -4.713 -40.386  1.00  0.00    -0.624 OA
HETATM    3  O   UNL     1      29.484  -3.461 -40.869  1.00  0.00    -0.624 OA
ENDROOT
BRANCH   1   4
HETATM    4  O   UNL     1      29.980  -4.642 -38.648  1.00  0.00    -0.180 OA
BRANCH   4   5
HETATM    5  P   UNL     1      28.878  -4.222 -37.532  1.00  0.00     0.417 P 
HETATM    6  O   UNL     1      27.592  -3.833 -38.177  1.00  0.00    -0.624 OA
HETATM    7  O   UNL     1      29.471  -3.337 -36.498  1.00  0.00    -0.624 OA
BRANCH   5   8
HETATM    8  O   UNL     1      28.614  -5.703 -36.932  1.00  0.00    -0.287 OA
BRANCH   8   9
HETATM    9  C   UNL     1      27.310  -5.969 -36.374  1.00  0.00     0.216 C 
BRANCH   9  10
HETATM   10  C   UNL     1      27.215  -7.480 -36.084  1.00  0.00     0.180 C 
HETATM   11  O   UNL     1      25.918  -7.931 -36.171  1.00  0.00    -0.354 OA
HETATM   12  C   UNL     1      25.958  -9.192 -37.091  1.00  0.00     0.251 C 
HETATM   13  C   UNL     1      27.018  -8.894 -37.939  1.00  0.00     0.198 C 
HETATM   14  C   UNL     1      28.124  -8.336 -37.013  1.00  0.00     0.182 C 
BRANCH  12  15
HETATM   15  N   UNL     1      24.626  -9.239 -37.645  1.00  0.00    -0.382 N 
HETATM   16  C   UNL     1      24.294  -8.440 -38.769  1.00  0.00     0.120 C 
HETATM   17  C   UNL     1      22.899  -8.388 -39.198  1.00  0.00     0.024 C 
HETATM   18  C   UNL     1      21.909  -9.393 -38.704  1.00  0.00     0.043 C 
HETATM   19  C   UNL     1      22.273  -9.929 -37.331  1.00  0.00     0.002 C 
HETATM   20  C   UNL     1      23.661  -9.952 -36.897  1.00  0.00     0.159 C 
BRANCH  19  21
HETATM   21  C   UNL     1      21.216 -10.596 -36.525  1.00  0.00     0.258 C 
HETATM   22  O   UNL     1      20.110 -10.727 -36.995  1.00  0.00    -0.272 OA
HETATM   23  N   UNL     1      21.575 -10.985 -35.211  1.00  0.00    -0.058 NA
ENDBRANCH  19  21
ENDBRANCH  12  15
BRANCH  13  24
HETATM   24  O   UNL     1      27.473 -10.066 -38.645  1.00  0.00    -0.389 OA
ATOM     25  HO  UNL     1      28.362 -10.294 -38.402  1.00  0.00     0.210 HD
ENDBRANCH  13  24
BRANCH  14  26
HETATM   26  O   UNL     1      28.714  -9.445 -36.341  1.00  0.00    -0.390 OA
ATOM     27  HO  UNL     1      29.486  -9.776 -36.783  1.00  0.00     0.210 HD
ENDBRANCH  14  26
ENDBRANCH   9  10
ENDBRANCH   8   9
ENDBRANCH   5   8
ENDBRANCH   4   5
ENDBRANCH   1   4
BRANCH   1  28
HETATM   28  O   UNL     1      31.162  -2.477 -39.305  1.00  0.00    -0.287 OA
BRANCH  28  29
HETATM   29  C   UNL     1      32.515  -2.436 -38.907  1.00  0.00     0.216 C 
BRANCH  29  30
HETATM   30  C   UNL     1      32.606  -3.041 -37.464  1.00  0.00     0.180 C 
HETATM   31  O   UNL     1      33.634  -3.941 -37.465  1.00  0.00    -0.353 OA
HETATM   32  C   UNL     1      34.273  -3.827 -36.082  1.00  0.00     0.262 C 
HETATM   33  C   UNL     1      34.260  -2.453 -35.806  1.00  0.00     0.198 C 
HETATM   34  C   UNL     1      32.885  -1.974 -36.360  1.00  0.00     0.182 C 
BRANCH  32  35
HETATM   35  N   UNL     1      35.609  -4.434 -36.204  1.00  0.00    -0.297 N 
HETATM   36  C   UNL     1      36.136  -5.318 -35.321  1.00  0.00     0.188 A 
HETATM   37  N   UNL     1      37.360  -5.707 -35.779  1.00  0.00    -0.346 N 
HETATM   38  C   UNL     1      37.563  -5.024 -36.919  1.00  0.00     0.119 A 
ATOM     39  HN  UNL     1      37.993  -6.379 -35.346  1.00  0.00     0.167 HD
HETATM   40  C   UNL     1      36.502  -4.231 -37.185  1.00  0.00     0.142 A 
HETATM   41  C   UNL     1      38.620  -4.970 -37.797  1.00  0.00     0.148 A 
HETATM   42  N   UNL     1      36.401  -3.417 -38.224  1.00  0.00    -0.336 N 
HETATM   43  C   UNL     1      37.482  -3.386 -39.070  1.00  0.00     0.183 A 
ATOM     44  HN  UNL     1      35.570  -2.849 -38.387  1.00  0.00     0.168 HD
HETATM   45  N   UNL     1      38.555  -4.184 -38.824  1.00  0.00    -0.339 N 
ATOM     46  HN  UNL     1      39.340  -4.162 -39.475  1.00  0.00     0.167 HD
HETATM   47  N   UNL     1      39.860  -5.692 -37.744  1.00  0.00    -0.080 NA
ENDBRANCH  32  35
BRANCH  33  48
HETATM   48  O   UNL     1      34.422  -2.151 -34.381  1.00  0.00    -0.388 OA
ATOM     49  HO  UNL     1      34.108  -1.283 -34.157  1.00  0.00     0.210 HD
ENDBRANCH  33  48
BRANCH  34  50
HETATM   50  O   UNL     1      31.879  -1.938 -35.412  1.00  0.00    -0.390 OA
ATOM     51  HO  UNL     1      31.526  -2.802 -35.238  1.00  0.00     0.210 HD
ENDBRANCH  34  50
ENDBRANCH  29  30
ENDBRANCH  28  29
ENDBRANCH   1  28
TORSDOF 15
ENDMDL
MODEL 13
REMARK VINA RESULT:    -9.843      2.231      3.351
REMARK INTER + INTRA:         -20.053
REMARK INTER:                 -18.329
REMARK INTRA:                  -1.724
REMARK UNBOUND:                -2.729
REMARK  15 active torsions:
REMARK  status: ('A' for Active; 'I' for Inactive)
REMARK    1  A    between atoms: P_1  and  O_28 
REMARK    2  A    between atoms: P_1  and  O_4 
REMARK    3  A    between atoms: O_4  and  C_5 
REMARK    4  A    between atoms: C_5  and  C_6 
REMARK    5  A    between atoms: C_8  and  O_9 
REMARK    6  A    between atoms: C_11  and  O_12 
REMARK    7  A    between atoms: C_14  and  N_15 
REMARK    8  A    between atoms: O_28  and  P_29 
REMARK    9  A    between atoms: P_29  and  O_32 
REMARK   10  A    between atoms: O_32  and  C_33 
REMARK   11  A    between atoms: C_33  and  C_34 
REMARK   12  A    between atoms: C_36  and  O_37 
REMARK   13  A    between atoms: C_39  and  O_40 
REMARK   14  A    between atoms: C_42  and  N_43 
REMARK   15  A    between atoms: C_45  and  C_46 
ROOT
HETATM    1  P   UNL     1      31.380  -4.826 -37.282  1.00  0.00     0.417 P 
HETATM    2  O   UNL     1      31.157  -5.884 -36.229  1.00  0.00    -0.624 OA
HETATM    3  O   UNL     1      31.862  -5.246 -38.640  1.00  0.00    -0.624 OA
ENDROOT
BRANCH   1   4
HETATM    4  O   UNL     1      29.970  -4.072 -37.368  1.00  0.00    -0.180 OA
BRANCH   4   5
HETATM    5  P   UNL     1      28.679  -4.324 -38.320  1.00  0.00     0.417 P 
HETATM    6  O   UNL     1      29.094  -4.503 -39.739  1.00  0.00    -0.624 OA
HETATM    7  O   UNL     1      27.580  -3.380 -37.995  1.00  0.00    -0.624 OA
BRANCH   5   8
HETATM    8  O   UNL     1      28.322  -5.815 -37.796  1.00  0.00    -0.287 OA
BRANCH   8   9
HETATM    9  C   UNL     1      27.619  -5.925 -36.541  1.00  0.00     0.216 C 
BRANCH   9  10
HETATM   10  C   UNL     1      27.490  -7.423 -36.197  1.00  0.00     0.180 C 
HETATM   11  O   UNL     1      26.180  -7.839 -36.235  1.00  0.00    -0.354 OA
HETATM   12  C   UNL     1      26.162  -9.131 -37.112  1.00  0.00     0.251 C 
HETATM   13  C   UNL     1      27.207  -8.892 -37.996  1.00  0.00     0.198 C 
HETATM   14  C   UNL     1      28.351  -8.334 -37.118  1.00  0.00     0.182 C 
BRANCH  12  15
HETATM   15  N   UNL     1      24.815  -9.159 -37.631  1.00  0.00    -0.382 N 
HETATM   16  C   UNL     1      24.457  -8.333 -38.726  1.00  0.00     0.120 C 
HETATM   17  C   UNL     1      23.051  -8.265 -39.116  1.00  0.00     0.024 C 
HETATM   18  C   UNL     1      22.070  -9.277 -38.619  1.00  0.00     0.043 C 
HETATM   19  C   UNL     1      22.467  -9.846 -37.269  1.00  0.00     0.002 C 
HETATM   20  C   UNL     1      23.867  -9.885 -36.873  1.00  0.00     0.159 C 
BRANCH  19  21
HETATM   21  C   UNL     1      21.430 -10.526 -36.449  1.00  0.00     0.258 C 
HETATM   22  O   UNL     1      21.751 -11.057 -35.412  1.00  0.00    -0.272 OA
HETATM   23  N   UNL     1      20.119 -10.556 -36.988  1.00  0.00    -0.058 NA
ENDBRANCH  19  21
ENDBRANCH  12  15
BRANCH  13  24
HETATM   24  O   UNL     1      27.611 -10.099 -38.673  1.00  0.00    -0.389 OA
ATOM     25  HO  UNL     1      28.486 -10.364 -38.416  1.00  0.00     0.210 HD
ENDBRANCH  13  24
BRANCH  14  26
HETATM   26  O   UNL     1      28.928  -9.436 -36.423  1.00  0.00    -0.390 OA
ATOM     27  HO  UNL     1      29.144  -9.230 -35.521  1.00  0.00     0.210 HD
ENDBRANCH  14  26
ENDBRANCH   9  10
ENDBRANCH   8   9
ENDBRANCH   5   8
ENDBRANCH   4   5
ENDBRANCH   1   4
BRANCH   1  28
HETATM   28  O   UNL     1      32.419  -3.737 -36.732  1.00  0.00    -0.287 OA
BRANCH  28  29
HETATM   29  C   UNL     1      33.555  -3.421 -37.507  1.00  0.00     0.216 C 
BRANCH  29  30
HETATM   30  C   UNL     1      34.816  -3.967 -36.750  1.00  0.00     0.180 C 
HETATM   31  O   UNL     1      34.875  -3.325 -35.545  1.00  0.00    -0.353 OA
HETATM   32  C   UNL     1      35.409  -4.363 -34.561  1.00  0.00     0.262 C 
HETATM   33  C   UNL     1      34.772  -5.555 -34.932  1.00  0.00     0.198 C 
HETATM   34  C   UNL     1      34.764  -5.504 -36.489  1.00  0.00     0.182 C 
BRANCH  32  35
HETATM   35  N   UNL     1      35.071  -3.858 -33.220  1.00  0.00    -0.297 N 
HETATM   36  C   UNL     1      34.210  -2.839 -32.976  1.00  0.00     0.188 A 
HETATM   37  N   UNL     1      34.099  -2.682 -31.626  1.00  0.00    -0.346 N 
HETATM   38  C   UNL     1      34.924  -3.592 -31.078  1.00  0.00     0.119 A 
ATOM     39  HN  UNL     1      33.511  -2.011 -31.131  1.00  0.00     0.167 HD
HETATM   40  C   UNL     1      35.534  -4.311 -32.045  1.00  0.00     0.142 A 
HETATM   41  C   UNL     1      35.259  -3.880 -29.776  1.00  0.00     0.148 A 
HETATM   42  N   UNL     1      36.420  -5.272 -31.833  1.00  0.00    -0.336 N 
HETATM   43  C   UNL     1      36.735  -5.521 -30.520  1.00  0.00     0.183 A 
ATOM     44  HN  UNL     1      36.843  -5.796 -32.600  1.00  0.00     0.168 HD
HETATM   45  N   UNL     1      36.123  -4.813 -29.534  1.00  0.00    -0.339 N 
ATOM     46  HN  UNL     1      36.355  -5.026 -28.564  1.00  0.00     0.167 HD
HETATM   47  N   UNL     1      34.772  -3.265 -28.573  1.00  0.00    -0.080 NA
ENDBRANCH  32  35
BRANCH  33  48
HETATM   48  O   UNL     1      35.443  -6.752 -34.416  1.00  0.00    -0.388 OA
ATOM     49  HO  UNL     1      35.129  -7.548 -34.829  1.00  0.00     0.210 HD
ENDBRANCH  33  48
BRANCH  34  50
HETATM   50  O   UNL     1      35.829  -6.163 -37.077  1.00  0.00    -0.390 OA
ATOM     51  HO  UNL     1      35.574  -6.599 -37.881  1.00  0.00     0.210 HD
ENDBRANCH  34  50
ENDBRANCH  29  30
ENDBRANCH  28  29
ENDBRANCH   1  28
TORSDOF 15
ENDMDL
MODEL 14
REMARK VINA RESULT:    -9.736      1.562     11.329
REMARK INTER + INTRA:         -19.865
REMARK INTER:                 -18.180
REMARK INTRA:                  -1.685
REMARK UNBOUND:                -2.729
REMARK  15 active torsions:
REMARK  status: ('A' for Active; 'I' for Inactive)
REMARK    1  A    between atoms: P_1  and  O_28 
REMARK    2  A    between atoms: P_1  and  O_4 
REMARK    3  A    between atoms: O_4  and  C_5 
REMARK    4  A    between atoms: C_5  and  C_6 
REMARK    5  A    between atoms: C_8  and  O_9 
REMARK    6  A    between atoms: C_11  and  O_12 
REMARK    7  A    between atoms: C_14  and  N_15 
REMARK    8  A    between atoms: O_28  and  P_29 
REMARK    9  A    between atoms: P_29  and  O_32 
REMARK   10  A    between atoms: O_32  and  C_33 
REMARK   11  A    between atoms: C_33  and  C_34 
REMARK   12  A    between atoms: C_36  and  O_37 
REMARK   13  A    between atoms: C_39  and  O_40 
REMARK   14  A    between atoms: C_42  and  N_43 
REMARK   15  A    between atoms: C_45  and  C_46 
ROOT
HETATM    1  P   UNL     1      28.663  -4.488 -38.571  1.00  0.00     0.417 P 
HETATM    2  O   UNL     1      27.523  -3.502 -38.489  1.00  0.00    -0.624 OA
HETATM    3  O   UNL     1      29.280  -4.773 -39.909  1.00  0.00    -0.624 OA
ENDROOT
BRANCH   1   4
HETATM    4  O   UNL     1      29.743  -3.907 -37.540  1.00  0.00    -0.180 OA
BRANCH   4   5
HETATM    5  P   UNL     1      31.220  -4.438 -37.126  1.00  0.00     0.417 P 
HETATM    6  O   UNL     1      31.701  -5.470 -38.087  1.00  0.00    -0.624 OA
HETATM    7  O   UNL     1      31.305  -4.705 -35.668  1.00  0.00    -0.624 OA
BRANCH   5   8
HETATM    8  O   UNL     1      32.040  -3.094 -37.508  1.00  0.00    -0.287 OA
BRANCH   8   9
HETATM    9  C   UNL     1      31.761  -2.491 -38.789  1.00  0.00     0.216 C 
BRANCH   9  10
HETATM   10  C   UNL     1      32.980  -1.635 -39.188  1.00  0.00     0.180 C 
HETATM   11  O   UNL     1      33.722  -1.270 -38.088  1.00  0.00    -0.354 OA
HETATM   12  C   UNL     1      35.204  -1.628 -38.428  1.00  0.00     0.251 C 
HETATM   13  C   UNL     1      35.048  -2.727 -39.264  1.00  0.00     0.198 C 
HETATM   14  C   UNL     1      33.902  -2.336 -40.226  1.00  0.00     0.182 C 
BRANCH  12  15
HETATM   15  N   UNL     1      35.801  -1.830 -37.130  1.00  0.00    -0.382 N 
HETATM   16  C   UNL     1      37.197  -1.653 -36.953  1.00  0.00     0.120 C 
HETATM   17  C   UNL     1      37.788  -2.026 -35.671  1.00  0.00     0.024 C 
HETATM   18  C   UNL     1      36.929  -2.260 -34.471  1.00  0.00     0.043 C 
HETATM   19  C   UNL     1      35.539  -2.742 -34.847  1.00  0.00     0.002 C 
HETATM   20  C   UNL     1      34.965  -2.392 -36.137  1.00  0.00     0.159 C 
BRANCH  19  21
HETATM   21  C   UNL     1      34.713  -3.411 -33.807  1.00  0.00     0.258 C 
HETATM   22  O   UNL     1      33.716  -2.861 -33.400  1.00  0.00    -0.272 OA
HETATM   23  N   UNL     1      35.199  -4.647 -33.313  1.00  0.00    -0.058 NA
ENDBRANCH  19  21
ENDBRANCH  12  15
BRANCH  13  24
HETATM   24  O   UNL     1      36.262  -3.013 -39.989  1.00  0.00    -0.389 OA
ATOM     25  HO  UNL     1      36.184  -3.814 -40.493  1.00  0.00     0.210 HD
ENDBRANCH  13  24
BRANCH  14  26
HETATM   26  O   UNL     1      34.442  -1.433 -41.185  1.00  0.00    -0.390 OA
ATOM     27  HO  UNL     1      34.957  -0.739 -40.790  1.00  0.00     0.210 HD
ENDBRANCH  14  26
ENDBRANCH   9  10
ENDBRANCH   8   9
ENDBRANCH   5   8
ENDBRANCH   4   5
ENDBRANCH   1   4
BRANCH   1  28
HETATM   28  O   UNL     1      28.197  -5.894 -37.959  1.00  0.00    -0.287 OA
BRANCH  28  29
HETATM   29  C   UNL     1      27.707  -5.938 -36.636  1.00  0.00     0.216 C 
BRANCH  29  30
HETATM   30  C   UNL     1      27.334  -7.427 -36.315  1.00  0.00     0.180 C 
HETATM   31  O   UNL     1      26.000  -7.575 -36.568  1.00  0.00    -0.353 OA
HETATM   32  C   UNL     1      25.848  -8.990 -37.122  1.00  0.00     0.262 C 
HETATM   33  C   UNL     1      26.961  -9.157 -37.957  1.00  0.00     0.198 C 
HETATM   34  C   UNL     1      28.119  -8.463 -37.179  1.00  0.00     0.182 C 
BRANCH  32  35
HETATM   35  N   UNL     1      24.541  -9.019 -37.800  1.00  0.00    -0.297 N 
HETATM   36  C   UNL     1      24.289  -8.457 -39.008  1.00  0.00     0.188 A 
HETATM   37  N   UNL     1      22.995  -8.726 -39.346  1.00  0.00    -0.346 N 
HETATM   38  C   UNL     1      22.480  -9.422 -38.317  1.00  0.00     0.119 A 
ATOM     39  HN  UNL     1      22.515  -8.456 -40.205  1.00  0.00     0.167 HD
HETATM   40  C   UNL     1      23.414  -9.597 -37.357  1.00  0.00     0.142 A 
HETATM   41  C   UNL     1      21.225  -9.929 -38.070  1.00  0.00     0.148 A 
HETATM   42  N   UNL     1      23.216 -10.224 -36.208  1.00  0.00    -0.336 N 
HETATM   43  C   UNL     1      21.948 -10.706 -35.997  1.00  0.00     0.183 A 
ATOM     44  HN  UNL     1      23.961 -10.342 -35.521  1.00  0.00     0.168 HD
HETATM   45  N   UNL     1      20.997 -10.546 -36.956  1.00  0.00    -0.339 N 
ATOM     46  HN  UNL     1      20.066 -10.929 -36.790  1.00  0.00     0.167 HD
HETATM   47  N   UNL     1      20.061  -9.871 -38.908  1.00  0.00    -0.080 NA
ENDBRANCH  32  35
BRANCH  33  48
HETATM   48  O   UNL     1      27.254 -10.563 -38.252  1.00  0.00    -0.388 OA
ATOM     49  HO  UNL     1      26.961 -11.146 -37.561  1.00  0.00     0.210 HD
ENDBRANCH  33  48
BRANCH  34  50
HETATM   50  O   UNL     1      28.866  -9.324 -36.397  1.00  0.00    -0.390 OA
ATOM     51  HO  UNL     1      29.768  -9.038 -36.318  1.00  0.00     0.210 HD
ENDBRANCH  34  50
ENDBRANCH  29  30
ENDBRANCH  28  29
ENDBRANCH   1  28
TORSDOF 15
ENDMDL
MODEL 15
REMARK VINA RESULT:    -9.453      4.160      6.480
REMARK INTER + INTRA:         -19.366
REMARK INTER:                 -17.297
REMARK INTRA:                  -2.069
REMARK UNBOUND:                -2.729
REMARK  15 active torsions:
REMARK  status: ('A' for Active; 'I' for Inactive)
REMARK    1  A    between atoms: P_1  and  O_28 
REMARK    2  A    between atoms: P_1  and  O_4 
REMARK    3  A    between atoms: O_4  and  C_5 
REMARK    4  A    between atoms: C_5  and  C_6 
REMARK    5  A    between atoms: C_8  and  O_9 
REMARK    6  A    between atoms: C_11  and  O_12 
REMARK    7  A    between atoms: C_14  and  N_15 
REMARK    8  A    between atoms: O_28  and  P_29 
REMARK    9  A    between atoms: P_29  and  O_32 
REMARK   10  A    between atoms: O_32  and  C_33 
REMARK   11  A    between atoms: C_33  and  C_34 
REMARK   12  A    between atoms: C_36  and  O_37 
REMARK   13  A    between atoms: C_39  and  O_40 
REMARK   14  A    between atoms: C_42  and  N_43 
REMARK   15  A    between atoms: C_45  and  C_46 
ROOT
HETATM    1  P   UNL     1      35.142  -3.351 -36.487  1.00  0.00     0.417 P 
HETATM    2  O   UNL     1      35.243  -3.721 -37.947  1.00  0.00    -0.624 OA
HETATM    3  O   UNL     1      35.817  -2.099 -36.009  1.00  0.00    -0.624 OA
ENDROOT
BRANCH   1   4
HETATM    4  O   UNL     1      33.565  -3.307 -36.213  1.00  0.00    -0.180 OA
BRANCH   4   5
HETATM    5  P   UNL     1      32.463  -2.148 -36.493  1.00  0.00     0.417 P 
HETATM    6  O   UNL     1      33.060  -1.026 -37.270  1.00  0.00    -0.624 OA
HETATM    7  O   UNL     1      31.675  -1.850 -35.271  1.00  0.00    -0.624 OA
BRANCH   5   8
HETATM    8  O   UNL     1      31.566  -2.969 -37.564  1.00  0.00    -0.287 OA
BRANCH   8   9
HETATM    9  C   UNL     1      31.138  -4.295 -37.190  1.00  0.00     0.216 C 
BRANCH   9  10
HETATM   10  C   UNL     1      30.424  -4.925 -38.403  1.00  0.00     0.180 C 
HETATM   11  O   UNL     1      29.577  -5.940 -38.019  1.00  0.00    -0.354 OA
HETATM   12  C   UNL     1      28.210  -5.648 -38.714  1.00  0.00     0.251 C 
HETATM   13  C   UNL     1      28.212  -4.260 -38.779  1.00  0.00     0.198 C 
HETATM   14  C   UNL     1      29.636  -3.886 -39.251  1.00  0.00     0.182 C 
BRANCH  12  15
HETATM   15  N   UNL     1      27.254  -6.294 -37.847  1.00  0.00    -0.382 N 
HETATM   16  C   UNL     1      27.459  -6.303 -36.444  1.00  0.00     0.120 C 
HETATM   17  C   UNL     1      26.563  -7.105 -35.615  1.00  0.00     0.024 C 
HETATM   18  C   UNL     1      25.273  -7.623 -36.163  1.00  0.00     0.043 C 
HETATM   19  C   UNL     1      25.335  -7.842 -37.664  1.00  0.00     0.002 C 
HETATM   20  C   UNL     1      26.249  -7.060 -38.482  1.00  0.00     0.159 C 
BRANCH  19  21
HETATM   21  C   UNL     1      24.320  -8.726 -38.297  1.00  0.00     0.258 C 
HETATM   22  O   UNL     1      23.367  -8.229 -38.851  1.00  0.00    -0.272 OA
HETATM   23  N   UNL     1      24.516 -10.121 -38.147  1.00  0.00    -0.058 NA
ENDBRANCH  19  21
ENDBRANCH  12  15
BRANCH  13  24
HETATM   24  O   UNL     1      27.214  -3.774 -39.700  1.00  0.00    -0.389 OA
ATOM     25  HO  UNL     1      26.344  -3.816 -39.321  1.00  0.00     0.210 HD
ENDBRANCH  13  24
BRANCH  14  26
HETATM   26  O   UNL     1      29.703  -4.150 -40.649  1.00  0.00    -0.390 OA
ATOM     27  HO  UNL     1      29.275  -3.481 -41.172  1.00  0.00     0.210 HD
ENDBRANCH  14  26
ENDBRANCH   9  10
ENDBRANCH   8   9
ENDBRANCH   5   8
ENDBRANCH   4   5
ENDBRANCH   1   4
BRANCH   1  28
HETATM   28  O   UNL     1      35.702  -4.557 -35.591  1.00  0.00    -0.287 OA
BRANCH  28  29
HETATM   29  C   UNL     1      36.300  -4.266 -34.346  1.00  0.00     0.216 C 
BRANCH  29  30
HETATM   30  C   UNL     1      35.172  -4.298 -33.257  1.00  0.00     0.180 C 
HETATM   31  O   UNL     1      35.689  -4.919 -32.155  1.00  0.00    -0.353 OA
HETATM   32  C   UNL     1      35.064  -4.206 -30.958  1.00  0.00     0.262 C 
HETATM   33  C   UNL     1      35.055  -2.854 -31.326  1.00  0.00     0.198 C 
HETATM   34  C   UNL     1      34.675  -2.880 -32.837  1.00  0.00     0.182 C 
BRANCH  32  35
HETATM   35  N   UNL     1      35.913  -4.540 -29.802  1.00  0.00    -0.297 N 
HETATM   36  C   UNL     1      37.037  -5.297 -29.866  1.00  0.00     0.188 A 
HETATM   37  N   UNL     1      37.591  -5.351 -28.621  1.00  0.00    -0.346 N 
HETATM   38  C   UNL     1      36.771  -4.649 -27.819  1.00  0.00     0.119 A 
ATOM     39  HN  UNL     1      38.452  -5.826 -28.352  1.00  0.00     0.167 HD
HETATM   40  C   UNL     1      35.732  -4.157 -28.529  1.00  0.00     0.142 A 
HETATM   41  C   UNL     1      36.787  -4.387 -26.469  1.00  0.00     0.148 A 
HETATM   42  N   UNL     1      34.739  -3.439 -28.027  1.00  0.00    -0.336 N 
HETATM   43  C   UNL     1      34.788  -3.209 -26.674  1.00  0.00     0.183 A 
ATOM     44  HN  UNL     1      33.984  -3.078 -28.610  1.00  0.00     0.168 HD
HETATM   45  N   UNL     1      35.831  -3.689 -25.946  1.00  0.00    -0.339 N 
ATOM     46  HN  UNL     1      35.861  -3.490 -24.946  1.00  0.00     0.167 HD
HETATM   47  N   UNL     1      37.758  -4.796 -25.494  1.00  0.00    -0.080 NA
ENDBRANCH  32  35
BRANCH  33  48
HETATM   48  O   UNL     1      34.125  -2.047 -30.531  1.00  0.00    -0.388 OA
ATOM     49  HO  UNL     1      34.408  -1.951 -29.629  1.00  0.00     0.210 HD
ENDBRANCH  33  48
BRANCH  34  50
HETATM   50  O   UNL     1      33.324  -2.715 -33.078  1.00  0.00    -0.390 OA
ATOM     51  HO  UNL     1      32.793  -3.066 -32.373  1.00  0.00     0.210 HD
ENDBRANCH  34  50
ENDBRANCH  29  30
ENDBRANCH  28  29
ENDBRANCH   1  28
TORSDOF 15
ENDMDL
MODEL 16
REMARK VINA RESULT:    -9.349      3.273      5.632
REMARK INTER + INTRA:         -19.183
REMARK INTER:                 -15.489
REMARK INTRA:                  -3.694
REMARK UNBOUND:                -2.729
REMARK  15 active torsions:
REMARK  status: ('A' for Active; 'I' for Inactive)
REMARK    1  A    between atoms: P_1  and  O_28 
REMARK    2  A    between atoms: P_1  and  O_4 
REMARK    3  A    between atoms: O_4  and  C_5 
REMARK    4  A    between atoms: C_5  and  C_6 
REMARK    5  A    between atoms: C_8  and  O_9 
REMARK    6  A    between atoms: C_11  and  O_12 
REMARK    7  A    between atoms: C_14  and  N_15 
REMARK    8  A    between atoms: O_28  and  P_29 
REMARK    9  A    between atoms: P_29  and  O_32 
REMARK   10  A    between atoms: O_32  and  C_33 
REMARK   11  A    between atoms: C_33  and  C_34 
REMARK   12  A    between atoms: C_36  and  O_37 
REMARK   13  A    between atoms: C_39  and  O_40 
REMARK   14  A    between atoms: C_42  and  N_43 
REMARK   15  A    between atoms: C_45  and  C_46 
ROOT
HETATM    1  P   UNL     1      37.038  -7.491 -37.187  1.00  0.00     0.417 P 
HETATM    2  O   UNL     1      37.492  -8.213 -35.942  1.00  0.00    -0.624 OA
HETATM    3  O   UNL     1      37.111  -8.204 -38.505  1.00  0.00    -0.624 OA
ENDROOT
BRANCH   1   4
HETATM    4  O   UNL     1      35.538  -7.048 -36.844  1.00  0.00    -0.180 OA
BRANCH   4   5
HETATM    5  P   UNL     1      34.187  -7.922 -36.629  1.00  0.00     0.417 P 
HETATM    6  O   UNL     1      33.897  -8.103 -35.179  1.00  0.00    -0.624 OA
HETATM    7  O   UNL     1      34.162  -9.102 -37.529  1.00  0.00    -0.624 OA
BRANCH   5   8
HETATM    8  O   UNL     1      33.131  -6.801 -37.130  1.00  0.00    -0.287 OA
BRANCH   8   9
HETATM    9  C   UNL     1      32.843  -5.712 -36.228  1.00  0.00     0.216 C 
BRANCH   9  10
HETATM   10  C   UNL     1      32.155  -4.593 -37.036  1.00  0.00     0.180 C 
HETATM   11  O   UNL     1      31.238  -5.103 -37.925  1.00  0.00    -0.354 OA
HETATM   12  C   UNL     1      29.923  -4.291 -37.704  1.00  0.00     0.251 C 
HETATM   13  C   UNL     1      30.003  -3.978 -36.353  1.00  0.00     0.198 C 
HETATM   14  C   UNL     1      31.467  -3.528 -36.135  1.00  0.00     0.182 C 
BRANCH  12  15
HETATM   15  N   UNL     1      28.893  -5.204 -38.139  1.00  0.00    -0.382 N 
HETATM   16  C   UNL     1      28.259  -5.018 -39.393  1.00  0.00     0.120 C 
HETATM   17  C   UNL     1      27.113  -5.859 -39.726  1.00  0.00     0.024 C 
HETATM   18  C   UNL     1      26.821  -7.098 -38.942  1.00  0.00     0.043 C 
HETATM   19  C   UNL     1      27.314  -7.000 -37.510  1.00  0.00     0.002 C 
HETATM   20  C   UNL     1      28.438  -6.138 -37.178  1.00  0.00     0.159 C 
BRANCH  19  21
HETATM   21  C   UNL     1      26.753  -7.934 -36.498  1.00  0.00     0.258 C 
HETATM   22  O   UNL     1      27.174  -9.066 -36.442  1.00  0.00    -0.272 OA
HETATM   23  N   UNL     1      25.697  -7.436 -35.694  1.00  0.00    -0.058 NA
ENDBRANCH  19  21
ENDBRANCH  12  15
BRANCH  13  24
HETATM   24  O   UNL     1      29.078  -2.930 -35.999  1.00  0.00    -0.389 OA
ATOM     25  HO  UNL     1      29.351  -2.092 -36.355  1.00  0.00     0.210 HD
ENDBRANCH  13  24
BRANCH  14  26
HETATM   26  O   UNL     1      31.586  -2.206 -36.652  1.00  0.00    -0.390 OA
ATOM     27  HO  UNL     1      31.448  -1.538 -35.991  1.00  0.00     0.210 HD
ENDBRANCH  14  26
ENDBRANCH   9  10
ENDBRANCH   8   9
ENDBRANCH   5   8
ENDBRANCH   4   5
ENDBRANCH   1   4
BRANCH   1  28
HETATM   28  O   UNL     1      37.865  -6.127 -37.344  1.00  0.00    -0.287 OA
BRANCH  28  29
HETATM   29  C   UNL     1      38.435  -5.813 -38.596  1.00  0.00     0.216 C 
BRANCH  29  30
HETATM   30  C   UNL     1      38.108  -4.310 -38.905  1.00  0.00     0.180 C 
HETATM   31  O   UNL     1      36.941  -4.008 -38.263  1.00  0.00    -0.353 OA
HETATM   32  C   UNL     1      37.094  -2.559 -37.806  1.00  0.00     0.262 C 
HETATM   33  C   UNL     1      38.425  -2.470 -37.375  1.00  0.00     0.198 C 
HETATM   34  C   UNL     1      39.212  -3.322 -38.416  1.00  0.00     0.182 C 
BRANCH  32  35
HETATM   35  N   UNL     1      36.078  -2.357 -36.759  1.00  0.00    -0.297 N 
HETATM   36  C   UNL     1      35.209  -1.316 -36.722  1.00  0.00     0.188 A 
HETATM   37  N   UNL     1      34.384  -1.483 -35.648  1.00  0.00    -0.346 N 
HETATM   38  C   UNL     1      34.793  -2.609 -35.038  1.00  0.00     0.119 A 
ATOM     39  HN  UNL     1      33.613  -0.877 -35.366  1.00  0.00     0.167 HD
HETATM   40  C   UNL     1      35.838  -3.148 -35.702  1.00  0.00     0.142 A 
HETATM   41  C   UNL     1      34.374  -3.255 -33.898  1.00  0.00     0.148 A 
HETATM   42  N   UNL     1      36.481  -4.248 -35.345  1.00  0.00    -0.336 N 
HETATM   43  C   UNL     1      36.040  -4.857 -34.195  1.00  0.00     0.183 A 
ATOM     44  HN  UNL     1      37.258  -4.623 -35.890  1.00  0.00     0.168 HD
HETATM   45  N   UNL     1      34.982  -4.333 -33.519  1.00  0.00    -0.339 N 
ATOM     46  HN  UNL     1      34.655  -4.810 -32.678  1.00  0.00     0.167 HD
HETATM   47  N   UNL     1      33.307  -2.892 -33.009  1.00  0.00    -0.080 NA
ENDBRANCH  32  35
BRANCH  33  48
HETATM   48  O   UNL     1      38.915  -1.090 -37.300  1.00  0.00    -0.388 OA
ATOM     49  HO  UNL     1      39.835  -1.021 -37.526  1.00  0.00     0.210 HD
ENDBRANCH  33  48
BRANCH  34  50
HETATM   50  O   UNL     1      39.743  -2.585 -39.458  1.00  0.00    -0.390 OA
ATOM     51  HO  UNL     1      39.297  -1.754 -39.567  1.00  0.00     0.210 HD
ENDBRANCH  34  50
ENDBRANCH  29  30
ENDBRANCH  28  29
ENDBRANCH   1  28
TORSDOF 15
ENDMDL
MODEL 17
REMARK VINA RESULT:    -9.346      4.720      6.409
REMARK INTER + INTRA:         -19.178
REMARK INTER:                 -17.000
REMARK INTRA:                  -2.177
REMARK UNBOUND:                -2.729
REMARK  15 active torsions:
REMARK  status: ('A' for Active; 'I' for Inactive)
REMARK    1  A    between atoms: P_1  and  O_28 
REMARK    2  A    between atoms: P_1  and  O_4 
REMARK    3  A    between atoms: O_4  and  C_5 
REMARK    4  A    between atoms: C_5  and  C_6 
REMARK    5  A    between atoms: C_8  and  O_9 
REMARK    6  A    between atoms: C_11  and  O_12 
REMARK    7  A    between atoms: C_14  and  N_15 
REMARK    8  A    between atoms: O_28  and  P_29 
REMARK    9  A    between atoms: P_29  and  O_32 
REMARK   10  A    between atoms: O_32  and  C_33 
REMARK   11  A    between atoms: C_33  and  C_34 
REMARK   12  A    between atoms: C_36  and  O_37 
REMARK   13  A    between atoms: C_39  and  O_40 
REMARK   14  A    between atoms: C_42  and  N_43 
REMARK   15  A    between atoms: C_45  and  C_46 
ROOT
HETATM    1  P   UNL     1      34.532  -3.021 -37.246  1.00  0.00     0.417 P 
HETATM    2  O   UNL     1      34.376  -3.009 -38.747  1.00  0.00    -0.624 OA
HETATM    3  O   UNL     1      34.998  -1.772 -36.557  1.00  0.00    -0.624 OA
ENDROOT
BRANCH   1   4
HETATM    4  O   UNL     1      33.091  -3.479 -36.718  1.00  0.00    -0.180 OA
BRANCH   4   5
HETATM    5  P   UNL     1      32.126  -2.858 -35.569  1.00  0.00     0.417 P 
HETATM    6  O   UNL     1      31.745  -1.456 -35.898  1.00  0.00    -0.624 OA
HETATM    7  O   UNL     1      32.635  -3.175 -34.211  1.00  0.00    -0.624 OA
BRANCH   5   8
HETATM    8  O   UNL     1      30.810  -3.740 -35.905  1.00  0.00    -0.287 OA
BRANCH   8   9
HETATM    9  C   UNL     1      30.998  -5.155 -36.120  1.00  0.00     0.216 C 
BRANCH   9  10
HETATM   10  C   UNL     1      30.388  -5.514 -37.490  1.00  0.00     0.180 C 
HETATM   11  O   UNL     1      29.390  -6.454 -37.368  1.00  0.00    -0.354 OA
HETATM   12  C   UNL     1      28.169  -5.894 -38.164  1.00  0.00     0.251 C 
HETATM   13  C   UNL     1      28.334  -4.523 -38.015  1.00  0.00     0.198 C 
HETATM   14  C   UNL     1      29.842  -4.275 -38.255  1.00  0.00     0.182 C 
BRANCH  12  15
HETATM   15  N   UNL     1      27.040  -6.525 -37.524  1.00  0.00    -0.382 N 
HETATM   16  C   UNL     1      26.936  -6.530 -36.109  1.00  0.00     0.120 C 
HETATM   17  C   UNL     1      25.872  -7.317 -35.493  1.00  0.00     0.024 C 
HETATM   18  C   UNL     1      24.724  -7.822 -36.307  1.00  0.00     0.043 C 
HETATM   19  C   UNL     1      25.107  -8.048 -37.758  1.00  0.00     0.002 C 
HETATM   20  C   UNL     1      26.187  -7.282 -38.360  1.00  0.00     0.159 C 
BRANCH  19  21
HETATM   21  C   UNL     1      24.242  -8.922 -38.595  1.00  0.00     0.258 C 
HETATM   22  O   UNL     1      23.704  -8.458 -39.573  1.00  0.00    -0.272 OA
HETATM   23  N   UNL     1      24.057 -10.251 -38.138  1.00  0.00    -0.058 NA
ENDBRANCH  19  21
ENDBRANCH  12  15
BRANCH  13  24
HETATM   24  O   UNL     1      27.529  -3.790 -38.961  1.00  0.00    -0.389 OA
ATOM     25  HO  UNL     1      27.053  -4.375 -39.538  1.00  0.00     0.210 HD
ENDBRANCH  13  24
BRANCH  14  26
HETATM   26  O   UNL     1      30.066  -4.349 -39.660  1.00  0.00    -0.390 OA
ATOM     27  HO  UNL     1      30.234  -5.235 -39.960  1.00  0.00     0.210 HD
ENDBRANCH  14  26
ENDBRANCH   9  10
ENDBRANCH   8   9
ENDBRANCH   5   8
ENDBRANCH   4   5
ENDBRANCH   1   4
BRANCH   1  28
HETATM   28  O   UNL     1      35.539  -4.194 -36.823  1.00  0.00    -0.287 OA
BRANCH  28  29
HETATM   29  C   UNL     1      36.100  -4.182 -35.528  1.00  0.00     0.216 C 
BRANCH  29  30
HETATM   30  C   UNL     1      35.449  -5.356 -34.717  1.00  0.00     0.180 C 
HETATM   31  O   UNL     1      35.073  -6.313 -35.616  1.00  0.00    -0.353 OA
HETATM   32  C   UNL     1      35.308  -7.646 -34.911  1.00  0.00     0.262 C 
HETATM   33  C   UNL     1      36.513  -7.466 -34.219  1.00  0.00     0.198 C 
HETATM   34  C   UNL     1      36.419  -6.006 -33.681  1.00  0.00     0.182 C 
BRANCH  32  35
HETATM   35  N   UNL     1      35.338  -8.665 -35.974  1.00  0.00    -0.297 N 
HETATM   36  C   UNL     1      35.595  -8.406 -37.281  1.00  0.00     0.188 A 
HETATM   37  N   UNL     1      35.594  -9.587 -37.963  1.00  0.00    -0.346 N 
HETATM   38  C   UNL     1      35.305 -10.538 -37.056  1.00  0.00     0.119 A 
ATOM     39  HN  UNL     1      35.775  -9.723 -38.957  1.00  0.00     0.167 HD
HETATM   40  C   UNL     1      35.134  -9.984 -35.836  1.00  0.00     0.142 A 
HETATM   41  C   UNL     1      35.130 -11.898 -37.157  1.00  0.00     0.148 A 
HETATM   42  N   UNL     1      34.821 -10.649 -34.735  1.00  0.00    -0.336 N 
HETATM   43  C   UNL     1      34.645 -12.003 -34.881  1.00  0.00     0.183 A 
ATOM     44  HN  UNL     1      34.718 -10.185 -33.833  1.00  0.00     0.168 HD
HETATM   45  N   UNL     1      34.822 -12.579 -36.100  1.00  0.00    -0.339 N 
ATOM     46  HN  UNL     1      34.707 -13.589 -36.185  1.00  0.00     0.167 HD
HETATM   47  N   UNL     1      35.239 -12.726 -38.324  1.00  0.00    -0.080 NA
ENDBRANCH  32  35
BRANCH  33  48
HETATM   48  O   UNL     1      36.713  -8.443 -33.145  1.00  0.00    -0.388 OA
ATOM     49  HO  UNL     1      37.627  -8.532 -32.903  1.00  0.00     0.210 HD
ENDBRANCH  33  48
BRANCH  34  50
HETATM   50  O   UNL     1      35.933  -5.914 -32.390  1.00  0.00    -0.390 OA
ATOM     51  HO  UNL     1      35.133  -6.414 -32.277  1.00  0.00     0.210 HD
ENDBRANCH  34  50
ENDBRANCH  29  30
ENDBRANCH  28  29
ENDBRANCH   1  28
TORSDOF 15
ENDMDL
MODEL 18
REMARK VINA RESULT:    -9.305      3.780      5.426
REMARK INTER + INTRA:         -19.107
REMARK INTER:                 -16.163
REMARK INTRA:                  -2.944
REMARK UNBOUND:                -2.729
REMARK  15 active torsions:
REMARK  status: ('A' for Active; 'I' for Inactive)
REMARK    1  A    between atoms: P_1  and  O_28 
REMARK    2  A    between atoms: P_1  and  O_4 
REMARK    3  A    between atoms: O_4  and  C_5 
REMARK    4  A    between atoms: C_5  and  C_6 
REMARK    5  A    between atoms: C_8  and  O_9 
REMARK    6  A    between atoms: C_11  and  O_12 
REMARK    7  A    between atoms: C_14  and  N_15 
REMARK    8  A    between atoms: O_28  and  P_29 
REMARK    9  A    between atoms: P_29  and  O_32 
REMARK   10  A    between atoms: O_32  and  C_33 
REMARK   11  A    between atoms: C_33  and  C_34 
REMARK   12  A    between atoms: C_36  and  O_37 
REMARK   13  A    between atoms: C_39  and  O_40 
REMARK   14  A    between atoms: C_42  and  N_43 
REMARK   15  A    between atoms: C_45  and  C_46 
ROOT
HETATM    1  P   UNL     1      33.977  -3.523 -34.558  1.00  0.00     0.417 P 
HETATM    2  O   UNL     1      33.902  -2.731 -33.276  1.00  0.00    -0.624 OA
HETATM    3  O   UNL     1      33.308  -4.865 -34.620  1.00  0.00    -0.624 OA
ENDROOT
BRANCH   1   4
HETATM    4  O   UNL     1      33.386  -2.522 -35.659  1.00  0.00    -0.180 OA
BRANCH   4   5
HETATM    5  P   UNL     1      33.144  -2.708 -37.254  1.00  0.00     0.417 P 
HETATM    6  O   UNL     1      33.630  -4.040 -37.712  1.00  0.00    -0.624 OA
HETATM    7  O   UNL     1      33.543  -1.490 -38.003  1.00  0.00    -0.624 OA
BRANCH   5   8
HETATM    8  O   UNL     1      31.531  -2.845 -37.205  1.00  0.00    -0.287 OA
BRANCH   8   9
HETATM    9  C   UNL     1      30.986  -4.129 -36.833  1.00  0.00     0.216 C 
BRANCH   9  10
HETATM   10  C   UNL     1      30.409  -4.787 -38.102  1.00  0.00     0.180 C 
HETATM   11  O   UNL     1      29.577  -5.838 -37.792  1.00  0.00    -0.354 OA
HETATM   12  C   UNL     1      28.264  -5.604 -38.605  1.00  0.00     0.251 C 
HETATM   13  C   UNL     1      28.213  -4.217 -38.673  1.00  0.00     0.198 C 
HETATM   14  C   UNL     1      29.655  -3.782 -39.019  1.00  0.00     0.182 C 
BRANCH  12  15
HETATM   15  N   UNL     1      27.265  -6.292 -37.823  1.00  0.00    -0.382 N 
HETATM   16  C   UNL     1      27.373  -6.337 -36.409  1.00  0.00     0.120 C 
HETATM   17  C   UNL     1      26.440  -7.178 -35.666  1.00  0.00     0.024 C 
HETATM   18  C   UNL     1      25.201  -7.704 -36.315  1.00  0.00     0.043 C 
HETATM   19  C   UNL     1      25.369  -7.879 -37.814  1.00  0.00     0.002 C 
HETATM   20  C   UNL     1      26.321  -7.058 -38.546  1.00  0.00     0.159 C 
BRANCH  19  21
HETATM   21  C   UNL     1      24.418  -8.763 -38.538  1.00  0.00     0.258 C 
HETATM   22  O   UNL     1      23.748  -8.303 -39.433  1.00  0.00    -0.272 OA
HETATM   23  N   UNL     1      24.319 -10.099 -38.075  1.00  0.00    -0.058 NA
ENDBRANCH  19  21
ENDBRANCH  12  15
BRANCH  13  24
HETATM   24  O   UNL     1      27.279  -3.774 -39.678  1.00  0.00    -0.389 OA
ATOM     25  HO  UNL     1      27.720  -3.304 -40.377  1.00  0.00     0.210 HD
ENDBRANCH  13  24
BRANCH  14  26
HETATM   26  O   UNL     1      29.856  -4.041 -40.405  1.00  0.00    -0.390 OA
ATOM     27  HO  UNL     1      30.259  -3.312 -40.862  1.00  0.00     0.210 HD
ENDBRANCH  14  26
ENDBRANCH   9  10
ENDBRANCH   8   9
ENDBRANCH   5   8
ENDBRANCH   4   5
ENDBRANCH   1   4
BRANCH   1  28
HETATM   28  O   UNL     1      35.513  -3.746 -34.958  1.00  0.00    -0.287 OA
BRANCH  28  29
HETATM   29  C   UNL     1      36.396  -2.645 -34.927  1.00  0.00     0.216 C 
BRANCH  29  30
HETATM   30  C   UNL     1      37.483  -2.875 -36.034  1.00  0.00     0.180 C 
HETATM   31  O   UNL     1      37.671  -4.224 -36.146  1.00  0.00    -0.353 OA
HETATM   32  C   UNL     1      37.934  -4.473 -37.629  1.00  0.00     0.262 C 
HETATM   33  C   UNL     1      37.044  -3.615 -38.290  1.00  0.00     0.198 C 
HETATM   34  C   UNL     1      37.073  -2.315 -37.431  1.00  0.00     0.182 C 
BRANCH  32  35
HETATM   35  N   UNL     1      37.700  -5.911 -37.844  1.00  0.00    -0.297 N 
HETATM   36  C   UNL     1      38.542  -6.736 -38.515  1.00  0.00     0.188 A 
HETATM   37  N   UNL     1      38.034  -8.001 -38.469  1.00  0.00    -0.346 N 
HETATM   38  C   UNL     1      36.874  -7.910 -37.794  1.00  0.00     0.119 A 
ATOM     39  HN  UNL     1      38.449  -8.844 -38.865  1.00  0.00     0.167 HD
HETATM   40  C   UNL     1      36.652  -6.632 -37.416  1.00  0.00     0.142 A 
HETATM   41  C   UNL     1      35.911  -8.836 -37.469  1.00  0.00     0.148 A 
HETATM   42  N   UNL     1      35.588  -6.209 -36.753  1.00  0.00    -0.336 N 
HETATM   43  C   UNL     1      34.645  -7.163 -36.456  1.00  0.00     0.183 A 
ATOM     44  HN  UNL     1      35.474  -5.234 -36.478  1.00  0.00     0.168 HD
HETATM   45  N   UNL     1      34.857  -8.456 -36.821  1.00  0.00    -0.339 N 
ATOM     46  HN  UNL     1      34.155  -9.154 -36.575  1.00  0.00     0.167 HD
HETATM   47  N   UNL     1      35.893 -10.242 -37.758  1.00  0.00    -0.080 NA
ENDBRANCH  32  35
BRANCH  33  48
HETATM   48  O   UNL     1      37.410  -3.369 -39.687  1.00  0.00    -0.388 OA
ATOM     49  HO  UNL     1      36.724  -3.626 -40.292  1.00  0.00     0.210 HD
ENDBRANCH  33  48
BRANCH  34  50
HETATM   50  O   UNL     1      37.966  -1.362 -37.887  1.00  0.00    -0.390 OA
ATOM     51  HO  UNL     1      37.850  -0.530 -37.445  1.00  0.00     0.210 HD
ENDBRANCH  34  50
ENDBRANCH  29  30
ENDBRANCH  28  29
ENDBRANCH   1  28
TORSDOF 15
ENDMDL
MODEL 19
REMARK VINA RESULT:    -9.304      4.862      6.848
REMARK INTER + INTRA:         -19.104
REMARK INTER:                 -16.489
REMARK INTRA:                  -2.616
REMARK UNBOUND:                -2.729
REMARK  15 active torsions:
REMARK  status: ('A' for Active; 'I' for Inactive)
REMARK    1  A    between atoms: P_1  and  O_28 
REMARK    2  A    between atoms: P_1  and  O_4 
REMARK    3  A    between atoms: O_4  and  C_5 
REMARK    4  A    between atoms: C_5  and  C_6 
REMARK    5  A    between atoms: C_8  and  O_9 
REMARK    6  A    between atoms: C_11  and  O_12 
REMARK    7  A    between atoms: C_14  and  N_15 
REMARK    8  A    between atoms: O_28  and  P_29 
REMARK    9  A    between atoms: P_29  and  O_32 
REMARK   10  A    between atoms: O_32  and  C_33 
REMARK   11  A    between atoms: C_33  and  C_34 
REMARK   12  A    between atoms: C_36  and  O_37 
REMARK   13  A    between atoms: C_39  and  O_40 
REMARK   14  A    between atoms: C_42  and  N_43 
REMARK   15  A    between atoms: C_45  and  C_46 
ROOT
HETATM    1  P   UNL     1      34.752  -5.146 -36.439  1.00  0.00     0.417 P 
HETATM    2  O   UNL     1      35.717  -4.544 -37.431  1.00  0.00    -0.624 OA
HETATM    3  O   UNL     1      35.217  -5.391 -35.034  1.00  0.00    -0.624 OA
ENDROOT
BRANCH   1   4
HETATM    4  O   UNL     1      33.498  -4.151 -36.477  1.00  0.00    -0.180 OA
BRANCH   4   5
HETATM    5  P   UNL     1      33.132  -2.929 -37.481  1.00  0.00     0.417 P 
HETATM    6  O   UNL     1      33.203  -3.371 -38.902  1.00  0.00    -0.624 OA
HETATM    7  O   UNL     1      33.816  -1.676 -37.073  1.00  0.00    -0.624 OA
BRANCH   5   8
HETATM    8  O   UNL     1      31.549  -2.850 -37.146  1.00  0.00    -0.287 OA
BRANCH   8   9
HETATM    9  C   UNL     1      30.895  -4.074 -36.750  1.00  0.00     0.216 C 
BRANCH   9  10
HETATM   10  C   UNL     1      30.353  -4.757 -38.021  1.00  0.00     0.180 C 
HETATM   11  O   UNL     1      29.524  -5.811 -37.714  1.00  0.00    -0.354 OA
HETATM   12  C   UNL     1      28.228  -5.603 -38.560  1.00  0.00     0.251 C 
HETATM   13  C   UNL     1      28.165  -4.218 -38.651  1.00  0.00     0.198 C 
HETATM   14  C   UNL     1      29.612  -3.774 -38.971  1.00  0.00     0.182 C 
BRANCH  12  15
HETATM   15  N   UNL     1      27.217  -6.288 -37.791  1.00  0.00    -0.382 N 
HETATM   16  C   UNL     1      27.300  -6.319 -36.375  1.00  0.00     0.120 C 
HETATM   17  C   UNL     1      26.356  -7.158 -35.642  1.00  0.00     0.024 C 
HETATM   18  C   UNL     1      25.132  -7.695 -36.309  1.00  0.00     0.043 C 
HETATM   19  C   UNL     1      25.328  -7.883 -37.802  1.00  0.00     0.002 C 
HETATM   20  C   UNL     1      26.291  -7.065 -38.524  1.00  0.00     0.159 C 
BRANCH  19  21
HETATM   21  C   UNL     1      24.394  -8.778 -38.536  1.00  0.00     0.258 C 
HETATM   22  O   UNL     1      23.633  -8.301 -39.345  1.00  0.00    -0.272 OA
HETATM   23  N   UNL     1      24.423 -10.149 -38.181  1.00  0.00    -0.058 NA
ENDBRANCH  19  21
ENDBRANCH  12  15
BRANCH  13  24
HETATM   24  O   UNL     1      27.252  -3.799 -39.685  1.00  0.00    -0.389 OA
ATOM     25  HO  UNL     1      26.681  -4.510 -39.952  1.00  0.00     0.210 HD
ENDBRANCH  13  24
BRANCH  14  26
HETATM   26  O   UNL     1      29.846  -4.053 -40.348  1.00  0.00    -0.390 OA
ATOM     27  HO  UNL     1      29.517  -3.372 -40.924  1.00  0.00     0.210 HD
ENDBRANCH  14  26
ENDBRANCH   9  10
ENDBRANCH   8   9
ENDBRANCH   5   8
ENDBRANCH   4   5
ENDBRANCH   1   4
BRANCH   1  28
HETATM   28  O   UNL     1      34.210  -6.545 -37.004  1.00  0.00    -0.287 OA
BRANCH  28  29
HETATM   29  C   UNL     1      33.027  -7.091 -36.462  1.00  0.00     0.216 C 
BRANCH  29  30
HETATM   30  C   UNL     1      33.174  -8.652 -36.472  1.00  0.00     0.180 C 
HETATM   31  O   UNL     1      34.018  -8.974 -37.497  1.00  0.00    -0.353 OA
HETATM   32  C   UNL     1      34.821 -10.173 -36.997  1.00  0.00     0.262 C 
HETATM   33  C   UNL     1      35.086  -9.878 -35.653  1.00  0.00     0.198 C 
HETATM   34  C   UNL     1      33.764  -9.227 -35.146  1.00  0.00     0.182 C 
BRANCH  32  35
HETATM   35  N   UNL     1      36.004 -10.257 -37.870  1.00  0.00    -0.297 N 
HETATM   36  C   UNL     1      36.423 -11.387 -38.492  1.00  0.00     0.188 A 
HETATM   37  N   UNL     1      37.511 -11.081 -39.256  1.00  0.00    -0.346 N 
HETATM   38  C   UNL     1      37.749  -9.772 -39.054  1.00  0.00     0.119 A 
ATOM     39  HN  UNL     1      38.038 -11.714 -39.857  1.00  0.00     0.167 HD
HETATM   40  C   UNL     1      36.839  -9.259 -38.197  1.00  0.00     0.142 A 
HETATM   41  C   UNL     1      38.724  -8.921 -39.517  1.00  0.00     0.148 A 
HETATM   42  N   UNL     1      36.812  -8.003 -37.779  1.00  0.00    -0.336 N 
HETATM   43  C   UNL     1      37.809  -7.188 -38.257  1.00  0.00     0.183 A 
ATOM     44  HN  UNL     1      36.094  -7.661 -37.141  1.00  0.00     0.168 HD
HETATM   45  N   UNL     1      38.727  -7.686 -39.128  1.00  0.00    -0.339 N 
ATOM     46  HN  UNL     1      39.448  -7.061 -39.488  1.00  0.00     0.167 HD
HETATM   47  N   UNL     1      39.805  -9.210 -40.417  1.00  0.00    -0.080 NA
ENDBRANCH  32  35
BRANCH  33  48
HETATM   48  O   UNL     1      35.463 -11.057 -34.868  1.00  0.00    -0.388 OA
ATOM     49  HO  UNL     1      34.713 -11.592 -34.636  1.00  0.00     0.210 HD
ENDBRANCH  33  48
BRANCH  34  50
HETATM   50  O   UNL     1      32.897 -10.117 -34.539  1.00  0.00    -0.390 OA
ATOM     51  HO  UNL     1      32.303  -9.679 -33.942  1.00  0.00     0.210 HD
ENDBRANCH  34  50
ENDBRANCH  29  30
ENDBRANCH  28  29
ENDBRANCH   1  28
TORSDOF 15
ENDMDL
MODEL 20
REMARK VINA RESULT:    -9.242      5.342      7.123
REMARK INTER + INTRA:         -18.995
REMARK INTER:                 -16.816
REMARK INTRA:                  -2.179
REMARK UNBOUND:                -2.729
REMARK  15 active torsions:
REMARK  status: ('A' for Active; 'I' for Inactive)
REMARK    1  A    between atoms: P_1  and  O_28 
REMARK    2  A    between atoms: P_1  and  O_4 
REMARK    3  A    between atoms: O_4  and  C_5 
REMARK    4  A    between atoms: C_5  and  C_6 
REMARK    5  A    between atoms: C_8  and  O_9 
REMARK    6  A    between atoms: C_11  and  O_12 
REMARK    7  A    between atoms: C_14  and  N_15 
REMARK    8  A    between atoms: O_28  and  P_29 
REMARK    9  A    between atoms: P_29  and  O_32 
REMARK   10  A    between atoms: O_32  and  C_33 
REMARK   11  A    between atoms: C_33  and  C_34 
REMARK   12  A    between atoms: C_36  and  O_37 
REMARK   13  A    between atoms: C_39  and  O_40 
REMARK   14  A    between atoms: C_42  and  N_43 
REMARK   15  A    between atoms: C_45  and  C_46 
ROOT
HETATM    1  P   UNL     1      35.207  -3.865 -35.437  1.00  0.00     0.417 P 
HETATM    2  O   UNL     1      36.488  -3.104 -35.193  1.00  0.00    -0.624 OA
HETATM    3  O   UNL     1      34.552  -4.569 -34.286  1.00  0.00    -0.624 OA
ENDROOT
BRANCH   1   4
HETATM    4  O   UNL     1      34.234  -2.771 -36.087  1.00  0.00    -0.180 OA
BRANCH   4   5
HETATM    5  P   UNL     1      33.111  -2.897 -37.253  1.00  0.00     0.417 P 
HETATM    6  O   UNL     1      33.711  -3.417 -38.513  1.00  0.00    -0.624 OA
HETATM    7  O   UNL     1      32.249  -1.690 -37.300  1.00  0.00    -0.624 OA
BRANCH   5   8
HETATM    8  O   UNL     1      32.300  -4.152 -36.626  1.00  0.00    -0.287 OA
BRANCH   8   9
HETATM    9  C   UNL     1      30.859  -4.079 -36.633  1.00  0.00     0.216 C 
BRANCH   9  10
HETATM   10  C   UNL     1      30.353  -4.793 -37.903  1.00  0.00     0.180 C 
HETATM   11  O   UNL     1      29.515  -5.840 -37.593  1.00  0.00    -0.354 OA
HETATM   12  C   UNL     1      28.243  -5.653 -38.479  1.00  0.00     0.251 C 
HETATM   13  C   UNL     1      28.182  -4.270 -38.604  1.00  0.00     0.198 C 
HETATM   14  C   UNL     1      29.637  -3.833 -38.895  1.00  0.00     0.182 C 
BRANCH  12  15
HETATM   15  N   UNL     1      27.211  -6.320 -37.721  1.00  0.00    -0.382 N 
HETATM   16  C   UNL     1      27.251  -6.311 -36.303  1.00  0.00     0.120 C 
HETATM   17  C   UNL     1      26.288  -7.132 -35.575  1.00  0.00     0.024 C 
HETATM   18  C   UNL     1      25.087  -7.694 -36.264  1.00  0.00     0.043 C 
HETATM   19  C   UNL     1      25.330  -7.924 -37.744  1.00  0.00     0.002 C 
HETATM   20  C   UNL     1      26.311  -7.122 -38.460  1.00  0.00     0.159 C 
BRANCH  19  21
HETATM   21  C   UNL     1      24.422  -8.843 -38.481  1.00  0.00     0.258 C 
HETATM   22  O   UNL     1      24.567 -10.038 -38.361  1.00  0.00    -0.272 OA
HETATM   23  N   UNL     1      23.468  -8.238 -39.336  1.00  0.00    -0.058 NA
ENDBRANCH  19  21
ENDBRANCH  12  15
BRANCH  13  24
HETATM   24  O   UNL     1      27.297  -3.877 -39.672  1.00  0.00    -0.389 OA
ATOM     25  HO  UNL     1      26.761  -3.134 -39.422  1.00  0.00     0.210 HD
ENDBRANCH  13  24
BRANCH  14  26
HETATM   26  O   UNL     1      29.909  -4.144 -40.259  1.00  0.00    -0.390 OA
ATOM     27  HO  UNL     1      30.502  -3.525 -40.667  1.00  0.00     0.210 HD
ENDBRANCH  14  26
ENDBRANCH   9  10
ENDBRANCH   8   9
ENDBRANCH   5   8
ENDBRANCH   4   5
ENDBRANCH   1   4
BRANCH   1  28
HETATM   28  O   UNL     1      35.449  -4.961 -36.581  1.00  0.00    -0.287 OA
BRANCH  28  29
HETATM   29  C   UNL     1      35.782  -6.281 -36.206  1.00  0.00     0.216 C 
BRANCH  29  30
HETATM   30  C   UNL     1      34.655  -7.228 -36.747  1.00  0.00     0.180 C 
HETATM   31  O   UNL     1      35.260  -8.376 -37.175  1.00  0.00    -0.353 OA
HETATM   32  C   UNL     1      34.282  -9.499 -36.839  1.00  0.00     0.262 C 
HETATM   33  C   UNL     1      33.771  -9.150 -35.582  1.00  0.00     0.198 C 
HETATM   34  C   UNL     1      33.591  -7.604 -35.668  1.00  0.00     0.182 C 
BRANCH  32  35
HETATM   35  N   UNL     1      35.069 -10.743 -36.877  1.00  0.00    -0.297 N 
HETATM   36  C   UNL     1      34.938 -11.763 -35.992  1.00  0.00     0.188 A 
HETATM   37  N   UNL     1      35.783 -12.768 -36.364  1.00  0.00    -0.346 N 
HETATM   38  C   UNL     1      36.433 -12.320 -37.453  1.00  0.00     0.119 A 
ATOM     39  HN  UNL     1      35.898 -13.673 -35.910  1.00  0.00     0.167 HD
HETATM   40  C   UNL     1      36.013 -11.075 -37.770  1.00  0.00     0.142 A 
HETATM   41  C   UNL     1      37.422 -12.866 -38.237  1.00  0.00     0.148 A 
HETATM   42  N   UNL     1      36.473 -10.351 -38.778  1.00  0.00    -0.336 N 
HETATM   43  C   UNL     1      37.467 -10.928 -39.529  1.00  0.00     0.183 A 
ATOM     44  HN  UNL     1      36.112  -9.420 -38.984  1.00  0.00     0.168 HD
HETATM   45  N   UNL     1      37.895 -12.184 -39.231  1.00  0.00    -0.339 N 
ATOM     46  HN  UNL     1      38.619 -12.605 -39.812  1.00  0.00     0.167 HD
HETATM   47  N   UNL     1      38.049 -14.152 -38.114  1.00  0.00    -0.080 NA
ENDBRANCH  32  35
BRANCH  33  48
HETATM   48  O   UNL     1      32.518  -9.839 -35.257  1.00  0.00    -0.388 OA
ATOM     49  HO  UNL     1      32.645 -10.769 -35.112  1.00  0.00     0.210 HD
ENDBRANCH  33  48
BRANCH  34  50
HETATM   50  O   UNL     1      32.320  -7.207 -36.038  1.00  0.00    -0.390 OA
ATOM     51  HO  UNL     1      31.858  -6.786 -35.323  1.00  0.00     0.210 HD
ENDBRANCH  34  50
ENDBRANCH  29  30
ENDBRANCH  28  29
ENDBRANCH   1  28
TORSDOF 15
ENDMDL
