REMARK  9 active torsions:
REMARK  status: ('A' for Active; 'I' for Inactive)
REMARK    1  A    between atoms: S_1  and  O_8 
REMARK    2  A    between atoms: P_5  and  O_8 
REMARK    3  A    between atoms: P_5  and  O_9 
REMARK    4  A    between atoms: O_9  and  C_10 
REMARK    5  A    between atoms: C_10  and  C_11 
REMARK    6  A    between atoms: C_13  and  O_14 
REMARK    7  A    between atoms: C_16  and  O_17 
REMARK    8  A    between atoms: C_19  and  N_20 
REMARK    9  A    between atoms: C_25  and  N_26 
ROOT
HETATM    1  C   UNL     1      -3.271   1.390  -1.116  1.00  0.00     0.180 C 
HETATM    2  O   UNL     1      -2.865   0.056  -1.157  1.00  0.00    -0.353 OA
HETATM    3  C   UNL     1      -2.919   1.949  -2.509  1.00  0.00     0.182 C 
HETATM    4  C   UNL     1      -3.074   0.755  -3.409  1.00  0.00     0.198 C 
HETATM    5  C   UNL     1      -2.530  -0.288  -2.469  1.00  0.00     0.262 C 
ENDROOT
BRANCH   5   6
HETATM    6  N   UNL     1      -2.882  -1.685  -2.561  1.00  0.00    -0.297 N 
HETATM    7  C   UNL     1      -4.037  -2.198  -2.382  1.00  0.00     0.188 A 
HETATM    8  N   UNL     1      -3.993  -3.486  -2.442  1.00  0.00    -0.346 N 
HETATM    9  C   UNL     1      -2.751  -3.843  -2.632  1.00  0.00     0.122 A 
ATOM     10  HN  UNL     1      -4.790  -4.116  -2.356  1.00  0.00     0.167 HD
HETATM   11  C   UNL     1      -1.996  -5.076  -2.777  1.00  0.00     0.131 A 
HETATM   12  C   UNL     1      -1.996  -2.615  -2.703  1.00  0.00     0.142 A 
HETATM   13  N   UNL     1      -0.682  -4.970  -2.987  1.00  0.00    -0.337 N 
HETATM   14  C   UNL     1      -0.056  -3.820  -3.047  1.00  0.00     0.183 A 
ATOM     15  HN  UNL     1      -0.139  -5.825  -3.107  1.00  0.00     0.168 HD
HETATM   16  N   UNL     1      -0.679  -2.664  -2.926  1.00  0.00    -0.336 N 
ATOM     17  HN  UNL     1      -0.149  -1.796  -3.004  1.00  0.00     0.168 HD
BRANCH  11  18
HETATM   18  N   UNL     1      -2.600  -6.266  -2.707  1.00  0.00    -0.383 N 
ATOM     19  HN2 UNL     1      -3.604  -6.347  -2.547  1.00  0.00     0.157 HD
ATOM     20  HN1 UNL     1      -2.070  -7.132  -2.809  1.00  0.00     0.157 HD
ENDBRANCH  11  18
ENDBRANCH   5   6
BRANCH   4  21
HETATM   21  O   UNL     1      -2.356   0.802  -4.588  1.00  0.00    -0.388 OA
ATOM     22  HO  UNL     1      -2.454   0.047  -5.157  1.00  0.00     0.210 HD
ENDBRANCH   4  21
BRANCH   1  23
HETATM   23  C   UNL     1      -4.765   1.546  -0.809  1.00  0.00     0.216 C 
BRANCH  23  24
HETATM   24  O   UNL     1      -5.619   0.782  -1.608  1.00  0.00    -0.286 OA
BRANCH  24  25
HETATM   25  P   UNL     1      -7.161   0.803  -1.560  1.00  0.00     0.425 P 
HETATM   26  O   UNL     1      -7.612  -0.375  -2.059  1.00  0.00    -0.623 OA
HETATM   27  O   UNL     1      -7.592   1.229  -0.321  1.00  0.00    -0.623 OA
BRANCH  25  28
HETATM   28  O   UNL     1      -7.591   1.890  -2.574  1.00  0.00    -0.144 OA
BRANCH  28  29
HETATM   29  S   UNL     1      -7.195   3.289  -2.805  1.00  0.00     0.261 S 
HETATM   30  O   UNL     1      -6.123   3.264  -3.498  1.00  0.00    -0.572 OA
HETATM   31  O   UNL     1      -8.133   3.780  -3.528  1.00  0.00    -0.572 OA
HETATM   32  O   UNL     1      -7.058   3.929  -1.705  1.00  0.00    -0.572 OA
ENDBRANCH  28  29
ENDBRANCH  25  28
ENDBRANCH  24  25
ENDBRANCH  23  24
ENDBRANCH   1  23
BRANCH   3  33
HETATM   33  O   UNL     1      -1.636   2.448  -2.487  1.00  0.00    -0.390 OA
ATOM     34  HO  UNL     1      -1.419   2.792  -3.345  1.00  0.00     0.210 HD
ENDBRANCH   3  33
TORSDOF 9
