MODEL 1
REMARK VINA RESULT:    -9.377      0.000      0.000
REMARK INTER + INTRA:         -14.660
REMARK INTER:                 -13.763
REMARK INTRA:                  -0.897
REMARK UNBOUND:                -0.897
REMARK  9 active torsions:
REMARK  status: ('A' for Active; 'I' for Inactive)
REMARK    1  A    between atoms: C_1  and  O_6 
REMARK    2  A    between atoms: C_2  and  O_7 
REMARK    3  A    between atoms: C_3  and  O_9 
REMARK    4  A    between atoms: C_4  and  C_5 
REMARK    5  A    between atoms: C_5  and  O_12 
REMARK    6  A    between atoms: O_6  and  P_17 
REMARK    7  A    between atoms: O_12  and  P_13 
REMARK    8  A    between atoms: P_17  and  O_20 
REMARK    9  A    between atoms: O_20  and  P_21 
ROOT
HETATM    1  C   UNL     1      11.241  19.421   9.161  1.00  0.00     0.304 C 
HETATM    2  C   UNL     1      11.946  20.225   8.111  1.00  0.00     0.205 C 
HETATM    3  C   UNL     1      10.795  20.919   7.423  1.00  0.00     0.182 C 
HETATM    4  C   UNL     1       9.612  19.950   7.512  1.00  0.00     0.180 C 
HETATM    5  O   UNL     1       9.974  19.070   8.595  1.00  0.00    -0.348 OA
ENDROOT
BRANCH   1   6
HETATM    6  O   UNL     1      11.107  20.296  10.319  1.00  0.00    -0.255 OA
BRANCH   6   7
HETATM    7  P   UNL     1      10.077  19.814  11.488  1.00  0.00     0.420 P 
HETATM    8  O   UNL     1       9.929  18.303  11.696  1.00  0.00    -0.624 OA
HETATM    9  O   UNL     1      10.556  20.492  12.735  1.00  0.00    -0.624 OA
BRANCH   7  10
HETATM   10  O   UNL     1       8.597  20.289  11.036  1.00  0.00    -0.173 OA
BRANCH  10  11
HETATM   11  P   UNL     1       8.066  21.866  11.224  1.00  0.00     0.431 P 
HETATM   12  O   UNL     1       6.992  21.907  10.168  1.00  0.00    -0.616 OA
HETATM   13  O   UNL     1       9.222  22.645  10.637  1.00  0.00    -0.616 OA
HETATM   14  O   UNL     1       7.688  21.911  12.731  1.00  0.00    -0.616 OA
ENDBRANCH  10  11
ENDBRANCH   7  10
ENDBRANCH   6   7
ENDBRANCH   1   6
BRANCH   2  15
HETATM   15  O   UNL     1      12.749  21.173   8.817  1.00  0.00    -0.388 OA
ATOM     16  HO  UNL     1      13.622  20.801   8.852  1.00  0.00     0.210 HD
ENDBRANCH   2  15
BRANCH   4  17
HETATM   17  C   UNL     1       9.306  19.171   6.211  1.00  0.00     0.217 C 
BRANCH  17  18
HETATM   18  O   UNL     1       8.704  17.881   6.454  1.00  0.00    -0.280 OA
BRANCH  18  19
HETATM   19  P   UNL     1       7.113  17.651   6.457  1.00  0.00     0.422 P 
HETATM   20  O   UNL     1       6.544  17.993   5.096  1.00  0.00    -0.617 OA
HETATM   21  O   UNL     1       7.013  16.147   6.806  1.00  0.00    -0.617 OA
HETATM   22  O   UNL     1       6.530  18.518   7.544  1.00  0.00    -0.617 OA
ENDBRANCH  18  19
ENDBRANCH  17  18
ENDBRANCH   4  17
BRANCH   3  23
HETATM   23  O   UNL     1      10.633  22.120   8.229  1.00  0.00    -0.390 OA
ATOM     24  HO  UNL     1      10.176  22.822   7.782  1.00  0.00     0.210 HD
ENDBRANCH   3  23
TORSDOF 9
ENDMDL
MODEL 2
REMARK VINA RESULT:    -9.177      1.370      1.736
REMARK INTER + INTRA:         -14.366
REMARK INTER:                 -13.580
REMARK INTRA:                  -0.786
REMARK UNBOUND:                -0.897
REMARK  9 active torsions:
REMARK  status: ('A' for Active; 'I' for Inactive)
REMARK    1  A    between atoms: C_1  and  O_6 
REMARK    2  A    between atoms: C_2  and  O_7 
REMARK    3  A    between atoms: C_3  and  O_9 
REMARK    4  A    between atoms: C_4  and  C_5 
REMARK    5  A    between atoms: C_5  and  O_12 
REMARK    6  A    between atoms: O_6  and  P_17 
REMARK    7  A    between atoms: O_12  and  P_13 
REMARK    8  A    between atoms: P_17  and  O_20 
REMARK    9  A    between atoms: O_20  and  P_21 
ROOT
HETATM    1  C   UNL     1      11.233  19.426   9.147  1.00  0.00     0.304 C 
HETATM    2  C   UNL     1      11.955  20.242   8.117  1.00  0.00     0.205 C 
HETATM    3  C   UNL     1      10.814  20.947   7.422  1.00  0.00     0.182 C 
HETATM    4  C   UNL     1       9.629  19.979   7.483  1.00  0.00     0.180 C 
HETATM    5  O   UNL     1       9.974  19.085   8.560  1.00  0.00    -0.348 OA
ENDROOT
BRANCH   1   6
HETATM    6  O   UNL     1      11.085  20.287  10.314  1.00  0.00    -0.255 OA
BRANCH   6   7
HETATM    7  P   UNL     1      10.012  19.810  11.447  1.00  0.00     0.420 P 
HETATM    8  O   UNL     1       9.831  18.300  11.631  1.00  0.00    -0.624 OA
HETATM    9  O   UNL     1      10.467  20.464  12.716  1.00  0.00    -0.624 OA
BRANCH   7  10
HETATM   10  O   UNL     1       8.555  20.317  10.958  1.00  0.00    -0.173 OA
BRANCH  10  11
HETATM   11  P   UNL     1       8.033  21.892  11.185  1.00  0.00     0.431 P 
HETATM   12  O   UNL     1       6.936  21.954  10.153  1.00  0.00    -0.616 OA
HETATM   13  O   UNL     1       9.178  22.679  10.587  1.00  0.00    -0.616 OA
HETATM   14  O   UNL     1       7.686  21.911  12.700  1.00  0.00    -0.616 OA
ENDBRANCH  10  11
ENDBRANCH   7  10
ENDBRANCH   6   7
ENDBRANCH   1   6
BRANCH   2  15
HETATM   15  O   UNL     1      12.749  21.180   8.846  1.00  0.00    -0.388 OA
ATOM     16  HO  UNL     1      13.401  20.667   9.308  1.00  0.00     0.210 HD
ENDBRANCH   2  15
BRANCH   4  17
HETATM   17  C   UNL     1       9.339  19.217   6.168  1.00  0.00     0.217 C 
BRANCH  17  18
HETATM   18  O   UNL     1       8.949  20.088   5.084  1.00  0.00    -0.280 OA
BRANCH  18  19
HETATM   19  P   UNL     1       7.909  19.643   3.942  1.00  0.00     0.422 P 
HETATM   20  O   UNL     1       7.066  20.831   3.526  1.00  0.00    -0.617 OA
HETATM   21  O   UNL     1       8.860  19.142   2.829  1.00  0.00    -0.617 OA
HETATM   22  O   UNL     1       7.067  18.525   4.504  1.00  0.00    -0.617 OA
ENDBRANCH  18  19
ENDBRANCH  17  18
ENDBRANCH   4  17
BRANCH   3  23
HETATM   23  O   UNL     1      10.643  22.138   8.241  1.00  0.00    -0.390 OA
ATOM     24  HO  UNL     1      10.568  22.940   7.738  1.00  0.00     0.210 HD
ENDBRANCH   3  23
TORSDOF 9
ENDMDL
MODEL 3
REMARK VINA RESULT:    -9.091      1.866      5.866
REMARK INTER + INTRA:         -14.239
REMARK INTER:                 -13.606
REMARK INTRA:                  -0.633
REMARK UNBOUND:                -0.897
REMARK  9 active torsions:
REMARK  status: ('A' for Active; 'I' for Inactive)
REMARK    1  A    between atoms: C_1  and  O_6 
REMARK    2  A    between atoms: C_2  and  O_7 
REMARK    3  A    between atoms: C_3  and  O_9 
REMARK    4  A    between atoms: C_4  and  C_5 
REMARK    5  A    between atoms: C_5  and  O_12 
REMARK    6  A    between atoms: O_6  and  P_17 
REMARK    7  A    between atoms: O_12  and  P_13 
REMARK    8  A    between atoms: P_17  and  O_20 
REMARK    9  A    between atoms: O_20  and  P_21 
ROOT
HETATM    1  C   UNL     1       9.335  21.322   6.669  1.00  0.00     0.304 C 
HETATM    2  C   UNL     1      10.597  21.451   7.467  1.00  0.00     0.205 C 
HETATM    3  C   UNL     1      10.369  20.450   8.575  1.00  0.00     0.182 C 
HETATM    4  C   UNL     1       8.858  20.443   8.826  1.00  0.00     0.180 C 
HETATM    5  O   UNL     1       8.310  20.997   7.612  1.00  0.00    -0.348 OA
ENDROOT
BRANCH   1   6
HETATM    6  O   UNL     1       9.569  20.247   5.713  1.00  0.00    -0.255 OA
BRANCH   6   7
HETATM    7  P   UNL     1       8.329  19.859   4.725  1.00  0.00     0.420 P 
HETATM    8  O   UNL     1       7.644  21.018   3.995  1.00  0.00    -0.624 OA
HETATM    9  O   UNL     1       8.896  18.863   3.761  1.00  0.00    -0.624 OA
BRANCH   7  10
HETATM   10  O   UNL     1       7.159  19.245   5.660  1.00  0.00    -0.173 OA
BRANCH  10  11
HETATM   11  P   UNL     1       7.267  17.719   6.342  1.00  0.00     0.431 P 
HETATM   12  O   UNL     1       6.683  18.000   7.702  1.00  0.00    -0.616 OA
HETATM   13  O   UNL     1       8.757  17.597   6.574  1.00  0.00    -0.616 OA
HETATM   14  O   UNL     1       6.490  16.843   5.320  1.00  0.00    -0.616 OA
ENDBRANCH  10  11
ENDBRANCH   7  10
ENDBRANCH   6   7
ENDBRANCH   1   6
BRANCH   2  15
HETATM   15  O   UNL     1      11.651  21.012   6.609  1.00  0.00    -0.388 OA
ATOM     16  HO  UNL     1      12.013  20.234   7.017  1.00  0.00     0.210 HD
ENDBRANCH   2  15
BRANCH   4  17
HETATM   17  C   UNL     1       8.400  21.227  10.079  1.00  0.00     0.217 C 
BRANCH  17  18
HETATM   18  O   UNL     1       9.423  21.317  11.093  1.00  0.00    -0.280 OA
BRANCH  18  19
HETATM   19  P   UNL     1       9.616  20.202  12.235  1.00  0.00     0.422 P 
HETATM   20  O   UNL     1       9.511  18.820  11.624  1.00  0.00    -0.617 OA
HETATM   21  O   UNL     1      11.031  20.536  12.765  1.00  0.00    -0.617 OA
HETATM   22  O   UNL     1       8.556  20.436  13.283  1.00  0.00    -0.617 OA
ENDBRANCH  18  19
ENDBRANCH  17  18
ENDBRANCH   4  17
BRANCH   3  23
HETATM   23  O   UNL     1      10.872  19.218   7.985  1.00  0.00    -0.390 OA
ATOM     24  HO  UNL     1      10.239  18.509   7.983  1.00  0.00     0.210 HD
ENDBRANCH   3  23
TORSDOF 9
ENDMDL
MODEL 4
REMARK VINA RESULT:    -8.690      1.895      5.899
REMARK INTER + INTRA:         -13.651
REMARK INTER:                 -13.457
REMARK INTRA:                  -0.194
REMARK UNBOUND:                -0.897
REMARK  9 active torsions:
REMARK  status: ('A' for Active; 'I' for Inactive)
REMARK    1  A    between atoms: C_1  and  O_6 
REMARK    2  A    between atoms: C_2  and  O_7 
REMARK    3  A    between atoms: C_3  and  O_9 
REMARK    4  A    between atoms: C_4  and  C_5 
REMARK    5  A    between atoms: C_5  and  O_12 
REMARK    6  A    between atoms: O_6  and  P_17 
REMARK    7  A    between atoms: O_12  and  P_13 
REMARK    8  A    between atoms: P_17  and  O_20 
REMARK    9  A    between atoms: O_20  and  P_21 
ROOT
HETATM    1  C   UNL     1       8.389  20.478   8.158  1.00  0.00     0.304 C 
HETATM    2  C   UNL     1       9.389  21.594   8.164  1.00  0.00     0.205 C 
HETATM    3  C   UNL     1      10.698  20.841   8.101  1.00  0.00     0.182 C 
HETATM    4  C   UNL     1      10.456  19.525   8.845  1.00  0.00     0.180 C 
HETATM    5  O   UNL     1       9.020  19.387   8.835  1.00  0.00    -0.348 OA
ENDROOT
BRANCH   1   6
HETATM    6  O   UNL     1       8.123  20.180   6.757  1.00  0.00    -0.255 OA
BRANCH   6   7
HETATM    7  P   UNL     1       7.728  18.639   6.395  1.00  0.00     0.420 P 
HETATM    8  O   UNL     1       8.766  17.565   6.734  1.00  0.00    -0.624 OA
HETATM    9  O   UNL     1       6.433  18.391   7.105  1.00  0.00    -0.624 OA
BRANCH   7  10
HETATM   10  O   UNL     1       7.595  18.554   4.784  1.00  0.00    -0.173 OA
BRANCH  10  11
HETATM   11  P   UNL     1       8.023  19.825   3.782  1.00  0.00     0.431 P 
HETATM   12  O   UNL     1       8.802  19.077   2.730  1.00  0.00    -0.616 OA
HETATM   13  O   UNL     1       9.070  20.528   4.617  1.00  0.00    -0.616 OA
HETATM   14  O   UNL     1       6.645  20.455   3.438  1.00  0.00    -0.616 OA
ENDBRANCH  10  11
ENDBRANCH   7  10
ENDBRANCH   6   7
ENDBRANCH   1   6
BRANCH   2  15
HETATM   15  O   UNL     1       9.174  22.320   6.952  1.00  0.00    -0.388 OA
ATOM     16  HO  UNL     1       9.989  22.775   6.772  1.00  0.00     0.210 HD
ENDBRANCH   2  15
BRANCH   4  17
HETATM   17  C   UNL     1      11.033  19.468  10.279  1.00  0.00     0.217 C 
BRANCH  17  18
HETATM   18  O   UNL     1      10.011  19.405  11.297  1.00  0.00    -0.280 OA
BRANCH  18  19
HETATM   19  P   UNL     1       9.775  20.583  12.366  1.00  0.00     0.422 P 
HETATM   20  O   UNL     1       8.623  20.221  13.280  1.00  0.00    -0.617 OA
HETATM   21  O   UNL     1      11.144  20.631  13.088  1.00  0.00    -0.617 OA
HETATM   22  O   UNL     1       9.505  21.850  11.595  1.00  0.00    -0.617 OA
ENDBRANCH  18  19
ENDBRANCH  17  18
ENDBRANCH   4  17
BRANCH   3  23
HETATM   23  O   UNL     1      10.891  20.679   6.668  1.00  0.00    -0.390 OA
ATOM     24  HO  UNL     1      11.675  21.102   6.337  1.00  0.00     0.210 HD
ENDBRANCH   3  23
TORSDOF 9
ENDMDL
MODEL 5
REMARK VINA RESULT:    -8.673      1.392      2.678
REMARK INTER + INTRA:         -13.625
REMARK INTER:                 -12.968
REMARK INTRA:                  -0.657
REMARK UNBOUND:                -0.897
REMARK  9 active torsions:
REMARK  status: ('A' for Active; 'I' for Inactive)
REMARK    1  A    between atoms: C_1  and  O_6 
REMARK    2  A    between atoms: C_2  and  O_7 
REMARK    3  A    between atoms: C_3  and  O_9 
REMARK    4  A    between atoms: C_4  and  C_5 
REMARK    5  A    between atoms: C_5  and  O_12 
REMARK    6  A    between atoms: O_6  and  P_17 
REMARK    7  A    between atoms: O_12  and  P_13 
REMARK    8  A    between atoms: P_17  and  O_20 
REMARK    9  A    between atoms: O_20  and  P_21 
ROOT
HETATM    1  C   UNL     1      10.749  19.538   9.271  1.00  0.00     0.304 C 
HETATM    2  C   UNL     1      11.703  20.096   8.259  1.00  0.00     0.205 C 
HETATM    3  C   UNL     1      10.793  20.952   7.410  1.00  0.00     0.182 C 
HETATM    4  C   UNL     1       9.430  20.254   7.428  1.00  0.00     0.180 C 
HETATM    5  O   UNL     1       9.496  19.408   8.593  1.00  0.00    -0.348 OA
ENDROOT
BRANCH   1   6
HETATM    6  O   UNL     1      10.694  20.512  10.355  1.00  0.00    -0.255 OA
BRANCH   6   7
HETATM    7  P   UNL     1      10.387  19.931  11.849  1.00  0.00     0.420 P 
HETATM    8  O   UNL     1       9.544  20.817  12.771  1.00  0.00    -0.624 OA
HETATM    9  O   UNL     1       9.736  18.601  11.624  1.00  0.00    -0.624 OA
BRANCH   7  10
HETATM   10  O   UNL     1      11.810  19.821  12.612  1.00  0.00    -0.173 OA
BRANCH  10  11
HETATM   11  P   UNL     1      12.943  21.054  12.576  1.00  0.00     0.431 P 
HETATM   12  O   UNL     1      13.829  20.561  11.462  1.00  0.00    -0.616 OA
HETATM   13  O   UNL     1      13.722  20.785  13.844  1.00  0.00    -0.616 OA
HETATM   14  O   UNL     1      12.056  22.314  12.373  1.00  0.00    -0.616 OA
ENDBRANCH  10  11
ENDBRANCH   7  10
ENDBRANCH   6   7
ENDBRANCH   1   6
BRANCH   2  15
HETATM   15  O   UNL     1      12.617  20.915   8.991  1.00  0.00    -0.388 OA
ATOM     16  HO  UNL     1      12.433  21.809   8.730  1.00  0.00     0.210 HD
ENDBRANCH   2  15
BRANCH   4  17
HETATM   17  C   UNL     1       9.090  19.452   6.149  1.00  0.00     0.217 C 
BRANCH  17  18
HETATM   18  O   UNL     1       8.614  18.118   6.429  1.00  0.00    -0.280 OA
BRANCH  18  19
HETATM   19  P   UNL     1       7.054  17.733   6.422  1.00  0.00     0.422 P 
HETATM   20  O   UNL     1       6.477  17.959   5.040  1.00  0.00    -0.617 OA
HETATM   21  O   UNL     1       7.096  16.242   6.835  1.00  0.00    -0.617 OA
HETATM   22  O   UNL     1       6.370  18.583   7.462  1.00  0.00    -0.617 OA
ENDBRANCH  18  19
ENDBRANCH  17  18
ENDBRANCH   4  17
BRANCH   3  23
HETATM   23  O   UNL     1      10.812  22.221   8.123  1.00  0.00    -0.390 OA
ATOM     24  HO  UNL     1      11.644  22.415   8.538  1.00  0.00     0.210 HD
ENDBRANCH   3  23
TORSDOF 9
ENDMDL
MODEL 6
REMARK VINA RESULT:    -8.672      2.129      3.311
REMARK INTER + INTRA:         -13.625
REMARK INTER:                 -12.815
REMARK INTRA:                  -0.810
REMARK UNBOUND:                -0.897
REMARK  9 active torsions:
REMARK  status: ('A' for Active; 'I' for Inactive)
REMARK    1  A    between atoms: C_1  and  O_6 
REMARK    2  A    between atoms: C_2  and  O_7 
REMARK    3  A    between atoms: C_3  and  O_9 
REMARK    4  A    between atoms: C_4  and  C_5 
REMARK    5  A    between atoms: C_5  and  O_12 
REMARK    6  A    between atoms: O_6  and  P_17 
REMARK    7  A    between atoms: O_12  and  P_13 
REMARK    8  A    between atoms: P_17  and  O_20 
REMARK    9  A    between atoms: O_20  and  P_21 
ROOT
HETATM    1  C   UNL     1       9.972  19.788   8.852  1.00  0.00     0.304 C 
HETATM    2  C   UNL     1      10.687  20.430   7.702  1.00  0.00     0.205 C 
HETATM    3  C   UNL     1       9.539  20.950   6.871  1.00  0.00     0.182 C 
HETATM    4  C   UNL     1       8.388  19.963   7.089  1.00  0.00     0.180 C 
HETATM    5  O   UNL     1       8.740  19.295   8.317  1.00  0.00    -0.348 OA
ENDROOT
BRANCH   1   6
HETATM    6  O   UNL     1       9.766  20.840   9.839  1.00  0.00    -0.255 OA
BRANCH   6   7
HETATM    7  P   UNL     1       9.648  20.373  11.398  1.00  0.00     0.420 P 
HETATM    8  O   UNL     1       8.301  20.613  12.088  1.00  0.00    -0.624 OA
HETATM    9  O   UNL     1      10.010  18.919  11.398  1.00  0.00    -0.624 OA
BRANCH   7  10
HETATM   10  O   UNL     1      10.683  21.286  12.242  1.00  0.00    -0.173 OA
BRANCH  10  11
HETATM   11  P   UNL     1      12.318  20.935  12.333  1.00  0.00     0.431 P 
HETATM   12  O   UNL     1      12.872  22.323  12.530  1.00  0.00    -0.616 OA
HETATM   13  O   UNL     1      12.633  20.590  10.894  1.00  0.00    -0.616 OA
HETATM   14  O   UNL     1      12.372  19.897  13.488  1.00  0.00    -0.616 OA
ENDBRANCH  10  11
ENDBRANCH   7  10
ENDBRANCH   6   7
ENDBRANCH   1   6
BRANCH   2  15
HETATM   15  O   UNL     1      11.430  21.516   8.259  1.00  0.00    -0.388 OA
ATOM     16  HO  UNL     1      11.714  21.225   9.118  1.00  0.00     0.210 HD
ENDBRANCH   2  15
BRANCH   4  17
HETATM   17  C   UNL     1       8.156  18.963   5.931  1.00  0.00     0.217 C 
BRANCH  17  18
HETATM   18  O   UNL     1       8.928  19.276   4.752  1.00  0.00    -0.280 OA
BRANCH  18  19
HETATM   19  P   UNL     1       8.269  19.891   3.421  1.00  0.00     0.422 P 
HETATM   20  O   UNL     1       6.815  19.479   3.332  1.00  0.00    -0.617 OA
HETATM   21  O   UNL     1       8.467  21.410   3.644  1.00  0.00    -0.617 OA
HETATM   22  O   UNL     1       9.069  19.390   2.244  1.00  0.00    -0.617 OA
ENDBRANCH  18  19
ENDBRANCH  17  18
ENDBRANCH   4  17
BRANCH   3  23
HETATM   23  O   UNL     1       9.305  22.263   7.455  1.00  0.00    -0.390 OA
ATOM     24  HO  UNL     1       8.678  22.258   8.169  1.00  0.00     0.210 HD
ENDBRANCH   3  23
TORSDOF 9
ENDMDL
MODEL 7
REMARK VINA RESULT:    -8.605      3.034      6.843
REMARK INTER + INTRA:         -13.526
REMARK INTER:                 -13.168
REMARK INTRA:                  -0.358
REMARK UNBOUND:                -0.897
REMARK  9 active torsions:
REMARK  status: ('A' for Active; 'I' for Inactive)
REMARK    1  A    between atoms: C_1  and  O_6 
REMARK    2  A    between atoms: C_2  and  O_7 
REMARK    3  A    between atoms: C_3  and  O_9 
REMARK    4  A    between atoms: C_4  and  C_5 
REMARK    5  A    between atoms: C_5  and  O_12 
REMARK    6  A    between atoms: O_6  and  P_17 
REMARK    7  A    between atoms: O_12  and  P_13 
REMARK    8  A    between atoms: P_17  and  O_20 
REMARK    9  A    between atoms: O_20  and  P_21 
ROOT
HETATM    1  C   UNL     1       8.506  19.459   6.215  1.00  0.00     0.304 C 
HETATM    2  C   UNL     1       7.737  18.733   7.278  1.00  0.00     0.205 C 
HETATM    3  C   UNL     1       7.627  19.785   8.356  1.00  0.00     0.182 C 
HETATM    4  C   UNL     1       8.900  20.629   8.246  1.00  0.00     0.180 C 
HETATM    5  O   UNL     1       9.370  20.363   6.909  1.00  0.00    -0.348 OA
ENDROOT
BRANCH   1   6
HETATM    6  O   UNL     1       7.515  20.153   5.402  1.00  0.00    -0.255 OA
BRANCH   6   7
HETATM    7  P   UNL     1       7.499  19.806   3.808  1.00  0.00     0.420 P 
HETATM    8  O   UNL     1       8.801  19.269   3.207  1.00  0.00    -0.624 OA
HETATM    9  O   UNL     1       6.374  18.833   3.632  1.00  0.00    -0.624 OA
BRANCH   7  10
HETATM   10  O   UNL     1       7.258  21.203   3.025  1.00  0.00    -0.173 OA
BRANCH  10  11
HETATM   11  P   UNL     1       8.507  22.265   2.688  1.00  0.00     0.431 P 
HETATM   12  O   UNL     1       9.121  22.390   4.058  1.00  0.00    -0.616 OA
HETATM   13  O   UNL     1       7.754  23.560   2.478  1.00  0.00    -0.616 OA
HETATM   14  O   UNL     1       9.270  21.531   1.550  1.00  0.00    -0.616 OA
ENDBRANCH  10  11
ENDBRANCH   7  10
ENDBRANCH   6   7
ENDBRANCH   1   6
BRANCH   2  15
HETATM   15  O   UNL     1       6.452  18.460   6.716  1.00  0.00    -0.388 OA
ATOM     16  HO  UNL     1       5.874  19.140   7.042  1.00  0.00     0.210 HD
ENDBRANCH   2  15
BRANCH   4  17
HETATM   17  C   UNL     1       9.981  20.323   9.311  1.00  0.00     0.217 C 
BRANCH  17  18
HETATM   18  O   UNL     1       9.738  20.990  10.569  1.00  0.00    -0.280 OA
BRANCH  18  19
HETATM   19  P   UNL     1       9.490  20.191  11.942  1.00  0.00     0.422 P 
HETATM   20  O   UNL     1      10.587  20.522  12.932  1.00  0.00    -0.617 OA
HETATM   21  O   UNL     1       8.098  20.719  12.366  1.00  0.00    -0.617 OA
HETATM   22  O   UNL     1       9.454  18.721  11.612  1.00  0.00    -0.617 OA
ENDBRANCH  18  19
ENDBRANCH  17  18
ENDBRANCH   4  17
BRANCH   3  23
HETATM   23  O   UNL     1       6.417  20.496   7.970  1.00  0.00    -0.390 OA
ATOM     24  HO  UNL     1       5.671  19.927   7.817  1.00  0.00     0.210 HD
ENDBRANCH   3  23
TORSDOF 9
ENDMDL
MODEL 8
REMARK VINA RESULT:    -8.429      2.097      3.971
REMARK INTER + INTRA:         -13.268
REMARK INTER:                 -12.716
REMARK INTRA:                  -0.551
REMARK UNBOUND:                -0.897
REMARK  9 active torsions:
REMARK  status: ('A' for Active; 'I' for Inactive)
REMARK    1  A    between atoms: C_1  and  O_6 
REMARK    2  A    between atoms: C_2  and  O_7 
REMARK    3  A    between atoms: C_3  and  O_9 
REMARK    4  A    between atoms: C_4  and  C_5 
REMARK    5  A    between atoms: C_5  and  O_12 
REMARK    6  A    between atoms: O_6  and  P_17 
REMARK    7  A    between atoms: O_12  and  P_13 
REMARK    8  A    between atoms: P_17  and  O_20 
REMARK    9  A    between atoms: O_20  and  P_21 
ROOT
HETATM    1  C   UNL     1       8.493  20.836   8.135  1.00  0.00     0.304 C 
HETATM    2  C   UNL     1       7.184  20.564   7.458  1.00  0.00     0.205 C 
HETATM    3  C   UNL     1       7.311  19.100   7.109  1.00  0.00     0.182 C 
HETATM    4  C   UNL     1       8.801  18.863   6.847  1.00  0.00     0.180 C 
HETATM    5  O   UNL     1       9.444  19.973   7.505  1.00  0.00    -0.348 OA
ENDROOT
BRANCH   1   6
HETATM    6  O   UNL     1       8.296  20.509   9.542  1.00  0.00    -0.255 OA
BRANCH   6   7
HETATM    7  P   UNL     1       8.477  21.728  10.612  1.00  0.00     0.420 P 
HETATM    8  O   UNL     1       9.165  22.997  10.099  1.00  0.00    -0.624 OA
HETATM    9  O   UNL     1       7.094  22.019  11.110  1.00  0.00    -0.624 OA
BRANCH   7  10
HETATM   10  O   UNL     1       9.470  21.192  11.772  1.00  0.00    -0.173 OA
BRANCH  10  11
HETATM   11  P   UNL     1      10.431  19.835  11.570  1.00  0.00     0.431 P 
HETATM   12  O   UNL     1      11.405  20.036  12.702  1.00  0.00    -0.616 OA
HETATM   13  O   UNL     1      11.204  20.195  10.321  1.00  0.00    -0.616 OA
HETATM   14  O   UNL     1       9.392  18.681  11.625  1.00  0.00    -0.616 OA
ENDBRANCH  10  11
ENDBRANCH   7  10
ENDBRANCH   6   7
ENDBRANCH   1   6
BRANCH   2  15
HETATM   15  O   UNL     1       6.179  20.753   8.455  1.00  0.00    -0.388 OA
ATOM     16  HO  UNL     1       6.561  21.330   9.105  1.00  0.00     0.210 HD
ENDBRANCH   2  15
BRANCH   4  17
HETATM   17  C   UNL     1       9.195  18.769   5.353  1.00  0.00     0.217 C 
BRANCH  17  18
HETATM   18  O   UNL     1       9.004  20.009   4.640  1.00  0.00    -0.280 OA
BRANCH  18  19
HETATM   19  P   UNL     1       8.180  20.102   3.263  1.00  0.00     0.422 P 
HETATM   20  O   UNL     1       8.029  21.552   2.853  1.00  0.00    -0.617 OA
HETATM   21  O   UNL     1       9.076  19.281   2.304  1.00  0.00    -0.617 OA
HETATM   22  O   UNL     1       6.845  19.439   3.486  1.00  0.00    -0.617 OA
ENDBRANCH  18  19
ENDBRANCH  17  18
ENDBRANCH   4  17
BRANCH   3  23
HETATM   23  O   UNL     1       6.818  18.452   8.316  1.00  0.00    -0.390 OA
ATOM     24  HO  UNL     1       7.314  18.669   9.097  1.00  0.00     0.210 HD
ENDBRANCH   3  23
TORSDOF 9
ENDMDL
MODEL 9
REMARK VINA RESULT:    -8.407      1.833      5.858
REMARK INTER + INTRA:         -13.235
REMARK INTER:                 -12.776
REMARK INTRA:                  -0.459
REMARK UNBOUND:                -0.897
REMARK  9 active torsions:
REMARK  status: ('A' for Active; 'I' for Inactive)
REMARK    1  A    between atoms: C_1  and  O_6 
REMARK    2  A    between atoms: C_2  and  O_7 
REMARK    3  A    between atoms: C_3  and  O_9 
REMARK    4  A    between atoms: C_4  and  C_5 
REMARK    5  A    between atoms: C_5  and  O_12 
REMARK    6  A    between atoms: O_6  and  P_17 
REMARK    7  A    between atoms: O_12  and  P_13 
REMARK    8  A    between atoms: P_17  and  O_20 
REMARK    9  A    between atoms: O_20  and  P_21 
ROOT
HETATM    1  C   UNL     1       9.058  20.040   8.032  1.00  0.00     0.304 C 
HETATM    2  C   UNL     1      10.294  20.885   7.971  1.00  0.00     0.205 C 
HETATM    3  C   UNL     1      11.170  20.233   9.015  1.00  0.00     0.182 C 
HETATM    4  C   UNL     1      10.212  19.689  10.080  1.00  0.00     0.180 C 
HETATM    5  O   UNL     1       8.948  19.609   9.392  1.00  0.00    -0.348 OA
ENDROOT
BRANCH   1   6
HETATM    6  O   UNL     1       9.281  18.929   7.115  1.00  0.00    -0.255 OA
BRANCH   6   7
HETATM    7  P   UNL     1       7.958  18.264   6.431  1.00  0.00     0.420 P 
HETATM    8  O   UNL     1       7.641  16.814   6.812  1.00  0.00    -0.624 OA
HETATM    9  O   UNL     1       6.830  19.182   6.788  1.00  0.00    -0.624 OA
BRANCH   7  10
HETATM   10  O   UNL     1       8.239  18.192   4.838  1.00  0.00    -0.173 OA
BRANCH  10  11
HETATM   11  P   UNL     1       8.101  19.532   3.844  1.00  0.00     0.431 P 
HETATM   12  O   UNL     1       8.488  20.618   4.815  1.00  0.00    -0.616 OA
HETATM   13  O   UNL     1       6.600  19.650   3.703  1.00  0.00    -0.616 OA
HETATM   14  O   UNL     1       9.041  19.166   2.661  1.00  0.00    -0.616 OA
ENDBRANCH  10  11
ENDBRANCH   7  10
ENDBRANCH   6   7
ENDBRANCH   1   6
BRANCH   2  15
HETATM   15  O   UNL     1      10.842  20.685   6.667  1.00  0.00    -0.388 OA
ATOM     16  HO  UNL     1      10.458  19.879   6.343  1.00  0.00     0.210 HD
ENDBRANCH   2  15
BRANCH   4  17
HETATM   17  C   UNL     1      10.117  20.539  11.369  1.00  0.00     0.217 C 
BRANCH  17  18
HETATM   18  O   UNL     1       9.442  21.799  11.166  1.00  0.00    -0.280 OA
BRANCH  18  19
HETATM   19  P   UNL     1       7.931  22.063  11.648  1.00  0.00     0.422 P 
HETATM   20  O   UNL     1       7.787  23.495  12.118  1.00  0.00    -0.617 OA
HETATM   21  O   UNL     1       7.131  21.754  10.360  1.00  0.00    -0.617 OA
HETATM   22  O   UNL     1       7.626  21.077  12.747  1.00  0.00    -0.617 OA
ENDBRANCH  18  19
ENDBRANCH  17  18
ENDBRANCH   4  17
BRANCH   3  23
HETATM   23  O   UNL     1      11.844  19.196   8.247  1.00  0.00    -0.390 OA
ATOM     24  HO  UNL     1      12.718  18.995   8.561  1.00  0.00     0.210 HD
ENDBRANCH   3  23
TORSDOF 9
ENDMDL
MODEL 10
REMARK VINA RESULT:    -8.384      1.287      2.793
REMARK INTER + INTRA:         -13.202
REMARK INTER:                 -12.393
REMARK INTRA:                  -0.809
REMARK UNBOUND:                -0.897
REMARK  9 active torsions:
REMARK  status: ('A' for Active; 'I' for Inactive)
REMARK    1  A    between atoms: C_1  and  O_6 
REMARK    2  A    between atoms: C_2  and  O_7 
REMARK    3  A    between atoms: C_3  and  O_9 
REMARK    4  A    between atoms: C_4  and  C_5 
REMARK    5  A    between atoms: C_5  and  O_12 
REMARK    6  A    between atoms: O_6  and  P_17 
REMARK    7  A    between atoms: O_12  and  P_13 
REMARK    8  A    between atoms: P_17  and  O_20 
REMARK    9  A    between atoms: O_20  and  P_21 
ROOT
HETATM    1  C   UNL     1       8.636  20.714   8.316  1.00  0.00     0.304 C 
HETATM    2  C   UNL     1       9.945  19.996   8.183  1.00  0.00     0.205 C 
HETATM    3  C   UNL     1      10.402  20.431   6.810  1.00  0.00     0.182 C 
HETATM    4  C   UNL     1       9.124  20.632   5.991  1.00  0.00     0.180 C 
HETATM    5  O   UNL     1       8.099  20.791   6.992  1.00  0.00    -0.348 OA
ENDROOT
BRANCH   1   6
HETATM    6  O   UNL     1       8.950  22.028   8.864  1.00  0.00    -0.255 OA
BRANCH   6   7
HETATM    7  P   UNL     1       8.212  22.436  10.261  1.00  0.00     0.420 P 
HETATM    8  O   UNL     1       7.938  23.927  10.483  1.00  0.00    -0.624 OA
HETATM    9  O   UNL     1       6.944  21.639  10.280  1.00  0.00    -0.624 OA
BRANCH   7  10
HETATM   10  O   UNL     1       9.226  22.046  11.460  1.00  0.00    -0.173 OA
BRANCH  10  11
HETATM   11  P   UNL     1       8.991  20.702  12.430  1.00  0.00     0.431 P 
HETATM   12  O   UNL     1      10.339  20.623  13.098  1.00  0.00    -0.616 OA
HETATM   13  O   UNL     1       8.996  19.587  11.407  1.00  0.00    -0.616 OA
HETATM   14  O   UNL     1       7.731  21.099  13.249  1.00  0.00    -0.616 OA
ENDBRANCH  10  11
ENDBRANCH   7  10
ENDBRANCH   6   7
ENDBRANCH   1   6
BRANCH   2  15
HETATM   15  O   UNL     1      10.798  20.545   9.189  1.00  0.00    -0.388 OA
ATOM     16  HO  UNL     1      10.322  20.466  10.007  1.00  0.00     0.210 HD
ENDBRANCH   2  15
BRANCH   4  17
HETATM   17  C   UNL     1       8.795  19.488   5.002  1.00  0.00     0.217 C 
BRANCH  17  18
HETATM   18  O   UNL     1       7.459  18.966   5.168  1.00  0.00    -0.280 OA
BRANCH  18  19
HETATM   19  P   UNL     1       7.108  17.791   6.207  1.00  0.00     0.422 P 
HETATM   20  O   UNL     1       6.292  18.348   7.354  1.00  0.00    -0.617 OA
HETATM   21  O   UNL     1       6.320  16.804   5.312  1.00  0.00    -0.617 OA
HETATM   22  O   UNL     1       8.411  17.198   6.680  1.00  0.00    -0.617 OA
ENDBRANCH  18  19
ENDBRANCH  17  18
ENDBRANCH   4  17
BRANCH   3  23
HETATM   23  O   UNL     1      11.114  21.668   7.101  1.00  0.00    -0.390 OA
ATOM     24  HO  UNL     1      11.112  22.288   6.382  1.00  0.00     0.210 HD
ENDBRANCH   3  23
TORSDOF 9
ENDMDL
MODEL 11
REMARK VINA RESULT:    -8.093      2.054      3.441
REMARK INTER + INTRA:         -12.775
REMARK INTER:                 -12.311
REMARK INTRA:                  -0.464
REMARK UNBOUND:                -0.897
REMARK  9 active torsions:
REMARK  status: ('A' for Active; 'I' for Inactive)
REMARK    1  A    between atoms: C_1  and  O_6 
REMARK    2  A    between atoms: C_2  and  O_7 
REMARK    3  A    between atoms: C_3  and  O_9 
REMARK    4  A    between atoms: C_4  and  C_5 
REMARK    5  A    between atoms: C_5  and  O_12 
REMARK    6  A    between atoms: O_6  and  P_17 
REMARK    7  A    between atoms: O_12  and  P_13 
REMARK    8  A    between atoms: P_17  and  O_20 
REMARK    9  A    between atoms: O_20  and  P_21 
ROOT
HETATM    1  C   UNL     1       8.789  20.226   8.125  1.00  0.00     0.304 C 
HETATM    2  C   UNL     1       7.513  20.272   7.340  1.00  0.00     0.205 C 
HETATM    3  C   UNL     1       7.448  18.875   6.768  1.00  0.00     0.182 C 
HETATM    4  C   UNL     1       8.902  18.445   6.556  1.00  0.00     0.180 C 
HETATM    5  O   UNL     1       9.648  19.327   7.419  1.00  0.00    -0.348 OA
ENDROOT
BRANCH   1   6
HETATM    6  O   UNL     1       8.431  19.728   9.448  1.00  0.00    -0.255 OA
BRANCH   6   7
HETATM    7  P   UNL     1       9.530  19.943  10.635  1.00  0.00     0.420 P 
HETATM    8  O   UNL     1       9.756  18.763  11.585  1.00  0.00    -0.624 OA
HETATM    9  O   UNL     1      10.795  20.329   9.932  1.00  0.00    -0.624 OA
BRANCH   7  10
HETATM   10  O   UNL     1       8.957  21.111  11.599  1.00  0.00    -0.173 OA
BRANCH  10  11
HETATM   11  P   UNL     1       8.138  22.444  11.000  1.00  0.00     0.431 P 
HETATM   12  O   UNL     1       7.848  23.171  12.288  1.00  0.00    -0.616 OA
HETATM   13  O   UNL     1       6.817  21.829  10.593  1.00  0.00    -0.616 OA
HETATM   14  O   UNL     1       9.155  23.028   9.980  1.00  0.00    -0.616 OA
ENDBRANCH  10  11
ENDBRANCH   7  10
ENDBRANCH   6   7
ENDBRANCH   1   6
BRANCH   2  15
HETATM   15  O   UNL     1       6.470  20.467   8.296  1.00  0.00    -0.388 OA
ATOM     16  HO  UNL     1       6.036  19.627   8.384  1.00  0.00     0.210 HD
ENDBRANCH   2  15
BRANCH   4  17
HETATM   17  C   UNL     1       9.397  18.514   5.091  1.00  0.00     0.217 C 
BRANCH  17  18
HETATM   18  O   UNL     1       8.351  18.859   4.158  1.00  0.00    -0.280 OA
BRANCH  18  19
HETATM   19  P   UNL     1       8.198  20.329   3.527  1.00  0.00     0.422 P 
HETATM   20  O   UNL     1       8.899  20.386   2.185  1.00  0.00    -0.617 OA
HETATM   21  O   UNL     1       6.661  20.470   3.425  1.00  0.00    -0.617 OA
HETATM   22  O   UNL     1       8.786  21.310   4.510  1.00  0.00    -0.617 OA
ENDBRANCH  18  19
ENDBRANCH  17  18
ENDBRANCH   4  17
BRANCH   3  23
HETATM   23  O   UNL     1       6.767  18.142   7.825  1.00  0.00    -0.390 OA
ATOM     24  HO  UNL     1       7.340  17.571   8.324  1.00  0.00     0.210 HD
ENDBRANCH   3  23
TORSDOF 9
ENDMDL
MODEL 12
REMARK VINA RESULT:    -8.016      2.350      6.438
REMARK INTER + INTRA:         -12.662
REMARK INTER:                 -11.945
REMARK INTRA:                  -0.717
REMARK UNBOUND:                -0.897
REMARK  9 active torsions:
REMARK  status: ('A' for Active; 'I' for Inactive)
REMARK    1  A    between atoms: C_1  and  O_6 
REMARK    2  A    between atoms: C_2  and  O_7 
REMARK    3  A    between atoms: C_3  and  O_9 
REMARK    4  A    between atoms: C_4  and  C_5 
REMARK    5  A    between atoms: C_5  and  O_12 
REMARK    6  A    between atoms: O_6  and  P_17 
REMARK    7  A    between atoms: O_12  and  P_13 
REMARK    8  A    between atoms: P_17  and  O_20 
REMARK    9  A    between atoms: O_20  and  P_21 
ROOT
HETATM    1  C   UNL     1       9.208  20.106   8.468  1.00  0.00     0.304 C 
HETATM    2  C   UNL     1      10.497  20.848   8.289  1.00  0.00     0.205 C 
HETATM    3  C   UNL     1      11.423  20.095   9.215  1.00  0.00     0.182 C 
HETATM    4  C   UNL     1      10.544  19.599  10.367  1.00  0.00     0.180 C 
HETATM    5  O   UNL     1       9.210  19.644   9.821  1.00  0.00    -0.348 OA
ENDROOT
BRANCH   1   6
HETATM    6  O   UNL     1       9.236  19.009   7.508  1.00  0.00    -0.255 OA
BRANCH   6   7
HETATM    7  P   UNL     1       7.857  18.715   6.688  1.00  0.00     0.420 P 
HETATM    8  O   UNL     1       7.124  17.411   7.019  1.00  0.00    -0.624 OA
HETATM    9  O   UNL     1       6.989  19.909   6.942  1.00  0.00    -0.624 OA
BRANCH   7  10
HETATM   10  O   UNL     1       8.263  18.545   5.130  1.00  0.00    -0.173 OA
BRANCH  10  11
HETATM   11  P   UNL     1       8.177  19.812   4.039  1.00  0.00     0.431 P 
HETATM   12  O   UNL     1       6.710  19.765   3.700  1.00  0.00    -0.616 OA
HETATM   13  O   UNL     1       8.875  19.221   2.834  1.00  0.00    -0.616 OA
HETATM   14  O   UNL     1       8.756  20.998   4.861  1.00  0.00    -0.616 OA
ENDBRANCH  10  11
ENDBRANCH   7  10
ENDBRANCH   6   7
ENDBRANCH   1   6
BRANCH   2  15
HETATM   15  O   UNL     1      10.882  20.645   6.928  1.00  0.00    -0.388 OA
ATOM     16  HO  UNL     1      11.808  20.435   6.947  1.00  0.00     0.210 HD
ENDBRANCH   2  15
BRANCH   4  17
HETATM   17  C   UNL     1      10.661  20.414  11.677  1.00  0.00     0.217 C 
BRANCH  17  18
HETATM   18  O   UNL     1      11.860  20.112  12.424  1.00  0.00    -0.280 OA
BRANCH  18  19
HETATM   19  P   UNL     1      13.080  21.150  12.565  1.00  0.00     0.422 P 
HETATM   20  O   UNL     1      13.767  20.954  13.900  1.00  0.00    -0.617 OA
HETATM   21  O   UNL     1      13.964  20.763  11.355  1.00  0.00    -0.617 OA
HETATM   22  O   UNL     1      12.514  22.540  12.422  1.00  0.00    -0.617 OA
ENDBRANCH  18  19
ENDBRANCH  17  18
ENDBRANCH   4  17
BRANCH   3  23
HETATM   23  O   UNL     1      11.920  19.031   8.355  1.00  0.00    -0.390 OA
ATOM     24  HO  UNL     1      12.855  19.075   8.193  1.00  0.00     0.210 HD
ENDBRANCH   3  23
TORSDOF 9
ENDMDL
MODEL 13
REMARK VINA RESULT:    -7.913      2.585      4.447
REMARK INTER + INTRA:         -12.510
REMARK INTER:                 -11.787
REMARK INTRA:                  -0.723
REMARK UNBOUND:                -0.897
REMARK  9 active torsions:
REMARK  status: ('A' for Active; 'I' for Inactive)
REMARK    1  A    between atoms: C_1  and  O_6 
REMARK    2  A    between atoms: C_2  and  O_7 
REMARK    3  A    between atoms: C_3  and  O_9 
REMARK    4  A    between atoms: C_4  and  C_5 
REMARK    5  A    between atoms: C_5  and  O_12 
REMARK    6  A    between atoms: O_6  and  P_17 
REMARK    7  A    between atoms: O_12  and  P_13 
REMARK    8  A    between atoms: P_17  and  O_20 
REMARK    9  A    between atoms: O_20  and  P_21 
ROOT
HETATM    1  C   UNL     1       8.952  21.766   8.157  1.00  0.00     0.304 C 
HETATM    2  C   UNL     1       9.249  20.559   8.994  1.00  0.00     0.205 C 
HETATM    3  C   UNL     1      10.360  19.901   8.211  1.00  0.00     0.182 C 
HETATM    4  C   UNL     1      10.082  20.227   6.741  1.00  0.00     0.180 C 
HETATM    5  O   UNL     1       9.211  21.374   6.806  1.00  0.00    -0.348 OA
ENDROOT
BRANCH   1   6
HETATM    6  O   UNL     1       9.860  22.809   8.615  1.00  0.00    -0.255 OA
BRANCH   6   7
HETATM    7  P   UNL     1      10.129  24.051   7.591  1.00  0.00     0.420 P 
HETATM    8  O   UNL     1       9.022  24.360   6.579  1.00  0.00    -0.624 OA
HETATM    9  O   UNL     1      10.407  25.230   8.472  1.00  0.00    -0.624 OA
BRANCH   7  10
HETATM   10  O   UNL     1      11.392  23.635   6.669  1.00  0.00    -0.173 OA
BRANCH  10  11
HETATM   11  P   UNL     1      12.972  23.961   7.116  1.00  0.00     0.431 P 
HETATM   12  O   UNL     1      13.707  23.274   5.994  1.00  0.00    -0.616 OA
HETATM   13  O   UNL     1      13.143  23.050   8.311  1.00  0.00    -0.616 OA
HETATM   14  O   UNL     1      12.975  25.512   7.221  1.00  0.00    -0.616 OA
ENDBRANCH  10  11
ENDBRANCH   7  10
ENDBRANCH   6   7
ENDBRANCH   1   6
BRANCH   2  15
HETATM   15  O   UNL     1       9.744  21.057  10.239  1.00  0.00    -0.388 OA
ATOM     16  HO  UNL     1      10.691  21.021  10.176  1.00  0.00     0.210 HD
ENDBRANCH   2  15
BRANCH   4  17
HETATM   17  C   UNL     1       9.458  19.072   5.922  1.00  0.00     0.217 C 
BRANCH  17  18
HETATM   18  O   UNL     1       8.722  18.135   6.738  1.00  0.00    -0.280 OA
BRANCH  18  19
HETATM   19  P   UNL     1       7.145  17.879   6.558  1.00  0.00     0.422 P 
HETATM   20  O   UNL     1       6.727  18.229   5.145  1.00  0.00    -0.617 OA
HETATM   21  O   UNL     1       7.033  16.368   6.877  1.00  0.00    -0.617 OA
HETATM   22  O   UNL     1       6.427  18.721   7.582  1.00  0.00    -0.617 OA
ENDBRANCH  18  19
ENDBRANCH  17  18
ENDBRANCH   4  17
BRANCH   3  23
HETATM   23  O   UNL     1      11.544  20.558   8.745  1.00  0.00    -0.390 OA
ATOM     24  HO  UNL     1      11.630  21.466   8.478  1.00  0.00     0.210 HD
ENDBRANCH   3  23
TORSDOF 9
ENDMDL
MODEL 14
REMARK VINA RESULT:    -7.856      2.828      6.543
REMARK INTER + INTRA:         -12.427
REMARK INTER:                 -11.457
REMARK INTRA:                  -0.970
REMARK UNBOUND:                -0.897
REMARK  9 active torsions:
REMARK  status: ('A' for Active; 'I' for Inactive)
REMARK    1  A    between atoms: C_1  and  O_6 
REMARK    2  A    between atoms: C_2  and  O_7 
REMARK    3  A    between atoms: C_3  and  O_9 
REMARK    4  A    between atoms: C_4  and  C_5 
REMARK    5  A    between atoms: C_5  and  O_12 
REMARK    6  A    between atoms: O_6  and  P_17 
REMARK    7  A    between atoms: O_12  and  P_13 
REMARK    8  A    between atoms: P_17  and  O_20 
REMARK    9  A    between atoms: O_20  and  P_21 
ROOT
HETATM    1  C   UNL     1       9.515  21.070   6.689  1.00  0.00     0.304 C 
HETATM    2  C   UNL     1       9.689  20.996   8.176  1.00  0.00     0.205 C 
HETATM    3  C   UNL     1       9.138  22.330   8.622  1.00  0.00     0.182 C 
HETATM    4  C   UNL     1       9.449  23.309   7.486  1.00  0.00     0.180 C 
HETATM    5  O   UNL     1       9.671  22.451   6.349  1.00  0.00    -0.348 OA
ENDROOT
BRANCH   1   6
HETATM    6  O   UNL     1       8.171  20.580   6.414  1.00  0.00    -0.255 OA
BRANCH   6   7
HETATM    7  P   UNL     1       7.949  19.798   4.999  1.00  0.00     0.420 P 
HETATM    8  O   UNL     1       7.043  20.480   3.970  1.00  0.00    -0.624 OA
HETATM    9  O   UNL     1       9.327  19.579   4.454  1.00  0.00    -0.624 OA
BRANCH   7  10
HETATM   10  O   UNL     1       7.176  18.418   5.341  1.00  0.00    -0.173 OA
BRANCH  10  11
HETATM   11  P   UNL     1       7.461  17.557   6.749  1.00  0.00     0.431 P 
HETATM   12  O   UNL     1       6.738  16.276   6.422  1.00  0.00    -0.616 OA
HETATM   13  O   UNL     1       6.561  18.275   7.730  1.00  0.00    -0.616 OA
HETATM   14  O   UNL     1       9.012  17.579   6.843  1.00  0.00    -0.616 OA
ENDBRANCH  10  11
ENDBRANCH   7  10
ENDBRANCH   6   7
ENDBRANCH   1   6
BRANCH   2  15
HETATM   15  O   UNL     1       8.840  19.935   8.618  1.00  0.00    -0.388 OA
ATOM     16  HO  UNL     1       8.120  20.350   9.077  1.00  0.00     0.210 HD
ENDBRANCH   2  15
BRANCH   4  17
HETATM   17  C   UNL     1      10.651  24.249   7.745  1.00  0.00     0.217 C 
BRANCH  17  18
HETATM   18  O   UNL     1      11.679  24.141   6.737  1.00  0.00    -0.280 OA
BRANCH  18  19
HETATM   19  P   UNL     1      13.239  24.001   7.098  1.00  0.00     0.422 P 
HETATM   20  O   UNL     1      13.786  25.345   7.533  1.00  0.00    -0.617 OA
HETATM   21  O   UNL     1      13.205  22.953   8.236  1.00  0.00    -0.617 OA
HETATM   22  O   UNL     1      13.945  23.476   5.874  1.00  0.00    -0.617 OA
ENDBRANCH  18  19
ENDBRANCH  17  18
ENDBRANCH   4  17
BRANCH   3  23
HETATM   23  O   UNL     1       7.719  22.042   8.776  1.00  0.00    -0.390 OA
ATOM     24  HO  UNL     1       7.176  22.818   8.847  1.00  0.00     0.210 HD
ENDBRANCH   3  23
TORSDOF 9
ENDMDL
MODEL 15
REMARK VINA RESULT:    -7.853      3.032      6.362
REMARK INTER + INTRA:         -12.422
REMARK INTER:                 -12.170
REMARK INTRA:                  -0.252
REMARK UNBOUND:                -0.897
REMARK  9 active torsions:
REMARK  status: ('A' for Active; 'I' for Inactive)
REMARK    1  A    between atoms: C_1  and  O_6 
REMARK    2  A    between atoms: C_2  and  O_7 
REMARK    3  A    between atoms: C_3  and  O_9 
REMARK    4  A    between atoms: C_4  and  C_5 
REMARK    5  A    between atoms: C_5  and  O_12 
REMARK    6  A    between atoms: O_6  and  P_17 
REMARK    7  A    between atoms: O_12  and  P_13 
REMARK    8  A    between atoms: P_17  and  O_20 
REMARK    9  A    between atoms: O_20  and  P_21 
ROOT
HETATM    1  C   UNL     1       9.186  20.602   8.428  1.00  0.00     0.304 C 
HETATM    2  C   UNL     1       9.341  20.936   9.881  1.00  0.00     0.205 C 
HETATM    3  C   UNL     1       8.519  22.197  10.002  1.00  0.00     0.182 C 
HETATM    4  C   UNL     1       8.644  22.906   8.650  1.00  0.00     0.180 C 
HETATM    5  O   UNL     1       9.061  21.857   7.753  1.00  0.00    -0.348 OA
ENDROOT
BRANCH   1   6
HETATM    6  O   UNL     1       7.977  19.794   8.326  1.00  0.00    -0.255 OA
BRANCH   6   7
HETATM    7  P   UNL     1       7.795  18.914   6.964  1.00  0.00     0.420 P 
HETATM    8  O   UNL     1       8.850  17.836   6.696  1.00  0.00    -0.624 OA
HETATM    9  O   UNL     1       6.422  18.324   7.061  1.00  0.00    -0.624 OA
BRANCH   7  10
HETATM   10  O   UNL     1       7.962  19.935   5.718  1.00  0.00    -0.173 OA
BRANCH  10  11
HETATM   11  P   UNL     1       7.682  19.468   4.135  1.00  0.00     0.431 P 
HETATM   12  O   UNL     1       7.047  20.726   3.601  1.00  0.00    -0.616 OA
HETATM   13  O   UNL     1       6.538  18.493   4.305  1.00  0.00    -0.616 OA
HETATM   14  O   UNL     1       9.100  19.042   3.659  1.00  0.00    -0.616 OA
ENDBRANCH  10  11
ENDBRANCH   7  10
ENDBRANCH   6   7
ENDBRANCH   1   6
BRANCH   2  15
HETATM   15  O   UNL     1       8.721  19.866  10.598  1.00  0.00    -0.388 OA
ATOM     16  HO  UNL     1       8.284  19.333   9.944  1.00  0.00     0.210 HD
ENDBRANCH   2  15
BRANCH   4  17
HETATM   17  C   UNL     1       9.621  24.106   8.630  1.00  0.00     0.217 C 
BRANCH  17  18
HETATM   18  O   UNL     1       9.083  25.260   7.949  1.00  0.00    -0.280 OA
BRANCH  18  19
HETATM   19  P   UNL     1       9.438  25.610   6.420  1.00  0.00     0.422 P 
HETATM   20  O   UNL     1       8.482  26.663   5.900  1.00  0.00    -0.617 OA
HETATM   21  O   UNL     1      10.898  26.111   6.544  1.00  0.00    -0.617 OA
HETATM   22  O   UNL     1       9.352  24.330   5.628  1.00  0.00    -0.617 OA
ENDBRANCH  18  19
ENDBRANCH  17  18
ENDBRANCH   4  17
BRANCH   3  23
HETATM   23  O   UNL     1       7.187  21.672  10.267  1.00  0.00    -0.390 OA
ATOM     24  HO  UNL     1       7.188  20.863  10.766  1.00  0.00     0.210 HD
ENDBRANCH   3  23
TORSDOF 9
ENDMDL
MODEL 16
REMARK VINA RESULT:    -7.781      2.417      6.438
REMARK INTER + INTRA:         -12.317
REMARK INTER:                 -11.727
REMARK INTRA:                  -0.591
REMARK UNBOUND:                -0.897
REMARK  9 active torsions:
REMARK  status: ('A' for Active; 'I' for Inactive)
REMARK    1  A    between atoms: C_1  and  O_6 
REMARK    2  A    between atoms: C_2  and  O_7 
REMARK    3  A    between atoms: C_3  and  O_9 
REMARK    4  A    between atoms: C_4  and  C_5 
REMARK    5  A    between atoms: C_5  and  O_12 
REMARK    6  A    between atoms: O_6  and  P_17 
REMARK    7  A    between atoms: O_12  and  P_13 
REMARK    8  A    between atoms: P_17  and  O_20 
REMARK    9  A    between atoms: O_20  and  P_21 
ROOT
HETATM    1  C   UNL     1       9.754  20.577   9.641  1.00  0.00     0.304 C 
HETATM    2  C   UNL     1      10.873  19.618   9.915  1.00  0.00     0.205 C 
HETATM    3  C   UNL     1      10.758  19.422  11.409  1.00  0.00     0.182 C 
HETATM    4  C   UNL     1      10.234  20.750  11.963  1.00  0.00     0.180 C 
HETATM    5  O   UNL     1       9.643  21.389  10.813  1.00  0.00    -0.348 OA
ENDROOT
BRANCH   1   6
HETATM    6  O   UNL     1       8.568  19.760   9.418  1.00  0.00    -0.255 OA
BRANCH   6   7
HETATM    7  P   UNL     1       7.563  20.235   8.222  1.00  0.00     0.420 P 
HETATM    8  O   UNL     1       6.401  21.149   8.623  1.00  0.00    -0.624 OA
HETATM    9  O   UNL     1       8.448  20.891   7.206  1.00  0.00    -0.624 OA
BRANCH   7  10
HETATM   10  O   UNL     1       6.834  18.903   7.664  1.00  0.00    -0.173 OA
BRANCH  10  11
HETATM   11  P   UNL     1       7.527  17.926   6.494  1.00  0.00     0.431 P 
HETATM   12  O   UNL     1       8.983  18.238   6.724  1.00  0.00    -0.616 OA
HETATM   13  O   UNL     1       7.164  18.669   5.227  1.00  0.00    -0.616 OA
HETATM   14  O   UNL     1       6.958  16.525   6.851  1.00  0.00    -0.616 OA
ENDBRANCH  10  11
ENDBRANCH   7  10
ENDBRANCH   6   7
ENDBRANCH   1   6
BRANCH   2  15
HETATM   15  O   UNL     1      10.534  18.412   9.228  1.00  0.00    -0.388 OA
ATOM     16  HO  UNL     1       9.866  17.990   9.755  1.00  0.00     0.210 HD
ENDBRANCH   2  15
BRANCH   4  17
HETATM   17  C   UNL     1      11.302  21.644  12.636  1.00  0.00     0.217 C 
BRANCH  17  18
HETATM   18  O   UNL     1      12.650  21.181  12.410  1.00  0.00    -0.280 OA
BRANCH  18  19
HETATM   19  P   UNL     1      13.795  22.114  11.774  1.00  0.00     0.422 P 
HETATM   20  O   UNL     1      15.072  21.975  12.575  1.00  0.00    -0.617 OA
HETATM   21  O   UNL     1      13.902  21.546  10.339  1.00  0.00    -0.617 OA
HETATM   22  O   UNL     1      13.280  23.531  11.778  1.00  0.00    -0.617 OA
ENDBRANCH  18  19
ENDBRANCH  17  18
ENDBRANCH   4  17
BRANCH   3  23
HETATM   23  O   UNL     1       9.801  18.329  11.503  1.00  0.00    -0.390 OA
ATOM     24  HO  UNL     1       9.661  17.872  10.682  1.00  0.00     0.210 HD
ENDBRANCH   3  23
TORSDOF 9
ENDMDL
MODEL 17
REMARK VINA RESULT:    -7.735      2.700      6.089
REMARK INTER + INTRA:         -12.249
REMARK INTER:                 -12.233
REMARK INTRA:                  -0.016
REMARK UNBOUND:                -0.897
REMARK  9 active torsions:
REMARK  status: ('A' for Active; 'I' for Inactive)
REMARK    1  A    between atoms: C_1  and  O_6 
REMARK    2  A    between atoms: C_2  and  O_7 
REMARK    3  A    between atoms: C_3  and  O_9 
REMARK    4  A    between atoms: C_4  and  C_5 
REMARK    5  A    between atoms: C_5  and  O_12 
REMARK    6  A    between atoms: O_6  and  P_17 
REMARK    7  A    between atoms: O_12  and  P_13 
REMARK    8  A    between atoms: P_17  and  O_20 
REMARK    9  A    between atoms: O_20  and  P_21 
ROOT
HETATM    1  C   UNL     1       9.776  19.920   7.015  1.00  0.00     0.304 C 
HETATM    2  C   UNL     1      10.652  19.972   8.230  1.00  0.00     0.205 C 
HETATM    3  C   UNL     1       9.759  20.669   9.229  1.00  0.00     0.182 C 
HETATM    4  C   UNL     1       8.887  21.626   8.411  1.00  0.00     0.180 C 
HETATM    5  O   UNL     1       8.961  21.093   7.073  1.00  0.00    -0.348 OA
ENDROOT
BRANCH   1   6
HETATM    6  O   UNL     1       8.994  18.695   7.133  1.00  0.00    -0.255 OA
BRANCH   6   7
HETATM    7  P   UNL     1       7.533  18.684   6.408  1.00  0.00     0.420 P 
HETATM    8  O   UNL     1       7.226  17.492   5.496  1.00  0.00    -0.624 OA
HETATM    9  O   UNL     1       6.541  18.788   7.525  1.00  0.00    -0.624 OA
BRANCH   7  10
HETATM   10  O   UNL     1       7.496  19.956   5.406  1.00  0.00    -0.173 OA
BRANCH  10  11
HETATM   11  P   UNL     1       7.654  19.793   3.747  1.00  0.00     0.431 P 
HETATM   12  O   UNL     1       7.564  21.240   3.334  1.00  0.00    -0.616 OA
HETATM   13  O   UNL     1       6.316  19.195   3.373  1.00  0.00    -0.616 OA
HETATM   14  O   UNL     1       8.997  19.022   3.616  1.00  0.00    -0.616 OA
ENDBRANCH  10  11
ENDBRANCH   7  10
ENDBRANCH   6   7
ENDBRANCH   1   6
BRANCH   2  15
HETATM   15  O   UNL     1      10.868  18.614   8.618  1.00  0.00    -0.388 OA
ATOM     16  HO  UNL     1      10.837  18.605   9.568  1.00  0.00     0.210 HD
ENDBRANCH   2  15
BRANCH   4  17
HETATM   17  C   UNL     1       9.316  23.112   8.467  1.00  0.00     0.217 C 
BRANCH  17  18
HETATM   18  O   UNL     1      10.150  23.500   7.354  1.00  0.00    -0.280 OA
BRANCH  18  19
HETATM   19  P   UNL     1       9.706  24.615   6.284  1.00  0.00     0.422 P 
HETATM   20  O   UNL     1       8.526  25.398   6.819  1.00  0.00    -0.617 OA
HETATM   21  O   UNL     1      10.998  25.458   6.154  1.00  0.00    -0.617 OA
HETATM   22  O   UNL     1       9.372  23.903   4.998  1.00  0.00    -0.617 OA
ENDBRANCH  18  19
ENDBRANCH  17  18
ENDBRANCH   4  17
BRANCH   3  23
HETATM   23  O   UNL     1       9.022  19.557   9.812  1.00  0.00    -0.390 OA
ATOM     24  HO  UNL     1       8.672  18.952   9.169  1.00  0.00     0.210 HD
ENDBRANCH   3  23
TORSDOF 9
ENDMDL
MODEL 18
REMARK VINA RESULT:    -7.629      2.912      4.874
REMARK INTER + INTRA:         -12.094
REMARK INTER:                 -11.130
REMARK INTRA:                  -0.964
REMARK UNBOUND:                -0.897
REMARK  9 active torsions:
REMARK  status: ('A' for Active; 'I' for Inactive)
REMARK    1  A    between atoms: C_1  and  O_6 
REMARK    2  A    between atoms: C_2  and  O_7 
REMARK    3  A    between atoms: C_3  and  O_9 
REMARK    4  A    between atoms: C_4  and  C_5 
REMARK    5  A    between atoms: C_5  and  O_12 
REMARK    6  A    between atoms: O_6  and  P_17 
REMARK    7  A    between atoms: O_12  and  P_13 
REMARK    8  A    between atoms: P_17  and  O_20 
REMARK    9  A    between atoms: O_20  and  P_21 
ROOT
HETATM    1  C   UNL     1       8.924  22.077   7.852  1.00  0.00     0.304 C 
HETATM    2  C   UNL     1       8.858  20.982   8.873  1.00  0.00     0.205 C 
HETATM    3  C   UNL     1       9.809  19.960   8.298  1.00  0.00     0.182 C 
HETATM    4  C   UNL     1       9.707  20.107   6.777  1.00  0.00     0.180 C 
HETATM    5  O   UNL     1       9.153  21.426   6.599  1.00  0.00    -0.348 OA
ENDROOT
BRANCH   1   6
HETATM    6  O   UNL     1      10.039  22.930   8.245  1.00  0.00    -0.255 OA
BRANCH   6   7
HETATM    7  P   UNL     1      10.288  24.272   7.352  1.00  0.00     0.420 P 
HETATM    8  O   UNL     1       9.220  24.611   6.308  1.00  0.00    -0.624 OA
HETATM    9  O   UNL     1      10.451  25.379   8.347  1.00  0.00    -0.624 OA
BRANCH   7  10
HETATM   10  O   UNL     1      11.621  24.010   6.471  1.00  0.00    -0.173 OA
BRANCH  10  11
HETATM   11  P   UNL     1      12.976  23.254   7.100  1.00  0.00     0.431 P 
HETATM   12  O   UNL     1      13.967  23.538   6.001  1.00  0.00    -0.616 OA
HETATM   13  O   UNL     1      12.613  21.795   6.932  1.00  0.00    -0.616 OA
HETATM   14  O   UNL     1      13.124  23.940   8.487  1.00  0.00    -0.616 OA
ENDBRANCH  10  11
ENDBRANCH   7  10
ENDBRANCH   6   7
ENDBRANCH   1   6
BRANCH   2  15
HETATM   15  O   UNL     1       9.391  21.536  10.078  1.00  0.00    -0.388 OA
ATOM     16  HO  UNL     1       8.677  22.010  10.486  1.00  0.00     0.210 HD
ENDBRANCH   2  15
BRANCH   4  17
HETATM   17  C   UNL     1       8.859  19.023   6.070  1.00  0.00     0.217 C 
BRANCH  17  18
HETATM   18  O   UNL     1       7.714  19.565   5.378  1.00  0.00    -0.280 OA
BRANCH  18  19
HETATM   19  P   UNL     1       7.667  19.740   3.780  1.00  0.00     0.422 P 
HETATM   20  O   UNL     1       8.877  19.075   3.157  1.00  0.00    -0.617 OA
HETATM   21  O   UNL     1       6.331  19.044   3.426  1.00  0.00    -0.617 OA
HETATM   22  O   UNL     1       7.624  21.218   3.486  1.00  0.00    -0.617 OA
ENDBRANCH  18  19
ENDBRANCH  17  18
ENDBRANCH   4  17
BRANCH   3  23
HETATM   23  O   UNL     1      11.089  20.388   8.844  1.00  0.00    -0.390 OA
ATOM     24  HO  UNL     1      11.838  19.967   8.440  1.00  0.00     0.210 HD
ENDBRANCH   3  23
TORSDOF 9
ENDMDL
MODEL 19
REMARK VINA RESULT:    -7.609      3.165      4.681
REMARK INTER + INTRA:         -12.065
REMARK INTER:                 -11.584
REMARK INTRA:                  -0.481
REMARK UNBOUND:                -0.897
REMARK  9 active torsions:
REMARK  status: ('A' for Active; 'I' for Inactive)
REMARK    1  A    between atoms: C_1  and  O_6 
REMARK    2  A    between atoms: C_2  and  O_7 
REMARK    3  A    between atoms: C_3  and  O_9 
REMARK    4  A    between atoms: C_4  and  C_5 
REMARK    5  A    between atoms: C_5  and  O_12 
REMARK    6  A    between atoms: O_6  and  P_17 
REMARK    7  A    between atoms: O_12  and  P_13 
REMARK    8  A    between atoms: P_17  and  O_20 
REMARK    9  A    between atoms: O_20  and  P_21 
ROOT
HETATM    1  C   UNL     1       8.833  21.525   8.457  1.00  0.00     0.304 C 
HETATM    2  C   UNL     1       9.310  20.330   9.226  1.00  0.00     0.205 C 
HETATM    3  C   UNL     1      10.270  19.693   8.250  1.00  0.00     0.182 C 
HETATM    4  C   UNL     1       9.713  20.003   6.857  1.00  0.00     0.180 C 
HETATM    5  O   UNL     1       8.844  21.131   7.082  1.00  0.00    -0.348 OA
ENDROOT
BRANCH   1   6
HETATM    6  O   UNL     1       9.787  22.592   8.735  1.00  0.00    -0.255 OA
BRANCH   6   7
HETATM    7  P   UNL     1       9.465  24.053   8.083  1.00  0.00     0.420 P 
HETATM    8  O   UNL     1       8.106  24.673   8.422  1.00  0.00    -0.624 OA
HETATM    9  O   UNL     1      10.593  24.934   8.523  1.00  0.00    -0.624 OA
BRANCH   7  10
HETATM   10  O   UNL     1       9.407  23.848   6.478  1.00  0.00    -0.173 OA
BRANCH  10  11
HETATM   11  P   UNL     1       9.799  25.073   5.406  1.00  0.00     0.431 P 
HETATM   12  O   UNL     1       9.405  24.418   4.107  1.00  0.00    -0.616 OA
HETATM   13  O   UNL     1      11.311  25.020   5.427  1.00  0.00    -0.616 OA
HETATM   14  O   UNL     1       8.981  26.273   5.959  1.00  0.00    -0.616 OA
ENDBRANCH  10  11
ENDBRANCH   7  10
ENDBRANCH   6   7
ENDBRANCH   1   6
BRANCH   2  15
HETATM   15  O   UNL     1      10.019  20.847  10.355  1.00  0.00    -0.388 OA
ATOM     16  HO  UNL     1      10.938  20.833  10.115  1.00  0.00     0.210 HD
ENDBRANCH   2  15
BRANCH   4  17
HETATM   17  C   UNL     1       8.974  18.829   6.172  1.00  0.00     0.217 C 
BRANCH  17  18
HETATM   18  O   UNL     1       7.828  19.256   5.404  1.00  0.00    -0.280 OA
BRANCH  18  19
HETATM   19  P   UNL     1       7.941  19.755   3.880  1.00  0.00     0.422 P 
HETATM   20  O   UNL     1       9.051  19.003   3.175  1.00  0.00    -0.617 OA
HETATM   21  O   UNL     1       6.531  19.425   3.335  1.00  0.00    -0.617 OA
HETATM   22  O   UNL     1       8.198  21.241   3.905  1.00  0.00    -0.617 OA
ENDBRANCH  18  19
ENDBRANCH  17  18
ENDBRANCH   4  17
BRANCH   3  23
HETATM   23  O   UNL     1      11.517  20.380   8.550  1.00  0.00    -0.390 OA
ATOM     24  HO  UNL     1      11.531  21.288   8.270  1.00  0.00     0.210 HD
ENDBRANCH   3  23
TORSDOF 9
ENDMDL
MODEL 20
REMARK VINA RESULT:    -7.565      2.983      6.636
REMARK INTER + INTRA:         -12.000
REMARK INTER:                 -11.739
REMARK INTRA:                  -0.261
REMARK UNBOUND:                -0.897
REMARK  9 active torsions:
REMARK  status: ('A' for Active; 'I' for Inactive)
REMARK    1  A    between atoms: C_1  and  O_6 
REMARK    2  A    between atoms: C_2  and  O_7 
REMARK    3  A    between atoms: C_3  and  O_9 
REMARK    4  A    between atoms: C_4  and  C_5 
REMARK    5  A    between atoms: C_5  and  O_12 
REMARK    6  A    between atoms: O_6  and  P_17 
REMARK    7  A    between atoms: O_12  and  P_13 
REMARK    8  A    between atoms: P_17  and  O_20 
REMARK    9  A    between atoms: O_20  and  P_21 
ROOT
HETATM    1  C   UNL     1       9.561  20.897   7.162  1.00  0.00     0.304 C 
HETATM    2  C   UNL     1       9.606  20.993   8.657  1.00  0.00     0.205 C 
HETATM    3  C   UNL     1       8.989  22.350   8.902  1.00  0.00     0.182 C 
HETATM    4  C   UNL     1       9.377  23.207   7.694  1.00  0.00     0.180 C 
HETATM    5  O   UNL     1       9.716  22.236   6.682  1.00  0.00    -0.348 OA
ENDROOT
BRANCH   1   6
HETATM    6  O   UNL     1       8.257  20.338   6.831  1.00  0.00    -0.255 OA
BRANCH   6   7
HETATM    7  P   UNL     1       8.246  18.863   6.132  1.00  0.00     0.420 P 
HETATM    8  O   UNL     1       9.053  17.765   6.831  1.00  0.00    -0.624 OA
HETATM    9  O   UNL     1       6.799  18.493   6.023  1.00  0.00    -0.624 OA
BRANCH   7  10
HETATM   10  O   UNL     1       8.972  19.020   4.693  1.00  0.00    -0.173 OA
BRANCH  10  11
HETATM   11  P   UNL     1       8.290  19.893   3.438  1.00  0.00     0.431 P 
HETATM   12  O   UNL     1       6.929  19.248   3.380  1.00  0.00    -0.616 OA
HETATM   13  O   UNL     1       9.036  19.338   2.244  1.00  0.00    -0.616 OA
HETATM   14  O   UNL     1       8.443  21.359   3.931  1.00  0.00    -0.616 OA
ENDBRANCH  10  11
ENDBRANCH   7  10
ENDBRANCH   6   7
ENDBRANCH   1   6
BRANCH   2  15
HETATM   15  O   UNL     1       8.745  19.960   9.142  1.00  0.00    -0.388 OA
ATOM     16  HO  UNL     1       9.063  19.741  10.009  1.00  0.00     0.210 HD
ENDBRANCH   2  15
BRANCH   4  17
HETATM   17  C   UNL     1      10.530  24.207   7.945  1.00  0.00     0.217 C 
BRANCH  17  18
HETATM   18  O   UNL     1      11.526  24.196   6.899  1.00  0.00    -0.280 OA
BRANCH  18  19
HETATM   19  P   UNL     1      13.099  24.053   7.199  1.00  0.00     0.422 P 
HETATM   20  O   UNL     1      13.653  25.382   7.667  1.00  0.00    -0.617 OA
HETATM   21  O   UNL     1      13.113  22.960   8.294  1.00  0.00    -0.617 OA
HETATM   22  O   UNL     1      13.763  23.582   5.930  1.00  0.00    -0.617 OA
ENDBRANCH  18  19
ENDBRANCH  17  18
ENDBRANCH   4  17
BRANCH   3  23
HETATM   23  O   UNL     1       7.569  22.035   8.967  1.00  0.00    -0.390 OA
ATOM     24  HO  UNL     1       7.004  22.789   8.843  1.00  0.00     0.210 HD
ENDBRANCH   3  23
TORSDOF 9
ENDMDL
