MODEL 1
REMARK VINA RESULT:    -4.838      0.000      0.000
REMARK INTER + INTRA:          -6.287
REMARK INTER:                  -5.969
REMARK INTRA:                  -0.318
REMARK UNBOUND:                -0.318
REMARK  6 active torsions:
REMARK  status: ('A' for Active; 'I' for Inactive)
REMARK    1  A    between atoms: C_1  and  O_8 
REMARK    2  A    between atoms: C_2  and  O_9 
REMARK    3  A    between atoms: C_3  and  O_11 
REMARK    4  A    between atoms: C_4  and  O_13 
REMARK    5  A    between atoms: C_5  and  C_6 
REMARK    6  A    between atoms: C_6  and  O_16 
ROOT
HETATM    1  C   UNL     1      -5.050 -18.254   5.651  1.00  0.00     0.290 C 
HETATM    2  C   UNL     1      -4.705 -16.803   5.366  1.00  0.00     0.204 C 
HETATM    3  C   UNL     1      -3.241 -16.562   5.457  1.00  0.00     0.183 C 
HETATM    4  C   UNL     1      -2.693 -16.986   6.780  1.00  0.00     0.180 C 
HETATM    5  C   UNL     1      -2.980 -18.470   7.024  1.00  0.00     0.179 C 
HETATM    6  O   UNL     1      -4.426 -18.723   6.925  1.00  0.00    -0.349 OA
ENDROOT
BRANCH   5   7
HETATM    7  C   UNL     1      -2.529 -18.879   8.400  1.00  0.00     0.198 C 
BRANCH   7   8
HETATM    8  O   UNL     1      -2.497 -17.754   9.244  1.00  0.00    -0.398 OA
ATOM      9  HO  UNL     1      -1.712 -17.248   9.073  1.00  0.00     0.209 HD
ENDBRANCH   7   8
ENDBRANCH   5   7
BRANCH   4  10
HETATM   10  O   UNL     1      -1.287 -16.716   6.768  1.00  0.00    -0.390 OA
ATOM     11  HO  UNL     1      -1.029 -16.168   7.500  1.00  0.00     0.210 HD
ENDBRANCH   4  10
BRANCH   1  12
HETATM   12  O   UNL     1      -4.572 -19.009   4.625  1.00  0.00    -0.363 OA
HETATM   13  C   UNL     1      -5.045 -20.342   4.599  1.00  0.00     0.204 C 
ENDBRANCH   1  12
BRANCH   3  14
HETATM   14  O   UNL     1      -2.980 -15.141   5.283  1.00  0.00    -0.390 OA
ATOM     15  HO  UNL     1      -2.079 -15.032   5.004  1.00  0.00     0.210 HD
ENDBRANCH   3  14
BRANCH   2  16
HETATM   16  O   UNL     1      -5.387 -15.978   6.329  1.00  0.00    -0.388 OA
ATOM     17  HO  UNL     1      -4.791 -15.801   7.047  1.00  0.00     0.210 HD
ENDBRANCH   2  16
TORSDOF 6
ENDMDL
MODEL 2
REMARK VINA RESULT:    -4.805      1.827      3.726
REMARK INTER + INTRA:          -6.246
REMARK INTER:                  -5.912
REMARK INTRA:                  -0.335
REMARK UNBOUND:                -0.318
REMARK  6 active torsions:
REMARK  status: ('A' for Active; 'I' for Inactive)
REMARK    1  A    between atoms: C_1  and  O_8 
REMARK    2  A    between atoms: C_2  and  O_9 
REMARK    3  A    between atoms: C_3  and  O_11 
REMARK    4  A    between atoms: C_4  and  O_13 
REMARK    5  A    between atoms: C_5  and  C_6 
REMARK    6  A    between atoms: C_6  and  O_16 
ROOT
HETATM    1  C   UNL     1      -2.277 -18.105   4.255  1.00  0.00     0.290 C 
HETATM    2  C   UNL     1      -1.830 -17.517   5.581  1.00  0.00     0.204 C 
HETATM    3  C   UNL     1      -2.976 -17.323   6.508  1.00  0.00     0.183 C 
HETATM    4  C   UNL     1      -4.048 -16.485   5.892  1.00  0.00     0.180 C 
HETATM    5  C   UNL     1      -4.546 -17.127   4.594  1.00  0.00     0.179 C 
HETATM    6  O   UNL     1      -3.417 -17.334   3.673  1.00  0.00    -0.349 OA
ENDROOT
BRANCH   5   7
HETATM    7  C   UNL     1      -5.547 -16.235   3.910  1.00  0.00     0.198 C 
BRANCH   7   8
HETATM    8  O   UNL     1      -5.379 -14.909   4.348  1.00  0.00    -0.398 OA
ATOM      9  HO  UNL     1      -6.218 -14.550   4.613  1.00  0.00     0.209 HD
ENDBRANCH   7   8
ENDBRANCH   5   7
BRANCH   4  10
HETATM   10  O   UNL     1      -5.100 -16.359   6.855  1.00  0.00    -0.390 OA
ATOM     11  HO  UNL     1      -5.637 -17.143   6.891  1.00  0.00     0.210 HD
ENDBRANCH   4  10
BRANCH   1  12
HETATM   12  O   UNL     1      -2.683 -19.385   4.477  1.00  0.00    -0.363 OA
HETATM   13  C   UNL     1      -1.634 -20.325   4.607  1.00  0.00     0.204 C 
ENDBRANCH   1  12
BRANCH   3  14
HETATM   14  O   UNL     1      -2.507 -16.661   7.714  1.00  0.00    -0.390 OA
ATOM     15  HO  UNL     1      -1.711 -17.090   8.005  1.00  0.00     0.210 HD
ENDBRANCH   3  14
BRANCH   2  16
HETATM   16  O   UNL     1      -1.202 -16.246   5.325  1.00  0.00    -0.388 OA
ATOM     17  HO  UNL     1      -0.950 -16.216   4.409  1.00  0.00     0.210 HD
ENDBRANCH   2  16
TORSDOF 6
ENDMDL
MODEL 3
REMARK VINA RESULT:    -4.694     12.920     14.648
REMARK INTER + INTRA:          -6.110
REMARK INTER:                  -5.811
REMARK INTRA:                  -0.299
REMARK UNBOUND:                -0.318
REMARK  6 active torsions:
REMARK  status: ('A' for Active; 'I' for Inactive)
REMARK    1  A    between atoms: C_1  and  O_8 
REMARK    2  A    between atoms: C_2  and  O_9 
REMARK    3  A    between atoms: C_3  and  O_11 
REMARK    4  A    between atoms: C_4  and  O_13 
REMARK    5  A    between atoms: C_5  and  C_6 
REMARK    6  A    between atoms: C_6  and  O_16 
ROOT
HETATM    1  C   UNL     1     -14.772  -7.096  10.459  1.00  0.00     0.290 C 
HETATM    2  C   UNL     1     -13.387  -6.542  10.739  1.00  0.00     0.204 C 
HETATM    3  C   UNL     1     -12.435  -6.870   9.645  1.00  0.00     0.183 C 
HETATM    4  C   UNL     1     -12.375  -8.340   9.388  1.00  0.00     0.180 C 
HETATM    5  C   UNL     1     -13.764  -8.875   9.031  1.00  0.00     0.179 C 
HETATM    6  O   UNL     1     -14.717  -8.546  10.102  1.00  0.00    -0.349 OA
ENDROOT
BRANCH   5   7
HETATM    7  C   UNL     1     -13.734 -10.372   8.878  1.00  0.00     0.198 C 
BRANCH   7   8
HETATM    8  O   UNL     1     -13.034 -10.715   7.706  1.00  0.00    -0.398 OA
ATOM      9  HO  UNL     1     -12.266 -10.163   7.618  1.00  0.00     0.209 HD
ENDBRANCH   7   8
ENDBRANCH   5   7
BRANCH   4  10
HETATM   10  O   UNL     1     -11.440  -8.550   8.324  1.00  0.00    -0.390 OA
ATOM     11  HO  UNL     1     -10.652  -8.033   8.444  1.00  0.00     0.210 HD
ENDBRANCH   4  10
BRANCH   1  12
HETATM   12  O   UNL     1     -15.296  -6.407   9.409  1.00  0.00    -0.363 OA
HETATM   13  C   UNL     1     -15.725  -5.094   9.717  1.00  0.00     0.204 C 
ENDBRANCH   1  12
BRANCH   3  14
HETATM   14  O   UNL     1     -11.106  -6.410  10.016  1.00  0.00    -0.390 OA
ATOM     15  HO  UNL     1     -10.883  -5.662   9.475  1.00  0.00     0.210 HD
ENDBRANCH   3  14
BRANCH   2  16
HETATM   16  O   UNL     1     -12.912  -7.113  11.973  1.00  0.00    -0.388 OA
ATOM     17  HO  UNL     1     -13.080  -6.494  12.674  1.00  0.00     0.210 HD
ENDBRANCH   2  16
TORSDOF 6
ENDMDL
MODEL 4
REMARK VINA RESULT:    -4.689      1.662      3.705
REMARK INTER + INTRA:          -6.104
REMARK INTER:                  -5.796
REMARK INTRA:                  -0.307
REMARK UNBOUND:                -0.318
REMARK  6 active torsions:
REMARK  status: ('A' for Active; 'I' for Inactive)
REMARK    1  A    between atoms: C_1  and  O_8 
REMARK    2  A    between atoms: C_2  and  O_9 
REMARK    3  A    between atoms: C_3  and  O_11 
REMARK    4  A    between atoms: C_4  and  O_13 
REMARK    5  A    between atoms: C_5  and  C_6 
REMARK    6  A    between atoms: C_6  and  O_16 
ROOT
HETATM    1  C   UNL     1      -2.046 -18.881   6.937  1.00  0.00     0.290 C 
HETATM    2  C   UNL     1      -3.054 -18.747   8.064  1.00  0.00     0.204 C 
HETATM    3  C   UNL     1      -4.272 -18.017   7.624  1.00  0.00     0.183 C 
HETATM    4  C   UNL     1      -3.937 -16.678   7.051  1.00  0.00     0.180 C 
HETATM    5  C   UNL     1      -2.979 -16.832   5.867  1.00  0.00     0.179 C 
HETATM    6  O   UNL     1      -1.774 -17.563   6.288  1.00  0.00    -0.349 OA
ENDROOT
BRANCH   5   7
HETATM    7  C   UNL     1      -2.550 -15.483   5.354  1.00  0.00     0.198 C 
BRANCH   7   8
HETATM    8  O   UNL     1      -3.505 -14.995   4.444  1.00  0.00    -0.398 OA
ATOM      9  HO  UNL     1      -3.290 -15.288   3.566  1.00  0.00     0.209 HD
ENDBRANCH   7   8
ENDBRANCH   5   7
BRANCH   4  10
HETATM   10  O   UNL     1      -5.167 -16.061   6.658  1.00  0.00    -0.390 OA
ATOM     11  HO  UNL     1      -5.915 -16.475   7.073  1.00  0.00     0.210 HD
ENDBRANCH   4  10
BRANCH   1  12
HETATM   12  O   UNL     1      -2.565 -19.728   6.007  1.00  0.00    -0.363 OA
HETATM   13  C   UNL     1      -1.639 -20.189   5.042  1.00  0.00     0.204 C 
ENDBRANCH   1  12
BRANCH   3  14
HETATM   14  O   UNL     1      -5.152 -17.824   8.766  1.00  0.00    -0.390 OA
ATOM     15  HO  UNL     1      -5.065 -16.927   9.067  1.00  0.00     0.210 HD
ENDBRANCH   3  14
BRANCH   2  16
HETATM   16  O   UNL     1      -2.432 -18.029   9.146  1.00  0.00    -0.388 OA
ATOM     17  HO  UNL     1      -1.594 -18.437   9.333  1.00  0.00     0.210 HD
ENDBRANCH   2  16
TORSDOF 6
ENDMDL
MODEL 5
REMARK VINA RESULT:    -4.628      1.637      3.709
REMARK INTER + INTRA:          -6.028
REMARK INTER:                  -5.735
REMARK INTRA:                  -0.293
REMARK UNBOUND:                -0.318
REMARK  6 active torsions:
REMARK  status: ('A' for Active; 'I' for Inactive)
REMARK    1  A    between atoms: C_1  and  O_8 
REMARK    2  A    between atoms: C_2  and  O_9 
REMARK    3  A    between atoms: C_3  and  O_11 
REMARK    4  A    between atoms: C_4  and  O_13 
REMARK    5  A    between atoms: C_5  and  C_6 
REMARK    6  A    between atoms: C_6  and  O_16 
ROOT
HETATM    1  C   UNL     1      -3.145 -16.826   7.517  1.00  0.00     0.290 C 
HETATM    2  C   UNL     1      -4.377 -17.153   6.694  1.00  0.00     0.204 C 
HETATM    3  C   UNL     1      -4.049 -17.290   5.250  1.00  0.00     0.183 C 
HETATM    4  C   UNL     1      -3.367 -16.071   4.721  1.00  0.00     0.180 C 
HETATM    5  C   UNL     1      -2.084 -15.795   5.510  1.00  0.00     0.179 C 
HETATM    6  O   UNL     1      -2.395 -15.669   6.943  1.00  0.00    -0.349 OA
ENDROOT
BRANCH   5   7
HETATM    7  C   UNL     1      -1.448 -14.508   5.057  1.00  0.00     0.198 C 
BRANCH   7   8
HETATM    8  O   UNL     1      -2.310 -13.839   4.169  1.00  0.00    -0.398 OA
ATOM      9  HO  UNL     1      -2.427 -14.360   3.383  1.00  0.00     0.209 HD
ENDBRANCH   7   8
ENDBRANCH   5   7
BRANCH   4  10
HETATM   10  O   UNL     1      -3.093 -16.301   3.335  1.00  0.00    -0.390 OA
ATOM     11  HO  UNL     1      -2.161 -16.380   3.170  1.00  0.00     0.210 HD
ENDBRANCH   4  10
BRANCH   1  12
HETATM   12  O   UNL     1      -2.334 -17.919   7.512  1.00  0.00    -0.363 OA
HETATM   13  C   UNL     1      -2.630 -18.883   8.504  1.00  0.00     0.204 C 
ENDBRANCH   1  12
BRANCH   3  14
HETATM   14  O   UNL     1      -5.278 -17.494   4.499  1.00  0.00    -0.390 OA
ATOM     15  HO  UNL     1      -5.075 -17.993   3.717  1.00  0.00     0.210 HD
ENDBRANCH   3  14
BRANCH   2  16
HETATM   16  O   UNL     1      -5.334 -16.090   6.868  1.00  0.00    -0.388 OA
ATOM     17  HO  UNL     1      -5.077 -15.579   7.626  1.00  0.00     0.210 HD
ENDBRANCH   2  16
TORSDOF 6
ENDMDL
MODEL 6
REMARK VINA RESULT:    -4.581      3.145      5.185
REMARK INTER + INTRA:          -5.971
REMARK INTER:                  -5.683
REMARK INTRA:                  -0.288
REMARK UNBOUND:                -0.318
REMARK  6 active torsions:
REMARK  status: ('A' for Active; 'I' for Inactive)
REMARK    1  A    between atoms: C_1  and  O_8 
REMARK    2  A    between atoms: C_2  and  O_9 
REMARK    3  A    between atoms: C_3  and  O_11 
REMARK    4  A    between atoms: C_4  and  O_13 
REMARK    5  A    between atoms: C_5  and  C_6 
REMARK    6  A    between atoms: C_6  and  O_16 
ROOT
HETATM    1  C   UNL     1      -5.348 -17.054   3.566  1.00  0.00     0.290 C 
HETATM    2  C   UNL     1      -3.890 -16.637   3.641  1.00  0.00     0.204 C 
HETATM    3  C   UNL     1      -3.751 -15.200   3.995  1.00  0.00     0.183 C 
HETATM    4  C   UNL     1      -4.505 -14.322   3.050  1.00  0.00     0.180 C 
HETATM    5  C   UNL     1      -5.988 -14.703   3.040  1.00  0.00     0.179 C 
HETATM    6  O   UNL     1      -6.138 -16.126   2.701  1.00  0.00    -0.349 OA
ENDROOT
BRANCH   5   7
HETATM    7  C   UNL     1      -6.735 -13.898   2.010  1.00  0.00     0.198 C 
BRANCH   7   8
HETATM    8  O   UNL     1      -6.766 -12.545   2.395  1.00  0.00    -0.398 OA
ATOM      9  HO  UNL     1      -5.879 -12.227   2.519  1.00  0.00     0.209 HD
ENDBRANCH   7   8
ENDBRANCH   5   7
BRANCH   4  10
HETATM   10  O   UNL     1      -4.310 -12.969   3.475  1.00  0.00    -0.390 OA
ATOM     11  HO  UNL     1      -5.036 -12.413   3.216  1.00  0.00     0.210 HD
ENDBRANCH   4  10
BRANCH   1  12
HETATM   12  O   UNL     1      -5.860 -17.021   4.826  1.00  0.00    -0.363 OA
HETATM   13  C   UNL     1      -5.505 -18.121   5.641  1.00  0.00     0.204 C 
ENDBRANCH   1  12
BRANCH   3  14
HETATM   14  O   UNL     1      -2.345 -14.831   3.947  1.00  0.00    -0.390 OA
ATOM     15  HO  UNL     1      -1.900 -15.238   4.681  1.00  0.00     0.210 HD
ENDBRANCH   3  14
BRANCH   2  16
HETATM   16  O   UNL     1      -3.285 -16.873   2.356  1.00  0.00    -0.388 OA
ATOM     17  HO  UNL     1      -2.347 -16.961   2.479  1.00  0.00     0.210 HD
ENDBRANCH   2  16
TORSDOF 6
ENDMDL
MODEL 7
REMARK VINA RESULT:    -4.565     12.872     14.413
REMARK INTER + INTRA:          -5.950
REMARK INTER:                  -5.622
REMARK INTRA:                  -0.328
REMARK UNBOUND:                -0.318
REMARK  6 active torsions:
REMARK  status: ('A' for Active; 'I' for Inactive)
REMARK    1  A    between atoms: C_1  and  O_8 
REMARK    2  A    between atoms: C_2  and  O_9 
REMARK    3  A    between atoms: C_3  and  O_11 
REMARK    4  A    between atoms: C_4  and  O_13 
REMARK    5  A    between atoms: C_5  and  C_6 
REMARK    6  A    between atoms: C_6  and  O_16 
ROOT
HETATM    1  C   UNL     1     -13.269  -6.340  10.868  1.00  0.00     0.290 C 
HETATM    2  C   UNL     1     -12.542  -6.804   9.619  1.00  0.00     0.204 C 
HETATM    3  C   UNL     1     -12.872  -8.215   9.287  1.00  0.00     0.183 C 
HETATM    4  C   UNL     1     -12.594  -9.132  10.433  1.00  0.00     0.180 C 
HETATM    5  C   UNL     1     -13.391  -8.699  11.666  1.00  0.00     0.179 C 
HETATM    6  O   UNL     1     -13.081  -7.300  11.997  1.00  0.00    -0.349 OA
ENDROOT
BRANCH   5   7
HETATM    7  C   UNL     1     -13.033  -9.550  12.855  1.00  0.00     0.198 C 
BRANCH   7   8
HETATM    8  O   UNL     1     -11.815 -10.212  12.616  1.00  0.00    -0.398 OA
ATOM      9  HO  UNL     1     -11.568 -10.714  13.384  1.00  0.00     0.209 HD
ENDBRANCH   7   8
ENDBRANCH   5   7
BRANCH   4  10
HETATM   10  O   UNL     1     -12.943 -10.456  10.016  1.00  0.00    -0.390 OA
ATOM     11  HO  UNL     1     -12.172 -10.981   9.835  1.00  0.00     0.210 HD
ENDBRANCH   4  10
BRANCH   1  12
HETATM   12  O   UNL     1     -14.596  -6.261  10.578  1.00  0.00    -0.363 OA
HETATM   13  C   UNL     1     -14.967  -5.143   9.794  1.00  0.00     0.204 C 
ENDBRANCH   1  12
BRANCH   3  14
HETATM   14  O   UNL     1     -12.068  -8.638   8.150  1.00  0.00    -0.390 OA
ATOM     15  HO  UNL     1     -12.474  -9.404   7.762  1.00  0.00     0.210 HD
ENDBRANCH   3  14
BRANCH   2  16
HETATM   16  O   UNL     1     -11.125  -6.686   9.849  1.00  0.00    -0.388 OA
ATOM     17  HO  UNL     1     -10.991  -6.144  10.618  1.00  0.00     0.210 HD
ENDBRANCH   2  16
TORSDOF 6
ENDMDL
MODEL 8
REMARK VINA RESULT:    -4.520      1.927      4.109
REMARK INTER + INTRA:          -5.894
REMARK INTER:                  -5.619
REMARK INTRA:                  -0.275
REMARK UNBOUND:                -0.318
REMARK  6 active torsions:
REMARK  status: ('A' for Active; 'I' for Inactive)
REMARK    1  A    between atoms: C_1  and  O_8 
REMARK    2  A    between atoms: C_2  and  O_9 
REMARK    3  A    between atoms: C_3  and  O_11 
REMARK    4  A    between atoms: C_4  and  O_13 
REMARK    5  A    between atoms: C_5  and  C_6 
REMARK    6  A    between atoms: C_6  and  O_16 
ROOT
HETATM    1  C   UNL     1      -5.187 -17.800   5.702  1.00  0.00     0.290 C 
HETATM    2  C   UNL     1      -3.763 -18.137   5.296  1.00  0.00     0.204 C 
HETATM    3  C   UNL     1      -2.980 -16.912   4.982  1.00  0.00     0.183 C 
HETATM    4  C   UNL     1      -3.648 -16.084   3.933  1.00  0.00     0.180 C 
HETATM    5  C   UNL     1      -5.055 -15.686   4.386  1.00  0.00     0.179 C 
HETATM    6  O   UNL     1      -5.836 -16.890   4.711  1.00  0.00    -0.349 OA
ENDROOT
BRANCH   5   7
HETATM    7  C   UNL     1      -5.775 -14.945   3.291  1.00  0.00     0.198 C 
BRANCH   7   8
HETATM    8  O   UNL     1      -5.602 -13.560   3.462  1.00  0.00    -0.398 OA
ATOM      9  HO  UNL     1      -4.693 -13.329   3.309  1.00  0.00     0.209 HD
ENDBRANCH   7   8
ENDBRANCH   5   7
BRANCH   4  10
HETATM   10  O   UNL     1      -2.823 -14.937   3.705  1.00  0.00    -0.390 OA
ATOM     11  HO  UNL     1      -3.335 -14.187   3.427  1.00  0.00     0.210 HD
ENDBRANCH   4  10
BRANCH   1  12
HETATM   12  O   UNL     1      -5.143 -17.172   6.909  1.00  0.00    -0.363 OA
HETATM   13  C   UNL     1      -4.705 -17.982   7.983  1.00  0.00     0.204 C 
ENDBRANCH   1  12
BRANCH   3  14
HETATM   14  O   UNL     1      -1.664 -17.299   4.498  1.00  0.00    -0.390 OA
ATOM     15  HO  UNL     1      -1.278 -16.558   4.047  1.00  0.00     0.210 HD
ENDBRANCH   3  14
BRANCH   2  16
HETATM   16  O   UNL     1      -3.812 -18.984   4.133  1.00  0.00    -0.388 OA
ATOM     17  HO  UNL     1      -3.962 -18.438   3.371  1.00  0.00     0.210 HD
ENDBRANCH   2  16
TORSDOF 6
ENDMDL
MODEL 9
REMARK VINA RESULT:    -4.439      1.576      3.665
REMARK INTER + INTRA:          -5.795
REMARK INTER:                  -5.474
REMARK INTRA:                  -0.322
REMARK UNBOUND:                -0.318
REMARK  6 active torsions:
REMARK  status: ('A' for Active; 'I' for Inactive)
REMARK    1  A    between atoms: C_1  and  O_8 
REMARK    2  A    between atoms: C_2  and  O_9 
REMARK    3  A    between atoms: C_3  and  O_11 
REMARK    4  A    between atoms: C_4  and  O_13 
REMARK    5  A    between atoms: C_5  and  C_6 
REMARK    6  A    between atoms: C_6  and  O_16 
ROOT
HETATM    1  C   UNL     1      -2.539 -19.088   5.546  1.00  0.00     0.290 C 
HETATM    2  C   UNL     1      -2.087 -17.680   5.889  1.00  0.00     0.204 C 
HETATM    3  C   UNL     1      -3.225 -16.835   6.338  1.00  0.00     0.183 C 
HETATM    4  C   UNL     1      -4.325 -16.807   5.327  1.00  0.00     0.180 C 
HETATM    5  C   UNL     1      -4.824 -18.226   5.045  1.00  0.00     0.179 C 
HETATM    6  O   UNL     1      -3.704 -19.074   4.611  1.00  0.00    -0.349 OA
ENDROOT
BRANCH   5   7
HETATM    7  C   UNL     1      -5.855 -18.218   3.948  1.00  0.00     0.198 C 
BRANCH   7   8
HETATM    8  O   UNL     1      -7.109 -17.864   4.478  1.00  0.00    -0.398 OA
ATOM      9  HO  UNL     1      -7.635 -18.644   4.604  1.00  0.00     0.209 HD
ENDBRANCH   7   8
ENDBRANCH   5   7
BRANCH   4  10
HETATM   10  O   UNL     1      -5.366 -15.975   5.850  1.00  0.00    -0.390 OA
ATOM     11  HO  UNL     1      -5.912 -16.445   6.469  1.00  0.00     0.210 HD
ENDBRANCH   4  10
BRANCH   1  12
HETATM   12  O   UNL     1      -2.912 -19.703   6.701  1.00  0.00    -0.363 OA
HETATM   13  C   UNL     1      -1.840 -20.090   7.540  1.00  0.00     0.204 C 
ENDBRANCH   1  12
BRANCH   3  14
HETATM   14  O   UNL     1      -2.755 -15.475   6.549  1.00  0.00    -0.390 OA
ATOM     15  HO  UNL     1      -2.933 -14.969   5.764  1.00  0.00     0.210 HD
ENDBRANCH   3  14
BRANCH   2  16
HETATM   16  O   UNL     1      -1.492 -17.096   4.715  1.00  0.00    -0.388 OA
ATOM     17  HO  UNL     1      -1.401 -16.161   4.859  1.00  0.00     0.210 HD
ENDBRANCH   2  16
TORSDOF 6
ENDMDL
MODEL 10
REMARK VINA RESULT:    -4.357     13.097     14.772
REMARK INTER + INTRA:          -5.694
REMARK INTER:                  -5.368
REMARK INTRA:                  -0.326
REMARK UNBOUND:                -0.318
REMARK  6 active torsions:
REMARK  status: ('A' for Active; 'I' for Inactive)
REMARK    1  A    between atoms: C_1  and  O_8 
REMARK    2  A    between atoms: C_2  and  O_9 
REMARK    3  A    between atoms: C_3  and  O_11 
REMARK    4  A    between atoms: C_4  and  O_13 
REMARK    5  A    between atoms: C_5  and  C_6 
REMARK    6  A    between atoms: C_6  and  O_16 
ROOT
HETATM    1  C   UNL     1     -14.919  -8.640   9.454  1.00  0.00     0.290 C 
HETATM    2  C   UNL     1     -13.642  -8.894   8.672  1.00  0.00     0.204 C 
HETATM    3  C   UNL     1     -12.461  -8.286   9.341  1.00  0.00     0.183 C 
HETATM    4  C   UNL     1     -12.654  -6.824   9.581  1.00  0.00     0.180 C 
HETATM    5  C   UNL     1     -13.902  -6.585  10.434  1.00  0.00     0.179 C 
HETATM    6  O   UNL     1     -15.076  -7.192   9.787  1.00  0.00    -0.349 OA
ENDROOT
BRANCH   5   7
HETATM    7  C   UNL     1     -14.166  -5.111  10.588  1.00  0.00     0.198 C 
BRANCH   7   8
HETATM    8  O   UNL     1     -13.465  -4.398   9.599  1.00  0.00    -0.398 OA
ATOM      9  HO  UNL     1     -13.484  -4.881   8.781  1.00  0.00     0.209 HD
ENDBRANCH   7   8
ENDBRANCH   5   7
BRANCH   4  10
HETATM   10  O   UNL     1     -11.473  -6.337  10.225  1.00  0.00    -0.390 OA
ATOM     11  HO  UNL     1     -11.030  -5.684   9.697  1.00  0.00     0.210 HD
ENDBRANCH   4  10
BRANCH   1  12
HETATM   12  O   UNL     1     -14.851  -9.351  10.612  1.00  0.00    -0.363 OA
HETATM   13  C   UNL     1     -15.266 -10.699  10.506  1.00  0.00     0.204 C 
ENDBRANCH   1  12
BRANCH   3  14
HETATM   14  O   UNL     1     -11.290  -8.467   8.498  1.00  0.00    -0.390 OA
ATOM     15  HO  UNL     1     -11.578  -8.745   7.637  1.00  0.00     0.210 HD
ENDBRANCH   3  14
BRANCH   2  16
HETATM   16  O   UNL     1     -13.794  -8.323   7.359  1.00  0.00    -0.388 OA
ATOM     17  HO  UNL     1     -14.086  -7.424   7.455  1.00  0.00     0.210 HD
ENDBRANCH   2  16
TORSDOF 6
ENDMDL
MODEL 11
REMARK VINA RESULT:    -4.220     13.256     14.903
REMARK INTER + INTRA:          -5.525
REMARK INTER:                  -5.214
REMARK INTRA:                  -0.311
REMARK UNBOUND:                -0.318
REMARK  6 active torsions:
REMARK  status: ('A' for Active; 'I' for Inactive)
REMARK    1  A    between atoms: C_1  and  O_8 
REMARK    2  A    between atoms: C_2  and  O_9 
REMARK    3  A    between atoms: C_3  and  O_11 
REMARK    4  A    between atoms: C_4  and  O_13 
REMARK    5  A    between atoms: C_5  and  C_6 
REMARK    6  A    between atoms: C_6  and  O_16 
ROOT
HETATM    1  C   UNL     1     -14.713  -8.460  10.474  1.00  0.00     0.290 C 
HETATM    2  C   UNL     1     -13.832  -8.808   9.288  1.00  0.00     0.204 C 
HETATM    3  C   UNL     1     -12.441  -8.319   9.478  1.00  0.00     0.183 C 
HETATM    4  C   UNL     1     -12.404  -6.851   9.752  1.00  0.00     0.180 C 
HETATM    5  C   UNL     1     -13.234  -6.522  10.996  1.00  0.00     0.179 C 
HETATM    6  O   UNL     1     -14.610  -7.011  10.824  1.00  0.00    -0.349 OA
ENDROOT
BRANCH   5   7
HETATM    7  C   UNL     1     -13.293  -5.034  11.216  1.00  0.00     0.198 C 
BRANCH   7   8
HETATM    8  O   UNL     1     -13.259  -4.369   9.978  1.00  0.00    -0.398 OA
ATOM      9  HO  UNL     1     -12.362  -4.143   9.759  1.00  0.00     0.209 HD
ENDBRANCH   7   8
ENDBRANCH   5   7
BRANCH   4  10
HETATM   10  O   UNL     1     -11.031  -6.482   9.921  1.00  0.00    -0.390 OA
ATOM     11  HO  UNL     1     -10.481  -6.860   9.245  1.00  0.00     0.210 HD
ENDBRANCH   4  10
BRANCH   1  12
HETATM   12  O   UNL     1     -14.295  -9.198  11.539  1.00  0.00    -0.363 OA
HETATM   13  C   UNL     1     -15.288  -9.444  12.516  1.00  0.00     0.204 C 
ENDBRANCH   1  12
BRANCH   3  14
HETATM   14  O   UNL     1     -11.673  -8.584   8.271  1.00  0.00    -0.390 OA
ATOM     15  HO  UNL     1     -12.040  -9.348   7.841  1.00  0.00     0.210 HD
ENDBRANCH   3  14
BRANCH   2  16
HETATM   16  O   UNL     1     -14.396  -8.199   8.111  1.00  0.00    -0.388 OA
ATOM     17  HO  UNL     1     -15.061  -7.578   8.384  1.00  0.00     0.210 HD
ENDBRANCH   2  16
TORSDOF 6
ENDMDL
MODEL 12
REMARK VINA RESULT:    -4.140     14.394     15.968
REMARK INTER + INTRA:          -5.427
REMARK INTER:                  -5.092
REMARK INTRA:                  -0.335
REMARK UNBOUND:                -0.318
REMARK  6 active torsions:
REMARK  status: ('A' for Active; 'I' for Inactive)
REMARK    1  A    between atoms: C_1  and  O_8 
REMARK    2  A    between atoms: C_2  and  O_9 
REMARK    3  A    between atoms: C_3  and  O_11 
REMARK    4  A    between atoms: C_4  and  O_13 
REMARK    5  A    between atoms: C_5  and  C_6 
REMARK    6  A    between atoms: C_6  and  O_16 
ROOT
HETATM    1  C   UNL     1     -13.686  -7.927  13.035  1.00  0.00     0.290 C 
HETATM    2  C   UNL     1     -13.345  -6.556  13.589  1.00  0.00     0.204 C 
HETATM    3  C   UNL     1     -13.564  -5.487  12.578  1.00  0.00     0.183 C 
HETATM    4  C   UNL     1     -12.805  -5.754  11.320  1.00  0.00     0.180 C 
HETATM    5  C   UNL     1     -13.213  -7.106  10.729  1.00  0.00     0.179 C 
HETATM    6  O   UNL     1     -13.011  -8.170  11.725  1.00  0.00    -0.349 OA
ENDROOT
BRANCH   5   7
HETATM    7  C   UNL     1     -12.375  -7.433   9.522  1.00  0.00     0.198 C 
BRANCH   7   8
HETATM    8  O   UNL     1     -11.138  -6.769   9.608  1.00  0.00    -0.398 OA
ATOM      9  HO  UNL     1     -10.540  -7.274  10.147  1.00  0.00     0.209 HD
ENDBRANCH   7   8
ENDBRANCH   5   7
BRANCH   4  10
HETATM   10  O   UNL     1     -13.082  -4.679  10.417  1.00  0.00    -0.390 OA
ATOM     11  HO  UNL     1     -12.730  -3.855  10.735  1.00  0.00     0.210 HD
ENDBRANCH   4  10
BRANCH   1  12
HETATM   12  O   UNL     1     -15.034  -7.982  12.850  1.00  0.00    -0.363 OA
HETATM   13  C   UNL     1     -15.787  -8.180  14.031  1.00  0.00     0.204 C 
ENDBRANCH   1  12
BRANCH   3  14
HETATM   14  O   UNL     1     -13.120  -4.215  13.125  1.00  0.00    -0.390 OA
ATOM     15  HO  UNL     1     -12.369  -3.917  12.626  1.00  0.00     0.210 HD
ENDBRANCH   3  14
BRANCH   2  16
HETATM   16  O   UNL     1     -11.961  -6.560  13.988  1.00  0.00    -0.388 OA
ATOM     17  HO  UNL     1     -11.518  -7.260  13.524  1.00  0.00     0.210 HD
ENDBRANCH   2  16
TORSDOF 6
ENDMDL
MODEL 13
REMARK VINA RESULT:    -4.136     12.990     14.530
REMARK INTER + INTRA:          -5.421
REMARK INTER:                  -5.105
REMARK INTRA:                  -0.316
REMARK UNBOUND:                -0.318
REMARK  6 active torsions:
REMARK  status: ('A' for Active; 'I' for Inactive)
REMARK    1  A    between atoms: C_1  and  O_8 
REMARK    2  A    between atoms: C_2  and  O_9 
REMARK    3  A    between atoms: C_3  and  O_11 
REMARK    4  A    between atoms: C_4  and  O_13 
REMARK    5  A    between atoms: C_5  and  C_6 
REMARK    6  A    between atoms: C_6  and  O_16 
ROOT
HETATM    1  C   UNL     1     -14.836  -7.144   9.182  1.00  0.00     0.290 C 
HETATM    2  C   UNL     1     -13.432  -7.173   8.606  1.00  0.00     0.204 C 
HETATM    3  C   UNL     1     -12.712  -8.418   8.983  1.00  0.00     0.183 C 
HETATM    4  C   UNL     1     -12.681  -8.611  10.463  1.00  0.00     0.180 C 
HETATM    5  C   UNL     1     -14.105  -8.657  11.024  1.00  0.00     0.179 C 
HETATM    6  O   UNL     1     -14.831  -7.434  10.648  1.00  0.00    -0.349 OA
ENDROOT
BRANCH   5   7
HETATM    7  C   UNL     1     -14.082  -8.741  12.526  1.00  0.00     0.198 C 
BRANCH   7   8
HETATM    8  O   UNL     1     -12.847  -8.271  13.010  1.00  0.00    -0.398 OA
ATOM      9  HO  UNL     1     -12.138  -8.686  12.533  1.00  0.00     0.209 HD
ENDBRANCH   7   8
ENDBRANCH   5   7
BRANCH   4  10
HETATM   10  O   UNL     1     -11.973  -9.828  10.721  1.00  0.00    -0.390 OA
ATOM     11  HO  UNL     1     -11.744  -9.912  11.640  1.00  0.00     0.210 HD
ENDBRANCH   4  10
BRANCH   1  12
HETATM   12  O   UNL     1     -15.570  -8.100   8.549  1.00  0.00    -0.363 OA
HETATM   13  C   UNL     1     -16.840  -7.671   8.098  1.00  0.00     0.204 C 
ENDBRANCH   1  12
BRANCH   3  14
HETATM   14  O   UNL     1     -11.343  -8.342   8.497  1.00  0.00    -0.390 OA
ATOM     15  HO  UNL     1     -11.120  -9.171   8.091  1.00  0.00     0.210 HD
ENDBRANCH   3  14
BRANCH   2  16
HETATM   16  O   UNL     1     -12.712  -6.032   9.111  1.00  0.00    -0.388 OA
ATOM     17  HO  UNL     1     -13.098  -5.247   8.742  1.00  0.00     0.210 HD
ENDBRANCH   2  16
TORSDOF 6
ENDMDL
MODEL 14
REMARK VINA RESULT:    -4.123     13.041     14.806
REMARK INTER + INTRA:          -5.405
REMARK INTER:                  -5.305
REMARK INTRA:                  -0.099
REMARK UNBOUND:                -0.318
REMARK  6 active torsions:
REMARK  status: ('A' for Active; 'I' for Inactive)
REMARK    1  A    between atoms: C_1  and  O_8 
REMARK    2  A    between atoms: C_2  and  O_9 
REMARK    3  A    between atoms: C_3  and  O_11 
REMARK    4  A    between atoms: C_4  and  O_13 
REMARK    5  A    between atoms: C_5  and  C_6 
REMARK    6  A    between atoms: C_6  and  O_16 
ROOT
HETATM    1  C   UNL     1     -13.739  -7.812   8.125  1.00  0.00     0.290 C 
HETATM    2  C   UNL     1     -12.774  -8.770   8.798  1.00  0.00     0.204 C 
HETATM    3  C   UNL     1     -12.953  -8.779  10.274  1.00  0.00     0.183 C 
HETATM    4  C   UNL     1     -12.831  -7.408  10.855  1.00  0.00     0.180 C 
HETATM    5  C   UNL     1     -13.861  -6.469  10.222  1.00  0.00     0.179 C 
HETATM    6  O   UNL     1     -13.700  -6.460   8.760  1.00  0.00    -0.349 OA
ENDROOT
BRANCH   5   7
HETATM    7  C   UNL     1     -13.672  -5.061  10.720  1.00  0.00     0.198 C 
BRANCH   7   8
HETATM    8  O   UNL     1     -13.556  -4.183   9.627  1.00  0.00    -0.398 OA
ATOM      9  HO  UNL     1     -14.420  -3.961   9.301  1.00  0.00     0.209 HD
ENDBRANCH   7   8
ENDBRANCH   5   7
BRANCH   4  10
HETATM   10  O   UNL     1     -13.020  -7.524  12.268  1.00  0.00    -0.390 OA
ATOM     11  HO  UNL     1     -12.704  -6.755  12.728  1.00  0.00     0.210 HD
ENDBRANCH   4  10
BRANCH   1  12
HETATM   12  O   UNL     1     -14.995  -8.320   8.255  1.00  0.00    -0.363 OA
HETATM   13  C   UNL     1     -15.689  -8.506   7.036  1.00  0.00     0.204 C 
ENDBRANCH   1  12
BRANCH   3  14
HETATM   14  O   UNL     1     -11.935  -9.628  10.873  1.00  0.00    -0.390 OA
ATOM     15  HO  UNL     1     -12.276  -9.979  11.688  1.00  0.00     0.210 HD
ENDBRANCH   3  14
BRANCH   2  16
HETATM   16  O   UNL     1     -11.431  -8.356   8.483  1.00  0.00    -0.388 OA
ATOM     17  HO  UNL     1     -11.294  -7.486   8.841  1.00  0.00     0.210 HD
ENDBRANCH   2  16
TORSDOF 6
ENDMDL
MODEL 15
REMARK VINA RESULT:    -4.082     12.258     13.728
REMARK INTER + INTRA:          -5.355
REMARK INTER:                  -5.053
REMARK INTRA:                  -0.301
REMARK UNBOUND:                -0.318
REMARK  6 active torsions:
REMARK  status: ('A' for Active; 'I' for Inactive)
REMARK    1  A    between atoms: C_1  and  O_8 
REMARK    2  A    between atoms: C_2  and  O_9 
REMARK    3  A    between atoms: C_3  and  O_11 
REMARK    4  A    between atoms: C_4  and  O_13 
REMARK    5  A    between atoms: C_5  and  C_6 
REMARK    6  A    between atoms: C_6  and  O_16 
ROOT
HETATM    1  C   UNL     1     -14.569  -9.365   7.355  1.00  0.00     0.290 C 
HETATM    2  C   UNL     1     -13.932 -10.555   8.049  1.00  0.00     0.204 C 
HETATM    3  C   UNL     1     -13.629 -10.259   9.474  1.00  0.00     0.183 C 
HETATM    4  C   UNL     1     -12.774  -9.043   9.616  1.00  0.00     0.180 C 
HETATM    5  C   UNL     1     -13.461  -7.832   8.979  1.00  0.00     0.179 C 
HETATM    6  O   UNL     1     -13.775  -8.118   7.571  1.00  0.00    -0.349 OA
ENDROOT
BRANCH   5   7
HETATM    7  C   UNL     1     -12.559  -6.628   9.020  1.00  0.00     0.198 C 
BRANCH   7   8
HETATM    8  O   UNL     1     -11.262  -7.018   9.401  1.00  0.00    -0.398 OA
ATOM      9  HO  UNL     1     -11.000  -6.541  10.179  1.00  0.00     0.209 HD
ENDBRANCH   7   8
ENDBRANCH   5   7
BRANCH   4  10
HETATM   10  O   UNL     1     -12.543  -8.843  11.014  1.00  0.00    -0.390 OA
ATOM     11  HO  UNL     1     -12.412  -7.925  11.220  1.00  0.00     0.210 HD
ENDBRANCH   4  10
BRANCH   1  12
HETATM   12  O   UNL     1     -15.813  -9.189   7.879  1.00  0.00    -0.363 OA
HETATM   13  C   UNL     1     -16.717  -8.495   7.040  1.00  0.00     0.204 C 
ENDBRANCH   1  12
BRANCH   3  14
HETATM   14  O   UNL     1     -12.926 -11.391  10.057  1.00  0.00    -0.390 OA
ATOM     15  HO  UNL     1     -13.075 -12.153   9.510  1.00  0.00     0.210 HD
ENDBRANCH   3  14
BRANCH   2  16
HETATM   16  O   UNL     1     -12.711 -10.882   7.359  1.00  0.00    -0.388 OA
ATOM     17  HO  UNL     1     -12.181 -10.096   7.300  1.00  0.00     0.210 HD
ENDBRANCH   2  16
TORSDOF 6
ENDMDL
MODEL 16
REMARK VINA RESULT:    -4.036     13.558     15.538
REMARK INTER + INTRA:          -5.298
REMARK INTER:                  -4.990
REMARK INTRA:                  -0.307
REMARK UNBOUND:                -0.318
REMARK  6 active torsions:
REMARK  status: ('A' for Active; 'I' for Inactive)
REMARK    1  A    between atoms: C_1  and  O_8 
REMARK    2  A    between atoms: C_2  and  O_9 
REMARK    3  A    between atoms: C_3  and  O_11 
REMARK    4  A    between atoms: C_4  and  O_13 
REMARK    5  A    between atoms: C_5  and  C_6 
REMARK    6  A    between atoms: C_6  and  O_16 
ROOT
HETATM    1  C   UNL     1     -13.839  -5.999  10.304  1.00  0.00     0.290 C 
HETATM    2  C   UNL     1     -12.588  -6.819  10.047  1.00  0.00     0.204 C 
HETATM    3  C   UNL     1     -12.569  -7.370   8.666  1.00  0.00     0.183 C 
HETATM    4  C   UNL     1     -13.796  -8.171   8.375  1.00  0.00     0.180 C 
HETATM    5  C   UNL     1     -15.049  -7.312   8.563  1.00  0.00     0.179 C 
HETATM    6  O   UNL     1     -15.073  -6.752   9.923  1.00  0.00    -0.349 OA
ENDROOT
BRANCH   5   7
HETATM    7  C   UNL     1     -16.293  -8.139   8.379  1.00  0.00     0.198 C 
BRANCH   7   8
HETATM    8  O   UNL     1     -16.502  -8.383   7.009  1.00  0.00    -0.398 OA
ATOM      9  HO  UNL     1     -16.979  -9.197   6.898  1.00  0.00     0.209 HD
ENDBRANCH   7   8
ENDBRANCH   5   7
BRANCH   4  10
HETATM   10  O   UNL     1     -13.683  -8.652   7.031  1.00  0.00    -0.390 OA
ATOM     11  HO  UNL     1     -14.494  -8.539   6.550  1.00  0.00     0.210 HD
ENDBRANCH   4  10
BRANCH   1  12
HETATM   12  O   UNL     1     -13.765  -4.870   9.548  1.00  0.00    -0.363 OA
HETATM   13  C   UNL     1     -14.547  -3.789  10.018  1.00  0.00     0.204 C 
ENDBRANCH   1  12
BRANCH   3  14
HETATM   14  O   UNL     1     -11.407  -8.231   8.512  1.00  0.00    -0.390 OA
ATOM     15  HO  UNL     1     -10.627  -7.689   8.514  1.00  0.00     0.210 HD
ENDBRANCH   3  14
BRANCH   2  16
HETATM   16  O   UNL     1     -12.554  -7.903  10.995  1.00  0.00    -0.388 OA
ATOM     17  HO  UNL     1     -12.575  -7.536  11.871  1.00  0.00     0.210 HD
ENDBRANCH   2  16
TORSDOF 6
ENDMDL
MODEL 17
REMARK VINA RESULT:    -3.983      3.890      5.028
REMARK INTER + INTRA:          -5.233
REMARK INTER:                  -4.898
REMARK INTRA:                  -0.335
REMARK UNBOUND:                -0.318
REMARK  6 active torsions:
REMARK  status: ('A' for Active; 'I' for Inactive)
REMARK    1  A    between atoms: C_1  and  O_8 
REMARK    2  A    between atoms: C_2  and  O_9 
REMARK    3  A    between atoms: C_3  and  O_11 
REMARK    4  A    between atoms: C_4  and  O_13 
REMARK    5  A    between atoms: C_5  and  C_6 
REMARK    6  A    between atoms: C_6  and  O_16 
ROOT
HETATM    1  C   UNL     1      -6.306 -17.394   1.562  1.00  0.00     0.290 C 
HETATM    2  C   UNL     1      -7.227 -16.188   1.518  1.00  0.00     0.204 C 
HETATM    3  C   UNL     1      -6.526 -14.950   1.950  1.00  0.00     0.183 C 
HETATM    4  C   UNL     1      -5.919 -15.103   3.306  1.00  0.00     0.180 C 
HETATM    5  C   UNL     1      -4.935 -16.276   3.318  1.00  0.00     0.179 C 
HETATM    6  O   UNL     1      -5.614 -17.505   2.881  1.00  0.00    -0.349 OA
ENDROOT
BRANCH   5   7
HETATM    7  C   UNL     1      -4.401 -16.507   4.706  1.00  0.00     0.198 C 
BRANCH   7   8
HETATM    8  O   UNL     1      -5.278 -15.945   5.652  1.00  0.00    -0.398 OA
ATOM      9  HO  UNL     1      -5.315 -15.003   5.534  1.00  0.00     0.209 HD
ENDBRANCH   7   8
ENDBRANCH   5   7
BRANCH   4  10
HETATM   10  O   UNL     1      -5.272 -13.868   3.627  1.00  0.00    -0.390 OA
ATOM     11  HO  UNL     1      -5.199 -13.303   2.867  1.00  0.00     0.210 HD
ENDBRANCH   4  10
BRANCH   1  12
HETATM   12  O   UNL     1      -5.368 -17.243   0.587  1.00  0.00    -0.363 OA
HETATM   13  C   UNL     1      -5.825 -17.517  -0.723  1.00  0.00     0.204 C 
ENDBRANCH   1  12
BRANCH   3  14
HETATM   14  O   UNL     1      -7.480 -13.853   1.992  1.00  0.00    -0.390 OA
ATOM     15  HO  UNL     1      -8.329 -14.180   1.720  1.00  0.00     0.210 HD
ENDBRANCH   3  14
BRANCH   2  16
HETATM   16  O   UNL     1      -8.342 -16.437   2.395  1.00  0.00    -0.388 OA
ATOM     17  HO  UNL     1      -8.037 -16.375   3.292  1.00  0.00     0.210 HD
ENDBRANCH   2  16
TORSDOF 6
ENDMDL
MODEL 18
REMARK VINA RESULT:    -3.808      3.439      5.365
REMARK INTER + INTRA:          -5.017
REMARK INTER:                  -4.774
REMARK INTRA:                  -0.242
REMARK UNBOUND:                -0.318
REMARK  6 active torsions:
REMARK  status: ('A' for Active; 'I' for Inactive)
REMARK    1  A    between atoms: C_1  and  O_8 
REMARK    2  A    between atoms: C_2  and  O_9 
REMARK    3  A    between atoms: C_3  and  O_11 
REMARK    4  A    between atoms: C_4  and  O_13 
REMARK    5  A    between atoms: C_5  and  C_6 
REMARK    6  A    between atoms: C_6  and  O_16 
ROOT
HETATM    1  C   UNL     1      -5.710 -14.997   2.014  1.00  0.00     0.290 C 
HETATM    2  C   UNL     1      -6.203 -16.327   1.472  1.00  0.00     0.204 C 
HETATM    3  C   UNL     1      -6.885 -17.127   2.524  1.00  0.00     0.183 C 
HETATM    4  C   UNL     1      -6.008 -17.333   3.716  1.00  0.00     0.180 C 
HETATM    5  C   UNL     1      -5.579 -15.985   4.300  1.00  0.00     0.179 C 
HETATM    6  O   UNL     1      -4.913 -15.179   3.265  1.00  0.00    -0.349 OA
ENDROOT
BRANCH   5   7
HETATM    7  C   UNL     1      -4.608 -16.182   5.433  1.00  0.00     0.198 C 
BRANCH   7   8
HETATM    8  O   UNL     1      -5.284 -16.078   6.662  1.00  0.00    -0.398 OA
ATOM      9  HO  UNL     1      -6.045 -15.518   6.563  1.00  0.00     0.209 HD
ENDBRANCH   7   8
ENDBRANCH   5   7
BRANCH   4  10
HETATM   10  O   UNL     1      -6.750 -18.106   4.664  1.00  0.00    -0.390 OA
ATOM     11  HO  UNL     1      -6.534 -17.866   5.558  1.00  0.00     0.210 HD
ENDBRANCH   4  10
BRANCH   1  12
HETATM   12  O   UNL     1      -6.798 -14.229   2.296  1.00  0.00    -0.363 OA
HETATM   13  C   UNL     1      -6.868 -13.013   1.577  1.00  0.00     0.204 C 
ENDBRANCH   1  12
BRANCH   3  14
HETATM   14  O   UNL     1      -7.238 -18.428   1.979  1.00  0.00    -0.390 OA
ATOM     15  HO  UNL     1      -7.152 -19.077   2.667  1.00  0.00     0.210 HD
ENDBRANCH   3  14
BRANCH   2  16
HETATM   16  O   UNL     1      -5.069 -17.061   0.973  1.00  0.00    -0.388 OA
ATOM     17  HO  UNL     1      -5.273 -17.366   0.097  1.00  0.00     0.210 HD
ENDBRANCH   2  16
TORSDOF 6
ENDMDL
MODEL 19
REMARK VINA RESULT:    -3.796      2.340      4.488
REMARK INTER + INTRA:          -5.001
REMARK INTER:                  -4.669
REMARK INTRA:                  -0.332
REMARK UNBOUND:                -0.318
REMARK  6 active torsions:
REMARK  status: ('A' for Active; 'I' for Inactive)
REMARK    1  A    between atoms: C_1  and  O_8 
REMARK    2  A    between atoms: C_2  and  O_9 
REMARK    3  A    between atoms: C_3  and  O_11 
REMARK    4  A    between atoms: C_4  and  O_13 
REMARK    5  A    between atoms: C_5  and  C_6 
REMARK    6  A    between atoms: C_6  and  O_16 
ROOT
HETATM    1  C   UNL     1      -4.185 -18.244   5.116  1.00  0.00     0.290 C 
HETATM    2  C   UNL     1      -3.143 -17.169   4.865  1.00  0.00     0.204 C 
HETATM    3  C   UNL     1      -3.759 -15.926   4.329  1.00  0.00     0.183 C 
HETATM    4  C   UNL     1      -4.555 -16.191   3.094  1.00  0.00     0.180 C 
HETATM    5  C   UNL     1      -5.651 -17.221   3.379  1.00  0.00     0.179 C 
HETATM    6  O   UNL     1      -5.055 -18.452   3.919  1.00  0.00    -0.349 OA
ENDROOT
BRANCH   5   7
HETATM    7  C   UNL     1      -6.387 -17.576   2.114  1.00  0.00     0.198 C 
BRANCH   7   8
HETATM    8  O   UNL     1      -5.548 -17.375   1.004  1.00  0.00    -0.398 OA
ATOM      9  HO  UNL     1      -4.669 -17.673   1.208  1.00  0.00     0.209 HD
ENDBRANCH   7   8
ENDBRANCH   5   7
BRANCH   4  10
HETATM   10  O   UNL     1      -5.103 -14.942   2.661  1.00  0.00    -0.390 OA
ATOM     11  HO  UNL     1      -4.480 -14.447   2.143  1.00  0.00     0.210 HD
ENDBRANCH   4  10
BRANCH   1  12
HETATM   12  O   UNL     1      -4.963 -17.841   6.158  1.00  0.00    -0.363 OA
HETATM   13  C   UNL     1      -4.346 -17.928   7.428  1.00  0.00     0.204 C 
ENDBRANCH   1  12
BRANCH   3  14
HETATM   14  O   UNL     1      -2.707 -14.974   4.007  1.00  0.00    -0.390 OA
ATOM     15  HO  UNL     1      -1.977 -15.448   3.628  1.00  0.00     0.210 HD
ENDBRANCH   3  14
BRANCH   2  16
HETATM   16  O   UNL     1      -2.188 -17.678   3.914  1.00  0.00    -0.388 OA
ATOM     17  HO  UNL     1      -1.367 -17.218   4.041  1.00  0.00     0.210 HD
ENDBRANCH   2  16
TORSDOF 6
ENDMDL
MODEL 20
REMARK VINA RESULT:    -3.762      1.668      3.495
REMARK INTER + INTRA:          -4.960
REMARK INTER:                  -4.696
REMARK INTRA:                  -0.264
REMARK UNBOUND:                -0.318
REMARK  6 active torsions:
REMARK  status: ('A' for Active; 'I' for Inactive)
REMARK    1  A    between atoms: C_1  and  O_8 
REMARK    2  A    between atoms: C_2  and  O_9 
REMARK    3  A    between atoms: C_3  and  O_11 
REMARK    4  A    between atoms: C_4  and  O_13 
REMARK    5  A    between atoms: C_5  and  C_6 
REMARK    6  A    between atoms: C_6  and  O_16 
ROOT
HETATM    1  C   UNL     1      -3.389 -19.888   6.711  1.00  0.00     0.290 C 
HETATM    2  C   UNL     1      -2.880 -19.052   7.871  1.00  0.00     0.204 C 
HETATM    3  C   UNL     1      -3.197 -17.611   7.687  1.00  0.00     0.183 C 
HETATM    4  C   UNL     1      -2.671 -17.092   6.389  1.00  0.00     0.180 C 
HETATM    5  C   UNL     1      -3.250 -17.894   5.221  1.00  0.00     0.179 C 
HETATM    6  O   UNL     1      -2.953 -19.324   5.398  1.00  0.00    -0.349 OA
ENDROOT
BRANCH   5   7
HETATM    7  C   UNL     1      -2.641 -17.450   3.918  1.00  0.00     0.198 C 
BRANCH   7   8
HETATM    8  O   UNL     1      -3.258 -16.262   3.486  1.00  0.00    -0.398 OA
ATOM      9  HO  UNL     1      -2.716 -15.840   2.829  1.00  0.00     0.209 HD
ENDBRANCH   7   8
ENDBRANCH   5   7
BRANCH   4  10
HETATM   10  O   UNL     1      -3.026 -15.708   6.306  1.00  0.00    -0.390 OA
ATOM     11  HO  UNL     1      -3.726 -15.489   6.910  1.00  0.00     0.210 HD
ENDBRANCH   4  10
BRANCH   1  12
HETATM   12  O   UNL     1      -4.750 -19.887   6.757  1.00  0.00    -0.363 OA
HETATM   13  C   UNL     1      -5.304 -20.433   7.939  1.00  0.00     0.204 C 
ENDBRANCH   1  12
BRANCH   3  14
HETATM   14  O   UNL     1      -2.594 -16.848   8.769  1.00  0.00    -0.390 OA
ATOM     15  HO  UNL     1      -2.594 -15.930   8.527  1.00  0.00     0.210 HD
ENDBRANCH   3  14
BRANCH   2  16
HETATM   16  O   UNL     1      -1.453 -19.220   7.959  1.00  0.00    -0.388 OA
ATOM     17  HO  UNL     1      -1.149 -19.627   7.156  1.00  0.00     0.210 HD
ENDBRANCH   2  16
TORSDOF 6
ENDMDL
