MODEL 1
REMARK VINA RESULT:    -9.973      0.000      0.000
REMARK INTER + INTRA:         -17.650
REMARK INTER:                 -16.386
REMARK INTRA:                  -1.264
REMARK UNBOUND:                -1.264
REMARK  13 active torsions:
REMARK  status: ('A' for Active; 'I' for Inactive)
REMARK    1  A    between atoms: C_8  and  N_18 
REMARK    2  A    between atoms: N_9  and  C_13 
REMARK    3  A    between atoms: C_14  and  O_26 
REMARK    4  A    between atoms: C_15  and  O_28 
REMARK    5  A    between atoms: C_16  and  C_21 
REMARK    6  A    between atoms: C_21  and  O_22 
REMARK    7  A    between atoms: O_22  and  P_23 
REMARK    8  A    between atoms: P_23  and  O_25 
REMARK    9  A    between atoms: O_25  and  C_31 
REMARK   10  A    between atoms: C_31  and  C_32 
REMARK   11  A    between atoms: C_32  and  C_38 
REMARK   12  A    between atoms: C_32  and  N_34 
REMARK   13  A    between atoms: C_38  and  C_39 
ROOT
HETATM    1  C   UNL     1       9.053   6.715  37.542  1.00  0.00     0.262 C 
HETATM    2  C   UNL     1       9.244   5.455  38.384  1.00  0.00     0.198 C 
HETATM    3  C   UNL     1       8.384   5.824  39.587  1.00  0.00     0.182 C 
HETATM    4  C   UNL     1       8.711   7.307  39.772  1.00  0.00     0.180 C 
HETATM    5  O   UNL     1       9.097   7.790  38.463  1.00  0.00    -0.353 OA
ENDROOT
BRANCH   4   6
HETATM    6  C   UNL     1       9.812   7.614  40.755  1.00  0.00     0.216 C 
BRANCH   6   7
HETATM    7  O   UNL     1      11.067   7.596  40.049  1.00  0.00    -0.287 OA
BRANCH   7   8
HETATM    8  P   UNL     1      12.429   7.234  40.757  1.00  0.00     0.416 P 
HETATM    9  O   UNL     1      12.994   8.377  41.494  1.00  0.00    -0.624 OA
HETATM   10  O   UNL     1      13.252   6.496  39.764  1.00  0.00    -0.624 OA
BRANCH   8  11
HETATM   11  O   UNL     1      11.979   6.160  41.910  1.00  0.00    -0.211 OA
BRANCH  11  12
HETATM   12  C   UNL     1      11.696   4.769  41.875  1.00  0.00     0.299 C 
HETATM   13  O   UNL     1      11.483   4.223  40.826  1.00  0.00    -0.262 OA
BRANCH  12  14
HETATM   14  C   UNL     1      11.664   4.036  43.216  1.00  0.00     0.286 C 
BRANCH  14  15
HETATM   15  C   UNL     1      10.252   3.494  43.517  1.00  0.00     0.021 C 
HETATM   16  C   UNL     1      10.187   2.952  44.945  1.00  0.00     0.012 C 
BRANCH  15  17
HETATM   17  C   UNL     1       9.182   4.564  43.255  1.00  0.00     0.002 C 
HETATM   18  C   UNL     1       7.756   4.105  43.457  1.00  0.00     0.005 C 
ENDBRANCH  15  17
ENDBRANCH  14  15
BRANCH  14  19
HETATM   19  N   UNL     1      12.228   4.863  44.263  1.00  0.00    -0.066 N 
ATOM     20  HN3 UNL     1      12.267   5.837  43.963  1.00  0.00     0.275 HD
ATOM     21  HN2 UNL     1      11.574   4.945  45.042  1.00  0.00     0.275 HD
ATOM     22  HN1 UNL     1      13.142   4.560  44.598  1.00  0.00     0.275 HD
ENDBRANCH  14  19
ENDBRANCH  12  14
ENDBRANCH  11  12
ENDBRANCH   8  11
ENDBRANCH   7   8
ENDBRANCH   6   7
ENDBRANCH   4   6
BRANCH   3  23
HETATM   23  O   UNL     1       7.009   5.665  39.250  1.00  0.00    -0.390 OA
ATOM     24  HO  UNL     1       6.936   5.123  38.473  1.00  0.00     0.210 HD
ENDBRANCH   3  23
BRANCH   2  25
HETATM   25  O   UNL     1       8.777   4.284  37.724  1.00  0.00    -0.388 OA
ATOM     26  HO  UNL     1       9.214   3.498  38.031  1.00  0.00     0.210 HD
ENDBRANCH   2  25
BRANCH   1  27
HETATM   27  N   UNL     1      10.079   6.923  36.528  1.00  0.00    -0.297 N 
HETATM   28  C   UNL     1      11.438   6.831  36.681  1.00  0.00     0.188 A 
HETATM   29  N   UNL     1      12.116   7.021  35.572  1.00  0.00    -0.346 N 
HETATM   30  C   UNL     1      11.131   7.260  34.623  1.00  0.00     0.122 A 
ATOM     31  HN  UNL     1      13.127   6.999  35.440  1.00  0.00     0.167 HD
HETATM   32  C   UNL     1      11.190   7.553  33.244  1.00  0.00     0.131 A 
HETATM   33  C   UNL     1       9.871   7.200  35.199  1.00  0.00     0.142 A 
HETATM   34  N   UNL     1      10.021   7.736  32.590  1.00  0.00    -0.337 N 
HETATM   35  C   UNL     1       8.878   7.651  33.278  1.00  0.00     0.183 A 
ATOM     36  HN  UNL     1      10.012   7.936  31.590  1.00  0.00     0.168 HD
HETATM   37  N   UNL     1       8.698   7.387  34.580  1.00  0.00    -0.336 N 
ATOM     38  HN  UNL     1       7.788   7.335  35.038  1.00  0.00     0.168 HD
BRANCH  32  39
HETATM   39  N   UNL     1      12.328   7.681  32.556  1.00  0.00    -0.383 N 
ATOM     40  HN2 UNL     1      13.066   6.993  32.709  1.00  0.00     0.157 HD
ATOM     41  HN1 UNL     1      12.500   8.417  31.872  1.00  0.00     0.157 HD
ENDBRANCH  32  39
ENDBRANCH   1  27
TORSDOF 13
ENDMDL
MODEL 2
REMARK VINA RESULT:    -9.764      2.184      3.840
REMARK INTER + INTRA:         -17.308
REMARK INTER:                 -16.225
REMARK INTRA:                  -1.083
REMARK UNBOUND:                -1.264
REMARK  13 active torsions:
REMARK  status: ('A' for Active; 'I' for Inactive)
REMARK    1  A    between atoms: C_8  and  N_18 
REMARK    2  A    between atoms: N_9  and  C_13 
REMARK    3  A    between atoms: C_14  and  O_26 
REMARK    4  A    between atoms: C_15  and  O_28 
REMARK    5  A    between atoms: C_16  and  C_21 
REMARK    6  A    between atoms: C_21  and  O_22 
REMARK    7  A    between atoms: O_22  and  P_23 
REMARK    8  A    between atoms: P_23  and  O_25 
REMARK    9  A    between atoms: O_25  and  C_31 
REMARK   10  A    between atoms: C_31  and  C_32 
REMARK   11  A    between atoms: C_32  and  C_38 
REMARK   12  A    between atoms: C_32  and  N_34 
REMARK   13  A    between atoms: C_38  and  C_39 
ROOT
HETATM    1  C   UNL     1      10.599   6.236  36.376  1.00  0.00     0.262 C 
HETATM    2  C   UNL     1      11.565   7.218  37.036  1.00  0.00     0.198 C 
HETATM    3  C   UNL     1      12.811   6.343  37.097  1.00  0.00     0.182 C 
HETATM    4  C   UNL     1      12.227   4.980  37.478  1.00  0.00     0.180 C 
HETATM    5  O   UNL     1      10.866   4.985  36.983  1.00  0.00    -0.353 OA
ENDROOT
BRANCH   4   6
HETATM    6  C   UNL     1      12.213   4.666  38.953  1.00  0.00     0.216 C 
BRANCH   6   7
HETATM    7  O   UNL     1      12.500   5.877  39.677  1.00  0.00    -0.287 OA
BRANCH   7   8
HETATM    8  P   UNL     1      11.557   6.423  40.816  1.00  0.00     0.416 P 
HETATM    9  O   UNL     1      10.934   7.707  40.455  1.00  0.00    -0.624 OA
HETATM   10  O   UNL     1      12.295   6.277  42.098  1.00  0.00    -0.624 OA
BRANCH   8  11
HETATM   11  O   UNL     1      10.327   5.339  40.838  1.00  0.00    -0.211 OA
BRANCH  11  12
HETATM   12  C   UNL     1       9.041   5.352  41.438  1.00  0.00     0.299 C 
HETATM   13  O   UNL     1       8.075   5.021  40.803  1.00  0.00    -0.262 OA
BRANCH  12  14
HETATM   14  C   UNL     1       8.961   5.818  42.891  1.00  0.00     0.286 C 
BRANCH  14  15
HETATM   15  C   UNL     1       8.774   4.621  43.846  1.00  0.00     0.021 C 
HETATM   16  C   UNL     1       7.493   3.862  43.498  1.00  0.00     0.012 C 
BRANCH  15  17
HETATM   17  C   UNL     1      10.008   3.708  43.835  1.00  0.00     0.002 C 
HETATM   18  C   UNL     1      10.182   2.851  45.069  1.00  0.00     0.005 C 
ENDBRANCH  15  17
ENDBRANCH  14  15
BRANCH  14  19
HETATM   19  N   UNL     1       7.972   6.866  43.038  1.00  0.00    -0.066 N 
ATOM     20  HN3 UNL     1       8.333   7.747  42.673  1.00  0.00     0.275 HD
ATOM     21  HN2 UNL     1       7.195   6.713  42.394  1.00  0.00     0.275 HD
ATOM     22  HN1 UNL     1       7.625   6.993  43.989  1.00  0.00     0.275 HD
ENDBRANCH  14  19
ENDBRANCH  12  14
ENDBRANCH  11  12
ENDBRANCH   8  11
ENDBRANCH   7   8
ENDBRANCH   6   7
ENDBRANCH   4   6
BRANCH   3  23
HETATM   23  O   UNL     1      13.403   6.275  35.804  1.00  0.00    -0.390 OA
ATOM     24  HO  UNL     1      14.125   5.657  35.820  1.00  0.00     0.210 HD
ENDBRANCH   3  23
BRANCH   2  25
HETATM   25  O   UNL     1      11.765   8.391  36.256  1.00  0.00    -0.388 OA
ATOM     26  HO  UNL     1      12.485   8.921  36.578  1.00  0.00     0.210 HD
ENDBRANCH   2  25
BRANCH   1  27
HETATM   27  N   UNL     1       9.190   6.559  36.566  1.00  0.00    -0.297 N 
HETATM   28  C   UNL     1       8.468   6.507  37.731  1.00  0.00     0.188 A 
HETATM   29  N   UNL     1       7.224   6.907  37.608  1.00  0.00    -0.346 N 
HETATM   30  C   UNL     1       7.119   7.241  36.264  1.00  0.00     0.122 A 
ATOM     31  HN  UNL     1       6.505   6.960  38.329  1.00  0.00     0.167 HD
HETATM   32  C   UNL     1       6.044   7.719  35.484  1.00  0.00     0.131 A 
HETATM   33  C   UNL     1       8.324   7.033  35.611  1.00  0.00     0.142 A 
HETATM   34  N   UNL     1       6.274   7.950  34.173  1.00  0.00    -0.337 N 
HETATM   35  C   UNL     1       7.490   7.700  33.678  1.00  0.00     0.183 A 
ATOM     36  HN  UNL     1       5.532   8.309  33.571  1.00  0.00     0.168 HD
HETATM   37  N   UNL     1       8.579   7.243  34.314  1.00  0.00    -0.336 N 
ATOM     38  HN  UNL     1       9.481   7.078  33.868  1.00  0.00     0.168 HD
BRANCH  32  39
HETATM   39  N   UNL     1       4.814   7.932  35.960  1.00  0.00    -0.383 N 
ATOM     40  HN2 UNL     1       4.693   8.627  36.697  1.00  0.00     0.157 HD
ATOM     41  HN1 UNL     1       3.980   7.454  35.618  1.00  0.00     0.157 HD
ENDBRANCH  32  39
ENDBRANCH   1  27
TORSDOF 13
ENDMDL
MODEL 3
REMARK VINA RESULT:    -9.645      1.537      2.386
REMARK INTER + INTRA:         -17.111
REMARK INTER:                 -15.822
REMARK INTRA:                  -1.289
REMARK UNBOUND:                -1.264
REMARK  13 active torsions:
REMARK  status: ('A' for Active; 'I' for Inactive)
REMARK    1  A    between atoms: C_8  and  N_18 
REMARK    2  A    between atoms: N_9  and  C_13 
REMARK    3  A    between atoms: C_14  and  O_26 
REMARK    4  A    between atoms: C_15  and  O_28 
REMARK    5  A    between atoms: C_16  and  C_21 
REMARK    6  A    between atoms: C_21  and  O_22 
REMARK    7  A    between atoms: O_22  and  P_23 
REMARK    8  A    between atoms: P_23  and  O_25 
REMARK    9  A    between atoms: O_25  and  C_31 
REMARK   10  A    between atoms: C_31  and  C_32 
REMARK   11  A    between atoms: C_32  and  C_38 
REMARK   12  A    between atoms: C_32  and  N_34 
REMARK   13  A    between atoms: C_38  and  C_39 
ROOT
HETATM    1  C   UNL     1       9.541   7.935  35.521  1.00  0.00     0.262 C 
HETATM    2  C   UNL     1       8.566   6.825  35.908  1.00  0.00     0.198 C 
HETATM    3  C   UNL     1       8.333   7.193  37.368  1.00  0.00     0.182 C 
HETATM    4  C   UNL     1       9.735   7.606  37.822  1.00  0.00     0.180 C 
HETATM    5  O   UNL     1      10.412   8.070  36.629  1.00  0.00    -0.353 OA
ENDROOT
BRANCH   4   6
HETATM    6  C   UNL     1      10.559   6.520  38.465  1.00  0.00     0.216 C 
BRANCH   6   7
HETATM    7  O   UNL     1      10.724   6.842  39.859  1.00  0.00    -0.287 OA
BRANCH   7   8
HETATM    8  P   UNL     1      12.144   6.993  40.528  1.00  0.00     0.416 P 
HETATM    9  O   UNL     1      12.326   8.314  41.155  1.00  0.00    -0.624 OA
HETATM   10  O   UNL     1      13.140   6.477  39.554  1.00  0.00    -0.624 OA
BRANCH   8  11
HETATM   11  O   UNL     1      12.088   5.931  41.775  1.00  0.00    -0.211 OA
BRANCH  11  12
HETATM   12  C   UNL     1      11.846   4.533  41.841  1.00  0.00     0.299 C 
HETATM   13  O   UNL     1      11.743   3.890  40.831  1.00  0.00    -0.262 OA
BRANCH  12  14
HETATM   14  C   UNL     1      11.714   3.920  43.235  1.00  0.00     0.286 C 
BRANCH  14  15
HETATM   15  C   UNL     1      10.283   3.395  43.475  1.00  0.00     0.021 C 
HETATM   16  C   UNL     1      10.128   2.927  44.922  1.00  0.00     0.012 C 
BRANCH  15  17
HETATM   17  C   UNL     1       9.236   4.452  43.093  1.00  0.00     0.002 C 
HETATM   18  C   UNL     1       7.820   4.130  43.515  1.00  0.00     0.005 C 
ENDBRANCH  15  17
ENDBRANCH  14  15
BRANCH  14  19
HETATM   19  N   UNL     1      12.196   4.839  44.245  1.00  0.00    -0.066 N 
ATOM     20  HN3 UNL     1      11.424   5.388  44.622  1.00  0.00     0.275 HD
ATOM     21  HN2 UNL     1      12.476   4.330  45.083  1.00  0.00     0.275 HD
ATOM     22  HN1 UNL     1      12.949   5.454  43.935  1.00  0.00     0.275 HD
ENDBRANCH  14  19
ENDBRANCH  12  14
ENDBRANCH  11  12
ENDBRANCH   8  11
ENDBRANCH   7   8
ENDBRANCH   6   7
ENDBRANCH   4   6
BRANCH   3  23
HETATM   23  O   UNL     1       7.449   8.307  37.438  1.00  0.00    -0.390 OA
ATOM     24  HO  UNL     1       7.833   8.980  37.988  1.00  0.00     0.210 HD
ENDBRANCH   3  23
BRANCH   2  25
HETATM   25  O   UNL     1       7.367   6.864  35.142  1.00  0.00    -0.388 OA
ATOM     26  HO  UNL     1       7.158   7.741  34.842  1.00  0.00     0.210 HD
ENDBRANCH   2  25
BRANCH   1  27
HETATM   27  N   UNL     1      10.335   7.652  34.332  1.00  0.00    -0.297 N 
HETATM   28  C   UNL     1      10.129   8.113  33.057  1.00  0.00     0.188 A 
HETATM   29  N   UNL     1      11.042   7.730  32.195  1.00  0.00    -0.346 N 
HETATM   30  C   UNL     1      11.908   6.957  32.956  1.00  0.00     0.122 A 
ATOM     31  HN  UNL     1      11.100   7.949  31.200  1.00  0.00     0.167 HD
HETATM   32  C   UNL     1      13.079   6.240  32.631  1.00  0.00     0.131 A 
HETATM   33  C   UNL     1      11.485   6.902  34.275  1.00  0.00     0.142 A 
HETATM   34  N   UNL     1      13.704   5.573  33.626  1.00  0.00    -0.337 N 
HETATM   35  C   UNL     1      13.178   5.607  34.854  1.00  0.00     0.183 A 
ATOM     36  HN  UNL     1      14.562   5.052  33.443  1.00  0.00     0.168 HD
HETATM   37  N   UNL     1      12.077   6.242  35.279  1.00  0.00    -0.336 N 
ATOM     38  HN  UNL     1      11.735   6.226  36.240  1.00  0.00     0.168 HD
BRANCH  32  39
HETATM   39  N   UNL     1      13.591   6.166  31.398  1.00  0.00    -0.383 N 
ATOM     40  HN2 UNL     1      14.447   5.628  31.261  1.00  0.00     0.157 HD
ATOM     41  HN1 UNL     1      13.167   6.602  30.579  1.00  0.00     0.157 HD
ENDBRANCH  32  39
ENDBRANCH   1  27
TORSDOF 13
ENDMDL
MODEL 4
REMARK VINA RESULT:    -9.598      1.827      2.902
REMARK INTER + INTRA:         -17.034
REMARK INTER:                 -15.972
REMARK INTRA:                  -1.063
REMARK UNBOUND:                -1.264
REMARK  13 active torsions:
REMARK  status: ('A' for Active; 'I' for Inactive)
REMARK    1  A    between atoms: C_8  and  N_18 
REMARK    2  A    between atoms: N_9  and  C_13 
REMARK    3  A    between atoms: C_14  and  O_26 
REMARK    4  A    between atoms: C_15  and  O_28 
REMARK    5  A    between atoms: C_16  and  C_21 
REMARK    6  A    between atoms: C_21  and  O_22 
REMARK    7  A    between atoms: O_22  and  P_23 
REMARK    8  A    between atoms: P_23  and  O_25 
REMARK    9  A    between atoms: O_25  and  C_31 
REMARK   10  A    between atoms: C_31  and  C_32 
REMARK   11  A    between atoms: C_32  and  C_38 
REMARK   12  A    between atoms: C_32  and  N_34 
REMARK   13  A    between atoms: C_38  and  C_39 
ROOT
HETATM    1  C   UNL     1       9.568   7.936  35.463  1.00  0.00     0.262 C 
HETATM    2  C   UNL     1       8.597   6.823  35.852  1.00  0.00     0.198 C 
HETATM    3  C   UNL     1       8.370   7.187  37.314  1.00  0.00     0.182 C 
HETATM    4  C   UNL     1       9.773   7.602  37.763  1.00  0.00     0.180 C 
HETATM    5  O   UNL     1      10.444   8.070  36.568  1.00  0.00    -0.353 OA
ENDROOT
BRANCH   4   6
HETATM    6  C   UNL     1      10.602   6.516  38.400  1.00  0.00     0.216 C 
BRANCH   6   7
HETATM    7  O   UNL     1      11.188   7.041  39.606  1.00  0.00    -0.287 OA
BRANCH   7   8
HETATM    8  P   UNL     1      11.912   6.122  40.663  1.00  0.00     0.416 P 
HETATM    9  O   UNL     1      12.283   6.862  41.881  1.00  0.00    -0.624 OA
HETATM   10  O   UNL     1      12.927   5.327  39.925  1.00  0.00    -0.624 OA
BRANCH   8  11
HETATM   11  O   UNL     1      10.731   5.087  41.132  1.00  0.00    -0.211 OA
BRANCH  11  12
HETATM   12  C   UNL     1       9.382   5.279  41.529  1.00  0.00     0.299 C 
HETATM   13  O   UNL     1       8.493   5.159  40.728  1.00  0.00    -0.262 OA
BRANCH  12  14
HETATM   14  C   UNL     1       9.139   5.654  42.991  1.00  0.00     0.286 C 
BRANCH  14  15
HETATM   15  C   UNL     1       8.768   4.411  43.827  1.00  0.00     0.021 C 
HETATM   16  C   UNL     1       7.439   3.829  43.346  1.00  0.00     0.012 C 
BRANCH  15  17
HETATM   17  C   UNL     1       9.898   3.371  43.801  1.00  0.00     0.002 C 
HETATM   18  C   UNL     1      10.354   2.889  45.160  1.00  0.00     0.005 C 
ENDBRANCH  15  17
ENDBRANCH  14  15
BRANCH  14  19
HETATM   19  N   UNL     1       8.195   6.748  43.087  1.00  0.00    -0.066 N 
ATOM     20  HN3 UNL     1       8.041   6.999  44.064  1.00  0.00     0.275 HD
ATOM     21  HN2 UNL     1       8.619   7.612  42.748  1.00  0.00     0.275 HD
ATOM     22  HN1 UNL     1       7.304   6.583  42.620  1.00  0.00     0.275 HD
ENDBRANCH  14  19
ENDBRANCH  12  14
ENDBRANCH  11  12
ENDBRANCH   8  11
ENDBRANCH   7   8
ENDBRANCH   6   7
ENDBRANCH   4   6
BRANCH   3  23
HETATM   23  O   UNL     1       7.484   8.299  37.391  1.00  0.00    -0.390 OA
ATOM     24  HO  UNL     1       7.302   8.494  38.303  1.00  0.00     0.210 HD
ENDBRANCH   3  23
BRANCH   2  25
HETATM   25  O   UNL     1       7.395   6.861  35.092  1.00  0.00    -0.388 OA
ATOM     26  HO  UNL     1       6.796   7.534  35.396  1.00  0.00     0.210 HD
ENDBRANCH   2  25
BRANCH   1  27
HETATM   27  N   UNL     1      10.357   7.656  34.270  1.00  0.00    -0.297 N 
HETATM   28  C   UNL     1      10.162   8.143  33.003  1.00  0.00     0.188 A 
HETATM   29  N   UNL     1      11.067   7.756  32.135  1.00  0.00    -0.346 N 
HETATM   30  C   UNL     1      11.917   6.954  32.884  1.00  0.00     0.122 A 
ATOM     31  HN  UNL     1      11.131   7.990  31.144  1.00  0.00     0.167 HD
HETATM   32  C   UNL     1      13.075   6.220  32.547  1.00  0.00     0.131 A 
HETATM   33  C   UNL     1      11.492   6.886  34.201  1.00  0.00     0.142 A 
HETATM   34  N   UNL     1      13.685   5.524  33.531  1.00  0.00    -0.337 N 
HETATM   35  C   UNL     1      13.159   5.547  34.759  1.00  0.00     0.183 A 
ATOM     36  HN  UNL     1      14.533   4.989  33.340  1.00  0.00     0.168 HD
HETATM   37  N   UNL     1      12.070   6.197  35.194  1.00  0.00    -0.336 N 
ATOM     38  HN  UNL     1      11.727   6.171  36.155  1.00  0.00     0.168 HD
BRANCH  32  39
HETATM   39  N   UNL     1      13.585   6.156  31.314  1.00  0.00    -0.383 N 
ATOM     40  HN2 UNL     1      13.689   7.023  30.787  1.00  0.00     0.157 HD
ATOM     41  HN1 UNL     1      13.896   5.291  30.870  1.00  0.00     0.157 HD
ENDBRANCH  32  39
ENDBRANCH   1  27
TORSDOF 13
ENDMDL
MODEL 5
REMARK VINA RESULT:    -9.588      2.052      3.483
REMARK INTER + INTRA:         -17.017
REMARK INTER:                 -15.675
REMARK INTRA:                  -1.342
REMARK UNBOUND:                -1.264
REMARK  13 active torsions:
REMARK  status: ('A' for Active; 'I' for Inactive)
REMARK    1  A    between atoms: C_8  and  N_18 
REMARK    2  A    between atoms: N_9  and  C_13 
REMARK    3  A    between atoms: C_14  and  O_26 
REMARK    4  A    between atoms: C_15  and  O_28 
REMARK    5  A    between atoms: C_16  and  C_21 
REMARK    6  A    between atoms: C_21  and  O_22 
REMARK    7  A    between atoms: O_22  and  P_23 
REMARK    8  A    between atoms: P_23  and  O_25 
REMARK    9  A    between atoms: O_25  and  C_31 
REMARK   10  A    between atoms: C_31  and  C_32 
REMARK   11  A    between atoms: C_32  and  C_38 
REMARK   12  A    between atoms: C_32  and  N_34 
REMARK   13  A    between atoms: C_38  and  C_39 
ROOT
HETATM    1  C   UNL     1      10.519   6.135  36.338  1.00  0.00     0.262 C 
HETATM    2  C   UNL     1      11.441   7.320  36.060  1.00  0.00     0.198 C 
HETATM    3  C   UNL     1      12.778   6.692  36.434  1.00  0.00     0.182 C 
HETATM    4  C   UNL     1      12.412   5.875  37.676  1.00  0.00     0.180 C 
HETATM    5  O   UNL     1      11.007   5.554  37.533  1.00  0.00    -0.353 OA
ENDROOT
BRANCH   4   6
HETATM    6  C   UNL     1      12.627   6.567  38.998  1.00  0.00     0.216 C 
BRANCH   6   7
HETATM    7  O   UNL     1      11.339   6.859  39.572  1.00  0.00    -0.287 OA
BRANCH   7   8
HETATM    8  P   UNL     1      11.066   6.774  41.122  1.00  0.00     0.416 P 
HETATM    9  O   UNL     1       9.821   7.460  41.507  1.00  0.00    -0.624 OA
HETATM   10  O   UNL     1      12.346   7.094  41.807  1.00  0.00    -0.624 OA
BRANCH   8  11
HETATM   11  O   UNL     1      10.770   5.180  41.366  1.00  0.00    -0.211 OA
BRANCH  11  12
HETATM   12  C   UNL     1      11.584   4.105  41.809  1.00  0.00     0.299 C 
HETATM   13  O   UNL     1      12.228   3.469  41.018  1.00  0.00    -0.262 OA
BRANCH  12  14
HETATM   14  C   UNL     1      11.577   3.804  43.308  1.00  0.00     0.286 C 
BRANCH  14  15
HETATM   15  C   UNL     1      10.193   3.298  43.763  1.00  0.00     0.021 C 
HETATM   16  C   UNL     1      10.298   2.638  45.139  1.00  0.00     0.012 C 
BRANCH  15  17
HETATM   17  C   UNL     1       9.156   4.430  43.743  1.00  0.00     0.002 C 
HETATM   18  C   UNL     1       7.824   4.067  43.126  1.00  0.00     0.005 C 
ENDBRANCH  15  17
ENDBRANCH  14  15
BRANCH  14  19
HETATM   19  N   UNL     1      12.081   4.936  44.057  1.00  0.00    -0.066 N 
ATOM     20  HN3 UNL     1      11.796   5.810  43.616  1.00  0.00     0.275 HD
ATOM     21  HN2 UNL     1      11.589   5.020  44.947  1.00  0.00     0.275 HD
ATOM     22  HN1 UNL     1      13.090   4.929  44.209  1.00  0.00     0.275 HD
ENDBRANCH  14  19
ENDBRANCH  12  14
ENDBRANCH  11  12
ENDBRANCH   8  11
ENDBRANCH   7   8
ENDBRANCH   6   7
ENDBRANCH   4   6
BRANCH   3  23
HETATM   23  O   UNL     1      13.201   5.825  35.387  1.00  0.00    -0.390 OA
ATOM     24  HO  UNL     1      13.315   6.327  34.588  1.00  0.00     0.210 HD
ENDBRANCH   3  23
BRANCH   2  25
HETATM   25  O   UNL     1      11.400   7.733  34.699  1.00  0.00    -0.388 OA
ATOM     26  HO  UNL     1      11.079   8.623  34.601  1.00  0.00     0.210 HD
ENDBRANCH   2  25
BRANCH   1  27
HETATM   27  N   UNL     1       9.119   6.493  36.527  1.00  0.00    -0.297 N 
HETATM   28  C   UNL     1       8.393   6.451  37.690  1.00  0.00     0.188 A 
HETATM   29  N   UNL     1       7.160   6.884  37.568  1.00  0.00    -0.346 N 
HETATM   30  C   UNL     1       7.067   7.232  36.227  1.00  0.00     0.122 A 
ATOM     31  HN  UNL     1       6.441   6.950  38.288  1.00  0.00     0.167 HD
HETATM   32  C   UNL     1       6.006   7.744  35.448  1.00  0.00     0.131 A 
HETATM   33  C   UNL     1       8.268   6.997  35.575  1.00  0.00     0.142 A 
HETATM   34  N   UNL     1       6.245   7.980  34.140  1.00  0.00    -0.337 N 
HETATM   35  C   UNL     1       7.456   7.703  33.645  1.00  0.00     0.183 A 
ATOM     36  HN  UNL     1       5.515   8.364  33.539  1.00  0.00     0.168 HD
HETATM   37  N   UNL     1       8.530   7.212  34.279  1.00  0.00    -0.336 N 
ATOM     38  HN  UNL     1       9.429   7.027  33.834  1.00  0.00     0.168 HD
BRANCH  32  39
HETATM   39  N   UNL     1       4.781   7.986  35.923  1.00  0.00    -0.383 N 
ATOM     40  HN2 UNL     1       4.610   7.839  36.918  1.00  0.00     0.157 HD
ATOM     41  HN1 UNL     1       4.007   8.328  35.354  1.00  0.00     0.157 HD
ENDBRANCH  32  39
ENDBRANCH   1  27
TORSDOF 13
ENDMDL
MODEL 6
REMARK VINA RESULT:    -9.558      2.786      4.731
REMARK INTER + INTRA:         -16.968
REMARK INTER:                 -14.936
REMARK INTRA:                  -2.033
REMARK UNBOUND:                -1.264
REMARK  13 active torsions:
REMARK  status: ('A' for Active; 'I' for Inactive)
REMARK    1  A    between atoms: C_8  and  N_18 
REMARK    2  A    between atoms: N_9  and  C_13 
REMARK    3  A    between atoms: C_14  and  O_26 
REMARK    4  A    between atoms: C_15  and  O_28 
REMARK    5  A    between atoms: C_16  and  C_21 
REMARK    6  A    between atoms: C_21  and  O_22 
REMARK    7  A    between atoms: O_22  and  P_23 
REMARK    8  A    between atoms: P_23  and  O_25 
REMARK    9  A    between atoms: O_25  and  C_31 
REMARK   10  A    between atoms: C_31  and  C_32 
REMARK   11  A    between atoms: C_32  and  C_38 
REMARK   12  A    between atoms: C_32  and  N_34 
REMARK   13  A    between atoms: C_38  and  C_39 
ROOT
HETATM    1  C   UNL     1      11.016   5.419  37.512  1.00  0.00     0.262 C 
HETATM    2  C   UNL     1      11.931   6.588  37.871  1.00  0.00     0.198 C 
HETATM    3  C   UNL     1      13.193   5.818  38.236  1.00  0.00     0.182 C 
HETATM    4  C   UNL     1      12.626   4.617  38.997  1.00  0.00     0.180 C 
HETATM    5  O   UNL     1      11.287   4.422  38.481  1.00  0.00    -0.353 OA
ENDROOT
BRANCH   4   6
HETATM    6  C   UNL     1      12.559   4.767  40.496  1.00  0.00     0.216 C 
BRANCH   6   7
HETATM    7  O   UNL     1      11.228   4.428  40.926  1.00  0.00    -0.287 OA
BRANCH   7   8
HETATM    8  P   UNL     1      10.711   4.726  42.386  1.00  0.00     0.416 P 
HETATM    9  O   UNL     1      11.697   4.350  43.413  1.00  0.00    -0.624 OA
HETATM   10  O   UNL     1       9.314   4.225  42.463  1.00  0.00    -0.624 OA
BRANCH   8  11
HETATM   11  O   UNL     1      10.643   6.363  42.434  1.00  0.00    -0.211 OA
BRANCH  11  12
HETATM   12  C   UNL     1      10.154   7.335  41.523  1.00  0.00     0.299 C 
HETATM   13  O   UNL     1      10.909   7.888  40.768  1.00  0.00    -0.262 OA
BRANCH  12  14
HETATM   14  C   UNL     1       8.657   7.638  41.572  1.00  0.00     0.286 C 
BRANCH  14  15
HETATM   15  C   UNL     1       8.369   9.083  41.114  1.00  0.00     0.021 C 
HETATM   16  C   UNL     1       8.059   9.110  39.617  1.00  0.00     0.012 C 
BRANCH  15  17
HETATM   17  C   UNL     1       7.245   9.713  41.949  1.00  0.00     0.002 C 
HETATM   18  C   UNL     1       7.151  11.220  41.860  1.00  0.00     0.005 C 
ENDBRANCH  15  17
ENDBRANCH  14  15
BRANCH  14  19
HETATM   19  N   UNL     1       8.110   7.297  42.869  1.00  0.00    -0.066 N 
ATOM     20  HN3 UNL     1       8.630   6.522  43.281  1.00  0.00     0.275 HD
ATOM     21  HN2 UNL     1       8.322   8.030  43.547  1.00  0.00     0.275 HD
ATOM     22  HN1 UNL     1       7.111   7.092  42.869  1.00  0.00     0.275 HD
ENDBRANCH  14  19
ENDBRANCH  12  14
ENDBRANCH  11  12
ENDBRANCH   8  11
ENDBRANCH   7   8
ENDBRANCH   6   7
ENDBRANCH   4   6
BRANCH   3  23
HETATM   23  O   UNL     1      13.840   5.380  37.045  1.00  0.00    -0.390 OA
ATOM     24  HO  UNL     1      14.221   6.128  36.601  1.00  0.00     0.210 HD
ENDBRANCH   3  23
BRANCH   2  25
HETATM   25  O   UNL     1      12.135   7.473  36.775  1.00  0.00    -0.388 OA
ATOM     26  HO  UNL     1      11.375   8.017  36.603  1.00  0.00     0.210 HD
ENDBRANCH   2  25
BRANCH   1  27
HETATM   27  N   UNL     1       9.593   5.734  37.549  1.00  0.00    -0.297 N 
HETATM   28  C   UNL     1       8.702   5.470  38.557  1.00  0.00     0.188 A 
HETATM   29  N   UNL     1       7.489   5.919  38.331  1.00  0.00    -0.346 N 
HETATM   30  C   UNL     1       7.589   6.518  37.083  1.00  0.00     0.122 A 
ATOM     31  HN  UNL     1       6.668   5.845  38.931  1.00  0.00     0.167 HD
HETATM   32  C   UNL     1       6.644   7.171  36.262  1.00  0.00     0.131 A 
HETATM   33  C   UNL     1       8.881   6.413  36.590  1.00  0.00     0.142 A 
HETATM   34  N   UNL     1       7.071   7.654  35.075  1.00  0.00    -0.337 N 
HETATM   35  C   UNL     1       8.349   7.477  34.728  1.00  0.00     0.183 A 
ATOM     36  HN  UNL     1       6.428   8.146  34.453  1.00  0.00     0.168 HD
HETATM   37  N   UNL     1       9.330   6.873  35.415  1.00  0.00    -0.336 N 
ATOM     38  HN  UNL     1      10.291   6.776  35.087  1.00  0.00     0.168 HD
BRANCH  32  39
HETATM   39  N   UNL     1       5.355   7.318  36.581  1.00  0.00    -0.383 N 
ATOM     40  HN2 UNL     1       4.958   8.258  36.572  1.00  0.00     0.157 HD
ATOM     41  HN1 UNL     1       4.735   6.543  36.817  1.00  0.00     0.157 HD
ENDBRANCH  32  39
ENDBRANCH   1  27
TORSDOF 13
ENDMDL
MODEL 7
REMARK VINA RESULT:    -9.364      1.819      3.362
REMARK INTER + INTRA:         -16.650
REMARK INTER:                 -15.514
REMARK INTRA:                  -1.135
REMARK UNBOUND:                -1.264
REMARK  13 active torsions:
REMARK  status: ('A' for Active; 'I' for Inactive)
REMARK    1  A    between atoms: C_8  and  N_18 
REMARK    2  A    between atoms: N_9  and  C_13 
REMARK    3  A    between atoms: C_14  and  O_26 
REMARK    4  A    between atoms: C_15  and  O_28 
REMARK    5  A    between atoms: C_16  and  C_21 
REMARK    6  A    between atoms: C_21  and  O_22 
REMARK    7  A    between atoms: O_22  and  P_23 
REMARK    8  A    between atoms: P_23  and  O_25 
REMARK    9  A    between atoms: O_25  and  C_31 
REMARK   10  A    between atoms: C_31  and  C_32 
REMARK   11  A    between atoms: C_32  and  C_38 
REMARK   12  A    between atoms: C_32  and  N_34 
REMARK   13  A    between atoms: C_38  and  C_39 
ROOT
HETATM    1  C   UNL     1      13.336   5.973  36.753  1.00  0.00     0.262 C 
HETATM    2  C   UNL     1      12.917   7.124  37.666  1.00  0.00     0.198 C 
HETATM    3  C   UNL     1      12.493   6.330  38.894  1.00  0.00     0.182 C 
HETATM    4  C   UNL     1      11.776   5.130  38.270  1.00  0.00     0.180 C 
HETATM    5  O   UNL     1      12.365   4.963  36.957  1.00  0.00    -0.353 OA
ENDROOT
BRANCH   4   6
HETATM    6  C   UNL     1      10.281   5.267  38.126  1.00  0.00     0.216 C 
BRANCH   6   7
HETATM    7  O   UNL     1       9.820   6.234  39.088  1.00  0.00    -0.287 OA
BRANCH   7   8
HETATM    8  P   UNL     1       8.862   5.848  40.279  1.00  0.00     0.416 P 
HETATM    9  O   UNL     1       7.774   4.953  39.850  1.00  0.00    -0.624 OA
HETATM   10  O   UNL     1       8.560   7.101  41.018  1.00  0.00    -0.624 OA
BRANCH   8  11
HETATM   11  O   UNL     1       9.815   4.931  41.247  1.00  0.00    -0.211 OA
BRANCH  11  12
HETATM   12  C   UNL     1      10.813   5.255  42.204  1.00  0.00     0.299 C 
HETATM   13  O   UNL     1      11.311   6.349  42.211  1.00  0.00    -0.262 OA
BRANCH  12  14
HETATM   14  C   UNL     1      11.215   4.152  43.183  1.00  0.00     0.286 C 
BRANCH  14  15
HETATM   15  C   UNL     1       9.972   3.460  43.779  1.00  0.00     0.021 C 
HETATM   16  C   UNL     1      10.330   2.770  45.095  1.00  0.00     0.012 C 
BRANCH  15  17
HETATM   17  C   UNL     1       8.813   4.454  43.944  1.00  0.00     0.002 C 
HETATM   18  C   UNL     1       7.458   3.934  43.520  1.00  0.00     0.005 C 
ENDBRANCH  15  17
ENDBRANCH  14  15
BRANCH  14  19
HETATM   19  N   UNL     1      12.152   4.658  44.165  1.00  0.00    -0.066 N 
ATOM     20  HN3 UNL     1      12.562   5.535  43.845  1.00  0.00     0.275 HD
ATOM     21  HN2 UNL     1      11.654   4.987  44.993  1.00  0.00     0.275 HD
ATOM     22  HN1 UNL     1      12.886   4.001  44.430  1.00  0.00     0.275 HD
ENDBRANCH  14  19
ENDBRANCH  12  14
ENDBRANCH  11  12
ENDBRANCH   8  11
ENDBRANCH   7   8
ENDBRANCH   6   7
ENDBRANCH   4   6
BRANCH   3  23
HETATM   23  O   UNL     1      13.653   5.893  39.597  1.00  0.00    -0.390 OA
ATOM     24  HO  UNL     1      13.908   5.035  39.280  1.00  0.00     0.210 HD
ENDBRANCH   3  23
BRANCH   2  25
HETATM   25  O   UNL     1      13.990   8.017  37.942  1.00  0.00    -0.388 OA
ATOM     26  HO  UNL     1      13.706   8.923  37.983  1.00  0.00     0.210 HD
ENDBRANCH   2  25
BRANCH   1  27
HETATM   27  N   UNL     1      13.371   6.311  35.336  1.00  0.00    -0.297 N 
HETATM   28  C   UNL     1      14.439   6.227  34.480  1.00  0.00     0.188 A 
HETATM   29  N   UNL     1      14.159   6.552  33.240  1.00  0.00    -0.346 N 
HETATM   30  C   UNL     1      12.810   6.878  33.283  1.00  0.00     0.122 A 
ATOM     31  HN  UNL     1      14.785   6.562  32.434  1.00  0.00     0.167 HD
HETATM   32  C   UNL     1      11.907   7.325  32.295  1.00  0.00     0.131 A 
HETATM   33  C   UNL     1      12.312   6.732  34.569  1.00  0.00     0.142 A 
HETATM   34  N   UNL     1      10.631   7.560  32.670  1.00  0.00    -0.337 N 
HETATM   35  C   UNL     1      10.292   7.378  33.950  1.00  0.00     0.183 A 
ATOM     36  HN  UNL     1       9.937   7.870  31.989  1.00  0.00     0.168 HD
HETATM   37  N   UNL     1      11.056   6.966  34.972  1.00  0.00    -0.336 N 
ATOM     38  HN  UNL     1      10.726   6.847  35.929  1.00  0.00     0.168 HD
BRANCH  32  39
HETATM   39  N   UNL     1      12.245   7.549  31.022  1.00  0.00    -0.383 N 
ATOM     40  HN2 UNL     1      12.864   6.882  30.560  1.00  0.00     0.157 HD
ATOM     41  HN1 UNL     1      11.908   8.341  30.474  1.00  0.00     0.157 HD
ENDBRANCH  32  39
ENDBRANCH   1  27
TORSDOF 13
ENDMDL
MODEL 8
REMARK VINA RESULT:    -9.275      2.530      7.440
REMARK INTER + INTRA:         -16.504
REMARK INTER:                 -14.157
REMARK INTRA:                  -2.347
REMARK UNBOUND:                -1.264
REMARK  13 active torsions:
REMARK  status: ('A' for Active; 'I' for Inactive)
REMARK    1  A    between atoms: C_8  and  N_18 
REMARK    2  A    between atoms: N_9  and  C_13 
REMARK    3  A    between atoms: C_14  and  O_26 
REMARK    4  A    between atoms: C_15  and  O_28 
REMARK    5  A    between atoms: C_16  and  C_21 
REMARK    6  A    between atoms: C_21  and  O_22 
REMARK    7  A    between atoms: O_22  and  P_23 
REMARK    8  A    between atoms: P_23  and  O_25 
REMARK    9  A    between atoms: O_25  and  C_31 
REMARK   10  A    between atoms: C_31  and  C_32 
REMARK   11  A    between atoms: C_32  and  C_38 
REMARK   12  A    between atoms: C_32  and  N_34 
REMARK   13  A    between atoms: C_38  and  C_39 
ROOT
HETATM    1  C   UNL     1       8.365   6.277  41.667  1.00  0.00     0.262 C 
HETATM    2  C   UNL     1       8.548   7.698  42.195  1.00  0.00     0.198 C 
HETATM    3  C   UNL     1       8.778   8.429  40.878  1.00  0.00     0.182 C 
HETATM    4  C   UNL     1       9.659   7.439  40.112  1.00  0.00     0.180 C 
HETATM    5  O   UNL     1       9.333   6.132  40.643  1.00  0.00    -0.353 OA
ENDROOT
BRANCH   4   6
HETATM    6  C   UNL     1      11.146   7.662  40.231  1.00  0.00     0.216 C 
BRANCH   6   7
HETATM    7  O   UNL     1      11.781   6.386  40.435  1.00  0.00    -0.287 OA
BRANCH   7   8
HETATM    8  P   UNL     1      12.383   5.543  39.246  1.00  0.00     0.416 P 
HETATM    9  O   UNL     1      11.870   4.163  39.227  1.00  0.00    -0.624 OA
HETATM   10  O   UNL     1      13.845   5.804  39.226  1.00  0.00    -0.624 OA
BRANCH   8  11
HETATM   11  O   UNL     1      11.743   6.258  37.917  1.00  0.00    -0.211 OA
BRANCH  11  12
HETATM   12  C   UNL     1      11.170   5.741  36.726  1.00  0.00     0.299 C 
HETATM   13  O   UNL     1      11.877   5.349  35.836  1.00  0.00    -0.262 OA
BRANCH  12  14
HETATM   14  C   UNL     1       9.644   5.731  36.641  1.00  0.00     0.286 C 
BRANCH  14  15
HETATM   15  C   UNL     1       9.091   7.157  36.439  1.00  0.00     0.021 C 
HETATM   16  C   UNL     1       9.274   7.593  34.985  1.00  0.00     0.012 C 
BRANCH  15  17
HETATM   17  C   UNL     1       7.626   7.250  36.891  1.00  0.00     0.002 C 
HETATM   18  C   UNL     1       6.605   7.027  35.798  1.00  0.00     0.005 C 
ENDBRANCH  15  17
ENDBRANCH  14  15
BRANCH  14  19
HETATM   19  N   UNL     1       9.075   5.017  37.766  1.00  0.00    -0.066 N 
ATOM     20  HN3 UNL     1       8.448   5.626  38.292  1.00  0.00     0.275 HD
ATOM     21  HN2 UNL     1       8.409   4.317  37.441  1.00  0.00     0.275 HD
ATOM     22  HN1 UNL     1       9.761   4.592  38.390  1.00  0.00     0.275 HD
ENDBRANCH  14  19
ENDBRANCH  12  14
ENDBRANCH  11  12
ENDBRANCH   8  11
ENDBRANCH   7   8
ENDBRANCH   6   7
ENDBRANCH   4   6
BRANCH   3  23
HETATM   23  O   UNL     1       7.533   8.594  40.206  1.00  0.00    -0.390 OA
ATOM     24  HO  UNL     1       7.575   8.173  39.356  1.00  0.00     0.210 HD
ENDBRANCH   3  23
BRANCH   2  25
HETATM   25  O   UNL     1       7.397   8.173  42.884  1.00  0.00    -0.388 OA
ATOM     26  HO  UNL     1       7.069   7.545  43.516  1.00  0.00     0.210 HD
ENDBRANCH   2  25
BRANCH   1  27
HETATM   27  N   UNL     1       8.575   5.233  42.662  1.00  0.00    -0.297 N 
HETATM   28  C   UNL     1       7.627   4.443  43.261  1.00  0.00     0.188 A 
HETATM   29  N   UNL     1       8.119   3.548  44.085  1.00  0.00    -0.346 N 
HETATM   30  C   UNL     1       9.489   3.768  44.028  1.00  0.00     0.122 A 
ATOM     31  HN  UNL     1       7.614   2.855  44.637  1.00  0.00     0.167 HD
HETATM   32  C   UNL     1      10.579   3.159  44.687  1.00  0.00     0.131 A 
HETATM   33  C   UNL     1       9.783   4.803  43.153  1.00  0.00     0.142 A 
HETATM   34  N   UNL     1      11.818   3.616  44.406  1.00  0.00    -0.337 N 
HETATM   35  C   UNL     1      11.952   4.626  43.540  1.00  0.00     0.183 A 
ATOM     36  HN  UNL     1      12.639   3.199  44.846  1.00  0.00     0.168 HD
HETATM   37  N   UNL     1      10.999   5.283  42.862  1.00  0.00    -0.336 N 
ATOM     38  HN  UNL     1      11.177   6.047  42.211  1.00  0.00     0.168 HD
BRANCH  32  39
HETATM   39  N   UNL     1      10.453   2.177  45.585  1.00  0.00    -0.383 N 
ATOM     40  HN2 UNL     1      10.774   2.349  46.539  1.00  0.00     0.157 HD
ATOM     41  HN1 UNL     1      10.040   1.268  45.380  1.00  0.00     0.157 HD
ENDBRANCH  32  39
ENDBRANCH   1  27
TORSDOF 13
ENDMDL
MODEL 9
REMARK VINA RESULT:    -9.251      2.355      4.148
REMARK INTER + INTRA:         -16.465
REMARK INTER:                 -15.046
REMARK INTRA:                  -1.419
REMARK UNBOUND:                -1.264
REMARK  13 active torsions:
REMARK  status: ('A' for Active; 'I' for Inactive)
REMARK    1  A    between atoms: C_8  and  N_18 
REMARK    2  A    between atoms: N_9  and  C_13 
REMARK    3  A    between atoms: C_14  and  O_26 
REMARK    4  A    between atoms: C_15  and  O_28 
REMARK    5  A    between atoms: C_16  and  C_21 
REMARK    6  A    between atoms: C_21  and  O_22 
REMARK    7  A    between atoms: O_22  and  P_23 
REMARK    8  A    between atoms: P_23  and  O_25 
REMARK    9  A    between atoms: O_25  and  C_31 
REMARK   10  A    between atoms: C_31  and  C_32 
REMARK   11  A    between atoms: C_32  and  C_38 
REMARK   12  A    between atoms: C_32  and  N_34 
REMARK   13  A    between atoms: C_38  and  C_39 
ROOT
HETATM    1  C   UNL     1      11.636   6.333  35.262  1.00  0.00     0.262 C 
HETATM    2  C   UNL     1      12.718   7.405  35.151  1.00  0.00     0.198 C 
HETATM    3  C   UNL     1      13.834   6.716  35.926  1.00  0.00     0.182 C 
HETATM    4  C   UNL     1      13.069   6.069  37.083  1.00  0.00     0.180 C 
HETATM    5  O   UNL     1      11.727   5.847  36.589  1.00  0.00    -0.353 OA
ENDROOT
BRANCH   4   6
HETATM    6  C   UNL     1      12.999   6.879  38.353  1.00  0.00     0.216 C 
BRANCH   6   7
HETATM    7  O   UNL     1      11.646   6.834  38.844  1.00  0.00    -0.287 OA
BRANCH   7   8
HETATM    8  P   UNL     1      11.304   6.917  40.381  1.00  0.00     0.416 P 
HETATM    9  O   UNL     1      10.435   8.064  40.696  1.00  0.00    -0.624 OA
HETATM   10  O   UNL     1      12.575   6.709  41.122  1.00  0.00    -0.624 OA
BRANCH   8  11
HETATM   11  O   UNL     1      10.374   5.591  40.631  1.00  0.00    -0.211 OA
BRANCH  11  12
HETATM   12  C   UNL     1       9.148   5.388  41.319  1.00  0.00     0.299 C 
HETATM   13  O   UNL     1       8.189   4.964  40.731  1.00  0.00    -0.262 OA
BRANCH  12  14
HETATM   14  C   UNL     1       9.120   5.750  42.804  1.00  0.00     0.286 C 
BRANCH  14  15
HETATM   15  C   UNL     1       9.044   4.483  43.680  1.00  0.00     0.021 C 
HETATM   16  C   UNL     1       7.677   3.817  43.528  1.00  0.00     0.012 C 
BRANCH  15  17
HETATM   17  C   UNL     1      10.196   3.520  43.360  1.00  0.00     0.002 C 
HETATM   18  C   UNL     1      11.581   4.076  43.605  1.00  0.00     0.005 C 
ENDBRANCH  15  17
ENDBRANCH  14  15
BRANCH  14  19
HETATM   19  N   UNL     1       8.089   6.731  43.071  1.00  0.00    -0.066 N 
ATOM     20  HN3 UNL     1       8.191   7.532  42.447  1.00  0.00     0.275 HD
ATOM     21  HN2 UNL     1       7.181   6.383  42.763  1.00  0.00     0.275 HD
ATOM     22  HN1 UNL     1       8.040   7.042  44.041  1.00  0.00     0.275 HD
ENDBRANCH  14  19
ENDBRANCH  12  14
ENDBRANCH  11  12
ENDBRANCH   8  11
ENDBRANCH   7   8
ENDBRANCH   6   7
ENDBRANCH   4   6
BRANCH   3  23
HETATM   23  O   UNL     1      14.426   5.711  35.109  1.00  0.00    -0.390 OA
ATOM     24  HO  UNL     1      14.272   4.858  35.499  1.00  0.00     0.210 HD
ENDBRANCH   3  23
BRANCH   2  25
HETATM   25  O   UNL     1      13.082   7.672  33.801  1.00  0.00    -0.388 OA
ATOM     26  HO  UNL     1      13.549   6.947  33.402  1.00  0.00     0.210 HD
ENDBRANCH   2  25
BRANCH   1  27
HETATM   27  N   UNL     1      10.281   6.820  35.032  1.00  0.00    -0.297 N 
HETATM   28  C   UNL     1       9.776   7.385  33.889  1.00  0.00     0.188 A 
HETATM   29  N   UNL     1       8.500   7.682  33.957  1.00  0.00    -0.346 N 
HETATM   30  C   UNL     1       8.139   7.288  35.239  1.00  0.00     0.122 A 
ATOM     31  HN  UNL     1       7.911   8.102  33.238  1.00  0.00     0.167 HD
HETATM   32  C   UNL     1       6.919   7.349  35.945  1.00  0.00     0.131 A 
HETATM   33  C   UNL     1       9.228   6.753  35.911  1.00  0.00     0.142 A 
HETATM   34  N   UNL     1       6.900   6.870  37.208  1.00  0.00    -0.337 N 
HETATM   35  C   UNL     1       8.031   6.385  37.731  1.00  0.00     0.183 A 
ATOM     36  HN  UNL     1       6.039   6.879  37.755  1.00  0.00     0.168 HD
HETATM   37  N   UNL     1       9.242   6.281  37.164  1.00  0.00    -0.336 N 
ATOM     38  HN  UNL     1      10.064   5.894  37.626  1.00  0.00     0.168 HD
BRANCH  32  39
HETATM   39  N   UNL     1       5.794   7.870  35.447  1.00  0.00    -0.383 N 
ATOM     40  HN2 UNL     1       4.964   7.277  35.403  1.00  0.00     0.157 HD
ATOM     41  HN1 UNL     1       5.707   8.833  35.122  1.00  0.00     0.157 HD
ENDBRANCH  32  39
ENDBRANCH   1  27
TORSDOF 13
ENDMDL
MODEL 10
REMARK VINA RESULT:    -9.223      2.489      8.050
REMARK INTER + INTRA:         -16.418
REMARK INTER:                 -14.701
REMARK INTRA:                  -1.717
REMARK UNBOUND:                -1.264
REMARK  13 active torsions:
REMARK  status: ('A' for Active; 'I' for Inactive)
REMARK    1  A    between atoms: C_8  and  N_18 
REMARK    2  A    between atoms: N_9  and  C_13 
REMARK    3  A    between atoms: C_14  and  O_26 
REMARK    4  A    between atoms: C_15  and  O_28 
REMARK    5  A    between atoms: C_16  and  C_21 
REMARK    6  A    between atoms: C_21  and  O_22 
REMARK    7  A    between atoms: O_22  and  P_23 
REMARK    8  A    between atoms: P_23  and  O_25 
REMARK    9  A    between atoms: O_25  and  C_31 
REMARK   10  A    between atoms: C_31  and  C_32 
REMARK   11  A    between atoms: C_32  and  C_38 
REMARK   12  A    between atoms: C_32  and  N_34 
REMARK   13  A    between atoms: C_38  and  C_39 
ROOT
HETATM    1  C   UNL     1       8.296   5.993  41.436  1.00  0.00     0.262 C 
HETATM    2  C   UNL     1       8.618   7.459  41.718  1.00  0.00     0.198 C 
HETATM    3  C   UNL     1       8.712   7.976  40.288  1.00  0.00     0.182 C 
HETATM    4  C   UNL     1       9.434   6.828  39.578  1.00  0.00     0.180 C 
HETATM    5  O   UNL     1       9.113   5.637  40.335  1.00  0.00    -0.353 OA
ENDROOT
BRANCH   4   6
HETATM    6  C   UNL     1      10.933   6.962  39.481  1.00  0.00     0.216 C 
BRANCH   6   7
HETATM    7  O   UNL     1      11.346   6.497  38.182  1.00  0.00    -0.287 OA
BRANCH   7   8
HETATM    8  P   UNL     1      11.876   5.032  37.939  1.00  0.00     0.416 P 
HETATM    9  O   UNL     1      11.100   4.325  36.906  1.00  0.00    -0.624 OA
HETATM   10  O   UNL     1      12.087   4.419  39.275  1.00  0.00    -0.624 OA
BRANCH   8  11
HETATM   11  O   UNL     1      13.355   5.273  37.275  1.00  0.00    -0.211 OA
BRANCH  11  12
HETATM   12  C   UNL     1      13.780   5.608  35.963  1.00  0.00     0.299 C 
HETATM   13  O   UNL     1      14.558   4.900  35.381  1.00  0.00    -0.262 OA
BRANCH  12  14
HETATM   14  C   UNL     1      13.217   6.895  35.361  1.00  0.00     0.286 C 
BRANCH  14  15
HETATM   15  C   UNL     1      12.103   6.587  34.339  1.00  0.00     0.021 C 
HETATM   16  C   UNL     1      10.830   7.354  34.698  1.00  0.00     0.012 C 
BRANCH  15  17
HETATM   17  C   UNL     1      12.571   6.883  32.907  1.00  0.00     0.002 C 
HETATM   18  C   UNL     1      11.701   7.849  32.135  1.00  0.00     0.005 C 
ENDBRANCH  15  17
ENDBRANCH  14  15
BRANCH  14  19
HETATM   19  N   UNL     1      14.285   7.732  34.855  1.00  0.00    -0.066 N 
ATOM     20  HN3 UNL     1      13.916   8.631  34.546  1.00  0.00     0.275 HD
ATOM     21  HN2 UNL     1      14.885   8.042  35.620  1.00  0.00     0.275 HD
ATOM     22  HN1 UNL     1      14.844   7.306  34.115  1.00  0.00     0.275 HD
ENDBRANCH  14  19
ENDBRANCH  12  14
ENDBRANCH  11  12
ENDBRANCH   8  11
ENDBRANCH   7   8
ENDBRANCH   6   7
ENDBRANCH   4   6
BRANCH   3  23
HETATM   23  O   UNL     1       7.400   8.130  39.756  1.00  0.00    -0.390 OA
ATOM     24  HO  UNL     1       6.765   7.795  40.379  1.00  0.00     0.210 HD
ENDBRANCH   3  23
BRANCH   2  25
HETATM   25  O   UNL     1       7.593   8.107  42.462  1.00  0.00    -0.388 OA
ATOM     26  HO  UNL     1       7.885   8.368  43.328  1.00  0.00     0.210 HD
ENDBRANCH   2  25
BRANCH   1  27
HETATM   27  N   UNL     1       8.580   5.090  42.544  1.00  0.00    -0.297 N 
HETATM   28  C   UNL     1       7.680   4.480  43.380  1.00  0.00     0.188 A 
HETATM   29  N   UNL     1       8.228   3.674  44.260  1.00  0.00    -0.346 N 
HETATM   30  C   UNL     1       9.586   3.765  43.986  1.00  0.00     0.122 A 
ATOM     31  HN  UNL     1       7.765   3.114  44.975  1.00  0.00     0.167 HD
HETATM   32  C   UNL     1      10.718   3.166  44.580  1.00  0.00     0.131 A 
HETATM   33  C   UNL     1       9.816   4.633  42.930  1.00  0.00     0.142 A 
HETATM   34  N   UNL     1      11.931   3.469  44.067  1.00  0.00    -0.337 N 
HETATM   35  C   UNL     1      12.002   4.328  43.044  1.00  0.00     0.183 A 
ATOM     36  HN  UNL     1      12.777   3.050  44.452  1.00  0.00     0.168 HD
HETATM   37  N   UNL     1      11.005   4.959  42.407  1.00  0.00    -0.336 N 
ATOM     38  HN  UNL     1      11.136   5.603  41.627  1.00  0.00     0.168 HD
BRANCH  32  39
HETATM   39  N   UNL     1      10.661   2.339  45.628  1.00  0.00    -0.383 N 
ATOM     40  HN2 UNL     1       9.894   1.668  45.674  1.00  0.00     0.157 HD
ATOM     41  HN1 UNL     1      11.351   2.324  46.379  1.00  0.00     0.157 HD
ENDBRANCH  32  39
ENDBRANCH   1  27
TORSDOF 13
ENDMDL
MODEL 11
REMARK VINA RESULT:    -9.202      2.718      6.041
REMARK INTER + INTRA:         -16.384
REMARK INTER:                 -14.540
REMARK INTRA:                  -1.844
REMARK UNBOUND:                -1.264
REMARK  13 active torsions:
REMARK  status: ('A' for Active; 'I' for Inactive)
REMARK    1  A    between atoms: C_8  and  N_18 
REMARK    2  A    between atoms: N_9  and  C_13 
REMARK    3  A    between atoms: C_14  and  O_26 
REMARK    4  A    between atoms: C_15  and  O_28 
REMARK    5  A    between atoms: C_16  and  C_21 
REMARK    6  A    between atoms: C_21  and  O_22 
REMARK    7  A    between atoms: O_22  and  P_23 
REMARK    8  A    between atoms: P_23  and  O_25 
REMARK    9  A    between atoms: O_25  and  C_31 
REMARK   10  A    between atoms: C_31  and  C_32 
REMARK   11  A    between atoms: C_32  and  C_38 
REMARK   12  A    between atoms: C_32  and  N_34 
REMARK   13  A    between atoms: C_38  and  C_39 
ROOT
HETATM    1  C   UNL     1       8.560   7.297  39.149  1.00  0.00     0.262 C 
HETATM    2  C   UNL     1       8.442   5.865  39.669  1.00  0.00     0.198 C 
HETATM    3  C   UNL     1       9.023   6.056  41.064  1.00  0.00     0.182 C 
HETATM    4  C   UNL     1      10.185   7.017  40.799  1.00  0.00     0.180 C 
HETATM    5  O   UNL     1       9.815   7.760  39.613  1.00  0.00    -0.353 OA
ENDROOT
BRANCH   4   6
HETATM    6  C   UNL     1      11.529   6.370  40.577  1.00  0.00     0.216 C 
BRANCH   6   7
HETATM    7  O   UNL     1      11.942   6.638  39.224  1.00  0.00    -0.287 OA
BRANCH   7   8
HETATM    8  P   UNL     1      12.473   5.506  38.263  1.00  0.00     0.416 P 
HETATM    9  O   UNL     1      11.434   4.509  37.951  1.00  0.00    -0.624 OA
HETATM   10  O   UNL     1      13.796   5.077  38.786  1.00  0.00    -0.624 OA
BRANCH   8  11
HETATM   11  O   UNL     1      12.741   6.302  36.856  1.00  0.00    -0.211 OA
BRANCH  11  12
HETATM   12  C   UNL     1      12.763   5.883  35.499  1.00  0.00     0.299 C 
HETATM   13  O   UNL     1      12.847   4.715  35.230  1.00  0.00    -0.262 OA
BRANCH  12  14
HETATM   14  C   UNL     1      12.691   6.979  34.436  1.00  0.00     0.286 C 
BRANCH  14  15
HETATM   15  C   UNL     1      12.158   6.421  33.101  1.00  0.00     0.021 C 
HETATM   16  C   UNL     1      11.055   7.326  32.553  1.00  0.00     0.012 C 
BRANCH  15  17
HETATM   17  C   UNL     1      13.298   6.222  32.091  1.00  0.00     0.002 C 
HETATM   18  C   UNL     1      13.844   4.814  32.011  1.00  0.00     0.005 C 
ENDBRANCH  15  17
ENDBRANCH  14  15
BRANCH  14  19
HETATM   19  N   UNL     1      13.957   7.676  34.336  1.00  0.00    -0.066 N 
ATOM     20  HN3 UNL     1      13.809   8.684  34.359  1.00  0.00     0.275 HD
ATOM     21  HN2 UNL     1      14.496   7.557  35.195  1.00  0.00     0.275 HD
ATOM     22  HN1 UNL     1      14.521   7.419  33.526  1.00  0.00     0.275 HD
ENDBRANCH  14  19
ENDBRANCH  12  14
ENDBRANCH  11  12
ENDBRANCH   8  11
ENDBRANCH   7   8
ENDBRANCH   6   7
ENDBRANCH   4   6
BRANCH   3  23
HETATM   23  O   UNL     1       8.053   6.681  41.899  1.00  0.00    -0.390 OA
ATOM     24  HO  UNL     1       8.369   7.538  42.161  1.00  0.00     0.210 HD
ENDBRANCH   3  23
BRANCH   2  25
HETATM   25  O   UNL     1       7.094   5.409  39.702  1.00  0.00    -0.388 OA
ATOM     26  HO  UNL     1       6.867   5.013  40.536  1.00  0.00     0.210 HD
ENDBRANCH   2  25
BRANCH   1  27
HETATM   27  N   UNL     1       8.523   7.414  37.697  1.00  0.00    -0.297 N 
HETATM   28  C   UNL     1       9.585   7.546  36.839  1.00  0.00     0.188 A 
HETATM   29  N   UNL     1       9.248   7.578  35.571  1.00  0.00    -0.346 N 
HETATM   30  C   UNL     1       7.865   7.464  35.596  1.00  0.00     0.122 A 
ATOM     31  HN  UNL     1       9.859   7.666  34.759  1.00  0.00     0.167 HD
HETATM   32  C   UNL     1       6.892   7.450  34.573  1.00  0.00     0.131 A 
HETATM   33  C   UNL     1       7.405   7.360  36.900  1.00  0.00     0.142 A 
HETATM   34  N   UNL     1       5.598   7.323  34.939  1.00  0.00    -0.337 N 
HETATM   35  C   UNL     1       5.301   7.235  36.239  1.00  0.00     0.183 A 
ATOM     36  HN  UNL     1       4.860   7.294  34.235  1.00  0.00     0.168 HD
HETATM   37  N   UNL     1       6.130   7.243  37.293  1.00  0.00    -0.336 N 
ATOM     38  HN  UNL     1       5.830   7.168  38.265  1.00  0.00     0.168 HD
BRANCH  32  39
HETATM   39  N   UNL     1       7.175   7.578  33.274  1.00  0.00    -0.383 N 
ATOM     40  HN2 UNL     1       7.455   6.746  32.755  1.00  0.00     0.157 HD
ATOM     41  HN1 UNL     1       7.111   8.458  32.761  1.00  0.00     0.157 HD
ENDBRANCH  32  39
ENDBRANCH   1  27
TORSDOF 13
ENDMDL
MODEL 12
REMARK VINA RESULT:    -9.134      2.243      3.665
REMARK INTER + INTRA:         -16.272
REMARK INTER:                 -15.283
REMARK INTRA:                  -0.989
REMARK UNBOUND:                -1.264
REMARK  13 active torsions:
REMARK  status: ('A' for Active; 'I' for Inactive)
REMARK    1  A    between atoms: C_8  and  N_18 
REMARK    2  A    between atoms: N_9  and  C_13 
REMARK    3  A    between atoms: C_14  and  O_26 
REMARK    4  A    between atoms: C_15  and  O_28 
REMARK    5  A    between atoms: C_16  and  C_21 
REMARK    6  A    between atoms: C_21  and  O_22 
REMARK    7  A    between atoms: O_22  and  P_23 
REMARK    8  A    between atoms: P_23  and  O_25 
REMARK    9  A    between atoms: O_25  and  C_31 
REMARK   10  A    between atoms: C_31  and  C_32 
REMARK   11  A    between atoms: C_32  and  C_38 
REMARK   12  A    between atoms: C_32  and  N_34 
REMARK   13  A    between atoms: C_38  and  C_39 
ROOT
HETATM    1  C   UNL     1       8.882   7.750  34.771  1.00  0.00     0.262 C 
HETATM    2  C   UNL     1       7.718   6.859  34.341  1.00  0.00     0.198 C 
HETATM    3  C   UNL     1       6.896   6.882  35.624  1.00  0.00     0.182 C 
HETATM    4  C   UNL     1       7.980   6.798  36.701  1.00  0.00     0.180 C 
HETATM    5  O   UNL     1       9.169   7.370  36.105  1.00  0.00    -0.353 OA
ENDROOT
BRANCH   4   6
HETATM    6  C   UNL     1       8.297   5.411  37.201  1.00  0.00     0.216 C 
BRANCH   6   7
HETATM    7  O   UNL     1       9.080   5.531  38.403  1.00  0.00    -0.287 OA
BRANCH   7   8
HETATM    8  P   UNL     1       8.438   5.900  39.795  1.00  0.00     0.416 P 
HETATM    9  O   UNL     1       7.074   5.363  39.938  1.00  0.00    -0.624 OA
HETATM   10  O   UNL     1       8.709   7.341  40.031  1.00  0.00    -0.624 OA
BRANCH   8  11
HETATM   11  O   UNL     1       9.347   5.053  40.865  1.00  0.00    -0.211 OA
BRANCH  11  12
HETATM   12  C   UNL     1      10.010   5.416  42.067  1.00  0.00     0.299 C 
HETATM   13  O   UNL     1      11.207   5.514  42.089  1.00  0.00    -0.262 OA
BRANCH  12  14
HETATM   14  C   UNL     1       9.133   5.649  43.297  1.00  0.00     0.286 C 
BRANCH  14  15
HETATM   15  C   UNL     1       8.688   4.310  43.922  1.00  0.00     0.021 C 
HETATM   16  C   UNL     1       7.402   3.818  43.257  1.00  0.00     0.012 C 
BRANCH  15  17
HETATM   17  C   UNL     1       9.813   3.267  43.849  1.00  0.00     0.002 C 
HETATM   18  C   UNL     1      10.336   2.796  45.187  1.00  0.00     0.005 C 
ENDBRANCH  15  17
ENDBRANCH  14  15
BRANCH  14  19
HETATM   19  N   UNL     1       8.049   6.558  42.986  1.00  0.00    -0.066 N 
ATOM     20  HN3 UNL     1       7.269   6.412  43.626  1.00  0.00     0.275 HD
ATOM     21  HN2 UNL     1       8.305   7.514  43.236  1.00  0.00     0.275 HD
ATOM     22  HN1 UNL     1       7.726   6.519  42.019  1.00  0.00     0.275 HD
ENDBRANCH  14  19
ENDBRANCH  12  14
ENDBRANCH  11  12
ENDBRANCH   8  11
ENDBRANCH   7   8
ENDBRANCH   6   7
ENDBRANCH   4   6
BRANCH   3  23
HETATM   23  O   UNL     1       6.207   8.125  35.721  1.00  0.00    -0.390 OA
ATOM     24  HO  UNL     1       6.783   8.827  35.440  1.00  0.00     0.210 HD
ENDBRANCH   3  23
BRANCH   2  25
HETATM   25  O   UNL     1       7.005   7.395  33.232  1.00  0.00    -0.388 OA
ATOM     26  HO  UNL     1       6.445   8.122  33.479  1.00  0.00     0.210 HD
ENDBRANCH   2  25
BRANCH   1  27
HETATM   27  N   UNL     1      10.088   7.594  33.968  1.00  0.00    -0.297 N 
HETATM   28  C   UNL     1      10.355   8.146  32.742  1.00  0.00     0.188 A 
HETATM   29  N   UNL     1      11.552   7.870  32.279  1.00  0.00    -0.346 N 
HETATM   30  C   UNL     1      12.111   7.075  33.271  1.00  0.00     0.122 A 
ATOM     31  HN  UNL     1      11.973   8.169  31.400  1.00  0.00     0.167 HD
HETATM   32  C   UNL     1      13.363   6.434  33.384  1.00  0.00     0.131 A 
HETATM   33  C   UNL     1      11.219   6.898  34.318  1.00  0.00     0.142 A 
HETATM   34  N   UNL     1      13.603   5.715  34.502  1.00  0.00    -0.337 N 
HETATM   35  C   UNL     1      12.645   5.630  35.431  1.00  0.00     0.183 A 
ATOM     36  HN  UNL     1      14.499   5.246  34.636  1.00  0.00     0.168 HD
HETATM   37  N   UNL     1      11.424   6.185  35.433  1.00  0.00    -0.336 N 
ATOM     38  HN  UNL     1      10.743   6.078  36.184  1.00  0.00     0.168 HD
BRANCH  32  39
HETATM   39  N   UNL     1      14.311   6.478  32.443  1.00  0.00    -0.383 N 
ATOM     40  HN2 UNL     1      14.520   7.377  32.008  1.00  0.00     0.157 HD
ATOM     41  HN1 UNL     1      14.855   5.669  32.144  1.00  0.00     0.157 HD
ENDBRANCH  32  39
ENDBRANCH   1  27
TORSDOF 13
ENDMDL
MODEL 13
REMARK VINA RESULT:    -9.078      2.352      3.913
REMARK INTER + INTRA:         -16.180
REMARK INTER:                 -14.651
REMARK INTRA:                  -1.529
REMARK UNBOUND:                -1.264
REMARK  13 active torsions:
REMARK  status: ('A' for Active; 'I' for Inactive)
REMARK    1  A    between atoms: C_8  and  N_18 
REMARK    2  A    between atoms: N_9  and  C_13 
REMARK    3  A    between atoms: C_14  and  O_26 
REMARK    4  A    between atoms: C_15  and  O_28 
REMARK    5  A    between atoms: C_16  and  C_21 
REMARK    6  A    between atoms: C_21  and  O_22 
REMARK    7  A    between atoms: O_22  and  P_23 
REMARK    8  A    between atoms: P_23  and  O_25 
REMARK    9  A    between atoms: O_25  and  C_31 
REMARK   10  A    between atoms: C_31  and  C_32 
REMARK   11  A    between atoms: C_32  and  C_38 
REMARK   12  A    between atoms: C_32  and  N_34 
REMARK   13  A    between atoms: C_38  and  C_39 
ROOT
HETATM    1  C   UNL     1       8.954   7.689  35.149  1.00  0.00     0.262 C 
HETATM    2  C   UNL     1       7.680   6.868  34.959  1.00  0.00     0.198 C 
HETATM    3  C   UNL     1       7.182   6.838  36.398  1.00  0.00     0.182 C 
HETATM    4  C   UNL     1       8.483   6.649  37.183  1.00  0.00     0.180 C 
HETATM    5  O   UNL     1       9.526   7.216  36.355  1.00  0.00    -0.353 OA
ENDROOT
BRANCH   4   6
HETATM    6  C   UNL     1       8.840   5.223  37.519  1.00  0.00     0.216 C 
BRANCH   6   7
HETATM    7  O   UNL     1      10.276   5.114  37.561  1.00  0.00    -0.287 OA
BRANCH   7   8
HETATM    8  P   UNL     1      11.107   5.417  38.866  1.00  0.00     0.416 P 
HETATM    9  O   UNL     1      11.782   6.725  38.804  1.00  0.00    -0.624 OA
HETATM   10  O   UNL     1      11.876   4.186  39.186  1.00  0.00    -0.624 OA
BRANCH   8  11
HETATM   11  O   UNL     1       9.953   5.583  40.017  1.00  0.00    -0.211 OA
BRANCH  11  12
HETATM   12  C   UNL     1       9.911   6.293  41.246  1.00  0.00     0.299 C 
HETATM   13  O   UNL     1      10.896   6.375  41.930  1.00  0.00    -0.262 OA
BRANCH  12  14
HETATM   14  C   UNL     1       8.571   6.914  41.640  1.00  0.00     0.286 C 
BRANCH  14  15
HETATM   15  C   UNL     1       8.565   8.433  41.372  1.00  0.00     0.021 C 
HETATM   16  C   UNL     1       8.407   8.705  39.876  1.00  0.00     0.012 C 
BRANCH  15  17
HETATM   17  C   UNL     1       7.483   9.136  42.205  1.00  0.00     0.002 C 
HETATM   18  C   UNL     1       7.158  10.547  41.771  1.00  0.00     0.005 C 
ENDBRANCH  15  17
ENDBRANCH  14  15
BRANCH  14  19
HETATM   19  N   UNL     1       8.214   6.539  42.992  1.00  0.00    -0.066 N 
ATOM     20  HN3 UNL     1       7.627   7.257  43.416  1.00  0.00     0.275 HD
ATOM     21  HN2 UNL     1       7.556   5.758  42.981  1.00  0.00     0.275 HD
ATOM     22  HN1 UNL     1       9.006   6.326  43.598  1.00  0.00     0.275 HD
ENDBRANCH  14  19
ENDBRANCH  12  14
ENDBRANCH  11  12
ENDBRANCH   8  11
ENDBRANCH   7   8
ENDBRANCH   6   7
ENDBRANCH   4   6
BRANCH   3  23
HETATM   23  O   UNL     1       6.596   8.095  36.721  1.00  0.00    -0.390 OA
ATOM     24  HO  UNL     1       6.069   8.004  37.506  1.00  0.00     0.210 HD
ENDBRANCH   3  23
BRANCH   2  25
HETATM   25  O   UNL     1       6.755   7.497  34.079  1.00  0.00    -0.388 OA
ATOM     26  HO  UNL     1       6.076   6.901  33.782  1.00  0.00     0.210 HD
ENDBRANCH   2  25
BRANCH   1  27
HETATM   27  N   UNL     1       9.930   7.543  34.077  1.00  0.00    -0.297 N 
HETATM   28  C   UNL     1       9.876   8.080  32.816  1.00  0.00     0.188 A 
HETATM   29  N   UNL     1      10.930   7.819  32.078  1.00  0.00    -0.346 N 
HETATM   30  C   UNL     1      11.733   7.052  32.912  1.00  0.00     0.122 A 
ATOM     31  HN  UNL     1      11.116   8.111  31.118  1.00  0.00     0.167 HD
HETATM   32  C   UNL     1      12.990   6.439  32.722  1.00  0.00     0.131 A 
HETATM   33  C   UNL     1      11.129   6.877  34.148  1.00  0.00     0.142 A 
HETATM   34  N   UNL     1      13.513   5.745  33.757  1.00  0.00    -0.337 N 
HETATM   35  C   UNL     1      12.814   5.657  34.893  1.00  0.00     0.183 A 
ATOM     36  HN  UNL     1      14.425   5.296  33.674  1.00  0.00     0.168 HD
HETATM   37  N   UNL     1      11.617   6.188  35.187  1.00  0.00    -0.336 N 
ATOM     38  HN  UNL     1      11.143   6.080  36.083  1.00  0.00     0.168 HD
BRANCH  32  39
HETATM   39  N   UNL     1      13.678   6.486  31.578  1.00  0.00    -0.383 N 
ATOM     40  HN2 UNL     1      13.579   5.712  30.921  1.00  0.00     0.157 HD
ATOM     41  HN1 UNL     1      14.287   7.260  31.311  1.00  0.00     0.157 HD
ENDBRANCH  32  39
ENDBRANCH   1  27
TORSDOF 13
ENDMDL
MODEL 14
REMARK VINA RESULT:    -9.063      2.985      8.273
REMARK INTER + INTRA:         -16.156
REMARK INTER:                 -14.725
REMARK INTRA:                  -1.430
REMARK UNBOUND:                -1.264
REMARK  13 active torsions:
REMARK  status: ('A' for Active; 'I' for Inactive)
REMARK    1  A    between atoms: C_8  and  N_18 
REMARK    2  A    between atoms: N_9  and  C_13 
REMARK    3  A    between atoms: C_14  and  O_26 
REMARK    4  A    between atoms: C_15  and  O_28 
REMARK    5  A    between atoms: C_16  and  C_21 
REMARK    6  A    between atoms: C_21  and  O_22 
REMARK    7  A    between atoms: O_22  and  P_23 
REMARK    8  A    between atoms: P_23  and  O_25 
REMARK    9  A    between atoms: O_25  and  C_31 
REMARK   10  A    between atoms: C_31  and  C_32 
REMARK   11  A    between atoms: C_32  and  C_38 
REMARK   12  A    between atoms: C_32  and  N_34 
REMARK   13  A    between atoms: C_38  and  C_39 
ROOT
HETATM    1  C   UNL     1       8.411   5.935  41.143  1.00  0.00     0.262 C 
HETATM    2  C   UNL     1       8.655   7.408  41.462  1.00  0.00     0.198 C 
HETATM    3  C   UNL     1       8.872   7.939  40.051  1.00  0.00     0.182 C 
HETATM    4  C   UNL     1       9.698   6.821  39.411  1.00  0.00     0.180 C 
HETATM    5  O   UNL     1       9.344   5.614  40.127  1.00  0.00    -0.353 OA
ENDROOT
BRANCH   4   6
HETATM    6  C   UNL     1      11.194   7.004  39.463  1.00  0.00     0.216 C 
BRANCH   6   7
HETATM    7  O   UNL     1      11.735   6.682  38.168  1.00  0.00    -0.287 OA
BRANCH   7   8
HETATM    8  P   UNL     1      13.270   6.402  37.940  1.00  0.00     0.416 P 
HETATM    9  O   UNL     1      13.790   5.374  38.858  1.00  0.00    -0.624 OA
HETATM   10  O   UNL     1      13.941   7.722  37.830  1.00  0.00    -0.624 OA
BRANCH   8  11
HETATM   11  O   UNL     1      13.310   5.710  36.455  1.00  0.00    -0.211 OA
BRANCH  11  12
HETATM   12  C   UNL     1      12.882   6.150  35.174  1.00  0.00     0.299 C 
HETATM   13  O   UNL     1      11.718   6.103  34.878  1.00  0.00    -0.262 OA
BRANCH  12  14
HETATM   14  C   UNL     1      13.963   6.655  34.220  1.00  0.00     0.286 C 
BRANCH  14  15
HETATM   15  C   UNL     1      15.021   5.564  33.954  1.00  0.00     0.021 C 
HETATM   16  C   UNL     1      14.555   4.639  32.829  1.00  0.00     0.012 C 
BRANCH  15  17
HETATM   17  C   UNL     1      16.394   6.186  33.661  1.00  0.00     0.002 C 
HETATM   18  C   UNL     1      17.572   5.261  33.866  1.00  0.00     0.005 C 
ENDBRANCH  15  17
ENDBRANCH  14  15
BRANCH  14  19
HETATM   19  N   UNL     1      14.502   7.918  34.681  1.00  0.00    -0.066 N 
ATOM     20  HN3 UNL     1      13.957   8.694  34.308  1.00  0.00     0.275 HD
ATOM     21  HN2 UNL     1      14.319   8.038  35.678  1.00  0.00     0.275 HD
ATOM     22  HN1 UNL     1      15.493   8.054  34.484  1.00  0.00     0.275 HD
ENDBRANCH  14  19
ENDBRANCH  12  14
ENDBRANCH  11  12
ENDBRANCH   8  11
ENDBRANCH   7   8
ENDBRANCH   6   7
ENDBRANCH   4   6
BRANCH   3  23
HETATM   23  O   UNL     1       7.614   8.055  39.392  1.00  0.00    -0.390 OA
ATOM     24  HO  UNL     1       7.567   8.894  38.949  1.00  0.00     0.210 HD
ENDBRANCH   3  23
BRANCH   2  25
HETATM   25  O   UNL     1       7.540   8.016  42.104  1.00  0.00    -0.388 OA
ATOM     26  HO  UNL     1       7.078   8.618  41.532  1.00  0.00     0.210 HD
ENDBRANCH   2  25
BRANCH   1  27
HETATM   27  N   UNL     1       8.614   5.033  42.269  1.00  0.00    -0.297 N 
HETATM   28  C   UNL     1       7.666   4.305  42.942  1.00  0.00     0.188 A 
HETATM   29  N   UNL     1       8.153   3.535  43.887  1.00  0.00    -0.346 N 
HETATM   30  C   UNL     1       9.519   3.776  43.835  1.00  0.00     0.122 A 
ATOM     31  HN  UNL     1       7.646   2.908  44.512  1.00  0.00     0.167 HD
HETATM   32  C   UNL     1      10.602   3.282  44.593  1.00  0.00     0.131 A 
HETATM   33  C   UNL     1       9.817   4.696  42.841  1.00  0.00     0.142 A 
HETATM   34  N   UNL     1      11.840   3.726  44.284  1.00  0.00    -0.337 N 
HETATM   35  C   UNL     1      11.977   4.619  43.298  1.00  0.00     0.183 A 
ATOM     36  HN  UNL     1      12.656   3.387  44.794  1.00  0.00     0.168 HD
HETATM   37  N   UNL     1      11.030   5.162  42.519  1.00  0.00    -0.336 N 
ATOM     38  HN  UNL     1      11.211   5.840  41.779  1.00  0.00     0.168 HD
BRANCH  32  39
HETATM   39  N   UNL     1      10.472   2.421  45.607  1.00  0.00    -0.383 N 
ATOM     40  HN2 UNL     1      10.337   2.796  46.546  1.00  0.00     0.157 HD
ATOM     41  HN1 UNL     1      10.482   1.407  45.497  1.00  0.00     0.157 HD
ENDBRANCH  32  39
ENDBRANCH   1  27
TORSDOF 13
ENDMDL
MODEL 15
REMARK VINA RESULT:    -9.057      2.193      3.984
REMARK INTER + INTRA:         -16.145
REMARK INTER:                 -14.647
REMARK INTRA:                  -1.498
REMARK UNBOUND:                -1.264
REMARK  13 active torsions:
REMARK  status: ('A' for Active; 'I' for Inactive)
REMARK    1  A    between atoms: C_8  and  N_18 
REMARK    2  A    between atoms: N_9  and  C_13 
REMARK    3  A    between atoms: C_14  and  O_26 
REMARK    4  A    between atoms: C_15  and  O_28 
REMARK    5  A    between atoms: C_16  and  C_21 
REMARK    6  A    between atoms: C_21  and  O_22 
REMARK    7  A    between atoms: O_22  and  P_23 
REMARK    8  A    between atoms: P_23  and  O_25 
REMARK    9  A    between atoms: O_25  and  C_31 
REMARK   10  A    between atoms: C_31  and  C_32 
REMARK   11  A    between atoms: C_32  and  C_38 
REMARK   12  A    between atoms: C_32  and  N_34 
REMARK   13  A    between atoms: C_38  and  C_39 
ROOT
HETATM    1  C   UNL     1      11.644   6.306  35.849  1.00  0.00     0.262 C 
HETATM    2  C   UNL     1      12.492   7.364  36.553  1.00  0.00     0.198 C 
HETATM    3  C   UNL     1      13.036   6.526  37.703  1.00  0.00     0.182 C 
HETATM    4  C   UNL     1      11.819   5.684  38.091  1.00  0.00     0.180 C 
HETATM    5  O   UNL     1      11.018   5.577  36.889  1.00  0.00    -0.353 OA
ENDROOT
BRANCH   4   6
HETATM    6  C   UNL     1      10.967   6.242  39.203  1.00  0.00     0.216 C 
BRANCH   6   7
HETATM    7  O   UNL     1      10.000   5.243  39.578  1.00  0.00    -0.287 OA
BRANCH   7   8
HETATM    8  P   UNL     1       8.469   5.576  39.758  1.00  0.00     0.416 P 
HETATM    9  O   UNL     1       7.612   4.720  38.921  1.00  0.00    -0.624 OA
HETATM   10  O   UNL     1       8.337   7.055  39.708  1.00  0.00    -0.624 OA
BRANCH   8  11
HETATM   11  O   UNL     1       8.163   5.113  41.301  1.00  0.00    -0.211 OA
BRANCH  11  12
HETATM   12  C   UNL     1       8.642   5.568  42.557  1.00  0.00     0.299 C 
HETATM   13  O   UNL     1       9.088   6.679  42.667  1.00  0.00    -0.262 OA
BRANCH  12  14
HETATM   14  C   UNL     1       8.572   4.581  43.722  1.00  0.00     0.286 C 
BRANCH  14  15
HETATM   15  C   UNL     1       9.981   4.106  44.131  1.00  0.00     0.021 C 
HETATM   16  C   UNL     1       9.888   3.101  45.278  1.00  0.00     0.012 C 
BRANCH  15  17
HETATM   17  C   UNL     1      10.744   3.539  42.925  1.00  0.00     0.002 C 
HETATM   18  C   UNL     1      11.872   4.407  42.416  1.00  0.00     0.005 C 
ENDBRANCH  15  17
ENDBRANCH  14  15
BRANCH  14  19
HETATM   19  N   UNL     1       7.636   3.514  43.431  1.00  0.00    -0.066 N 
ATOM     20  HN3 UNL     1       7.831   2.703  44.018  1.00  0.00     0.275 HD
ATOM     21  HN2 UNL     1       6.705   3.757  43.770  1.00  0.00     0.275 HD
ATOM     22  HN1 UNL     1       7.597   3.240  42.450  1.00  0.00     0.275 HD
ENDBRANCH  14  19
ENDBRANCH  12  14
ENDBRANCH  11  12
ENDBRANCH   8  11
ENDBRANCH   7   8
ENDBRANCH   6   7
ENDBRANCH   4   6
BRANCH   3  23
HETATM   23  O   UNL     1      14.079   5.684  37.221  1.00  0.00    -0.390 OA
ATOM     24  HO  UNL     1      14.329   5.961  36.347  1.00  0.00     0.210 HD
ENDBRANCH   3  23
BRANCH   2  25
HETATM   25  O   UNL     1      13.525   7.875  35.719  1.00  0.00    -0.388 OA
ATOM     26  HO  UNL     1      13.246   7.969  34.815  1.00  0.00     0.210 HD
ENDBRANCH   2  25
BRANCH   1  27
HETATM   27  N   UNL     1      10.616   6.845  34.968  1.00  0.00    -0.297 N 
HETATM   28  C   UNL     1      10.760   7.265  33.671  1.00  0.00     0.188 A 
HETATM   29  N   UNL     1       9.641   7.657  33.108  1.00  0.00    -0.346 N 
HETATM   30  C   UNL     1       8.694   7.488  34.108  1.00  0.00     0.122 A 
ATOM     31  HN  UNL     1       9.501   8.005  32.159  1.00  0.00     0.167 HD
HETATM   32  C   UNL     1       7.306   7.741  34.157  1.00  0.00     0.131 A 
HETATM   33  C   UNL     1       9.282   6.986  35.260  1.00  0.00     0.142 A 
HETATM   34  N   UNL     1       6.657   7.461  35.309  1.00  0.00    -0.337 N 
HETATM   35  C   UNL     1       7.356   6.982  36.343  1.00  0.00     0.183 A 
ATOM     36  HN  UNL     1       5.651   7.613  35.389  1.00  0.00     0.168 HD
HETATM   37  N   UNL     1       8.667   6.710  36.417  1.00  0.00    -0.336 N 
ATOM     38  HN  UNL     1       9.134   6.340  37.245  1.00  0.00     0.168 HD
BRANCH  32  39
HETATM   39  N   UNL     1       6.606   8.258  33.144  1.00  0.00    -0.383 N 
ATOM     40  HN2 UNL     1       5.623   8.484  33.300  1.00  0.00     0.157 HD
ATOM     41  HN1 UNL     1       6.998   8.457  32.224  1.00  0.00     0.157 HD
ENDBRANCH  32  39
ENDBRANCH   1  27
TORSDOF 13
ENDMDL
MODEL 16
REMARK VINA RESULT:    -9.032      2.376      4.005
REMARK INTER + INTRA:         -16.104
REMARK INTER:                 -14.338
REMARK INTRA:                  -1.766
REMARK UNBOUND:                -1.264
REMARK  13 active torsions:
REMARK  status: ('A' for Active; 'I' for Inactive)
REMARK    1  A    between atoms: C_8  and  N_18 
REMARK    2  A    between atoms: N_9  and  C_13 
REMARK    3  A    between atoms: C_14  and  O_26 
REMARK    4  A    between atoms: C_15  and  O_28 
REMARK    5  A    between atoms: C_16  and  C_21 
REMARK    6  A    between atoms: C_21  and  O_22 
REMARK    7  A    between atoms: O_22  and  P_23 
REMARK    8  A    between atoms: P_23  and  O_25 
REMARK    9  A    between atoms: O_25  and  C_31 
REMARK   10  A    between atoms: C_31  and  C_32 
REMARK   11  A    between atoms: C_32  and  C_38 
REMARK   12  A    between atoms: C_32  and  N_34 
REMARK   13  A    between atoms: C_38  and  C_39 
ROOT
HETATM    1  C   UNL     1       8.787   7.816  34.722  1.00  0.00     0.262 C 
HETATM    2  C   UNL     1       7.646   6.895  34.293  1.00  0.00     0.198 C 
HETATM    3  C   UNL     1       6.777   6.974  35.542  1.00  0.00     0.182 C 
HETATM    4  C   UNL     1       7.821   6.952  36.661  1.00  0.00     0.180 C 
HETATM    5  O   UNL     1       9.028   7.503  36.082  1.00  0.00    -0.353 OA
ENDROOT
BRANCH   4   6
HETATM    6  C   UNL     1       8.128   5.593  37.239  1.00  0.00     0.216 C 
BRANCH   6   7
HETATM    7  O   UNL     1       7.627   5.552  38.589  1.00  0.00    -0.287 OA
BRANCH   7   8
HETATM    8  P   UNL     1       8.540   5.858  39.838  1.00  0.00     0.416 P 
HETATM    9  O   UNL     1       8.215   4.999  40.989  1.00  0.00    -0.624 OA
HETATM   10  O   UNL     1       8.587   7.335  39.989  1.00  0.00    -0.624 OA
BRANCH   8  11
HETATM   11  O   UNL     1      10.026   5.373  39.346  1.00  0.00    -0.211 OA
BRANCH  11  12
HETATM   12  C   UNL     1      11.253   6.062  39.159  1.00  0.00     0.299 C 
HETATM   13  O   UNL     1      11.337   6.933  38.335  1.00  0.00    -0.262 OA
BRANCH  12  14
HETATM   14  C   UNL     1      12.430   5.627  40.032  1.00  0.00     0.286 C 
BRANCH  14  15
HETATM   15  C   UNL     1      12.453   6.412  41.360  1.00  0.00     0.021 C 
HETATM   16  C   UNL     1      12.044   7.866  41.121  1.00  0.00     0.012 C 
BRANCH  15  17
HETATM   17  C   UNL     1      11.575   5.731  42.420  1.00  0.00     0.002 C 
HETATM   18  C   UNL     1      11.599   4.219  42.394  1.00  0.00     0.005 C 
ENDBRANCH  15  17
ENDBRANCH  14  15
BRANCH  14  19
HETATM   19  N   UNL     1      13.667   5.675  39.281  1.00  0.00    -0.066 N 
ATOM     20  HN3 UNL     1      13.845   4.776  38.834  1.00  0.00     0.275 HD
ATOM     21  HN2 UNL     1      13.559   6.264  38.456  1.00  0.00     0.275 HD
ATOM     22  HN1 UNL     1      14.481   5.968  39.822  1.00  0.00     0.275 HD
ENDBRANCH  14  19
ENDBRANCH  12  14
ENDBRANCH  11  12
ENDBRANCH   8  11
ENDBRANCH   7   8
ENDBRANCH   6   7
ENDBRANCH   4   6
BRANCH   3  23
HETATM   23  O   UNL     1       6.077   8.215  35.553  1.00  0.00    -0.390 OA
ATOM     24  HO  UNL     1       5.149   8.054  35.430  1.00  0.00     0.210 HD
ENDBRANCH   3  23
BRANCH   2  25
HETATM   25  O   UNL     1       6.971   7.371  33.134  1.00  0.00    -0.388 OA
ATOM     26  HO  UNL     1       7.206   8.267  32.921  1.00  0.00     0.210 HD
ENDBRANCH   2  25
BRANCH   1  27
HETATM   27  N   UNL     1      10.023   7.631  33.972  1.00  0.00    -0.297 N 
HETATM   28  C   UNL     1      10.362   8.184  32.764  1.00  0.00     0.188 A 
HETATM   29  N   UNL     1      11.570   7.877  32.353  1.00  0.00    -0.346 N 
HETATM   30  C   UNL     1      12.060   7.058  33.361  1.00  0.00     0.122 A 
ATOM     31  HN  UNL     1      12.038   8.170  31.496  1.00  0.00     0.167 HD
HETATM   32  C   UNL     1      13.287   6.380  33.524  1.00  0.00     0.131 A 
HETATM   33  C   UNL     1      11.117   6.900  34.366  1.00  0.00     0.142 A 
HETATM   34  N   UNL     1      13.455   5.646  34.646  1.00  0.00    -0.337 N 
HETATM   35  C   UNL     1      12.455   5.582  35.531  1.00  0.00     0.183 A 
ATOM     36  HN  UNL     1      14.330   5.149  34.816  1.00  0.00     0.168 HD
HETATM   37  N   UNL     1      11.252   6.172  35.482  1.00  0.00    -0.336 N 
ATOM     38  HN  UNL     1      10.534   6.080  36.201  1.00  0.00     0.168 HD
BRANCH  32  39
HETATM   39  N   UNL     1      14.277   6.404  32.628  1.00  0.00    -0.383 N 
ATOM     40  HN2 UNL     1      15.190   6.041  32.904  1.00  0.00     0.157 HD
ATOM     41  HN1 UNL     1      14.173   6.748  31.673  1.00  0.00     0.157 HD
ENDBRANCH  32  39
ENDBRANCH   1  27
TORSDOF 13
ENDMDL
MODEL 17
REMARK VINA RESULT:    -8.892      2.937      5.838
REMARK INTER + INTRA:         -15.874
REMARK INTER:                 -14.165
REMARK INTRA:                  -1.709
REMARK UNBOUND:                -1.264
REMARK  13 active torsions:
REMARK  status: ('A' for Active; 'I' for Inactive)
REMARK    1  A    between atoms: C_8  and  N_18 
REMARK    2  A    between atoms: N_9  and  C_13 
REMARK    3  A    between atoms: C_14  and  O_26 
REMARK    4  A    between atoms: C_15  and  O_28 
REMARK    5  A    between atoms: C_16  and  C_21 
REMARK    6  A    between atoms: C_21  and  O_22 
REMARK    7  A    between atoms: O_22  and  P_23 
REMARK    8  A    between atoms: P_23  and  O_25 
REMARK    9  A    between atoms: O_25  and  C_31 
REMARK   10  A    between atoms: C_31  and  C_32 
REMARK   11  A    between atoms: C_32  and  C_38 
REMARK   12  A    between atoms: C_32  and  N_34 
REMARK   13  A    between atoms: C_38  and  C_39 
ROOT
HETATM    1  C   UNL     1       7.772   7.199  39.061  1.00  0.00     0.262 C 
HETATM    2  C   UNL     1       8.138   5.791  39.527  1.00  0.00     0.198 C 
HETATM    3  C   UNL     1       9.026   6.142  40.714  1.00  0.00     0.182 C 
HETATM    4  C   UNL     1       9.812   7.342  40.182  1.00  0.00     0.180 C 
HETATM    5  O   UNL     1       8.965   7.953  39.180  1.00  0.00    -0.353 OA
ENDROOT
BRANCH   4   6
HETATM    6  C   UNL     1      11.152   7.024  39.568  1.00  0.00     0.216 C 
BRANCH   6   7
HETATM    7  O   UNL     1      10.929   6.260  38.367  1.00  0.00    -0.287 OA
BRANCH   7   8
HETATM    8  P   UNL     1      11.750   4.956  38.032  1.00  0.00     0.416 P 
HETATM    9  O   UNL     1      11.135   4.176  36.944  1.00  0.00    -0.624 OA
HETATM   10  O   UNL     1      12.087   4.309  39.326  1.00  0.00    -0.624 OA
BRANCH   8  11
HETATM   11  O   UNL     1      13.146   5.542  37.404  1.00  0.00    -0.211 OA
BRANCH  11  12
HETATM   12  C   UNL     1      13.434   6.644  36.556  1.00  0.00     0.299 C 
HETATM   13  O   UNL     1      13.563   7.745  37.019  1.00  0.00    -0.262 OA
BRANCH  12  14
HETATM   14  C   UNL     1      13.550   6.352  35.059  1.00  0.00     0.286 C 
BRANCH  14  15
HETATM   15  C   UNL     1      14.554   5.212  34.794  1.00  0.00     0.021 C 
HETATM   16  C   UNL     1      13.859   4.053  34.078  1.00  0.00     0.012 C 
BRANCH  15  17
HETATM   17  C   UNL     1      15.776   5.722  34.017  1.00  0.00     0.002 C 
HETATM   18  C   UNL     1      16.981   4.808  34.049  1.00  0.00     0.005 C 
ENDBRANCH  15  17
ENDBRANCH  14  15
BRANCH  14  19
HETATM   19  N   UNL     1      13.812   7.570  34.321  1.00  0.00    -0.066 N 
ATOM     20  HN3 UNL     1      12.982   7.856  33.802  1.00  0.00     0.275 HD
ATOM     21  HN2 UNL     1      13.900   8.360  34.961  1.00  0.00     0.275 HD
ATOM     22  HN1 UNL     1      14.620   7.525  33.700  1.00  0.00     0.275 HD
ENDBRANCH  14  19
ENDBRANCH  12  14
ENDBRANCH  11  12
ENDBRANCH   8  11
ENDBRANCH   7   8
ENDBRANCH   6   7
ENDBRANCH   4   6
BRANCH   3  23
HETATM   23  O   UNL     1       8.210   6.540  41.812  1.00  0.00    -0.390 OA
ATOM     24  HO  UNL     1       7.579   7.186  41.517  1.00  0.00     0.210 HD
ENDBRANCH   3  23
BRANCH   2  25
HETATM   25  O   UNL     1       6.997   5.032  39.910  1.00  0.00    -0.388 OA
ATOM     26  HO  UNL     1       6.568   4.623  39.167  1.00  0.00     0.210 HD
ENDBRANCH   2  25
BRANCH   1  27
HETATM   27  N   UNL     1       7.304   7.274  37.683  1.00  0.00    -0.297 N 
HETATM   28  C   UNL     1       6.007   7.304  37.238  1.00  0.00     0.188 A 
HETATM   29  N   UNL     1       5.890   7.426  35.936  1.00  0.00    -0.346 N 
HETATM   30  C   UNL     1       7.205   7.475  35.492  1.00  0.00     0.122 A 
ATOM     31  HN  UNL     1       5.035   7.474  35.382  1.00  0.00     0.167 HD
HETATM   32  C   UNL     1       7.770   7.582  34.203  1.00  0.00     0.131 A 
HETATM   33  C   UNL     1       8.086   7.384  36.559  1.00  0.00     0.142 A 
HETATM   34  N   UNL     1       9.118   7.603  34.108  1.00  0.00    -0.337 N 
HETATM   35  C   UNL     1       9.844   7.504  35.226  1.00  0.00     0.183 A 
ATOM     36  HN  UNL     1       9.573   7.693  33.200  1.00  0.00     0.168 HD
HETATM   37  N   UNL     1       9.424   7.393  36.495  1.00  0.00    -0.336 N 
ATOM     38  HN  UNL     1      10.041   7.324  37.304  1.00  0.00     0.168 HD
BRANCH  32  39
HETATM   39  N   UNL     1       7.054   7.640  33.077  1.00  0.00    -0.383 N 
ATOM     40  HN2 UNL     1       7.535   7.495  32.189  1.00  0.00     0.157 HD
ATOM     41  HN1 UNL     1       6.048   7.805  33.050  1.00  0.00     0.157 HD
ENDBRANCH  32  39
ENDBRANCH   1  27
TORSDOF 13
ENDMDL
MODEL 18
REMARK VINA RESULT:    -8.833      3.073      4.698
REMARK INTER + INTRA:         -15.777
REMARK INTER:                 -14.895
REMARK INTRA:                  -0.882
REMARK UNBOUND:                -1.264
REMARK  13 active torsions:
REMARK  status: ('A' for Active; 'I' for Inactive)
REMARK    1  A    between atoms: C_8  and  N_18 
REMARK    2  A    between atoms: N_9  and  C_13 
REMARK    3  A    between atoms: C_14  and  O_26 
REMARK    4  A    between atoms: C_15  and  O_28 
REMARK    5  A    between atoms: C_16  and  C_21 
REMARK    6  A    between atoms: C_21  and  O_22 
REMARK    7  A    between atoms: O_22  and  P_23 
REMARK    8  A    between atoms: P_23  and  O_25 
REMARK    9  A    between atoms: O_25  and  C_31 
REMARK   10  A    between atoms: C_31  and  C_32 
REMARK   11  A    between atoms: C_32  and  C_38 
REMARK   12  A    between atoms: C_32  and  N_34 
REMARK   13  A    between atoms: C_38  and  C_39 
ROOT
HETATM    1  C   UNL     1      12.661   5.304  36.235  1.00  0.00     0.262 C 
HETATM    2  C   UNL     1      12.807   5.702  37.703  1.00  0.00     0.198 C 
HETATM    3  C   UNL     1      11.438   5.276  38.217  1.00  0.00     0.182 C 
HETATM    4  C   UNL     1      10.518   5.700  37.069  1.00  0.00     0.180 C 
HETATM    5  O   UNL     1      11.342   5.674  35.878  1.00  0.00    -0.353 OA
ENDROOT
BRANCH   4   6
HETATM    6  C   UNL     1       9.891   7.064  37.205  1.00  0.00     0.216 C 
BRANCH   6   7
HETATM    7  O   UNL     1       8.462   6.901  37.275  1.00  0.00    -0.287 OA
BRANCH   7   8
HETATM    8  P   UNL     1       7.760   6.088  38.429  1.00  0.00     0.416 P 
HETATM    9  O   UNL     1       7.946   4.634  38.278  1.00  0.00    -0.624 OA
HETATM   10  O   UNL     1       6.400   6.660  38.599  1.00  0.00    -0.624 OA
BRANCH   8  11
HETATM   11  O   UNL     1       8.628   6.496  39.758  1.00  0.00    -0.211 OA
BRANCH  11  12
HETATM   12  C   UNL     1       8.543   7.581  40.670  1.00  0.00     0.299 C 
HETATM   13  O   UNL     1       8.328   8.693  40.267  1.00  0.00    -0.262 OA
BRANCH  12  14
HETATM   14  C   UNL     1       8.753   7.259  42.149  1.00  0.00     0.286 C 
BRANCH  14  15
HETATM   15  C   UNL     1       9.110   5.771  42.346  1.00  0.00     0.021 C 
HETATM   16  C   UNL     1      10.626   5.598  42.436  1.00  0.00     0.012 C 
BRANCH  15  17
HETATM   17  C   UNL     1       8.388   5.188  43.570  1.00  0.00     0.002 C 
HETATM   18  C   UNL     1       7.670   3.880  43.326  1.00  0.00     0.005 C 
ENDBRANCH  15  17
ENDBRANCH  14  15
BRANCH  14  19
HETATM   19  N   UNL     1       7.628   7.719  42.936  1.00  0.00    -0.066 N 
ATOM     20  HN3 UNL     1       7.367   8.666  42.662  1.00  0.00     0.275 HD
ATOM     21  HN2 UNL     1       6.780   7.219  42.669  1.00  0.00     0.275 HD
ATOM     22  HN1 UNL     1       7.767   7.669  43.946  1.00  0.00     0.275 HD
ENDBRANCH  14  19
ENDBRANCH  12  14
ENDBRANCH  11  12
ENDBRANCH   8  11
ENDBRANCH   7   8
ENDBRANCH   6   7
ENDBRANCH   4   6
BRANCH   3  23
HETATM   23  O   UNL     1      11.410   3.860  38.368  1.00  0.00    -0.390 OA
ATOM     24  HO  UNL     1      10.652   3.510  37.914  1.00  0.00     0.210 HD
ENDBRANCH   3  23
BRANCH   2  25
HETATM   25  O   UNL     1      13.868   5.009  38.350  1.00  0.00    -0.388 OA
ATOM     26  HO  UNL     1      13.679   4.085  38.465  1.00  0.00     0.210 HD
ENDBRANCH   2  25
BRANCH   1  27
HETATM   27  N   UNL     1      13.595   5.968  35.335  1.00  0.00    -0.297 N 
HETATM   28  C   UNL     1      13.890   7.306  35.271  1.00  0.00     0.188 A 
HETATM   29  N   UNL     1      14.815   7.609  34.390  1.00  0.00    -0.346 N 
HETATM   30  C   UNL     1      15.150   6.382  33.832  1.00  0.00     0.122 A 
ATOM     31  HN  UNL     1      15.197   8.528  34.169  1.00  0.00     0.167 HD
HETATM   32  C   UNL     1      16.062   6.016  32.819  1.00  0.00     0.131 A 
HETATM   33  C   UNL     1      14.407   5.363  34.407  1.00  0.00     0.142 A 
HETATM   34  N   UNL     1      16.152   4.706  32.500  1.00  0.00    -0.337 N 
HETATM   35  C   UNL     1      15.369   3.831  33.138  1.00  0.00     0.183 A 
ATOM     36  HN  UNL     1      16.807   4.390  31.784  1.00  0.00     0.168 HD
HETATM   37  N   UNL     1      14.468   4.060  34.105  1.00  0.00    -0.336 N 
ATOM     38  HN  UNL     1      13.904   3.336  34.551  1.00  0.00     0.168 HD
BRANCH  32  39
HETATM   39  N   UNL     1      16.820   6.886  32.146  1.00  0.00    -0.383 N 
ATOM     40  HN2 UNL     1      16.703   7.881  32.341  1.00  0.00     0.157 HD
ATOM     41  HN1 UNL     1      17.523   6.617  31.459  1.00  0.00     0.157 HD
ENDBRANCH  32  39
ENDBRANCH   1  27
TORSDOF 13
ENDMDL
MODEL 19
REMARK VINA RESULT:    -8.776      2.687      8.036
REMARK INTER + INTRA:         -15.684
REMARK INTER:                 -14.445
REMARK INTRA:                  -1.240
REMARK UNBOUND:                -1.264
REMARK  13 active torsions:
REMARK  status: ('A' for Active; 'I' for Inactive)
REMARK    1  A    between atoms: C_8  and  N_18 
REMARK    2  A    between atoms: N_9  and  C_13 
REMARK    3  A    between atoms: C_14  and  O_26 
REMARK    4  A    between atoms: C_15  and  O_28 
REMARK    5  A    between atoms: C_16  and  C_21 
REMARK    6  A    between atoms: C_21  and  O_22 
REMARK    7  A    between atoms: O_22  and  P_23 
REMARK    8  A    between atoms: P_23  and  O_25 
REMARK    9  A    between atoms: O_25  and  C_31 
REMARK   10  A    between atoms: C_31  and  C_32 
REMARK   11  A    between atoms: C_32  and  C_38 
REMARK   12  A    between atoms: C_32  and  N_34 
REMARK   13  A    between atoms: C_38  and  C_39 
ROOT
HETATM    1  C   UNL     1       8.049   5.732  39.899  1.00  0.00     0.262 C 
HETATM    2  C   UNL     1       7.894   7.221  39.595  1.00  0.00     0.198 C 
HETATM    3  C   UNL     1       7.082   7.133  38.310  1.00  0.00     0.182 C 
HETATM    4  C   UNL     1       7.737   5.948  37.597  1.00  0.00     0.180 C 
HETATM    5  O   UNL     1       8.295   5.120  38.646  1.00  0.00    -0.353 OA
ENDROOT
BRANCH   4   6
HETATM    6  C   UNL     1       8.826   6.298  36.614  1.00  0.00     0.216 C 
BRANCH   6   7
HETATM    7  O   UNL     1      10.044   6.524  37.349  1.00  0.00    -0.287 OA
BRANCH   7   8
HETATM    8  P   UNL     1      11.462   6.160  36.765  1.00  0.00     0.416 P 
HETATM    9  O   UNL     1      11.857   4.777  37.082  1.00  0.00    -0.624 OA
HETATM   10  O   UNL     1      12.367   7.294  37.083  1.00  0.00    -0.624 OA
BRANCH   8  11
HETATM   11  O   UNL     1      11.216   6.175  35.144  1.00  0.00    -0.211 OA
BRANCH  11  12
HETATM   12  C   UNL     1      11.280   7.205  34.169  1.00  0.00     0.299 C 
HETATM   13  O   UNL     1      10.334   7.923  33.986  1.00  0.00    -0.262 OA
BRANCH  12  14
HETATM   14  C   UNL     1      12.582   7.326  33.377  1.00  0.00     0.286 C 
BRANCH  14  15
HETATM   15  C   UNL     1      12.813   6.081  32.496  1.00  0.00     0.021 C 
HETATM   16  C   UNL     1      12.956   6.490  31.030  1.00  0.00     0.012 C 
BRANCH  15  17
HETATM   17  C   UNL     1      14.020   5.271  32.991  1.00  0.00     0.002 C 
HETATM   18  C   UNL     1      13.754   3.799  33.213  1.00  0.00     0.005 C 
ENDBRANCH  15  17
ENDBRANCH  14  15
BRANCH  14  19
HETATM   19  N   UNL     1      13.685   7.656  34.256  1.00  0.00    -0.066 N 
ATOM     20  HN3 UNL     1      13.487   8.517  34.766  1.00  0.00     0.275 HD
ATOM     21  HN2 UNL     1      13.728   6.997  35.034  1.00  0.00     0.275 HD
ATOM     22  HN1 UNL     1      14.592   7.719  33.794  1.00  0.00     0.275 HD
ENDBRANCH  14  19
ENDBRANCH  12  14
ENDBRANCH  11  12
ENDBRANCH   8  11
ENDBRANCH   7   8
ENDBRANCH   6   7
ENDBRANCH   4   6
BRANCH   3  23
HETATM   23  O   UNL     1       5.728   6.824  38.627  1.00  0.00    -0.390 OA
ATOM     24  HO  UNL     1       5.708   6.179  39.324  1.00  0.00     0.210 HD
ENDBRANCH   3  23
BRANCH   2  25
HETATM   25  O   UNL     1       7.202   7.917  40.626  1.00  0.00    -0.388 OA
ATOM     26  HO  UNL     1       6.756   7.327  41.223  1.00  0.00     0.210 HD
ENDBRANCH   2  25
BRANCH   1  27
HETATM   27  N   UNL     1       9.147   5.413  40.801  1.00  0.00    -0.297 N 
HETATM   28  C   UNL     1      10.488   5.615  40.595  1.00  0.00     0.188 A 
HETATM   29  N   UNL     1      11.244   5.274  41.612  1.00  0.00    -0.346 N 
HETATM   30  C   UNL     1      10.336   4.811  42.555  1.00  0.00     0.122 A 
ATOM     31  HN  UNL     1      12.259   5.336  41.691  1.00  0.00     0.167 HD
HETATM   32  C   UNL     1      10.499   4.282  43.853  1.00  0.00     0.131 A 
HETATM   33  C   UNL     1       9.040   4.892  42.068  1.00  0.00     0.142 A 
HETATM   34  N   UNL     1       9.386   3.914  44.525  1.00  0.00    -0.337 N 
HETATM   35  C   UNL     1       8.198   4.048  43.928  1.00  0.00     0.183 A 
ATOM     36  HN  UNL     1       9.451   3.540  45.472  1.00  0.00     0.168 HD
HETATM   37  N   UNL     1       7.921   4.527  42.706  1.00  0.00    -0.336 N 
ATOM     38  HN  UNL     1       6.982   4.602  42.315  1.00  0.00     0.168 HD
BRANCH  32  39
HETATM   39  N   UNL     1      11.684   4.106  44.444  1.00  0.00    -0.383 N 
ATOM     40  HN2 UNL     1      12.231   4.932  44.688  1.00  0.00     0.157 HD
ATOM     41  HN1 UNL     1      12.071   3.193  44.682  1.00  0.00     0.157 HD
ENDBRANCH  32  39
ENDBRANCH   1  27
TORSDOF 13
ENDMDL
MODEL 20
REMARK VINA RESULT:    -8.593      2.504      3.399
REMARK INTER + INTRA:         -15.384
REMARK INTER:                 -13.562
REMARK INTRA:                  -1.822
REMARK UNBOUND:                -1.264
REMARK  13 active torsions:
REMARK  status: ('A' for Active; 'I' for Inactive)
REMARK    1  A    between atoms: C_8  and  N_18 
REMARK    2  A    between atoms: N_9  and  C_13 
REMARK    3  A    between atoms: C_14  and  O_26 
REMARK    4  A    between atoms: C_15  and  O_28 
REMARK    5  A    between atoms: C_16  and  C_21 
REMARK    6  A    between atoms: C_21  and  O_22 
REMARK    7  A    between atoms: O_22  and  P_23 
REMARK    8  A    between atoms: P_23  and  O_25 
REMARK    9  A    between atoms: O_25  and  C_31 
REMARK   10  A    between atoms: C_31  and  C_32 
REMARK   11  A    between atoms: C_32  and  C_38 
REMARK   12  A    between atoms: C_32  and  N_34 
REMARK   13  A    between atoms: C_38  and  C_39 
ROOT
HETATM    1  C   UNL     1       9.667   6.822  36.298  1.00  0.00     0.262 C 
HETATM    2  C   UNL     1       9.353   5.953  37.515  1.00  0.00     0.198 C 
HETATM    3  C   UNL     1       7.914   6.383  37.766  1.00  0.00     0.182 C 
HETATM    4  C   UNL     1       7.977   7.890  37.500  1.00  0.00     0.180 C 
HETATM    5  O   UNL     1       9.072   8.077  36.571  1.00  0.00    -0.353 OA
ENDROOT
BRANCH   4   6
HETATM    6  C   UNL     1       8.206   8.756  38.713  1.00  0.00     0.216 C 
BRANCH   6   7
HETATM    7  O   UNL     1       7.752   8.037  39.875  1.00  0.00    -0.287 OA
BRANCH   7   8
HETATM    8  P   UNL     1       8.157   8.459  41.340  1.00  0.00     0.416 P 
HETATM    9  O   UNL     1       7.012   8.984  42.104  1.00  0.00    -0.624 OA
HETATM   10  O   UNL     1       9.416   9.240  41.235  1.00  0.00    -0.624 OA
BRANCH   8  11
HETATM   11  O   UNL     1       8.529   7.031  42.053  1.00  0.00    -0.211 OA
BRANCH  11  12
HETATM   12  C   UNL     1       9.258   5.894  41.613  1.00  0.00     0.299 C 
HETATM   13  O   UNL     1       8.688   4.981  41.078  1.00  0.00    -0.262 OA
BRANCH  12  14
HETATM   14  C   UNL     1      10.765   5.898  41.871  1.00  0.00     0.286 C 
BRANCH  14  15
HETATM   15  C   UNL     1      11.541   6.323  40.608  1.00  0.00     0.021 C 
HETATM   16  C   UNL     1      12.552   7.417  40.952  1.00  0.00     0.012 C 
BRANCH  15  17
HETATM   17  C   UNL     1      12.206   5.113  39.935  1.00  0.00     0.002 C 
HETATM   18  C   UNL     1      13.677   5.280  39.626  1.00  0.00     0.005 C 
ENDBRANCH  15  17
ENDBRANCH  14  15
BRANCH  14  19
HETATM   19  N   UNL     1      11.187   4.636  42.442  1.00  0.00    -0.066 N 
ATOM     20  HN3 UNL     1      11.757   4.795  43.273  1.00  0.00     0.275 HD
ATOM     21  HN2 UNL     1      10.393   4.153  42.863  1.00  0.00     0.275 HD
ATOM     22  HN1 UNL     1      11.674   4.017  41.793  1.00  0.00     0.275 HD
ENDBRANCH  14  19
ENDBRANCH  12  14
ENDBRANCH  11  12
ENDBRANCH   8  11
ENDBRANCH   7   8
ENDBRANCH   6   7
ENDBRANCH   4   6
BRANCH   3  23
HETATM   23  O   UNL     1       7.061   5.756  36.813  1.00  0.00    -0.390 OA
ATOM     24  HO  UNL     1       6.925   4.849  37.061  1.00  0.00     0.210 HD
ENDBRANCH   3  23
BRANCH   2  25
HETATM   25  O   UNL     1       9.461   4.563  37.232  1.00  0.00    -0.388 OA
ATOM     26  HO  UNL     1       9.923   4.090  37.916  1.00  0.00     0.210 HD
ENDBRANCH   2  25
BRANCH   1  27
HETATM   27  N   UNL     1      11.090   7.020  36.050  1.00  0.00    -0.297 N 
HETATM   28  C   UNL     1      12.064   7.328  36.965  1.00  0.00     0.188 A 
HETATM   29  N   UNL     1      13.273   7.395  36.457  1.00  0.00    -0.346 N 
HETATM   30  C   UNL     1      13.079   7.114  35.111  1.00  0.00     0.122 A 
ATOM     31  HN  UNL     1      14.148   7.603  36.938  1.00  0.00     0.167 HD
HETATM   32  C   UNL     1      13.967   7.045  34.016  1.00  0.00     0.131 A 
HETATM   33  C   UNL     1      11.738   6.879  34.848  1.00  0.00     0.142 A 
HETATM   34  N   UNL     1      13.449   6.742  32.806  1.00  0.00    -0.337 N 
HETATM   35  C   UNL     1      12.131   6.543  32.700  1.00  0.00     0.183 A 
ATOM     36  HN  UNL     1      14.052   6.667  31.986  1.00  0.00     0.168 HD
HETATM   37  N   UNL     1      11.195   6.587  33.659  1.00  0.00    -0.336 N 
ATOM     38  HN  UNL     1      10.201   6.420  33.504  1.00  0.00     0.168 HD
BRANCH  32  39
HETATM   39  N   UNL     1      15.279   7.283  34.103  1.00  0.00    -0.383 N 
ATOM     40  HN2 UNL     1      15.796   7.465  33.243  1.00  0.00     0.157 HD
ATOM     41  HN1 UNL     1      15.795   7.311  34.982  1.00  0.00     0.157 HD
ENDBRANCH  32  39
ENDBRANCH   1  27
TORSDOF 13
ENDMDL
