REMARK  15 active torsions:
REMARK  status: ('A' for Active; 'I' for Inactive)
REMARK    1  A    between atoms: C_1  and  O_11 
REMARK    2  A    between atoms: C_2  and  N_9 
REMARK    3  A    between atoms: C_3  and  O_12 
REMARK    4  A    between atoms: C_4  and  O_14 
REMARK    5  A    between atoms: C_5  and  C_6 
REMARK    6  A    between atoms: C_6  and  O_17 
REMARK       I    between atoms: C_7  and  N_9 
REMARK    7  A    between atoms: O_11  and  P_44 
REMARK    8  A    between atoms: N_20  and  C_29 
REMARK    9  A    between atoms: C_30  and  O_31 
REMARK   10  A    between atoms: C_33  and  O_36 
REMARK   11  A    between atoms: C_34  and  C_38 
REMARK   12  A    between atoms: C_38  and  O_39 
REMARK   13  A    between atoms: O_39  and  P_40 
REMARK   14  A    between atoms: P_40  and  O_43 
REMARK   15  A    between atoms: O_43  and  P_44 
ROOT
HETATM    1  P   UNL     1      27.469 -31.250  40.631  1.00  0.00     0.417 P 
HETATM    2  O   UNL     1      27.203 -32.716  40.518  1.00  0.00    -0.624 OA
HETATM    3  O   UNL     1      28.150 -30.803  41.872  1.00  0.00    -0.624 OA
ENDROOT
BRANCH   1   4
HETATM    4  O   UNL     1      26.145 -30.333  40.434  1.00  0.00    -0.287 OA
BRANCH   4   5
HETATM    5  C   UNL     1      24.855 -30.870  40.112  1.00  0.00     0.216 C 
BRANCH   5   6
HETATM    6  C   UNL     1      23.827 -30.124  40.952  1.00  0.00     0.180 C 
HETATM    7  C   UNL     1      23.938 -28.591  40.939  1.00  0.00     0.182 C 
HETATM    8  C   UNL     1      23.273 -28.198  42.217  1.00  0.00     0.198 C 
HETATM    9  C   UNL     1      23.777 -29.294  43.124  1.00  0.00     0.263 C 
HETATM   10  O   UNL     1      24.126 -30.421  42.326  1.00  0.00    -0.353 OA
BRANCH   7  11
HETATM   11  O   UNL     1      23.056 -28.048  39.984  1.00  0.00    -0.390 OA
ATOM     12  HO  UNL     1      23.479 -28.298  39.171  1.00  0.00     0.210 HD
ENDBRANCH   7  11
BRANCH   8  13
HETATM   13  O   UNL     1      21.878 -28.474  42.023  1.00  0.00    -0.388 OA
ATOM     14  HO  UNL     1      21.561 -27.784  41.452  1.00  0.00     0.210 HD
ENDBRANCH   8  13
BRANCH   9  15
HETATM   15  N   UNL     1      24.870 -28.910  44.042  1.00  0.00    -0.280 N 
HETATM   16  C   UNL     1      24.499 -28.272  45.224  1.00  0.00     0.331 A 
HETATM   17  O   UNL     1      23.339 -27.997  45.467  1.00  0.00    -0.246 OA
HETATM   18  N   UNL     1      25.538 -28.003  46.095  1.00  0.00    -0.275 N 
HETATM   19  C   UNL     1      26.863 -28.344  45.932  1.00  0.00     0.250 A 
ATOM     20  HN  UNL     1      25.299 -27.499  46.949  1.00  0.00     0.173 HD
HETATM   21  O   UNL     1      27.693 -28.077  46.810  1.00  0.00    -0.268 OA
HETATM   22  C   UNL     1      27.160 -28.987  44.687  1.00  0.00     0.092 A 
HETATM   23  C   UNL     1      26.180 -29.251  43.825  1.00  0.00     0.104 A 
ENDBRANCH   9  15
ENDBRANCH   5   6
ENDBRANCH   4   5
ENDBRANCH   1   4
BRANCH   1  24
HETATM   24  O   UNL     1      28.311 -30.783  39.352  1.00  0.00    -0.180 OA
BRANCH  24  25
HETATM   25  P   UNL     1      29.812 -30.237  39.242  1.00  0.00     0.420 P 
HETATM   26  O   UNL     1      29.775 -28.749  39.425  1.00  0.00    -0.624 OA
HETATM   27  O   UNL     1      30.773 -31.028  40.053  1.00  0.00    -0.624 OA
BRANCH  25  28
HETATM   28  O   UNL     1      30.095 -30.460  37.670  1.00  0.00    -0.256 OA
BRANCH  28  29
HETATM   29  C   UNL     1      30.390 -31.760  37.208  1.00  0.00     0.298 C 
HETATM   30  O   UNL     1      29.252 -32.611  37.195  1.00  0.00    -0.348 OA
HETATM   31  C   UNL     1      28.160 -32.065  36.430  1.00  0.00     0.179 C 
HETATM   32  C   UNL     1      28.568 -31.921  34.958  1.00  0.00     0.180 C 
HETATM   33  C   UNL     1      29.825 -31.074  34.839  1.00  0.00     0.177 C 
HETATM   34  C   UNL     1      30.915 -31.592  35.771  1.00  0.00     0.171 C 
BRANCH  31  35
HETATM   35  C   UNL     1      26.971 -32.987  36.606  1.00  0.00     0.198 C 
BRANCH  35  36
HETATM   36  O   UNL     1      27.114 -34.264  35.955  1.00  0.00    -0.398 OA
ATOM     37  HO  UNL     1      26.368 -34.842  36.065  1.00  0.00     0.209 HD
ENDBRANCH  35  36
ENDBRANCH  31  35
BRANCH  32  38
HETATM   38  O   UNL     1      27.478 -31.294  34.279  1.00  0.00    -0.390 OA
ATOM     39  HO  UNL     1      27.731 -31.205  33.368  1.00  0.00     0.210 HD
ENDBRANCH  32  38
BRANCH  33  40
HETATM   40  O   UNL     1      30.340 -30.993  33.497  1.00  0.00    -0.391 OA
ATOM     41  HO  UNL     1      31.125 -30.464  33.423  1.00  0.00     0.210 HD
ENDBRANCH  33  40
BRANCH  34  42
HETATM   42  N   UNL     1      32.070 -30.723  35.796  1.00  0.00    -0.349 N 
HETATM   43  C   UNL     1      33.252 -31.122  36.243  1.00  0.00     0.214 C 
HETATM   44  C   UNL     1      34.369 -30.115  36.166  1.00  0.00     0.117 C 
HETATM   45  O   UNL     1      33.430 -32.302  36.609  1.00  0.00    -0.274 OA
ATOM     46  HN  UNL     1      31.971 -29.766  35.457  1.00  0.00     0.163 HD
ENDBRANCH  34  42
ENDBRANCH  28  29
ENDBRANCH  25  28
ENDBRANCH  24  25
ENDBRANCH   1  24
TORSDOF 15
