REMARK  3 active torsions:
REMARK  status: ('A' for Active; 'I' for Inactive)
REMARK    1  A    between atoms: C_5  and  S_25 
REMARK    2  A    between atoms: C_18  and  N_20 
REMARK    3  A    between atoms: N_20  and  S_25 
ROOT
HETATM    1  C   UNL     1       3.745   0.174 -31.126  1.00  0.00    -0.021 A 
HETATM    2  C   UNL     1       4.466   1.755 -29.389  1.00  0.00     0.003 A 
HETATM    3  C   UNL     1       3.753   2.792 -30.024  1.00  0.00     0.030 A 
HETATM    4  C   UNL     1       3.029   1.226 -31.748  1.00  0.00     0.042 A 
HETATM    5  C   UNL     1       2.453  -1.775 -31.819  1.00  0.00     0.107 A 
HETATM    6  C   UNL     1       3.411  -3.696 -32.813  1.00  0.00     0.258 A 
HETATM    7  C   UNL     1       4.703  -3.133 -32.740  1.00  0.00     0.043 A 
HETATM    8  C   UNL     1       5.832  -3.845 -33.214  1.00  0.00     0.018 A 
HETATM    9  C   UNL     1       7.112  -3.281 -33.135  1.00  0.00     0.001 A 
HETATM   10  C   UNL     1       7.284  -2.005 -32.582  1.00  0.00     0.001 A 
HETATM   11  C   UNL     1       6.171  -1.287 -32.112  1.00  0.00     0.013 A 
HETATM   12  C   UNL     1       4.860  -1.831 -32.177  1.00  0.00    -0.008 A 
HETATM   13  C   UNL     1       3.708  -1.133 -31.706  1.00  0.00     0.001 A 
HETATM   14  C   UNL     1       1.013  -3.651 -32.467  1.00  0.00     0.159 C 
HETATM   15  C   UNL     1       4.456   0.457 -29.935  1.00  0.00     0.012 A 
HETATM   16  C   UNL     1       3.034   2.530 -31.206  1.00  0.00     0.043 A 
HETATM   17  N   UNL     1       2.312  -3.019 -32.371  1.00  0.00    -0.327 N 
HETATM   18  O   UNL     1       3.267  -4.837 -33.297  1.00  0.00    -0.267 OA
ENDROOT
BRANCH  16  19
HETATM   19  N   UNL     1       2.370   3.576 -31.756  1.00  0.00    -0.285 N 
ATOM     20  HN  UNL     1       2.401   4.465 -31.258  1.00  0.00     0.178 HD
BRANCH  19  21
HETATM   21  S   UNL     1       1.489   3.525 -33.211  1.00  0.00     0.230 S 
HETATM   22  O   UNL     1       1.055   5.027 -33.562  1.00  0.00    -0.206 OA
HETATM   23  O   UNL     1       2.377   2.876 -34.371  1.00  0.00    -0.206 OA
BRANCH  21  24
HETATM   24  C   UNL     1      -0.033   2.536 -32.975  1.00  0.00     0.159 C 
HETATM   25  C   UNL     1      -0.792   2.987 -31.712  1.00  0.00     0.023 C 
ENDBRANCH  21  24
ENDBRANCH  19  21
ENDBRANCH  16  19
TORSDOF 3
