REMARK  3 active torsions:
REMARK  status: ('A' for Active; 'I' for Inactive)
REMARK    1  A    between atoms: C_7  and  C_21 
REMARK    2  A    between atoms: C_8  and  C_11 
REMARK    3  A    between atoms: C_18  and  N_25 
REMARK       I    between atoms: C_21  and  N_24 
ROOT
HETATM    1  C   UNL     1      -0.537  -3.671  -1.297  1.00  0.00     0.145 C 
HETATM    2  C   UNL     1      -2.045  -3.430  -1.181  1.00  0.00     0.144 C 
HETATM    3  C   UNL     1      -1.799  -1.069  -2.046  1.00  0.00     0.144 C 
HETATM    4  C   UNL     1      -0.732  -1.734  -2.930  1.00  0.00     0.145 C 
HETATM    5  C   UNL     1       1.554  -2.560  -2.123  1.00  0.00     0.253 C 
HETATM    6  N   UNL     1       0.111  -2.633  -2.118  1.00  0.00    -0.347 N 
HETATM    7  N   UNL     1      -2.294  -1.994  -1.011  1.00  0.00    -0.363 N 
HETATM    8  O   UNL     1       2.220  -3.590  -1.824  1.00  0.00    -0.271 OA
ENDROOT
BRANCH   5   9
HETATM    9  C   UNL     1       2.292  -1.272  -2.440  1.00  0.00     0.312 C 
HETATM   10  C   UNL     1       1.813  -0.108  -1.554  1.00  0.00     0.056 C 
HETATM   11  C   UNL     1       3.037   0.322  -0.756  1.00  0.00     0.049 C 
HETATM   12  C   UNL     1       4.024  -0.821  -0.925  1.00  0.00     0.280 C 
HETATM   13  N   UNL     1       3.733  -1.444  -2.213  1.00  0.00     0.097 N 
HETATM   14  H   UNL     1       4.248  -0.903  -2.949  1.00  0.00     0.317 HD
BRANCH  11  15
HETATM   15  C   UNL     1       2.730   0.639   0.698  1.00  0.00    -0.051 A 
HETATM   16  C   UNL     1       3.035   1.910   1.215  1.00  0.00     0.007 A 
HETATM   17  C   UNL     1       2.747   2.223   2.546  1.00  0.00     0.002 A 
HETATM   18  C   UNL     1       2.150   1.272   3.374  1.00  0.00     0.024 A 
HETATM   19  C   UNL     1       1.842   0.002   2.875  1.00  0.00     0.034 A 
HETATM   20  C   UNL     1       2.132  -0.316   1.545  1.00  0.00     0.031 A 
HETATM   21 CL   UNL     1       1.087  -1.191   3.914  1.00  0.00    -0.084 Cl
ENDBRANCH  11  15
ENDBRANCH   5   9
BRANCH   7  22
HETATM   22  C   UNL     1      -2.658  -1.484   0.286  1.00  0.00     0.121 A 
HETATM   23  C   UNL     1      -3.520  -0.389   0.444  1.00  0.00     0.059 A 
HETATM   24  C   UNL     1      -3.832   0.100   1.704  1.00  0.00    -0.014 A 
HETATM   25  S   UNL     1      -4.361   0.501  -0.708  1.00  0.00    -0.097 SA
HETATM   26  C   UNL     1      -3.285  -0.493   2.842  1.00  0.00     0.030 A 
HETATM   27  C   UNL     1      -4.723   1.181   1.688  1.00  0.00     0.020 A 
HETATM   28  C   UNL     1      -2.432  -1.594   2.668  1.00  0.00     0.090 A 
HETATM   29  N   UNL     1      -2.143  -2.057   1.414  1.00  0.00    -0.351 N 
ATOM     30  HN  UNL     1      -1.520  -2.859   1.318  1.00  0.00     0.166 HD
HETATM   31  C   UNL     1      -5.118   1.532   0.399  1.00  0.00     0.051 A 
ENDBRANCH   7  22
TORSDOF 3
