REMARK  6 active torsions:
REMARK  status: ('A' for Active; 'I' for Inactive)
REMARK    1  A    between atoms: C_1  and  C_2 
REMARK    2  A    between atoms: C_1  and  O_7 
REMARK    3  A    between atoms: C_2  and  O_8 
REMARK    4  A    between atoms: C_3  and  O_9 
REMARK    5  A    between atoms: C_4  and  O_10 
REMARK    6  A    between atoms: C_5  and  O_11 
ROOT
HETATM    1  C   UNL     1      -0.139   1.087   0.469  1.00  0.00     0.212 C 
HETATM    2  C   UNL     1       0.819  -0.116   0.141  1.00  0.00     0.213 C 
HETATM    3  C   UNL     1       0.031  -1.443   0.166  1.00  0.00     0.183 C 
HETATM    4  C   UNL     1      -1.147  -1.387  -0.839  1.00  0.00     0.173 C 
HETATM    5  C   UNL     1      -1.600   0.064  -1.091  1.00  0.00     0.206 C 
HETATM    6  O   UNL     1      -1.495   0.845   0.085  1.00  0.00    -0.349 OA
ENDROOT
BRANCH   1   7
HETATM    7  C   UNL     1       0.351   2.379  -0.222  1.00  0.00     0.235 C 
BRANCH   7   8
HETATM    8  O   UNL     1       1.598   2.779   0.283  1.00  0.00    -0.395 OA
HETATM    9  H   UNL     1       2.290   2.320  -0.260  1.00  0.00     0.209 HD
ENDBRANCH   7   8
ENDBRANCH   1   7
BRANCH   1  10
HETATM   10  O   UNL     1      -0.127   1.331   1.855  1.00  0.00    -0.362 OA
HETATM   11  H   UNL     1      -0.618   0.587   2.292  1.00  0.00     0.213 HD
ENDBRANCH   1  10
BRANCH   2  12
HETATM   12  O   UNL     1       1.929  -0.150   1.007  1.00  0.00    -0.387 OA
HETATM   13  H   UNL     1       1.619  -0.467   1.895  1.00  0.00     0.210 HD
ENDBRANCH   2  12
BRANCH   3  14
HETATM   14  O   UNL     1       0.881  -2.522  -0.135  1.00  0.00    -0.390 OA
HETATM   15  H   UNL     1       1.367  -2.752   0.700  1.00  0.00     0.210 HD
ENDBRANCH   3  14
BRANCH   4  16
HETATM   16  O   UNL     1      -0.786  -1.961  -2.071  1.00  0.00    -0.391 OA
HETATM   17  H   UNL     1      -0.930  -2.940  -1.988  1.00  0.00     0.210 HD
ENDBRANCH   4  16
TORSDOF 6
