REMARK  5 active torsions:
REMARK  status: ('A' for Active; 'I' for Inactive)
REMARK    1  A    between atoms: C_1  and  O_24 
REMARK    2  A    between atoms: C_3  and  C_4 
REMARK    3  A    between atoms: C_6  and  O_17 
REMARK    4  A    between atoms: C_7  and  O_19 
REMARK    5  A    between atoms: C_14  and  O_22 
ROOT
HETATM    1  C   UNL     1       1.710 -17.267 -11.087  1.00  0.00     0.134 A 
HETATM    2  C   UNL     1       5.210 -16.469  -8.748  1.00  0.00     0.093 A 
HETATM    3  C   UNL     1       4.945 -15.876  -9.984  1.00  0.00     0.090 A 
HETATM    4  C   UNL     1       2.897 -17.019 -10.263  1.00  0.00     0.126 A 
HETATM    5  C   UNL     1       3.057 -17.700  -8.966  1.00  0.00     0.051 A 
HETATM    6  C   UNL     1       2.063 -18.591  -8.533  1.00  0.00     0.021 A 
HETATM    7  C   UNL     1       0.918 -18.830  -9.321  1.00  0.00     0.040 A 
HETATM    8  C   UNL     1       0.710 -18.214 -10.562  1.00  0.00     0.101 A 
HETATM    9  C   UNL     1       4.302 -17.379  -8.205  1.00  0.00     0.187 A 
HETATM   10  O   UNL     1       3.828 -16.153 -10.709  1.00  0.00    -0.306 OA
HETATM   11  O   UNL     1       4.542 -17.903  -7.097  1.00  0.00    -0.287 OA
ENDROOT
BRANCH   3  12
HETATM   12  C   UNL     1       5.848 -14.907 -10.634  1.00  0.00     0.001 A 
HETATM   13  C   UNL     1       7.007 -14.460 -10.009  1.00  0.00     0.053 A 
HETATM   14  C   UNL     1       7.803 -13.548 -10.680  1.00  0.00     0.099 A 
HETATM   15  C   UNL     1       7.400 -13.078 -12.028  1.00  0.00     0.098 A 
HETATM   16  C   UNL     1       6.239 -13.553 -12.611  1.00  0.00     0.040 A 
HETATM   17  C   UNL     1       5.465 -14.462 -11.898  1.00  0.00     0.017 A 
BRANCH  14  18
HETATM   18  O   UNL     1       8.946 -13.088 -10.107  1.00  0.00    -0.358 OA
ATOM     19  HO  UNL     1       9.492 -12.462 -10.568  1.00  0.00     0.217 HD
ENDBRANCH  14  18
BRANCH  15  20
HETATM   20  O   UNL     1       8.177 -12.192 -12.698  1.00  0.00    -0.358 OA
ATOM     21  HO  UNL     1       7.919 -11.891 -13.561  1.00  0.00     0.217 HD
ENDBRANCH  15  20
ENDBRANCH   3  12
BRANCH   1  22
HETATM   22  O   UNL     1       1.563 -16.632 -12.282  1.00  0.00    -0.356 OA
ATOM     23  HO  UNL     1       2.208 -16.022 -12.620  1.00  0.00     0.218 HD
ENDBRANCH   1  22
BRANCH   8  24
HETATM   24  O   UNL     1      -0.387 -18.449 -11.321  1.00  0.00    -0.358 OA
ATOM     25  HO  UNL     1      -1.032 -19.059 -10.983  1.00  0.00     0.217 HD
ENDBRANCH   8  24
TORSDOF 5
