REMARK  9 active torsions:
REMARK  status: ('A' for Active; 'I' for Inactive)
REMARK    1  A    between atoms: N_20  and  C_22 
REMARK    2  A    between atoms: C_22  and  C_23 
REMARK    3  A    between atoms: C_23  and  O_24 
REMARK    4  A    between atoms: C_23  and  C_26 
REMARK    5  A    between atoms: C_26  and  O_27 
REMARK    6  A    between atoms: C_26  and  C_29 
REMARK    7  A    between atoms: C_29  and  C_32 
REMARK    8  A    between atoms: C_29  and  O_30 
REMARK    9  A    between atoms: C_32  and  O_33 
ROOT
HETATM    1  N   UNL     1       1.403  -5.566 -10.403  1.00  0.00    -0.292 N 
ATOM      2  HN  UNL     1       0.760  -6.297 -10.099  1.00  0.00     0.172 HD
HETATM    3  C   UNL     1       2.719  -5.617 -10.103  1.00  0.00     0.328 A 
HETATM    4  O   UNL     1       3.204  -6.590  -9.416  1.00  0.00    -0.247 OA
HETATM    5  N   UNL     1       3.567  -4.597 -10.457  1.00  0.00    -0.273 N 
ATOM      6  HN  UNL     1       4.549  -4.676 -10.193  1.00  0.00     0.173 HD
HETATM    7  C   UNL     1       3.166  -3.462 -11.155  1.00  0.00     0.280 A 
HETATM    8  O   UNL     1       3.973  -2.570 -11.355  1.00  0.00    -0.265 OA
HETATM    9  C   UNL     1       1.786  -3.447 -11.548  1.00  0.00     0.146 A 
HETATM   10  N   UNL     1       1.343  -2.400 -12.258  1.00  0.00    -0.347 N 
ATOM     11  HN  UNL     1       1.962  -1.645 -12.553  1.00  0.00     0.166 HD
HETATM   12  C   UNL     1       0.009  -2.408 -12.562  1.00  0.00     0.060 A 
HETATM   13  C   UNL     1      -0.522  -1.316 -13.306  1.00  0.00     0.039 A 
HETATM   14  C   UNL     1      -1.850  -1.226 -13.635  1.00  0.00    -0.054 A 
HETATM   15  C   UNL     1      -2.381  -0.020 -14.372  1.00  0.00     0.049 C 
HETATM   16  C   UNL     1      -2.713  -2.265 -13.283  1.00  0.00    -0.054 A 
HETATM   17  C   UNL     1      -4.182  -2.248 -13.606  1.00  0.00     0.049 C 
HETATM   18  C   UNL     1      -2.230  -3.335 -12.516  1.00  0.00     0.039 A 
HETATM   19  C   UNL     1      -0.886  -3.422 -12.168  1.00  0.00     0.063 A 
HETATM   20  N   UNL     1      -0.369  -4.476 -11.417  1.00  0.00    -0.327 N 
HETATM   21  C   UNL     1       0.975  -4.510 -11.120  1.00  0.00     0.145 A 
ENDROOT
BRANCH  20  22
HETATM   22  C   UNL     1      -1.266  -5.498 -10.857  1.00  0.00     0.165 C 
BRANCH  22  23
HETATM   23  C   UNL     1      -1.485  -6.716 -11.703  1.00  0.00     0.167 C 
BRANCH  23  24
HETATM   24  O   UNL     1      -1.622  -6.256 -13.037  1.00  0.00    -0.391 OA
ATOM     25  HO  UNL     1      -0.846  -5.778 -13.303  1.00  0.00     0.210 HD
ENDBRANCH  23  24
BRANCH  23  26
HETATM   26  C   UNL     1      -2.733  -7.485 -11.275  1.00  0.00     0.179 C 
BRANCH  26  27
HETATM   27  O   UNL     1      -3.850  -6.637 -11.334  1.00  0.00    -0.390 OA
ATOM     28  HO  UNL     1      -3.907  -6.248 -12.199  1.00  0.00     0.210 HD
ENDBRANCH  26  27
BRANCH  26  29
HETATM   29  C   UNL     1      -2.641  -8.113  -9.879  1.00  0.00     0.173 C 
BRANCH  29  30
HETATM   30  C   UNL     1      -3.858  -8.922  -9.512  1.00  0.00     0.198 C 
BRANCH  30  31
HETATM   31  O   UNL     1      -3.960 -10.071 -10.451  1.00  0.00    -0.398 OA
ATOM     32  HO  UNL     1      -4.727 -10.581 -10.220  1.00  0.00     0.209 HD
ENDBRANCH  30  31
ENDBRANCH  29  30
BRANCH  29  33
HETATM   33  O   UNL     1      -1.465  -8.906  -9.756  1.00  0.00    -0.391 OA
ATOM     34  HO  UNL     1      -1.408  -9.295  -8.891  1.00  0.00     0.210 HD
ENDBRANCH  29  33
ENDBRANCH  26  29
ENDBRANCH  23  26
ENDBRANCH  22  23
ENDBRANCH  20  22
TORSDOF 9
