MODEL 1
REMARK VINA RESULT:   -14.935      0.000      0.000
REMARK INTER + INTRA:         -17.686
REMARK INTER:                 -17.554
REMARK INTRA:                  -0.131
REMARK UNBOUND:                -0.131
REMARK  3 active torsions:
REMARK  status: ('A' for Active; 'I' for Inactive)
REMARK    1  A    between atoms: N_1  and  C_7 
REMARK       I    between atoms: N_1  and  C_4 
REMARK    2  A    between atoms: C_3  and  N_19 
REMARK    3  A    between atoms: C_3  and  C_11 
REMARK       I    between atoms: C_4  and  N_19 
ROOT
HETATM    1  N   UNL     1     -20.583   1.173  10.903  1.00  0.00    -0.374 N 
ATOM      2  HN  UNL     1     -19.712   0.667  10.737  1.00  0.00     0.161 HD
HETATM    3  C   UNL     1     -27.106   3.953  12.107  1.00  0.00     0.069 A 
HETATM    4  O   UNL     1     -26.606   2.322  10.502  1.00  0.00    -0.347 OA
HETATM    5  N   UNL     1     -21.367   2.539  14.604  1.00  0.00    -0.250 N 
HETATM    6  N   UNL     1     -21.837   3.128  15.757  1.00  0.00    -0.303 N 
ATOM      7  HN  UNL     1     -21.351   3.245  16.646  1.00  0.00     0.186 HD
HETATM    8  C   UNL     1     -26.212   2.994  11.625  1.00  0.00     0.096 A 
HETATM    9  C   UNL     1     -25.020   2.749  12.281  1.00  0.00     0.051 A 
HETATM   10  C   UNL     1     -25.749   1.276   9.995  1.00  0.00     0.201 C 
HETATM   11  C   UNL     1     -24.555   1.854   9.272  1.00  0.00     0.194 C 
HETATM   12  O   UNL     1     -23.665   0.808   8.872  1.00  0.00    -0.387 OA
HETATM   13  C   UNL     1     -22.674   0.385   9.828  1.00  0.00     0.187 C 
HETATM   14  C   UNL     1     -21.500   1.331   9.778  1.00  0.00     0.147 C 
HETATM   15  C   UNL     1     -20.807   1.651  12.153  1.00  0.00     0.103 C 
HETATM   16  N   UNL     1     -21.998   2.210  12.341  1.00  0.00    -0.327 N 
ATOM     17  HN  UNL     1     -22.649   2.371  11.572  1.00  0.00     0.169 HD
HETATM   18  C   UNL     1     -22.290   2.549  13.605  1.00  0.00     0.140 A 
HETATM   19  C   UNL     1     -20.125   2.022  14.399  1.00  0.00     0.122 C 
HETATM   20  C   UNL     1     -19.814   1.548  13.172  1.00  0.00     0.067 C 
HETATM   21  C   UNL     1     -23.425   3.192  14.125  1.00  0.00     0.037 A 
HETATM   22  C   UNL     1     -23.067   3.509  15.444  1.00  0.00     0.123 A 
HETATM   23  C   UNL     1     -24.704   3.454  13.435  1.00  0.00    -0.018 A 
HETATM   24  C   UNL     1     -25.603   4.392  13.928  1.00  0.00     0.015 A 
HETATM   25  C   UNL     1     -26.799   4.638  13.277  1.00  0.00     0.033 A 
ENDROOT
BRANCH   3  26
HETATM   26  N   UNL     1     -28.241   4.296  11.325  1.00  0.00    -0.306 N 
HETATM   27  C   UNL     1     -29.465   4.632  11.847  1.00  0.00     0.321 C 
HETATM   28  N   UNL     1     -30.381   5.018  10.925  1.00  0.00    -0.339 N 
HETATM   29  O   UNL     1     -29.737   4.501  13.035  1.00  0.00    -0.247 OA
ATOM     30  HN  UNL     1     -30.092   5.106   9.951  1.00  0.00     0.164 HD
ATOM     31  HN  UNL     1     -28.139   4.294  10.309  1.00  0.00     0.171 HD
BRANCH  28  32
HETATM   32  C   UNL     1     -31.765   5.311  11.275  1.00  0.00     0.163 C 
BRANCH  32  33
HETATM   33  C   UNL     1     -32.293   6.567  10.622  1.00  0.00    -0.034 A 
HETATM   34  C   UNL     1     -32.135   7.825  11.231  1.00  0.00    -0.052 A 
HETATM   35  C   UNL     1     -32.642   8.948  10.581  1.00  0.00     0.031 A 
HETATM   36  C   UNL     1     -31.436   7.985  12.557  1.00  0.00     0.049 C 
HETATM   37  C   UNL     1     -33.292   8.823   9.370  1.00  0.00     0.034 A 
HETATM   38 CL   UNL     1     -34.015  10.230   8.640  1.00  0.00    -0.084 Cl
HETATM   39  C   UNL     1     -33.437   7.600   8.761  1.00  0.00     0.024 A 
HETATM   40  C   UNL     1     -32.940   6.479   9.392  1.00  0.00     0.011 A 
ENDBRANCH  32  33
ENDBRANCH  28  32
ENDBRANCH   3  26
TORSDOF 3
ENDMDL
MODEL 2
REMARK VINA RESULT:   -13.764      1.102      1.293
REMARK INTER + INTRA:         -16.310
REMARK INTER:                 -16.412
REMARK INTRA:                   0.102
REMARK UNBOUND:                -0.131
REMARK  3 active torsions:
REMARK  status: ('A' for Active; 'I' for Inactive)
REMARK    1  A    between atoms: N_1  and  C_7 
REMARK       I    between atoms: N_1  and  C_4 
REMARK    2  A    between atoms: C_3  and  N_19 
REMARK    3  A    between atoms: C_3  and  C_11 
REMARK       I    between atoms: C_4  and  N_19 
ROOT
HETATM    1  N   UNL     1     -20.254   0.408   9.794  1.00  0.00    -0.374 N 
ATOM      2  HN  UNL     1     -19.456  -0.130   9.455  1.00  0.00     0.161 HD
HETATM    3  C   UNL     1     -26.280   3.440  12.289  1.00  0.00     0.069 A 
HETATM    4  O   UNL     1     -26.182   1.807  10.614  1.00  0.00    -0.347 OA
HETATM    5  N   UNL     1     -20.221   1.769  13.579  1.00  0.00    -0.250 N 
HETATM    6  N   UNL     1     -20.424   2.366  14.803  1.00  0.00    -0.303 N 
ATOM      7  HN  UNL     1     -19.765   2.453  15.577  1.00  0.00     0.186 HD
HETATM    8  C   UNL     1     -25.542   2.451  11.635  1.00  0.00     0.096 A 
HETATM    9  C   UNL     1     -24.254   2.151  12.039  1.00  0.00     0.051 A 
HETATM   10  C   UNL     1     -25.489   0.732   9.944  1.00  0.00     0.201 C 
HETATM   11  C   UNL     1     -24.441   1.268   8.996  1.00  0.00     0.194 C 
HETATM   12  O   UNL     1     -23.694   0.190   8.424  1.00  0.00    -0.387 OA
HETATM   13  C   UNL     1     -22.550  -0.282   9.160  1.00  0.00     0.187 C 
HETATM   14  C   UNL     1     -21.371   0.616   8.877  1.00  0.00     0.147 C 
HETATM   15  C   UNL     1     -20.203   0.883  11.064  1.00  0.00     0.103 C 
HETATM   16  N   UNL     1     -21.307   1.489  11.488  1.00  0.00    -0.327 N 
ATOM     17  HN  UNL     1     -22.091   1.683  10.866  1.00  0.00     0.169 HD
HETATM   18  C   UNL     1     -21.325   1.827  12.786  1.00  0.00     0.140 A 
HETATM   19  C   UNL     1     -19.069   1.204  13.128  1.00  0.00     0.122 C 
HETATM   20  C   UNL     1     -19.030   0.730  11.862  1.00  0.00     0.067 C 
HETATM   21  C   UNL     1     -22.304   2.510  13.524  1.00  0.00     0.037 A 
HETATM   22  C   UNL     1     -21.675   2.800  14.745  1.00  0.00     0.123 A 
HETATM   23  C   UNL     1     -23.684   2.831  13.107  1.00  0.00    -0.018 A 
HETATM   24  C   UNL     1     -24.425   3.800  13.771  1.00  0.00     0.015 A 
HETATM   25  C   UNL     1     -25.715   4.101  13.375  1.00  0.00     0.033 A 
ENDROOT
BRANCH   3  26
HETATM   26  N   UNL     1     -27.533   3.838  11.752  1.00  0.00    -0.306 N 
HETATM   27  C   UNL     1     -28.521   4.458  12.475  1.00  0.00     0.321 C 
HETATM   28  N   UNL     1     -29.599   4.837  11.743  1.00  0.00    -0.339 N 
HETATM   29  O   UNL     1     -28.476   4.575  13.694  1.00  0.00    -0.247 OA
ATOM     30  HN  UNL     1     -29.574   4.712  10.732  1.00  0.00     0.164 HD
ATOM     31  HN  UNL     1     -27.711   3.650  10.765  1.00  0.00     0.171 HD
BRANCH  28  32
HETATM   32  C   UNL     1     -30.790   5.415  12.350  1.00  0.00     0.163 C 
BRANCH  32  33
HETATM   33  C   UNL     1     -31.403   6.523  11.526  1.00  0.00    -0.034 A 
HETATM   34  C   UNL     1     -32.101   7.581  12.135  1.00  0.00    -0.052 A 
HETATM   35  C   UNL     1     -32.644   8.575  11.324  1.00  0.00     0.031 A 
HETATM   36  C   UNL     1     -32.275   7.664  13.631  1.00  0.00     0.049 C 
HETATM   37  C   UNL     1     -32.503   8.515   9.953  1.00  0.00     0.034 A 
HETATM   38 CL   UNL     1     -33.292   9.710   8.961  1.00  0.00    -0.084 Cl
HETATM   39  C   UNL     1     -31.809   7.493   9.351  1.00  0.00     0.024 A 
HETATM   40  C   UNL     1     -31.266   6.501  10.140  1.00  0.00     0.011 A 
ENDBRANCH  32  33
ENDBRANCH  28  32
ENDBRANCH   3  26
TORSDOF 3
ENDMDL
MODEL 3
REMARK VINA RESULT:   -13.329      1.569      2.005
REMARK INTER + INTRA:         -15.798
REMARK INTER:                 -15.858
REMARK INTRA:                   0.060
REMARK UNBOUND:                -0.131
REMARK  3 active torsions:
REMARK  status: ('A' for Active; 'I' for Inactive)
REMARK    1  A    between atoms: N_1  and  C_7 
REMARK       I    between atoms: N_1  and  C_4 
REMARK    2  A    between atoms: C_3  and  N_19 
REMARK    3  A    between atoms: C_3  and  C_11 
REMARK       I    between atoms: C_4  and  N_19 
ROOT
HETATM    1  N   UNL     1     -20.493   1.151  11.010  1.00  0.00    -0.374 N 
ATOM      2  HN  UNL     1     -19.615   0.646  10.886  1.00  0.00     0.161 HD
HETATM    3  C   UNL     1     -27.065   3.929  11.925  1.00  0.00     0.069 A 
HETATM    4  O   UNL     1     -26.506   2.258  10.383  1.00  0.00    -0.347 OA
HETATM    5  N   UNL     1     -21.403   2.614  14.645  1.00  0.00    -0.250 N 
HETATM    6  N   UNL     1     -21.913   3.232  15.765  1.00  0.00    -0.303 N 
ATOM      7  HN  UNL     1     -21.457   3.375  16.666  1.00  0.00     0.186 HD
HETATM    8  C   UNL     1     -26.151   2.962  11.498  1.00  0.00     0.096 A 
HETATM    9  C   UNL     1     -24.980   2.741  12.200  1.00  0.00     0.051 A 
HETATM   10  C   UNL     1     -25.628   1.203   9.932  1.00  0.00     0.201 C 
HETATM   11  C   UNL     1     -24.414   1.767   9.233  1.00  0.00     0.194 C 
HETATM   12  O   UNL     1     -23.506   0.715   8.891  1.00  0.00    -0.387 OA
HETATM   13  C   UNL     1     -22.545   0.324   9.889  1.00  0.00     0.187 C 
HETATM   14  C   UNL     1     -21.375   1.274   9.852  1.00  0.00     0.147 C 
HETATM   15  C   UNL     1     -20.761   1.662  12.238  1.00  0.00     0.103 C 
HETATM   16  N   UNL     1     -21.959   2.220  12.372  1.00  0.00    -0.327 N 
ATOM     17  HN  UNL     1     -22.585   2.356  11.578  1.00  0.00     0.169 HD
HETATM   18  C   UNL     1     -22.294   2.592  13.616  1.00  0.00     0.140 A 
HETATM   19  C   UNL     1     -20.154   2.098  14.494  1.00  0.00     0.122 C 
HETATM   20  C   UNL     1     -19.800   1.593  13.291  1.00  0.00     0.067 C 
HETATM   21  C   UNL     1     -23.448   3.243  14.081  1.00  0.00     0.037 A 
HETATM   22  C   UNL     1     -23.134   3.598  15.402  1.00  0.00     0.123 A 
HETATM   23  C   UNL     1     -24.705   3.479  13.344  1.00  0.00    -0.018 A 
HETATM   24  C   UNL     1     -25.624   4.426  13.781  1.00  0.00     0.015 A 
HETATM   25  C   UNL     1     -26.798   4.647  13.085  1.00  0.00     0.033 A 
ENDROOT
BRANCH   3  26
HETATM   26  N   UNL     1     -28.175   4.245  11.098  1.00  0.00    -0.306 N 
HETATM   27  C   UNL     1     -29.448   4.459  11.563  1.00  0.00     0.321 C 
HETATM   28  N   UNL     1     -30.336   4.842  10.612  1.00  0.00    -0.339 N 
HETATM   29  O   UNL     1     -29.777   4.230  12.721  1.00  0.00    -0.247 OA
ATOM     30  HN  UNL     1     -29.998   5.015   9.666  1.00  0.00     0.164 HD
ATOM     31  HN  UNL     1     -28.015   4.318  10.092  1.00  0.00     0.171 HD
BRANCH  28  32
HETATM   32  C   UNL     1     -31.755   5.014  10.894  1.00  0.00     0.163 C 
BRANCH  32  33
HETATM   33  C   UNL     1     -32.031   6.042  11.967  1.00  0.00    -0.034 A 
HETATM   34  C   UNL     1     -32.894   5.758  13.040  1.00  0.00    -0.052 A 
HETATM   35  C   UNL     1     -33.110   6.745  14.000  1.00  0.00     0.031 A 
HETATM   36  C   UNL     1     -33.585   4.425  13.175  1.00  0.00     0.049 C 
HETATM   37  C   UNL     1     -32.493   7.974  13.892  1.00  0.00     0.034 A 
HETATM   38 CL   UNL     1     -32.873   9.224  15.044  1.00  0.00    -0.084 Cl
HETATM   39  C   UNL     1     -31.637   8.255  12.855  1.00  0.00     0.024 A 
HETATM   40  C   UNL     1     -31.413   7.288  11.896  1.00  0.00     0.011 A 
ENDBRANCH  32  33
ENDBRANCH  28  32
ENDBRANCH   3  26
TORSDOF 3
ENDMDL
MODEL 4
REMARK VINA RESULT:   -12.999      1.853      2.448
REMARK INTER + INTRA:         -15.410
REMARK INTER:                 -15.606
REMARK INTRA:                   0.196
REMARK UNBOUND:                -0.131
REMARK  3 active torsions:
REMARK  status: ('A' for Active; 'I' for Inactive)
REMARK    1  A    between atoms: N_1  and  C_7 
REMARK       I    between atoms: N_1  and  C_4 
REMARK    2  A    between atoms: C_3  and  N_19 
REMARK    3  A    between atoms: C_3  and  C_11 
REMARK       I    between atoms: C_4  and  N_19 
ROOT
HETATM    1  N   UNL     1     -20.026   0.443   9.978  1.00  0.00    -0.374 N 
ATOM      2  HN  UNL     1     -19.193  -0.058   9.668  1.00  0.00     0.161 HD
HETATM    3  C   UNL     1     -26.267   3.199  12.257  1.00  0.00     0.069 A 
HETATM    4  O   UNL     1     -26.036   1.570  10.590  1.00  0.00    -0.347 OA
HETATM    5  N   UNL     1     -20.185   1.807  13.759  1.00  0.00    -0.250 N 
HETATM    6  N   UNL     1     -20.458   2.395  14.974  1.00  0.00    -0.303 N 
ATOM      7  HN  UNL     1     -19.831   2.514  15.769  1.00  0.00     0.186 HD
HETATM    8  C   UNL     1     -25.462   2.243  11.631  1.00  0.00     0.096 A 
HETATM    9  C   UNL     1     -24.177   2.003  12.079  1.00  0.00     0.051 A 
HETATM   10  C   UNL     1     -25.272   0.527   9.946  1.00  0.00     0.201 C 
HETATM   11  C   UNL     1     -24.218   1.109   9.035  1.00  0.00     0.194 C 
HETATM   12  O   UNL     1     -23.403   0.067   8.491  1.00  0.00    -0.387 OA
HETATM   13  C   UNL     1     -22.265  -0.352   9.267  1.00  0.00     0.187 C 
HETATM   14  C   UNL     1     -21.119   0.598   9.022  1.00  0.00     0.147 C 
HETATM   15  C   UNL     1     -20.040   0.921  11.248  1.00  0.00     0.103 C 
HETATM   16  N   UNL     1     -21.185   1.476  11.632  1.00  0.00    -0.327 N 
ATOM     17  HN  UNL     1     -21.955   1.634  10.983  1.00  0.00     0.169 HD
HETATM   18  C   UNL     1     -21.263   1.814  12.928  1.00  0.00     0.140 A 
HETATM   19  C   UNL     1     -18.994   1.295  13.349  1.00  0.00     0.122 C 
HETATM   20  C   UNL     1     -18.890   0.823  12.086  1.00  0.00     0.067 C 
HETATM   21  C   UNL     1     -22.297   2.452  13.631  1.00  0.00     0.037 A 
HETATM   22  C   UNL     1     -21.725   2.772  14.871  1.00  0.00     0.123 A 
HETATM   23  C   UNL     1     -23.675   2.709  13.165  1.00  0.00    -0.018 A 
HETATM   24  C   UNL     1     -24.482   3.644  13.801  1.00  0.00     0.015 A 
HETATM   25  C   UNL     1     -25.771   3.885  13.359  1.00  0.00     0.033 A 
ENDROOT
BRANCH   3  26
HETATM   26  N   UNL     1     -27.518   3.538  11.676  1.00  0.00    -0.306 N 
HETATM   27  C   UNL     1     -28.162   4.733  11.875  1.00  0.00     0.321 C 
HETATM   28  N   UNL     1     -29.297   4.886  11.149  1.00  0.00    -0.339 N 
HETATM   29  O   UNL     1     -27.796   5.552  12.709  1.00  0.00    -0.247 OA
ATOM     30  HN  UNL     1     -29.548   4.166  10.471  1.00  0.00     0.164 HD
ATOM     31  HN  UNL     1     -27.966   2.849  11.071  1.00  0.00     0.171 HD
BRANCH  28  32
HETATM   32  C   UNL     1     -30.172   6.040  11.302  1.00  0.00     0.163 C 
BRANCH  32  33
HETATM   33  C   UNL     1     -31.581   5.674  11.708  1.00  0.00    -0.034 A 
HETATM   34  C   UNL     1     -32.646   5.763  10.795  1.00  0.00    -0.052 A 
HETATM   35  C   UNL     1     -33.924   5.411  11.226  1.00  0.00     0.031 A 
HETATM   36  C   UNL     1     -32.442   6.226   9.375  1.00  0.00     0.049 C 
HETATM   37  C   UNL     1     -34.134   4.991  12.523  1.00  0.00     0.034 A 
HETATM   38 CL   UNL     1     -35.759   4.669  13.062  1.00  0.00    -0.084 Cl
HETATM   39  C   UNL     1     -33.097   4.886  13.417  1.00  0.00     0.024 A 
HETATM   40  C   UNL     1     -31.826   5.232  13.005  1.00  0.00     0.011 A 
ENDBRANCH  32  33
ENDBRANCH  28  32
ENDBRANCH   3  26
TORSDOF 3
ENDMDL
MODEL 5
REMARK VINA RESULT:   -12.461      1.913      2.874
REMARK INTER + INTRA:         -14.778
REMARK INTER:                 -14.813
REMARK INTRA:                   0.035
REMARK UNBOUND:                -0.131
REMARK  3 active torsions:
REMARK  status: ('A' for Active; 'I' for Inactive)
REMARK    1  A    between atoms: N_1  and  C_7 
REMARK       I    between atoms: N_1  and  C_4 
REMARK    2  A    between atoms: C_3  and  N_19 
REMARK    3  A    between atoms: C_3  and  C_11 
REMARK       I    between atoms: C_4  and  N_19 
ROOT
HETATM    1  N   UNL     1     -19.284  -0.156   9.226  1.00  0.00    -0.374 N 
ATOM      2  HN  UNL     1     -18.552  -0.713   8.783  1.00  0.00     0.161 HD
HETATM    3  C   UNL     1     -24.860   3.014  12.481  1.00  0.00     0.069 A 
HETATM    4  O   UNL     1     -25.018   1.436  10.758  1.00  0.00    -0.347 OA
HETATM    5  N   UNL     1     -18.768   1.071  13.022  1.00  0.00    -0.250 N 
HETATM    6  N   UNL     1     -18.807   1.632  14.278  1.00  0.00    -0.303 N 
ATOM      7  HN  UNL     1     -18.062   1.668  14.974  1.00  0.00     0.186 HD
HETATM    8  C   UNL     1     -24.241   2.020  11.719  1.00  0.00     0.096 A 
HETATM    9  C   UNL     1     -22.930   1.658  11.963  1.00  0.00     0.051 A 
HETATM   10  C   UNL     1     -24.450   0.359   9.981  1.00  0.00     0.201 C 
HETATM   11  C   UNL     1     -23.495   0.888   8.937  1.00  0.00     0.194 C 
HETATM   12  O   UNL     1     -22.862  -0.197   8.251  1.00  0.00    -0.387 OA
HETATM   13  C   UNL     1     -21.663  -0.737   8.837  1.00  0.00     0.187 C 
HETATM   14  C   UNL     1     -20.488   0.125   8.449  1.00  0.00     0.147 C 
HETATM   15  C   UNL     1     -19.070   0.272  10.496  1.00  0.00     0.103 C 
HETATM   16  N   UNL     1     -20.093   0.904  11.061  1.00  0.00    -0.327 N 
ATOM     17  HN  UNL     1     -20.934   1.149  10.538  1.00  0.00     0.169 HD
HETATM   18  C   UNL     1     -19.951   1.198  12.362  1.00  0.00     0.140 A 
HETATM   19  C   UNL     1     -17.698   0.479  12.425  1.00  0.00     0.122 C 
HETATM   20  C   UNL     1     -17.822   0.047  11.150  1.00  0.00     0.067 C 
HETATM   21  C   UNL     1     -20.811   1.892  13.227  1.00  0.00     0.037 A 
HETATM   22  C   UNL     1     -20.038   2.115  14.376  1.00  0.00     0.123 A 
HETATM   23  C   UNL     1     -22.215   2.279  12.979  1.00  0.00    -0.018 A 
HETATM   24  C   UNL     1     -22.836   3.252  13.752  1.00  0.00     0.015 A 
HETATM   25  C   UNL     1     -24.149   3.615  13.515  1.00  0.00     0.033 A 
ENDROOT
BRANCH   3  26
HETATM   26  N   UNL     1     -26.148   3.477  12.103  1.00  0.00    -0.306 N 
HETATM   27  C   UNL     1     -27.075   3.979  12.980  1.00  0.00     0.321 C 
HETATM   28  N   UNL     1     -28.203   4.453  12.393  1.00  0.00    -0.339 N 
HETATM   29  O   UNL     1     -26.939   3.918  14.196  1.00  0.00    -0.247 OA
ATOM     30  HN  UNL     1     -28.255   4.476  11.375  1.00  0.00     0.164 HD
ATOM     31  HN  UNL     1     -26.399   3.433  11.115  1.00  0.00     0.171 HD
BRANCH  28  32
HETATM   32  C   UNL     1     -29.343   4.929  13.165  1.00  0.00     0.163 C 
BRANCH  32  33
HETATM   33  C   UNL     1     -30.514   5.348  12.306  1.00  0.00    -0.034 A 
HETATM   34  C   UNL     1     -31.825   4.947  12.619  1.00  0.00    -0.052 A 
HETATM   35  C   UNL     1     -32.864   5.364  11.791  1.00  0.00     0.031 A 
HETATM   36  C   UNL     1     -32.129   4.084  13.818  1.00  0.00     0.049 C 
HETATM   37  C   UNL     1     -32.607   6.149  10.685  1.00  0.00     0.034 A 
HETATM   38 CL   UNL     1     -33.914   6.557   9.607  1.00  0.00    -0.084 Cl
HETATM   39  C   UNL     1     -31.332   6.557  10.381  1.00  0.00     0.024 A 
HETATM   40  C   UNL     1     -30.291   6.152  11.191  1.00  0.00     0.011 A 
ENDBRANCH  32  33
ENDBRANCH  28  32
ENDBRANCH   3  26
TORSDOF 3
ENDMDL
MODEL 6
REMARK VINA RESULT:   -12.113      1.825      3.597
REMARK INTER + INTRA:         -14.369
REMARK INTER:                 -14.387
REMARK INTRA:                   0.018
REMARK UNBOUND:                -0.131
REMARK  3 active torsions:
REMARK  status: ('A' for Active; 'I' for Inactive)
REMARK    1  A    between atoms: N_1  and  C_7 
REMARK       I    between atoms: N_1  and  C_4 
REMARK    2  A    between atoms: C_3  and  N_19 
REMARK    3  A    between atoms: C_3  and  C_11 
REMARK       I    between atoms: C_4  and  N_19 
ROOT
HETATM    1  N   UNL     1     -20.468   1.310  14.518  1.00  0.00    -0.374 N 
ATOM      2  HN  UNL     1     -19.554   1.166  14.949  1.00  0.00     0.161 HD
HETATM    3  C   UNL     1     -26.749   3.182  11.555  1.00  0.00     0.069 A 
HETATM    4  O   UNL     1     -25.885   4.046  13.553  1.00  0.00    -0.347 OA
HETATM    5  N   UNL     1     -20.810   0.982  10.523  1.00  0.00    -0.250 N 
HETATM    6  N   UNL     1     -21.184   0.888   9.201  1.00  0.00    -0.303 N 
ATOM      7  HN  UNL     1     -20.625   0.566   8.411  1.00  0.00     0.186 HD
HETATM    8  C   UNL     1     -25.648   3.358  12.397  1.00  0.00     0.096 A 
HETATM    9  C   UNL     1     -24.404   2.873  12.039  1.00  0.00     0.051 A 
HETATM   10  C   UNL     1     -24.770   4.312  14.432  1.00  0.00     0.201 C 
HETATM   11  C   UNL     1     -24.382   3.074  15.206  1.00  0.00     0.194 C 
HETATM   12  O   UNL     1     -23.211   3.327  15.988  1.00  0.00    -0.387 OA
HETATM   13  C   UNL     1     -21.936   3.127  15.350  1.00  0.00     0.187 C 
HETATM   14  C   UNL     1     -21.583   1.661  15.392  1.00  0.00     0.147 C 
HETATM   15  C   UNL     1     -20.562   1.162  13.172  1.00  0.00     0.103 C 
HETATM   16  N   UNL     1     -21.747   1.460  12.650  1.00  0.00    -0.327 N 
ATOM     17  HN  UNL     1     -22.557   1.673  13.232  1.00  0.00     0.169 HD
HETATM   18  C   UNL     1     -21.810   1.464  11.310  1.00  0.00     0.140 A 
HETATM   19  C   UNL     1     -19.615   0.618  11.061  1.00  0.00     0.122 C 
HETATM   20  C   UNL     1     -19.450   0.712  12.400  1.00  0.00     0.067 C 
HETATM   21  C   UNL     1     -22.905   1.687  10.462  1.00  0.00     0.037 A 
HETATM   22  C   UNL     1     -22.439   1.315   9.192  1.00  0.00     0.123 A 
HETATM   23  C   UNL     1     -24.237   2.209  10.831  1.00  0.00    -0.018 A 
HETATM   24  C   UNL     1     -25.327   2.053   9.983  1.00  0.00     0.015 A 
HETATM   25  C   UNL     1     -26.573   2.540  10.334  1.00  0.00     0.033 A 
ENDROOT
BRANCH   3  26
HETATM   26  N   UNL     1     -28.041   3.545  12.020  1.00  0.00    -0.306 N 
HETATM   27  C   UNL     1     -28.481   4.839  12.143  1.00  0.00     0.321 C 
HETATM   28  N   UNL     1     -29.780   4.957  12.514  1.00  0.00    -0.339 N 
HETATM   29  O   UNL     1     -27.739   5.806  12.021  1.00  0.00    -0.247 OA
ATOM     30  HN  UNL     1     -30.345   4.112  12.599  1.00  0.00     0.164 HD
ATOM     31  HN  UNL     1     -28.683   2.795  12.279  1.00  0.00     0.171 HD
BRANCH  28  32
HETATM   32  C   UNL     1     -30.398   6.245  12.797  1.00  0.00     0.163 C 
BRANCH  32  33
HETATM   33  C   UNL     1     -31.279   6.745  11.676  1.00  0.00    -0.034 A 
HETATM   34  C   UNL     1     -32.205   7.781  11.886  1.00  0.00    -0.052 A 
HETATM   35  C   UNL     1     -32.991   8.201  10.814  1.00  0.00     0.031 A 
HETATM   36  C   UNL     1     -32.368   8.443  13.231  1.00  0.00     0.049 C 
HETATM   37  C   UNL     1     -32.863   7.604   9.576  1.00  0.00     0.034 A 
HETATM   38 CL   UNL     1     -33.939   8.072   8.288  1.00  0.00    -0.084 Cl
HETATM   39  C   UNL     1     -31.950   6.601   9.358  1.00  0.00     0.024 A 
HETATM   40  C   UNL     1     -31.165   6.174  10.410  1.00  0.00     0.011 A 
ENDBRANCH  32  33
ENDBRANCH  28  32
ENDBRANCH   3  26
TORSDOF 3
ENDMDL
