REMARK  4 active torsions:
REMARK  status: ('A' for Active; 'I' for Inactive)
REMARK    1  A    between atoms: C_5  and  CA_19 
REMARK    2  A    between atoms: C_17  and  C_18 
REMARK       I    between atoms: C_18  and  N_23 
REMARK    3  A    between atoms: CA_19  and  C_20 
REMARK    4  A    between atoms: CA_19  and  N_23 
ROOT
HETATM    1  C   UNL     1      41.582 -29.372  12.301  1.00  0.00     0.194 A 
HETATM    2  C   UNL     1      37.968 -27.654  13.689  1.00  0.00     0.018 A 
HETATM    3  C   UNL     1      38.820 -28.163  14.660  1.00  0.00     0.002 A 
HETATM    4  C   UNL     1      40.023 -28.754  14.309  1.00  0.00     0.016 A 
HETATM    5  C   UNL     1      40.138 -28.493  10.664  1.00  0.00    -0.010 A 
HETATM    6  C   UNL     1      39.707 -28.165   9.377  1.00  0.00     0.013 A 
HETATM    7  C   UNL     1      40.517 -28.496   8.300  1.00  0.00     0.001 A 
HETATM    8  C   UNL     1      40.369 -28.812  12.972  1.00  0.00     0.027 A 
HETATM    9  C   UNL     1      41.738 -29.124   8.494  1.00  0.00     0.001 A 
HETATM   10  C   UNL     1      42.177 -29.447   9.772  1.00  0.00     0.016 A 
HETATM   11  C   UNL     1      41.368 -29.127  10.843  1.00  0.00     0.026 A 
HETATM   12  C   UNL     1      39.513 -28.290  11.978  1.00  0.00     0.005 A 
HETATM   13  C   UNL     1      38.307 -27.704  12.335  1.00  0.00     0.044 A 
HETATM   14  O   UNL     1      42.531 -29.914  12.831  1.00  0.00    -0.287 OA
ENDROOT
BRANCH  13  15
HETATM   15  C   UNL     1      37.392 -27.154  11.286  1.00  0.00     0.253 C 
HETATM   16  O   UNL     1      36.570 -27.882  10.722  1.00  0.00    -0.268 OA
HETATM   17  N   UNL     1      37.553 -25.839  10.996  1.00  0.00    -0.338 N 
ATOM     18  HN  UNL     1      38.300 -25.340  11.480  1.00  0.00     0.164 HD
BRANCH  17  19
HETATM   19  CA  UNL     1      36.743 -25.081  10.047  1.00  0.00     0.219 C 
BRANCH  19  20
HETATM   20  C   UNL     1      37.431 -24.807   8.722  1.00  0.00    -0.025 A 
HETATM   21  C   UNL     1      36.677 -24.465   7.614  1.00  0.00     0.010 A 
HETATM   22  C   UNL     1      37.283 -24.224   6.392  1.00  0.00     0.001 A 
HETATM   23  C   UNL     1      38.650 -24.339   6.272  1.00  0.00     0.000 A 
HETATM   24  C   UNL     1      39.407 -24.680   7.366  1.00  0.00     0.001 A 
HETATM   25  C   UNL     1      38.805 -24.908   8.591  1.00  0.00     0.010 A 
ENDBRANCH  19  20
BRANCH  19  26
HETATM   26  C   UNL     1      36.368 -23.731  10.708  1.00  0.00     0.201 C 
HETATM   27  OXT UNL     1      35.354 -23.152  10.293  1.00  0.00    -0.646 OA
HETATM   28  O   UNL     1      37.134 -23.296  11.610  1.00  0.00    -0.646 OA
ENDBRANCH  19  26
ENDBRANCH  17  19
ENDBRANCH  13  15
TORSDOF 4
