MODEL 1
REMARK VINA RESULT:    -5.908      0.000      0.000
REMARK INTER + INTRA:          -7.456
REMARK INTER:                  -6.944
REMARK INTRA:                  -0.511
REMARK UNBOUND:                -0.511
REMARK  3 active torsions:
REMARK  status: ('A' for Active; 'I' for Inactive)
REMARK    1  A    between atoms: N_8  and  C_9 
REMARK    2  A    between atoms: C_9  and  C_10 
REMARK       I    between atoms: C_10  and  N_20 
REMARK    3  A    between atoms: C_16  and  N_20 
ROOT
HETATM    1  C   UNL     1     -10.379  -3.922 -12.767  1.00  0.00     0.171 C 
ENDROOT
BRANCH   1   2
HETATM    2  N   UNL     1     -11.424  -3.093 -13.175  1.00  0.00    -0.326 N 
HETATM    3  C   UNL     1     -11.592  -2.532 -14.455  1.00  0.00     0.098 A 
HETATM    4  C   UNL     1     -12.752  -1.799 -14.491  1.00  0.00     0.037 A 
HETATM    5  C   UNL     1     -13.322  -1.917 -13.215  1.00  0.00     0.061 A 
HETATM    6  C   UNL     1     -12.499  -2.697 -12.406  1.00  0.00     0.055 A 
HETATM    7  C   UNL     1     -14.556  -1.347 -12.778  1.00  0.00     0.259 A 
HETATM    8  C   UNL     1     -12.881  -2.938 -11.069  1.00  0.00     0.048 A 
HETATM    9  C   UNL     1     -14.049  -2.389 -10.615  1.00  0.00     0.096 A 
HETATM   10  N   UNL     1     -14.872  -1.603 -11.406  1.00  0.00    -0.328 N 
HETATM   11  C   UNL     1     -16.156  -1.021 -10.873  1.00  0.00     0.159 C 
HETATM   12  O   UNL     1     -15.270  -0.626 -13.473  1.00  0.00    -0.267 OA
ENDBRANCH   1   2
BRANCH   1  13
HETATM   13  C   UNL     1     -10.161  -5.182 -13.539  1.00  0.00     0.261 C 
HETATM   14  N   UNL     1      -8.963  -5.321 -14.213  1.00  0.00    -0.321 N 
ATOM     15  HN  UNL     1      -8.303  -4.549 -14.117  1.00  0.00     0.169 HD
HETATM   16  O   UNL     1     -11.003  -6.034 -13.544  1.00  0.00    -0.267 OA
BRANCH  14  17
HETATM   17  C   UNL     1      -8.554  -6.372 -14.997  1.00  0.00     0.059 A 
HETATM   18  C   UNL     1      -7.808  -7.374 -14.403  1.00  0.00     0.076 A 
HETATM   19  C   UNL     1      -7.332  -8.451 -15.141  1.00  0.00     0.113 A 
HETATM   20 CL   UNL     1      -7.358  -7.373 -12.748  1.00  0.00    -0.080 Cl
HETATM   21  N   UNL     1      -7.567  -8.592 -16.474  1.00  0.00    -0.373 N 
HETATM   22  C   UNL     1      -8.317  -7.591 -17.109  1.00  0.00     0.090 A 
ATOM     23  HN  UNL     1      -7.212  -9.396 -16.992  1.00  0.00     0.164 HD
HETATM   24  C   UNL     1      -8.812  -6.492 -16.416  1.00  0.00     0.048 A 
ENDBRANCH  14  17
ENDBRANCH   1  13
TORSDOF 3
ENDMDL
MODEL 2
REMARK VINA RESULT:    -5.885      3.025      8.143
REMARK INTER + INTRA:          -7.428
REMARK INTER:                  -6.777
REMARK INTRA:                  -0.651
REMARK UNBOUND:                -0.511
REMARK  3 active torsions:
REMARK  status: ('A' for Active; 'I' for Inactive)
REMARK    1  A    between atoms: N_8  and  C_9 
REMARK    2  A    between atoms: C_9  and  C_10 
REMARK       I    between atoms: C_10  and  N_20 
REMARK    3  A    between atoms: C_16  and  N_20 
ROOT
HETATM    1  C   UNL     1      -7.227  -6.719 -13.821  1.00  0.00     0.171 C 
ENDROOT
BRANCH   1   2
HETATM    2  N   UNL     1      -7.229  -7.619 -14.886  1.00  0.00    -0.326 N 
HETATM    3  C   UNL     1      -7.112  -9.020 -14.794  1.00  0.00     0.098 A 
HETATM    4  C   UNL     1      -7.186  -9.574 -16.047  1.00  0.00     0.037 A 
HETATM    5  C   UNL     1      -7.366  -8.501 -16.933  1.00  0.00     0.061 A 
HETATM    6  C   UNL     1      -7.376  -7.304 -16.220  1.00  0.00     0.055 A 
HETATM    7  C   UNL     1      -7.526  -8.584 -18.349  1.00  0.00     0.259 A 
HETATM    8  C   UNL     1      -7.537  -6.090 -16.922  1.00  0.00     0.048 A 
HETATM    9  C   UNL     1      -7.673  -6.136 -18.283  1.00  0.00     0.096 A 
HETATM   10  N   UNL     1      -7.655  -7.319 -19.005  1.00  0.00    -0.328 N 
HETATM   11  C   UNL     1      -7.815  -7.331 -20.504  1.00  0.00     0.159 C 
HETATM   12  O   UNL     1      -7.481  -9.633 -18.990  1.00  0.00    -0.267 OA
ENDBRANCH   1   2
BRANCH   1  13
HETATM   13  C   UNL     1      -8.548  -6.356 -13.225  1.00  0.00     0.261 C 
HETATM   14  N   UNL     1      -9.291  -5.381 -13.861  1.00  0.00    -0.321 N 
ATOM     15  HN  UNL     1      -8.884  -4.990 -14.710  1.00  0.00     0.169 HD
HETATM   16  O   UNL     1      -8.933  -6.918 -12.240  1.00  0.00    -0.267 OA
BRANCH  14  17
HETATM   17  C   UNL     1     -10.513  -4.875 -13.487  1.00  0.00     0.059 A 
HETATM   18  C   UNL     1     -11.649  -5.507 -13.958  1.00  0.00     0.076 A 
HETATM   19  C   UNL     1     -12.918  -5.030 -13.648  1.00  0.00     0.113 A 
HETATM   20 CL   UNL     1     -11.621  -6.879 -14.987  1.00  0.00    -0.080 Cl
HETATM   21  N   UNL     1     -13.124  -3.933 -12.871  1.00  0.00    -0.373 N 
HETATM   22  C   UNL     1     -11.991  -3.265 -12.381  1.00  0.00     0.090 A 
ATOM     23  HN  UNL     1     -14.066  -3.607 -12.653  1.00  0.00     0.164 HD
HETATM   24  C   UNL     1     -10.702  -3.699 -12.666  1.00  0.00     0.048 A 
ENDBRANCH  14  17
ENDBRANCH   1  13
TORSDOF 3
ENDMDL
MODEL 3
REMARK VINA RESULT:    -5.851      4.081      6.252
REMARK INTER + INTRA:          -7.388
REMARK INTER:                  -6.897
REMARK INTRA:                  -0.491
REMARK UNBOUND:                -0.511
REMARK  3 active torsions:
REMARK  status: ('A' for Active; 'I' for Inactive)
REMARK    1  A    between atoms: N_8  and  C_9 
REMARK    2  A    between atoms: C_9  and  C_10 
REMARK       I    between atoms: C_10  and  N_20 
REMARK    3  A    between atoms: C_16  and  N_20 
ROOT
HETATM    1  C   UNL     1      -7.203  -5.860 -16.683  1.00  0.00     0.171 C 
ENDROOT
BRANCH   1   2
HETATM    2  N   UNL     1      -7.615  -6.323 -15.434  1.00  0.00    -0.326 N 
HETATM    3  C   UNL     1      -6.861  -7.116 -14.548  1.00  0.00     0.098 A 
HETATM    4  C   UNL     1      -7.583  -7.348 -13.404  1.00  0.00     0.037 A 
HETATM    5  C   UNL     1      -8.803  -6.676 -13.576  1.00  0.00     0.061 A 
HETATM    6  C   UNL     1      -8.826  -6.063 -14.827  1.00  0.00     0.055 A 
HETATM    7  C   UNL     1      -9.875  -6.604 -12.636  1.00  0.00     0.259 A 
HETATM    8  C   UNL     1      -9.972  -5.335 -15.212  1.00  0.00     0.048 A 
HETATM    9  C   UNL     1     -11.024  -5.264 -14.339  1.00  0.00     0.096 A 
HETATM   10  N   UNL     1     -11.018  -5.878 -13.097  1.00  0.00    -0.328 N 
HETATM   11  C   UNL     1     -12.193  -5.771 -12.159  1.00  0.00     0.159 C 
HETATM   12  O   UNL     1      -9.879  -7.174 -11.546  1.00  0.00    -0.267 OA
ENDBRANCH   1   2
BRANCH   1  13
HETATM   13  C   UNL     1      -7.559  -6.686 -17.875  1.00  0.00     0.261 C 
HETATM   14  N   UNL     1      -6.526  -7.269 -18.582  1.00  0.00    -0.321 N 
ATOM     15  HN  UNL     1      -5.586  -7.104 -18.221  1.00  0.00     0.169 HD
HETATM   16  O   UNL     1      -8.709  -6.835 -18.176  1.00  0.00    -0.267 OA
BRANCH  14  17
HETATM   17  C   UNL     1      -6.611  -8.045 -19.713  1.00  0.00     0.059 A 
HETATM   18  C   UNL     1      -6.673  -7.405 -20.937  1.00  0.00     0.076 A 
HETATM   19  C   UNL     1      -6.793  -8.124 -22.121  1.00  0.00     0.113 A 
HETATM   20 CL   UNL     1      -6.659  -5.699 -21.123  1.00  0.00    -0.080 Cl
HETATM   21  N   UNL     1      -6.853  -9.482 -22.154  1.00  0.00    -0.373 N 
HETATM   22  C   UNL     1      -6.798 -10.164 -20.928  1.00  0.00     0.090 A 
ATOM     23  HN  UNL     1      -6.935  -9.987 -23.037  1.00  0.00     0.164 HD
HETATM   24  C   UNL     1      -6.682  -9.490 -19.718  1.00  0.00     0.048 A 
ENDBRANCH  14  17
ENDBRANCH   1  13
TORSDOF 3
ENDMDL
MODEL 4
REMARK VINA RESULT:    -5.761      2.666      7.459
REMARK INTER + INTRA:          -7.283
REMARK INTER:                  -6.647
REMARK INTRA:                  -0.636
REMARK UNBOUND:                -0.511
REMARK  3 active torsions:
REMARK  status: ('A' for Active; 'I' for Inactive)
REMARK    1  A    between atoms: N_8  and  C_9 
REMARK    2  A    between atoms: C_9  and  C_10 
REMARK       I    between atoms: C_10  and  N_20 
REMARK    3  A    between atoms: C_16  and  N_20 
ROOT
HETATM    1  C   UNL     1     -10.238  -7.055 -12.426  1.00  0.00     0.171 C 
ENDROOT
BRANCH   1   2
HETATM    2  N   UNL     1      -9.194  -6.799 -13.315  1.00  0.00    -0.326 N 
HETATM    3  C   UNL     1      -7.820  -6.781 -13.005  1.00  0.00     0.098 A 
HETATM    4  C   UNL     1      -7.092  -6.526 -14.140  1.00  0.00     0.037 A 
HETATM    5  C   UNL     1      -8.029  -6.396 -15.177  1.00  0.00     0.061 A 
HETATM    6  C   UNL     1      -9.316  -6.548 -14.666  1.00  0.00     0.055 A 
HETATM    7  C   UNL     1      -7.745  -6.152 -16.554  1.00  0.00     0.259 A 
HETATM    8  C   UNL     1     -10.418  -6.445 -15.542  1.00  0.00     0.048 A 
HETATM    9  C   UNL     1     -10.178  -6.193 -16.865  1.00  0.00     0.096 A 
HETATM   10  N   UNL     1      -8.904  -6.030 -17.384  1.00  0.00    -0.328 N 
HETATM   11  C   UNL     1      -8.678  -5.760 -18.850  1.00  0.00     0.159 C 
HETATM   12  O   UNL     1      -6.615  -5.979 -17.008  1.00  0.00    -0.267 OA
ENDBRANCH   1   2
BRANCH   1  13
HETATM   13  C   UNL     1     -10.943  -5.878 -11.837  1.00  0.00     0.261 C 
HETATM   14  N   UNL     1     -11.971  -5.316 -12.567  1.00  0.00    -0.321 N 
ATOM     15  HN  UNL     1     -12.185  -5.764 -13.458  1.00  0.00     0.169 HD
HETATM   16  O   UNL     1     -10.620  -5.466 -10.760  1.00  0.00    -0.267 OA
BRANCH  14  17
HETATM   17  C   UNL     1     -12.740  -4.225 -12.239  1.00  0.00     0.059 A 
HETATM   18  C   UNL     1     -12.515  -3.043 -12.921  1.00  0.00     0.076 A 
HETATM   19  C   UNL     1     -13.233  -1.891 -12.619  1.00  0.00     0.113 A 
HETATM   20 CL   UNL     1     -11.327  -2.859 -14.144  1.00  0.00    -0.080 Cl
HETATM   21  N   UNL     1     -14.190  -1.851 -11.654  1.00  0.00    -0.373 N 
HETATM   22  C   UNL     1     -14.440  -3.033 -10.939  1.00  0.00     0.090 A 
ATOM     23  HN  UNL     1     -14.707  -0.994 -11.456  1.00  0.00     0.164 HD
HETATM   24  C   UNL     1     -13.747  -4.209 -11.200  1.00  0.00     0.048 A 
ENDBRANCH  14  17
ENDBRANCH   1  13
TORSDOF 3
ENDMDL
MODEL 5
REMARK VINA RESULT:    -5.748      2.382      7.973
REMARK INTER + INTRA:          -7.268
REMARK INTER:                  -6.792
REMARK INTRA:                  -0.476
REMARK UNBOUND:                -0.511
REMARK  3 active torsions:
REMARK  status: ('A' for Active; 'I' for Inactive)
REMARK    1  A    between atoms: N_8  and  C_9 
REMARK    2  A    between atoms: C_9  and  C_10 
REMARK       I    between atoms: C_10  and  N_20 
REMARK    3  A    between atoms: C_16  and  N_20 
ROOT
HETATM    1  C   UNL     1     -11.329  -4.010 -15.078  1.00  0.00     0.171 C 
ENDROOT
BRANCH   1   2
HETATM    2  N   UNL     1     -10.445  -4.670 -14.226  1.00  0.00    -0.326 N 
HETATM    3  C   UNL     1     -10.254  -4.408 -12.856  1.00  0.00     0.098 A 
HETATM    4  C   UNL     1      -9.327  -5.279 -12.341  1.00  0.00     0.037 A 
HETATM    5  C   UNL     1      -8.944  -6.107 -13.407  1.00  0.00     0.061 A 
HETATM    6  C   UNL     1      -9.619  -5.722 -14.563  1.00  0.00     0.055 A 
HETATM    7  C   UNL     1      -8.016  -7.191 -13.352  1.00  0.00     0.259 A 
HETATM    8  C   UNL     1      -9.374  -6.422 -15.765  1.00  0.00     0.048 A 
HETATM    9  C   UNL     1      -8.475  -7.454 -15.747  1.00  0.00     0.096 A 
HETATM   10  N   UNL     1      -7.790  -7.840 -14.606  1.00  0.00    -0.328 N 
HETATM   11  C   UNL     1      -6.812  -8.988 -14.624  1.00  0.00     0.159 C 
HETATM   12  O   UNL     1      -7.389  -7.514 -12.345  1.00  0.00    -0.267 OA
ENDBRANCH   1   2
BRANCH   1  13
HETATM   13  C   UNL     1     -12.104  -2.867 -14.512  1.00  0.00     0.261 C 
HETATM   14  N   UNL     1     -13.328  -3.146 -13.934  1.00  0.00    -0.321 N 
ATOM     15  HN  UNL     1     -13.604  -4.128 -13.923  1.00  0.00     0.169 HD
HETATM   16  O   UNL     1     -11.653  -1.758 -14.555  1.00  0.00    -0.267 OA
BRANCH  14  17
HETATM   17  C   UNL     1     -14.217  -2.261 -13.374  1.00  0.00     0.059 A 
HETATM   18  C   UNL     1     -14.115  -2.009 -12.018  1.00  0.00     0.076 A 
HETATM   19  C   UNL     1     -15.002  -1.151 -11.377  1.00  0.00     0.113 A 
HETATM   20 CL   UNL     1     -12.950  -2.744 -10.997  1.00  0.00    -0.080 Cl
HETATM   21  N   UNL     1     -16.008  -0.510 -12.029  1.00  0.00    -0.373 N 
HETATM   22  C   UNL     1     -16.143  -0.747 -13.406  1.00  0.00     0.090 A 
ATOM     23  HN  UNL     1     -16.642   0.120 -11.537  1.00  0.00     0.164 HD
HETATM   24  C   UNL     1     -15.285  -1.599 -14.092  1.00  0.00     0.048 A 
ENDBRANCH  14  17
ENDBRANCH   1  13
TORSDOF 3
ENDMDL
MODEL 6
REMARK VINA RESULT:    -5.665      1.576      2.411
REMARK INTER + INTRA:          -7.170
REMARK INTER:                  -6.629
REMARK INTRA:                  -0.542
REMARK UNBOUND:                -0.511
REMARK  3 active torsions:
REMARK  status: ('A' for Active; 'I' for Inactive)
REMARK    1  A    between atoms: N_8  and  C_9 
REMARK    2  A    between atoms: C_9  and  C_10 
REMARK       I    between atoms: C_10  and  N_20 
REMARK    3  A    between atoms: C_16  and  N_20 
ROOT
HETATM    1  C   UNL     1     -10.063  -3.875 -12.547  1.00  0.00     0.171 C 
ENDROOT
BRANCH   1   2
HETATM    2  N   UNL     1     -11.394  -3.486 -12.406  1.00  0.00    -0.326 N 
HETATM    3  C   UNL     1     -12.164  -3.558 -11.229  1.00  0.00     0.098 A 
HETATM    4  C   UNL     1     -13.419  -3.055 -11.464  1.00  0.00     0.037 A 
HETATM    5  C   UNL     1     -13.426  -2.651 -12.808  1.00  0.00     0.061 A 
HETATM    6  C   UNL     1     -12.190  -2.930 -13.386  1.00  0.00     0.055 A 
HETATM    7  C   UNL     1     -14.510  -2.038 -13.507  1.00  0.00     0.259 A 
HETATM    8  C   UNL     1     -11.981  -2.610 -14.745  1.00  0.00     0.048 A 
HETATM    9  C   UNL     1     -13.008  -2.039 -15.446  1.00  0.00     0.096 A 
HETATM   10  N   UNL     1     -14.246  -1.765 -14.886  1.00  0.00    -0.328 N 
HETATM   11  C   UNL     1     -15.351  -1.129 -15.689  1.00  0.00     0.159 C 
HETATM   12  O   UNL     1     -15.617  -1.822 -13.015  1.00  0.00    -0.267 OA
ENDBRANCH   1   2
BRANCH   1  13
HETATM   13  C   UNL     1      -9.790  -5.327 -12.764  1.00  0.00     0.261 C 
HETATM   14  N   UNL     1      -9.373  -5.720 -14.021  1.00  0.00    -0.321 N 
ATOM     15  HN  UNL     1      -9.265  -4.975 -14.710  1.00  0.00     0.169 HD
HETATM   16  O   UNL     1      -9.920  -6.101 -11.859  1.00  0.00    -0.267 OA
BRANCH  14  17
HETATM   17  C   UNL     1      -9.087  -6.992 -14.455  1.00  0.00     0.059 A 
HETATM   18  C   UNL     1      -7.775  -7.423 -14.382  1.00  0.00     0.076 A 
HETATM   19  C   UNL     1      -7.407  -8.685 -14.833  1.00  0.00     0.113 A 
HETATM   20 CL   UNL     1      -6.486  -6.459 -13.789  1.00  0.00    -0.080 Cl
HETATM   21  N   UNL     1      -8.296  -9.567 -15.364  1.00  0.00    -0.373 N 
HETATM   22  C   UNL     1      -9.636  -9.159 -15.457  1.00  0.00     0.090 A 
ATOM     23  HN  UNL     1      -8.001 -10.490 -15.682  1.00  0.00     0.164 HD
HETATM   24  C   UNL     1     -10.054  -7.906 -15.024  1.00  0.00     0.048 A 
ENDBRANCH  14  17
ENDBRANCH   1  13
TORSDOF 3
ENDMDL
MODEL 7
REMARK VINA RESULT:    -5.578      3.015      8.080
REMARK INTER + INTRA:          -7.067
REMARK INTER:                  -6.473
REMARK INTRA:                  -0.594
REMARK UNBOUND:                -0.511
REMARK  3 active torsions:
REMARK  status: ('A' for Active; 'I' for Inactive)
REMARK    1  A    between atoms: N_8  and  C_9 
REMARK    2  A    between atoms: C_9  and  C_10 
REMARK       I    between atoms: C_10  and  N_20 
REMARK    3  A    between atoms: C_16  and  N_20 
ROOT
HETATM    1  C   UNL     1      -7.285  -6.716 -13.835  1.00  0.00     0.171 C 
ENDROOT
BRANCH   1   2
HETATM    2  N   UNL     1      -7.225  -6.803 -15.225  1.00  0.00    -0.326 N 
HETATM    3  C   UNL     1      -6.752  -5.810 -16.104  1.00  0.00     0.098 A 
HETATM    4  C   UNL     1      -6.816  -6.265 -17.397  1.00  0.00     0.037 A 
HETATM    5  C   UNL     1      -7.325  -7.570 -17.320  1.00  0.00     0.061 A 
HETATM    6  C   UNL     1      -7.589  -7.891 -15.990  1.00  0.00     0.055 A 
HETATM    7  C   UNL     1      -7.546  -8.464 -18.412  1.00  0.00     0.259 A 
HETATM    8  C   UNL     1      -8.120  -9.163 -15.684  1.00  0.00     0.048 A 
HETATM    9  C   UNL     1      -8.359 -10.035 -16.712  1.00  0.00     0.096 A 
HETATM   10  N   UNL     1      -8.111  -9.724 -18.039  1.00  0.00    -0.328 N 
HETATM   11  C   UNL     1      -8.381 -10.714 -19.144  1.00  0.00     0.159 C 
HETATM   12  O   UNL     1      -7.351  -8.176 -19.591  1.00  0.00    -0.267 OA
ENDBRANCH   1   2
BRANCH   1  13
HETATM   13  C   UNL     1      -8.592  -6.327 -13.226  1.00  0.00     0.261 C 
HETATM   14  N   UNL     1      -9.340  -5.364 -13.875  1.00  0.00    -0.321 N 
ATOM     15  HN  UNL     1      -8.946  -5.000 -14.743  1.00  0.00     0.169 HD
HETATM   16  O   UNL     1      -8.963  -6.857 -12.218  1.00  0.00    -0.267 OA
BRANCH  14  17
HETATM   17  C   UNL     1     -10.551  -4.838 -13.494  1.00  0.00     0.059 A 
HETATM   18  C   UNL     1     -11.700  -5.486 -13.910  1.00  0.00     0.076 A 
HETATM   19  C   UNL     1     -12.960  -4.992 -13.590  1.00  0.00     0.113 A 
HETATM   20 CL   UNL     1     -11.699  -6.899 -14.881  1.00  0.00    -0.080 Cl
HETATM   21  N   UNL     1     -13.144  -3.862 -12.856  1.00  0.00    -0.373 N 
HETATM   22  C   UNL     1     -11.998  -3.178 -12.421  1.00  0.00     0.090 A 
ATOM     23  HN  UNL     1     -14.079  -3.525 -12.629  1.00  0.00     0.164 HD
HETATM   24  C   UNL     1     -10.717  -3.629 -12.718  1.00  0.00     0.048 A 
ENDBRANCH  14  17
ENDBRANCH   1  13
TORSDOF 3
ENDMDL
MODEL 8
REMARK VINA RESULT:    -5.575      1.317      1.984
REMARK INTER + INTRA:          -7.064
REMARK INTER:                  -6.626
REMARK INTRA:                  -0.438
REMARK UNBOUND:                -0.511
REMARK  3 active torsions:
REMARK  status: ('A' for Active; 'I' for Inactive)
REMARK    1  A    between atoms: N_8  and  C_9 
REMARK    2  A    between atoms: C_9  and  C_10 
REMARK       I    between atoms: C_10  and  N_20 
REMARK    3  A    between atoms: C_16  and  N_20 
ROOT
HETATM    1  C   UNL     1     -10.968  -3.743 -14.423  1.00  0.00     0.171 C 
ENDROOT
BRANCH   1   2
HETATM    2  N   UNL     1     -11.592  -3.682 -13.177  1.00  0.00    -0.326 N 
HETATM    3  C   UNL     1     -11.375  -4.554 -12.092  1.00  0.00     0.098 A 
HETATM    4  C   UNL     1     -12.142  -4.165 -11.023  1.00  0.00     0.037 A 
HETATM    5  C   UNL     1     -12.838  -3.022 -11.446  1.00  0.00     0.061 A 
HETATM    6  C   UNL     1     -12.511  -2.738 -12.770  1.00  0.00     0.055 A 
HETATM    7  C   UNL     1     -13.744  -2.241 -10.666  1.00  0.00     0.259 A 
HETATM    8  C   UNL     1     -13.110  -1.627 -13.401  1.00  0.00     0.048 A 
HETATM    9  C   UNL     1     -13.998  -0.870 -12.685  1.00  0.00     0.096 A 
HETATM   10  N   UNL     1     -14.339  -1.147 -11.371  1.00  0.00    -0.328 N 
HETATM   11  C   UNL     1     -15.316  -0.285 -10.612  1.00  0.00     0.159 C 
HETATM   12  O   UNL     1     -14.068  -2.505  -9.510  1.00  0.00    -0.267 OA
ENDBRANCH   1   2
BRANCH   1  13
HETATM   13  C   UNL     1     -10.557  -5.089 -14.921  1.00  0.00     0.261 C 
HETATM   14  N   UNL     1      -9.210  -5.394 -14.904  1.00  0.00    -0.321 N 
ATOM     15  HN  UNL     1      -8.592  -4.673 -14.531  1.00  0.00     0.169 HD
HETATM   16  O   UNL     1     -11.386  -5.865 -15.301  1.00  0.00    -0.267 OA
BRANCH  14  17
HETATM   17  C   UNL     1      -8.602  -6.551 -15.329  1.00  0.00     0.059 A 
HETATM   18  C   UNL     1      -8.079  -7.399 -14.370  1.00  0.00     0.076 A 
HETATM   19  C   UNL     1      -7.421  -8.571 -14.728  1.00  0.00     0.113 A 
HETATM   20 CL   UNL     1      -8.138  -7.086 -12.685  1.00  0.00    -0.080 Cl
HETATM   21  N   UNL     1      -7.254  -8.956 -16.022  1.00  0.00    -0.373 N 
HETATM   22  C   UNL     1      -7.769  -8.115 -17.020  1.00  0.00     0.090 A 
ATOM     23  HN  UNL     1      -6.772  -9.824 -16.258  1.00  0.00     0.164 HD
HETATM   24  C   UNL     1      -8.431  -6.932 -16.714  1.00  0.00     0.048 A 
ENDBRANCH  14  17
ENDBRANCH   1  13
TORSDOF 3
ENDMDL
MODEL 9
REMARK VINA RESULT:    -5.562      2.813      3.773
REMARK INTER + INTRA:          -7.049
REMARK INTER:                  -6.546
REMARK INTRA:                  -0.503
REMARK UNBOUND:                -0.511
REMARK  3 active torsions:
REMARK  status: ('A' for Active; 'I' for Inactive)
REMARK    1  A    between atoms: N_8  and  C_9 
REMARK    2  A    between atoms: C_9  and  C_10 
REMARK       I    between atoms: C_10  and  N_20 
REMARK    3  A    between atoms: C_16  and  N_20 
ROOT
HETATM    1  C   UNL     1     -11.938  -1.670 -14.526  1.00  0.00     0.171 C 
ENDROOT
BRANCH   1   2
HETATM    2  N   UNL     1     -13.225  -1.441 -14.039  1.00  0.00    -0.326 N 
HETATM    3  C   UNL     1     -13.592  -1.302 -12.686  1.00  0.00     0.098 A 
HETATM    4  C   UNL     1     -14.939  -1.055 -12.595  1.00  0.00     0.037 A 
HETATM    5  C   UNL     1     -15.415  -1.026 -13.914  1.00  0.00     0.061 A 
HETATM    6  C   UNL     1     -14.367  -1.278 -14.795  1.00  0.00     0.055 A 
HETATM    7  C   UNL     1     -16.758  -0.773 -14.328  1.00  0.00     0.259 A 
HETATM    8  C   UNL     1     -14.628  -1.305 -16.182  1.00  0.00     0.048 A 
HETATM    9  C   UNL     1     -15.910  -1.085 -16.609  1.00  0.00     0.096 A 
HETATM   10  N   UNL     1     -16.963  -0.842 -15.742  1.00  0.00    -0.328 N 
HETATM   11  C   UNL     1     -18.362  -0.597 -16.250  1.00  0.00     0.159 C 
HETATM   12  O   UNL     1     -17.697  -0.586 -13.556  1.00  0.00    -0.267 OA
ENDBRANCH   1   2
BRANCH   1  13
HETATM   13  C   UNL     1     -11.283  -2.960 -14.158  1.00  0.00     0.261 C 
HETATM   14  N   UNL     1     -11.346  -3.994 -15.072  1.00  0.00    -0.321 N 
ATOM     15  HN  UNL     1     -11.826  -3.789 -15.948  1.00  0.00     0.169 HD
HETATM   16  O   UNL     1     -10.716  -3.064 -13.108  1.00  0.00    -0.267 OA
BRANCH  14  17
HETATM   17  C   UNL     1     -10.839  -5.265 -14.943  1.00  0.00     0.059 A 
HETATM   18  C   UNL     1     -11.636  -6.224 -14.344  1.00  0.00     0.076 A 
HETATM   19  C   UNL     1     -11.177  -7.522 -14.151  1.00  0.00     0.113 A 
HETATM   20 CL   UNL     1     -13.213  -5.915 -13.745  1.00  0.00    -0.080 Cl
HETATM   21  N   UNL     1      -9.938  -7.930 -14.534  1.00  0.00    -0.373 N 
HETATM   22  C   UNL     1      -9.102  -6.980 -15.142  1.00  0.00     0.090 A 
ATOM     23  HN  UNL     1      -9.627  -8.891 -14.386  1.00  0.00     0.164 HD
HETATM   24  C   UNL     1      -9.512  -5.669 -15.353  1.00  0.00     0.048 A 
ENDBRANCH  14  17
ENDBRANCH   1  13
TORSDOF 3
ENDMDL
MODEL 10
REMARK VINA RESULT:    -5.523      2.784      4.436
REMARK INTER + INTRA:          -7.002
REMARK INTER:                  -6.702
REMARK INTRA:                  -0.301
REMARK UNBOUND:                -0.511
REMARK  3 active torsions:
REMARK  status: ('A' for Active; 'I' for Inactive)
REMARK    1  A    between atoms: N_8  and  C_9 
REMARK    2  A    between atoms: C_9  and  C_10 
REMARK       I    between atoms: C_10  and  N_20 
REMARK    3  A    between atoms: C_16  and  N_20 
ROOT
HETATM    1  C   UNL     1      -9.357  -5.528 -16.116  1.00  0.00     0.171 C 
ENDROOT
BRANCH   1   2
HETATM    2  N   UNL     1      -9.622  -5.762 -14.767  1.00  0.00    -0.326 N 
HETATM    3  C   UNL     1      -9.117  -6.823 -13.990  1.00  0.00     0.098 A 
HETATM    4  C   UNL     1      -9.569  -6.708 -12.700  1.00  0.00     0.037 A 
HETATM    5  C   UNL     1     -10.357  -5.548 -12.670  1.00  0.00     0.061 A 
HETATM    6  C   UNL     1     -10.401  -4.980 -13.941  1.00  0.00     0.055 A 
HETATM    7  C   UNL     1     -11.023  -5.001 -11.531  1.00  0.00     0.259 A 
HETATM    8  C   UNL     1     -11.152  -3.801 -14.139  1.00  0.00     0.048 A 
HETATM    9  C   UNL     1     -11.816  -3.263 -13.071  1.00  0.00     0.096 A 
HETATM   10  N   UNL     1     -11.790  -3.824 -11.804  1.00  0.00    -0.328 N 
HETATM   11  C   UNL     1     -12.529  -3.198 -10.649  1.00  0.00     0.159 C 
HETATM   12  O   UNL     1     -11.021  -5.515 -10.414  1.00  0.00    -0.267 OA
ENDBRANCH   1   2
BRANCH   1  13
HETATM   13  C   UNL     1      -8.130  -6.151 -16.695  1.00  0.00     0.261 C 
HETATM   14  N   UNL     1      -8.300  -7.130 -17.654  1.00  0.00    -0.321 N 
ATOM     15  HN  UNL     1      -9.264  -7.343 -17.911  1.00  0.00     0.169 HD
HETATM   16  O   UNL     1      -7.048  -5.787 -16.334  1.00  0.00    -0.267 OA
BRANCH  14  17
HETATM   17  C   UNL     1      -7.328  -7.852 -18.304  1.00  0.00     0.059 A 
HETATM   18  C   UNL     1      -7.244  -9.208 -18.046  1.00  0.00     0.076 A 
HETATM   19  C   UNL     1      -6.265  -9.995 -18.642  1.00  0.00     0.113 A 
HETATM   20 CL   UNL     1      -8.276 -10.036 -16.954  1.00  0.00    -0.080 Cl
HETATM   21  N   UNL     1      -5.343  -9.493 -19.507  1.00  0.00    -0.373 N 
HETATM   22  C   UNL     1      -5.398  -8.119 -19.789  1.00  0.00     0.090 A 
ATOM     23  HN  UNL     1      -4.638 -10.094 -19.937  1.00  0.00     0.164 HD
HETATM   24  C   UNL     1      -6.355  -7.290 -19.215  1.00  0.00     0.048 A 
ENDBRANCH  14  17
ENDBRANCH   1  13
TORSDOF 3
ENDMDL
MODEL 11
REMARK VINA RESULT:    -5.500      4.685      6.409
REMARK INTER + INTRA:          -6.976
REMARK INTER:                  -6.409
REMARK INTRA:                  -0.567
REMARK UNBOUND:                -0.511
REMARK  3 active torsions:
REMARK  status: ('A' for Active; 'I' for Inactive)
REMARK    1  A    between atoms: N_8  and  C_9 
REMARK    2  A    between atoms: C_9  and  C_10 
REMARK       I    between atoms: C_10  and  N_20 
REMARK    3  A    between atoms: C_16  and  N_20 
ROOT
HETATM    1  C   UNL     1      -7.230  -8.918 -15.989  1.00  0.00     0.171 C 
ENDROOT
BRANCH   1   2
HETATM    2  N   UNL     1      -7.660  -8.208 -14.869  1.00  0.00    -0.326 N 
HETATM    3  C   UNL     1      -6.859  -7.411 -14.028  1.00  0.00     0.098 A 
HETATM    4  C   UNL     1      -7.636  -6.845 -13.048  1.00  0.00     0.037 A 
HETATM    5  C   UNL     1      -8.945  -7.286 -13.292  1.00  0.00     0.061 A 
HETATM    6  C   UNL     1      -8.954  -8.133 -14.398  1.00  0.00     0.055 A 
HETATM    7  C   UNL     1     -10.113  -6.937 -12.549  1.00  0.00     0.259 A 
HETATM    8  C   UNL     1     -10.177  -8.702 -14.816  1.00  0.00     0.048 A 
HETATM    9  C   UNL     1     -11.311  -8.401 -14.111  1.00  0.00     0.096 A 
HETATM   10  N   UNL     1     -11.314  -7.568 -13.004  1.00  0.00    -0.328 N 
HETATM   11  C   UNL     1     -12.585  -7.253 -12.257  1.00  0.00     0.159 C 
HETATM   12  O   UNL     1     -10.109  -6.220 -11.550  1.00  0.00    -0.267 OA
ENDBRANCH   1   2
BRANCH   1  13
HETATM   13  C   UNL     1      -7.667  -8.420 -17.328  1.00  0.00     0.261 C 
HETATM   14  N   UNL     1      -7.188  -7.193 -17.743  1.00  0.00    -0.321 N 
ATOM     15  HN  UNL     1      -6.550  -6.721 -17.102  1.00  0.00     0.169 HD
HETATM   16  O   UNL     1      -8.394  -9.088 -18.005  1.00  0.00    -0.267 OA
BRANCH  14  17
HETATM   17  C   UNL     1      -7.468  -6.531 -18.913  1.00  0.00     0.059 A 
HETATM   18  C   UNL     1      -6.497  -6.511 -19.897  1.00  0.00     0.076 A 
HETATM   19  C   UNL     1      -6.697  -5.833 -21.094  1.00  0.00     0.113 A 
HETATM   20 CL   UNL     1      -4.961  -7.257 -19.735  1.00  0.00    -0.080 Cl
HETATM   21  N   UNL     1      -7.845  -5.158 -21.375  1.00  0.00    -0.373 N 
HETATM   22  C   UNL     1      -8.850  -5.154 -20.396  1.00  0.00     0.090 A 
ATOM     23  HN  UNL     1      -7.970  -4.674 -22.264  1.00  0.00     0.164 HD
HETATM   24  C   UNL     1      -8.696  -5.814 -19.182  1.00  0.00     0.048 A 
ENDBRANCH  14  17
ENDBRANCH   1  13
TORSDOF 3
ENDMDL
MODEL 12
REMARK VINA RESULT:    -5.499      2.607      8.130
REMARK INTER + INTRA:          -6.974
REMARK INTER:                  -6.486
REMARK INTRA:                  -0.488
REMARK UNBOUND:                -0.511
REMARK  3 active torsions:
REMARK  status: ('A' for Active; 'I' for Inactive)
REMARK    1  A    between atoms: N_8  and  C_9 
REMARK    2  A    between atoms: C_9  and  C_10 
REMARK       I    between atoms: C_10  and  N_20 
REMARK    3  A    between atoms: C_16  and  N_20 
ROOT
HETATM    1  C   UNL     1     -12.175  -4.914 -13.235  1.00  0.00     0.171 C 
ENDROOT
BRANCH   1   2
HETATM    2  N   UNL     1     -10.933  -5.548 -13.247  1.00  0.00    -0.326 N 
HETATM    3  C   UNL     1     -10.275  -6.115 -12.139  1.00  0.00     0.098 A 
HETATM    4  C   UNL     1      -9.089  -6.676 -12.541  1.00  0.00     0.037 A 
HETATM    5  C   UNL     1      -9.014  -6.466 -13.926  1.00  0.00     0.061 A 
HETATM    6  C   UNL     1     -10.137  -5.760 -14.353  1.00  0.00     0.055 A 
HETATM    7  C   UNL     1      -7.968  -6.898 -14.797  1.00  0.00     0.259 A 
HETATM    8  C   UNL     1     -10.260  -5.431 -15.720  1.00  0.00     0.048 A 
HETATM    9  C   UNL     1      -9.264  -5.816 -16.576  1.00  0.00     0.096 A 
HETATM   10  N   UNL     1      -8.138  -6.508 -16.163  1.00  0.00    -0.328 N 
HETATM   11  C   UNL     1      -7.064  -6.921 -17.138  1.00  0.00     0.159 C 
HETATM   12  O   UNL     1      -6.955  -7.487 -14.423  1.00  0.00    -0.267 OA
ENDBRANCH   1   2
BRANCH   1  13
HETATM   13  C   UNL     1     -12.274  -3.608 -12.519  1.00  0.00     0.261 C 
HETATM   14  N   UNL     1     -13.423  -3.360 -11.793  1.00  0.00    -0.321 N 
ATOM     15  HN  UNL     1     -14.118  -4.106 -11.787  1.00  0.00     0.169 HD
HETATM   16  O   UNL     1     -11.368  -2.826 -12.575  1.00  0.00    -0.267 OA
BRANCH  14  17
HETATM   17  C   UNL     1     -13.741  -2.230 -11.079  1.00  0.00     0.059 A 
HETATM   18  C   UNL     1     -13.545  -2.250  -9.710  1.00  0.00     0.076 A 
HETATM   19  C   UNL     1     -13.876  -1.156  -8.919  1.00  0.00     0.113 A 
HETATM   20 CL   UNL     1     -12.936  -3.606  -8.854  1.00  0.00    -0.080 Cl
HETATM   21  N   UNL     1     -14.402  -0.010  -9.430  1.00  0.00    -0.373 N 
HETATM   22  C   UNL     1     -14.618   0.042 -10.816  1.00  0.00     0.090 A 
ATOM     23  HN  UNL     1     -14.630   0.782  -8.829  1.00  0.00     0.164 HD
HETATM   24  C   UNL     1     -14.308  -1.027 -11.649  1.00  0.00     0.048 A 
ENDBRANCH  14  17
ENDBRANCH   1  13
TORSDOF 3
ENDMDL
MODEL 13
REMARK VINA RESULT:    -5.492      4.228      9.388
REMARK INTER + INTRA:          -6.966
REMARK INTER:                  -6.562
REMARK INTRA:                  -0.405
REMARK UNBOUND:                -0.511
REMARK  3 active torsions:
REMARK  status: ('A' for Active; 'I' for Inactive)
REMARK    1  A    between atoms: N_8  and  C_9 
REMARK    2  A    between atoms: C_9  and  C_10 
REMARK       I    between atoms: C_10  and  N_20 
REMARK    3  A    between atoms: C_16  and  N_20 
ROOT
HETATM    1  C   UNL     1      -6.829  -6.276 -17.713  1.00  0.00     0.171 C 
ENDROOT
BRANCH   1   2
HETATM    2  N   UNL     1      -6.667  -7.133 -18.801  1.00  0.00    -0.326 N 
HETATM    3  C   UNL     1      -6.198  -8.460 -18.754  1.00  0.00     0.098 A 
HETATM    4  C   UNL     1      -6.204  -8.999 -20.016  1.00  0.00     0.037 A 
HETATM    5  C   UNL     1      -6.699  -7.994 -20.861  1.00  0.00     0.061 A 
HETATM    6  C   UNL     1      -6.967  -6.848 -20.116  1.00  0.00     0.055 A 
HETATM    7  C   UNL     1      -6.915  -8.095 -22.269  1.00  0.00     0.259 A 
HETATM    8  C   UNL     1      -7.468  -5.704 -20.775  1.00  0.00     0.048 A 
HETATM    9  C   UNL     1      -7.667  -5.765 -22.127  1.00  0.00     0.096 A 
HETATM   10  N   UNL     1      -7.396  -6.895 -22.881  1.00  0.00    -0.328 N 
HETATM   11  C   UNL     1      -7.636  -6.927 -24.369  1.00  0.00     0.159 C 
HETATM   12  O   UNL     1      -6.647  -9.090 -22.940  1.00  0.00    -0.267 OA
ENDBRANCH   1   2
BRANCH   1  13
HETATM   13  C   UNL     1      -7.970  -6.546 -16.788  1.00  0.00     0.261 C 
HETATM   14  N   UNL     1      -8.037  -5.810 -15.622  1.00  0.00    -0.321 N 
ATOM     15  HN  UNL     1      -7.302  -5.116 -15.486  1.00  0.00     0.169 HD
HETATM   16  O   UNL     1      -8.794  -7.365 -17.079  1.00  0.00    -0.267 OA
BRANCH  14  17
HETATM   17  C   UNL     1      -8.975  -5.900 -14.621  1.00  0.00     0.059 A 
HETATM   18  C   UNL     1      -8.665  -6.657 -13.507  1.00  0.00     0.076 A 
HETATM   19  C   UNL     1      -9.577  -6.820 -12.470  1.00  0.00     0.113 A 
HETATM   20 CL   UNL     1      -7.183  -7.498 -13.307  1.00  0.00    -0.080 Cl
HETATM   21  N   UNL     1     -10.813  -6.251 -12.480  1.00  0.00    -0.373 N 
HETATM   22  C   UNL     1     -11.161  -5.478 -13.599  1.00  0.00     0.090 A 
ATOM     23  HN  UNL     1     -11.462  -6.380 -11.704  1.00  0.00     0.164 HD
HETATM   24  C   UNL     1     -10.286  -5.289 -14.663  1.00  0.00     0.048 A 
ENDBRANCH  14  17
ENDBRANCH   1  13
TORSDOF 3
ENDMDL
MODEL 14
REMARK VINA RESULT:    -5.478      2.556      3.322
REMARK INTER + INTRA:          -6.950
REMARK INTER:                  -6.339
REMARK INTRA:                  -0.611
REMARK UNBOUND:                -0.511
REMARK  3 active torsions:
REMARK  status: ('A' for Active; 'I' for Inactive)
REMARK    1  A    between atoms: N_8  and  C_9 
REMARK    2  A    between atoms: C_9  and  C_10 
REMARK       I    between atoms: C_10  and  N_20 
REMARK    3  A    between atoms: C_16  and  N_20 
ROOT
HETATM    1  C   UNL     1     -12.160  -1.355 -14.495  1.00  0.00     0.171 C 
ENDROOT
BRANCH   1   2
HETATM    2  N   UNL     1     -13.543  -1.215 -14.609  1.00  0.00    -0.326 N 
HETATM    3  C   UNL     1     -14.298  -1.334 -15.792  1.00  0.00     0.098 A 
HETATM    4  C   UNL     1     -15.630  -1.164 -15.511  1.00  0.00     0.037 A 
HETATM    5  C   UNL     1     -15.707  -0.949 -14.127  1.00  0.00     0.061 A 
HETATM    6  C   UNL     1     -14.426  -0.965 -13.580  1.00  0.00     0.055 A 
HETATM    7  C   UNL     1     -16.895  -0.748 -13.361  1.00  0.00     0.259 A 
HETATM    8  C   UNL     1     -14.270  -0.758 -12.192  1.00  0.00     0.048 A 
HETATM    9  C   UNL     1     -15.390  -0.543 -11.435  1.00  0.00     0.096 A 
HETATM   10  N   UNL     1     -16.669  -0.515 -11.968  1.00  0.00    -0.328 N 
HETATM   11  C   UNL     1     -17.879  -0.283 -11.100  1.00  0.00     0.159 C 
HETATM   12  O   UNL     1     -18.027  -0.695 -13.840  1.00  0.00    -0.267 OA
ENDBRANCH   1   2
BRANCH   1  13
HETATM   13  C   UNL     1     -11.634  -2.700 -14.118  1.00  0.00     0.261 C 
HETATM   14  N   UNL     1     -11.571  -3.663 -15.106  1.00  0.00    -0.321 N 
ATOM     15  HN  UNL     1     -11.876  -3.373 -16.035  1.00  0.00     0.169 HD
HETATM   16  O   UNL     1     -11.271  -2.907 -12.995  1.00  0.00    -0.267 OA
BRANCH  14  17
HETATM   17  C   UNL     1     -11.147  -4.965 -14.988  1.00  0.00     0.059 A 
HETATM   18  C   UNL     1     -12.078  -5.921 -14.626  1.00  0.00     0.076 A 
HETATM   19  C   UNL     1     -11.715  -7.252 -14.456  1.00  0.00     0.113 A 
HETATM   20 CL   UNL     1     -13.727  -5.573 -14.305  1.00  0.00    -0.080 Cl
HETATM   21  N   UNL     1     -10.442  -7.697 -14.636  1.00  0.00    -0.373 N 
HETATM   22  C   UNL     1      -9.471  -6.751 -15.001  1.00  0.00     0.090 A 
ATOM     23  HN  UNL     1     -10.202  -8.681 -14.512  1.00  0.00     0.164 HD
HETATM   24  C   UNL     1      -9.783  -5.409 -15.179  1.00  0.00     0.048 A 
ENDBRANCH  14  17
ENDBRANCH   1  13
TORSDOF 3
ENDMDL
MODEL 15
REMARK VINA RESULT:    -5.478      2.541      8.132
REMARK INTER + INTRA:          -6.950
REMARK INTER:                  -6.381
REMARK INTRA:                  -0.569
REMARK UNBOUND:                -0.511
REMARK  3 active torsions:
REMARK  status: ('A' for Active; 'I' for Inactive)
REMARK    1  A    between atoms: N_8  and  C_9 
REMARK    2  A    between atoms: C_9  and  C_10 
REMARK       I    between atoms: C_10  and  N_20 
REMARK    3  A    between atoms: C_16  and  N_20 
ROOT
HETATM    1  C   UNL     1      -9.108  -7.226 -13.643  1.00  0.00     0.171 C 
ENDROOT
BRANCH   1   2
HETATM    2  N   UNL     1      -8.756  -7.861 -14.834  1.00  0.00    -0.326 N 
HETATM    3  C   UNL     1      -9.158  -9.148 -15.242  1.00  0.00     0.098 A 
HETATM    4  C   UNL     1      -8.642  -9.422 -16.484  1.00  0.00     0.037 A 
HETATM    5  C   UNL     1      -7.918  -8.281 -16.860  1.00  0.00     0.061 A 
HETATM    6  C   UNL     1      -7.977  -7.333 -15.841  1.00  0.00     0.055 A 
HETATM    7  C   UNL     1      -7.222  -8.083 -18.091  1.00  0.00     0.259 A 
HETATM    8  C   UNL     1      -7.303  -6.104 -16.009  1.00  0.00     0.048 A 
HETATM    9  C   UNL     1      -6.611  -5.892 -17.171  1.00  0.00     0.096 A 
HETATM   10  N   UNL     1      -6.537  -6.830 -18.188  1.00  0.00    -0.328 N 
HETATM   11  C   UNL     1      -5.770  -6.558 -19.457  1.00  0.00     0.159 C 
HETATM   12  O   UNL     1      -7.133  -8.928 -18.980  1.00  0.00    -0.267 OA
ENDBRANCH   1   2
BRANCH   1  13
HETATM   13  C   UNL     1     -10.273  -6.293 -13.680  1.00  0.00     0.261 C 
HETATM   14  N   UNL     1     -10.091  -5.020 -13.174  1.00  0.00    -0.321 N 
ATOM     15  HN  UNL     1      -9.157  -4.806 -12.825  1.00  0.00     0.169 HD
HETATM   16  O   UNL     1     -11.313  -6.654 -14.152  1.00  0.00    -0.267 OA
BRANCH  14  17
HETATM   17  C   UNL     1     -11.016  -4.009 -13.084  1.00  0.00     0.059 A 
HETATM   18  C   UNL     1     -11.754  -3.905 -11.919  1.00  0.00     0.076 A 
HETATM   19  C   UNL     1     -12.731  -2.927 -11.770  1.00  0.00     0.113 A 
HETATM   20 CL   UNL     1     -11.586  -4.972 -10.586  1.00  0.00    -0.080 Cl
HETATM   21  N   UNL     1     -13.018  -2.019 -12.741  1.00  0.00    -0.373 N 
HETATM   22  C   UNL     1     -12.291  -2.099 -13.939  1.00  0.00     0.090 A 
ATOM     23  HN  UNL     1     -13.736  -1.307 -12.604  1.00  0.00     0.164 HD
HETATM   24  C   UNL     1     -11.307  -3.061 -14.138  1.00  0.00     0.048 A 
ENDBRANCH  14  17
ENDBRANCH   1  13
TORSDOF 3
ENDMDL
MODEL 16
REMARK VINA RESULT:    -5.452      2.041      2.501
REMARK INTER + INTRA:          -6.919
REMARK INTER:                  -6.408
REMARK INTRA:                  -0.511
REMARK UNBOUND:                -0.511
REMARK  3 active torsions:
REMARK  status: ('A' for Active; 'I' for Inactive)
REMARK    1  A    between atoms: N_8  and  C_9 
REMARK    2  A    between atoms: C_9  and  C_10 
REMARK       I    between atoms: C_10  and  N_20 
REMARK    3  A    between atoms: C_16  and  N_20 
ROOT
HETATM    1  C   UNL     1     -13.162  -3.709 -14.548  1.00  0.00     0.171 C 
ENDROOT
BRANCH   1   2
HETATM    2  N   UNL     1     -13.675  -2.727 -13.701  1.00  0.00    -0.326 N 
HETATM    3  C   UNL     1     -14.471  -1.629 -14.082  1.00  0.00     0.098 A 
HETATM    4  C   UNL     1     -14.813  -0.898 -12.972  1.00  0.00     0.037 A 
HETATM    5  C   UNL     1     -14.231  -1.559 -11.881  1.00  0.00     0.061 A 
HETATM    6  C   UNL     1     -13.522  -2.671 -12.331  1.00  0.00     0.055 A 
HETATM    7  C   UNL     1     -14.334  -1.187 -10.506  1.00  0.00     0.259 A 
HETATM    8  C   UNL     1     -12.846  -3.480 -11.393  1.00  0.00     0.048 A 
HETATM    9  C   UNL     1     -12.910  -3.136 -10.069  1.00  0.00     0.096 A 
HETATM   10  N   UNL     1     -13.604  -2.029  -9.609  1.00  0.00    -0.328 N 
HETATM   11  C   UNL     1     -13.658  -1.686  -8.142  1.00  0.00     0.159 C 
HETATM   12  O   UNL     1     -14.926  -0.187 -10.102  1.00  0.00    -0.267 OA
ENDBRANCH   1   2
BRANCH   1  13
HETATM   13  C   UNL     1     -11.679  -3.874 -14.591  1.00  0.00     0.261 C 
HETATM   14  N   UNL     1     -11.180  -5.158 -14.687  1.00  0.00    -0.321 N 
ATOM     15  HN  UNL     1     -11.872  -5.905 -14.740  1.00  0.00     0.169 HD
HETATM   16  O   UNL     1     -10.969  -2.910 -14.558  1.00  0.00    -0.267 OA
BRANCH  14  17
HETATM   17  C   UNL     1      -9.863  -5.551 -14.720  1.00  0.00     0.059 A 
HETATM   18  C   UNL     1      -9.221  -5.770 -13.515  1.00  0.00     0.076 A 
HETATM   19  C   UNL     1      -7.881  -6.137 -13.470  1.00  0.00     0.113 A 
HETATM   20 CL   UNL     1      -9.970  -5.569 -11.985  1.00  0.00    -0.080 Cl
HETATM   21  N   UNL     1      -7.126  -6.307 -14.589  1.00  0.00    -0.373 N 
HETATM   22  C   UNL     1      -7.746  -6.089 -15.829  1.00  0.00     0.090 A 
ATOM     23  HN  UNL     1      -6.145  -6.583 -14.529  1.00  0.00     0.164 HD
HETATM   24  C   UNL     1      -9.082  -5.716 -15.926  1.00  0.00     0.048 A 
ENDBRANCH  14  17
ENDBRANCH   1  13
TORSDOF 3
ENDMDL
MODEL 17
REMARK VINA RESULT:    -5.441      2.942      4.659
REMARK INTER + INTRA:          -6.906
REMARK INTER:                  -6.381
REMARK INTRA:                  -0.525
REMARK UNBOUND:                -0.511
REMARK  3 active torsions:
REMARK  status: ('A' for Active; 'I' for Inactive)
REMARK    1  A    between atoms: N_8  and  C_9 
REMARK    2  A    between atoms: C_9  and  C_10 
REMARK       I    between atoms: C_10  and  N_20 
REMARK    3  A    between atoms: C_16  and  N_20 
ROOT
HETATM    1  C   UNL     1      -9.339  -8.036 -14.969  1.00  0.00     0.171 C 
ENDROOT
BRANCH   1   2
HETATM    2  N   UNL     1      -9.622  -6.872 -14.256  1.00  0.00    -0.326 N 
HETATM    3  C   UNL     1      -8.983  -6.439 -13.077  1.00  0.00     0.098 A 
HETATM    4  C   UNL     1      -9.507  -5.234 -12.682  1.00  0.00     0.037 A 
HETATM    5  C   UNL     1     -10.479  -4.904 -13.638  1.00  0.00     0.061 A 
HETATM    6  C   UNL     1     -10.559  -5.916 -14.592  1.00  0.00     0.055 A 
HETATM    7  C   UNL     1     -11.278  -3.721 -13.666  1.00  0.00     0.259 A 
HETATM    8  C   UNL     1     -11.487  -5.791 -15.648  1.00  0.00     0.048 A 
HETATM    9  C   UNL     1     -12.280  -4.677 -15.691  1.00  0.00     0.096 A 
HETATM   10  N   UNL     1     -12.218  -3.668 -14.744  1.00  0.00    -0.328 N 
HETATM   11  C   UNL     1     -13.103  -2.451 -14.829  1.00  0.00     0.159 C 
HETATM   12  O   UNL     1     -11.241  -2.840 -12.809  1.00  0.00    -0.267 OA
ENDBRANCH   1   2
BRANCH   1  13
HETATM   13  C   UNL     1      -8.069  -8.070 -15.753  1.00  0.00     0.261 C 
HETATM   14  N   UNL     1      -8.133  -7.733 -17.091  1.00  0.00    -0.321 N 
ATOM     15  HN  UNL     1      -9.053  -7.465 -17.442  1.00  0.00     0.169 HD
HETATM   16  O   UNL     1      -7.042  -8.367 -15.214  1.00  0.00    -0.267 OA
BRANCH  14  17
HETATM   17  C   UNL     1      -7.108  -7.714 -18.006  1.00  0.00     0.059 A 
HETATM   18  C   UNL     1      -6.786  -8.898 -18.645  1.00  0.00     0.076 A 
HETATM   19  C   UNL     1      -5.740  -8.961 -19.558  1.00  0.00     0.113 A 
HETATM   20 CL   UNL     1      -7.587 -10.386 -18.354  1.00  0.00    -0.080 Cl
HETATM   21  N   UNL     1      -4.977  -7.882 -19.881  1.00  0.00    -0.373 N 
HETATM   22  C   UNL     1      -5.274  -6.665 -19.247  1.00  0.00     0.090 A 
ATOM     23  HN  UNL     1      -4.219  -7.953 -20.559  1.00  0.00     0.164 HD
HETATM   24  C   UNL     1      -6.308  -6.551 -18.324  1.00  0.00     0.048 A 
ENDBRANCH  14  17
ENDBRANCH   1  13
TORSDOF 3
ENDMDL
MODEL 18
REMARK VINA RESULT:    -5.431      1.838      2.192
REMARK INTER + INTRA:          -6.895
REMARK INTER:                  -6.421
REMARK INTRA:                  -0.474
REMARK UNBOUND:                -0.511
REMARK  3 active torsions:
REMARK  status: ('A' for Active; 'I' for Inactive)
REMARK    1  A    between atoms: N_8  and  C_9 
REMARK    2  A    between atoms: C_9  and  C_10 
REMARK       I    between atoms: C_10  and  N_20 
REMARK    3  A    between atoms: C_16  and  N_20 
ROOT
HETATM    1  C   UNL     1      -9.765  -5.634 -12.957  1.00  0.00     0.171 C 
ENDROOT
BRANCH   1   2
HETATM    2  N   UNL     1     -10.681  -4.595 -12.800  1.00  0.00    -0.326 N 
HETATM    3  C   UNL     1     -10.965  -3.585 -13.740  1.00  0.00     0.098 A 
HETATM    4  C   UNL     1     -11.944  -2.757 -13.250  1.00  0.00     0.037 A 
HETATM    5  C   UNL     1     -12.285  -3.269 -11.989  1.00  0.00     0.061 A 
HETATM    6  C   UNL     1     -11.499  -4.385 -11.710  1.00  0.00     0.055 A 
HETATM    7  C   UNL     1     -13.282  -2.758 -11.104  1.00  0.00     0.259 A 
HETATM    8  C   UNL     1     -11.673  -5.055 -10.480  1.00  0.00     0.048 A 
HETATM    9  C   UNL     1     -12.608  -4.577  -9.602  1.00  0.00     0.096 A 
HETATM   10  N   UNL     1     -13.389  -3.462  -9.864  1.00  0.00    -0.328 N 
HETATM   11  C   UNL     1     -14.414  -2.969  -8.875  1.00  0.00     0.159 C 
HETATM   12  O   UNL     1     -13.954  -1.752 -11.325  1.00  0.00    -0.267 OA
ENDBRANCH   1   2
BRANCH   1  13
HETATM   13  C   UNL     1      -9.659  -6.260 -14.308  1.00  0.00     0.261 C 
HETATM   14  N   UNL     1      -8.514  -6.015 -15.040  1.00  0.00    -0.321 N 
ATOM     15  HN  UNL     1      -7.810  -5.431 -14.588  1.00  0.00     0.169 HD
HETATM   16  O   UNL     1     -10.543  -6.959 -14.714  1.00  0.00    -0.267 OA
BRANCH  14  17
HETATM   17  C   UNL     1      -8.208  -6.462 -16.302  1.00  0.00     0.059 A 
HETATM   18  C   UNL     1      -7.547  -7.671 -16.421  1.00  0.00     0.076 A 
HETATM   19  C   UNL     1      -7.176  -8.170 -17.665  1.00  0.00     0.113 A 
HETATM   20 CL   UNL     1      -7.079  -8.637 -15.083  1.00  0.00    -0.080 Cl
HETATM   21  N   UNL     1      -7.438  -7.516 -18.828  1.00  0.00    -0.373 N 
HETATM   22  C   UNL     1      -8.104  -6.284 -18.744  1.00  0.00     0.090 A 
ATOM     23  HN  UNL     1      -7.161  -7.907 -19.729  1.00  0.00     0.164 HD
HETATM   24  C   UNL     1      -8.492  -5.741 -17.524  1.00  0.00     0.048 A 
ENDBRANCH  14  17
ENDBRANCH   1  13
TORSDOF 3
ENDMDL
MODEL 19
REMARK VINA RESULT:    -5.414      2.915      8.309
REMARK INTER + INTRA:          -6.875
REMARK INTER:                  -6.383
REMARK INTRA:                  -0.492
REMARK UNBOUND:                -0.511
REMARK  3 active torsions:
REMARK  status: ('A' for Active; 'I' for Inactive)
REMARK    1  A    between atoms: N_8  and  C_9 
REMARK    2  A    between atoms: C_9  and  C_10 
REMARK       I    between atoms: C_10  and  N_20 
REMARK    3  A    between atoms: C_16  and  N_20 
ROOT
HETATM    1  C   UNL     1     -12.479  -4.757 -13.160  1.00  0.00     0.171 C 
ENDROOT
BRANCH   1   2
HETATM    2  N   UNL     1     -11.314  -5.521 -13.103  1.00  0.00    -0.326 N 
HETATM    3  C   UNL     1     -10.832  -6.224 -11.981  1.00  0.00     0.098 A 
HETATM    4  C   UNL     1      -9.676  -6.886 -12.311  1.00  0.00     0.037 A 
HETATM    5  C   UNL     1      -9.442  -6.601 -13.664  1.00  0.00     0.061 A 
HETATM    6  C   UNL     1     -10.438  -5.752 -14.142  1.00  0.00     0.055 A 
HETATM    7  C   UNL     1      -8.365  -7.091 -14.464  1.00  0.00     0.259 A 
HETATM    8  C   UNL     1     -10.390  -5.328 -15.488  1.00  0.00     0.048 A 
HETATM    9  C   UNL     1      -9.359  -5.766 -16.274  1.00  0.00     0.096 A 
HETATM   10  N   UNL     1      -8.356  -6.602 -15.808  1.00  0.00    -0.328 N 
HETATM   11  C   UNL     1      -7.240  -7.070 -16.707  1.00  0.00     0.159 C 
HETATM   12  O   UNL     1      -7.461  -7.809 -14.041  1.00  0.00    -0.267 OA
ENDBRANCH   1   2
BRANCH   1  13
HETATM   13  C   UNL     1     -12.515  -3.497 -12.360  1.00  0.00     0.261 C 
HETATM   14  N   UNL     1     -13.669  -3.220 -11.653  1.00  0.00    -0.321 N 
ATOM     15  HN  UNL     1     -14.412  -3.915 -11.718  1.00  0.00     0.169 HD
HETATM   16  O   UNL     1     -11.559  -2.777 -12.337  1.00  0.00    -0.267 OA
BRANCH  14  17
HETATM   17  C   UNL     1     -13.936  -2.120 -10.874  1.00  0.00     0.059 A 
HETATM   18  C   UNL     1     -14.465  -1.001 -11.489  1.00  0.00     0.076 A 
HETATM   19  C   UNL     1     -14.730   0.159 -10.770  1.00  0.00     0.113 A 
HETATM   20 CL   UNL     1     -14.797  -0.904 -13.170  1.00  0.00    -0.080 Cl
HETATM   21  N   UNL     1     -14.495   0.267  -9.434  1.00  0.00    -0.373 N 
HETATM   22  C   UNL     1     -13.954  -0.850  -8.779  1.00  0.00     0.090 A 
ATOM     23  HN  UNL     1     -14.704   1.128  -8.928  1.00  0.00     0.164 HD
HETATM   24  C   UNL     1     -13.668  -2.030  -9.455  1.00  0.00     0.048 A 
ENDBRANCH  14  17
ENDBRANCH   1  13
TORSDOF 3
ENDMDL
MODEL 20
REMARK VINA RESULT:    -5.381      6.718     10.187
REMARK INTER + INTRA:          -6.837
REMARK INTER:                  -6.457
REMARK INTRA:                  -0.379
REMARK UNBOUND:                -0.511
REMARK  3 active torsions:
REMARK  status: ('A' for Active; 'I' for Inactive)
REMARK    1  A    between atoms: N_8  and  C_9 
REMARK    2  A    between atoms: C_9  and  C_10 
REMARK       I    between atoms: C_10  and  N_20 
REMARK    3  A    between atoms: C_16  and  N_20 
ROOT
HETATM    1  C   UNL     1      -6.366  -7.126 -21.188  1.00  0.00     0.171 C 
ENDROOT
BRANCH   1   2
HETATM    2  N   UNL     1      -7.070  -6.111 -21.836  1.00  0.00    -0.326 N 
HETATM    3  C   UNL     1      -7.364  -4.836 -21.315  1.00  0.00     0.098 A 
HETATM    4  C   UNL     1      -8.044  -4.098 -22.251  1.00  0.00     0.037 A 
HETATM    5  C   UNL     1      -8.162  -4.924 -23.380  1.00  0.00     0.061 A 
HETATM    6  C   UNL     1      -7.579  -6.161 -23.117  1.00  0.00     0.055 A 
HETATM    7  C   UNL     1      -8.773  -4.581 -24.624  1.00  0.00     0.259 A 
HETATM    8  C   UNL     1      -7.595  -7.153 -24.121  1.00  0.00     0.048 A 
HETATM    9  C   UNL     1      -8.190  -6.861 -25.318  1.00  0.00     0.096 A 
HETATM   10  N   UNL     1      -8.783  -5.638 -25.588  1.00  0.00    -0.328 N 
HETATM   11  C   UNL     1      -9.423  -5.350 -26.923  1.00  0.00     0.159 C 
HETATM   12  O   UNL     1      -9.324  -3.506 -24.852  1.00  0.00    -0.267 OA
ENDBRANCH   1   2
BRANCH   1  13
HETATM   13  C   UNL     1      -6.167  -6.991 -19.715  1.00  0.00     0.261 C 
HETATM   14  N   UNL     1      -7.198  -7.395 -18.889  1.00  0.00    -0.321 N 
ATOM     15  HN  UNL     1      -8.022  -7.777 -19.355  1.00  0.00     0.169 HD
HETATM   16  O   UNL     1      -5.134  -6.561 -19.288  1.00  0.00    -0.267 OA
BRANCH  14  17
HETATM   17  C   UNL     1      -7.249  -7.346 -17.517  1.00  0.00     0.059 A 
HETATM   18  C   UNL     1      -7.287  -8.543 -16.825  1.00  0.00     0.076 A 
HETATM   19  C   UNL     1      -7.372  -8.570 -15.438  1.00  0.00     0.113 A 
HETATM   20 CL   UNL     1      -7.284 -10.082 -17.582  1.00  0.00    -0.080 Cl
HETATM   21  N   UNL     1      -7.418  -7.441 -14.681  1.00  0.00    -0.373 N 
HETATM   22  C   UNL     1      -7.386  -6.208 -15.352  1.00  0.00     0.090 A 
ATOM     23  HN  UNL     1      -7.474  -7.487 -13.663  1.00  0.00     0.164 HD
HETATM   24  C   UNL     1      -7.305  -6.129 -16.737  1.00  0.00     0.048 A 
ENDBRANCH  14  17
ENDBRANCH   1  13
TORSDOF 3
ENDMDL
