MODEL 1
REMARK VINA RESULT:    -6.009      0.000      0.000
REMARK INTER + INTRA:          -6.653
REMARK INTER:                  -6.361
REMARK INTRA:                  -0.292
REMARK UNBOUND:                -0.292
REMARK  1 active torsions:
REMARK  status: ('A' for Active; 'I' for Inactive)
REMARK       I    between atoms: N_2  and  C_4 
REMARK    1  A    between atoms: C_4  and  C_5 
ROOT
HETATM    1  C   UNL     1     -19.692  13.375  25.870  1.00  0.00     0.108 A 
HETATM    2  C   UNL     1     -21.032  12.844  25.944  1.00  0.00     0.125 A 
HETATM    3  C   UNL     1     -21.691  13.206  27.163  1.00  0.00     0.110 A 
HETATM    4  C   UNL     1     -20.885  13.920  28.012  1.00  0.00     0.090 A 
HETATM    5  S   UNL     1     -19.339  14.282  27.292  1.00  0.00    -0.091 SA
HETATM    6  O   UNL     1     -23.011  12.879  27.420  1.00  0.00    -0.346 OA
HETATM    7  C   UNL     1     -23.705  12.498  26.202  1.00  0.00     0.202 C 
HETATM    8  C   UNL     1     -22.911  11.547  25.375  1.00  0.00     0.202 C 
HETATM    9  O   UNL     1     -21.644  12.104  24.939  1.00  0.00    -0.345 OA
ENDROOT
BRANCH   1  10
HETATM   10  C   UNL     1     -18.693  13.302  24.788  1.00  0.00     0.261 C 
HETATM   11  O   UNL     1     -18.116  14.327  24.387  1.00  0.00    -0.267 OA
HETATM   12  N   UNL     1     -18.549  12.079  24.260  1.00  0.00    -0.361 N 
HETATM   13  C   UNL     1     -17.858  11.779  23.009  1.00  0.00     0.149 C 
ATOM     14  HN  UNL     1     -18.955  11.296  24.772  1.00  0.00     0.162 HD
ENDBRANCH   1  10
TORSDOF 1
ENDMDL
MODEL 2
REMARK VINA RESULT:    -5.574      2.731      3.377
REMARK INTER + INTRA:          -6.192
REMARK INTER:                  -6.076
REMARK INTRA:                  -0.116
REMARK UNBOUND:                -0.292
REMARK  1 active torsions:
REMARK  status: ('A' for Active; 'I' for Inactive)
REMARK       I    between atoms: N_2  and  C_4 
REMARK    1  A    between atoms: C_4  and  C_5 
ROOT
HETATM    1  C   UNL     1     -21.058  13.181  26.785  1.00  0.00     0.108 A 
HETATM    2  C   UNL     1     -22.429  13.302  27.220  1.00  0.00     0.125 A 
HETATM    3  C   UNL     1     -23.312  12.462  26.468  1.00  0.00     0.110 A 
HETATM    4  C   UNL     1     -22.672  11.778  25.467  1.00  0.00     0.090 A 
HETATM    5  S   UNL     1     -20.948  12.043  25.494  1.00  0.00    -0.091 SA
HETATM    6  O   UNL     1     -24.660  12.350  26.760  1.00  0.00    -0.346 OA
HETATM    7  C   UNL     1     -24.954  12.855  28.090  1.00  0.00     0.202 C 
HETATM    8  C   UNL     1     -24.302  14.169  28.349  1.00  0.00     0.202 C 
HETATM    9  O   UNL     1     -22.854  14.103  28.273  1.00  0.00    -0.345 OA
ENDROOT
BRANCH   1  10
HETATM   10  C   UNL     1     -19.830  13.805  27.309  1.00  0.00     0.261 C 
HETATM   11  O   UNL     1     -19.397  13.506  28.436  1.00  0.00    -0.267 OA
HETATM   12  N   UNL     1     -19.310  14.743  26.507  1.00  0.00    -0.361 N 
HETATM   13  C   UNL     1     -18.284  15.708  26.896  1.00  0.00     0.149 C 
ATOM     14  HN  UNL     1     -19.658  14.788  25.550  1.00  0.00     0.162 HD
ENDBRANCH   1  10
TORSDOF 1
ENDMDL
MODEL 3
REMARK VINA RESULT:    -5.498      3.089      5.418
REMARK INTER + INTRA:          -6.111
REMARK INTER:                  -5.801
REMARK INTRA:                  -0.310
REMARK UNBOUND:                -0.292
REMARK  1 active torsions:
REMARK  status: ('A' for Active; 'I' for Inactive)
REMARK       I    between atoms: N_2  and  C_4 
REMARK    1  A    between atoms: C_4  and  C_5 
ROOT
HETATM    1  C   UNL     1     -23.010  13.144  27.086  1.00  0.00     0.108 A 
HETATM    2  C   UNL     1     -21.570  13.208  27.157  1.00  0.00     0.125 A 
HETATM    3  C   UNL     1     -20.941  12.415  26.143  1.00  0.00     0.110 A 
HETATM    4  C   UNL     1     -21.842  11.725  25.373  1.00  0.00     0.090 A 
HETATM    5  S   UNL     1     -23.490  12.125  25.781  1.00  0.00    -0.091 SA
HETATM    6  O   UNL     1     -19.569  12.386  25.965  1.00  0.00    -0.346 OA
HETATM    7  C   UNL     1     -18.929  13.503  26.637  1.00  0.00     0.202 C 
HETATM    8  C   UNL     1     -19.437  13.691  28.025  1.00  0.00     0.202 C 
HETATM    9  O   UNL     1     -20.859  13.979  28.068  1.00  0.00    -0.345 OA
ENDROOT
BRANCH   1  10
HETATM   10  C   UNL     1     -24.038  13.839  27.882  1.00  0.00     0.261 C 
HETATM   11  O   UNL     1     -25.190  13.989  27.438  1.00  0.00    -0.267 OA
HETATM   12  N   UNL     1     -23.588  14.335  29.041  1.00  0.00    -0.361 N 
HETATM   13  C   UNL     1     -24.299  15.300  29.876  1.00  0.00     0.149 C 
ATOM     14  HN  UNL     1     -22.676  14.015  29.366  1.00  0.00     0.162 HD
ENDBRANCH   1  10
TORSDOF 1
ENDMDL
MODEL 4
REMARK VINA RESULT:    -5.428      2.273      3.416
REMARK INTER + INTRA:          -6.038
REMARK INTER:                  -5.738
REMARK INTRA:                  -0.300
REMARK UNBOUND:                -0.292
REMARK  1 active torsions:
REMARK  status: ('A' for Active; 'I' for Inactive)
REMARK       I    between atoms: N_2  and  C_4 
REMARK    1  A    between atoms: C_4  and  C_5 
ROOT
HETATM    1  C   UNL     1     -18.736  12.409  24.511  1.00  0.00     0.108 A 
HETATM    2  C   UNL     1     -19.041  13.620  25.234  1.00  0.00     0.125 A 
HETATM    3  C   UNL     1     -20.055  13.420  26.225  1.00  0.00     0.110 A 
HETATM    4  C   UNL     1     -20.553  12.142  26.225  1.00  0.00     0.090 A 
HETATM    5  S   UNL     1     -19.707  11.112  25.100  1.00  0.00    -0.091 SA
HETATM    6  O   UNL     1     -20.453  14.419  27.095  1.00  0.00    -0.346 OA
HETATM    7  C   UNL     1     -19.486  15.502  27.130  1.00  0.00     0.202 C 
HETATM    8  C   UNL     1     -19.051  15.913  25.765  1.00  0.00     0.202 C 
HETATM    9  O   UNL     1     -18.403  14.839  25.035  1.00  0.00    -0.345 OA
ENDROOT
BRANCH   1  10
HETATM   10  C   UNL     1     -17.732  12.148  23.463  1.00  0.00     0.261 C 
HETATM   11  O   UNL     1     -17.603  11.010  22.978  1.00  0.00    -0.267 OA
HETATM   12  N   UNL     1     -16.962  13.203  23.171  1.00  0.00    -0.361 N 
HETATM   13  C   UNL     1     -15.723  13.151  22.399  1.00  0.00     0.149 C 
ATOM     14  HN  UNL     1     -17.263  14.114  23.515  1.00  0.00     0.162 HD
ENDBRANCH   1  10
TORSDOF 1
ENDMDL
MODEL 5
REMARK VINA RESULT:    -5.228      3.968      5.967
REMARK INTER + INTRA:          -5.826
REMARK INTER:                  -5.703
REMARK INTRA:                  -0.122
REMARK UNBOUND:                -0.292
REMARK  1 active torsions:
REMARK  status: ('A' for Active; 'I' for Inactive)
REMARK       I    between atoms: N_2  and  C_4 
REMARK    1  A    between atoms: C_4  and  C_5 
ROOT
HETATM    1  C   UNL     1     -24.482  14.097  28.018  1.00  0.00     0.108 A 
HETATM    2  C   UNL     1     -23.842  13.282  27.013  1.00  0.00     0.125 A 
HETATM    3  C   UNL     1     -22.463  13.037  27.311  1.00  0.00     0.110 A 
HETATM    4  C   UNL     1     -22.043  13.679  28.447  1.00  0.00     0.090 A 
HETATM    5  S   UNL     1     -23.353  14.497  29.257  1.00  0.00    -0.091 SA
HETATM    6  O   UNL     1     -21.669  12.214  26.532  1.00  0.00    -0.346 OA
HETATM    7  C   UNL     1     -22.475  11.374  25.664  1.00  0.00     0.202 C 
HETATM    8  C   UNL     1     -23.549  12.143  24.975  1.00  0.00     0.202 C 
HETATM    9  O   UNL     1     -24.486  12.751  25.901  1.00  0.00    -0.345 OA
ENDROOT
BRANCH   1  10
HETATM   10  C   UNL     1     -25.884  14.536  28.142  1.00  0.00     0.261 C 
HETATM   11  O   UNL     1     -26.408  15.241  27.262  1.00  0.00    -0.267 OA
HETATM   12  N   UNL     1     -26.468  14.176  29.292  1.00  0.00    -0.361 N 
HETATM   13  C   UNL     1     -27.729  14.712  29.798  1.00  0.00     0.149 C 
ATOM     14  HN  UNL     1     -25.996  13.472  29.859  1.00  0.00     0.162 HD
ENDBRANCH   1  10
TORSDOF 1
ENDMDL
MODEL 6
REMARK VINA RESULT:    -4.956      3.938      5.362
REMARK INTER + INTRA:          -5.538
REMARK INTER:                  -5.429
REMARK INTRA:                  -0.109
REMARK UNBOUND:                -0.292
REMARK  1 active torsions:
REMARK  status: ('A' for Active; 'I' for Inactive)
REMARK       I    between atoms: N_2  and  C_4 
REMARK    1  A    between atoms: C_4  and  C_5 
ROOT
HETATM    1  C   UNL     1     -24.302  13.209  27.974  1.00  0.00     0.108 A 
HETATM    2  C   UNL     1     -25.202  14.277  28.337  1.00  0.00     0.125 A 
HETATM    3  C   UNL     1     -25.259  14.481  29.753  1.00  0.00     0.110 A 
HETATM    4  C   UNL     1     -24.498  13.578  30.451  1.00  0.00     0.090 A 
HETATM    5  S   UNL     1     -23.587  12.535  29.391  1.00  0.00    -0.091 SA
HETATM    6  O   UNL     1     -25.992  15.503  30.329  1.00  0.00    -0.346 OA
HETATM    7  C   UNL     1     -26.345  16.514  29.348  1.00  0.00     0.202 C 
HETATM    8  C   UNL     1     -26.870  15.917  28.088  1.00  0.00     0.202 C 
HETATM    9  O   UNL     1     -25.905  15.059  27.428  1.00  0.00    -0.345 OA
ENDROOT
BRANCH   1  10
HETATM   10  C   UNL     1     -23.899  12.707  26.648  1.00  0.00     0.261 C 
HETATM   11  O   UNL     1     -24.749  12.479  25.770  1.00  0.00    -0.267 OA
HETATM   12  N   UNL     1     -22.587  12.461  26.534  1.00  0.00    -0.361 N 
HETATM   13  C   UNL     1     -21.966  11.700  25.453  1.00  0.00     0.149 C 
ATOM     14  HN  UNL     1     -21.974  12.833  27.259  1.00  0.00     0.162 HD
ENDBRANCH   1  10
TORSDOF 1
ENDMDL
MODEL 7
REMARK VINA RESULT:    -4.773      4.004      5.451
REMARK INTER + INTRA:          -5.343
REMARK INTER:                  -5.048
REMARK INTRA:                  -0.296
REMARK UNBOUND:                -0.292
REMARK  1 active torsions:
REMARK  status: ('A' for Active; 'I' for Inactive)
REMARK       I    between atoms: N_2  and  C_4 
REMARK    1  A    between atoms: C_4  and  C_5 
ROOT
HETATM    1  C   UNL     1     -24.518  13.436  27.944  1.00  0.00     0.108 A 
HETATM    2  C   UNL     1     -24.336  13.078  29.330  1.00  0.00     0.125 A 
HETATM    3  C   UNL     1     -25.071  13.935  30.212  1.00  0.00     0.110 A 
HETATM    4  C   UNL     1     -25.730  14.939  29.550  1.00  0.00     0.090 A 
HETATM    5  S   UNL     1     -25.578  14.789  27.819  1.00  0.00    -0.091 SA
HETATM    6  O   UNL     1     -25.114  13.733  31.580  1.00  0.00    -0.346 OA
HETATM    7  C   UNL     1     -24.675  12.393  31.928  1.00  0.00     0.202 C 
HETATM    8  C   UNL     1     -23.423  12.009  31.217  1.00  0.00     0.202 C 
HETATM    9  O   UNL     1     -23.577  12.002  29.774  1.00  0.00    -0.345 OA
ENDROOT
BRANCH   1  10
HETATM   10  C   UNL     1     -24.006  12.798  26.717  1.00  0.00     0.261 C 
HETATM   11  O   UNL     1     -24.767  12.551  25.765  1.00  0.00    -0.267 OA
HETATM   12  N   UNL     1     -22.711  12.460  26.777  1.00  0.00    -0.361 N 
HETATM   13  C   UNL     1     -22.029  11.572  25.839  1.00  0.00     0.149 C 
ATOM     14  HN  UNL     1     -22.158  12.853  27.538  1.00  0.00     0.162 HD
ENDBRANCH   1  10
TORSDOF 1
ENDMDL
MODEL 8
REMARK VINA RESULT:    -4.515      6.942      8.846
REMARK INTER + INTRA:          -5.071
REMARK INTER:                  -4.765
REMARK INTRA:                  -0.306
REMARK UNBOUND:                -0.292
REMARK  1 active torsions:
REMARK  status: ('A' for Active; 'I' for Inactive)
REMARK       I    between atoms: N_2  and  C_4 
REMARK    1  A    between atoms: C_4  and  C_5 
ROOT
HETATM    1  C   UNL     1     -17.695  18.973  26.889  1.00  0.00     0.108 A 
HETATM    2  C   UNL     1     -16.594  19.673  26.272  1.00  0.00     0.125 A 
HETATM    3  C   UNL     1     -15.429  18.849  26.148  1.00  0.00     0.110 A 
HETATM    4  C   UNL     1     -15.598  17.604  26.696  1.00  0.00     0.090 A 
HETATM    5  S   UNL     1     -17.228  17.357  27.266  1.00  0.00    -0.091 SA
HETATM    6  O   UNL     1     -14.277  19.281  25.514  1.00  0.00    -0.346 OA
HETATM    7  C   UNL     1     -14.535  20.453  24.696  1.00  0.00     0.202 C 
HETATM    8  C   UNL     1     -15.345  21.475  25.417  1.00  0.00     0.202 C 
HETATM    9  O   UNL     1     -16.653  20.981  25.806  1.00  0.00    -0.345 OA
ENDROOT
BRANCH   1  10
HETATM   10  C   UNL     1     -19.078  19.410  27.154  1.00  0.00     0.261 C 
HETATM   11  O   UNL     1     -19.769  18.841  28.016  1.00  0.00    -0.267 OA
HETATM   12  N   UNL     1     -19.506  20.386  26.342  1.00  0.00    -0.361 N 
HETATM   13  C   UNL     1     -20.898  20.801  26.190  1.00  0.00     0.149 C 
ATOM     14  HN  UNL     1     -18.806  20.876  25.787  1.00  0.00     0.162 HD
ENDBRANCH   1  10
TORSDOF 1
ENDMDL
MODEL 9
REMARK VINA RESULT:    -4.448      6.778      8.613
REMARK INTER + INTRA:          -5.000
REMARK INTER:                  -4.884
REMARK INTRA:                  -0.117
REMARK UNBOUND:                -0.292
REMARK  1 active torsions:
REMARK  status: ('A' for Active; 'I' for Inactive)
REMARK       I    between atoms: N_2  and  C_4 
REMARK    1  A    between atoms: C_4  and  C_5 
ROOT
HETATM    1  C   UNL     1     -17.103  19.013  26.932  1.00  0.00     0.108 A 
HETATM    2  C   UNL     1     -16.133  19.705  26.119  1.00  0.00     0.125 A 
HETATM    3  C   UNL     1     -16.299  21.127  26.169  1.00  0.00     0.110 A 
HETATM    4  C   UNL     1     -17.376  21.510  26.926  1.00  0.00     0.090 A 
HETATM    5  S   UNL     1     -18.143  20.150  27.703  1.00  0.00    -0.091 SA
HETATM    6  O   UNL     1     -15.433  22.000  25.534  1.00  0.00    -0.346 OA
HETATM    7  C   UNL     1     -14.192  21.339  25.171  1.00  0.00     0.202 C 
HETATM    8  C   UNL     1     -14.426  20.015  24.529  1.00  0.00     0.202 C 
HETATM    9  O   UNL     1     -15.119  19.084  25.399  1.00  0.00    -0.345 OA
ENDROOT
BRANCH   1  10
HETATM   10  C   UNL     1     -17.261  17.574  27.216  1.00  0.00     0.261 C 
HETATM   11  O   UNL     1     -16.491  16.995  28.003  1.00  0.00    -0.267 OA
HETATM   12  N   UNL     1     -18.225  16.980  26.502  1.00  0.00    -0.361 N 
HETATM   13  C   UNL     1     -18.404  15.537  26.369  1.00  0.00     0.149 C 
ATOM     14  HN  UNL     1     -18.887  17.583  26.013  1.00  0.00     0.162 HD
ENDBRANCH   1  10
TORSDOF 1
ENDMDL
MODEL 10
REMARK VINA RESULT:    -4.447      2.263      5.055
REMARK INTER + INTRA:          -4.999
REMARK INTER:                  -4.961
REMARK INTRA:                  -0.038
REMARK UNBOUND:                -0.292
REMARK  1 active torsions:
REMARK  status: ('A' for Active; 'I' for Inactive)
REMARK       I    between atoms: N_2  and  C_4 
REMARK    1  A    between atoms: C_4  and  C_5 
ROOT
HETATM    1  C   UNL     1     -19.375  12.695  24.945  1.00  0.00     0.108 A 
HETATM    2  C   UNL     1     -18.301  12.528  23.996  1.00  0.00     0.125 A 
HETATM    3  C   UNL     1     -17.502  13.710  23.868  1.00  0.00     0.110 A 
HETATM    4  C   UNL     1     -17.970  14.752  24.626  1.00  0.00     0.090 A 
HETATM    5  S   UNL     1     -19.325  14.282  25.617  1.00  0.00    -0.091 SA
HETATM    6  O   UNL     1     -16.368  13.758  23.076  1.00  0.00    -0.346 OA
HETATM    7  C   UNL     1     -15.906  12.424  22.736  1.00  0.00     0.202 C 
HETATM    8  C   UNL     1     -17.019  11.541  22.287  1.00  0.00     0.202 C 
HETATM    9  O   UNL     1     -18.031  11.350  23.309  1.00  0.00    -0.345 OA
ENDROOT
BRANCH   1  10
HETATM   10  C   UNL     1     -20.385  11.734  25.425  1.00  0.00     0.261 C 
HETATM   11  O   UNL     1     -20.151  10.513  25.423  1.00  0.00    -0.267 OA
HETATM   12  N   UNL     1     -21.552  12.295  25.765  1.00  0.00    -0.361 N 
HETATM   13  C   UNL     1     -22.800  11.569  25.992  1.00  0.00     0.149 C 
ATOM     14  HN  UNL     1     -21.573  13.309  25.874  1.00  0.00     0.162 HD
ENDBRANCH   1  10
TORSDOF 1
ENDMDL
MODEL 11
REMARK VINA RESULT:    -4.424      7.757      8.723
REMARK INTER + INTRA:          -4.975
REMARK INTER:                  -4.669
REMARK INTRA:                  -0.306
REMARK UNBOUND:                -0.292
REMARK  1 active torsions:
REMARK  status: ('A' for Active; 'I' for Inactive)
REMARK       I    between atoms: N_2  and  C_4 
REMARK    1  A    between atoms: C_4  and  C_5 
ROOT
HETATM    1  C   UNL     1     -15.821  19.724  25.926  1.00  0.00     0.108 A 
HETATM    2  C   UNL     1     -16.937  20.173  26.723  1.00  0.00     0.125 A 
HETATM    3  C   UNL     1     -17.264  19.248  27.767  1.00  0.00     0.110 A 
HETATM    4  C   UNL     1     -16.488  18.118  27.738  1.00  0.00     0.090 A 
HETATM    5  S   UNL     1     -15.249  18.208  26.514  1.00  0.00    -0.091 SA
HETATM    6  O   UNL     1     -18.246  19.505  28.707  1.00  0.00    -0.346 OA
HETATM    7  C   UNL     1     -18.596  20.914  28.730  1.00  0.00     0.202 C 
HETATM    8  C   UNL     1     -18.795  21.468  27.361  1.00  0.00     0.202 C 
HETATM    9  O   UNL     1     -17.601  21.380  26.542  1.00  0.00    -0.345 OA
ENDROOT
BRANCH   1  10
HETATM   10  C   UNL     1     -15.122  20.379  24.805  1.00  0.00     0.261 C 
HETATM   11  O   UNL     1     -14.526  19.704  23.948  1.00  0.00    -0.267 OA
HETATM   12  N   UNL     1     -15.134  21.717  24.862  1.00  0.00    -0.361 N 
HETATM   13  C   UNL     1     -14.291  22.600  24.060  1.00  0.00     0.149 C 
ATOM     14  HN  UNL     1     -15.782  22.153  25.517  1.00  0.00     0.162 HD
ENDBRANCH   1  10
TORSDOF 1
ENDMDL
MODEL 12
REMARK VINA RESULT:    -4.325      6.522      8.390
REMARK INTER + INTRA:          -4.870
REMARK INTER:                  -4.754
REMARK INTRA:                  -0.115
REMARK UNBOUND:                -0.292
REMARK  1 active torsions:
REMARK  status: ('A' for Active; 'I' for Inactive)
REMARK       I    between atoms: N_2  and  C_4 
REMARK    1  A    between atoms: C_4  and  C_5 
ROOT
HETATM    1  C   UNL     1     -18.626  18.675  27.489  1.00  0.00     0.108 A 
HETATM    2  C   UNL     1     -17.247  19.060  27.676  1.00  0.00     0.125 A 
HETATM    3  C   UNL     1     -16.341  17.992  27.378  1.00  0.00     0.110 A 
HETATM    4  C   UNL     1     -16.983  16.828  27.043  1.00  0.00     0.090 A 
HETATM    5  S   UNL     1     -18.712  17.038  26.956  1.00  0.00    -0.091 SA
HETATM    6  O   UNL     1     -14.967  18.152  27.408  1.00  0.00    -0.346 OA
HETATM    7  C   UNL     1     -14.601  19.557  27.390  1.00  0.00     0.202 C 
HETATM    8  C   UNL     1     -15.407  20.362  28.351  1.00  0.00     0.202 C 
HETATM    9  O   UNL     1     -16.828  20.329  28.057  1.00  0.00    -0.345 OA
ENDROOT
BRANCH   1  10
HETATM   10  C   UNL     1     -19.865  19.464  27.619  1.00  0.00     0.261 C 
HETATM   11  O   UNL     1     -20.502  19.471  28.687  1.00  0.00    -0.267 OA
HETATM   12  N   UNL     1     -20.246  20.071  26.488  1.00  0.00    -0.361 N 
HETATM   13  C   UNL     1     -21.560  20.666  26.256  1.00  0.00     0.149 C 
ATOM     14  HN  UNL     1     -19.566  20.122  25.730  1.00  0.00     0.162 HD
ENDBRANCH   1  10
TORSDOF 1
ENDMDL
MODEL 13
REMARK VINA RESULT:    -4.242      1.885      4.399
REMARK INTER + INTRA:          -4.782
REMARK INTER:                  -4.473
REMARK INTRA:                  -0.309
REMARK UNBOUND:                -0.292
REMARK  1 active torsions:
REMARK  status: ('A' for Active; 'I' for Inactive)
REMARK       I    between atoms: N_2  and  C_4 
REMARK    1  A    between atoms: C_4  and  C_5 
ROOT
HETATM    1  C   UNL     1     -20.410  14.077  26.699  1.00  0.00     0.108 A 
HETATM    2  C   UNL     1     -19.677  13.510  25.592  1.00  0.00     0.125 A 
HETATM    3  C   UNL     1     -18.610  14.359  25.157  1.00  0.00     0.110 A 
HETATM    4  C   UNL     1     -18.560  15.545  25.844  1.00  0.00     0.090 A 
HETATM    5  S   UNL     1     -19.736  15.604  27.130  1.00  0.00    -0.091 SA
HETATM    6  O   UNL     1     -17.722  13.987  24.163  1.00  0.00    -0.346 OA
HETATM    7  C   UNL     1     -17.771  12.556  23.923  1.00  0.00     0.202 C 
HETATM    8  C   UNL     1     -19.169  12.051  23.818  1.00  0.00     0.202 C 
HETATM    9  O   UNL     1     -19.936  12.265  25.031  1.00  0.00    -0.345 OA
ENDROOT
BRANCH   1  10
HETATM   10  C   UNL     1     -21.528  13.527  27.487  1.00  0.00     0.261 C 
HETATM   11  O   UNL     1     -21.558  13.659  28.723  1.00  0.00    -0.267 OA
HETATM   12  N   UNL     1     -22.418  12.836  26.763  1.00  0.00    -0.361 N 
HETATM   13  C   UNL     1     -23.446  11.956  27.312  1.00  0.00     0.149 C 
ATOM     14  HN  UNL     1     -22.374  12.931  25.749  1.00  0.00     0.162 HD
ENDBRANCH   1  10
TORSDOF 1
ENDMDL
MODEL 14
REMARK VINA RESULT:    -4.227      6.866      7.795
REMARK INTER + INTRA:          -4.766
REMARK INTER:                  -4.643
REMARK INTRA:                  -0.122
REMARK UNBOUND:                -0.292
REMARK  1 active torsions:
REMARK  status: ('A' for Active; 'I' for Inactive)
REMARK       I    between atoms: N_2  and  C_4 
REMARK    1  A    between atoms: C_4  and  C_5 
ROOT
HETATM    1  C   UNL     1     -16.703  20.241  26.651  1.00  0.00     0.108 A 
HETATM    2  C   UNL     1     -17.273  18.939  26.901  1.00  0.00     0.125 A 
HETATM    3  C   UNL     1     -18.601  19.022  27.432  1.00  0.00     0.110 A 
HETATM    4  C   UNL     1     -19.010  20.313  27.642  1.00  0.00     0.090 A 
HETATM    5  S   UNL     1     -17.834  21.470  27.077  1.00  0.00    -0.091 SA
HETATM    6  O   UNL     1     -19.376  17.901  27.673  1.00  0.00    -0.346 OA
HETATM    7  C   UNL     1     -18.847  16.737  26.984  1.00  0.00     0.202 C 
HETATM    8  C   UNL     1     -17.373  16.603  27.157  1.00  0.00     0.202 C 
HETATM    9  O   UNL     1     -16.639  17.734  26.622  1.00  0.00    -0.345 OA
ENDROOT
BRANCH   1  10
HETATM   10  C   UNL     1     -15.406  20.620  26.061  1.00  0.00     0.261 C 
HETATM   11  O   UNL     1     -14.339  20.259  26.589  1.00  0.00    -0.267 OA
HETATM   12  N   UNL     1     -15.506  21.424  24.995  1.00  0.00    -0.361 N 
HETATM   13  C   UNL     1     -14.401  22.174  24.401  1.00  0.00     0.149 C 
ATOM     14  HN  UNL     1     -16.425  21.521  24.564  1.00  0.00     0.162 HD
ENDBRANCH   1  10
TORSDOF 1
ENDMDL
MODEL 15
REMARK VINA RESULT:    -4.195     12.263     12.765
REMARK INTER + INTRA:          -4.732
REMARK INTER:                  -4.610
REMARK INTRA:                  -0.122
REMARK UNBOUND:                -0.292
REMARK  1 active torsions:
REMARK  status: ('A' for Active; 'I' for Inactive)
REMARK       I    between atoms: N_2  and  C_4 
REMARK    1  A    between atoms: C_4  and  C_5 
ROOT
HETATM    1  C   UNL     1     -30.997  16.839  20.934  1.00  0.00     0.108 A 
HETATM    2  C   UNL     1     -30.676  15.821  19.962  1.00  0.00     0.125 A 
HETATM    3  C   UNL     1     -31.226  14.545  20.311  1.00  0.00     0.110 A 
HETATM    4  C   UNL     1     -31.879  14.560  21.517  1.00  0.00     0.090 A 
HETATM    5  S   UNL     1     -31.952  16.163  22.200  1.00  0.00    -0.091 SA
HETATM    6  O   UNL     1     -31.118  13.439  19.488  1.00  0.00    -0.346 OA
HETATM    7  C   UNL     1     -30.747  13.822  18.137  1.00  0.00     0.202 C 
HETATM    8  C   UNL     1     -29.627  14.805  18.118  1.00  0.00     0.202 C 
HETATM    9  O   UNL     1     -29.957  16.045  18.795  1.00  0.00    -0.345 OA
ENDROOT
BRANCH   1  10
HETATM   10  C   UNL     1     -30.692  18.281  20.945  1.00  0.00     0.261 C 
HETATM   11  O   UNL     1     -29.518  18.682  20.871  1.00  0.00    -0.267 OA
HETATM   12  N   UNL     1     -31.765  19.064  21.117  1.00  0.00    -0.361 N 
HETATM   13  C   UNL     1     -31.724  20.485  21.452  1.00  0.00     0.149 C 
ATOM     14  HN  UNL     1     -32.683  18.634  21.007  1.00  0.00     0.162 HD
ENDBRANCH   1  10
TORSDOF 1
ENDMDL
MODEL 16
REMARK VINA RESULT:    -4.166      7.809      8.998
REMARK INTER + INTRA:          -4.701
REMARK INTER:                  -4.391
REMARK INTRA:                  -0.311
REMARK UNBOUND:                -0.292
REMARK  1 active torsions:
REMARK  status: ('A' for Active; 'I' for Inactive)
REMARK       I    between atoms: N_2  and  C_4 
REMARK    1  A    between atoms: C_4  and  C_5 
ROOT
HETATM    1  C   UNL     1     -14.712  20.436  26.738  1.00  0.00     0.108 A 
HETATM    2  C   UNL     1     -15.606  19.345  27.044  1.00  0.00     0.125 A 
HETATM    3  C   UNL     1     -16.910  19.539  26.484  1.00  0.00     0.110 A 
HETATM    4  C   UNL     1     -17.037  20.741  25.837  1.00  0.00     0.090 A 
HETATM    5  S   UNL     1     -15.529  21.615  25.782  1.00  0.00    -0.091 SA
HETATM    6  O   UNL     1     -17.909  18.586  26.578  1.00  0.00    -0.346 OA
HETATM    7  C   UNL     1     -17.366  17.290  26.945  1.00  0.00     0.202 C 
HETATM    8  C   UNL     1     -16.399  17.384  28.075  1.00  0.00     0.202 C 
HETATM    9  O   UNL     1     -15.248  18.209  27.761  1.00  0.00    -0.345 OA
ENDROOT
BRANCH   1  10
HETATM   10  C   UNL     1     -13.285  20.621  27.057  1.00  0.00     0.261 C 
HETATM   11  O   UNL     1     -12.578  21.387  26.380  1.00  0.00    -0.267 OA
HETATM   12  N   UNL     1     -12.844  19.846  28.056  1.00  0.00    -0.361 N 
HETATM   13  C   UNL     1     -11.440  19.613  28.383  1.00  0.00     0.149 C 
ATOM     14  HN  UNL     1     -13.544  19.380  28.633  1.00  0.00     0.162 HD
ENDBRANCH   1  10
TORSDOF 1
ENDMDL
MODEL 17
REMARK VINA RESULT:    -4.165      5.387      6.625
REMARK INTER + INTRA:          -4.700
REMARK INTER:                  -4.582
REMARK INTRA:                  -0.118
REMARK UNBOUND:                -0.292
REMARK  1 active torsions:
REMARK  status: ('A' for Active; 'I' for Inactive)
REMARK       I    between atoms: N_2  and  C_4 
REMARK    1  A    between atoms: C_4  and  C_5 
ROOT
HETATM    1  C   UNL     1     -18.123  17.285  27.195  1.00  0.00     0.108 A 
HETATM    2  C   UNL     1     -18.604  18.526  27.754  1.00  0.00     0.125 A 
HETATM    3  C   UNL     1     -17.538  19.434  28.056  1.00  0.00     0.110 A 
HETATM    4  C   UNL     1     -16.300  18.901  27.806  1.00  0.00     0.090 A 
HETATM    5  S   UNL     1     -16.404  17.322  27.074  1.00  0.00    -0.091 SA
HETATM    6  O   UNL     1     -17.764  20.716  28.525  1.00  0.00    -0.346 OA
HETATM    7  C   UNL     1     -19.140  21.123  28.300  1.00  0.00     0.202 C 
HETATM    8  C   UNL     1     -20.112  20.067  28.697  1.00  0.00     0.202 C 
HETATM    9  O   UNL     1     -19.945  18.838  27.942  1.00  0.00    -0.345 OA
ENDROOT
BRANCH   1  10
HETATM   10  C   UNL     1     -18.863  16.113  26.692  1.00  0.00     0.261 C 
HETATM   11  O   UNL     1     -19.733  15.565  27.390  1.00  0.00    -0.267 OA
HETATM   12  N   UNL     1     -18.450  15.681  25.494  1.00  0.00    -0.361 N 
HETATM   13  C   UNL     1     -18.798  14.393  24.898  1.00  0.00     0.149 C 
ATOM     14  HN  UNL     1     -17.845  16.300  24.954  1.00  0.00     0.162 HD
ENDBRANCH   1  10
TORSDOF 1
ENDMDL
MODEL 18
REMARK VINA RESULT:    -4.108      6.321      7.364
REMARK INTER + INTRA:          -4.640
REMARK INTER:                  -4.447
REMARK INTRA:                  -0.193
REMARK UNBOUND:                -0.292
REMARK  1 active torsions:
REMARK  status: ('A' for Active; 'I' for Inactive)
REMARK       I    between atoms: N_2  and  C_4 
REMARK    1  A    between atoms: C_4  and  C_5 
ROOT
HETATM    1  C   UNL     1     -16.907  18.402  26.827  1.00  0.00     0.108 A 
HETATM    2  C   UNL     1     -18.033  19.241  27.161  1.00  0.00     0.125 A 
HETATM    3  C   UNL     1     -19.198  18.478  27.495  1.00  0.00     0.110 A 
HETATM    4  C   UNL     1     -19.004  17.127  27.363  1.00  0.00     0.090 A 
HETATM    5  S   UNL     1     -17.354  16.742  26.952  1.00  0.00    -0.091 SA
HETATM    6  O   UNL     1     -20.374  19.066  27.927  1.00  0.00    -0.346 OA
HETATM    7  C   UNL     1     -20.151  20.436  28.352  1.00  0.00     0.202 C 
HETATM    8  C   UNL     1     -19.320  21.199  27.379  1.00  0.00     0.202 C 
HETATM    9  O   UNL     1     -17.996  20.630  27.203  1.00  0.00    -0.345 OA
ENDROOT
BRANCH   1  10
HETATM   10  C   UNL     1     -15.518  18.757  26.486  1.00  0.00     0.261 C 
HETATM   11  O   UNL     1     -14.582  18.463  27.250  1.00  0.00    -0.267 OA
HETATM   12  N   UNL     1     -15.398  19.469  25.358  1.00  0.00    -0.361 N 
HETATM   13  C   UNL     1     -14.197  20.190  24.943  1.00  0.00     0.149 C 
ATOM     14  HN  UNL     1     -16.209  19.512  24.741  1.00  0.00     0.162 HD
ENDBRANCH   1  10
TORSDOF 1
ENDMDL
MODEL 19
REMARK VINA RESULT:    -4.098      7.621      9.524
REMARK INTER + INTRA:          -4.629
REMARK INTER:                  -4.597
REMARK INTRA:                  -0.033
REMARK UNBOUND:                -0.292
REMARK  1 active torsions:
REMARK  status: ('A' for Active; 'I' for Inactive)
REMARK       I    between atoms: N_2  and  C_4 
REMARK    1  A    between atoms: C_4  and  C_5 
ROOT
HETATM    1  C   UNL     1     -16.147  19.205  26.996  1.00  0.00     0.108 A 
HETATM    2  C   UNL     1     -14.865  19.836  27.194  1.00  0.00     0.125 A 
HETATM    3  C   UNL     1     -14.818  21.155  26.638  1.00  0.00     0.110 A 
HETATM    4  C   UNL     1     -15.976  21.500  25.989  1.00  0.00     0.090 A 
HETATM    5  S   UNL     1     -17.204  20.272  26.150  1.00  0.00    -0.091 SA
HETATM    6  O   UNL     1     -13.718  21.983  26.777  1.00  0.00    -0.346 OA
HETATM    7  C   UNL     1     -12.839  21.515  27.834  1.00  0.00     0.202 C 
HETATM    8  C   UNL     1     -12.588  20.048  27.750  1.00  0.00     0.202 C 
HETATM    9  O   UNL     1     -13.802  19.263  27.881  1.00  0.00    -0.345 OA
ENDROOT
BRANCH   1  10
HETATM   10  C   UNL     1     -16.648  17.894  27.449  1.00  0.00     0.261 C 
HETATM   11  O   UNL     1     -16.172  17.348  28.459  1.00  0.00    -0.267 OA
HETATM   12  N   UNL     1     -17.568  17.353  26.641  1.00  0.00    -0.361 N 
HETATM   13  C   UNL     1     -18.015  15.963  26.687  1.00  0.00     0.149 C 
ATOM     14  HN  UNL     1     -17.990  17.959  25.937  1.00  0.00     0.162 HD
ENDBRANCH   1  10
TORSDOF 1
ENDMDL
MODEL 20
REMARK VINA RESULT:    -4.037      6.395      7.666
REMARK INTER + INTRA:          -4.565
REMARK INTER:                  -4.259
REMARK INTRA:                  -0.306
REMARK UNBOUND:                -0.292
REMARK  1 active torsions:
REMARK  status: ('A' for Active; 'I' for Inactive)
REMARK       I    between atoms: N_2  and  C_4 
REMARK    1  A    between atoms: C_4  and  C_5 
ROOT
HETATM    1  C   UNL     1     -18.169  20.129  26.886  1.00  0.00     0.108 A 
HETATM    2  C   UNL     1     -18.194  18.688  26.800  1.00  0.00     0.125 A 
HETATM    3  C   UNL     1     -16.882  18.118  26.871  1.00  0.00     0.110 A 
HETATM    4  C   UNL     1     -15.894  19.066  26.940  1.00  0.00     0.090 A 
HETATM    5  S   UNL     1     -16.544  20.680  27.052  1.00  0.00    -0.091 SA
HETATM    6  O   UNL     1     -16.665  16.752  26.890  1.00  0.00    -0.346 OA
HETATM    7  C   UNL     1     -17.883  16.030  27.215  1.00  0.00     0.202 C 
HETATM    8  C   UNL     1     -19.055  16.528  26.441  1.00  0.00     0.202 C 
HETATM    9  O   UNL     1     -19.351  17.924  26.706  1.00  0.00    -0.345 OA
ENDROOT
BRANCH   1  10
HETATM   10  C   UNL     1     -19.274  21.104  26.915  1.00  0.00     0.261 C 
HETATM   11  O   UNL     1     -19.265  22.049  27.723  1.00  0.00    -0.267 OA
HETATM   12  N   UNL     1     -20.274  20.820  26.071  1.00  0.00    -0.361 N 
HETATM   13  C   UNL     1     -21.598  21.439  26.098  1.00  0.00     0.149 C 
ATOM     14  HN  UNL     1     -20.099  20.117  25.355  1.00  0.00     0.162 HD
ENDBRANCH   1  10
TORSDOF 1
ENDMDL
