MODEL 1
REMARK VINA RESULT:    -9.449      0.000      0.000
REMARK INTER + INTRA:         -12.246
REMARK INTER:                 -11.658
REMARK INTRA:                  -0.588
REMARK UNBOUND:                -0.588
REMARK  4 active torsions:
REMARK  status: ('A' for Active; 'I' for Inactive)
REMARK    1  A    between atoms: C_4  and  C_8 
REMARK    2  A    between atoms: C_6  and  O_10 
REMARK    3  A    between atoms: C_11  and  C_12 
REMARK    4  A    between atoms: C_12  and  C_13 
ROOT
HETATM    1  C   UNL     1      18.573 -12.082   3.168  1.00  0.00     0.013 A 
HETATM    2  C   UNL     1      18.797 -11.148   2.167  1.00  0.00     0.016 A 
HETATM    3  C   UNL     1      19.507 -12.304   4.195  1.00  0.00    -0.023 A 
HETATM    4  C   UNL     1      20.575  -9.397   1.328  1.00  0.00    -0.013 A 
HETATM    5  C   UNL     1      21.760  -9.117   1.892  1.00  0.00     0.151 A 
HETATM    6  C   UNL     1      20.881 -10.631   3.203  1.00  0.00     0.086 A 
HETATM    7  C   UNL     1      20.689 -11.553   4.205  1.00  0.00     0.050 A 
HETATM    8  C   UNL     1      19.979 -10.403   2.176  1.00  0.00     0.006 A 
HETATM    9  O   UNL     1      21.993  -9.840   3.039  1.00  0.00    -0.321 OA
ENDROOT
BRANCH   3  10
HETATM   10  C   UNL     1      19.270 -13.322   5.249  1.00  0.00    -0.023 A 
HETATM   11  C   UNL     1      19.585 -13.063   6.584  1.00  0.00     0.012 A 
HETATM   12  C   UNL     1      19.437 -14.045   7.550  1.00  0.00     0.004 A 
HETATM   13  C   UNL     1      18.949 -15.297   7.204  1.00  0.00     0.037 A 
HETATM   14  C   UNL     1      18.594 -15.546   5.879  1.00  0.00     0.069 A 
HETATM   15  C   UNL     1      18.757 -14.574   4.909  1.00  0.00     0.049 A 
BRANCH  14  16
HETATM   16  O   UNL     1      17.997 -16.738   5.527  1.00  0.00    -0.356 OA
HETATM   17  C   UNL     1      17.969 -17.091   4.135  1.00  0.00     0.210 C 
ENDBRANCH  14  16
ENDBRANCH   3  10
BRANCH   4  18
HETATM   18  C   UNL     1      19.992  -8.787   0.096  1.00  0.00     0.154 C 
BRANCH  18  19
HETATM   19  C   UNL     1      19.129  -7.592   0.395  1.00  0.00     0.177 C 
HETATM   20  O   UNL     1      19.584  -6.481   0.388  1.00  0.00    -0.648 OA
HETATM   21  O   UNL     1      17.889  -7.889   0.729  1.00  0.00    -0.648 OA
ENDBRANCH  18  19
ENDBRANCH   4  18
TORSDOF 4
ENDMDL
MODEL 2
REMARK VINA RESULT:    -9.004      1.110      2.002
REMARK INTER + INTRA:         -11.697
REMARK INTER:                 -11.096
REMARK INTRA:                  -0.601
REMARK UNBOUND:                -0.588
REMARK  4 active torsions:
REMARK  status: ('A' for Active; 'I' for Inactive)
REMARK    1  A    between atoms: C_4  and  C_8 
REMARK    2  A    between atoms: C_6  and  O_10 
REMARK    3  A    between atoms: C_11  and  C_12 
REMARK    4  A    between atoms: C_12  and  C_13 
ROOT
HETATM    1  C   UNL     1      20.660 -11.406   3.788  1.00  0.00     0.013 A 
HETATM    2  C   UNL     1      20.854 -10.507   2.749  1.00  0.00     0.016 A 
HETATM    3  C   UNL     1      19.472 -12.146   3.913  1.00  0.00    -0.023 A 
HETATM    4  C   UNL     1      19.659  -9.501   0.631  1.00  0.00    -0.013 A 
HETATM    5  C   UNL     1      18.432  -9.800   0.178  1.00  0.00     0.151 A 
HETATM    6  C   UNL     1      18.688 -11.078   1.934  1.00  0.00     0.086 A 
HETATM    7  C   UNL     1      18.466 -11.973   2.956  1.00  0.00     0.050 A 
HETATM    8  C   UNL     1      19.848 -10.332   1.797  1.00  0.00     0.006 A 
HETATM    9  O   UNL     1      17.799 -10.758   0.937  1.00  0.00    -0.321 OA
ENDROOT
BRANCH   3  10
HETATM   10  C   UNL     1      19.263 -13.089   5.041  1.00  0.00    -0.023 A 
HETATM   11  C   UNL     1      19.526 -12.705   6.358  1.00  0.00     0.012 A 
HETATM   12  C   UNL     1      19.406 -13.614   7.397  1.00  0.00     0.004 A 
HETATM   13  C   UNL     1      19.000 -14.916   7.143  1.00  0.00     0.037 A 
HETATM   14  C   UNL     1      18.697 -15.291   5.835  1.00  0.00     0.069 A 
HETATM   15  C   UNL     1      18.832 -14.392   4.793  1.00  0.00     0.049 A 
BRANCH  14  16
HETATM   16  O   UNL     1      18.179 -16.540   5.569  1.00  0.00    -0.356 OA
HETATM   17  C   UNL     1      18.039 -16.930   4.193  1.00  0.00     0.210 C 
ENDBRANCH  14  16
ENDBRANCH   3  10
BRANCH   4  18
HETATM   18  C   UNL     1      20.630  -8.530   0.043  1.00  0.00     0.154 C 
BRANCH  18  19
HETATM   19  C   UNL     1      20.758  -7.274   0.861  1.00  0.00     0.177 C 
HETATM   20  O   UNL     1      19.922  -6.414   0.814  1.00  0.00    -0.648 OA
HETATM   21  O   UNL     1      21.880  -7.189   1.549  1.00  0.00    -0.648 OA
ENDBRANCH  18  19
ENDBRANCH   4  18
TORSDOF 4
ENDMDL
MODEL 3
REMARK VINA RESULT:    -8.999      1.502      7.314
REMARK INTER + INTRA:         -11.690
REMARK INTER:                 -11.336
REMARK INTRA:                  -0.354
REMARK UNBOUND:                -0.588
REMARK  4 active torsions:
REMARK  status: ('A' for Active; 'I' for Inactive)
REMARK    1  A    between atoms: C_4  and  C_8 
REMARK    2  A    between atoms: C_6  and  O_10 
REMARK    3  A    between atoms: C_11  and  C_12 
REMARK    4  A    between atoms: C_12  and  C_13 
ROOT
HETATM    1  C   UNL     1      18.971 -12.626   3.131  1.00  0.00     0.013 A 
HETATM    2  C   UNL     1      18.453 -13.621   3.947  1.00  0.00     0.016 A 
HETATM    3  C   UNL     1      19.963 -11.739   3.583  1.00  0.00    -0.023 A 
HETATM    4  C   UNL     1      18.635 -14.605   6.382  1.00  0.00    -0.013 A 
HETATM    5  C   UNL     1      19.438 -14.176   7.368  1.00  0.00     0.151 A 
HETATM    6  C   UNL     1      19.914 -12.874   5.677  1.00  0.00     0.086 A 
HETATM    7  C   UNL     1      20.442 -11.875   4.891  1.00  0.00     0.050 A 
HETATM    8  C   UNL     1      18.929 -13.752   5.254  1.00  0.00     0.006 A 
HETATM    9  O   UNL     1      20.239 -13.124   6.988  1.00  0.00    -0.321 OA
ENDROOT
BRANCH   3  10
HETATM   10  C   UNL     1      20.494 -10.663   2.710  1.00  0.00    -0.023 A 
HETATM   11  C   UNL     1      21.689 -10.009   3.019  1.00  0.00     0.012 A 
HETATM   12  C   UNL     1      22.138  -8.952   2.245  1.00  0.00     0.004 A 
HETATM   13  C   UNL     1      21.414  -8.541   1.135  1.00  0.00     0.037 A 
HETATM   14  C   UNL     1      20.242  -9.218   0.800  1.00  0.00     0.069 A 
HETATM   15  C   UNL     1      19.781 -10.264   1.580  1.00  0.00     0.049 A 
BRANCH  14  16
HETATM   16  O   UNL     1      19.565  -8.911  -0.362  1.00  0.00    -0.356 OA
HETATM   17  C   UNL     1      18.129  -8.915  -0.324  1.00  0.00     0.210 C 
ENDBRANCH  14  16
ENDBRANCH   3  10
BRANCH   4  18
HETATM   18  C   UNL     1      17.659 -15.734   6.435  1.00  0.00     0.154 C 
BRANCH  18  19
HETATM   19  C   UNL     1      17.935 -16.787   5.397  1.00  0.00     0.177 C 
HETATM   20  O   UNL     1      17.062 -17.506   4.994  1.00  0.00    -0.648 OA
HETATM   21  O   UNL     1      19.202 -16.884   5.048  1.00  0.00    -0.648 OA
ENDBRANCH  18  19
ENDBRANCH   4  18
TORSDOF 4
ENDMDL
MODEL 4
REMARK VINA RESULT:    -8.905      0.455      0.455
REMARK INTER + INTRA:         -11.574
REMARK INTER:                 -11.010
REMARK INTRA:                  -0.564
REMARK UNBOUND:                -0.588
REMARK  4 active torsions:
REMARK  status: ('A' for Active; 'I' for Inactive)
REMARK    1  A    between atoms: C_4  and  C_8 
REMARK    2  A    between atoms: C_6  and  O_10 
REMARK    3  A    between atoms: C_11  and  C_12 
REMARK    4  A    between atoms: C_12  and  C_13 
ROOT
HETATM    1  C   UNL     1      18.391 -11.793   3.266  1.00  0.00     0.013 A 
HETATM    2  C   UNL     1      18.525 -10.850   2.258  1.00  0.00     0.016 A 
HETATM    3  C   UNL     1      19.461 -12.126   4.115  1.00  0.00    -0.023 A 
HETATM    4  C   UNL     1      20.285  -9.231   1.157  1.00  0.00    -0.013 A 
HETATM    5  C   UNL     1      21.569  -9.070   1.515  1.00  0.00     0.151 A 
HETATM    6  C   UNL     1      20.792 -10.545   2.931  1.00  0.00     0.086 A 
HETATM    7  C   UNL     1      20.690 -11.480   3.936  1.00  0.00     0.050 A 
HETATM    8  C   UNL     1      19.753 -10.209   2.078  1.00  0.00     0.006 A 
HETATM    9  O   UNL     1      21.927  -9.848   2.592  1.00  0.00    -0.321 OA
ENDROOT
BRANCH   3  10
HETATM   10  C   UNL     1      19.315 -13.154   5.176  1.00  0.00    -0.023 A 
HETATM   11  C   UNL     1      19.481 -12.826   6.523  1.00  0.00     0.012 A 
HETATM   12  C   UNL     1      19.423 -13.804   7.502  1.00  0.00     0.004 A 
HETATM   13  C   UNL     1      19.177 -15.125   7.156  1.00  0.00     0.037 A 
HETATM   14  C   UNL     1      18.970 -15.449   5.817  1.00  0.00     0.069 A 
HETATM   15  C   UNL     1      19.043 -14.478   4.834  1.00  0.00     0.049 A 
BRANCH  14  16
HETATM   16  O   UNL     1      18.607 -16.729   5.456  1.00  0.00    -0.356 OA
HETATM   17  C   UNL     1      17.231 -16.967   5.112  1.00  0.00     0.210 C 
ENDBRANCH  14  16
ENDBRANCH   3  10
BRANCH   4  18
HETATM   18  C   UNL     1      19.559  -8.535   0.053  1.00  0.00     0.154 C 
BRANCH  18  19
HETATM   19  C   UNL     1      18.867  -7.282   0.517  1.00  0.00     0.177 C 
HETATM   20  O   UNL     1      19.448  -6.233   0.566  1.00  0.00    -0.648 OA
HETATM   21  O   UNL     1      17.626  -7.467   0.921  1.00  0.00    -0.648 OA
ENDBRANCH  18  19
ENDBRANCH   4  18
TORSDOF 4
ENDMDL
MODEL 5
REMARK VINA RESULT:    -7.950      1.795      7.401
REMARK INTER + INTRA:         -10.396
REMARK INTER:                 -10.069
REMARK INTRA:                  -0.328
REMARK UNBOUND:                -0.588
REMARK  4 active torsions:
REMARK  status: ('A' for Active; 'I' for Inactive)
REMARK    1  A    between atoms: C_4  and  C_8 
REMARK    2  A    between atoms: C_6  and  O_10 
REMARK    3  A    between atoms: C_11  and  C_12 
REMARK    4  A    between atoms: C_12  and  C_13 
ROOT
HETATM    1  C   UNL     1      21.075 -11.483   4.534  1.00  0.00     0.013 A 
HETATM    2  C   UNL     1      20.677 -12.551   5.324  1.00  0.00     0.016 A 
HETATM    3  C   UNL     1      20.409 -11.158   3.340  1.00  0.00    -0.023 A 
HETATM    4  C   UNL     1      18.905 -14.494   5.441  1.00  0.00    -0.013 A 
HETATM    5  C   UNL     1      17.937 -14.758   4.550  1.00  0.00     0.151 A 
HETATM    6  C   UNL     1      18.936 -12.983   3.755  1.00  0.00     0.086 A 
HETATM    7  C   UNL     1      19.311 -11.933   2.948  1.00  0.00     0.050 A 
HETATM    8  C   UNL     1      19.584 -13.326   4.930  1.00  0.00     0.006 A 
HETATM    9  O   UNL     1      17.912 -13.864   3.505  1.00  0.00    -0.321 OA
ENDROOT
BRANCH   3  10
HETATM   10  C   UNL     1      20.856 -10.027   2.488  1.00  0.00    -0.023 A 
HETATM   11  C   UNL     1      22.135  -9.483   2.626  1.00  0.00     0.012 A 
HETATM   12  C   UNL     1      22.517  -8.377   1.884  1.00  0.00     0.004 A 
HETATM   13  C   UNL     1      21.638  -7.808   0.975  1.00  0.00     0.037 A 
HETATM   14  C   UNL     1      20.376  -8.374   0.804  1.00  0.00     0.069 A 
HETATM   15  C   UNL     1      19.983  -9.467   1.555  1.00  0.00     0.049 A 
BRANCH  14  16
HETATM   16  O   UNL     1      19.526  -7.904  -0.174  1.00  0.00    -0.356 OA
HETATM   17  C   UNL     1      18.193  -8.440  -0.222  1.00  0.00     0.210 C 
ENDBRANCH  14  16
ENDBRANCH   3  10
BRANCH   4  18
HETATM   18  C   UNL     1      19.206 -15.241   6.699  1.00  0.00     0.154 C 
BRANCH  18  19
HETATM   19  C   UNL     1      19.445 -14.327   7.870  1.00  0.00     0.177 C 
HETATM   20  O   UNL     1      20.336 -14.534   8.648  1.00  0.00    -0.648 OA
HETATM   21  O   UNL     1      18.561 -13.357   7.990  1.00  0.00    -0.648 OA
ENDBRANCH  18  19
ENDBRANCH   4  18
TORSDOF 4
ENDMDL
MODEL 6
REMARK VINA RESULT:    -7.928      1.029      1.895
REMARK INTER + INTRA:         -10.369
REMARK INTER:                  -9.795
REMARK INTRA:                  -0.574
REMARK UNBOUND:                -0.588
REMARK  4 active torsions:
REMARK  status: ('A' for Active; 'I' for Inactive)
REMARK    1  A    between atoms: C_4  and  C_8 
REMARK    2  A    between atoms: C_6  and  O_10 
REMARK    3  A    between atoms: C_11  and  C_12 
REMARK    4  A    between atoms: C_12  and  C_13 
ROOT
HETATM    1  C   UNL     1      18.415 -12.116   2.649  1.00  0.00     0.013 A 
HETATM    2  C   UNL     1      18.725 -11.080   1.782  1.00  0.00     0.016 A 
HETATM    3  C   UNL     1      19.259 -12.465   3.718  1.00  0.00    -0.023 A 
HETATM    4  C   UNL     1      20.574  -9.270   1.294  1.00  0.00    -0.013 A 
HETATM    5  C   UNL     1      21.710  -9.071   1.981  1.00  0.00     0.151 A 
HETATM    6  C   UNL     1      20.719 -10.710   3.036  1.00  0.00     0.086 A 
HETATM    7  C   UNL     1      20.439 -11.736   3.909  1.00  0.00     0.050 A 
HETATM    8  C   UNL     1      19.905 -10.356   1.972  1.00  0.00     0.006 A 
HETATM    9  O   UNL     1      21.844  -9.921   3.054  1.00  0.00    -0.321 OA
ENDROOT
BRANCH   3  10
HETATM   10  C   UNL     1      18.931 -13.591   4.627  1.00  0.00    -0.023 A 
HETATM   11  C   UNL     1      18.429 -14.796   4.130  1.00  0.00     0.012 A 
HETATM   12  C   UNL     1      18.050 -15.813   4.990  1.00  0.00     0.004 A 
HETATM   13  C   UNL     1      18.185 -15.655   6.362  1.00  0.00     0.037 A 
HETATM   14  C   UNL     1      18.725 -14.471   6.860  1.00  0.00     0.069 A 
HETATM   15  C   UNL     1      19.090 -13.446   6.005  1.00  0.00     0.049 A 
BRANCH  14  16
HETATM   16  O   UNL     1      18.982 -14.331   8.207  1.00  0.00    -0.356 OA
HETATM   17  C   UNL     1      20.256 -14.778   8.699  1.00  0.00     0.210 C 
ENDBRANCH  14  16
ENDBRANCH   3  10
BRANCH   4  18
HETATM   18  C   UNL     1      20.097  -8.518   0.095  1.00  0.00     0.154 C 
BRANCH  18  19
HETATM   19  C   UNL     1      19.201  -7.364   0.455  1.00  0.00     0.177 C 
HETATM   20  O   UNL     1      19.630  -6.246   0.534  1.00  0.00    -0.648 OA
HETATM   21  O   UNL     1      17.961  -7.710   0.737  1.00  0.00    -0.648 OA
ENDBRANCH  18  19
ENDBRANCH   4  18
TORSDOF 4
ENDMDL
MODEL 7
REMARK VINA RESULT:    -7.785      1.617      2.821
REMARK INTER + INTRA:         -10.193
REMARK INTER:                  -9.704
REMARK INTRA:                  -0.490
REMARK UNBOUND:                -0.588
REMARK  4 active torsions:
REMARK  status: ('A' for Active; 'I' for Inactive)
REMARK    1  A    between atoms: C_4  and  C_8 
REMARK    2  A    between atoms: C_6  and  O_10 
REMARK    3  A    between atoms: C_11  and  C_12 
REMARK    4  A    between atoms: C_12  and  C_13 
ROOT
HETATM    1  C   UNL     1      20.910 -11.136   3.474  1.00  0.00     0.013 A 
HETATM    2  C   UNL     1      21.267 -10.064   2.669  1.00  0.00     0.016 A 
HETATM    3  C   UNL     1      19.681 -11.800   3.321  1.00  0.00    -0.023 A 
HETATM    4  C   UNL     1      20.375  -8.572   0.692  1.00  0.00    -0.013 A 
HETATM    5  C   UNL     1      19.194  -8.686   0.063  1.00  0.00     0.151 A 
HETATM    6  C   UNL     1      19.183 -10.304   1.535  1.00  0.00     0.086 A 
HETATM    7  C   UNL     1      18.801 -11.366   2.321  1.00  0.00     0.050 A 
HETATM    8  C   UNL     1      20.386  -9.631   1.675  1.00  0.00     0.006 A 
HETATM    9  O   UNL     1      18.432  -9.728   0.539  1.00  0.00    -0.321 OA
ENDROOT
BRANCH   3  10
HETATM   10  C   UNL     1      19.297 -12.931   4.202  1.00  0.00    -0.023 A 
HETATM   11  C   UNL     1      18.501 -13.975   3.728  1.00  0.00     0.012 A 
HETATM   12  C   UNL     1      18.080 -14.986   4.577  1.00  0.00     0.004 A 
HETATM   13  C   UNL     1      18.465 -14.984   5.910  1.00  0.00     0.037 A 
HETATM   14  C   UNL     1      19.294 -13.966   6.377  1.00  0.00     0.069 A 
HETATM   15  C   UNL     1      19.703 -12.945   5.537  1.00  0.00     0.049 A 
BRANCH  14  16
HETATM   16  O   UNL     1      19.789 -14.001   7.663  1.00  0.00    -0.356 OA
HETATM   17  C   UNL     1      19.620 -15.215   8.415  1.00  0.00     0.210 C 
ENDBRANCH  14  16
ENDBRANCH   3  10
BRANCH   4  18
HETATM   18  C   UNL     1      21.453  -7.575   0.420  1.00  0.00     0.154 C 
BRANCH  18  19
HETATM   19  C   UNL     1      21.238  -6.277   1.151  1.00  0.00     0.177 C 
HETATM   20  O   UNL     1      20.283  -5.587   0.921  1.00  0.00    -0.648 OA
HETATM   21  O   UNL     1      22.210  -5.955   1.980  1.00  0.00    -0.648 OA
ENDBRANCH  18  19
ENDBRANCH   4  18
TORSDOF 4
ENDMDL
MODEL 8
REMARK VINA RESULT:    -7.229      1.779      7.540
REMARK INTER + INTRA:          -9.506
REMARK INTER:                  -9.453
REMARK INTRA:                  -0.054
REMARK UNBOUND:                -0.588
REMARK  4 active torsions:
REMARK  status: ('A' for Active; 'I' for Inactive)
REMARK    1  A    between atoms: C_4  and  C_8 
REMARK    2  A    between atoms: C_6  and  O_10 
REMARK    3  A    between atoms: C_11  and  C_12 
REMARK    4  A    between atoms: C_12  and  C_13 
ROOT
HETATM    1  C   UNL     1      20.068 -11.946   4.266  1.00  0.00     0.013 A 
HETATM    2  C   UNL     1      19.981 -12.911   5.258  1.00  0.00     0.016 A 
HETATM    3  C   UNL     1      19.284 -12.009   3.102  1.00  0.00    -0.023 A 
HETATM    4  C   UNL     1      18.740 -15.151   5.865  1.00  0.00    -0.013 A 
HETATM    5  C   UNL     1      17.819 -15.790   5.127  1.00  0.00     0.151 A 
HETATM    6  C   UNL     1      18.318 -14.013   3.954  1.00  0.00     0.086 A 
HETATM    7  C   UNL     1      18.386 -13.073   2.951  1.00  0.00     0.050 A 
HETATM    8  C   UNL     1      19.089 -13.974   5.104  1.00  0.00     0.006 A 
HETATM    9  O   UNL     1      17.525 -15.135   3.953  1.00  0.00    -0.321 OA
ENDROOT
BRANCH   3  10
HETATM   10  C   UNL     1      19.400 -10.985   2.034  1.00  0.00    -0.023 A 
HETATM   11  C   UNL     1      18.551 -11.000   0.925  1.00  0.00     0.012 A 
HETATM   12  C   UNL     1      18.717 -10.090  -0.106  1.00  0.00     0.004 A 
HETATM   13  C   UNL     1      19.721  -9.134  -0.039  1.00  0.00     0.037 A 
HETATM   14  C   UNL     1      20.544  -9.090   1.084  1.00  0.00     0.069 A 
HETATM   15  C   UNL     1      20.392 -10.007   2.109  1.00  0.00     0.049 A 
BRANCH  14  16
HETATM   16  O   UNL     1      21.470  -8.079   1.233  1.00  0.00    -0.356 OA
HETATM   17  C   UNL     1      22.636  -8.348   2.030  1.00  0.00     0.210 C 
ENDBRANCH  14  16
ENDBRANCH   3  10
BRANCH   4  18
HETATM   18  C   UNL     1      19.275 -15.562   7.198  1.00  0.00     0.154 C 
BRANCH  18  19
HETATM   19  C   UNL     1      19.572 -14.387   8.089  1.00  0.00     0.177 C 
HETATM   20  O   UNL     1      20.595 -14.326   8.716  1.00  0.00    -0.648 OA
HETATM   21  O   UNL     1      18.595 -13.506   8.166  1.00  0.00    -0.648 OA
ENDBRANCH  18  19
ENDBRANCH   4  18
TORSDOF 4
ENDMDL
MODEL 9
REMARK VINA RESULT:    -7.029      3.321      8.478
REMARK INTER + INTRA:          -9.260
REMARK INTER:                  -8.710
REMARK INTRA:                  -0.550
REMARK UNBOUND:                -0.588
REMARK  4 active torsions:
REMARK  status: ('A' for Active; 'I' for Inactive)
REMARK    1  A    between atoms: C_4  and  C_8 
REMARK    2  A    between atoms: C_6  and  O_10 
REMARK    3  A    between atoms: C_11  and  C_12 
REMARK    4  A    between atoms: C_12  and  C_13 
ROOT
HETATM    1  C   UNL     1      22.194  -8.938   2.182  1.00  0.00     0.013 A 
HETATM    2  C   UNL     1      21.473 -10.041   2.616  1.00  0.00     0.016 A 
HETATM    3  C   UNL     1      21.655  -8.013   1.272  1.00  0.00    -0.023 A 
HETATM    4  C   UNL     1      19.150 -11.243   2.320  1.00  0.00    -0.013 A 
HETATM    5  C   UNL     1      18.132 -10.852   1.537  1.00  0.00     0.151 A 
HETATM    6  C   UNL     1      19.659  -9.312   1.252  1.00  0.00     0.086 A 
HETATM    7  C   UNL     1      20.352  -8.212   0.800  1.00  0.00     0.050 A 
HETATM    8  C   UNL     1      20.174 -10.241   2.142  1.00  0.00     0.006 A 
HETATM    9  O   UNL     1      18.392  -9.679   0.866  1.00  0.00    -0.321 OA
ENDROOT
BRANCH   3  10
HETATM   10  C   UNL     1      22.443  -6.849   0.795  1.00  0.00    -0.023 A 
HETATM   11  C   UNL     1      22.296  -5.591   1.383  1.00  0.00     0.012 A 
HETATM   12  C   UNL     1      22.974  -4.492   0.881  1.00  0.00     0.004 A 
HETATM   13  C   UNL     1      23.827  -4.633  -0.203  1.00  0.00     0.037 A 
HETATM   14  C   UNL     1      24.008  -5.895  -0.767  1.00  0.00     0.069 A 
HETATM   15  C   UNL     1      23.321  -6.992  -0.280  1.00  0.00     0.049 A 
BRANCH  14  16
HETATM   16  O   UNL     1      24.937  -6.087  -1.767  1.00  0.00    -0.356 OA
HETATM   17  C   UNL     1      24.672  -5.502  -3.053  1.00  0.00     0.210 C 
ENDBRANCH  14  16
ENDBRANCH   3  10
BRANCH   4  18
HETATM   18  C   UNL     1      19.204 -12.449   3.200  1.00  0.00     0.154 C 
BRANCH  18  19
HETATM   19  C   UNL     1      19.143 -12.100   4.662  1.00  0.00     0.177 C 
HETATM   20  O   UNL     1      20.037 -12.394   5.408  1.00  0.00    -0.648 OA
HETATM   21  O   UNL     1      18.015 -11.531   5.037  1.00  0.00    -0.648 OA
ENDBRANCH  18  19
ENDBRANCH   4  18
TORSDOF 4
ENDMDL
MODEL 10
REMARK VINA RESULT:    -6.684      3.271      4.722
REMARK INTER + INTRA:          -8.835
REMARK INTER:                  -8.289
REMARK INTRA:                  -0.545
REMARK UNBOUND:                -0.588
REMARK  4 active torsions:
REMARK  status: ('A' for Active; 'I' for Inactive)
REMARK    1  A    between atoms: C_4  and  C_8 
REMARK    2  A    between atoms: C_6  and  O_10 
REMARK    3  A    between atoms: C_11  and  C_12 
REMARK    4  A    between atoms: C_12  and  C_13 
ROOT
HETATM    1  C   UNL     1      18.773 -11.151   0.733  1.00  0.00     0.013 A 
HETATM    2  C   UNL     1      18.027 -10.692  -0.343  1.00  0.00     0.016 A 
HETATM    3  C   UNL     1      18.343 -10.975   2.060  1.00  0.00    -0.023 A 
HETATM    4  C   UNL     1      15.802  -9.413  -0.925  1.00  0.00    -0.013 A 
HETATM    5  C   UNL     1      14.894  -8.936  -0.058  1.00  0.00     0.151 A 
HETATM    6  C   UNL     1      16.404  -9.886   1.206  1.00  0.00     0.086 A 
HETATM    7  C   UNL     1      17.125 -10.326   2.293  1.00  0.00     0.050 A 
HETATM    8  C   UNL     1      16.814 -10.041  -0.108  1.00  0.00     0.006 A 
HETATM    9  O   UNL     1      15.214  -9.201   1.253  1.00  0.00    -0.321 OA
ENDROOT
BRANCH   3  10
HETATM   10  C   UNL     1      19.159 -11.448   3.206  1.00  0.00    -0.023 A 
HETATM   11  C   UNL     1      20.440 -10.943   3.436  1.00  0.00     0.012 A 
HETATM   12  C   UNL     1      21.227 -11.446   4.459  1.00  0.00     0.004 A 
HETATM   13  C   UNL     1      20.741 -12.448   5.285  1.00  0.00     0.037 A 
HETATM   14  C   UNL     1      19.447 -12.927   5.085  1.00  0.00     0.069 A 
HETATM   15  C   UNL     1      18.664 -12.439   4.054  1.00  0.00     0.049 A 
BRANCH  14  16
HETATM   16  O   UNL     1      18.894 -13.836   5.962  1.00  0.00    -0.356 OA
HETATM   17  C   UNL     1      19.299 -13.774   7.339  1.00  0.00     0.210 C 
ENDBRANCH  14  16
ENDBRANCH   3  10
BRANCH   4  18
HETATM   18  C   UNL     1      15.763  -9.326  -2.415  1.00  0.00     0.154 C 
BRANCH  18  19
HETATM   19  C   UNL     1      14.633 -10.122  -3.012  1.00  0.00     0.177 C 
HETATM   20  O   UNL     1      13.779  -9.592  -3.668  1.00  0.00    -0.648 OA
HETATM   21  O   UNL     1      14.640 -11.399  -2.685  1.00  0.00    -0.648 OA
ENDBRANCH  18  19
ENDBRANCH   4  18
TORSDOF 4
ENDMDL
MODEL 11
REMARK VINA RESULT:    -6.610      4.183      6.265
REMARK INTER + INTRA:          -8.744
REMARK INTER:                  -8.186
REMARK INTRA:                  -0.558
REMARK UNBOUND:                -0.588
REMARK  4 active torsions:
REMARK  status: ('A' for Active; 'I' for Inactive)
REMARK    1  A    between atoms: C_4  and  C_8 
REMARK    2  A    between atoms: C_6  and  O_10 
REMARK    3  A    between atoms: C_11  and  C_12 
REMARK    4  A    between atoms: C_12  and  C_13 
ROOT
HETATM    1  C   UNL     1      18.142 -11.064  -0.328  1.00  0.00     0.013 A 
HETATM    2  C   UNL     1      17.000 -11.151  -1.111  1.00  0.00     0.016 A 
HETATM    3  C   UNL     1      18.090 -10.640   1.011  1.00  0.00    -0.023 A 
HETATM    4  C   UNL     1      14.401 -10.742  -1.034  1.00  0.00    -0.013 A 
HETATM    5  C   UNL     1      13.683 -10.300   0.010  1.00  0.00     0.151 A 
HETATM    6  C   UNL     1      15.733 -10.405   0.766  1.00  0.00     0.086 A 
HETATM    7  C   UNL     1      16.849 -10.305   1.564  1.00  0.00     0.050 A 
HETATM    8  C   UNL     1      15.763 -10.813  -0.558  1.00  0.00     0.006 A 
HETATM    9  O   UNL     1      14.448 -10.083   1.133  1.00  0.00    -0.321 OA
ENDROOT
BRANCH   3  10
HETATM   10  C   UNL     1      19.320 -10.527   1.834  1.00  0.00    -0.023 A 
HETATM   11  C   UNL     1      20.378  -9.706   1.440  1.00  0.00     0.012 A 
HETATM   12  C   UNL     1      21.555  -9.667   2.171  1.00  0.00     0.004 A 
HETATM   13  C   UNL     1      21.688 -10.431   3.321  1.00  0.00     0.037 A 
HETATM   14  C   UNL     1      20.619 -11.220   3.741  1.00  0.00     0.069 A 
HETATM   15  C   UNL     1      19.449 -11.275   3.005  1.00  0.00     0.049 A 
BRANCH  14  16
HETATM   16  O   UNL     1      20.678 -11.897   4.940  1.00  0.00    -0.356 OA
HETATM   17  C   UNL     1      19.439 -12.277   5.560  1.00  0.00     0.210 C 
ENDBRANCH  14  16
ENDBRANCH   3  10
BRANCH   4  18
HETATM   18  C   UNL     1      13.895 -11.099  -2.394  1.00  0.00     0.154 C 
BRANCH  18  19
HETATM   19  C   UNL     1      13.431 -12.528  -2.481  1.00  0.00     0.177 C 
HETATM   20  O   UNL     1      14.142 -13.433  -2.142  1.00  0.00    -0.648 OA
HETATM   21  O   UNL     1      12.238 -12.677  -3.021  1.00  0.00    -0.648 OA
ENDBRANCH  18  19
ENDBRANCH   4  18
TORSDOF 4
ENDMDL
MODEL 12
REMARK VINA RESULT:    -6.599      4.682      7.308
REMARK INTER + INTRA:          -8.730
REMARK INTER:                  -8.221
REMARK INTRA:                  -0.509
REMARK UNBOUND:                -0.588
REMARK  4 active torsions:
REMARK  status: ('A' for Active; 'I' for Inactive)
REMARK    1  A    between atoms: C_4  and  C_8 
REMARK    2  A    between atoms: C_6  and  O_10 
REMARK    3  A    between atoms: C_11  and  C_12 
REMARK    4  A    between atoms: C_12  and  C_13 
ROOT
HETATM    1  C   UNL     1      17.576  -9.679   1.692  1.00  0.00     0.013 A 
HETATM    2  C   UNL     1      16.309 -10.149   1.380  1.00  0.00     0.016 A 
HETATM    3  C   UNL     1      18.669  -9.868   0.828  1.00  0.00    -0.023 A 
HETATM    4  C   UNL     1      14.990 -11.472  -0.474  1.00  0.00    -0.013 A 
HETATM    5  C   UNL     1      15.485 -11.971  -1.617  1.00  0.00     0.151 A 
HETATM    6  C   UNL     1      17.195 -10.994  -0.666  1.00  0.00     0.086 A 
HETATM    7  C   UNL     1      18.463 -10.543  -0.381  1.00  0.00     0.050 A 
HETATM    8  C   UNL     1      16.107 -10.826   0.175  1.00  0.00     0.006 A 
HETATM    9  O   UNL     1      16.825 -11.704  -1.782  1.00  0.00    -0.321 OA
ENDROOT
BRANCH   3  10
HETATM   10  C   UNL     1      20.027  -9.382   1.180  1.00  0.00    -0.023 A 
HETATM   11  C   UNL     1      20.819 -10.065   2.105  1.00  0.00     0.012 A 
HETATM   12  C   UNL     1      22.052  -9.563   2.489  1.00  0.00     0.004 A 
HETATM   13  C   UNL     1      22.525  -8.380   1.941  1.00  0.00     0.037 A 
HETATM   14  C   UNL     1      21.756  -7.717   0.987  1.00  0.00     0.069 A 
HETATM   15  C   UNL     1      20.517  -8.206   0.613  1.00  0.00     0.049 A 
BRANCH  14  16
HETATM   16  O   UNL     1      22.252  -6.606   0.338  1.00  0.00    -0.356 OA
HETATM   17  C   UNL     1      22.937  -5.618   1.126  1.00  0.00     0.210 C 
ENDBRANCH  14  16
ENDBRANCH   3  10
BRANCH   4  18
HETATM   18  C   UNL     1      13.580 -11.554   0.014  1.00  0.00     0.154 C 
BRANCH  18  19
HETATM   19  C   UNL     1      12.974 -10.199   0.260  1.00  0.00     0.177 C 
HETATM   20  O   UNL     1      12.470  -9.927   1.316  1.00  0.00    -0.648 OA
HETATM   21  O   UNL     1      12.985  -9.402  -0.790  1.00  0.00    -0.648 OA
ENDBRANCH  18  19
ENDBRANCH   4  18
TORSDOF 4
ENDMDL
MODEL 13
REMARK VINA RESULT:    -6.466      4.579      7.351
REMARK INTER + INTRA:          -8.565
REMARK INTER:                  -8.011
REMARK INTRA:                  -0.554
REMARK UNBOUND:                -0.588
REMARK  4 active torsions:
REMARK  status: ('A' for Active; 'I' for Inactive)
REMARK    1  A    between atoms: C_4  and  C_8 
REMARK    2  A    between atoms: C_6  and  O_10 
REMARK    3  A    between atoms: C_11  and  C_12 
REMARK    4  A    between atoms: C_12  and  C_13 
ROOT
HETATM    1  C   UNL     1      18.472 -10.846  -0.079  1.00  0.00     0.013 A 
HETATM    2  C   UNL     1      17.294 -11.044  -0.784  1.00  0.00     0.016 A 
HETATM    3  C   UNL     1      18.951  -9.558   0.215  1.00  0.00    -0.023 A 
HETATM    4  C   UNL     1      15.346  -9.731  -1.971  1.00  0.00    -0.013 A 
HETATM    5  C   UNL     1      15.209  -8.399  -2.063  1.00  0.00     0.151 A 
HETATM    6  C   UNL     1      17.043  -8.676  -0.905  1.00  0.00     0.086 A 
HETATM    7  C   UNL     1      18.210  -8.449  -0.212  1.00  0.00     0.050 A 
HETATM    8  C   UNL     1      16.558  -9.937  -1.213  1.00  0.00     0.006 A 
HETATM    9  O   UNL     1      16.216  -7.711  -1.427  1.00  0.00    -0.321 OA
ENDROOT
BRANCH   3  10
HETATM   10  C   UNL     1      20.225  -9.355   0.949  1.00  0.00    -0.023 A 
HETATM   11  C   UNL     1      20.685 -10.300   1.869  1.00  0.00     0.012 A 
HETATM   12  C   UNL     1      21.832 -10.068   2.609  1.00  0.00     0.004 A 
HETATM   13  C   UNL     1      22.554  -8.897   2.430  1.00  0.00     0.037 A 
HETATM   14  C   UNL     1      22.121  -7.969   1.484  1.00  0.00     0.069 A 
HETATM   15  C   UNL     1      20.967  -8.190   0.754  1.00  0.00     0.049 A 
BRANCH  14  16
HETATM   16  O   UNL     1      22.881  -6.854   1.199  1.00  0.00    -0.356 OA
HETATM   17  C   UNL     1      22.253  -5.566   1.313  1.00  0.00     0.210 C 
ENDBRANCH  14  16
ENDBRANCH   3  10
BRANCH   4  18
HETATM   18  C   UNL     1      14.431 -10.776  -2.521  1.00  0.00     0.154 C 
BRANCH  18  19
HETATM   19  C   UNL     1      13.914 -11.709  -1.459  1.00  0.00     0.177 C 
HETATM   20  O   UNL     1      14.078 -12.895  -1.542  1.00  0.00    -0.648 OA
HETATM   21  O   UNL     1      13.224 -11.115  -0.506  1.00  0.00    -0.648 OA
ENDBRANCH  18  19
ENDBRANCH   4  18
TORSDOF 4
ENDMDL
