MODEL 1
REMARK VINA RESULT:    -8.762      0.000      0.000
REMARK INTER + INTRA:         -14.772
REMARK INTER:                 -13.885
REMARK INTRA:                  -0.887
REMARK UNBOUND:                -0.887
REMARK  11 active torsions:
REMARK  status: ('A' for Active; 'I' for Inactive)
REMARK    1  A    between atoms: C_1  and  C_12 
REMARK    2  A    between atoms: C_2  and  O_19 
REMARK    3  A    between atoms: C_3  and  C_16 
REMARK    4  A    between atoms: C_5  and  C_6 
REMARK    5  A    between atoms: C_6  and  C_7 
REMARK    6  A    between atoms: C_7  and  C_8 
REMARK    7  A    between atoms: C_8  and  C_9 
REMARK    8  A    between atoms: C_9  and  C_10 
REMARK    9  A    between atoms: C_10  and  C_11 
REMARK   10  A    between atoms: C_11  and  C_12 
REMARK   11  A    between atoms: C_14  and  O_17 
ROOT
HETATM    1  C   UNL     1      11.512  12.186  16.268  1.00  0.00    -0.036 A 
HETATM    2  C   UNL     1      12.276  14.435  16.482  1.00  0.00     0.085 A 
HETATM    3  C   UNL     1      12.093  13.184  17.041  1.00  0.00     0.080 A 
HETATM    4  C   UNL     1      11.111  12.464  14.980  1.00  0.00     0.044 A 
HETATM    5  C   UNL     1      11.302  13.719  14.449  1.00  0.00     0.068 A 
HETATM    6  C   UNL     1      11.885  14.710  15.195  1.00  0.00     0.074 A 
ENDROOT
BRANCH   1   7
HETATM    7  C   UNL     1      11.254  10.785  16.807  1.00  0.00     0.040 C 
BRANCH   7   8
HETATM    8  C   UNL     1      10.795   9.886  15.654  1.00  0.00     0.005 C 
BRANCH   8   9
HETATM    9  C   UNL     1       9.639   8.958  16.035  1.00  0.00     0.000 C 
BRANCH   9  10
HETATM   10  C   UNL     1       8.708   8.642  14.863  1.00  0.00     0.000 C 
BRANCH  10  11
HETATM   11  C   UNL     1       9.440   7.986  13.680  1.00  0.00     0.000 C 
BRANCH  11  12
HETATM   12  C   UNL     1       9.730   6.507  13.929  1.00  0.00     0.000 C 
BRANCH  12  13
HETATM   13  C   UNL     1       8.523   5.727  14.446  1.00  0.00    -0.000 C 
BRANCH  13  14
HETATM   14  C   UNL     1       8.862   5.207  15.840  1.00  0.00    -0.005 C 
HETATM   15  C   UNL     1       8.064   3.970  16.238  1.00  0.00     0.005 C 
ENDBRANCH  13  14
ENDBRANCH  12  13
ENDBRANCH  11  12
ENDBRANCH  10  11
ENDBRANCH   9  10
ENDBRANCH   8   9
ENDBRANCH   7   8
ENDBRANCH   1   7
BRANCH   3  16
HETATM   16  C   UNL     1      12.575  12.972  18.472  1.00  0.00     0.212 C 
HETATM   17  O   UNL     1      11.755  12.633  19.365  1.00  0.00    -0.644 OA
HETATM   18  O   UNL     1      13.775  13.193  18.775  1.00  0.00    -0.644 OA
ENDBRANCH   3  16
BRANCH   2  19
HETATM   19  O   UNL     1      12.855  15.461  17.212  1.00  0.00    -0.359 OA
ATOM     20  HO  UNL     1      12.327  16.170  17.559  1.00  0.00     0.217 HD
ENDBRANCH   2  19
BRANCH   5  21
HETATM   21  O   UNL     1      10.904  13.978  13.144  1.00  0.00    -0.361 OA
ATOM     22  HO  UNL     1      10.348  14.725  12.958  1.00  0.00     0.217 HD
ENDBRANCH   5  21
TORSDOF 11
ENDMDL
MODEL 2
REMARK VINA RESULT:    -8.208      0.937      3.032
REMARK INTER + INTRA:         -13.894
REMARK INTER:                 -12.820
REMARK INTRA:                  -1.074
REMARK UNBOUND:                -0.887
REMARK  11 active torsions:
REMARK  status: ('A' for Active; 'I' for Inactive)
REMARK    1  A    between atoms: C_1  and  C_12 
REMARK    2  A    between atoms: C_2  and  O_19 
REMARK    3  A    between atoms: C_3  and  C_16 
REMARK    4  A    between atoms: C_5  and  C_6 
REMARK    5  A    between atoms: C_6  and  C_7 
REMARK    6  A    between atoms: C_7  and  C_8 
REMARK    7  A    between atoms: C_8  and  C_9 
REMARK    8  A    between atoms: C_9  and  C_10 
REMARK    9  A    between atoms: C_10  and  C_11 
REMARK   10  A    between atoms: C_11  and  C_12 
REMARK   11  A    between atoms: C_14  and  O_17 
ROOT
HETATM    1  C   UNL     1      11.566  12.548  16.678  1.00  0.00    -0.036 A 
HETATM    2  C   UNL     1      12.656  14.669  16.715  1.00  0.00     0.085 A 
HETATM    3  C   UNL     1      11.834  13.767  16.066  1.00  0.00     0.080 A 
HETATM    4  C   UNL     1      12.138  12.253  17.895  1.00  0.00     0.044 A 
HETATM    5  C   UNL     1      12.956  13.168  18.518  1.00  0.00     0.068 A 
HETATM    6  C   UNL     1      13.219  14.379  17.934  1.00  0.00     0.074 A 
ENDROOT
BRANCH   1   7
HETATM    7  C   UNL     1      10.688  11.486  16.028  1.00  0.00     0.040 C 
BRANCH   7   8
HETATM    8  C   UNL     1      11.223  10.101  16.406  1.00  0.00     0.005 C 
BRANCH   8   9
HETATM    9  C   UNL     1      10.139   9.019  16.425  1.00  0.00     0.000 C 
BRANCH   9  10
HETATM   10  C   UNL     1       8.908   9.385  15.595  1.00  0.00     0.000 C 
BRANCH  10  11
HETATM   11  C   UNL     1       8.568   8.326  14.534  1.00  0.00     0.000 C 
BRANCH  11  12
HETATM   12  C   UNL     1       9.613   7.213  14.473  1.00  0.00     0.000 C 
BRANCH  12  13
HETATM   13  C   UNL     1       9.017   5.810  14.579  1.00  0.00    -0.000 C 
BRANCH  13  14
HETATM   14  C   UNL     1       8.822   5.493  16.059  1.00  0.00    -0.005 C 
HETATM   15  C   UNL     1       8.295   4.086  16.314  1.00  0.00     0.005 C 
ENDBRANCH  13  14
ENDBRANCH  12  13
ENDBRANCH  11  12
ENDBRANCH  10  11
ENDBRANCH   9  10
ENDBRANCH   8   9
ENDBRANCH   7   8
ENDBRANCH   1   7
BRANCH   3  16
HETATM   16  C   UNL     1      11.244  14.187  14.725  1.00  0.00     0.212 C 
HETATM   17  O   UNL     1      11.814  13.847  13.655  1.00  0.00    -0.644 OA
HETATM   18  O   UNL     1      10.225  14.922  14.683  1.00  0.00    -0.644 OA
ENDBRANCH   3  16
BRANCH   2  19
HETATM   19  O   UNL     1      12.949  15.899  16.147  1.00  0.00    -0.359 OA
ATOM     20  HO  UNL     1      12.986  16.684  16.680  1.00  0.00     0.217 HD
ENDBRANCH   2  19
BRANCH   5  21
HETATM   21  O   UNL     1      13.513  12.859  19.752  1.00  0.00    -0.361 OA
ATOM     22  HO  UNL     1      13.763  13.557  20.347  1.00  0.00     0.217 HD
ENDBRANCH   5  21
TORSDOF 11
ENDMDL
MODEL 3
REMARK VINA RESULT:    -7.863      4.708      8.832
REMARK INTER + INTRA:         -13.347
REMARK INTER:                 -12.558
REMARK INTRA:                  -0.789
REMARK UNBOUND:                -0.887
REMARK  11 active torsions:
REMARK  status: ('A' for Active; 'I' for Inactive)
REMARK    1  A    between atoms: C_1  and  C_12 
REMARK    2  A    between atoms: C_2  and  O_19 
REMARK    3  A    between atoms: C_3  and  C_16 
REMARK    4  A    between atoms: C_5  and  C_6 
REMARK    5  A    between atoms: C_6  and  C_7 
REMARK    6  A    between atoms: C_7  and  C_8 
REMARK    7  A    between atoms: C_8  and  C_9 
REMARK    8  A    between atoms: C_9  and  C_10 
REMARK    9  A    between atoms: C_10  and  C_11 
REMARK   10  A    between atoms: C_11  and  C_12 
REMARK   11  A    between atoms: C_14  and  O_17 
ROOT
HETATM    1  C   UNL     1       9.073   5.584  13.353  1.00  0.00    -0.036 A 
HETATM    2  C   UNL     1       9.182   4.299  11.347  1.00  0.00     0.085 A 
HETATM    3  C   UNL     1       9.817   5.084  12.291  1.00  0.00     0.080 A 
HETATM    4  C   UNL     1       7.725   5.312  13.432  1.00  0.00     0.044 A 
HETATM    5  C   UNL     1       7.117   4.531  12.476  1.00  0.00     0.068 A 
HETATM    6  C   UNL     1       7.840   4.020  11.430  1.00  0.00     0.074 A 
ENDROOT
BRANCH   1   7
HETATM    7  C   UNL     1       9.684   6.472  14.429  1.00  0.00     0.040 C 
BRANCH   7   8
HETATM    8  C   UNL     1       9.403   7.938  14.081  1.00  0.00     0.005 C 
BRANCH   8   9
HETATM    9  C   UNL     1       8.716   8.707  15.212  1.00  0.00     0.000 C 
BRANCH   9  10
HETATM   10  C   UNL     1       9.693   9.235  16.263  1.00  0.00     0.000 C 
BRANCH  10  11
HETATM   11  C   UNL     1      10.974   9.819  15.646  1.00  0.00     0.000 C 
BRANCH  11  12
HETATM   12  C   UNL     1      11.501  11.016  16.436  1.00  0.00     0.000 C 
BRANCH  12  13
HETATM   13  C   UNL     1      10.963  12.358  15.942  1.00  0.00    -0.000 C 
BRANCH  13  14
HETATM   14  C   UNL     1      11.101  13.367  17.079  1.00  0.00    -0.005 C 
HETATM   15  C   UNL     1      10.077  14.494  17.018  1.00  0.00     0.005 C 
ENDBRANCH  13  14
ENDBRANCH  12  13
ENDBRANCH  11  12
ENDBRANCH  10  11
ENDBRANCH   9  10
ENDBRANCH   8   9
ENDBRANCH   7   8
ENDBRANCH   1   7
BRANCH   3  16
HETATM   16  C   UNL     1      11.314   5.323  12.121  1.00  0.00     0.212 C 
HETATM   17  O   UNL     1      11.748   5.842  11.060  1.00  0.00    -0.644 OA
HETATM   18  O   UNL     1      12.120   4.948  13.010  1.00  0.00    -0.644 OA
ENDBRANCH   3  16
BRANCH   2  19
HETATM   19  O   UNL     1       9.883   3.774  10.273  1.00  0.00    -0.359 OA
ATOM     20  HO  UNL     1       9.606   3.944   9.380  1.00  0.00     0.217 HD
ENDBRANCH   2  19
BRANCH   5  21
HETATM   21  O   UNL     1       5.759   4.256  12.578  1.00  0.00    -0.361 OA
ATOM     22  HO  UNL     1       5.272   3.985  11.810  1.00  0.00     0.217 HD
ENDBRANCH   5  21
TORSDOF 11
ENDMDL
MODEL 4
REMARK VINA RESULT:    -7.806      4.229      8.823
REMARK INTER + INTRA:         -13.257
REMARK INTER:                 -12.498
REMARK INTRA:                  -0.759
REMARK UNBOUND:                -0.887
REMARK  11 active torsions:
REMARK  status: ('A' for Active; 'I' for Inactive)
REMARK    1  A    between atoms: C_1  and  C_12 
REMARK    2  A    between atoms: C_2  and  O_19 
REMARK    3  A    between atoms: C_3  and  C_16 
REMARK    4  A    between atoms: C_5  and  C_6 
REMARK    5  A    between atoms: C_6  and  C_7 
REMARK    6  A    between atoms: C_7  and  C_8 
REMARK    7  A    between atoms: C_8  and  C_9 
REMARK    8  A    between atoms: C_9  and  C_10 
REMARK    9  A    between atoms: C_10  and  C_11 
REMARK   10  A    between atoms: C_11  and  C_12 
REMARK   11  A    between atoms: C_14  and  O_17 
ROOT
HETATM    1  C   UNL     1       9.100   5.646  15.144  1.00  0.00    -0.036 A 
HETATM    2  C   UNL     1       8.344   4.593  13.142  1.00  0.00     0.085 A 
HETATM    3  C   UNL     1       9.116   5.560  13.757  1.00  0.00     0.080 A 
HETATM    4  C   UNL     1       8.303   4.791  15.873  1.00  0.00     0.044 A 
HETATM    5  C   UNL     1       7.542   3.839  15.235  1.00  0.00     0.068 A 
HETATM    6  C   UNL     1       7.557   3.733  13.869  1.00  0.00     0.074 A 
ENDROOT
BRANCH   1   7
HETATM    7  C   UNL     1       9.903   6.693  15.905  1.00  0.00     0.040 C 
BRANCH   7   8
HETATM    8  C   UNL     1       9.080   7.983  15.994  1.00  0.00     0.005 C 
BRANCH   8   9
HETATM    9  C   UNL     1       9.867   9.231  15.589  1.00  0.00     0.000 C 
BRANCH   9  10
HETATM   10  C   UNL     1      10.587   9.897  16.762  1.00  0.00     0.000 C 
BRANCH  10  11
HETATM   11  C   UNL     1      11.690  10.868  16.312  1.00  0.00     0.000 C 
BRANCH  11  12
HETATM   12  C   UNL     1      11.437  12.295  16.795  1.00  0.00     0.000 C 
BRANCH  12  13
HETATM   13  C   UNL     1      12.089  12.610  18.139  1.00  0.00    -0.000 C 
BRANCH  13  14
HETATM   14  C   UNL     1      13.234  13.588  17.889  1.00  0.00    -0.005 C 
HETATM   15  C   UNL     1      12.777  14.922  17.311  1.00  0.00     0.005 C 
ENDBRANCH  13  14
ENDBRANCH  12  13
ENDBRANCH  11  12
ENDBRANCH  10  11
ENDBRANCH   9  10
ENDBRANCH   8   9
ENDBRANCH   7   8
ENDBRANCH   1   7
BRANCH   3  16
HETATM   16  C   UNL     1       9.970   6.456  12.865  1.00  0.00     0.212 C 
HETATM   17  O   UNL     1       9.592   7.630  12.614  1.00  0.00    -0.644 OA
HETATM   18  O   UNL     1      11.015   6.007  12.332  1.00  0.00    -0.644 OA
ENDBRANCH   3  16
BRANCH   2  19
HETATM   19  O   UNL     1       8.332   4.465  11.762  1.00  0.00    -0.359 OA
ATOM     20  HO  UNL     1       9.063   4.069  11.303  1.00  0.00     0.217 HD
ENDBRANCH   2  19
BRANCH   5  21
HETATM   21  O   UNL     1       6.754   2.976  15.987  1.00  0.00    -0.361 OA
ATOM     22  HO  UNL     1       6.913   2.040  15.953  1.00  0.00     0.217 HD
ENDBRANCH   5  21
TORSDOF 11
ENDMDL
MODEL 5
REMARK VINA RESULT:    -7.762      4.934      9.332
REMARK INTER + INTRA:         -13.187
REMARK INTER:                 -12.234
REMARK INTRA:                  -0.953
REMARK UNBOUND:                -0.887
REMARK  11 active torsions:
REMARK  status: ('A' for Active; 'I' for Inactive)
REMARK    1  A    between atoms: C_1  and  C_12 
REMARK    2  A    between atoms: C_2  and  O_19 
REMARK    3  A    between atoms: C_3  and  C_16 
REMARK    4  A    between atoms: C_5  and  C_6 
REMARK    5  A    between atoms: C_6  and  C_7 
REMARK    6  A    between atoms: C_7  and  C_8 
REMARK    7  A    between atoms: C_8  and  C_9 
REMARK    8  A    between atoms: C_9  and  C_10 
REMARK    9  A    between atoms: C_10  and  C_11 
REMARK   10  A    between atoms: C_11  and  C_12 
REMARK   11  A    between atoms: C_14  and  O_17 
ROOT
HETATM    1  C   UNL     1       8.730   5.456  13.786  1.00  0.00    -0.036 A 
HETATM    2  C   UNL     1       7.473   3.437  13.600  1.00  0.00     0.085 A 
HETATM    3  C   UNL     1       8.062   4.530  12.994  1.00  0.00     0.080 A 
HETATM    4  C   UNL     1       8.772   5.283  15.152  1.00  0.00     0.044 A 
HETATM    5  C   UNL     1       8.175   4.187  15.731  1.00  0.00     0.068 A 
HETATM    6  C   UNL     1       7.523   3.258  14.961  1.00  0.00     0.074 A 
ENDROOT
BRANCH   1   7
HETATM    7  C   UNL     1       9.390   6.700  13.207  1.00  0.00     0.040 C 
BRANCH   7   8
HETATM    8  C   UNL     1       9.855   7.598  14.358  1.00  0.00     0.005 C 
BRANCH   8   9
HETATM    9  C   UNL     1       9.069   8.907  14.459  1.00  0.00     0.000 C 
BRANCH   9  10
HETATM   10  C   UNL     1       9.053   9.493  15.871  1.00  0.00     0.000 C 
BRANCH  10  11
HETATM   11  C   UNL     1      10.430   9.448  16.552  1.00  0.00     0.000 C 
BRANCH  11  12
HETATM   12  C   UNL     1      11.394  10.484  15.975  1.00  0.00     0.000 C 
BRANCH  12  13
HETATM   13  C   UNL     1      11.476  11.767  16.801  1.00  0.00    -0.000 C 
BRANCH  13  14
HETATM   14  C   UNL     1      10.949  12.913  15.942  1.00  0.00    -0.005 C 
HETATM   15  C   UNL     1      10.374  14.067  16.756  1.00  0.00     0.005 C 
ENDBRANCH  13  14
ENDBRANCH  12  13
ENDBRANCH  11  12
ENDBRANCH  10  11
ENDBRANCH   9  10
ENDBRANCH   8   9
ENDBRANCH   7   8
ENDBRANCH   1   7
BRANCH   3  16
HETATM   16  C   UNL     1       7.967   4.631  11.475  1.00  0.00     0.212 C 
HETATM   17  O   UNL     1       9.004   4.500  10.773  1.00  0.00    -0.644 OA
HETATM   18  O   UNL     1       6.871   4.905  10.925  1.00  0.00    -0.644 OA
ENDBRANCH   3  16
BRANCH   2  19
HETATM   19  O   UNL     1       6.801   2.485  12.851  1.00  0.00    -0.359 OA
ATOM     20  HO  UNL     1       6.253   1.833  13.271  1.00  0.00     0.217 HD
ENDBRANCH   2  19
BRANCH   5  21
HETATM   21  O   UNL     1       8.238   4.021  17.109  1.00  0.00    -0.361 OA
ATOM     22  HO  UNL     1       8.934   3.499  17.491  1.00  0.00     0.217 HD
ENDBRANCH   5  21
TORSDOF 11
ENDMDL
MODEL 6
REMARK VINA RESULT:    -7.752      4.973      8.946
REMARK INTER + INTRA:         -13.171
REMARK INTER:                 -12.319
REMARK INTRA:                  -0.852
REMARK UNBOUND:                -0.887
REMARK  11 active torsions:
REMARK  status: ('A' for Active; 'I' for Inactive)
REMARK    1  A    between atoms: C_1  and  C_12 
REMARK    2  A    between atoms: C_2  and  O_19 
REMARK    3  A    between atoms: C_3  and  C_16 
REMARK    4  A    between atoms: C_5  and  C_6 
REMARK    5  A    between atoms: C_6  and  C_7 
REMARK    6  A    between atoms: C_7  and  C_8 
REMARK    7  A    between atoms: C_8  and  C_9 
REMARK    8  A    between atoms: C_9  and  C_10 
REMARK    9  A    between atoms: C_10  and  C_11 
REMARK   10  A    between atoms: C_11  and  C_12 
REMARK   11  A    between atoms: C_14  and  O_17 
ROOT
HETATM    1  C   UNL     1       9.049   5.792  13.547  1.00  0.00    -0.036 A 
HETATM    2  C   UNL     1       8.880   3.887  12.120  1.00  0.00     0.085 A 
HETATM    3  C   UNL     1       8.332   4.686  13.106  1.00  0.00     0.080 A 
HETATM    4  C   UNL     1      10.292   6.057  13.016  1.00  0.00     0.044 A 
HETATM    5  C   UNL     1      10.816   5.243  12.037  1.00  0.00     0.068 A 
HETATM    6  C   UNL     1      10.116   4.156  11.584  1.00  0.00     0.074 A 
ENDROOT
BRANCH   1   7
HETATM    7  C   UNL     1       8.532   6.715  14.642  1.00  0.00     0.040 C 
BRANCH   7   8
HETATM    8  C   UNL     1       9.186   8.092  14.481  1.00  0.00     0.005 C 
BRANCH   8   9
HETATM    9  C   UNL     1       8.916   9.031  15.659  1.00  0.00     0.000 C 
BRANCH   9  10
HETATM   10  C   UNL     1      10.175   9.375  16.456  1.00  0.00     0.000 C 
BRANCH  10  11
HETATM   11  C   UNL     1      11.163  10.246  15.663  1.00  0.00     0.000 C 
BRANCH  11  12
HETATM   12  C   UNL     1      11.061  11.724  16.039  1.00  0.00     0.000 C 
BRANCH  12  13
HETATM   13  C   UNL     1      12.056  12.149  17.117  1.00  0.00    -0.000 C 
BRANCH  13  14
HETATM   14  C   UNL     1      11.437  13.307  17.896  1.00  0.00    -0.005 C 
HETATM   15  C   UNL     1      10.590  14.235  17.034  1.00  0.00     0.005 C 
ENDBRANCH  13  14
ENDBRANCH  12  13
ENDBRANCH  11  12
ENDBRANCH  10  11
ENDBRANCH   9  10
ENDBRANCH   8   9
ENDBRANCH   7   8
ENDBRANCH   1   7
BRANCH   3  16
HETATM   16  C   UNL     1       6.947   4.315  13.627  1.00  0.00     0.212 C 
HETATM   17  O   UNL     1       6.829   3.759  14.751  1.00  0.00    -0.644 OA
HETATM   18  O   UNL     1       5.930   4.506  12.914  1.00  0.00    -0.644 OA
ENDBRANCH   3  16
BRANCH   2  19
HETATM   19  O   UNL     1       8.201   2.777  11.646  1.00  0.00    -0.359 OA
ATOM     20  HO  UNL     1       7.362   2.868  11.211  1.00  0.00     0.217 HD
ENDBRANCH   2  19
BRANCH   5  21
HETATM   21  O   UNL     1      12.066   5.533  11.503  1.00  0.00    -0.361 OA
ATOM     22  HO  UNL     1      12.655   4.827  11.268  1.00  0.00     0.217 HD
ENDBRANCH   5  21
TORSDOF 11
ENDMDL
MODEL 7
REMARK VINA RESULT:    -7.630      4.689      8.701
REMARK INTER + INTRA:         -12.977
REMARK INTER:                 -12.527
REMARK INTRA:                  -0.450
REMARK UNBOUND:                -0.887
REMARK  11 active torsions:
REMARK  status: ('A' for Active; 'I' for Inactive)
REMARK    1  A    between atoms: C_1  and  C_12 
REMARK    2  A    between atoms: C_2  and  O_19 
REMARK    3  A    between atoms: C_3  and  C_16 
REMARK    4  A    between atoms: C_5  and  C_6 
REMARK    5  A    between atoms: C_6  and  C_7 
REMARK    6  A    between atoms: C_7  and  C_8 
REMARK    7  A    between atoms: C_8  and  C_9 
REMARK    8  A    between atoms: C_9  and  C_10 
REMARK    9  A    between atoms: C_10  and  C_11 
REMARK   10  A    between atoms: C_11  and  C_12 
REMARK   11  A    between atoms: C_14  and  O_17 
ROOT
HETATM    1  C   UNL     1       8.955   5.817  13.568  1.00  0.00    -0.036 A 
HETATM    2  C   UNL     1       7.677   3.836  13.933  1.00  0.00     0.085 A 
HETATM    3  C   UNL     1       8.454   4.860  14.442  1.00  0.00     0.080 A 
HETATM    4  C   UNL     1       8.692   5.717  12.220  1.00  0.00     0.044 A 
HETATM    5  C   UNL     1       7.918   4.686  11.739  1.00  0.00     0.068 A 
HETATM    6  C   UNL     1       7.406   3.741  12.590  1.00  0.00     0.074 A 
ENDROOT
BRANCH   1   7
HETATM    7  C   UNL     1       9.836   6.967  14.037  1.00  0.00     0.040 C 
BRANCH   7   8
HETATM    8  C   UNL     1       8.958   8.199  14.279  1.00  0.00     0.005 C 
BRANCH   8   9
HETATM    9  C   UNL     1       9.106   8.780  15.687  1.00  0.00     0.000 C 
BRANCH   9  10
HETATM   10  C   UNL     1      10.504   9.333  15.967  1.00  0.00     0.000 C 
BRANCH  10  11
HETATM   11  C   UNL     1      10.518  10.860  16.141  1.00  0.00     0.000 C 
BRANCH  11  12
HETATM   12  C   UNL     1      11.866  11.372  16.646  1.00  0.00     0.000 C 
BRANCH  12  13
HETATM   13  C   UNL     1      11.783  12.733  17.335  1.00  0.00    -0.000 C 
BRANCH  13  14
HETATM   14  C   UNL     1      10.943  13.655  16.454  1.00  0.00    -0.005 C 
HETATM   15  C   UNL     1      10.053  14.606  17.246  1.00  0.00     0.005 C 
ENDBRANCH  13  14
ENDBRANCH  12  13
ENDBRANCH  11  12
ENDBRANCH  10  11
ENDBRANCH   9  10
ENDBRANCH   8   9
ENDBRANCH   7   8
ENDBRANCH   1   7
BRANCH   3  16
HETATM   16  C   UNL     1       8.685   4.889  15.949  1.00  0.00     0.212 C 
HETATM   17  O   UNL     1       9.810   5.224  16.404  1.00  0.00    -0.644 OA
HETATM   18  O   UNL     1       7.777   4.522  16.736  1.00  0.00    -0.644 OA
ENDBRANCH   3  16
BRANCH   2  19
HETATM   19  O   UNL     1       7.151   2.862  14.766  1.00  0.00    -0.359 OA
ATOM     20  HO  UNL     1       6.213   2.732  14.832  1.00  0.00     0.217 HD
ENDBRANCH   2  19
BRANCH   5  21
HETATM   21  O   UNL     1       7.651   4.607  10.377  1.00  0.00    -0.361 OA
ATOM     22  HO  UNL     1       6.819   4.917  10.040  1.00  0.00     0.217 HD
ENDBRANCH   5  21
TORSDOF 11
ENDMDL
MODEL 8
REMARK VINA RESULT:    -7.105      5.610     10.081
REMARK INTER + INTRA:         -12.146
REMARK INTER:                 -11.287
REMARK INTRA:                  -0.860
REMARK UNBOUND:                -0.887
REMARK  11 active torsions:
REMARK  status: ('A' for Active; 'I' for Inactive)
REMARK    1  A    between atoms: C_1  and  C_12 
REMARK    2  A    between atoms: C_2  and  O_19 
REMARK    3  A    between atoms: C_3  and  C_16 
REMARK    4  A    between atoms: C_5  and  C_6 
REMARK    5  A    between atoms: C_6  and  C_7 
REMARK    6  A    between atoms: C_7  and  C_8 
REMARK    7  A    between atoms: C_8  and  C_9 
REMARK    8  A    between atoms: C_9  and  C_10 
REMARK    9  A    between atoms: C_10  and  C_11 
REMARK   10  A    between atoms: C_11  and  C_12 
REMARK   11  A    between atoms: C_14  and  O_17 
ROOT
HETATM    1  C   UNL     1       7.893   3.970  14.374  1.00  0.00    -0.036 A 
HETATM    2  C   UNL     1       7.445   2.005  13.098  1.00  0.00     0.085 A 
HETATM    3  C   UNL     1       7.790   3.343  13.138  1.00  0.00     0.080 A 
HETATM    4  C   UNL     1       7.626   3.262  15.524  1.00  0.00     0.044 A 
HETATM    5  C   UNL     1       7.281   1.931  15.456  1.00  0.00     0.068 A 
HETATM    6  C   UNL     1       7.189   1.295  14.246  1.00  0.00     0.074 A 
ENDROOT
BRANCH   1   7
HETATM    7  C   UNL     1       8.248   5.445  14.512  1.00  0.00     0.040 C 
BRANCH   7   8
HETATM    8  C   UNL     1       9.057   5.642  15.798  1.00  0.00     0.005 C 
BRANCH   8   9
HETATM    9  C   UNL     1       9.722   7.018  15.889  1.00  0.00     0.000 C 
BRANCH   9  10
HETATM   10  C   UNL     1       9.101   8.051  14.948  1.00  0.00     0.000 C 
BRANCH  10  11
HETATM   11  C   UNL     1       9.043   9.459  15.562  1.00  0.00     0.000 C 
BRANCH  11  12
HETATM   12  C   UNL     1      10.177   9.703  16.556  1.00  0.00     0.000 C 
BRANCH  12  13
HETATM   13  C   UNL     1      11.382  10.416  15.945  1.00  0.00    -0.000 C 
BRANCH  13  14
HETATM   14  C   UNL     1      11.242  11.908  16.238  1.00  0.00    -0.005 C 
HETATM   15  C   UNL     1      11.997  12.355  17.485  1.00  0.00     0.005 C 
ENDBRANCH  13  14
ENDBRANCH  12  13
ENDBRANCH  11  12
ENDBRANCH  10  11
ENDBRANCH   9  10
ENDBRANCH   8   9
ENDBRANCH   7   8
ENDBRANCH   1   7
BRANCH   3  16
HETATM   16  C   UNL     1       8.072   4.040  11.811  1.00  0.00     0.212 C 
HETATM   17  O   UNL     1       9.200   3.916  11.266  1.00  0.00    -0.644 OA
HETATM   18  O   UNL     1       7.204   4.784  11.290  1.00  0.00    -0.644 OA
ENDBRANCH   3  16
BRANCH   2  19
HETATM   19  O   UNL     1       7.336   1.335  11.890  1.00  0.00    -0.359 OA
ATOM     20  HO  UNL     1       8.097   1.197  11.339  1.00  0.00     0.217 HD
ENDBRANCH   2  19
BRANCH   5  21
HETATM   21  O   UNL     1       7.029   1.229  16.628  1.00  0.00    -0.361 OA
ATOM     22  HO  UNL     1       6.197   0.786  16.745  1.00  0.00     0.217 HD
ENDBRANCH   5  21
TORSDOF 11
ENDMDL
MODEL 9
REMARK VINA RESULT:    -6.856      5.407      9.419
REMARK INTER + INTRA:         -11.751
REMARK INTER:                 -10.549
REMARK INTRA:                  -1.202
REMARK UNBOUND:                -0.887
REMARK  11 active torsions:
REMARK  status: ('A' for Active; 'I' for Inactive)
REMARK    1  A    between atoms: C_1  and  C_12 
REMARK    2  A    between atoms: C_2  and  O_19 
REMARK    3  A    between atoms: C_3  and  C_16 
REMARK    4  A    between atoms: C_5  and  C_6 
REMARK    5  A    between atoms: C_6  and  C_7 
REMARK    6  A    between atoms: C_7  and  C_8 
REMARK    7  A    between atoms: C_8  and  C_9 
REMARK    8  A    between atoms: C_9  and  C_10 
REMARK    9  A    between atoms: C_10  and  C_11 
REMARK   10  A    between atoms: C_11  and  C_12 
REMARK   11  A    between atoms: C_14  and  O_17 
ROOT
HETATM    1  C   UNL     1       8.484   4.729  12.588  1.00  0.00    -0.036 A 
HETATM    2  C   UNL     1       8.841   3.928  10.370  1.00  0.00     0.085 A 
HETATM    3  C   UNL     1       7.969   4.218  11.403  1.00  0.00     0.080 A 
HETATM    4  C   UNL     1       9.842   4.913  12.722  1.00  0.00     0.044 A 
HETATM    5  C   UNL     1      10.689   4.613  11.679  1.00  0.00     0.068 A 
HETATM    6  C   UNL     1      10.195   4.120  10.499  1.00  0.00     0.074 A 
ENDROOT
BRANCH   1   7
HETATM    7  C   UNL     1       7.601   5.059  13.785  1.00  0.00     0.040 C 
BRANCH   7   8
HETATM    8  C   UNL     1       8.404   4.837  15.071  1.00  0.00     0.005 C 
BRANCH   8   9
HETATM    9  C   UNL     1       8.696   6.132  15.833  1.00  0.00     0.000 C 
BRANCH   9  10
HETATM   10  C   UNL     1      10.190   6.437  15.955  1.00  0.00     0.000 C 
BRANCH  10  11
HETATM   11  C   UNL     1      10.587   7.757  15.276  1.00  0.00     0.000 C 
BRANCH  11  12
HETATM   12  C   UNL     1       9.416   8.736  15.186  1.00  0.00     0.000 C 
BRANCH  12  13
HETATM   13  C   UNL     1       9.733  10.119  15.750  1.00  0.00    -0.000 C 
BRANCH  13  14
HETATM   14  C   UNL     1      11.240  10.199  15.980  1.00  0.00    -0.005 C 
HETATM   15  C   UNL     1      11.671  11.438  16.757  1.00  0.00     0.005 C 
ENDBRANCH  13  14
ENDBRANCH  12  13
ENDBRANCH  11  12
ENDBRANCH  10  11
ENDBRANCH   9  10
ENDBRANCH   8   9
ENDBRANCH   7   8
ENDBRANCH   1   7
BRANCH   3  16
HETATM   16  C   UNL     1       6.482   3.987  11.158  1.00  0.00     0.212 C 
HETATM   17  O   UNL     1       5.920   2.966  11.635  1.00  0.00    -0.644 OA
HETATM   18  O   UNL     1       5.829   4.778  10.432  1.00  0.00    -0.644 OA
ENDBRANCH   3  16
BRANCH   2  19
HETATM   19  O   UNL     1       8.375   3.421   9.168  1.00  0.00    -0.359 OA
ATOM     20  HO  UNL     1       8.978   3.151   8.486  1.00  0.00     0.217 HD
ENDBRANCH   2  19
BRANCH   5  21
HETATM   21  O   UNL     1      12.055   4.817  11.826  1.00  0.00    -0.361 OA
ATOM     22  HO  UNL     1      12.383   5.306  12.570  1.00  0.00     0.217 HD
ENDBRANCH   5  21
TORSDOF 11
ENDMDL
MODEL 10
REMARK VINA RESULT:    -6.534      6.133     10.079
REMARK INTER + INTRA:         -11.240
REMARK INTER:                 -10.464
REMARK INTRA:                  -0.776
REMARK UNBOUND:                -0.887
REMARK  11 active torsions:
REMARK  status: ('A' for Active; 'I' for Inactive)
REMARK    1  A    between atoms: C_1  and  C_12 
REMARK    2  A    between atoms: C_2  and  O_19 
REMARK    3  A    between atoms: C_3  and  C_16 
REMARK    4  A    between atoms: C_5  and  C_6 
REMARK    5  A    between atoms: C_6  and  C_7 
REMARK    6  A    between atoms: C_7  and  C_8 
REMARK    7  A    between atoms: C_8  and  C_9 
REMARK    8  A    between atoms: C_9  and  C_10 
REMARK    9  A    between atoms: C_10  and  C_11 
REMARK   10  A    between atoms: C_11  and  C_12 
REMARK   11  A    between atoms: C_14  and  O_17 
ROOT
HETATM    1  C   UNL     1       8.057   4.119  11.510  1.00  0.00    -0.036 A 
HETATM    2  C   UNL     1       7.473   3.913   9.207  1.00  0.00     0.085 A 
HETATM    3  C   UNL     1       7.087   4.135  10.515  1.00  0.00     0.080 A 
HETATM    4  C   UNL     1       9.370   3.859  11.181  1.00  0.00     0.044 A 
HETATM    5  C   UNL     1       9.726   3.638   9.871  1.00  0.00     0.068 A 
HETATM    6  C   UNL     1       8.783   3.664   8.877  1.00  0.00     0.074 A 
ENDROOT
BRANCH   1   7
HETATM    7  C   UNL     1       7.722   4.333  12.980  1.00  0.00     0.040 C 
BRANCH   7   8
HETATM    8  C   UNL     1       8.366   5.642  13.451  1.00  0.00     0.005 C 
BRANCH   8   9
HETATM    9  C   UNL     1       8.735   5.633  14.936  1.00  0.00     0.000 C 
BRANCH   9  10
HETATM   10  C   UNL     1       9.537   6.863  15.365  1.00  0.00     0.000 C 
BRANCH  10  11
HETATM   11  C   UNL     1       9.105   8.142  14.630  1.00  0.00     0.000 C 
BRANCH  11  12
HETATM   12  C   UNL     1       8.993   9.340  15.571  1.00  0.00     0.000 C 
BRANCH  12  13
HETATM   13  C   UNL     1      10.163   9.462  16.546  1.00  0.00    -0.000 C 
BRANCH  13  14
HETATM   14  C   UNL     1      11.264  10.268  15.860  1.00  0.00    -0.005 C 
HETATM   15  C   UNL     1      10.866  11.710  15.565  1.00  0.00     0.005 C 
ENDBRANCH  13  14
ENDBRANCH  12  13
ENDBRANCH  11  12
ENDBRANCH  10  11
ENDBRANCH   9  10
ENDBRANCH   8   9
ENDBRANCH   7   8
ENDBRANCH   1   7
BRANCH   3  16
HETATM   16  C   UNL     1       5.612   4.420  10.779  1.00  0.00     0.212 C 
HETATM   17  O   UNL     1       5.055   5.402  10.222  1.00  0.00    -0.644 OA
HETATM   18  O   UNL     1       4.967   3.715  11.594  1.00  0.00    -0.644 OA
ENDBRANCH   3  16
BRANCH   2  19
HETATM   19  O   UNL     1       6.542   3.925   8.180  1.00  0.00    -0.359 OA
ATOM     20  HO  UNL     1       6.559   3.262   7.500  1.00  0.00     0.217 HD
ENDBRANCH   2  19
BRANCH   5  21
HETATM   21  O   UNL     1      11.057   3.391   9.556  1.00  0.00    -0.361 OA
ATOM     22  HO  UNL     1      11.698   3.299  10.250  1.00  0.00     0.217 HD
ENDBRANCH   5  21
TORSDOF 11
ENDMDL
MODEL 11
REMARK VINA RESULT:    -6.492      4.094      7.886
REMARK INTER + INTRA:         -11.175
REMARK INTER:                  -9.998
REMARK INTRA:                  -1.176
REMARK UNBOUND:                -0.887
REMARK  11 active torsions:
REMARK  status: ('A' for Active; 'I' for Inactive)
REMARK    1  A    between atoms: C_1  and  C_12 
REMARK    2  A    between atoms: C_2  and  O_19 
REMARK    3  A    between atoms: C_3  and  C_16 
REMARK    4  A    between atoms: C_5  and  C_6 
REMARK    5  A    between atoms: C_6  and  C_7 
REMARK    6  A    between atoms: C_7  and  C_8 
REMARK    7  A    between atoms: C_8  and  C_9 
REMARK    8  A    between atoms: C_9  and  C_10 
REMARK    9  A    between atoms: C_10  and  C_11 
REMARK   10  A    between atoms: C_11  and  C_12 
REMARK   11  A    between atoms: C_14  and  O_17 
ROOT
HETATM    1  C   UNL     1       9.499   6.977  15.163  1.00  0.00    -0.036 A 
HETATM    2  C   UNL     1       8.622   5.102  13.978  1.00  0.00     0.085 A 
HETATM    3  C   UNL     1       8.995   5.682  15.176  1.00  0.00     0.080 A 
HETATM    4  C   UNL     1       9.642   7.644  13.967  1.00  0.00     0.044 A 
HETATM    5  C   UNL     1       9.266   7.042  12.788  1.00  0.00     0.068 A 
HETATM    6  C   UNL     1       8.755   5.771  12.785  1.00  0.00     0.074 A 
ENDROOT
BRANCH   1   7
HETATM    7  C   UNL     1       9.953   7.687  16.432  1.00  0.00     0.040 C 
BRANCH   7   8
HETATM    8  C   UNL     1       9.472   9.141  16.387  1.00  0.00     0.005 C 
BRANCH   8   9
HETATM    9  C   UNL     1      10.582  10.154  16.678  1.00  0.00     0.000 C 
BRANCH   9  10
HETATM   10  C   UNL     1      11.229  10.720  15.413  1.00  0.00     0.000 C 
BRANCH  10  11
HETATM   11  C   UNL     1      10.841  12.183  15.148  1.00  0.00     0.000 C 
BRANCH  11  12
HETATM   12  C   UNL     1      10.854  13.024  16.424  1.00  0.00     0.000 C 
BRANCH  12  13
HETATM   13  C   UNL     1      12.058  13.958  16.528  1.00  0.00    -0.000 C 
BRANCH  13  14
HETATM   14  C   UNL     1      12.973  13.424  17.627  1.00  0.00    -0.005 C 
HETATM   15  C   UNL     1      12.219  12.776  18.782  1.00  0.00     0.005 C 
ENDBRANCH  13  14
ENDBRANCH  12  13
ENDBRANCH  11  12
ENDBRANCH  10  11
ENDBRANCH   9  10
ENDBRANCH   8   9
ENDBRANCH   7   8
ENDBRANCH   1   7
BRANCH   3  16
HETATM   16  C   UNL     1       8.793   4.866  16.448  1.00  0.00     0.212 C 
HETATM   17  O   UNL     1       9.791   4.509  17.128  1.00  0.00    -0.644 OA
HETATM   18  O   UNL     1       7.642   4.496  16.788  1.00  0.00    -0.644 OA
ENDBRANCH   3  16
BRANCH   2  19
HETATM   19  O   UNL     1       8.109   3.815  13.940  1.00  0.00    -0.359 OA
ATOM     20  HO  UNL     1       7.276   3.635  13.521  1.00  0.00     0.217 HD
ENDBRANCH   2  19
BRANCH   5  21
HETATM   21  O   UNL     1       9.404   7.735  11.591  1.00  0.00    -0.361 OA
ATOM     22  HO  UNL     1       9.093   7.348  10.782  1.00  0.00     0.217 HD
ENDBRANCH   5  21
TORSDOF 11
ENDMDL
MODEL 12
REMARK VINA RESULT:    -6.475      6.608     10.227
REMARK INTER + INTRA:         -11.147
REMARK INTER:                 -10.086
REMARK INTRA:                  -1.061
REMARK UNBOUND:                -0.887
REMARK  11 active torsions:
REMARK  status: ('A' for Active; 'I' for Inactive)
REMARK    1  A    between atoms: C_1  and  C_12 
REMARK    2  A    between atoms: C_2  and  O_19 
REMARK    3  A    between atoms: C_3  and  C_16 
REMARK    4  A    between atoms: C_5  and  C_6 
REMARK    5  A    between atoms: C_6  and  C_7 
REMARK    6  A    between atoms: C_7  and  C_8 
REMARK    7  A    between atoms: C_8  and  C_9 
REMARK    8  A    between atoms: C_9  and  C_10 
REMARK    9  A    between atoms: C_10  and  C_11 
REMARK   10  A    between atoms: C_11  and  C_12 
REMARK   11  A    between atoms: C_14  and  O_17 
ROOT
HETATM    1  C   UNL     1       5.859   5.178   9.766  1.00  0.00    -0.036 A 
HETATM    2  C   UNL     1       3.806   6.352   9.454  1.00  0.00     0.085 A 
HETATM    3  C   UNL     1       4.531   5.382  10.121  1.00  0.00     0.080 A 
HETATM    4  C   UNL     1       6.417   5.921   8.750  1.00  0.00     0.044 A 
HETATM    5  C   UNL     1       5.672   6.878   8.100  1.00  0.00     0.068 A 
HETATM    6  C   UNL     1       4.365   7.100   8.447  1.00  0.00     0.074 A 
ENDROOT
BRANCH   1   7
HETATM    7  C   UNL     1       6.727   4.119  10.432  1.00  0.00     0.040 C 
BRANCH   7   8
HETATM    8  C   UNL     1       7.811   4.815  11.263  1.00  0.00     0.005 C 
BRANCH   8   9
HETATM    9  C   UNL     1       7.461   4.918  12.749  1.00  0.00     0.000 C 
BRANCH   9  10
HETATM   10  C   UNL     1       8.658   5.286  13.626  1.00  0.00     0.000 C 
BRANCH  10  11
HETATM   11  C   UNL     1       9.607   6.289  12.950  1.00  0.00     0.000 C 
BRANCH  11  12
HETATM   12  C   UNL     1       9.728   7.592  13.740  1.00  0.00     0.000 C 
BRANCH  12  13
HETATM   13  C   UNL     1       8.657   7.755  14.816  1.00  0.00    -0.000 C 
BRANCH  13  14
HETATM   14  C   UNL     1       8.783   9.161  15.395  1.00  0.00    -0.005 C 
HETATM   15  C   UNL     1       9.976   9.329  16.329  1.00  0.00     0.005 C 
ENDBRANCH  13  14
ENDBRANCH  12  13
ENDBRANCH  11  12
ENDBRANCH  10  11
ENDBRANCH   9  10
ENDBRANCH   8   9
ENDBRANCH   7   8
ENDBRANCH   1   7
BRANCH   3  16
HETATM   16  C   UNL     1       3.827   4.616  11.236  1.00  0.00     0.212 C 
HETATM   17  O   UNL     1       3.578   3.390  11.093  1.00  0.00    -0.644 OA
HETATM   18  O   UNL     1       3.440   5.215  12.271  1.00  0.00    -0.644 OA
ENDBRANCH   3  16
BRANCH   2  19
HETATM   19  O   UNL     1       2.480   6.595   9.776  1.00  0.00    -0.359 OA
ATOM     20  HO  UNL     1       1.883   5.879   9.956  1.00  0.00     0.217 HD
ENDBRANCH   2  19
BRANCH   5  21
HETATM   21  O   UNL     1       6.255   7.628   7.086  1.00  0.00    -0.361 OA
ATOM     22  HO  UNL     1       7.123   7.994   7.208  1.00  0.00     0.217 HD
ENDBRANCH   5  21
TORSDOF 11
ENDMDL
MODEL 13
REMARK VINA RESULT:    -6.433      6.245     10.319
REMARK INTER + INTRA:         -11.080
REMARK INTER:                 -10.342
REMARK INTRA:                  -0.738
REMARK UNBOUND:                -0.887
REMARK  11 active torsions:
REMARK  status: ('A' for Active; 'I' for Inactive)
REMARK    1  A    between atoms: C_1  and  C_12 
REMARK    2  A    between atoms: C_2  and  O_19 
REMARK    3  A    between atoms: C_3  and  C_16 
REMARK    4  A    between atoms: C_5  and  C_6 
REMARK    5  A    between atoms: C_6  and  C_7 
REMARK    6  A    between atoms: C_7  and  C_8 
REMARK    7  A    between atoms: C_8  and  C_9 
REMARK    8  A    between atoms: C_9  and  C_10 
REMARK    9  A    between atoms: C_10  and  C_11 
REMARK   10  A    between atoms: C_11  and  C_12 
REMARK   11  A    between atoms: C_14  and  O_17 
ROOT
HETATM    1  C   UNL     1       7.611   3.366  13.848  1.00  0.00    -0.036 A 
HETATM    2  C   UNL     1       7.134   1.331  12.699  1.00  0.00     0.085 A 
HETATM    3  C   UNL     1       7.323   2.007  13.890  1.00  0.00     0.080 A 
HETATM    4  C   UNL     1       7.727   4.004  12.633  1.00  0.00     0.044 A 
HETATM    5  C   UNL     1       7.537   3.307  11.462  1.00  0.00     0.068 A 
HETATM    6  C   UNL     1       7.240   1.969  11.487  1.00  0.00     0.074 A 
ENDROOT
BRANCH   1   7
HETATM    7  C   UNL     1       7.853   4.186  15.108  1.00  0.00     0.040 C 
BRANCH   7   8
HETATM    8  C   UNL     1       8.345   5.581  14.707  1.00  0.00     0.005 C 
BRANCH   8   9
HETATM    9  C   UNL     1       9.223   6.243  15.771  1.00  0.00     0.000 C 
BRANCH   9  10
HETATM   10  C   UNL     1       9.871   7.544  15.295  1.00  0.00     0.000 C 
BRANCH  10  11
HETATM   11  C   UNL     1       9.203   8.794  15.890  1.00  0.00     0.000 C 
BRANCH  11  12
HETATM   12  C   UNL     1       9.947  10.077  15.520  1.00  0.00     0.000 C 
BRANCH  12  13
HETATM   13  C   UNL     1      11.393  10.108  16.012  1.00  0.00    -0.000 C 
BRANCH  13  14
HETATM   14  C   UNL     1      11.694  11.523  16.497  1.00  0.00    -0.005 C 
HETATM   15  C   UNL     1      10.694  12.561  16.001  1.00  0.00     0.005 C 
ENDBRANCH  13  14
ENDBRANCH  12  13
ENDBRANCH  11  12
ENDBRANCH  10  11
ENDBRANCH   9  10
ENDBRANCH   8   9
ENDBRANCH   7   8
ENDBRANCH   1   7
BRANCH   3  16
HETATM   16  C   UNL     1       7.168   1.215  15.184  1.00  0.00     0.212 C 
HETATM   17  O   UNL     1       6.188   1.439  15.941  1.00  0.00    -0.644 OA
HETATM   18  O   UNL     1       8.045   0.384  15.526  1.00  0.00    -0.644 OA
ENDBRANCH   3  16
BRANCH   2  19
HETATM   19  O   UNL     1       6.840  -0.023  12.689  1.00  0.00    -0.359 OA
ATOM     20  HO  UNL     1       5.990  -0.339  12.971  1.00  0.00     0.217 HD
ENDBRANCH   2  19
BRANCH   5  21
HETATM   21  O   UNL     1       7.644   3.969  10.246  1.00  0.00    -0.361 OA
ATOM     22  HO  UNL     1       8.006   4.847  10.216  1.00  0.00     0.217 HD
ENDBRANCH   5  21
TORSDOF 11
ENDMDL
MODEL 14
REMARK VINA RESULT:    -6.426      6.129      9.956
REMARK INTER + INTRA:         -11.070
REMARK INTER:                  -9.952
REMARK INTRA:                  -1.118
REMARK UNBOUND:                -0.887
REMARK  11 active torsions:
REMARK  status: ('A' for Active; 'I' for Inactive)
REMARK    1  A    between atoms: C_1  and  C_12 
REMARK    2  A    between atoms: C_2  and  O_19 
REMARK    3  A    between atoms: C_3  and  C_16 
REMARK    4  A    between atoms: C_5  and  C_6 
REMARK    5  A    between atoms: C_6  and  C_7 
REMARK    6  A    between atoms: C_7  and  C_8 
REMARK    7  A    between atoms: C_8  and  C_9 
REMARK    8  A    between atoms: C_9  and  C_10 
REMARK    9  A    between atoms: C_10  and  C_11 
REMARK   10  A    between atoms: C_11  and  C_12 
REMARK   11  A    between atoms: C_14  and  O_17 
ROOT
HETATM    1  C   UNL     1       8.557   3.653  10.715  1.00  0.00    -0.036 A 
HETATM    2  C   UNL     1       6.175   3.724  10.605  1.00  0.00     0.085 A 
HETATM    3  C   UNL     1       7.327   3.599  11.359  1.00  0.00     0.080 A 
HETATM    4  C   UNL     1       8.607   3.802   9.347  1.00  0.00     0.044 A 
HETATM    5  C   UNL     1       7.444   3.920   8.619  1.00  0.00     0.068 A 
HETATM    6  C   UNL     1       6.224   3.882   9.242  1.00  0.00     0.074 A 
ENDROOT
BRANCH   1   7
HETATM    7  C   UNL     1       9.876   3.505  11.462  1.00  0.00     0.040 C 
BRANCH   7   8
HETATM    8  C   UNL     1      10.673   4.807  11.326  1.00  0.00     0.005 C 
BRANCH   8   9
HETATM    9  C   UNL     1      10.835   5.559  12.649  1.00  0.00     0.000 C 
BRANCH   9  10
HETATM   10  C   UNL     1       9.644   6.459  12.980  1.00  0.00     0.000 C 
BRANCH  10  11
HETATM   11  C   UNL     1       9.869   7.307  14.242  1.00  0.00     0.000 C 
BRANCH  11  12
HETATM   12  C   UNL     1       8.608   8.058  14.666  1.00  0.00     0.000 C 
BRANCH  12  13
HETATM   13  C   UNL     1       8.892   9.296  15.515  1.00  0.00    -0.000 C 
BRANCH  13  14
HETATM   14  C   UNL     1      10.221   9.079  16.234  1.00  0.00    -0.005 C 
HETATM   15  C   UNL     1      11.184  10.253  16.097  1.00  0.00     0.005 C 
ENDBRANCH  13  14
ENDBRANCH  12  13
ENDBRANCH  11  12
ENDBRANCH  10  11
ENDBRANCH   9  10
ENDBRANCH   8   9
ENDBRANCH   7   8
ENDBRANCH   1   7
BRANCH   3  16
HETATM   16  C   UNL     1       7.170   3.444  12.868  1.00  0.00     0.212 C 
HETATM   17  O   UNL     1       7.297   2.309  13.397  1.00  0.00    -0.644 OA
HETATM   18  O   UNL     1       6.855   4.432  13.577  1.00  0.00    -0.644 OA
ENDBRANCH   3  16
BRANCH   2  19
HETATM   19  O   UNL     1       4.926   3.682  11.203  1.00  0.00    -0.359 OA
ATOM     20  HO  UNL     1       4.833   3.449  12.119  1.00  0.00     0.217 HD
ENDBRANCH   2  19
BRANCH   5  21
HETATM   21  O   UNL     1       7.513   4.084   7.241  1.00  0.00    -0.361 OA
ATOM     22  HO  UNL     1       6.894   4.654   6.801  1.00  0.00     0.217 HD
ENDBRANCH   5  21
TORSDOF 11
ENDMDL
MODEL 15
REMARK VINA RESULT:    -6.332      6.264     10.238
REMARK INTER + INTRA:         -10.921
REMARK INTER:                 -10.061
REMARK INTRA:                  -0.860
REMARK UNBOUND:                -0.887
REMARK  11 active torsions:
REMARK  status: ('A' for Active; 'I' for Inactive)
REMARK    1  A    between atoms: C_1  and  C_12 
REMARK    2  A    between atoms: C_2  and  O_19 
REMARK    3  A    between atoms: C_3  and  C_16 
REMARK    4  A    between atoms: C_5  and  C_6 
REMARK    5  A    between atoms: C_6  and  C_7 
REMARK    6  A    between atoms: C_7  and  C_8 
REMARK    7  A    between atoms: C_8  and  C_9 
REMARK    8  A    between atoms: C_9  and  C_10 
REMARK    9  A    between atoms: C_10  and  C_11 
REMARK   10  A    between atoms: C_11  and  C_12 
REMARK   11  A    between atoms: C_14  and  O_17 
ROOT
HETATM    1  C   UNL     1       8.062   4.546  10.729  1.00  0.00    -0.036 A 
HETATM    2  C   UNL     1       7.584   3.554   8.613  1.00  0.00     0.085 A 
HETATM    3  C   UNL     1       8.461   3.749   9.663  1.00  0.00     0.080 A 
HETATM    4  C   UNL     1       6.821   5.142  10.710  1.00  0.00     0.044 A 
HETATM    5  C   UNL     1       5.968   4.934   9.650  1.00  0.00     0.068 A 
HETATM    6  C   UNL     1       6.343   4.141   8.597  1.00  0.00     0.074 A 
ENDROOT
BRANCH   1   7
HETATM    7  C   UNL     1       8.969   4.831  11.919  1.00  0.00     0.040 C 
BRANCH   7   8
HETATM    8  C   UNL     1       8.224   4.472  13.209  1.00  0.00     0.005 C 
BRANCH   8   9
HETATM    9  C   UNL     1       8.497   5.448  14.356  1.00  0.00     0.000 C 
BRANCH   9  10
HETATM   10  C   UNL     1       9.256   6.700  13.915  1.00  0.00     0.000 C 
BRANCH  10  11
HETATM   11  C   UNL     1       8.670   7.993  14.506  1.00  0.00     0.000 C 
BRANCH  11  12
HETATM   12  C   UNL     1       9.754   9.012  14.854  1.00  0.00     0.000 C 
BRANCH  12  13
HETATM   13  C   UNL     1      10.126   9.026  16.335  1.00  0.00    -0.000 C 
BRANCH  13  14
HETATM   14  C   UNL     1      10.845  10.341  16.626  1.00  0.00    -0.005 C 
HETATM   15  C   UNL     1      10.897  11.283  15.428  1.00  0.00     0.005 C 
ENDBRANCH  13  14
ENDBRANCH  12  13
ENDBRANCH  11  12
ENDBRANCH  10  11
ENDBRANCH   9  10
ENDBRANCH   8   9
ENDBRANCH   7   8
ENDBRANCH   1   7
BRANCH   3  16
HETATM   16  C   UNL     1       9.811   3.041   9.597  1.00  0.00     0.212 C 
HETATM   17  O   UNL     1       9.859   1.783   9.607  1.00  0.00    -0.644 OA
HETATM   18  O   UNL     1      10.876   3.708   9.593  1.00  0.00    -0.644 OA
ENDBRANCH   3  16
BRANCH   2  19
HETATM   19  O   UNL     1       7.936   2.764   7.530  1.00  0.00    -0.359 OA
ATOM     20  HO  UNL     1       8.769   2.309   7.510  1.00  0.00     0.217 HD
ENDBRANCH   2  19
BRANCH   5  21
HETATM   21  O   UNL     1       4.714   5.533   9.653  1.00  0.00    -0.361 OA
ATOM     22  HO  UNL     1       4.395   5.959  10.440  1.00  0.00     0.217 HD
ENDBRANCH   5  21
TORSDOF 11
ENDMDL
MODEL 16
REMARK VINA RESULT:    -6.311      6.228     10.494
REMARK INTER + INTRA:         -10.887
REMARK INTER:                 -10.083
REMARK INTRA:                  -0.804
REMARK UNBOUND:                -0.887
REMARK  11 active torsions:
REMARK  status: ('A' for Active; 'I' for Inactive)
REMARK    1  A    between atoms: C_1  and  C_12 
REMARK    2  A    between atoms: C_2  and  O_19 
REMARK    3  A    between atoms: C_3  and  C_16 
REMARK    4  A    between atoms: C_5  and  C_6 
REMARK    5  A    between atoms: C_6  and  C_7 
REMARK    6  A    between atoms: C_7  and  C_8 
REMARK    7  A    between atoms: C_8  and  C_9 
REMARK    8  A    between atoms: C_9  and  C_10 
REMARK    9  A    between atoms: C_10  and  C_11 
REMARK   10  A    between atoms: C_11  and  C_12 
REMARK   11  A    between atoms: C_14  and  O_17 
ROOT
HETATM    1  C   UNL     1       7.840   4.379  10.498  1.00  0.00    -0.036 A 
HETATM    2  C   UNL     1       7.439   3.861   8.204  1.00  0.00     0.085 A 
HETATM    3  C   UNL     1       7.138   4.617   9.322  1.00  0.00     0.080 A 
HETATM    4  C   UNL     1       8.795   3.388  10.536  1.00  0.00     0.044 A 
HETATM    5  C   UNL     1       9.073   2.648   9.409  1.00  0.00     0.068 A 
HETATM    6  C   UNL     1       8.398   2.879   8.238  1.00  0.00     0.074 A 
ENDROOT
BRANCH   1   7
HETATM    7  C   UNL     1       7.562   5.149  11.782  1.00  0.00     0.040 C 
BRANCH   7   8
HETATM    8  C   UNL     1       8.785   5.041  12.700  1.00  0.00     0.005 C 
BRANCH   8   9
HETATM    9  C   UNL     1       9.444   6.392  12.991  1.00  0.00     0.000 C 
BRANCH   9  10
HETATM   10  C   UNL     1      10.036   6.483  14.398  1.00  0.00     0.000 C 
BRANCH  10  11
HETATM   11  C   UNL     1       9.072   7.120  15.411  1.00  0.00     0.000 C 
BRANCH  11  12
HETATM   12  C   UNL     1       9.055   8.645  15.312  1.00  0.00     0.000 C 
BRANCH  12  13
HETATM   13  C   UNL     1       9.932   9.335  16.354  1.00  0.00    -0.000 C 
BRANCH  13  14
HETATM   14  C   UNL     1      10.728  10.430  15.648  1.00  0.00    -0.005 C 
HETATM   15  C   UNL     1      11.636  11.219  16.584  1.00  0.00     0.005 C 
ENDBRANCH  13  14
ENDBRANCH  12  13
ENDBRANCH  11  12
ENDBRANCH  10  11
ENDBRANCH   9  10
ENDBRANCH   8   9
ENDBRANCH   7   8
ENDBRANCH   1   7
BRANCH   3  16
HETATM   16  C   UNL     1       6.069   5.695   9.179  1.00  0.00     0.212 C 
HETATM   17  O   UNL     1       6.341   6.772   8.588  1.00  0.00    -0.644 OA
HETATM   18  O   UNL     1       4.937   5.538   9.702  1.00  0.00    -0.644 OA
ENDBRANCH   3  16
BRANCH   2  19
HETATM   19  O   UNL     1       6.770   4.065   7.008  1.00  0.00    -0.359 OA
ATOM     20  HO  UNL     1       7.107   3.709   6.195  1.00  0.00     0.217 HD
ENDBRANCH   2  19
BRANCH   5  21
HETATM   21  O   UNL     1      10.050   1.661   9.461  1.00  0.00    -0.361 OA
ATOM     22  HO  UNL     1      10.957   1.901   9.608  1.00  0.00     0.217 HD
ENDBRANCH   5  21
TORSDOF 11
ENDMDL
MODEL 17
REMARK VINA RESULT:    -6.230      6.189     10.061
REMARK INTER + INTRA:         -10.760
REMARK INTER:                  -9.828
REMARK INTRA:                  -0.932
REMARK UNBOUND:                -0.887
REMARK  11 active torsions:
REMARK  status: ('A' for Active; 'I' for Inactive)
REMARK    1  A    between atoms: C_1  and  C_12 
REMARK    2  A    between atoms: C_2  and  O_19 
REMARK    3  A    between atoms: C_3  and  C_16 
REMARK    4  A    between atoms: C_5  and  C_6 
REMARK    5  A    between atoms: C_6  and  C_7 
REMARK    6  A    between atoms: C_7  and  C_8 
REMARK    7  A    between atoms: C_8  and  C_9 
REMARK    8  A    between atoms: C_9  and  C_10 
REMARK    9  A    between atoms: C_10  and  C_11 
REMARK   10  A    between atoms: C_11  and  C_12 
REMARK   11  A    between atoms: C_14  and  O_17 
ROOT
HETATM    1  C   UNL     1       8.222   4.040  11.124  1.00  0.00    -0.036 A 
HETATM    2  C   UNL     1       6.056   3.059  10.933  1.00  0.00     0.085 A 
HETATM    3  C   UNL     1       7.146   3.391  11.717  1.00  0.00     0.080 A 
HETATM    4  C   UNL     1       8.196   4.315   9.775  1.00  0.00     0.044 A 
HETATM    5  C   UNL     1       7.101   3.971   9.017  1.00  0.00     0.068 A 
HETATM    6  C   UNL     1       6.026   3.342   9.590  1.00  0.00     0.074 A 
ENDROOT
BRANCH   1   7
HETATM    7  C   UNL     1       9.471   4.426  11.905  1.00  0.00     0.040 C 
BRANCH   7   8
HETATM    8  C   UNL     1       9.339   5.881  12.366  1.00  0.00     0.005 C 
BRANCH   8   9
HETATM    9  C   UNL     1       9.604   6.068  13.862  1.00  0.00     0.000 C 
BRANCH   9  10
HETATM   10  C   UNL     1       8.763   7.180  14.490  1.00  0.00     0.000 C 
BRANCH  10  11
HETATM   11  C   UNL     1       9.407   8.569  14.346  1.00  0.00     0.000 C 
BRANCH  11  12
HETATM   12  C   UNL     1       9.109   9.470  15.543  1.00  0.00     0.000 C 
BRANCH  12  13
HETATM   13  C   UNL     1      10.222   9.485  16.588  1.00  0.00    -0.000 C 
BRANCH  13  14
HETATM   14  C   UNL     1      11.335  10.395  16.076  1.00  0.00    -0.005 C 
HETATM   15  C   UNL     1      10.822  11.675  15.425  1.00  0.00     0.005 C 
ENDBRANCH  13  14
ENDBRANCH  12  13
ENDBRANCH  11  12
ENDBRANCH  10  11
ENDBRANCH   9  10
ENDBRANCH   8   9
ENDBRANCH   7   8
ENDBRANCH   1   7
BRANCH   3  16
HETATM   16  C   UNL     1       7.078   3.050  13.202  1.00  0.00     0.212 C 
HETATM   17  O   UNL     1       7.190   1.853  13.575  1.00  0.00    -0.644 OA
HETATM   18  O   UNL     1       6.851   3.951  14.049  1.00  0.00    -0.644 OA
ENDBRANCH   3  16
BRANCH   2  19
HETATM   19  O   UNL     1       4.958   2.416  11.480  1.00  0.00    -0.359 OA
ATOM     20  HO  UNL     1       4.927   1.469  11.539  1.00  0.00     0.217 HD
ENDBRANCH   2  19
BRANCH   5  21
HETATM   21  O   UNL     1       7.086   4.268   7.660  1.00  0.00    -0.361 OA
ATOM     22  HO  UNL     1       6.282   4.564   7.249  1.00  0.00     0.217 HD
ENDBRANCH   5  21
TORSDOF 11
ENDMDL
MODEL 18
REMARK VINA RESULT:    -6.177      6.459     10.839
REMARK INTER + INTRA:         -10.675
REMARK INTER:                  -9.766
REMARK INTRA:                  -0.909
REMARK UNBOUND:                -0.887
REMARK  11 active torsions:
REMARK  status: ('A' for Active; 'I' for Inactive)
REMARK    1  A    between atoms: C_1  and  C_12 
REMARK    2  A    between atoms: C_2  and  O_19 
REMARK    3  A    between atoms: C_3  and  C_16 
REMARK    4  A    between atoms: C_5  and  C_6 
REMARK    5  A    between atoms: C_6  and  C_7 
REMARK    6  A    between atoms: C_7  and  C_8 
REMARK    7  A    between atoms: C_8  and  C_9 
REMARK    8  A    between atoms: C_9  and  C_10 
REMARK    9  A    between atoms: C_10  and  C_11 
REMARK   10  A    between atoms: C_11  and  C_12 
REMARK   11  A    between atoms: C_14  and  O_17 
ROOT
HETATM    1  C   UNL     1       7.997   3.122  11.696  1.00  0.00    -0.036 A 
HETATM    2  C   UNL     1       9.020   1.225  10.675  1.00  0.00     0.085 A 
HETATM    3  C   UNL     1       8.737   2.577  10.654  1.00  0.00     0.080 A 
HETATM    4  C   UNL     1       7.542   2.308  12.710  1.00  0.00     0.044 A 
HETATM    5  C   UNL     1       7.835   0.964  12.705  1.00  0.00     0.068 A 
HETATM    6  C   UNL     1       8.575   0.414  11.690  1.00  0.00     0.074 A 
ENDROOT
BRANCH   1   7
HETATM    7  C   UNL     1       7.622   4.597  11.746  1.00  0.00     0.040 C 
BRANCH   7   8
HETATM    8  C   UNL     1       8.248   5.228  12.994  1.00  0.00     0.005 C 
BRANCH   8   9
HETATM    9  C   UNL     1       9.613   5.867  12.729  1.00  0.00     0.000 C 
BRANCH   9  10
HETATM   10  C   UNL     1       9.779   7.233  13.395  1.00  0.00     0.000 C 
BRANCH  10  11
HETATM   11  C   UNL     1       9.045   7.333  14.742  1.00  0.00     0.000 C 
BRANCH  11  12
HETATM   12  C   UNL     1       8.748   8.780  15.133  1.00  0.00     0.000 C 
BRANCH  12  13
HETATM   13  C   UNL     1       9.606   9.288  16.290  1.00  0.00    -0.000 C 
BRANCH  13  14
HETATM   14  C   UNL     1      10.838   9.969  15.698  1.00  0.00    -0.005 C 
HETATM   15  C   UNL     1      11.437  11.036  16.607  1.00  0.00     0.005 C 
ENDBRANCH  13  14
ENDBRANCH  12  13
ENDBRANCH  11  12
ENDBRANCH  10  11
ENDBRANCH   9  10
ENDBRANCH   8   9
ENDBRANCH   7   8
ENDBRANCH   1   7
BRANCH   3  16
HETATM   16  C   UNL     1       9.291   3.397   9.492  1.00  0.00     0.212 C 
HETATM   17  O   UNL     1      10.493   3.769   9.505  1.00  0.00    -0.644 OA
HETATM   18  O   UNL     1       8.536   3.753   8.553  1.00  0.00    -0.644 OA
ENDBRANCH   3  16
BRANCH   2  19
HETATM   19  O   UNL     1       9.759   0.637   9.660  1.00  0.00    -0.359 OA
ATOM     20  HO  UNL     1       9.635  -0.277   9.434  1.00  0.00     0.217 HD
ENDBRANCH   2  19
BRANCH   5  21
HETATM   21  O   UNL     1       7.379   0.160  13.743  1.00  0.00    -0.361 OA
ATOM     22  HO  UNL     1       7.905  -0.573  14.039  1.00  0.00     0.217 HD
ENDBRANCH   5  21
TORSDOF 11
ENDMDL
MODEL 19
REMARK VINA RESULT:    -6.121      6.521     10.641
REMARK INTER + INTRA:         -10.587
REMARK INTER:                  -9.582
REMARK INTRA:                  -1.006
REMARK UNBOUND:                -0.887
REMARK  11 active torsions:
REMARK  status: ('A' for Active; 'I' for Inactive)
REMARK    1  A    between atoms: C_1  and  C_12 
REMARK    2  A    between atoms: C_2  and  O_19 
REMARK    3  A    between atoms: C_3  and  C_16 
REMARK    4  A    between atoms: C_5  and  C_6 
REMARK    5  A    between atoms: C_6  and  C_7 
REMARK    6  A    between atoms: C_7  and  C_8 
REMARK    7  A    between atoms: C_8  and  C_9 
REMARK    8  A    between atoms: C_9  and  C_10 
REMARK    9  A    between atoms: C_10  and  C_11 
REMARK   10  A    between atoms: C_11  and  C_12 
REMARK   11  A    between atoms: C_14  and  O_17 
ROOT
HETATM    1  C   UNL     1       6.600   4.487  10.975  1.00  0.00    -0.036 A 
HETATM    2  C   UNL     1       5.006   4.111   9.241  1.00  0.00     0.085 A 
HETATM    3  C   UNL     1       6.322   4.130   9.662  1.00  0.00     0.080 A 
HETATM    4  C   UNL     1       5.570   4.837  11.821  1.00  0.00     0.044 A 
HETATM    5  C   UNL     1       4.268   4.813  11.376  1.00  0.00     0.068 A 
HETATM    6  C   UNL     1       3.978   4.450  10.086  1.00  0.00     0.074 A 
ENDROOT
BRANCH   1   7
HETATM    7  C   UNL     1       8.020   4.554  11.519  1.00  0.00     0.040 C 
BRANCH   7   8
HETATM    8  C   UNL     1       7.984   4.329  13.035  1.00  0.00     0.005 C 
BRANCH   8   9
HETATM    9  C   UNL     1       8.545   5.507  13.835  1.00  0.00     0.000 C 
BRANCH   9  10
HETATM   10  C   UNL     1       9.421   6.441  12.999  1.00  0.00     0.000 C 
BRANCH  10  11
HETATM   11  C   UNL     1       9.443   7.880  13.539  1.00  0.00     0.000 C 
BRANCH  11  12
HETATM   12  C   UNL     1       8.688   8.012  14.861  1.00  0.00     0.000 C 
BRANCH  12  13
HETATM   13  C   UNL     1       8.957   9.328  15.588  1.00  0.00    -0.000 C 
BRANCH  13  14
HETATM   14  C   UNL     1      10.315   9.215  16.276  1.00  0.00    -0.005 C 
HETATM   15  C   UNL     1      11.000  10.560  16.494  1.00  0.00     0.005 C 
ENDBRANCH  13  14
ENDBRANCH  12  13
ENDBRANCH  11  12
ENDBRANCH  10  11
ENDBRANCH   9  10
ENDBRANCH   8   9
ENDBRANCH   7   8
ENDBRANCH   1   7
BRANCH   3  16
HETATM   16  C   UNL     1       7.391   3.720   8.654  1.00  0.00     0.212 C 
HETATM   17  O   UNL     1       7.563   4.404   7.611  1.00  0.00    -0.644 OA
HETATM   18  O   UNL     1       8.059   2.670   8.830  1.00  0.00    -0.644 OA
ENDBRANCH   3  16
BRANCH   2  19
HETATM   19  O   UNL     1       4.679   3.756   7.942  1.00  0.00    -0.359 OA
ATOM     20  HO  UNL     1       4.588   2.844   7.694  1.00  0.00     0.217 HD
ENDBRANCH   2  19
BRANCH   5  21
HETATM   21  O   UNL     1       3.241   5.156  12.246  1.00  0.00    -0.361 OA
ATOM     22  HO  UNL     1       2.455   4.624  12.283  1.00  0.00     0.217 HD
ENDBRANCH   5  21
TORSDOF 11
ENDMDL
MODEL 20
REMARK VINA RESULT:    -5.985      6.916     10.578
REMARK INTER + INTRA:         -10.372
REMARK INTER:                  -9.479
REMARK INTRA:                  -0.892
REMARK UNBOUND:                -0.887
REMARK  11 active torsions:
REMARK  status: ('A' for Active; 'I' for Inactive)
REMARK    1  A    between atoms: C_1  and  C_12 
REMARK    2  A    between atoms: C_2  and  O_19 
REMARK    3  A    between atoms: C_3  and  C_16 
REMARK    4  A    between atoms: C_5  and  C_6 
REMARK    5  A    between atoms: C_6  and  C_7 
REMARK    6  A    between atoms: C_7  and  C_8 
REMARK    7  A    between atoms: C_8  and  C_9 
REMARK    8  A    between atoms: C_9  and  C_10 
REMARK    9  A    between atoms: C_10  and  C_11 
REMARK   10  A    between atoms: C_11  and  C_12 
REMARK   11  A    between atoms: C_14  and  O_17 
ROOT
HETATM    1  C   UNL     1       5.017   5.690   9.266  1.00  0.00    -0.036 A 
HETATM    2  C   UNL     1       3.746   7.662   8.837  1.00  0.00     0.085 A 
HETATM    3  C   UNL     1       4.793   6.825   8.498  1.00  0.00     0.080 A 
HETATM    4  C   UNL     1       4.216   5.433  10.357  1.00  0.00     0.044 A 
HETATM    5  C   UNL     1       3.183   6.284  10.674  1.00  0.00     0.068 A 
HETATM    6  C   UNL     1       2.941   7.401   9.919  1.00  0.00     0.074 A 
ENDROOT
BRANCH   1   7
HETATM    7  C   UNL     1       6.158   4.723   8.978  1.00  0.00     0.040 C 
BRANCH   7   8
HETATM    8  C   UNL     1       6.689   4.172  10.306  1.00  0.00     0.005 C 
BRANCH   8   9
HETATM    9  C   UNL     1       8.170   4.482  10.541  1.00  0.00     0.000 C 
BRANCH   9  10
HETATM   10  C   UNL     1       8.436   5.174  11.878  1.00  0.00     0.000 C 
BRANCH  10  11
HETATM   11  C   UNL     1       9.917   5.134  12.286  1.00  0.00     0.000 C 
BRANCH  11  12
HETATM   12  C   UNL     1      10.200   5.988  13.521  1.00  0.00     0.000 C 
BRANCH  12  13
HETATM   13  C   UNL     1       9.368   7.268  13.582  1.00  0.00    -0.000 C 
BRANCH  13  14
HETATM   14  C   UNL     1       9.244   7.678  15.047  1.00  0.00    -0.005 C 
HETATM   15  C   UNL     1       8.666   9.075  15.239  1.00  0.00     0.005 C 
ENDBRANCH  13  14
ENDBRANCH  12  13
ENDBRANCH  11  12
ENDBRANCH  10  11
ENDBRANCH   9  10
ENDBRANCH   8   9
ENDBRANCH   7   8
ENDBRANCH   1   7
BRANCH   3  16
HETATM   16  C   UNL     1       5.620   7.191   7.270  1.00  0.00     0.212 C 
HETATM   17  O   UNL     1       5.120   7.075   6.120  1.00  0.00    -0.644 OA
HETATM   18  O   UNL     1       6.818   7.550   7.396  1.00  0.00    -0.644 OA
ENDBRANCH   3  16
BRANCH   2  19
HETATM   19  O   UNL     1       3.481   8.804   8.098  1.00  0.00    -0.359 OA
ATOM     20  HO  UNL     1       4.109   9.132   7.466  1.00  0.00     0.217 HD
ENDBRANCH   2  19
BRANCH   5  21
HETATM   21  O   UNL     1       2.376   6.002  11.770  1.00  0.00    -0.361 OA
ATOM     22  HO  UNL     1       1.519   6.404  11.842  1.00  0.00     0.217 HD
ENDBRANCH   5  21
TORSDOF 11
ENDMDL
