REMARK  7 active torsions:
REMARK  status: ('A' for Active; 'I' for Inactive)
REMARK    1  A    between atoms: C_2  and  O_14 
REMARK    2  A    between atoms: C_4  and  C_19 
REMARK    3  A    between atoms: C_6  and  N_21 
REMARK    4  A    between atoms: C_8  and  C_10 
REMARK    5  A    between atoms: C_10  and  C_26 
REMARK    6  A    between atoms: C_12  and  S_36 
REMARK       I    between atoms: C_19  and  N_21 
REMARK    7  A    between atoms: C_30  and  N_31 
ROOT
HETATM    1  C   UNL     1      20.249  -7.736 -17.732  1.00  0.00     0.035 A 
HETATM    2  C   UNL     1      20.937  -5.678 -19.487  1.00  0.00     0.125 A 
HETATM    3  C   UNL     1      21.920  -6.158 -18.605  1.00  0.00     0.013 A 
HETATM    4  C   UNL     1      21.538  -7.187 -17.759  1.00  0.00     0.042 A 
HETATM    5  C   UNL     1      19.306  -7.222 -18.633  1.00  0.00     0.032 A 
HETATM    6  C   UNL     1      19.653  -6.189 -19.479  1.00  0.00     0.045 A 
HETATM    7  F   UNL     1      21.215  -4.689 -20.385  1.00  0.00    -0.205 F 
ENDROOT
BRANCH   3   8
HETATM    8  C   UNL     1      23.352  -5.605 -18.612  1.00  0.00     0.087 C 
HETATM    9  C   UNL     1      24.002  -5.960 -19.965  1.00  0.00     0.041 C 
HETATM   10  C   UNL     1      24.342  -7.468 -20.066  1.00  0.00     0.036 C 
HETATM   11  C   UNL     1      25.411  -7.852 -19.015  1.00  0.00     0.117 C 
HETATM   12  C   UNL     1      25.427  -9.379 -18.879  1.00  0.00     0.040 C 
HETATM   13  C   UNL     1      25.012  -7.201 -17.696  1.00  0.00     0.095 C 
HETATM   14  N   UNL     1      24.180  -6.209 -17.556  1.00  0.00    -0.363 N 
ATOM     15  HN  UNL     1      24.094  -5.811 -16.621  1.00  0.00     0.162 HD
BRANCH   8  16
HETATM   16  C   UNL     1      23.375  -4.102 -18.339  1.00  0.00     0.258 C 
HETATM   17  F   UNL     1      24.688  -3.632 -18.462  1.00  0.00    -0.253 F 
ENDBRANCH   8  16
BRANCH  11  18
HETATM   18  S   UNL     1      27.075  -7.224 -19.570  1.00  0.00     0.156 S 
HETATM   19  C   UNL     1      28.418  -7.872 -18.508  1.00  0.00     0.162 C 
HETATM   20  O   UNL     1      27.344  -7.775 -20.854  1.00  0.00    -0.227 OA
HETATM   21  O   UNL     1      27.215  -5.811 -19.413  1.00  0.00    -0.227 OA
ENDBRANCH  11  18
BRANCH  13  22
HETATM   22  N   UNL     1      25.624  -7.669 -16.575  1.00  0.00    -0.388 N 
ATOM     23  HN2 UNL     1      26.276  -8.446 -16.685  1.00  0.00     0.157 HD
ATOM     24  HN1 UNL     1      25.357  -7.233 -15.692  1.00  0.00     0.157 HD
ENDBRANCH  13  22
ENDBRANCH   3   8
BRANCH   1  25
HETATM   25  N   UNL     1      20.024  -8.786 -16.798  1.00  0.00    -0.322 N 
HETATM   26  C   UNL     1      18.887  -9.454 -16.532  1.00  0.00     0.272 C 
HETATM   27  O   UNL     1      17.832  -9.256 -17.147  1.00  0.00    -0.266 OA
ATOM     28  HN  UNL     1      20.838  -9.072 -16.254  1.00  0.00     0.169 HD
BRANCH  26  29
HETATM   29  C   UNL     1      18.975 -10.515 -15.500  1.00  0.00     0.106 A 
HETATM   30  C   UNL     1      17.960 -11.477 -15.305  1.00  0.00     0.091 A 
HETATM   31  C   UNL     1      18.189 -12.471 -14.333  1.00  0.00     0.144 A 
HETATM   32  N   UNL     1      19.311 -12.462 -13.624  1.00  0.00    -0.333 N 
HETATM   33  C   UNL     1      20.218 -11.542 -13.834  1.00  0.00     0.183 A 
ATOM     34  HN  UNL     1      19.467 -13.176 -12.912  1.00  0.00     0.168 HD
HETATM   35  N   UNL     1      20.069 -10.589 -14.736  1.00  0.00    -0.348 N 
ATOM     36  HN  UNL     1      20.806  -9.893 -14.852  1.00  0.00     0.167 HD
BRANCH  31  37
HETATM   37  O   UNL     1      17.286 -13.453 -14.103  1.00  0.00    -0.341 OA
HETATM   38  C   UNL     1      17.578 -14.435 -13.069  1.00  0.00     0.211 C 
ENDBRANCH  31  37
ENDBRANCH  26  29
ENDBRANCH   1  25
TORSDOF 7
