REMARK  6 active torsions:
REMARK  status: ('A' for Active; 'I' for Inactive)
REMARK    1  A    between atoms: C_1  and  N_19 
REMARK    2  A    between atoms: C_2  and  O_17 
REMARK    3  A    between atoms: O_5  and  C_9 
REMARK    4  A    between atoms: O_5  and  C_12 
REMARK    5  A    between atoms: C_12  and  C_13 
REMARK    6  A    between atoms: C_29  and  N_30 
ROOT
HETATM    1  C   UNL     1       6.690 -20.694  47.077  1.00  0.00     0.046 C 
HETATM    2  C   UNL     1       5.951 -21.209  45.860  1.00  0.00     0.177 C 
ENDROOT
BRANCH   2   3
HETATM    3  O   UNL     1       4.561 -21.203  46.197  1.00  0.00    -0.336 OA
BRANCH   3   4
HETATM    4  C   UNL     1       3.626 -21.324  45.191  1.00  0.00     0.114 A 
HETATM    5  C   UNL     1       2.290 -21.458  45.642  1.00  0.00     0.133 A 
HETATM    6  N   UNL     1       1.246 -21.573  44.816  1.00  0.00    -0.340 N 
HETATM    7  C   UNL     1       1.495 -21.581  43.467  1.00  0.00     0.044 A 
ATOM      8  HN  UNL     1       0.295 -21.652  45.177  1.00  0.00     0.167 HD
HETATM    9  C   UNL     1       0.410 -21.721  42.574  1.00  0.00     0.033 A 
HETATM   10  C   UNL     1       2.810 -21.465  42.940  1.00  0.00    -0.004 A 
HETATM   11  C   UNL     1       0.620 -21.745  41.224  1.00  0.00     0.044 A 
HETATM   12  C   UNL     1       1.899 -21.614  40.739  1.00  0.00     0.117 A 
HETATM   13  F   UNL     1       2.074 -21.592  39.396  1.00  0.00    -0.206 F 
HETATM   14  C   UNL     1       2.991 -21.487  41.535  1.00  0.00     0.056 A 
HETATM   15  C   UNL     1       3.885 -21.333  43.849  1.00  0.00     0.054 A 
BRANCH   5  16
HETATM   16  N   UNL     1       2.071 -21.538  46.964  1.00  0.00    -0.383 N 
ATOM     17  HN2 UNL     1       1.109 -21.634  47.289  1.00  0.00     0.157 HD
ATOM     18  HN1 UNL     1       2.868 -21.450  47.595  1.00  0.00     0.157 HD
ENDBRANCH   5  16
ENDBRANCH   3   4
ENDBRANCH   2   3
BRANCH   2  19
HETATM   19  C   UNL     1       6.378 -22.619  45.489  1.00  0.00     0.069 A 
HETATM   20  C   UNL     1       7.169 -22.990  44.386  1.00  0.00     0.081 A 
HETATM   21  C   UNL     1       7.449 -24.328  44.129  1.00  0.00     0.038 A 
HETATM   22  C   UNL     1       6.916 -25.301  44.958  1.00  0.00     0.058 A 
HETATM   23  C   UNL     1       6.156 -24.877  46.050  1.00  0.00     0.140 A 
HETATM   24  N   UNL     1       5.900 -23.575  46.298  1.00  0.00    -0.336 N 
ATOM     25  HN  UNL     1       5.338 -23.316  47.109  1.00  0.00     0.168 HD
BRANCH  20  26
HETATM   26  N   UNL     1       7.626 -22.011  43.451  1.00  0.00    -0.266 N 
HETATM   27  C   UNL     1       8.563 -21.046  43.641  1.00  0.00     0.118 A 
HETATM   28  C   UNL     1       8.627 -20.323  42.488  1.00  0.00     0.038 A 
HETATM   29  C   UNL     1       7.694 -20.915  41.636  1.00  0.00     0.109 A 
HETATM   30  N   UNL     1       7.082 -21.949  42.202  1.00  0.00    -0.305 N 
ATOM     31  HN  UNL     1       6.370 -22.556  41.796  1.00  0.00     0.186 HD
ENDBRANCH  20  26
BRANCH  23  32
HETATM   32  O   UNL     1       5.706 -25.745  46.922  1.00  0.00    -0.346 OA
ATOM     33  HO  UNL     1       5.189 -25.457  47.665  1.00  0.00     0.219 HD
ENDBRANCH  23  32
ENDBRANCH   2  19
TORSDOF 6
