REMARK  5 active torsions:
REMARK  status: ('A' for Active; 'I' for Inactive)
REMARK    1  A    between atoms: C_1  and  N_17 
REMARK    2  A    between atoms: O_5  and  C_9 
REMARK    3  A    between atoms: O_5  and  C_12 
REMARK    4  A    between atoms: C_12  and  C_13 
REMARK    5  A    between atoms: C_27  and  N_28 
ROOT
HETATM    1  O   UNL     1       0.787  -1.871   0.812  1.00  0.00    -0.336 OA
ENDROOT
BRANCH   1   2
HETATM    2  C   UNL     1      -0.077  -0.930   1.401  1.00  0.00     0.114 A 
HETATM    3  C   UNL     1       0.058   0.454   1.186  1.00  0.00     0.054 A 
HETATM    4  C   UNL     1      -0.847   1.348   1.769  1.00  0.00    -0.004 A 
HETATM    5  C   UNL     1      -0.740   2.732   1.562  1.00  0.00     0.056 A 
HETATM    6  C   UNL     1      -1.885   0.839   2.577  1.00  0.00     0.044 A 
HETATM    7  C   UNL     1      -1.662   3.600   2.157  1.00  0.00     0.117 A 
HETATM    8  C   UNL     1      -2.690   3.093   2.958  1.00  0.00     0.044 A 
HETATM    9  F   UNL     1      -1.559   4.937   1.956  1.00  0.00    -0.206 F 
HETATM   10  C   UNL     1      -2.803   1.715   3.169  1.00  0.00     0.033 A 
HETATM   11  N   UNL     1      -1.991  -0.500   2.781  1.00  0.00    -0.340 N 
HETATM   12  C   UNL     1      -1.124  -1.388   2.223  1.00  0.00     0.133 A 
ATOM     13  HN  UNL     1      -2.745  -0.851   3.372  1.00  0.00     0.167 HD
BRANCH  12  14
HETATM   14  N   UNL     1      -1.295  -2.783   2.482  1.00  0.00    -0.383 N 
HETATM   15  H   UNL     1      -0.641  -3.497   2.093  1.00  0.00     0.157 HD
HETATM   16  H   UNL     1      -2.087  -3.111   3.079  1.00  0.00     0.157 HD
ENDBRANCH  12  14
ENDBRANCH   1   2
BRANCH   1  17
HETATM   17  C   UNL     1       1.872  -1.567  -0.067  1.00  0.00     0.177 C 
HETATM   18  C   UNL     1       2.722  -2.816  -0.292  1.00  0.00     0.046 C 
BRANCH  17  19
HETATM   19  C   UNL     1       1.407  -0.993  -1.397  1.00  0.00     0.070 A 
HETATM   20  C   UNL     1       0.172  -1.338  -2.010  1.00  0.00     0.081 A 
HETATM   21  C   UNL     1      -0.191  -0.697  -3.202  1.00  0.00     0.039 A 
HETATM   22  C   UNL     1       0.659   0.233  -3.792  1.00  0.00     0.077 A 
HETATM   23  C   UNL     1       1.879   0.524  -3.185  1.00  0.00     0.245 A 
HETATM   24  N   UNL     1       2.224  -0.087  -2.018  1.00  0.00    -0.323 N 
HETATM   25  O   UNL     1       2.660   1.357  -3.716  1.00  0.00    -0.268 OA
HETATM   26  H   UNL     1       3.143   0.159  -1.584  1.00  0.00     0.169 HD
BRANCH  20  27
HETATM   27  N   UNL     1      -0.727  -2.309  -1.450  1.00  0.00    -0.266 N 
HETATM   28  C   UNL     1      -2.043  -2.128  -1.233  1.00  0.00     0.118 A 
HETATM   29  C   UNL     1      -2.570  -3.307  -0.752  1.00  0.00     0.038 A 
HETATM   30  C   UNL     1      -1.500  -4.180  -0.715  1.00  0.00     0.109 A 
HETATM   31  N   UNL     1      -0.391  -3.553  -1.151  1.00  0.00    -0.305 N 
ATOM     32  HN  UNL     1       0.539  -3.963  -1.235  1.00  0.00     0.186 HD
ENDBRANCH  20  27
ENDBRANCH  17  19
ENDBRANCH   1  17
TORSDOF 5
