MODEL 1
REMARK VINA RESULT:    -8.175      0.000      0.000
REMARK INTER + INTRA:         -12.917
REMARK INTER:                 -11.998
REMARK INTRA:                  -0.919
REMARK UNBOUND:                -0.919
REMARK  9 active torsions:
REMARK  status: ('A' for Active; 'I' for Inactive)
REMARK    1  A    between atoms: N_1  and  C_5 
REMARK    2  A    between atoms: C_5  and  C_7 
REMARK       I    between atoms: C_9  and  N_30 
REMARK    3  A    between atoms: C_9  and  C_10 
REMARK    4  A    between atoms: C_10  and  C_11 
REMARK    5  A    between atoms: C_10  and  N_31 
REMARK    6  A    between atoms: C_11  and  C_12 
REMARK    7  A    between atoms: C_22  and  C_23 
REMARK    8  A    between atoms: C_23  and  N_28 
REMARK    9  A    between atoms: C_24  and  C_25 
REMARK       I    between atoms: C_24  and  N_28 
ROOT
HETATM    1  C   UNL     1      29.360   1.609   2.370  1.00  0.00     0.127 C 
HETATM    2  C   UNL     1      27.274   1.456   0.943  1.00  0.00     0.251 C 
HETATM    3  C   UNL     1      27.251   0.755   3.261  1.00  0.00     0.179 C 
HETATM    4  C   UNL     1      28.345   0.720   4.342  1.00  0.00     0.037 C 
HETATM    5  C   UNL     1      29.656   0.742   3.567  1.00  0.00     0.022 C 
HETATM    6  N   UNL     1      27.949   1.296   2.089  1.00  0.00    -0.337 N 
HETATM    7  O   UNL     1      26.114   1.102   0.836  1.00  0.00    -0.271 OA
ENDROOT
BRANCH   3   8
HETATM    8  C   UNL     1      26.089   1.654   3.677  1.00  0.00     0.240 C 
HETATM    9  N   UNL     1      24.905   1.066   3.814  1.00  0.00    -0.355 N 
ATOM     10  HN  UNL     1      24.831   0.064   3.639  1.00  0.00     0.162 HD
HETATM   11  O   UNL     1      26.263   2.856   3.864  1.00  0.00    -0.271 OA
BRANCH   9  12
HETATM   12  C   UNL     1      23.709   1.797   4.205  1.00  0.00     0.161 C 
BRANCH  12  13
HETATM   13  C   UNL     1      22.574   1.592   3.228  1.00  0.00    -0.041 A 
HETATM   14  C   UNL     1      21.566   0.672   3.471  1.00  0.00     0.009 A 
HETATM   15  C   UNL     1      20.567   0.444   2.540  1.00  0.00     0.009 A 
HETATM   16  C   UNL     1      20.548   1.128   1.331  1.00  0.00    -0.033 A 
HETATM   17  C   UNL     1      21.546   2.060   1.097  1.00  0.00     0.009 A 
HETATM   18  C   UNL     1      22.540   2.294   2.033  1.00  0.00     0.009 A 
BRANCH  16  19
HETATM   19  C   UNL     1      19.493   0.813   0.291  1.00  0.00     0.268 C 
BRANCH  19  20
HETATM   20  N   UNL     1      19.723   1.441  -1.031  1.00  0.00    -0.075 N 
ATOM     21  HN3 UNL     1      19.524   0.776  -1.779  1.00  0.00     0.274 HD
ATOM     22  HN2 UNL     1      19.005   2.139  -1.222  1.00  0.00     0.274 HD
ATOM     23  HN1 UNL     1      20.652   1.844  -1.153  1.00  0.00     0.274 HD
ENDBRANCH  19  20
ENDBRANCH  16  19
ENDBRANCH  12  13
ENDBRANCH   9  12
ENDBRANCH   3   8
BRANCH   2  24
HETATM   24  C   UNL     1      27.998   2.073  -0.251  1.00  0.00     0.279 C 
BRANCH  24  25
HETATM   25  C   UNL     1      27.616   1.327  -1.534  1.00  0.00     0.081 C 
BRANCH  25  26
HETATM   26  C   UNL     1      28.318   0.011  -1.766  1.00  0.00    -0.056 A 
HETATM   27  C   UNL     1      28.626  -0.420  -3.051  1.00  0.00     0.007 A 
HETATM   28  C   UNL     1      29.214  -1.655  -3.259  1.00  0.00     0.001 A 
HETATM   29  C   UNL     1      29.519  -2.468  -2.188  1.00  0.00     0.000 A 
HETATM   30  C   UNL     1      29.235  -2.042  -0.911  1.00  0.00     0.001 A 
HETATM   31  C   UNL     1      28.636  -0.814  -0.702  1.00  0.00     0.007 A 
ENDBRANCH  25  26
ENDBRANCH  24  25
BRANCH  24  32
HETATM   32  N   UNL     1      27.486   3.456  -0.300  1.00  0.00    -0.066 N 
ATOM     33  HN3 UNL     1      27.157   3.750  -1.220  1.00  0.00     0.275 HD
ATOM     34  HN2 UNL     1      26.598   3.593   0.184  1.00  0.00     0.275 HD
ATOM     35  HN1 UNL     1      28.256   4.015   0.070  1.00  0.00     0.275 HD
ENDBRANCH  24  32
ENDBRANCH   2  24
TORSDOF 9
ENDMDL
MODEL 2
REMARK VINA RESULT:    -8.073      0.745      1.362
REMARK INTER + INTRA:         -12.768
REMARK INTER:                 -11.282
REMARK INTRA:                  -1.486
REMARK UNBOUND:                -0.919
REMARK  9 active torsions:
REMARK  status: ('A' for Active; 'I' for Inactive)
REMARK    1  A    between atoms: N_1  and  C_5 
REMARK    2  A    between atoms: C_5  and  C_7 
REMARK       I    between atoms: C_9  and  N_30 
REMARK    3  A    between atoms: C_9  and  C_10 
REMARK    4  A    between atoms: C_10  and  C_11 
REMARK    5  A    between atoms: C_10  and  N_31 
REMARK    6  A    between atoms: C_11  and  C_12 
REMARK    7  A    between atoms: C_22  and  C_23 
REMARK    8  A    between atoms: C_23  and  N_28 
REMARK    9  A    between atoms: C_24  and  C_25 
REMARK       I    between atoms: C_24  and  N_28 
ROOT
HETATM    1  C   UNL     1      29.307   2.083   2.408  1.00  0.00     0.127 C 
HETATM    2  C   UNL     1      27.247   1.684   0.990  1.00  0.00     0.251 C 
HETATM    3  C   UNL     1      27.312   0.998   3.313  1.00  0.00     0.179 C 
HETATM    4  C   UNL     1      28.407   1.095   4.389  1.00  0.00     0.037 C 
HETATM    5  C   UNL     1      29.704   1.263   3.609  1.00  0.00     0.022 C 
HETATM    6  N   UNL     1      27.940   1.609   2.135  1.00  0.00    -0.337 N 
HETATM    7  O   UNL     1      26.135   1.198   0.890  1.00  0.00    -0.271 OA
ENDROOT
BRANCH   3   8
HETATM    8  C   UNL     1      26.057   1.761   3.729  1.00  0.00     0.240 C 
HETATM    9  N   UNL     1      24.939   1.049   3.835  1.00  0.00    -0.355 N 
ATOM     10  HN  UNL     1      24.974   0.049   3.637  1.00  0.00     0.162 HD
HETATM   11  O   UNL     1      26.101   2.970   3.943  1.00  0.00    -0.271 OA
BRANCH   9  12
HETATM   12  C   UNL     1      23.668   1.642   4.221  1.00  0.00     0.161 C 
BRANCH  12  13
HETATM   13  C   UNL     1      22.607   1.447   3.163  1.00  0.00    -0.041 A 
HETATM   14  C   UNL     1      22.674   2.094   1.939  1.00  0.00     0.009 A 
HETATM   15  C   UNL     1      21.663   1.960   1.003  1.00  0.00     0.009 A 
HETATM   16  C   UNL     1      20.547   1.175   1.264  1.00  0.00    -0.033 A 
HETATM   17  C   UNL     1      20.489   0.515   2.481  1.00  0.00     0.009 A 
HETATM   18  C   UNL     1      21.506   0.642   3.414  1.00  0.00     0.009 A 
BRANCH  16  19
HETATM   19  C   UNL     1      19.414   1.100   0.262  1.00  0.00     0.268 C 
BRANCH  19  20
HETATM   20  N   UNL     1      19.799   1.435  -1.129  1.00  0.00    -0.075 N 
ATOM     21  HN3 UNL     1      20.357   2.289  -1.147  1.00  0.00     0.274 HD
ATOM     22  HN2 UNL     1      20.487   0.768  -1.477  1.00  0.00     0.274 HD
ATOM     23  HN1 UNL     1      19.016   1.510  -1.780  1.00  0.00     0.274 HD
ENDBRANCH  19  20
ENDBRANCH  16  19
ENDBRANCH  12  13
ENDBRANCH   9  12
ENDBRANCH   3   8
BRANCH   2  24
HETATM   24  C   UNL     1      27.892   2.372  -0.210  1.00  0.00     0.279 C 
BRANCH  24  25
HETATM   25  C   UNL     1      28.079   1.364  -1.350  1.00  0.00     0.081 C 
BRANCH  25  26
HETATM   26  C   UNL     1      28.986   0.195  -1.054  1.00  0.00    -0.056 A 
HETATM   27  C   UNL     1      30.298   0.393  -0.639  1.00  0.00     0.007 A 
HETATM   28  C   UNL     1      31.141  -0.684  -0.430  1.00  0.00     0.001 A 
HETATM   29  C   UNL     1      30.683  -1.971  -0.612  1.00  0.00     0.000 A 
HETATM   30  C   UNL     1      29.381  -2.178  -1.005  1.00  0.00     0.001 A 
HETATM   31  C   UNL     1      28.539  -1.103  -1.227  1.00  0.00     0.007 A 
ENDBRANCH  25  26
ENDBRANCH  24  25
BRANCH  24  32
HETATM   32  N   UNL     1      26.906   3.399  -0.600  1.00  0.00    -0.066 N 
ATOM     33  HN3 UNL     1      26.290   3.121  -1.365  1.00  0.00     0.275 HD
ATOM     34  HN2 UNL     1      26.168   3.555   0.085  1.00  0.00     0.275 HD
ATOM     35  HN1 UNL     1      27.476   4.222  -0.799  1.00  0.00     0.275 HD
ENDBRANCH  24  32
ENDBRANCH   2  24
TORSDOF 9
ENDMDL
MODEL 3
REMARK VINA RESULT:    -7.506      5.539      9.107
REMARK INTER + INTRA:         -11.935
REMARK INTER:                 -10.893
REMARK INTRA:                  -1.042
REMARK UNBOUND:                -0.919
REMARK  9 active torsions:
REMARK  status: ('A' for Active; 'I' for Inactive)
REMARK    1  A    between atoms: N_1  and  C_5 
REMARK    2  A    between atoms: C_5  and  C_7 
REMARK       I    between atoms: C_9  and  N_30 
REMARK    3  A    between atoms: C_9  and  C_10 
REMARK    4  A    between atoms: C_10  and  C_11 
REMARK    5  A    between atoms: C_10  and  N_31 
REMARK    6  A    between atoms: C_11  and  C_12 
REMARK    7  A    between atoms: C_22  and  C_23 
REMARK    8  A    between atoms: C_23  and  N_28 
REMARK    9  A    between atoms: C_24  and  C_25 
REMARK       I    between atoms: C_24  and  N_28 
ROOT
HETATM    1  C   UNL     1      27.797   5.161   7.178  1.00  0.00     0.127 C 
HETATM    2  C   UNL     1      25.459   4.376   7.748  1.00  0.00     0.251 C 
HETATM    3  C   UNL     1      26.230   4.424   5.453  1.00  0.00     0.179 C 
HETATM    4  C   UNL     1      27.564   4.856   4.819  1.00  0.00     0.037 C 
HETATM    5  C   UNL     1      28.212   5.761   5.858  1.00  0.00     0.022 C 
HETATM    6  N   UNL     1      26.447   4.650   6.887  1.00  0.00    -0.337 N 
HETATM    7  O   UNL     1      24.366   4.006   7.361  1.00  0.00    -0.271 OA
ENDROOT
BRANCH   3   8
HETATM    8  C   UNL     1      25.930   2.955   5.164  1.00  0.00     0.240 C 
HETATM    9  N   UNL     1      24.690   2.670   4.777  1.00  0.00    -0.355 N 
ATOM     10  HN  UNL     1      24.015   3.430   4.693  1.00  0.00     0.162 HD
HETATM   11  O   UNL     1      26.802   2.100   5.295  1.00  0.00    -0.271 OA
BRANCH   9  12
HETATM   12  C   UNL     1      24.260   1.315   4.468  1.00  0.00     0.161 C 
BRANCH  12  13
HETATM   13  C   UNL     1      23.082   1.296   3.521  1.00  0.00    -0.041 A 
HETATM   14  C   UNL     1      21.936   0.568   3.803  1.00  0.00     0.009 A 
HETATM   15  C   UNL     1      20.890   0.504   2.899  1.00  0.00     0.009 A 
HETATM   16  C   UNL     1      20.958   1.165   1.679  1.00  0.00    -0.033 A 
HETATM   17  C   UNL     1      22.096   1.907   1.406  1.00  0.00     0.009 A 
HETATM   18  C   UNL     1      23.139   1.978   2.315  1.00  0.00     0.009 A 
BRANCH  16  19
HETATM   19  C   UNL     1      19.838   1.023   0.669  1.00  0.00     0.268 C 
BRANCH  19  20
HETATM   20  N   UNL     1      19.334   2.305   0.124  1.00  0.00    -0.075 N 
ATOM     21  HN3 UNL     1      19.415   2.315  -0.893  1.00  0.00     0.274 HD
ATOM     22  HN2 UNL     1      18.319   2.356   0.218  1.00  0.00     0.274 HD
ATOM     23  HN1 UNL     1      19.770   3.137   0.523  1.00  0.00     0.274 HD
ENDBRANCH  19  20
ENDBRANCH  16  19
ENDBRANCH  12  13
ENDBRANCH   9  12
ENDBRANCH   3   8
BRANCH   2  24
HETATM   24  C   UNL     1      25.718   4.562   9.241  1.00  0.00     0.279 C 
BRANCH  24  25
HETATM   25  C   UNL     1      24.727   5.578   9.819  1.00  0.00     0.081 C 
BRANCH  25  26
HETATM   26  C   UNL     1      25.263   6.478  10.906  1.00  0.00    -0.056 A 
HETATM   27  C   UNL     1      26.598   6.422  11.289  1.00  0.00     0.007 A 
HETATM   28  C   UNL     1      27.067   7.206  12.328  1.00  0.00     0.001 A 
HETATM   29  C   UNL     1      26.217   8.069  12.985  1.00  0.00     0.000 A 
HETATM   30  C   UNL     1      24.898   8.145  12.602  1.00  0.00     0.001 A 
HETATM   31  C   UNL     1      24.423   7.353  11.572  1.00  0.00     0.007 A 
ENDBRANCH  25  26
ENDBRANCH  24  25
BRANCH  24  32
HETATM   32  N   UNL     1      25.465   3.226   9.814  1.00  0.00    -0.066 N 
ATOM     33  HN3 UNL     1      25.342   3.220  10.827  1.00  0.00     0.275 HD
ATOM     34  HN2 UNL     1      24.548   2.840   9.590  1.00  0.00     0.275 HD
ATOM     35  HN1 UNL     1      26.249   2.665   9.482  1.00  0.00     0.275 HD
ENDBRANCH  24  32
ENDBRANCH   2  24
TORSDOF 9
ENDMDL
MODEL 4
REMARK VINA RESULT:    -7.182      1.368      2.142
REMARK INTER + INTRA:         -11.460
REMARK INTER:                 -10.492
REMARK INTRA:                  -0.967
REMARK UNBOUND:                -0.919
REMARK  9 active torsions:
REMARK  status: ('A' for Active; 'I' for Inactive)
REMARK    1  A    between atoms: N_1  and  C_5 
REMARK    2  A    between atoms: C_5  and  C_7 
REMARK       I    between atoms: C_9  and  N_30 
REMARK    3  A    between atoms: C_9  and  C_10 
REMARK    4  A    between atoms: C_10  and  C_11 
REMARK    5  A    between atoms: C_10  and  N_31 
REMARK    6  A    between atoms: C_11  and  C_12 
REMARK    7  A    between atoms: C_22  and  C_23 
REMARK    8  A    between atoms: C_23  and  N_28 
REMARK    9  A    between atoms: C_24  and  C_25 
REMARK       I    between atoms: C_24  and  N_28 
ROOT
HETATM    1  C   UNL     1      29.439   1.925   2.409  1.00  0.00     0.127 C 
HETATM    2  C   UNL     1      27.388   1.678   0.946  1.00  0.00     0.251 C 
HETATM    3  C   UNL     1      27.381   0.901   3.240  1.00  0.00     0.179 C 
HETATM    4  C   UNL     1      28.460   0.905   4.337  1.00  0.00     0.037 C 
HETATM    5  C   UNL     1      29.777   1.042   3.583  1.00  0.00     0.022 C 
HETATM    6  N   UNL     1      28.056   1.527   2.097  1.00  0.00    -0.337 N 
HETATM    7  O   UNL     1      26.257   1.249   0.810  1.00  0.00    -0.271 OA
ENDROOT
BRANCH   3   8
HETATM    8  C   UNL     1      26.156   1.706   3.666  1.00  0.00     0.240 C 
HETATM    9  N   UNL     1      25.017   1.030   3.789  1.00  0.00    -0.355 N 
ATOM     10  HN  UNL     1      25.018   0.028   3.596  1.00  0.00     0.162 HD
HETATM   11  O   UNL     1      26.240   2.914   3.874  1.00  0.00    -0.271 OA
BRANCH   9  12
HETATM   12  C   UNL     1      23.770   1.665   4.186  1.00  0.00     0.161 C 
BRANCH  12  13
HETATM   13  C   UNL     1      22.678   1.461   3.162  1.00  0.00    -0.041 A 
HETATM   14  C   UNL     1      22.675   2.147   1.958  1.00  0.00     0.009 A 
HETATM   15  C   UNL     1      21.636   2.003   1.055  1.00  0.00     0.009 A 
HETATM   16  C   UNL     1      20.561   1.167   1.331  1.00  0.00    -0.033 A 
HETATM   17  C   UNL     1      20.573   0.468   2.527  1.00  0.00     0.009 A 
HETATM   18  C   UNL     1      21.619   0.606   3.426  1.00  0.00     0.009 A 
BRANCH  16  19
HETATM   19  C   UNL     1      19.395   1.078   0.368  1.00  0.00     0.268 C 
BRANCH  19  20
HETATM   20  N   UNL     1      19.730   1.408  -1.037  1.00  0.00    -0.075 N 
ATOM     21  HN3 UNL     1      20.281   2.266  -1.078  1.00  0.00     0.274 HD
ATOM     22  HN2 UNL     1      20.411   0.745  -1.405  1.00  0.00     0.274 HD
ATOM     23  HN1 UNL     1      18.925   1.473  -1.661  1.00  0.00     0.274 HD
ENDBRANCH  19  20
ENDBRANCH  16  19
ENDBRANCH  12  13
ENDBRANCH   9  12
ENDBRANCH   3   8
BRANCH   2  24
HETATM   24  C   UNL     1      28.084   2.380  -0.217  1.00  0.00     0.279 C 
BRANCH  24  25
HETATM   25  C   UNL     1      28.644   1.341  -1.194  1.00  0.00     0.081 C 
BRANCH  25  26
HETATM   26  C   UNL     1      28.155   1.444  -2.618  1.00  0.00    -0.056 A 
HETATM   27  C   UNL     1      27.020   0.759  -3.037  1.00  0.00     0.007 A 
HETATM   28  C   UNL     1      26.614   0.810  -4.359  1.00  0.00     0.001 A 
HETATM   29  C   UNL     1      27.322   1.559  -5.275  1.00  0.00     0.000 A 
HETATM   30  C   UNL     1      28.436   2.255  -4.866  1.00  0.00     0.001 A 
HETATM   31  C   UNL     1      28.851   2.195  -3.548  1.00  0.00     0.007 A 
ENDBRANCH  25  26
ENDBRANCH  24  25
BRANCH  24  32
HETATM   32  N   UNL     1      27.004   3.151  -0.862  1.00  0.00    -0.066 N 
ATOM     33  HN3 UNL     1      26.586   2.692  -1.672  1.00  0.00     0.275 HD
ATOM     34  HN2 UNL     1      26.145   3.211  -0.315  1.00  0.00     0.275 HD
ATOM     35  HN1 UNL     1      27.435   4.053  -1.067  1.00  0.00     0.275 HD
ENDBRANCH  24  32
ENDBRANCH   2  24
TORSDOF 9
ENDMDL
MODEL 5
REMARK VINA RESULT:    -6.912      5.608      8.919
REMARK INTER + INTRA:         -11.063
REMARK INTER:                 -10.048
REMARK INTRA:                  -1.015
REMARK UNBOUND:                -0.919
REMARK  9 active torsions:
REMARK  status: ('A' for Active; 'I' for Inactive)
REMARK    1  A    between atoms: N_1  and  C_5 
REMARK    2  A    between atoms: C_5  and  C_7 
REMARK       I    between atoms: C_9  and  N_30 
REMARK    3  A    between atoms: C_9  and  C_10 
REMARK    4  A    between atoms: C_10  and  C_11 
REMARK    5  A    between atoms: C_10  and  N_31 
REMARK    6  A    between atoms: C_11  and  C_12 
REMARK    7  A    between atoms: C_22  and  C_23 
REMARK    8  A    between atoms: C_23  and  N_28 
REMARK    9  A    between atoms: C_24  and  C_25 
REMARK       I    between atoms: C_24  and  N_28 
ROOT
HETATM    1  C   UNL     1      28.608   4.997   6.927  1.00  0.00     0.127 C 
HETATM    2  C   UNL     1      26.739   3.805   8.150  1.00  0.00     0.251 C 
HETATM    3  C   UNL     1      26.516   4.399   5.813  1.00  0.00     0.179 C 
HETATM    4  C   UNL     1      27.458   5.123   4.835  1.00  0.00     0.037 C 
HETATM    5  C   UNL     1      28.426   5.891   5.727  1.00  0.00     0.022 C 
HETATM    6  N   UNL     1      27.282   4.372   7.065  1.00  0.00    -0.337 N 
HETATM    7  O   UNL     1      25.602   3.371   8.136  1.00  0.00    -0.271 OA
ENDROOT
BRANCH   3   8
HETATM    8  C   UNL     1      26.196   2.987   5.329  1.00  0.00     0.240 C 
HETATM    9  N   UNL     1      24.913   2.710   5.118  1.00  0.00    -0.355 N 
ATOM     10  HN  UNL     1      24.219   3.440   5.284  1.00  0.00     0.162 HD
HETATM   11  O   UNL     1      27.093   2.165   5.158  1.00  0.00    -0.271 OA
BRANCH   9  12
HETATM   12  C   UNL     1      24.459   1.407   4.657  1.00  0.00     0.161 C 
BRANCH  12  13
HETATM   13  C   UNL     1      23.318   1.519   3.672  1.00  0.00    -0.041 A 
HETATM   14  C   UNL     1      22.022   1.173   4.020  1.00  0.00     0.009 A 
HETATM   15  C   UNL     1      20.997   1.216   3.092  1.00  0.00     0.009 A 
HETATM   16  C   UNL     1      21.237   1.605   1.779  1.00  0.00    -0.033 A 
HETATM   17  C   UNL     1      22.530   1.968   1.437  1.00  0.00     0.009 A 
HETATM   18  C   UNL     1      23.554   1.933   2.370  1.00  0.00     0.009 A 
BRANCH  16  19
HETATM   19  C   UNL     1      20.120   1.574   0.757  1.00  0.00     0.268 C 
BRANCH  19  20
HETATM   20  N   UNL     1      19.070   0.563   1.022  1.00  0.00    -0.075 N 
ATOM     21  HN3 UNL     1      18.153   1.009   1.070  1.00  0.00     0.274 HD
ATOM     22  HN2 UNL     1      18.933  -0.029   0.203  1.00  0.00     0.274 HD
ATOM     23  HN1 UNL     1      19.231  -0.008   1.851  1.00  0.00     0.274 HD
ENDBRANCH  19  20
ENDBRANCH  16  19
ENDBRANCH  12  13
ENDBRANCH   9  12
ENDBRANCH   3   8
BRANCH   2  24
HETATM   24  C   UNL     1      27.569   3.734   9.429  1.00  0.00     0.279 C 
BRANCH  24  25
HETATM   25  C   UNL     1      26.718   4.170  10.627  1.00  0.00     0.081 C 
BRANCH  25  26
HETATM   26  C   UNL     1      27.357   5.169  11.561  1.00  0.00    -0.056 A 
HETATM   27  C   UNL     1      26.768   6.405  11.798  1.00  0.00     0.007 A 
HETATM   28  C   UNL     1      27.392   7.339  12.607  1.00  0.00     0.001 A 
HETATM   29  C   UNL     1      28.599   7.046  13.204  1.00  0.00     0.000 A 
HETATM   30  C   UNL     1      29.181   5.818  12.990  1.00  0.00     0.001 A 
HETATM   31  C   UNL     1      28.566   4.888  12.171  1.00  0.00     0.007 A 
ENDBRANCH  25  26
ENDBRANCH  24  25
BRANCH  24  32
HETATM   32  N   UNL     1      27.913   2.303   9.549  1.00  0.00    -0.066 N 
ATOM     33  HN3 UNL     1      28.899   2.123   9.742  1.00  0.00     0.275 HD
ATOM     34  HN2 UNL     1      27.552   1.853  10.389  1.00  0.00     0.275 HD
ATOM     35  HN1 UNL     1      27.575   1.897   8.676  1.00  0.00     0.275 HD
ENDBRANCH  24  32
ENDBRANCH   2  24
TORSDOF 9
ENDMDL
MODEL 6
REMARK VINA RESULT:    -6.769      3.922      8.304
REMARK INTER + INTRA:         -10.854
REMARK INTER:                 -10.079
REMARK INTRA:                  -0.774
REMARK UNBOUND:                -0.919
REMARK  9 active torsions:
REMARK  status: ('A' for Active; 'I' for Inactive)
REMARK    1  A    between atoms: N_1  and  C_5 
REMARK    2  A    between atoms: C_5  and  C_7 
REMARK       I    between atoms: C_9  and  N_30 
REMARK    3  A    between atoms: C_9  and  C_10 
REMARK    4  A    between atoms: C_10  and  C_11 
REMARK    5  A    between atoms: C_10  and  N_31 
REMARK    6  A    between atoms: C_11  and  C_12 
REMARK    7  A    between atoms: C_22  and  C_23 
REMARK    8  A    between atoms: C_23  and  N_28 
REMARK    9  A    between atoms: C_24  and  C_25 
REMARK       I    between atoms: C_24  and  N_28 
ROOT
HETATM    1  C   UNL     1      29.409   0.291   4.433  1.00  0.00     0.127 C 
HETATM    2  C   UNL     1      28.074   2.371   3.883  1.00  0.00     0.251 C 
HETATM    3  C   UNL     1      30.059   1.796   2.620  1.00  0.00     0.179 C 
HETATM    4  C   UNL     1      31.056   0.629   2.734  1.00  0.00     0.037 C 
HETATM    5  C   UNL     1      30.879   0.106   4.154  1.00  0.00     0.022 C 
HETATM    6  N   UNL     1      29.096   1.525   3.694  1.00  0.00    -0.337 N 
HETATM    7  O   UNL     1      27.966   3.390   3.227  1.00  0.00    -0.271 OA
ENDROOT
BRANCH   3   8
HETATM    8  C   UNL     1      29.377   1.810   1.255  1.00  0.00     0.240 C 
HETATM    9  N   UNL     1      28.755   0.692   0.892  1.00  0.00    -0.355 N 
ATOM     10  HN  UNL     1      28.763  -0.104   1.531  1.00  0.00     0.162 HD
HETATM   11  O   UNL     1      29.419   2.810   0.544  1.00  0.00    -0.271 OA
BRANCH   9  12
HETATM   12  C   UNL     1      28.062   0.560  -0.380  1.00  0.00     0.161 C 
BRANCH  12  13
HETATM   13  C   UNL     1      28.551  -0.633  -1.170  1.00  0.00    -0.041 A 
HETATM   14  C   UNL     1      28.942  -1.807  -0.545  1.00  0.00     0.009 A 
HETATM   15  C   UNL     1      29.449  -2.869  -1.273  1.00  0.00     0.009 A 
HETATM   16  C   UNL     1      29.586  -2.789  -2.653  1.00  0.00    -0.033 A 
HETATM   17  C   UNL     1      29.179  -1.622  -3.279  1.00  0.00     0.009 A 
HETATM   18  C   UNL     1      28.662  -0.562  -2.551  1.00  0.00     0.009 A 
BRANCH  16  19
HETATM   19  C   UNL     1      30.214  -3.930  -3.426  1.00  0.00     0.268 C 
BRANCH  19  20
HETATM   20  N   UNL     1      29.646  -5.265  -3.126  1.00  0.00    -0.075 N 
ATOM     21  HN3 UNL     1      29.500  -5.370  -2.121  1.00  0.00     0.274 HD
ATOM     22  HN2 UNL     1      28.680  -5.320  -3.449  1.00  0.00     0.274 HD
ATOM     23  HN1 UNL     1      30.188  -6.048  -3.490  1.00  0.00     0.274 HD
ENDBRANCH  19  20
ENDBRANCH  16  19
ENDBRANCH  12  13
ENDBRANCH   9  12
ENDBRANCH   3   8
BRANCH   2  24
HETATM   24  C   UNL     1      27.048   2.046   4.966  1.00  0.00     0.279 C 
BRANCH  24  25
HETATM   25  C   UNL     1      26.288   3.316   5.361  1.00  0.00     0.081 C 
BRANCH  25  26
HETATM   26  C   UNL     1      26.249   3.630   6.837  1.00  0.00    -0.056 A 
HETATM   27  C   UNL     1      25.164   4.292   7.400  1.00  0.00     0.007 A 
HETATM   28  C   UNL     1      25.163   4.630   8.742  1.00  0.00     0.001 A 
HETATM   29  C   UNL     1      26.234   4.296   9.543  1.00  0.00     0.000 A 
HETATM   30  C   UNL     1      27.305   3.625   8.998  1.00  0.00     0.001 A 
HETATM   31  C   UNL     1      27.314   3.297   7.655  1.00  0.00     0.007 A 
ENDBRANCH  25  26
ENDBRANCH  24  25
BRANCH  24  32
HETATM   32  N   UNL     1      26.132   1.092   4.311  1.00  0.00    -0.066 N 
ATOM     33  HN3 UNL     1      25.631   0.480   4.956  1.00  0.00     0.275 HD
ATOM     34  HN2 UNL     1      25.304   1.520   3.899  1.00  0.00     0.275 HD
ATOM     35  HN1 UNL     1      26.727   0.600   3.644  1.00  0.00     0.275 HD
ENDBRANCH  24  32
ENDBRANCH   2  24
TORSDOF 9
ENDMDL
MODEL 7
REMARK VINA RESULT:    -6.615     11.828     15.082
REMARK INTER + INTRA:         -10.627
REMARK INTER:                  -9.348
REMARK INTRA:                  -1.279
REMARK UNBOUND:                -0.919
REMARK  9 active torsions:
REMARK  status: ('A' for Active; 'I' for Inactive)
REMARK    1  A    between atoms: N_1  and  C_5 
REMARK    2  A    between atoms: C_5  and  C_7 
REMARK       I    between atoms: C_9  and  N_30 
REMARK    3  A    between atoms: C_9  and  C_10 
REMARK    4  A    between atoms: C_10  and  C_11 
REMARK    5  A    between atoms: C_10  and  N_31 
REMARK    6  A    between atoms: C_11  and  C_12 
REMARK    7  A    between atoms: C_22  and  C_23 
REMARK    8  A    between atoms: C_23  and  N_28 
REMARK    9  A    between atoms: C_24  and  C_25 
REMARK       I    between atoms: C_24  and  N_28 
ROOT
HETATM    1  C   UNL     1      25.240   9.478  13.751  1.00  0.00     0.127 C 
HETATM    2  C   UNL     1      25.786   8.383  11.534  1.00  0.00     0.251 C 
HETATM    3  C   UNL     1      27.090  10.252  12.354  1.00  0.00     0.179 C 
HETATM    4  C   UNL     1      26.985  11.106  13.629  1.00  0.00     0.037 C 
HETATM    5  C   UNL     1      25.554  10.908  14.111  1.00  0.00     0.022 C 
HETATM    6  N   UNL     1      25.989   9.292  12.497  1.00  0.00    -0.337 N 
HETATM    7  O   UNL     1      26.453   8.379  10.516  1.00  0.00    -0.271 OA
ENDROOT
BRANCH   3   8
HETATM    8  C   UNL     1      28.438   9.539  12.275  1.00  0.00     0.240 C 
HETATM    9  N   UNL     1      28.761   8.767  13.308  1.00  0.00    -0.355 N 
ATOM     10  HN  UNL     1      28.106   8.689  14.087  1.00  0.00     0.162 HD
HETATM   11  O   UNL     1      29.171   9.691  11.301  1.00  0.00    -0.271 OA
BRANCH   9  12
HETATM   12  C   UNL     1      30.012   8.028  13.371  1.00  0.00     0.161 C 
BRANCH  12  13
HETATM   13  C   UNL     1      29.834   6.577  12.987  1.00  0.00    -0.041 A 
HETATM   14  C   UNL     1      28.576   6.015  12.837  1.00  0.00     0.009 A 
HETATM   15  C   UNL     1      28.423   4.670  12.551  1.00  0.00     0.009 A 
HETATM   16  C   UNL     1      29.529   3.840  12.408  1.00  0.00    -0.033 A 
HETATM   17  C   UNL     1      30.786   4.406  12.540  1.00  0.00     0.009 A 
HETATM   18  C   UNL     1      30.938   5.755  12.818  1.00  0.00     0.009 A 
BRANCH  16  19
HETATM   19  C   UNL     1      29.344   2.355  12.170  1.00  0.00     0.268 C 
BRANCH  19  20
HETATM   20  N   UNL     1      30.605   1.583  12.084  1.00  0.00    -0.075 N 
ATOM     21  HN3 UNL     1      31.061   1.545  12.996  1.00  0.00     0.274 HD
ATOM     22  HN2 UNL     1      30.406   0.592  11.947  1.00  0.00     0.274 HD
ATOM     23  HN1 UNL     1      31.258   1.916  11.374  1.00  0.00     0.274 HD
ENDBRANCH  19  20
ENDBRANCH  16  19
ENDBRANCH  12  13
ENDBRANCH   9  12
ENDBRANCH   3   8
BRANCH   2  24
HETATM   24  C   UNL     1      24.673   7.356  11.722  1.00  0.00     0.279 C 
BRANCH  24  25
HETATM   25  C   UNL     1      23.429   7.785  10.936  1.00  0.00     0.081 C 
BRANCH  25  26
HETATM   26  C   UNL     1      22.557   8.825  11.596  1.00  0.00    -0.056 A 
HETATM   27  C   UNL     1      22.725  10.178  11.324  1.00  0.00     0.007 A 
HETATM   28  C   UNL     1      21.963  11.129  11.979  1.00  0.00     0.001 A 
HETATM   29  C   UNL     1      21.013  10.743  12.900  1.00  0.00     0.000 A 
HETATM   30  C   UNL     1      20.827   9.406  13.163  1.00  0.00     0.001 A 
HETATM   31  C   UNL     1      21.596   8.454  12.519  1.00  0.00     0.007 A 
ENDBRANCH  25  26
ENDBRANCH  24  25
BRANCH  24  32
HETATM   32  N   UNL     1      25.232   6.118  11.146  1.00  0.00    -0.066 N 
ATOM     33  HN3 UNL     1      25.653   5.489  11.831  1.00  0.00     0.275 HD
ATOM     34  HN2 UNL     1      24.532   5.458  10.807  1.00  0.00     0.275 HD
ATOM     35  HN1 UNL     1      25.877   6.451  10.430  1.00  0.00     0.275 HD
ENDBRANCH  24  32
ENDBRANCH   2  24
TORSDOF 9
ENDMDL
MODEL 8
REMARK VINA RESULT:    -6.555      9.251     13.322
REMARK INTER + INTRA:         -10.540
REMARK INTER:                  -9.467
REMARK INTRA:                  -1.073
REMARK UNBOUND:                -0.919
REMARK  9 active torsions:
REMARK  status: ('A' for Active; 'I' for Inactive)
REMARK    1  A    between atoms: N_1  and  C_5 
REMARK    2  A    between atoms: C_5  and  C_7 
REMARK       I    between atoms: C_9  and  N_30 
REMARK    3  A    between atoms: C_9  and  C_10 
REMARK    4  A    between atoms: C_10  and  C_11 
REMARK    5  A    between atoms: C_10  and  N_31 
REMARK    6  A    between atoms: C_11  and  C_12 
REMARK    7  A    between atoms: C_22  and  C_23 
REMARK    8  A    between atoms: C_23  and  N_28 
REMARK    9  A    between atoms: C_24  and  C_25 
REMARK       I    between atoms: C_24  and  N_28 
ROOT
HETATM    1  C   UNL     1      26.087   8.795  13.178  1.00  0.00     0.127 C 
HETATM    2  C   UNL     1      24.885   7.567  11.318  1.00  0.00     0.251 C 
HETATM    3  C   UNL     1      27.290   7.850  11.272  1.00  0.00     0.179 C 
HETATM    4  C   UNL     1      28.268   8.547  12.233  1.00  0.00     0.037 C 
HETATM    5  C   UNL     1      27.404   9.514  13.031  1.00  0.00     0.022 C 
HETATM    6  N   UNL     1      25.984   8.054  11.909  1.00  0.00    -0.337 N 
HETATM    7  O   UNL     1      24.940   7.017  10.234  1.00  0.00    -0.271 OA
ENDROOT
BRANCH   3   8
HETATM    8  C   UNL     1      27.613   6.364  11.135  1.00  0.00     0.240 C 
HETATM    9  N   UNL     1      27.720   5.893   9.896  1.00  0.00    -0.355 N 
ATOM     10  HN  UNL     1      27.584   6.534   9.114  1.00  0.00     0.162 HD
HETATM   11  O   UNL     1      27.755   5.660  12.131  1.00  0.00    -0.271 OA
BRANCH   9  12
HETATM   12  C   UNL     1      28.022   4.499   9.613  1.00  0.00     0.161 C 
BRANCH  12  13
HETATM   13  C   UNL     1      27.443   4.050   8.291  1.00  0.00    -0.041 A 
HETATM   14  C   UNL     1      26.120   4.293   7.958  1.00  0.00     0.009 A 
HETATM   15  C   UNL     1      25.582   3.820   6.774  1.00  0.00     0.009 A 
HETATM   16  C   UNL     1      26.352   3.082   5.884  1.00  0.00    -0.033 A 
HETATM   17  C   UNL     1      27.680   2.855   6.209  1.00  0.00     0.009 A 
HETATM   18  C   UNL     1      28.220   3.336   7.391  1.00  0.00     0.009 A 
BRANCH  16  19
HETATM   19  C   UNL     1      25.729   2.507   4.629  1.00  0.00     0.268 C 
BRANCH  19  20
HETATM   20  N   UNL     1      25.102   1.176   4.807  1.00  0.00    -0.075 N 
ATOM     21  HN3 UNL     1      25.818   0.461   4.938  1.00  0.00     0.274 HD
ATOM     22  HN2 UNL     1      24.634   1.123   5.711  1.00  0.00     0.274 HD
ATOM     23  HN1 UNL     1      24.463   0.905   4.059  1.00  0.00     0.274 HD
ENDBRANCH  19  20
ENDBRANCH  16  19
ENDBRANCH  12  13
ENDBRANCH   9  12
ENDBRANCH   3   8
BRANCH   2  24
HETATM   24  C   UNL     1      23.541   7.738  12.021  1.00  0.00     0.279 C 
BRANCH  24  25
HETATM   25  C   UNL     1      22.728   8.839  11.332  1.00  0.00     0.081 C 
BRANCH  25  26
HETATM   26  C   UNL     1      21.805   9.634  12.223  1.00  0.00    -0.056 A 
HETATM   27  C   UNL     1      20.869   8.999  13.032  1.00  0.00     0.007 A 
HETATM   28  C   UNL     1      19.985   9.737  13.799  1.00  0.00     0.001 A 
HETATM   29  C   UNL     1      20.035  11.114  13.784  1.00  0.00     0.000 A 
HETATM   30  C   UNL     1      20.969  11.751  13.000  1.00  0.00     0.001 A 
HETATM   31  C   UNL     1      21.845  11.016  12.223  1.00  0.00     0.007 A 
ENDBRANCH  25  26
ENDBRANCH  24  25
BRANCH  24  32
HETATM   32  N   UNL     1      22.878   6.432  11.840  1.00  0.00    -0.066 N 
ATOM     33  HN3 UNL     1      21.990   6.339  12.334  1.00  0.00     0.275 HD
ATOM     34  HN2 UNL     1      22.500   6.279  10.905  1.00  0.00     0.275 HD
ATOM     35  HN1 UNL     1      23.588   5.756  12.121  1.00  0.00     0.275 HD
ENDBRANCH  24  32
ENDBRANCH   2  24
TORSDOF 9
ENDMDL
MODEL 9
REMARK VINA RESULT:    -6.525     10.672     14.759
REMARK INTER + INTRA:         -10.496
REMARK INTER:                  -9.520
REMARK INTRA:                  -0.976
REMARK UNBOUND:                -0.919
REMARK  9 active torsions:
REMARK  status: ('A' for Active; 'I' for Inactive)
REMARK    1  A    between atoms: N_1  and  C_5 
REMARK    2  A    between atoms: C_5  and  C_7 
REMARK       I    between atoms: C_9  and  N_30 
REMARK    3  A    between atoms: C_9  and  C_10 
REMARK    4  A    between atoms: C_10  and  C_11 
REMARK    5  A    between atoms: C_10  and  N_31 
REMARK    6  A    between atoms: C_11  and  C_12 
REMARK    7  A    between atoms: C_22  and  C_23 
REMARK    8  A    between atoms: C_23  and  N_28 
REMARK    9  A    between atoms: C_24  and  C_25 
REMARK       I    between atoms: C_24  and  N_28 
ROOT
HETATM    1  C   UNL     1      25.118   9.819  13.830  1.00  0.00     0.127 C 
HETATM    2  C   UNL     1      25.298   8.488  11.683  1.00  0.00     0.251 C 
HETATM    3  C   UNL     1      27.104   9.930  12.409  1.00  0.00     0.179 C 
HETATM    4  C   UNL     1      27.267  10.848  13.632  1.00  0.00     0.037 C 
HETATM    5  C   UNL     1      25.845  11.110  14.112  1.00  0.00     0.022 C 
HETATM    6  N   UNL     1      25.769   9.349  12.595  1.00  0.00    -0.337 N 
HETATM    7  O   UNL     1      25.926   8.228  10.674  1.00  0.00    -0.271 OA
ENDROOT
BRANCH   3   8
HETATM    8  C   UNL     1      28.179   8.846  12.383  1.00  0.00     0.240 C 
HETATM    9  N   UNL     1      28.042   7.855  13.258  1.00  0.00    -0.355 N 
ATOM     10  HN  UNL     1      27.242   7.866  13.891  1.00  0.00     0.162 HD
HETATM   11  O   UNL     1      29.115   8.912  11.590  1.00  0.00    -0.271 OA
BRANCH   9  12
HETATM   12  C   UNL     1      28.990   6.755  13.348  1.00  0.00     0.161 C 
BRANCH  12  13
HETATM   13  C   UNL     1      28.558   5.565  12.522  1.00  0.00    -0.041 A 
HETATM   14  C   UNL     1      29.363   4.445  12.386  1.00  0.00     0.009 A 
HETATM   15  C   UNL     1      28.988   3.389  11.575  1.00  0.00     0.009 A 
HETATM   16  C   UNL     1      27.792   3.421  10.867  1.00  0.00    -0.033 A 
HETATM   17  C   UNL     1      26.979   4.533  11.018  1.00  0.00     0.009 A 
HETATM   18  C   UNL     1      27.352   5.586  11.838  1.00  0.00     0.009 A 
BRANCH  16  19
HETATM   19  C   UNL     1      27.432   2.292   9.924  1.00  0.00     0.268 C 
BRANCH  19  20
HETATM   20  N   UNL     1      26.444   2.652   8.880  1.00  0.00    -0.075 N 
ATOM     21  HN3 UNL     1      26.459   1.966   8.126  1.00  0.00     0.274 HD
ATOM     22  HN2 UNL     1      25.495   2.512   9.226  1.00  0.00     0.274 HD
ATOM     23  HN1 UNL     1      26.550   3.595   8.504  1.00  0.00     0.274 HD
ENDBRANCH  19  20
ENDBRANCH  16  19
ENDBRANCH  12  13
ENDBRANCH   9  12
ENDBRANCH   3   8
BRANCH   2  24
HETATM   24  C   UNL     1      23.932   7.849  11.919  1.00  0.00     0.279 C 
BRANCH  24  25
HETATM   25  C   UNL     1      22.845   8.667  11.213  1.00  0.00     0.081 C 
BRANCH  25  26
HETATM   26  C   UNL     1      21.875   9.393  12.113  1.00  0.00    -0.056 A 
HETATM   27  C   UNL     1      20.949   8.694  12.878  1.00  0.00     0.007 A 
HETATM   28  C   UNL     1      20.023   9.369  13.654  1.00  0.00     0.001 A 
HETATM   29  C   UNL     1      20.020  10.746  13.691  1.00  0.00     0.000 A 
HETATM   30  C   UNL     1      20.944  11.447  12.950  1.00  0.00     0.001 A 
HETATM   31  C   UNL     1      21.863  10.775  12.164  1.00  0.00     0.007 A 
ENDBRANCH  25  26
ENDBRANCH  24  25
BRANCH  24  32
HETATM   32  N   UNL     1      24.050   6.518  11.292  1.00  0.00    -0.066 N 
ATOM     33  HN3 UNL     1      24.995   6.278  10.993  1.00  0.00     0.275 HD
ATOM     34  HN2 UNL     1      23.937   5.738  11.939  1.00  0.00     0.275 HD
ATOM     35  HN1 UNL     1      23.364   6.541  10.538  1.00  0.00     0.275 HD
ENDBRANCH  24  32
ENDBRANCH   2  24
TORSDOF 9
ENDMDL
MODEL 10
REMARK VINA RESULT:    -6.523      9.628     14.227
REMARK INTER + INTRA:         -10.493
REMARK INTER:                  -9.752
REMARK INTRA:                  -0.741
REMARK UNBOUND:                -0.919
REMARK  9 active torsions:
REMARK  status: ('A' for Active; 'I' for Inactive)
REMARK    1  A    between atoms: N_1  and  C_5 
REMARK    2  A    between atoms: C_5  and  C_7 
REMARK       I    between atoms: C_9  and  N_30 
REMARK    3  A    between atoms: C_9  and  C_10 
REMARK    4  A    between atoms: C_10  and  C_11 
REMARK    5  A    between atoms: C_10  and  N_31 
REMARK    6  A    between atoms: C_11  and  C_12 
REMARK    7  A    between atoms: C_22  and  C_23 
REMARK    8  A    between atoms: C_23  and  N_28 
REMARK    9  A    between atoms: C_24  and  C_25 
REMARK       I    between atoms: C_24  and  N_28 
ROOT
HETATM    1  C   UNL     1      26.012   9.052   9.904  1.00  0.00     0.127 C 
HETATM    2  C   UNL     1      23.781   7.934  10.337  1.00  0.00     0.251 C 
HETATM    3  C   UNL     1      25.091   7.382   8.375  1.00  0.00     0.179 C 
HETATM    4  C   UNL     1      26.444   7.898   7.856  1.00  0.00     0.037 C 
HETATM    5  C   UNL     1      26.635   9.243   8.545  1.00  0.00     0.022 C 
HETATM    6  N   UNL     1      24.892   8.139   9.617  1.00  0.00    -0.337 N 
HETATM    7  O   UNL     1      22.906   7.183   9.950  1.00  0.00    -0.271 OA
ENDROOT
BRANCH   3   8
HETATM    8  C   UNL     1      25.138   5.880   8.645  1.00  0.00     0.240 C 
HETATM    9  N   UNL     1      26.038   5.465   9.530  1.00  0.00    -0.355 N 
ATOM     10  HN  UNL     1      26.642   6.156   9.977  1.00  0.00     0.162 HD
HETATM   11  O   UNL     1      24.377   5.115   8.058  1.00  0.00    -0.271 OA
BRANCH   9  12
HETATM   12  C   UNL     1      26.197   4.064   9.886  1.00  0.00     0.161 C 
BRANCH  12  13
HETATM   13  C   UNL     1      27.579   3.768  10.424  1.00  0.00    -0.041 A 
HETATM   14  C   UNL     1      28.619   3.399   9.586  1.00  0.00     0.009 A 
HETATM   15  C   UNL     1      29.863   3.067  10.095  1.00  0.00     0.009 A 
HETATM   16  C   UNL     1      30.104   3.089  11.463  1.00  0.00    -0.033 A 
HETATM   17  C   UNL     1      29.069   3.476  12.298  1.00  0.00     0.009 A 
HETATM   18  C   UNL     1      27.827   3.817  11.787  1.00  0.00     0.009 A 
BRANCH  16  19
HETATM   19  C   UNL     1      31.447   2.649  12.009  1.00  0.00     0.268 C 
BRANCH  19  20
HETATM   20  N   UNL     1      31.955   1.376  11.445  1.00  0.00    -0.075 N 
ATOM     21  HN3 UNL     1      32.783   1.068  11.955  1.00  0.00     0.274 HD
ATOM     22  HN2 UNL     1      31.318   0.611  11.667  1.00  0.00     0.274 HD
ATOM     23  HN1 UNL     1      32.143   1.402  10.443  1.00  0.00     0.274 HD
ENDBRANCH  19  20
ENDBRANCH  16  19
ENDBRANCH  12  13
ENDBRANCH   9  12
ENDBRANCH   3   8
BRANCH   2  24
HETATM   24  C   UNL     1      23.615   8.687  11.654  1.00  0.00     0.279 C 
BRANCH  24  25
HETATM   25  C   UNL     1      22.136   8.718  12.054  1.00  0.00     0.081 C 
BRANCH  25  26
HETATM   26  C   UNL     1      21.579  10.073  12.417  1.00  0.00    -0.056 A 
HETATM   27  C   UNL     1      22.092  11.233  11.850  1.00  0.00     0.007 A 
HETATM   28  C   UNL     1      21.617  12.475  12.235  1.00  0.00     0.001 A 
HETATM   29  C   UNL     1      20.613  12.575  13.174  1.00  0.00     0.000 A 
HETATM   30  C   UNL     1      20.087  11.431  13.727  1.00  0.00     0.001 A 
HETATM   31  C   UNL     1      20.568  10.189  13.354  1.00  0.00     0.007 A 
ENDBRANCH  25  26
ENDBRANCH  24  25
BRANCH  24  32
HETATM   32  N   UNL     1      24.383   7.880  12.622  1.00  0.00    -0.066 N 
ATOM     33  HN3 UNL     1      23.837   7.543  13.415  1.00  0.00     0.275 HD
ATOM     34  HN2 UNL     1      24.658   6.960  12.278  1.00  0.00     0.275 HD
ATOM     35  HN1 UNL     1      25.165   8.483  12.877  1.00  0.00     0.275 HD
ENDBRANCH  24  32
ENDBRANCH   2  24
TORSDOF 9
ENDMDL
MODEL 11
REMARK VINA RESULT:    -6.491      9.937     14.406
REMARK INTER + INTRA:         -10.445
REMARK INTER:                  -9.632
REMARK INTRA:                  -0.813
REMARK UNBOUND:                -0.919
REMARK  9 active torsions:
REMARK  status: ('A' for Active; 'I' for Inactive)
REMARK    1  A    between atoms: N_1  and  C_5 
REMARK    2  A    between atoms: C_5  and  C_7 
REMARK       I    between atoms: C_9  and  N_30 
REMARK    3  A    between atoms: C_9  and  C_10 
REMARK    4  A    between atoms: C_10  and  C_11 
REMARK    5  A    between atoms: C_10  and  N_31 
REMARK    6  A    between atoms: C_11  and  C_12 
REMARK    7  A    between atoms: C_22  and  C_23 
REMARK    8  A    between atoms: C_23  and  N_28 
REMARK    9  A    between atoms: C_24  and  C_25 
REMARK       I    between atoms: C_24  and  N_28 
ROOT
HETATM    1  C   UNL     1      26.356   8.004   9.628  1.00  0.00     0.127 C 
HETATM    2  C   UNL     1      24.340   6.737  10.488  1.00  0.00     0.251 C 
HETATM    3  C   UNL     1      25.840   5.738   8.870  1.00  0.00     0.179 C 
HETATM    4  C   UNL     1      27.107   6.263   8.173  1.00  0.00     0.037 C 
HETATM    5  C   UNL     1      27.015   7.778   8.291  1.00  0.00     0.022 C 
HETATM    6  N   UNL     1      25.437   6.858   9.729  1.00  0.00    -0.337 N 
HETATM    7  O   UNL     1      23.637   5.745  10.431  1.00  0.00    -0.271 OA
ENDROOT
BRANCH   3   8
HETATM    8  C   UNL     1      26.138   4.488   9.694  1.00  0.00     0.240 C 
HETATM    9  N   UNL     1      26.981   4.637  10.712  1.00  0.00    -0.355 N 
ATOM     10  HN  UNL     1      27.378   5.560  10.889  1.00  0.00     0.162 HD
HETATM   11  O   UNL     1      25.620   3.412   9.409  1.00  0.00    -0.271 OA
BRANCH   9  12
HETATM   12  C   UNL     1      27.358   3.535  11.582  1.00  0.00     0.161 C 
BRANCH  12  13
HETATM   13  C   UNL     1      28.830   3.560  11.925  1.00  0.00    -0.041 A 
HETATM   14  C   UNL     1      29.503   2.414  12.317  1.00  0.00     0.009 A 
HETATM   15  C   UNL     1      30.835   2.461  12.693  1.00  0.00     0.009 A 
HETATM   16  C   UNL     1      31.536   3.661  12.692  1.00  0.00    -0.033 A 
HETATM   17  C   UNL     1      30.866   4.803  12.282  1.00  0.00     0.009 A 
HETATM   18  C   UNL     1      29.536   4.753  11.898  1.00  0.00     0.009 A 
BRANCH  16  19
HETATM   19  C   UNL     1      32.970   3.708  13.178  1.00  0.00     0.268 C 
BRANCH  19  20
HETATM   20  N   UNL     1      33.593   2.381  13.389  1.00  0.00    -0.075 N 
ATOM     21  HN3 UNL     1      33.153   1.904  14.175  1.00  0.00     0.274 HD
ATOM     22  HN2 UNL     1      33.338   1.746  12.633  1.00  0.00     0.274 HD
ATOM     23  HN1 UNL     1      34.606   2.403  13.508  1.00  0.00     0.274 HD
ENDBRANCH  19  20
ENDBRANCH  16  19
ENDBRANCH  12  13
ENDBRANCH   9  12
ENDBRANCH   3   8
BRANCH   2  24
HETATM   24  C   UNL     1      23.965   7.887  11.418  1.00  0.00     0.279 C 
BRANCH  24  25
HETATM   25  C   UNL     1      22.459   7.858  11.703  1.00  0.00     0.081 C 
BRANCH  25  26
HETATM   26  C   UNL     1      21.864   9.136  12.241  1.00  0.00    -0.056 A 
HETATM   27  C   UNL     1      20.824   9.109  13.162  1.00  0.00     0.007 A 
HETATM   28  C   UNL     1      20.243  10.285  13.604  1.00  0.00     0.001 A 
HETATM   29  C   UNL     1      20.703  11.501  13.148  1.00  0.00     0.000 A 
HETATM   30  C   UNL     1      21.744  11.538  12.249  1.00  0.00     0.001 A 
HETATM   31  C   UNL     1      22.318  10.364  11.796  1.00  0.00     0.007 A 
ENDBRANCH  25  26
ENDBRANCH  24  25
BRANCH  24  32
HETATM   32  N   UNL     1      24.719   7.603  12.655  1.00  0.00    -0.066 N 
ATOM     33  HN3 UNL     1      25.601   7.112  12.505  1.00  0.00     0.275 HD
ATOM     34  HN2 UNL     1      25.125   8.427  13.098  1.00  0.00     0.275 HD
ATOM     35  HN1 UNL     1      24.051   7.099  13.238  1.00  0.00     0.275 HD
ENDBRANCH  24  32
ENDBRANCH   2  24
TORSDOF 9
ENDMDL
MODEL 12
REMARK VINA RESULT:    -6.470      8.316     10.275
REMARK INTER + INTRA:         -10.414
REMARK INTER:                  -9.365
REMARK INTRA:                  -1.049
REMARK UNBOUND:                -0.919
REMARK  9 active torsions:
REMARK  status: ('A' for Active; 'I' for Inactive)
REMARK    1  A    between atoms: N_1  and  C_5 
REMARK    2  A    between atoms: C_5  and  C_7 
REMARK       I    between atoms: C_9  and  N_30 
REMARK    3  A    between atoms: C_9  and  C_10 
REMARK    4  A    between atoms: C_10  and  C_11 
REMARK    5  A    between atoms: C_10  and  N_31 
REMARK    6  A    between atoms: C_11  and  C_12 
REMARK    7  A    between atoms: C_22  and  C_23 
REMARK    8  A    between atoms: C_23  and  N_28 
REMARK    9  A    between atoms: C_24  and  C_25 
REMARK       I    between atoms: C_24  and  N_28 
ROOT
HETATM    1  C   UNL     1      28.111   4.720   9.732  1.00  0.00     0.127 C 
HETATM    2  C   UNL     1      25.999   5.225   8.430  1.00  0.00     0.251 C 
HETATM    3  C   UNL     1      26.171   5.770  10.784  1.00  0.00     0.179 C 
HETATM    4  C   UNL     1      27.299   5.571  11.812  1.00  0.00     0.037 C 
HETATM    5  C   UNL     1      28.175   4.476  11.218  1.00  0.00     0.022 C 
HETATM    6  N   UNL     1      26.737   5.217   9.548  1.00  0.00    -0.337 N 
HETATM    7  O   UNL     1      24.848   5.621   8.435  1.00  0.00    -0.271 OA
ENDROOT
BRANCH   3   8
HETATM    8  C   UNL     1      25.824   7.247  10.622  1.00  0.00     0.240 C 
HETATM    9  N   UNL     1      24.540   7.571  10.740  1.00  0.00    -0.355 N 
ATOM     10  HN  UNL     1      23.863   6.831  10.930  1.00  0.00     0.162 HD
HETATM   11  O   UNL     1      26.702   8.075  10.388  1.00  0.00    -0.271 OA
BRANCH   9  12
HETATM   12  C   UNL     1      24.063   8.938  10.609  1.00  0.00     0.161 C 
BRANCH  12  13
HETATM   13  C   UNL     1      22.823   9.188  11.436  1.00  0.00    -0.041 A 
HETATM   14  C   UNL     1      22.459  10.467  11.829  1.00  0.00     0.009 A 
HETATM   15  C   UNL     1      21.358  10.678  12.642  1.00  0.00     0.009 A 
HETATM   16  C   UNL     1      20.587   9.613  13.092  1.00  0.00    -0.033 A 
HETATM   17  C   UNL     1      20.942   8.338  12.684  1.00  0.00     0.009 A 
HETATM   18  C   UNL     1      22.038   8.128  11.862  1.00  0.00     0.009 A 
BRANCH  16  19
HETATM   19  C   UNL     1      19.433   9.854  14.042  1.00  0.00     0.268 C 
BRANCH  19  20
HETATM   20  N   UNL     1      18.221   9.052  13.755  1.00  0.00    -0.075 N 
ATOM     21  HN3 UNL     1      17.479   9.280  14.418  1.00  0.00     0.274 HD
ATOM     22  HN2 UNL     1      17.784   9.367  12.889  1.00  0.00     0.274 HD
ATOM     23  HN1 UNL     1      18.376   8.044  13.729  1.00  0.00     0.274 HD
ENDBRANCH  19  20
ENDBRANCH  16  19
ENDBRANCH  12  13
ENDBRANCH   9  12
ENDBRANCH   3   8
BRANCH   2  24
HETATM   24  C   UNL     1      26.621   4.699   7.140  1.00  0.00     0.279 C 
BRANCH  24  25
HETATM   25  C   UNL     1      25.655   3.725   6.455  1.00  0.00     0.081 C 
BRANCH  25  26
HETATM   26  C   UNL     1      26.262   2.820   5.410  1.00  0.00    -0.056 A 
HETATM   27  C   UNL     1      25.483   2.276   4.396  1.00  0.00     0.007 A 
HETATM   28  C   UNL     1      26.033   1.398   3.479  1.00  0.00     0.001 A 
HETATM   29  C   UNL     1      27.370   1.069   3.549  1.00  0.00     0.000 A 
HETATM   30  C   UNL     1      28.153   1.617   4.538  1.00  0.00     0.001 A 
HETATM   31  C   UNL     1      27.602   2.484   5.464  1.00  0.00     0.007 A 
ENDBRANCH  25  26
ENDBRANCH  24  25
BRANCH  24  32
HETATM   32  N   UNL     1      26.792   5.908   6.311  1.00  0.00    -0.066 N 
ATOM     33  HN3 UNL     1      27.519   6.544   6.640  1.00  0.00     0.275 HD
ATOM     34  HN2 UNL     1      27.204   5.734   5.395  1.00  0.00     0.275 HD
ATOM     35  HN1 UNL     1      25.858   6.317   6.280  1.00  0.00     0.275 HD
ENDBRANCH  24  32
ENDBRANCH   2  24
TORSDOF 9
ENDMDL
MODEL 13
REMARK VINA RESULT:    -6.459      3.929      5.673
REMARK INTER + INTRA:         -10.398
REMARK INTER:                  -9.557
REMARK INTRA:                  -0.841
REMARK UNBOUND:                -0.919
REMARK  9 active torsions:
REMARK  status: ('A' for Active; 'I' for Inactive)
REMARK    1  A    between atoms: N_1  and  C_5 
REMARK    2  A    between atoms: C_5  and  C_7 
REMARK       I    between atoms: C_9  and  N_30 
REMARK    3  A    between atoms: C_9  and  C_10 
REMARK    4  A    between atoms: C_10  and  C_11 
REMARK    5  A    between atoms: C_10  and  N_31 
REMARK    6  A    between atoms: C_11  and  C_12 
REMARK    7  A    between atoms: C_22  and  C_23 
REMARK    8  A    between atoms: C_23  and  N_28 
REMARK    9  A    between atoms: C_24  and  C_25 
REMARK       I    between atoms: C_24  and  N_28 
ROOT
HETATM    1  C   UNL     1      30.771   0.729   2.978  1.00  0.00     0.127 C 
HETATM    2  C   UNL     1      28.458   0.947   1.970  1.00  0.00     0.251 C 
HETATM    3  C   UNL     1      28.768   0.884   4.371  1.00  0.00     0.179 C 
HETATM    4  C   UNL     1      30.024   0.747   5.249  1.00  0.00     0.037 C 
HETATM    5  C   UNL     1      31.073   0.134   4.330  1.00  0.00     0.022 C 
HETATM    6  N   UNL     1      29.303   0.854   3.005  1.00  0.00    -0.337 N 
HETATM    7  O   UNL     1      27.254   0.991   2.138  1.00  0.00    -0.271 OA
ENDROOT
BRANCH   3   8
HETATM    8  C   UNL     1      28.039   2.196   4.650  1.00  0.00     0.240 C 
HETATM    9  N   UNL     1      26.829   2.098   5.192  1.00  0.00    -0.355 N 
ATOM     10  HN  UNL     1      26.455   1.170   5.392  1.00  0.00     0.162 HD
HETATM   11  O   UNL     1      28.560   3.274   4.374  1.00  0.00    -0.271 OA
BRANCH   9  12
HETATM   12  C   UNL     1      26.018   3.262   5.512  1.00  0.00     0.161 C 
BRANCH  12  13
HETATM   13  C   UNL     1      26.195   3.699   6.948  1.00  0.00    -0.041 A 
HETATM   14  C   UNL     1      25.329   4.603   7.543  1.00  0.00     0.009 A 
HETATM   15  C   UNL     1      25.538   5.048   8.837  1.00  0.00     0.009 A 
HETATM   16  C   UNL     1      26.627   4.604   9.578  1.00  0.00    -0.033 A 
HETATM   17  C   UNL     1      27.482   3.687   8.988  1.00  0.00     0.009 A 
HETATM   18  C   UNL     1      27.266   3.235   7.696  1.00  0.00     0.009 A 
BRANCH  16  19
HETATM   19  C   UNL     1      26.885   5.157  10.964  1.00  0.00     0.268 C 
BRANCH  19  20
HETATM   20  N   UNL     1      25.818   6.045  11.481  1.00  0.00    -0.075 N 
ATOM     21  HN3 UNL     1      25.403   5.648  12.325  1.00  0.00     0.274 HD
ATOM     22  HN2 UNL     1      26.222   6.897  11.870  1.00  0.00     0.274 HD
ATOM     23  HN1 UNL     1      25.091   6.274  10.803  1.00  0.00     0.274 HD
ENDBRANCH  19  20
ENDBRANCH  16  19
ENDBRANCH  12  13
ENDBRANCH   9  12
ENDBRANCH   3   8
BRANCH   2  24
HETATM   24  C   UNL     1      29.034   0.971   0.556  1.00  0.00     0.279 C 
BRANCH  24  25
HETATM   25  C   UNL     1      28.060   0.294  -0.415  1.00  0.00     0.081 C 
BRANCH  25  26
HETATM   26  C   UNL     1      28.647  -0.783  -1.295  1.00  0.00    -0.056 A 
HETATM   27  C   UNL     1      28.811  -0.581  -2.660  1.00  0.00     0.007 A 
HETATM   28  C   UNL     1      29.293  -1.595  -3.469  1.00  0.00     0.001 A 
HETATM   29  C   UNL     1      29.634  -2.815  -2.926  1.00  0.00     0.000 A 
HETATM   30  C   UNL     1      29.492  -3.018  -1.572  1.00  0.00     0.001 A 
HETATM   31  C   UNL     1      28.999  -2.011  -0.763  1.00  0.00     0.007 A 
ENDBRANCH  25  26
ENDBRANCH  24  25
BRANCH  24  32
HETATM   32  N   UNL     1      29.143   2.409   0.242  1.00  0.00    -0.066 N 
ATOM     33  HN3 UNL     1      30.038   2.683  -0.165  1.00  0.00     0.275 HD
ATOM     34  HN2 UNL     1      28.567   2.713  -0.542  1.00  0.00     0.275 HD
ATOM     35  HN1 UNL     1      28.926   2.869   1.126  1.00  0.00     0.275 HD
ENDBRANCH  24  32
ENDBRANCH   2  24
TORSDOF 9
ENDMDL
MODEL 14
REMARK VINA RESULT:    -6.441      9.958     12.045
REMARK INTER + INTRA:         -10.372
REMARK INTER:                  -9.509
REMARK INTRA:                  -0.863
REMARK UNBOUND:                -0.919
REMARK  9 active torsions:
REMARK  status: ('A' for Active; 'I' for Inactive)
REMARK    1  A    between atoms: N_1  and  C_5 
REMARK    2  A    between atoms: C_5  and  C_7 
REMARK       I    between atoms: C_9  and  N_30 
REMARK    3  A    between atoms: C_9  and  C_10 
REMARK    4  A    between atoms: C_10  and  C_11 
REMARK    5  A    between atoms: C_10  and  N_31 
REMARK    6  A    between atoms: C_11  and  C_12 
REMARK    7  A    between atoms: C_22  and  C_23 
REMARK    8  A    between atoms: C_23  and  N_28 
REMARK    9  A    between atoms: C_24  and  C_25 
REMARK       I    between atoms: C_24  and  N_28 
ROOT
HETATM    1  C   UNL     1      32.483   0.482   8.199  1.00  0.00     0.127 C 
HETATM    2  C   UNL     1      33.815   0.237  10.339  1.00  0.00     0.251 C 
HETATM    3  C   UNL     1      33.019   2.405   9.609  1.00  0.00     0.179 C 
HETATM    4  C   UNL     1      32.217   2.851   8.374  1.00  0.00     0.037 C 
HETATM    5  C   UNL     1      32.416   1.732   7.359  1.00  0.00     0.022 C 
HETATM    6  N   UNL     1      33.150   0.955   9.424  1.00  0.00    -0.337 N 
HETATM    7  O   UNL     1      34.367   0.770  11.283  1.00  0.00    -0.271 OA
ENDROOT
BRANCH   3   8
HETATM    8  C   UNL     1      32.274   2.733  10.901  1.00  0.00     0.240 C 
HETATM    9  N   UNL     1      31.198   1.998  11.167  1.00  0.00    -0.355 N 
ATOM     10  HN  UNL     1      30.929   1.266  10.509  1.00  0.00     0.162 HD
HETATM   11  O   UNL     1      32.663   3.636  11.636  1.00  0.00    -0.271 OA
BRANCH   9  12
HETATM   12  C   UNL     1      30.390   2.197  12.359  1.00  0.00     0.161 C 
BRANCH  12  13
HETATM   13  C   UNL     1      29.284   3.202  12.133  1.00  0.00    -0.041 A 
HETATM   14  C   UNL     1      28.204   2.920  11.311  1.00  0.00     0.009 A 
HETATM   15  C   UNL     1      27.230   3.871  11.059  1.00  0.00     0.009 A 
HETATM   16  C   UNL     1      27.308   5.140  11.619  1.00  0.00    -0.033 A 
HETATM   17  C   UNL     1      28.378   5.415  12.455  1.00  0.00     0.009 A 
HETATM   18  C   UNL     1      29.348   4.459  12.715  1.00  0.00     0.009 A 
BRANCH  16  19
HETATM   19  C   UNL     1      26.276   6.193  11.273  1.00  0.00     0.268 C 
BRANCH  19  20
HETATM   20  N   UNL     1      25.014   5.657  10.711  1.00  0.00    -0.075 N 
ATOM     21  HN3 UNL     1      25.168   5.305   9.766  1.00  0.00     0.274 HD
ATOM     22  HN2 UNL     1      24.756   4.790  11.182  1.00  0.00     0.274 HD
ATOM     23  HN1 UNL     1      24.233   6.314  10.723  1.00  0.00     0.274 HD
ENDBRANCH  19  20
ENDBRANCH  16  19
ENDBRANCH  12  13
ENDBRANCH   9  12
ENDBRANCH   3   8
BRANCH   2  24
HETATM   24  C   UNL     1      33.894  -1.277  10.162  1.00  0.00     0.279 C 
BRANCH  24  25
HETATM   25  C   UNL     1      35.153  -1.817  10.850  1.00  0.00     0.081 C 
BRANCH  25  26
HETATM   26  C   UNL     1      35.534  -3.237  10.508  1.00  0.00    -0.056 A 
HETATM   27  C   UNL     1      35.155  -4.296  11.323  1.00  0.00     0.007 A 
HETATM   28  C   UNL     1      35.561  -5.588  11.036  1.00  0.00     0.001 A 
HETATM   29  C   UNL     1      36.333  -5.841   9.922  1.00  0.00     0.000 A 
HETATM   30  C   UNL     1      36.698  -4.801   9.099  1.00  0.00     0.001 A 
HETATM   31  C   UNL     1      36.305  -3.508   9.391  1.00  0.00     0.007 A 
ENDBRANCH  25  26
ENDBRANCH  24  25
BRANCH  24  32
HETATM   32  N   UNL     1      32.688  -1.777  10.851  1.00  0.00    -0.066 N 
ATOM     33  HN3 UNL     1      32.029  -1.049  11.128  1.00  0.00     0.275 HD
ATOM     34  HN2 UNL     1      32.041  -2.287  10.249  1.00  0.00     0.275 HD
ATOM     35  HN1 UNL     1      33.059  -2.325  11.627  1.00  0.00     0.275 HD
ENDBRANCH  24  32
ENDBRANCH   2  24
TORSDOF 9
ENDMDL
MODEL 15
REMARK VINA RESULT:    -6.398      9.829     14.326
REMARK INTER + INTRA:         -10.309
REMARK INTER:                  -9.396
REMARK INTRA:                  -0.912
REMARK UNBOUND:                -0.919
REMARK  9 active torsions:
REMARK  status: ('A' for Active; 'I' for Inactive)
REMARK    1  A    between atoms: N_1  and  C_5 
REMARK    2  A    between atoms: C_5  and  C_7 
REMARK       I    between atoms: C_9  and  N_30 
REMARK    3  A    between atoms: C_9  and  C_10 
REMARK    4  A    between atoms: C_10  and  C_11 
REMARK    5  A    between atoms: C_10  and  N_31 
REMARK    6  A    between atoms: C_11  and  C_12 
REMARK    7  A    between atoms: C_22  and  C_23 
REMARK    8  A    between atoms: C_23  and  N_28 
REMARK    9  A    between atoms: C_24  and  C_25 
REMARK       I    between atoms: C_24  and  N_28 
ROOT
HETATM    1  C   UNL     1      25.517   9.584  11.386  1.00  0.00     0.127 C 
HETATM    2  C   UNL     1      23.608   8.196  10.469  1.00  0.00     0.251 C 
HETATM    3  C   UNL     1      25.257   9.177   8.990  1.00  0.00     0.179 C 
HETATM    4  C   UNL     1      26.489  10.058   9.254  1.00  0.00     0.037 C 
HETATM    5  C   UNL     1      26.242  10.668  10.628  1.00  0.00     0.022 C 
HETATM    6  N   UNL     1      24.713   8.941  10.333  1.00  0.00    -0.337 N 
HETATM    7  O   UNL     1      23.010   7.768   9.500  1.00  0.00    -0.271 OA
ENDROOT
BRANCH   3   8
HETATM    8  C   UNL     1      25.649   7.865   8.314  1.00  0.00     0.240 C 
HETATM    9  N   UNL     1      26.127   6.910   9.106  1.00  0.00    -0.355 N 
ATOM     10  HN  UNL     1      26.207   7.096  10.106  1.00  0.00     0.162 HD
HETATM   11  O   UNL     1      25.525   7.725   7.100  1.00  0.00    -0.271 OA
BRANCH   9  12
HETATM   12  C   UNL     1      26.541   5.611   8.601  1.00  0.00     0.161 C 
BRANCH  12  13
HETATM   13  C   UNL     1      27.183   4.763   9.676  1.00  0.00    -0.041 A 
HETATM   14  C   UNL     1      27.759   5.332  10.800  1.00  0.00     0.009 A 
HETATM   15  C   UNL     1      28.403   4.552  11.746  1.00  0.00     0.009 A 
HETATM   16  C   UNL     1      28.493   3.174  11.594  1.00  0.00    -0.033 A 
HETATM   17  C   UNL     1      27.900   2.605  10.478  1.00  0.00     0.009 A 
HETATM   18  C   UNL     1      27.249   3.385   9.537  1.00  0.00     0.009 A 
BRANCH  16  19
HETATM   19  C   UNL     1      29.266   2.343  12.598  1.00  0.00     0.268 C 
BRANCH  19  20
HETATM   20  N   UNL     1      30.515   1.746  12.071  1.00  0.00    -0.075 N 
ATOM     21  HN3 UNL     1      30.798   0.952  12.647  1.00  0.00     0.274 HD
ATOM     22  HN2 UNL     1      30.335   1.267  11.189  1.00  0.00     0.274 HD
ATOM     23  HN1 UNL     1      31.288   2.403  11.967  1.00  0.00     0.274 HD
ENDBRANCH  19  20
ENDBRANCH  16  19
ENDBRANCH  12  13
ENDBRANCH   9  12
ENDBRANCH   3   8
BRANCH   2  24
HETATM   24  C   UNL     1      23.087   7.913  11.876  1.00  0.00     0.279 C 
BRANCH  24  25
HETATM   25  C   UNL     1      21.563   8.068  11.908  1.00  0.00     0.081 C 
BRANCH  25  26
HETATM   26  C   UNL     1      21.038   9.282  12.635  1.00  0.00    -0.056 A 
HETATM   27  C   UNL     1      19.930   9.193  13.469  1.00  0.00     0.007 A 
HETATM   28  C   UNL     1      19.418  10.323  14.083  1.00  0.00     0.001 A 
HETATM   29  C   UNL     1      20.015  11.550  13.889  1.00  0.00     0.000 A 
HETATM   30  C   UNL     1      21.124  11.644  13.080  1.00  0.00     0.001 A 
HETATM   31  C   UNL     1      21.629  10.519  12.455  1.00  0.00     0.007 A 
ENDBRANCH  25  26
ENDBRANCH  24  25
BRANCH  24  32
HETATM   32  N   UNL     1      23.457   6.504  12.113  1.00  0.00    -0.066 N 
ATOM     33  HN3 UNL     1      23.032   5.843  11.462  1.00  0.00     0.275 HD
ATOM     34  HN2 UNL     1      24.425   6.279  11.882  1.00  0.00     0.275 HD
ATOM     35  HN1 UNL     1      23.212   6.348  13.090  1.00  0.00     0.275 HD
ENDBRANCH  24  32
ENDBRANCH   2  24
TORSDOF 9
ENDMDL
MODEL 16
REMARK VINA RESULT:    -6.264      5.821     10.459
REMARK INTER + INTRA:         -10.112
REMARK INTER:                  -9.247
REMARK INTRA:                  -0.865
REMARK UNBOUND:                -0.919
REMARK  9 active torsions:
REMARK  status: ('A' for Active; 'I' for Inactive)
REMARK    1  A    between atoms: N_1  and  C_5 
REMARK    2  A    between atoms: C_5  and  C_7 
REMARK       I    between atoms: C_9  and  N_30 
REMARK    3  A    between atoms: C_9  and  C_10 
REMARK    4  A    between atoms: C_10  and  C_11 
REMARK    5  A    between atoms: C_10  and  N_31 
REMARK    6  A    between atoms: C_11  and  C_12 
REMARK    7  A    between atoms: C_22  and  C_23 
REMARK    8  A    between atoms: C_23  and  N_28 
REMARK    9  A    between atoms: C_24  and  C_25 
REMARK       I    between atoms: C_24  and  N_28 
ROOT
HETATM    1  C   UNL     1      28.607   5.347   7.140  1.00  0.00     0.127 C 
HETATM    2  C   UNL     1      27.126   3.732   8.408  1.00  0.00     0.251 C 
HETATM    3  C   UNL     1      26.489   4.547   6.218  1.00  0.00     0.179 C 
HETATM    4  C   UNL     1      27.167   5.523   5.240  1.00  0.00     0.037 C 
HETATM    5  C   UNL     1      28.126   6.331   6.103  1.00  0.00     0.022 C 
HETATM    6  N   UNL     1      27.420   4.501   7.352  1.00  0.00    -0.337 N 
HETATM    7  O   UNL     1      26.074   3.122   8.474  1.00  0.00    -0.271 OA
ENDROOT
BRANCH   3   8
HETATM    8  C   UNL     1      26.316   3.166   5.590  1.00  0.00     0.240 C 
HETATM    9  N   UNL     1      27.416   2.585   5.123  1.00  0.00    -0.355 N 
ATOM     10  HN  UNL     1      28.305   3.079   5.205  1.00  0.00     0.162 HD
HETATM   11  O   UNL     1      25.206   2.642   5.526  1.00  0.00    -0.271 OA
BRANCH   9  12
HETATM   12  C   UNL     1      27.402   1.271   4.498  1.00  0.00     0.161 C 
BRANCH  12  13
HETATM   13  C   UNL     1      28.693   0.976   3.769  1.00  0.00    -0.041 A 
HETATM   14  C   UNL     1      28.810   1.155   2.399  1.00  0.00     0.009 A 
HETATM   15  C   UNL     1      29.975   0.819   1.731  1.00  0.00     0.009 A 
HETATM   16  C   UNL     1      31.062   0.289   2.414  1.00  0.00    -0.033 A 
HETATM   17  C   UNL     1      30.951   0.127   3.786  1.00  0.00     0.009 A 
HETATM   18  C   UNL     1      29.788   0.472   4.455  1.00  0.00     0.009 A 
BRANCH  16  19
HETATM   19  C   UNL     1      32.301  -0.145   1.658  1.00  0.00     0.268 C 
BRANCH  19  20
HETATM   20  N   UNL     1      32.146  -1.401   0.889  1.00  0.00    -0.075 N 
ATOM     21  HN3 UNL     1      31.210  -1.785   1.022  1.00  0.00     0.274 HD
ATOM     22  HN2 UNL     1      32.113  -1.203  -0.111  1.00  0.00     0.274 HD
ATOM     23  HN1 UNL     1      32.852  -2.110   1.088  1.00  0.00     0.274 HD
ENDBRANCH  19  20
ENDBRANCH  16  19
ENDBRANCH  12  13
ENDBRANCH   9  12
ENDBRANCH   3   8
BRANCH   2  24
HETATM   24  C   UNL     1      28.130   3.652   9.555  1.00  0.00     0.279 C 
BRANCH  24  25
HETATM   25  C   UNL     1      27.392   3.709  10.898  1.00  0.00     0.081 C 
BRANCH  25  26
HETATM   26  C   UNL     1      27.490   5.013  11.650  1.00  0.00    -0.056 A 
HETATM   27  C   UNL     1      26.555   6.023  11.456  1.00  0.00     0.007 A 
HETATM   28  C   UNL     1      26.687   7.239  12.103  1.00  0.00     0.001 A 
HETATM   29  C   UNL     1      27.740   7.457  12.965  1.00  0.00     0.000 A 
HETATM   30  C   UNL     1      28.661   6.457  13.177  1.00  0.00     0.001 A 
HETATM   31  C   UNL     1      28.539   5.245  12.522  1.00  0.00     0.007 A 
ENDBRANCH  25  26
ENDBRANCH  24  25
BRANCH  24  32
HETATM   32  N   UNL     1      28.761   2.329   9.381  1.00  0.00    -0.066 N 
ATOM     33  HN3 UNL     1      29.716   2.363   9.025  1.00  0.00     0.275 HD
ATOM     34  HN2 UNL     1      28.985   1.852  10.254  1.00  0.00     0.275 HD
ATOM     35  HN1 UNL     1      28.107   1.823   8.782  1.00  0.00     0.275 HD
ENDBRANCH  24  32
ENDBRANCH   2  24
TORSDOF 9
ENDMDL
MODEL 17
REMARK VINA RESULT:    -6.218     10.928     14.810
REMARK INTER + INTRA:         -10.045
REMARK INTER:                  -9.088
REMARK INTRA:                  -0.957
REMARK UNBOUND:                -0.919
REMARK  9 active torsions:
REMARK  status: ('A' for Active; 'I' for Inactive)
REMARK    1  A    between atoms: N_1  and  C_5 
REMARK    2  A    between atoms: C_5  and  C_7 
REMARK       I    between atoms: C_9  and  N_30 
REMARK    3  A    between atoms: C_9  and  C_10 
REMARK    4  A    between atoms: C_10  and  C_11 
REMARK    5  A    between atoms: C_10  and  N_31 
REMARK    6  A    between atoms: C_11  and  C_12 
REMARK    7  A    between atoms: C_22  and  C_23 
REMARK    8  A    between atoms: C_23  and  N_28 
REMARK    9  A    between atoms: C_24  and  C_25 
REMARK       I    between atoms: C_24  and  N_28 
ROOT
HETATM    1  C   UNL     1      26.219   9.063  12.739  1.00  0.00     0.127 C 
HETATM    2  C   UNL     1      24.854   7.331  11.495  1.00  0.00     0.251 C 
HETATM    3  C   UNL     1      27.271   7.364  11.331  1.00  0.00     0.179 C 
HETATM    4  C   UNL     1      28.337   8.286  11.948  1.00  0.00     0.037 C 
HETATM    5  C   UNL     1      27.582   9.555  12.321  1.00  0.00     0.022 C 
HETATM    6  N   UNL     1      26.010   7.908  11.850  1.00  0.00    -0.337 N 
HETATM    7  O   UNL     1      24.824   6.408  10.702  1.00  0.00    -0.271 OA
ENDROOT
BRANCH   3   8
HETATM    8  C   UNL     1      27.470   5.916  11.769  1.00  0.00     0.240 C 
HETATM    9  N   UNL     1      27.305   4.986  10.833  1.00  0.00    -0.355 N 
ATOM     10  HN  UNL     1      27.059   5.279   9.888  1.00  0.00     0.162 HD
HETATM   11  O   UNL     1      27.761   5.648  12.932  1.00  0.00    -0.271 OA
BRANCH   9  12
HETATM   12  C   UNL     1      27.463   3.566  11.106  1.00  0.00     0.161 C 
BRANCH  12  13
HETATM   13  C   UNL     1      28.915   3.172  11.246  1.00  0.00    -0.041 A 
HETATM   14  C   UNL     1      29.394   2.561  12.394  1.00  0.00     0.009 A 
HETATM   15  C   UNL     1      30.739   2.265  12.538  1.00  0.00     0.009 A 
HETATM   16  C   UNL     1      31.650   2.576  11.537  1.00  0.00    -0.033 A 
HETATM   17  C   UNL     1      31.168   3.171  10.383  1.00  0.00     0.009 A 
HETATM   18  C   UNL     1      29.820   3.458  10.235  1.00  0.00     0.009 A 
BRANCH  16  19
HETATM   19  C   UNL     1      33.128   2.315  11.742  1.00  0.00     0.268 C 
BRANCH  19  20
HETATM   20  N   UNL     1      33.553   2.256  13.160  1.00  0.00    -0.075 N 
ATOM     21  HN3 UNL     1      32.835   1.804  13.727  1.00  0.00     0.274 HD
ATOM     22  HN2 UNL     1      34.314   1.587  13.275  1.00  0.00     0.274 HD
ATOM     23  HN1 UNL     1      33.808   3.158  13.564  1.00  0.00     0.274 HD
ENDBRANCH  19  20
ENDBRANCH  16  19
ENDBRANCH  12  13
ENDBRANCH   9  12
ENDBRANCH   3   8
BRANCH   2  24
HETATM   24  C   UNL     1      23.556   7.872  12.087  1.00  0.00     0.279 C 
BRANCH  24  25
HETATM   25  C   UNL     1      22.945   8.912  11.141  1.00  0.00     0.081 C 
BRANCH  25  26
HETATM   26  C   UNL     1      22.199  10.046  11.800  1.00  0.00    -0.056 A 
HETATM   27  C   UNL     1      22.490  11.369  11.490  1.00  0.00     0.007 A 
HETATM   28  C   UNL     1      21.845  12.405  12.143  1.00  0.00     0.001 A 
HETATM   29  C   UNL     1      20.889  12.134  13.099  1.00  0.00     0.000 A 
HETATM   30  C   UNL     1      20.582  10.828  13.400  1.00  0.00     0.001 A 
HETATM   31  C   UNL     1      21.234   9.791  12.758  1.00  0.00     0.007 A 
ENDBRANCH  25  26
ENDBRANCH  24  25
BRANCH  24  32
HETATM   32  N   UNL     1      22.681   6.686  12.167  1.00  0.00    -0.066 N 
ATOM     33  HN3 UNL     1      22.990   5.981  12.837  1.00  0.00     0.275 HD
ATOM     34  HN2 UNL     1      21.775   6.860  12.600  1.00  0.00     0.275 HD
ATOM     35  HN1 UNL     1      22.630   6.355  11.203  1.00  0.00     0.275 HD
ENDBRANCH  24  32
ENDBRANCH   2  24
TORSDOF 9
ENDMDL
MODEL 18
REMARK VINA RESULT:    -6.200      8.564     12.858
REMARK INTER + INTRA:         -10.018
REMARK INTER:                  -9.011
REMARK INTRA:                  -1.007
REMARK UNBOUND:                -0.919
REMARK  9 active torsions:
REMARK  status: ('A' for Active; 'I' for Inactive)
REMARK    1  A    between atoms: N_1  and  C_5 
REMARK    2  A    between atoms: C_5  and  C_7 
REMARK       I    between atoms: C_9  and  N_30 
REMARK    3  A    between atoms: C_9  and  C_10 
REMARK    4  A    between atoms: C_10  and  C_11 
REMARK    5  A    between atoms: C_10  and  N_31 
REMARK    6  A    between atoms: C_11  and  C_12 
REMARK    7  A    between atoms: C_22  and  C_23 
REMARK    8  A    between atoms: C_23  and  N_28 
REMARK    9  A    between atoms: C_24  and  C_25 
REMARK       I    between atoms: C_24  and  N_28 
ROOT
HETATM    1  C   UNL     1      24.862   9.955   9.414  1.00  0.00     0.127 C 
HETATM    2  C   UNL     1      23.907   7.809  10.360  1.00  0.00     0.251 C 
HETATM    3  C   UNL     1      24.889   7.865   8.147  1.00  0.00     0.179 C 
HETATM    4  C   UNL     1      25.520   9.001   7.323  1.00  0.00     0.037 C 
HETATM    5  C   UNL     1      24.974  10.280   7.946  1.00  0.00     0.022 C 
HETATM    6  N   UNL     1      24.504   8.527   9.399  1.00  0.00    -0.337 N 
HETATM    7  O   UNL     1      23.620   6.639  10.191  1.00  0.00    -0.271 OA
ENDROOT
BRANCH   3   8
HETATM    8  C   UNL     1      25.892   6.742   8.400  1.00  0.00     0.240 C 
HETATM    9  N   UNL     1      25.589   5.552   7.890  1.00  0.00    -0.355 N 
ATOM     10  HN  UNL     1      24.720   5.449   7.366  1.00  0.00     0.162 HD
HETATM   11  O   UNL     1      26.914   6.950   9.048  1.00  0.00    -0.271 OA
BRANCH   9  12
HETATM   12  C   UNL     1      26.450   4.391   8.052  1.00  0.00     0.161 C 
BRANCH  12  13
HETATM   13  C   UNL     1      26.495   3.540   6.803  1.00  0.00    -0.041 A 
HETATM   14  C   UNL     1      27.679   2.979   6.351  1.00  0.00     0.009 A 
HETATM   15  C   UNL     1      27.723   2.257   5.170  1.00  0.00     0.009 A 
HETATM   16  C   UNL     1      26.580   2.077   4.401  1.00  0.00    -0.033 A 
HETATM   17  C   UNL     1      25.394   2.623   4.863  1.00  0.00     0.009 A 
HETATM   18  C   UNL     1      25.349   3.338   6.049  1.00  0.00     0.009 A 
BRANCH  16  19
HETATM   19  C   UNL     1      26.659   1.351   3.074  1.00  0.00     0.268 C 
BRANCH  19  20
HETATM   20  N   UNL     1      25.689   1.817   2.057  1.00  0.00    -0.075 N 
ATOM     21  HN3 UNL     1      25.852   2.800   1.835  1.00  0.00     0.274 HD
ATOM     22  HN2 UNL     1      25.894   1.397   1.151  1.00  0.00     0.274 HD
ATOM     23  HN1 UNL     1      24.710   1.667   2.304  1.00  0.00     0.274 HD
ENDBRANCH  19  20
ENDBRANCH  16  19
ENDBRANCH  12  13
ENDBRANCH   9  12
ENDBRANCH   3   8
BRANCH   2  24
HETATM   24  C   UNL     1      23.564   8.498  11.679  1.00  0.00     0.279 C 
BRANCH  24  25
HETATM   25  C   UNL     1      22.108   8.203  12.057  1.00  0.00     0.081 C 
BRANCH  25  26
HETATM   26  C   UNL     1      21.327   9.361  12.628  1.00  0.00    -0.056 A 
HETATM   27  C   UNL     1      21.724  10.673  12.401  1.00  0.00     0.007 A 
HETATM   28  C   UNL     1      21.038  11.727  12.979  1.00  0.00     0.001 A 
HETATM   29  C   UNL     1      19.938  11.487  13.774  1.00  0.00     0.000 A 
HETATM   30  C   UNL     1      19.527  10.192  13.990  1.00  0.00     0.001 A 
HETATM   31  C   UNL     1      20.218   9.136  13.424  1.00  0.00     0.007 A 
ENDBRANCH  25  26
ENDBRANCH  24  25
BRANCH  24  32
HETATM   32  N   UNL     1      24.477   7.870  12.654  1.00  0.00    -0.066 N 
ATOM     33  HN3 UNL     1      25.285   7.408  12.236  1.00  0.00     0.275 HD
ATOM     34  HN2 UNL     1      25.009   8.532  13.218  1.00  0.00     0.275 HD
ATOM     35  HN1 UNL     1      23.871   7.251  13.193  1.00  0.00     0.275 HD
ENDBRANCH  24  32
ENDBRANCH   2  24
TORSDOF 9
ENDMDL
MODEL 19
REMARK VINA RESULT:    -6.190      4.062      6.257
REMARK INTER + INTRA:         -10.004
REMARK INTER:                  -8.571
REMARK INTRA:                  -1.433
REMARK UNBOUND:                -0.919
REMARK  9 active torsions:
REMARK  status: ('A' for Active; 'I' for Inactive)
REMARK    1  A    between atoms: N_1  and  C_5 
REMARK    2  A    between atoms: C_5  and  C_7 
REMARK       I    between atoms: C_9  and  N_30 
REMARK    3  A    between atoms: C_9  and  C_10 
REMARK    4  A    between atoms: C_10  and  C_11 
REMARK    5  A    between atoms: C_10  and  N_31 
REMARK    6  A    between atoms: C_11  and  C_12 
REMARK    7  A    between atoms: C_22  and  C_23 
REMARK    8  A    between atoms: C_23  and  N_28 
REMARK    9  A    between atoms: C_24  and  C_25 
REMARK       I    between atoms: C_24  and  N_28 
ROOT
HETATM    1  C   UNL     1      33.408   0.650  -1.330  1.00  0.00     0.127 C 
HETATM    2  C   UNL     1      31.286  -0.093  -0.165  1.00  0.00     0.251 C 
HETATM    3  C   UNL     1      33.426  -0.182   0.968  1.00  0.00     0.179 C 
HETATM    4  C   UNL     1      34.851   0.182   0.517  1.00  0.00     0.037 C 
HETATM    5  C   UNL     1      34.794   0.154  -1.005  1.00  0.00     0.022 C 
HETATM    6  N   UNL     1      32.608   0.120  -0.213  1.00  0.00    -0.337 N 
HETATM    7  O   UNL     1      30.761  -0.591   0.813  1.00  0.00    -0.271 OA
ENDROOT
BRANCH   3   8
HETATM    8  C   UNL     1      32.994   0.657   2.168  1.00  0.00     0.240 C 
HETATM    9  N   UNL     1      32.477  -0.006   3.199  1.00  0.00    -0.355 N 
ATOM     10  HN  UNL     1      32.396  -1.021   3.138  1.00  0.00     0.162 HD
HETATM   11  O   UNL     1      33.122   1.879   2.157  1.00  0.00    -0.271 OA
BRANCH   9  12
HETATM   12  C   UNL     1      32.022   0.661   4.408  1.00  0.00     0.161 C 
BRANCH  12  13
HETATM   13  C   UNL     1      30.570   1.070   4.319  1.00  0.00    -0.041 A 
HETATM   14  C   UNL     1      30.196   2.399   4.197  1.00  0.00     0.009 A 
HETATM   15  C   UNL     1      28.862   2.768   4.182  1.00  0.00     0.009 A 
HETATM   16  C   UNL     1      27.856   1.816   4.294  1.00  0.00    -0.033 A 
HETATM   17  C   UNL     1      28.230   0.487   4.398  1.00  0.00     0.009 A 
HETATM   18  C   UNL     1      29.566   0.117   4.403  1.00  0.00     0.009 A 
BRANCH  16  19
HETATM   19  C   UNL     1      26.404   2.243   4.353  1.00  0.00     0.268 C 
BRANCH  19  20
HETATM   20  N   UNL     1      25.469   1.186   4.804  1.00  0.00    -0.075 N 
ATOM     21  HN3 UNL     1      25.975   0.318   4.982  1.00  0.00     0.274 HD
ATOM     22  HN2 UNL     1      25.132   1.388   5.745  1.00  0.00     0.274 HD
ATOM     23  HN1 UNL     1      24.684   1.017   4.174  1.00  0.00     0.274 HD
ENDBRANCH  19  20
ENDBRANCH  16  19
ENDBRANCH  12  13
ENDBRANCH   9  12
ENDBRANCH   3   8
BRANCH   2  24
HETATM   24  C   UNL     1      30.442   0.279  -1.381  1.00  0.00     0.279 C 
BRANCH  24  25
HETATM   25  C   UNL     1      29.421  -0.829  -1.664  1.00  0.00     0.081 C 
BRANCH  25  26
HETATM   26  C   UNL     1      29.936  -2.020  -2.435  1.00  0.00    -0.056 A 
HETATM   27  C   UNL     1      31.088  -1.928  -3.208  1.00  0.00     0.007 A 
HETATM   28  C   UNL     1      31.519  -3.007  -3.961  1.00  0.00     0.001 A 
HETATM   29  C   UNL     1      30.819  -4.194  -3.937  1.00  0.00     0.000 A 
HETATM   30  C   UNL     1      29.688  -4.300  -3.161  1.00  0.00     0.001 A 
HETATM   31  C   UNL     1      29.248  -3.220  -2.418  1.00  0.00     0.007 A 
ENDBRANCH  25  26
ENDBRANCH  24  25
BRANCH  24  32
HETATM   32  N   UNL     1      29.747   1.512  -0.965  1.00  0.00    -0.066 N 
ATOM     33  HN3 UNL     1      29.519   2.145  -1.733  1.00  0.00     0.275 HD
ATOM     34  HN2 UNL     1      28.787   1.369  -0.653  1.00  0.00     0.275 HD
ATOM     35  HN1 UNL     1      30.363   1.914  -0.258  1.00  0.00     0.275 HD
ENDBRANCH  24  32
ENDBRANCH   2  24
TORSDOF 9
ENDMDL
MODEL 20
REMARK VINA RESULT:    -6.188     11.097     13.203
REMARK INTER + INTRA:         -10.001
REMARK INTER:                  -8.455
REMARK INTRA:                  -1.547
REMARK UNBOUND:                -0.919
REMARK  9 active torsions:
REMARK  status: ('A' for Active; 'I' for Inactive)
REMARK    1  A    between atoms: N_1  and  C_5 
REMARK    2  A    between atoms: C_5  and  C_7 
REMARK       I    between atoms: C_9  and  N_30 
REMARK    3  A    between atoms: C_9  and  C_10 
REMARK    4  A    between atoms: C_10  and  C_11 
REMARK    5  A    between atoms: C_10  and  N_31 
REMARK    6  A    between atoms: C_11  and  C_12 
REMARK    7  A    between atoms: C_22  and  C_23 
REMARK    8  A    between atoms: C_23  and  N_28 
REMARK    9  A    between atoms: C_24  and  C_25 
REMARK       I    between atoms: C_24  and  N_28 
ROOT
HETATM    1  C   UNL     1      36.864  -0.461  10.936  1.00  0.00     0.127 C 
HETATM    2  C   UNL     1      34.382  -0.174  10.529  1.00  0.00     0.251 C 
HETATM    3  C   UNL     1      35.386   0.500  12.628  1.00  0.00     0.179 C 
HETATM    4  C   UNL     1      36.831   0.435  13.152  1.00  0.00     0.037 C 
HETATM    5  C   UNL     1      37.507  -0.624  12.290  1.00  0.00     0.022 C 
HETATM    6  N   UNL     1      35.486  -0.073  11.280  1.00  0.00    -0.337 N 
HETATM    7  O   UNL     1      33.289   0.139  10.964  1.00  0.00    -0.271 OA
ENDROOT
BRANCH   3   8
HETATM    8  C   UNL     1      34.879   1.940  12.580  1.00  0.00     0.240 C 
HETATM    9  N   UNL     1      33.754   2.194  13.242  1.00  0.00    -0.355 N 
ATOM     10  HN  UNL     1      33.294   1.430  13.739  1.00  0.00     0.162 HD
HETATM   11  O   UNL     1      35.492   2.799  11.952  1.00  0.00    -0.271 OA
BRANCH   9  12
HETATM   12  C   UNL     1      33.153   3.518  13.284  1.00  0.00     0.161 C 
BRANCH  12  13
HETATM   13  C   UNL     1      31.738   3.515  12.755  1.00  0.00    -0.041 A 
HETATM   14  C   UNL     1      31.113   4.684  12.349  1.00  0.00     0.009 A 
HETATM   15  C   UNL     1      29.794   4.681  11.928  1.00  0.00     0.009 A 
HETATM   16  C   UNL     1      29.055   3.505  11.903  1.00  0.00    -0.033 A 
HETATM   17  C   UNL     1      29.686   2.334  12.292  1.00  0.00     0.009 A 
HETATM   18  C   UNL     1      31.009   2.337  12.705  1.00  0.00     0.009 A 
BRANCH  16  19
HETATM   19  C   UNL     1      27.592   3.530  11.513  1.00  0.00     0.268 C 
BRANCH  19  20
HETATM   20  N   UNL     1      26.967   4.873  11.551  1.00  0.00    -0.075 N 
ATOM     21  HN3 UNL     1      26.963   5.289  10.619  1.00  0.00     0.274 HD
ATOM     22  HN2 UNL     1      25.963   4.793  11.712  1.00  0.00     0.274 HD
ATOM     23  HN1 UNL     1      27.384   5.516  12.225  1.00  0.00     0.274 HD
ENDBRANCH  19  20
ENDBRANCH  16  19
ENDBRANCH  12  13
ENDBRANCH   9  12
ENDBRANCH   3   8
BRANCH   2  24
HETATM   24  C   UNL     1      34.512  -0.720   9.110  1.00  0.00     0.279 C 
BRANCH  24  25
HETATM   25  C   UNL     1      33.925  -2.134   9.039  1.00  0.00     0.081 C 
BRANCH  25  26
HETATM   26  C   UNL     1      34.751  -3.223   9.679  1.00  0.00    -0.056 A 
HETATM   27  C   UNL     1      34.290  -3.907  10.798  1.00  0.00     0.007 A 
HETATM   28  C   UNL     1      35.079  -4.862  11.415  1.00  0.00     0.001 A 
HETATM   29  C   UNL     1      36.328  -5.160  10.914  1.00  0.00     0.000 A 
HETATM   30  C   UNL     1      36.786  -4.501   9.797  1.00  0.00     0.001 A 
HETATM   31  C   UNL     1      36.004  -3.537   9.186  1.00  0.00     0.007 A 
ENDBRANCH  25  26
ENDBRANCH  24  25
BRANCH  24  32
HETATM   32  N   UNL     1      33.697   0.206   8.299  1.00  0.00    -0.066 N 
ATOM     33  HN3 UNL     1      32.733  -0.097   8.156  1.00  0.00     0.275 HD
ATOM     34  HN2 UNL     1      33.468   1.083   8.765  1.00  0.00     0.275 HD
ATOM     35  HN1 UNL     1      34.234   0.315   7.438  1.00  0.00     0.275 HD
ENDBRANCH  24  32
ENDBRANCH   2  24
TORSDOF 9
ENDMDL
