REMARK  4 active torsions:
REMARK  status: ('A' for Active; 'I' for Inactive)
REMARK    1  A    between atoms: C_3  and  N_20 
REMARK    2  A    between atoms: C_13  and  N_15 
REMARK    3  A    between atoms: N_20  and  C_22 
REMARK    4  A    between atoms: C_23  and  C_33 
ROOT
HETATM    1  C   UNL     1     -39.763-115.542 220.534  1.00  0.00     0.075 A 
HETATM    2  C   UNL     1     -35.464-113.431 221.738  1.00  0.00     0.147 C 
HETATM    3  C   UNL     1     -34.760-112.513 222.775  1.00  0.00     0.101 C 
HETATM    4  C   UNL     1     -36.830-113.305 223.737  1.00  0.00     0.220 C 
HETATM    5  C   UNL     1     -39.901-115.008 221.816  1.00  0.00     0.124 A 
HETATM    6  C   UNL     1     -38.517-115.511 219.943  1.00  0.00     0.036 A 
HETATM    7  N   UNL     1     -37.488-115.016 220.598  1.00  0.00    -0.195 N 
ATOM      8  HN  UNL     1     -36.562-115.018 220.171  1.00  0.00     0.184 HD
HETATM    9  C   UNL     1     -37.657-114.515 221.813  1.00  0.00     0.682 A 
HETATM   10  N   UNL     1     -38.827-114.514 222.419  1.00  0.00    -0.176 N 
ATOM     11  HN  UNL     1     -38.908-114.130 223.360  1.00  0.00     0.186 HD
HETATM   12  N   UNL     1     -36.582-114.019 222.491  1.00  0.00    -0.212 N 
HETATM   13  C   UNL     1     -35.398-112.921 224.136  1.00  0.00     0.261 C 
HETATM   14  F   UNL     1     -35.424-111.877 225.062  1.00  0.00    -0.204 F 
HETATM   15  F   UNL     1     -34.716-114.013 224.656  1.00  0.00    -0.204 F 
ENDROOT
BRANCH   5  16
HETATM   16  N   UNL     1     -41.156-115.050 222.397  1.00  0.00    -0.328 N 
ATOM     17  HN  UNL     1     -41.842-115.634 221.919  1.00  0.00     0.169 HD
BRANCH  16  18
HETATM   18  C   UNL     1     -41.614-114.404 223.547  1.00  0.00     0.108 A 
HETATM   19  N   UNL     1     -42.862-114.683 223.890  1.00  0.00    -0.351 N 
HETATM   20  C   UNL     1     -43.435-114.150 224.945  1.00  0.00     0.104 A 
ATOM     21  HN  UNL     1     -43.397-115.334 223.315  1.00  0.00     0.166 HD
HETATM   22  C   UNL     1     -42.742-113.237 225.736  1.00  0.00     0.025 A 
HETATM   23  C   UNL     1     -41.416-112.895 225.398  1.00  0.00     0.067 A 
HETATM   24  C   UNL     1     -43.073-112.473 226.927  1.00  0.00     0.122 A 
HETATM   25  N   UNL     1     -41.003-111.997 226.326  1.00  0.00    -0.288 N 
HETATM   26  C   UNL     1     -40.850-113.498 224.275  1.00  0.00     0.080 A 
HETATM   27  N   UNL     1     -42.037-111.754 227.239  1.00  0.00    -0.308 N 
ATOM     28  HN  UNL     1     -41.985-111.110 228.029  1.00  0.00     0.186 HD
BRANCH  25  29
HETATM   29  C   UNL     1     -39.697-111.346 226.371  1.00  0.00     0.100 C 
HETATM   30  C   UNL     1     -39.070-111.581 227.747  1.00  0.00     0.034 C 
HETATM   31  C   UNL     1     -39.942-109.860 226.124  1.00  0.00     0.034 C 
ENDBRANCH  25  29
ENDBRANCH  16  18
ENDBRANCH   5  16
BRANCH   6  32
HETATM   32  C   UNL     1     -38.330-116.054 218.554  1.00  0.00     0.063 C 
HETATM   33  C   UNL     1     -37.722-114.961 217.653  1.00  0.00     0.243 C 
HETATM   34  N   UNL     1     -36.865-115.666 216.680  1.00  0.00    -0.074 N 
HETATM   35  C   UNL     1     -36.784-117.093 217.057  1.00  0.00     0.233 C 
ATOM     36  HN2 UNL     1     -35.945-115.235 216.589  1.00  0.00     0.277 HD
ATOM     37  HN1 UNL     1     -37.180-115.535 215.719  1.00  0.00     0.277 HD
HETATM   38  C   UNL     1     -37.224-117.139 218.541  1.00  0.00     0.040 C 
ENDBRANCH   6  32
TORSDOF 4
