MODEL 1
REMARK VINA RESULT:    -6.670      0.000      0.000
REMARK INTER + INTRA:          -7.181
REMARK INTER:                  -7.255
REMARK INTRA:                   0.074
REMARK UNBOUND:                 0.074
REMARK  2 active torsions:
REMARK  status: ('A' for Active; 'I' for Inactive)
REMARK    1  A    between atoms: O_1  and  C_7 
REMARK    2  A    between atoms: CA_10  and  C_11 
ROOT
HETATM    1  N   UNL     1      -0.880  13.440  64.999  1.00  0.00    -0.059 N 
ATOM      2  HN1 UNL     1      -1.670  13.386  65.643  1.00  0.00     0.278 HD
ATOM      3  HN2 UNL     1      -0.442  12.556  65.256  1.00  0.00     0.278 HD
HETATM    4  C   UNL     1      -0.134  14.144  62.863  1.00  0.00     0.161 C 
HETATM    5  C   UNL     1       0.490  15.080  63.882  1.00  0.00     0.062 C 
HETATM    6  C   UNL     1      -0.012  14.609  65.242  1.00  0.00     0.236 C 
HETATM    7  CA  UNL     1      -1.291  13.493  63.582  1.00  0.00     0.314 C 
ENDROOT
BRANCH   7   8
HETATM    8  C   UNL     1      -1.517  12.118  63.028  1.00  0.00     0.207 C 
HETATM    9  O   UNL     1      -1.996  11.246  63.783  1.00  0.00    -0.646 OA
HETATM   10  OXT UNL     1      -1.290  11.916  61.812  1.00  0.00    -0.646 OA
ENDBRANCH   7   8
BRANCH   4  11
HETATM   11  O   UNL     1       0.757  13.078  62.556  1.00  0.00    -0.393 OA
ATOM     12  HO  UNL     1       1.051  13.140  61.655  1.00  0.00     0.210 HD
ENDBRANCH   4  11
TORSDOF 2
ENDMDL
MODEL 2
REMARK VINA RESULT:    -5.666     12.822     13.578
REMARK INTER + INTRA:          -6.089
REMARK INTER:                  -5.633
REMARK INTRA:                  -0.456
REMARK UNBOUND:                 0.074
REMARK  2 active torsions:
REMARK  status: ('A' for Active; 'I' for Inactive)
REMARK    1  A    between atoms: O_1  and  C_7 
REMARK    2  A    between atoms: CA_10  and  C_11 
ROOT
HETATM    1  N   UNL     1     -10.607   6.529  62.462  1.00  0.00    -0.059 N 
ATOM      2  HN1 UNL     1      -9.822   7.179  62.471  1.00  0.00     0.278 HD
ATOM      3  HN2 UNL     1     -11.180   7.005  63.157  1.00  0.00     0.278 HD
HETATM    4  C   UNL     1     -11.940   5.081  61.142  1.00  0.00     0.161 C 
HETATM    5  C   UNL     1     -11.080   4.203  62.032  1.00  0.00     0.062 C 
HETATM    6  C   UNL     1     -10.230   5.158  62.861  1.00  0.00     0.236 C 
HETATM    7  CA  UNL     1     -11.261   6.429  61.142  1.00  0.00     0.314 C 
ENDROOT
BRANCH   7   8
HETATM    8  C   UNL     1     -12.286   7.508  60.958  1.00  0.00     0.207 C 
HETATM    9  O   UNL     1     -12.493   8.295  61.906  1.00  0.00    -0.646 OA
HETATM   10  OXT UNL     1     -12.840   7.627  59.840  1.00  0.00    -0.646 OA
ENDBRANCH   7   8
BRANCH   4  11
HETATM   11  O   UNL     1     -13.209   5.307  61.743  1.00  0.00    -0.393 OA
ATOM     12  HO  UNL     1     -13.223   4.965  62.630  1.00  0.00     0.210 HD
ENDBRANCH   4  11
TORSDOF 2
ENDMDL
MODEL 3
REMARK VINA RESULT:    -5.406     13.699     14.499
REMARK INTER + INTRA:          -5.806
REMARK INTER:                  -5.355
REMARK INTRA:                  -0.451
REMARK UNBOUND:                 0.074
REMARK  2 active torsions:
REMARK  status: ('A' for Active; 'I' for Inactive)
REMARK    1  A    between atoms: O_1  and  C_7 
REMARK    2  A    between atoms: CA_10  and  C_11 
ROOT
HETATM    1  N   UNL     1     -13.298   5.270  59.640  1.00  0.00    -0.059 N 
ATOM      2  HN1 UNL     1     -14.266   5.412  59.353  1.00  0.00     0.278 HD
ATOM      3  HN2 UNL     1     -12.860   5.804  58.889  1.00  0.00     0.278 HD
HETATM    4  C   UNL     1     -11.806   5.033  61.465  1.00  0.00     0.161 C 
HETATM    5  C   UNL     1     -11.928   3.669  60.813  1.00  0.00     0.062 C 
HETATM    6  C   UNL     1     -12.897   3.849  59.650  1.00  0.00     0.236 C 
HETATM    7  CA  UNL     1     -13.005   5.811  60.982  1.00  0.00     0.314 C 
ENDROOT
BRANCH   7   8
HETATM    8  C   UNL     1     -12.666   7.270  60.920  1.00  0.00     0.207 C 
HETATM    9  O   UNL     1     -12.327   7.845  61.975  1.00  0.00    -0.646 OA
HETATM   10  OXT UNL     1     -12.662   7.839  59.803  1.00  0.00    -0.646 OA
ENDBRANCH   7   8
BRANCH   4  11
HETATM   11  O   UNL     1     -10.679   5.732  60.948  1.00  0.00    -0.393 OA
ATOM     12  HO  UNL     1     -10.180   6.127  61.653  1.00  0.00     0.210 HD
ENDBRANCH   4  11
TORSDOF 2
ENDMDL
MODEL 4
REMARK VINA RESULT:    -4.902     13.137     14.080
REMARK INTER + INTRA:          -5.257
REMARK INTER:                  -4.857
REMARK INTRA:                  -0.401
REMARK UNBOUND:                 0.074
REMARK  2 active torsions:
REMARK  status: ('A' for Active; 'I' for Inactive)
REMARK    1  A    between atoms: O_1  and  C_7 
REMARK    2  A    between atoms: CA_10  and  C_11 
ROOT
HETATM    1  N   UNL     1     -11.851   3.747  61.898  1.00  0.00    -0.059 N 
ATOM      2  HN1 UNL     1     -12.176   3.188  61.109  1.00  0.00     0.278 HD
ATOM      3  HN2 UNL     1     -12.551   3.440  62.573  1.00  0.00     0.278 HD
HETATM    4  C   UNL     1      -9.971   4.662  63.013  1.00  0.00     0.161 C 
HETATM    5  C   UNL     1     -10.699   5.817  62.351  1.00  0.00     0.062 C 
HETATM    6  C   UNL     1     -11.896   5.200  61.637  1.00  0.00     0.236 C 
HETATM    7  CA  UNL     1     -10.470   3.424  62.307  1.00  0.00     0.314 C 
ENDROOT
BRANCH   7   8
HETATM    8  C   UNL     1     -10.439   2.260  63.252  1.00  0.00     0.207 C 
HETATM    9  O   UNL     1      -9.363   1.993  63.828  1.00  0.00    -0.646 OA
HETATM   10  OXT UNL     1     -11.507   1.648  63.485  1.00  0.00    -0.646 OA
ENDBRANCH   7   8
BRANCH   4  11
HETATM   11  O   UNL     1     -10.396   4.514  64.362  1.00  0.00    -0.393 OA
ATOM     12  HO  UNL     1     -10.474   5.363  64.782  1.00  0.00     0.210 HD
ENDBRANCH   4  11
TORSDOF 2
ENDMDL
MODEL 5
REMARK VINA RESULT:    -4.744      9.543     10.049
REMARK INTER + INTRA:          -5.085
REMARK INTER:                  -4.617
REMARK INTRA:                  -0.468
REMARK UNBOUND:                 0.074
REMARK  2 active torsions:
REMARK  status: ('A' for Active; 'I' for Inactive)
REMARK    1  A    between atoms: O_1  and  C_7 
REMARK    2  A    between atoms: CA_10  and  C_11 
ROOT
HETATM    1  N   UNL     1      -3.114  24.244  63.708  1.00  0.00    -0.059 N 
ATOM      2  HN1 UNL     1      -3.788  24.952  63.413  1.00  0.00     0.278 HD
ATOM      3  HN2 UNL     1      -3.732  23.730  64.335  1.00  0.00     0.278 HD
HETATM    4  C   UNL     1      -1.277  22.895  63.063  1.00  0.00     0.161 C 
HETATM    5  C   UNL     1      -0.738  23.958  64.001  1.00  0.00     0.062 C 
HETATM    6  C   UNL     1      -1.936  24.814  64.393  1.00  0.00     0.236 C 
HETATM    7  CA  UNL     1      -2.609  23.423  62.590  1.00  0.00     0.314 C 
ENDROOT
BRANCH   7   8
HETATM    8  C   UNL     1      -3.529  22.277  62.295  1.00  0.00     0.207 C 
HETATM    9  O   UNL     1      -3.227  21.497  61.368  1.00  0.00    -0.646 OA
HETATM   10  OXT UNL     1      -4.525  22.101  63.036  1.00  0.00    -0.646 OA
ENDBRANCH   7   8
BRANCH   4  11
HETATM   11  O   UNL     1      -1.586  21.707  63.783  1.00  0.00    -0.393 OA
ATOM     12  HO  UNL     1      -2.525  21.568  63.807  1.00  0.00     0.210 HD
ENDBRANCH   4  11
TORSDOF 2
ENDMDL
MODEL 6
REMARK VINA RESULT:    -4.582     13.174     14.243
REMARK INTER + INTRA:          -4.909
REMARK INTER:                  -4.434
REMARK INTRA:                  -0.475
REMARK UNBOUND:                 0.074
REMARK  2 active torsions:
REMARK  status: ('A' for Active; 'I' for Inactive)
REMARK    1  A    between atoms: O_1  and  C_7 
REMARK    2  A    between atoms: CA_10  and  C_11 
ROOT
HETATM    1  N   UNL     1     -10.624   5.650  61.100  1.00  0.00    -0.059 N 
ATOM      2  HN1 UNL     1      -9.882   5.287  61.698  1.00  0.00     0.278 HD
ATOM      3  HN2 UNL     1     -10.286   5.260  60.220  1.00  0.00     0.278 HD
HETATM    4  C   UNL     1     -12.926   6.189  60.935  1.00  0.00     0.161 C 
HETATM    5  C   UNL     1     -12.166   7.501  60.978  1.00  0.00     0.062 C 
HETATM    6  C   UNL     1     -10.693   7.125  61.091  1.00  0.00     0.236 C 
HETATM    7  CA  UNL     1     -11.965   5.157  61.475  1.00  0.00     0.314 C 
ENDROOT
BRANCH   7   8
HETATM    8  C   UNL     1     -12.251   3.826  60.847  1.00  0.00     0.207 C 
HETATM    9  O   UNL     1     -13.298   3.228  61.178  1.00  0.00    -0.646 OA
HETATM   10  OXT UNL     1     -11.473   3.398  59.963  1.00  0.00    -0.646 OA
ENDBRANCH   7   8
BRANCH   4  11
HETATM   11  O   UNL     1     -13.169   5.798  59.589  1.00  0.00    -0.393 OA
ATOM     12  HO  UNL     1     -13.830   6.355  59.195  1.00  0.00     0.210 HD
ENDBRANCH   4  11
TORSDOF 2
ENDMDL
MODEL 7
REMARK VINA RESULT:    -4.558      9.111     10.234
REMARK INTER + INTRA:          -4.884
REMARK INTER:                  -4.408
REMARK INTRA:                  -0.476
REMARK UNBOUND:                 0.074
REMARK  2 active torsions:
REMARK  status: ('A' for Active; 'I' for Inactive)
REMARK    1  A    between atoms: O_1  and  C_7 
REMARK    2  A    between atoms: CA_10  and  C_11 
ROOT
HETATM    1  N   UNL     1      -0.244  24.274  63.413  1.00  0.00    -0.059 N 
ATOM      2  HN1 UNL     1      -0.124  25.270  63.596  1.00  0.00     0.278 HD
ATOM      3  HN2 UNL     1       0.511  24.173  62.736  1.00  0.00     0.278 HD
HETATM    4  C   UNL     1      -0.821  22.166  64.329  1.00  0.00     0.161 C 
HETATM    5  C   UNL     1      -1.964  22.584  63.423  1.00  0.00     0.062 C 
HETATM    6  C   UNL     1      -1.571  23.942  62.856  1.00  0.00     0.236 C 
HETATM    7  CA  UNL     1      -0.060  23.437  64.616  1.00  0.00     0.314 C 
ENDROOT
BRANCH   7   8
HETATM    8  C   UNL     1       1.388  23.117  64.840  1.00  0.00     0.207 C 
HETATM    9  O   UNL     1       1.706  22.516  65.888  1.00  0.00    -0.646 OA
HETATM   10  OXT UNL     1       2.212  23.395  63.938  1.00  0.00    -0.646 OA
ENDBRANCH   7   8
BRANCH   4  11
HETATM   11  O   UNL     1       0.095  21.338  63.623  1.00  0.00    -0.393 OA
ATOM     12  HO  UNL     1       0.066  21.527  62.693  1.00  0.00     0.210 HD
ENDBRANCH   4  11
TORSDOF 2
ENDMDL
MODEL 8
REMARK VINA RESULT:    -4.525      2.525      3.550
REMARK INTER + INTRA:          -4.847
REMARK INTER:                  -4.495
REMARK INTRA:                  -0.353
REMARK UNBOUND:                 0.074
REMARK  2 active torsions:
REMARK  status: ('A' for Active; 'I' for Inactive)
REMARK    1  A    between atoms: O_1  and  C_7 
REMARK    2  A    between atoms: CA_10  and  C_11 
ROOT
HETATM    1  N   UNL     1      -0.986  12.973  64.758  1.00  0.00    -0.059 N 
ATOM      2  HN1 UNL     1      -0.867  12.097  65.266  1.00  0.00     0.278 HD
ATOM      3  HN2 UNL     1      -1.711  13.372  65.353  1.00  0.00     0.278 HD
HETATM    4  C   UNL     1       0.083  14.675  63.502  1.00  0.00     0.161 C 
HETATM    5  C   UNL     1      -0.756  13.868  62.530  1.00  0.00     0.062 C 
HETATM    6  C   UNL     1      -1.424  12.779  63.361  1.00  0.00     0.236 C 
HETATM    7  CA  UNL     1       0.243  13.791  64.715  1.00  0.00     0.314 C 
ENDROOT
BRANCH   7   8
HETATM    8  C   UNL     1       0.375  14.640  65.943  1.00  0.00     0.207 C 
HETATM    9  O   UNL     1       1.516  15.023  66.279  1.00  0.00    -0.646 OA
HETATM   10  OXT UNL     1      -0.666  14.996  66.543  1.00  0.00    -0.646 OA
ENDBRANCH   7   8
BRANCH   4  11
HETATM   11  O   UNL     1      -0.644  15.808  63.965  1.00  0.00    -0.393 OA
ATOM     12  HO  UNL     1      -0.858  15.712  64.885  1.00  0.00     0.210 HD
ENDBRANCH   4  11
TORSDOF 2
ENDMDL
MODEL 9
REMARK VINA RESULT:    -4.514     12.479     13.526
REMARK INTER + INTRA:          -4.836
REMARK INTER:                  -4.383
REMARK INTRA:                  -0.453
REMARK UNBOUND:                 0.074
REMARK  2 active torsions:
REMARK  status: ('A' for Active; 'I' for Inactive)
REMARK    1  A    between atoms: O_1  and  C_7 
REMARK    2  A    between atoms: CA_10  and  C_11 
ROOT
HETATM    1  N   UNL     1     -10.248   4.732  63.992  1.00  0.00    -0.059 N 
ATOM      2  HN1 UNL     1      -9.529   5.206  64.538  1.00  0.00     0.278 HD
ATOM      3  HN2 UNL     1     -11.055   5.194  64.410  1.00  0.00     0.278 HD
HETATM    4  C   UNL     1     -10.822   3.803  61.889  1.00  0.00     0.161 C 
HETATM    5  C   UNL     1     -10.628   2.644  62.848  1.00  0.00     0.062 C 
HETATM    6  C   UNL     1     -10.253   3.268  64.186  1.00  0.00     0.236 C 
HETATM    7  CA  UNL     1     -10.128   4.975  62.541  1.00  0.00     0.314 C 
ENDROOT
BRANCH   7   8
HETATM    8  C   UNL     1     -10.811   6.249  62.143  1.00  0.00     0.207 C 
HETATM    9  O   UNL     1     -11.510   6.837  62.995  1.00  0.00    -0.646 OA
HETATM   10  OXT UNL     1     -10.595   6.714  60.999  1.00  0.00    -0.646 OA
ENDBRANCH   7   8
BRANCH   4  11
HETATM   11  O   UNL     1     -12.194   4.175  61.829  1.00  0.00    -0.393 OA
ATOM     12  HO  UNL     1     -12.693   3.713  62.492  1.00  0.00     0.210 HD
ENDBRANCH   4  11
TORSDOF 2
ENDMDL
MODEL 10
REMARK VINA RESULT:    -4.481      9.334      9.928
REMARK INTER + INTRA:          -4.800
REMARK INTER:                  -4.341
REMARK INTRA:                  -0.459
REMARK UNBOUND:                 0.074
REMARK  2 active torsions:
REMARK  status: ('A' for Active; 'I' for Inactive)
REMARK    1  A    between atoms: O_1  and  C_7 
REMARK    2  A    between atoms: CA_10  and  C_11 
ROOT
HETATM    1  N   UNL     1       0.757  23.145  62.596  1.00  0.00    -0.059 N 
ATOM      2  HN1 UNL     1       1.000  22.805  61.665  1.00  0.00     0.278 HD
ATOM      3  HN2 UNL     1       0.374  24.046  62.310  1.00  0.00     0.278 HD
HETATM    4  C   UNL     1      -0.021  22.562  64.757  1.00  0.00     0.161 C 
HETATM    5  C   UNL     1       1.450  22.907  64.894  1.00  0.00     0.062 C 
HETATM    6  C   UNL     1       1.925  23.269  63.492  1.00  0.00     0.236 C 
HETATM    7  CA  UNL     1      -0.228  22.289  63.287  1.00  0.00     0.314 C 
ENDROOT
BRANCH   7   8
HETATM    8  C   UNL     1      -1.631  22.651  62.900  1.00  0.00     0.207 C 
HETATM    9  O   UNL     1      -2.572  22.034  63.441  1.00  0.00    -0.646 OA
HETATM   10  OXT UNL     1      -1.808  23.607  62.108  1.00  0.00    -0.646 OA
ENDBRANCH   7   8
BRANCH   4  11
HETATM   11  O   UNL     1      -0.827  23.701  65.037  1.00  0.00    -0.393 OA
ATOM     12  HO  UNL     1      -1.573  23.733  64.450  1.00  0.00     0.210 HD
ENDBRANCH   4  11
TORSDOF 2
ENDMDL
MODEL 11
REMARK VINA RESULT:    -4.481     12.816     14.519
REMARK INTER + INTRA:          -4.800
REMARK INTER:                  -4.333
REMARK INTRA:                  -0.467
REMARK UNBOUND:                 0.074
REMARK  2 active torsions:
REMARK  status: ('A' for Active; 'I' for Inactive)
REMARK    1  A    between atoms: O_1  and  C_7 
REMARK    2  A    between atoms: CA_10  and  C_11 
ROOT
HETATM    1  N   UNL     1     -11.210   3.343  62.341  1.00  0.00    -0.059 N 
ATOM      2  HN1 UNL     1     -10.318   2.863  62.458  1.00  0.00     0.278 HD
ATOM      3  HN2 UNL     1     -11.309   3.670  63.301  1.00  0.00     0.278 HD
HETATM    4  C   UNL     1     -12.574   4.622  60.886  1.00  0.00     0.161 C 
HETATM    5  C   UNL     1     -13.203   3.245  60.986  1.00  0.00     0.062 C 
HETATM    6  C   UNL     1     -12.303   2.444  61.919  1.00  0.00     0.236 C 
HETATM    7  CA  UNL     1     -11.152   4.442  61.357  1.00  0.00     0.314 C 
ENDROOT
BRANCH   7   8
HETATM    8  C   UNL     1     -10.667   5.713  61.988  1.00  0.00     0.207 C 
HETATM    9  O   UNL     1     -10.571   6.732  61.271  1.00  0.00    -0.646 OA
HETATM   10  OXT UNL     1     -10.448   5.726  63.222  1.00  0.00    -0.646 OA
ENDBRANCH   7   8
BRANCH   4  11
HETATM   11  O   UNL     1     -13.166   5.509  61.828  1.00  0.00    -0.393 OA
ATOM     12  HO  UNL     1     -12.497   6.004  62.285  1.00  0.00     0.210 HD
ENDBRANCH   4  11
TORSDOF 2
ENDMDL
MODEL 12
REMARK VINA RESULT:    -4.471      9.531     10.011
REMARK INTER + INTRA:          -4.789
REMARK INTER:                  -4.314
REMARK INTRA:                  -0.475
REMARK UNBOUND:                 0.074
REMARK  2 active torsions:
REMARK  status: ('A' for Active; 'I' for Inactive)
REMARK    1  A    between atoms: O_1  and  C_7 
REMARK    2  A    between atoms: CA_10  and  C_11 
ROOT
HETATM    1  N   UNL     1       0.143  22.879  65.228  1.00  0.00    -0.059 N 
ATOM      2  HN1 UNL     1      -0.412  23.071  66.062  1.00  0.00     0.278 HD
ATOM      3  HN2 UNL     1      -0.072  21.885  65.154  1.00  0.00     0.278 HD
HETATM    4  C   UNL     1       0.919  23.714  63.151  1.00  0.00     0.161 C 
HETATM    5  C   UNL     1       2.111  23.680  64.088  1.00  0.00     0.062 C 
HETATM    6  C   UNL     1       1.583  23.148  65.415  1.00  0.00     0.236 C 
HETATM    7  CA  UNL     1      -0.292  23.655  64.050  1.00  0.00     0.314 C 
ENDROOT
BRANCH   7   8
HETATM    8  C   UNL     1      -1.418  22.972  63.333  1.00  0.00     0.207 C 
HETATM    9  O   UNL     1      -1.925  23.544  62.345  1.00  0.00    -0.646 OA
HETATM   10  OXT UNL     1      -1.757  21.823  63.703  1.00  0.00    -0.646 OA
ENDBRANCH   7   8
BRANCH   4  11
HETATM   11  O   UNL     1       0.861  22.522  62.376  1.00  0.00    -0.393 OA
ATOM     12  HO  UNL     1       1.371  21.834  62.786  1.00  0.00     0.210 HD
ENDBRANCH   4  11
TORSDOF 2
ENDMDL
MODEL 13
REMARK VINA RESULT:    -4.441      9.685     10.832
REMARK INTER + INTRA:          -4.756
REMARK INTER:                  -4.282
REMARK INTRA:                  -0.475
REMARK UNBOUND:                 0.074
REMARK  2 active torsions:
REMARK  status: ('A' for Active; 'I' for Inactive)
REMARK    1  A    between atoms: O_1  and  C_7 
REMARK    2  A    between atoms: CA_10  and  C_11 
ROOT
HETATM    1  N   UNL     1       0.909  22.207  63.352  1.00  0.00    -0.059 N 
ATOM      2  HN1 UNL     1       0.129  21.737  62.894  1.00  0.00     0.278 HD
ATOM      3  HN2 UNL     1       1.660  21.690  62.896  1.00  0.00     0.278 HD
HETATM    4  C   UNL     1       1.727  24.251  64.229  1.00  0.00     0.161 C 
HETATM    5  C   UNL     1       1.433  23.347  65.412  1.00  0.00     0.062 C 
HETATM    6  C   UNL     1       0.902  22.047  64.820  1.00  0.00     0.236 C 
HETATM    7  CA  UNL     1       0.954  23.657  63.076  1.00  0.00     0.314 C 
ENDROOT
BRANCH   7   8
HETATM    8  C   UNL     1       1.669  23.945  61.790  1.00  0.00     0.207 C 
HETATM    9  O   UNL     1       1.735  25.131  61.402  1.00  0.00    -0.646 OA
HETATM   10  OXT UNL     1       2.237  23.000  61.194  1.00  0.00    -0.646 OA
ENDBRANCH   7   8
BRANCH   4  11
HETATM   11  O   UNL     1       3.094  24.145  63.851  1.00  0.00    -0.393 OA
ATOM     12  HO  UNL     1       3.175  23.696  63.018  1.00  0.00     0.210 HD
ENDBRANCH   4  11
TORSDOF 2
ENDMDL
MODEL 14
REMARK VINA RESULT:    -4.302      9.723     10.781
REMARK INTER + INTRA:          -4.605
REMARK INTER:                  -4.131
REMARK INTRA:                  -0.473
REMARK UNBOUND:                 0.074
REMARK  2 active torsions:
REMARK  status: ('A' for Active; 'I' for Inactive)
REMARK    1  A    between atoms: O_1  and  C_7 
REMARK    2  A    between atoms: CA_10  and  C_11 
ROOT
HETATM    1  N   UNL     1      -0.443  22.120  64.134  1.00  0.00    -0.059 N 
ATOM      2  HN1 UNL     1      -0.130  21.278  63.650  1.00  0.00     0.278 HD
ATOM      3  HN2 UNL     1      -0.368  21.759  65.085  1.00  0.00     0.278 HD
HETATM    4  C   UNL     1      -0.450  24.489  64.146  1.00  0.00     0.161 C 
HETATM    5  C   UNL     1      -1.853  24.044  63.781  1.00  0.00     0.062 C 
HETATM    6  C   UNL     1      -1.818  22.521  63.773  1.00  0.00     0.236 C 
HETATM    7  CA  UNL     1       0.426  23.288  63.887  1.00  0.00     0.314 C 
ENDROOT
BRANCH   7   8
HETATM    8  C   UNL     1       1.595  23.306  64.825  1.00  0.00     0.207 C 
HETATM    9  O   UNL     1       2.494  24.153  64.636  1.00  0.00    -0.646 OA
HETATM   10  OXT UNL     1       1.591  22.524  65.805  1.00  0.00    -0.646 OA
ENDBRANCH   7   8
BRANCH   4  11
HETATM   11  O   UNL     1      -0.350  24.724  65.546  1.00  0.00    -0.393 OA
ATOM     12  HO  UNL     1      -1.164  24.495  65.980  1.00  0.00     0.210 HD
ENDBRANCH   4  11
TORSDOF 2
ENDMDL
MODEL 15
REMARK VINA RESULT:    -4.282     10.068     10.947
REMARK INTER + INTRA:          -4.584
REMARK INTER:                  -4.108
REMARK INTRA:                  -0.475
REMARK UNBOUND:                 0.074
REMARK  2 active torsions:
REMARK  status: ('A' for Active; 'I' for Inactive)
REMARK    1  A    between atoms: O_1  and  C_7 
REMARK    2  A    between atoms: CA_10  and  C_11 
ROOT
HETATM    1  N   UNL     1      -3.001  24.283  61.483  1.00  0.00    -0.059 N 
ATOM      2  HN1 UNL     1      -3.281  25.246  61.295  1.00  0.00     0.278 HD
ATOM      3  HN2 UNL     1      -2.068  24.337  61.075  1.00  0.00     0.278 HD
HETATM    4  C   UNL     1      -3.145  22.454  62.982  1.00  0.00     0.161 C 
HETATM    5  C   UNL     1      -3.971  22.093  61.761  1.00  0.00     0.062 C 
HETATM    6  C   UNL     1      -3.867  23.287  60.820  1.00  0.00     0.236 C 
HETATM    7  CA  UNL     1      -2.987  23.954  62.922  1.00  0.00     0.314 C 
ENDROOT
BRANCH   7   8
HETATM    8  C   UNL     1      -1.687  24.348  63.558  1.00  0.00     0.207 C 
HETATM    9  O   UNL     1      -1.577  24.236  64.798  1.00  0.00    -0.646 OA
HETATM   10  OXT UNL     1      -0.739  24.702  62.819  1.00  0.00    -0.646 OA
ENDBRANCH   7   8
BRANCH   4  11
HETATM   11  O   UNL     1      -1.825  21.938  62.859  1.00  0.00    -0.393 OA
ATOM     12  HO  UNL     1      -1.254  22.579  62.453  1.00  0.00     0.210 HD
ENDBRANCH   4  11
TORSDOF 2
ENDMDL
MODEL 16
REMARK VINA RESULT:    -4.268     12.966     14.162
REMARK INTER + INTRA:          -4.568
REMARK INTER:                  -4.162
REMARK INTRA:                  -0.406
REMARK UNBOUND:                 0.074
REMARK  2 active torsions:
REMARK  status: ('A' for Active; 'I' for Inactive)
REMARK    1  A    between atoms: O_1  and  C_7 
REMARK    2  A    between atoms: CA_10  and  C_11 
ROOT
HETATM    1  N   UNL     1     -11.554   4.125  60.280  1.00  0.00    -0.059 N 
ATOM      2  HN1 UNL     1     -12.364   4.626  59.914  1.00  0.00     0.278 HD
ATOM      3  HN2 UNL     1     -10.838   4.656  59.785  1.00  0.00     0.278 HD
HETATM    4  C   UNL     1     -10.615   3.009  62.147  1.00  0.00     0.161 C 
HETATM    5  C   UNL     1     -10.948   1.946  61.117  1.00  0.00     0.062 C 
HETATM    6  C   UNL     1     -11.555   2.689  59.933  1.00  0.00     0.236 C 
HETATM    7  CA  UNL     1     -11.431   4.215  61.748  1.00  0.00     0.314 C 
ENDROOT
BRANCH   7   8
HETATM    8  C   UNL     1     -10.714   5.466  62.160  1.00  0.00     0.207 C 
HETATM    9  O   UNL     1     -10.378   5.590  63.357  1.00  0.00    -0.646 OA
HETATM   10  OXT UNL     1     -10.412   6.303  61.277  1.00  0.00    -0.646 OA
ENDBRANCH   7   8
BRANCH   4  11
HETATM   11  O   UNL     1      -9.260   3.421  62.017  1.00  0.00    -0.393 OA
ATOM     12  HO  UNL     1      -9.207   4.251  61.559  1.00  0.00     0.210 HD
ENDBRANCH   4  11
TORSDOF 2
ENDMDL
MODEL 17
REMARK VINA RESULT:    -4.264      9.390     10.463
REMARK INTER + INTRA:          -4.564
REMARK INTER:                  -4.089
REMARK INTRA:                  -0.475
REMARK UNBOUND:                 0.074
REMARK  2 active torsions:
REMARK  status: ('A' for Active; 'I' for Inactive)
REMARK    1  A    between atoms: O_1  and  C_7 
REMARK    2  A    between atoms: CA_10  and  C_11 
ROOT
HETATM    1  N   UNL     1       0.650  23.071  62.589  1.00  0.00    -0.059 N 
ATOM      2  HN1 UNL     1       1.157  22.448  61.960  1.00  0.00     0.278 HD
ATOM      3  HN2 UNL     1      -0.245  22.583  62.563  1.00  0.00     0.278 HD
HETATM    4  C   UNL     1       0.783  24.453  64.509  1.00  0.00     0.161 C 
HETATM    5  C   UNL     1       0.645  25.372  63.310  1.00  0.00     0.062 C 
HETATM    6  C   UNL     1       0.569  24.459  62.092  1.00  0.00     0.236 C 
HETATM    7  CA  UNL     1       1.238  23.130  63.943  1.00  0.00     0.314 C 
ENDROOT
BRANCH   7   8
HETATM    8  C   UNL     1       0.732  22.013  64.806  1.00  0.00     0.207 C 
HETATM    9  O   UNL     1       1.227  21.873  65.944  1.00  0.00    -0.646 OA
HETATM   10  OXT UNL     1      -0.217  21.310  64.384  1.00  0.00    -0.646 OA
ENDBRANCH   7   8
BRANCH   4  11
HETATM   11  O   UNL     1      -0.492  24.190  65.084  1.00  0.00    -0.393 OA
ATOM     12  HO  UNL     1      -1.153  24.754  64.699  1.00  0.00     0.210 HD
ENDBRANCH   4  11
TORSDOF 2
ENDMDL
MODEL 18
REMARK VINA RESULT:    -4.190     13.940     15.517
REMARK INTER + INTRA:          -4.483
REMARK INTER:                  -4.011
REMARK INTRA:                  -0.472
REMARK UNBOUND:                 0.074
REMARK  2 active torsions:
REMARK  status: ('A' for Active; 'I' for Inactive)
REMARK    1  A    between atoms: O_1  and  C_7 
REMARK    2  A    between atoms: CA_10  and  C_11 
ROOT
HETATM    1  N   UNL     1     -11.048   3.311  60.007  1.00  0.00    -0.059 N 
ATOM      2  HN1 UNL     1     -10.406   3.748  59.345  1.00  0.00     0.278 HD
ATOM      3  HN2 UNL     1     -10.378   3.167  60.763  1.00  0.00     0.278 HD
HETATM    4  C   UNL     1     -13.264   3.249  60.843  1.00  0.00     0.161 C 
HETATM    5  C   UNL     1     -13.060   1.982  60.034  1.00  0.00     0.062 C 
HETATM    6  C   UNL     1     -11.633   2.052  59.504  1.00  0.00     0.236 C 
HETATM    7  CA  UNL     1     -12.173   4.187  60.389  1.00  0.00     0.314 C 
ENDROOT
BRANCH   7   8
HETATM    8  C   UNL     1     -11.794   5.101  61.516  1.00  0.00     0.207 C 
HETATM    9  O   UNL     1     -12.596   6.001  61.845  1.00  0.00    -0.646 OA
HETATM   10  OXT UNL     1     -10.725   4.882  62.133  1.00  0.00    -0.646 OA
ENDBRANCH   7   8
BRANCH   4  11
HETATM   11  O   UNL     1     -12.995   3.009  62.220  1.00  0.00    -0.393 OA
ATOM     12  HO  UNL     1     -12.623   2.144  62.340  1.00  0.00     0.210 HD
ENDBRANCH   4  11
TORSDOF 2
ENDMDL
MODEL 19
REMARK VINA RESULT:    -4.164     10.448     11.011
REMARK INTER + INTRA:          -4.455
REMARK INTER:                  -3.979
REMARK INTRA:                  -0.476
REMARK UNBOUND:                 0.074
REMARK  2 active torsions:
REMARK  status: ('A' for Active; 'I' for Inactive)
REMARK    1  A    between atoms: O_1  and  C_7 
REMARK    2  A    between atoms: CA_10  and  C_11 
ROOT
HETATM    1  N   UNL     1      -3.364  22.450  63.352  1.00  0.00    -0.059 N 
ATOM      2  HN1 UNL     1      -3.123  21.714  64.015  1.00  0.00     0.278 HD
ATOM      3  HN2 UNL     1      -3.746  23.113  64.025  1.00  0.00     0.278 HD
HETATM    4  C   UNL     1      -2.758  23.561  61.348  1.00  0.00     0.161 C 
HETATM    5  C   UNL     1      -3.986  22.727  61.038  1.00  0.00     0.062 C 
HETATM    6  C   UNL     1      -4.348  22.019  62.339  1.00  0.00     0.236 C 
HETATM    7  CA  UNL     1      -2.194  22.976  62.621  1.00  0.00     0.314 C 
ENDROOT
BRANCH   7   8
HETATM    8  C   UNL     1      -1.500  24.050  63.403  1.00  0.00     0.207 C 
HETATM    9  O   UNL     1      -0.444  24.532  62.941  1.00  0.00    -0.646 OA
HETATM   10  OXT UNL     1      -2.042  24.476  64.451  1.00  0.00    -0.646 OA
ENDBRANCH   7   8
BRANCH   4  11
HETATM   11  O   UNL     1      -3.133  24.891  61.688  1.00  0.00    -0.393 OA
ATOM     12  HO  UNL     1      -2.362  25.430  61.819  1.00  0.00     0.210 HD
ENDBRANCH   4  11
TORSDOF 2
ENDMDL
