MODEL 1
REMARK VINA RESULT:    -6.265      0.000      0.000
REMARK INTER + INTRA:          -9.746
REMARK INTER:                  -9.012
REMARK INTRA:                  -0.734
REMARK UNBOUND:                -0.734
REMARK  9 active torsions:
REMARK  status: ('A' for Active; 'I' for Inactive)
REMARK    1  A    between atoms: O_1  and  C_3 
REMARK    2  A    between atoms: C_3  and  C_4 
REMARK    3  A    between atoms: C_4  and  C_6 
REMARK    4  A    between atoms: C_6  and  O_14 
REMARK    5  A    between atoms: C_6  and  C_7 
REMARK    6  A    between atoms: C_7  and  C_8 
REMARK    7  A    between atoms: C_7  and  O_16 
REMARK    8  A    between atoms: C_8  and  O_9 
REMARK    9  A    between atoms: O_9  and  P_10 
ROOT
HETATM    1  C   UNL     1      -5.935  -6.178  13.130  1.00  0.00     0.178 C 
ENDROOT
BRANCH   1   2
HETATM    2  C   UNL     1      -7.179  -5.637  12.478  1.00  0.00     0.217 C 
BRANCH   2   3
HETATM    3  O   UNL     1      -6.691  -4.486  11.890  1.00  0.00    -0.280 OA
BRANCH   3   4
HETATM    4  P   UNL     1      -7.027  -4.255  10.312  1.00  0.00     0.422 P 
HETATM    5  O   UNL     1      -8.401  -3.622  10.266  1.00  0.00    -0.617 OA
HETATM    6  O   UNL     1      -5.982  -3.350   9.751  1.00  0.00    -0.617 OA
HETATM    7  O   UNL     1      -7.171  -5.509   9.497  1.00  0.00    -0.617 OA
ENDBRANCH   3   4
ENDBRANCH   2   3
ENDBRANCH   1   2
BRANCH   1   8
HETATM    8  O   UNL     1      -5.721  -7.515  12.763  1.00  0.00    -0.390 OA
ATOM      9  HO  UNL     1      -5.422  -7.575  11.864  1.00  0.00     0.210 HD
ENDBRANCH   1   8
BRANCH   1  10
HETATM   10  C   UNL     1      -4.673  -5.480  12.601  1.00  0.00     0.220 C 
BRANCH  10  11
HETATM   11  O   UNL     1      -3.976  -6.208  11.644  1.00  0.00    -0.385 OA
ATOM     12  HO  UNL     1      -3.229  -5.752  11.274  1.00  0.00     0.210 HD
ENDBRANCH  10  11
BRANCH  10  13
HETATM   13  C   UNL     1      -3.858  -5.439  13.899  1.00  0.00     0.181 C 
HETATM   14  O   UNL     1      -4.446  -5.631  14.916  1.00  0.00    -0.293 OA
BRANCH  13  15
HETATM   15  C   UNL     1      -2.367  -5.051  13.864  1.00  0.00     0.245 C 
BRANCH  15  16
HETATM   16  O   UNL     1      -1.561  -6.111  13.419  1.00  0.00    -0.393 OA
ATOM     17  HO  UNL     1      -1.136  -5.911  12.592  1.00  0.00     0.209 HD
ENDBRANCH  15  16
ENDBRANCH  13  15
ENDBRANCH  10  13
ENDBRANCH   1  10
TORSDOF 9
ENDMDL
MODEL 2
REMARK VINA RESULT:    -6.151      0.543      1.237
REMARK INTER + INTRA:          -9.582
REMARK INTER:                  -8.773
REMARK INTRA:                  -0.810
REMARK UNBOUND:                -0.734
REMARK  9 active torsions:
REMARK  status: ('A' for Active; 'I' for Inactive)
REMARK    1  A    between atoms: O_1  and  C_3 
REMARK    2  A    between atoms: C_3  and  C_4 
REMARK    3  A    between atoms: C_4  and  C_6 
REMARK    4  A    between atoms: C_6  and  O_14 
REMARK    5  A    between atoms: C_6  and  C_7 
REMARK    6  A    between atoms: C_7  and  C_8 
REMARK    7  A    between atoms: C_7  and  O_16 
REMARK    8  A    between atoms: C_8  and  O_9 
REMARK    9  A    between atoms: O_9  and  P_10 
ROOT
HETATM    1  C   UNL     1      -5.587  -6.195  13.257  1.00  0.00     0.178 C 
ENDROOT
BRANCH   1   2
HETATM    2  C   UNL     1      -6.730  -5.679  12.425  1.00  0.00     0.217 C 
BRANCH   2   3
HETATM    3  O   UNL     1      -6.059  -5.223  11.307  1.00  0.00    -0.280 OA
BRANCH   3   4
HETATM    4  P   UNL     1      -6.946  -4.493  10.151  1.00  0.00     0.422 P 
HETATM    5  O   UNL     1      -6.092  -3.361   9.622  1.00  0.00    -0.617 OA
HETATM    6  O   UNL     1      -7.240  -5.505   9.095  1.00  0.00    -0.617 OA
HETATM    7  O   UNL     1      -8.196  -3.816  10.635  1.00  0.00    -0.617 OA
ENDBRANCH   3   4
ENDBRANCH   2   3
ENDBRANCH   1   2
BRANCH   1   8
HETATM    8  O   UNL     1      -5.514  -7.594  13.193  1.00  0.00    -0.390 OA
ATOM      9  HO  UNL     1      -4.657  -7.901  13.464  1.00  0.00     0.210 HD
ENDBRANCH   1   8
BRANCH   1  10
HETATM   10  C   UNL     1      -4.231  -5.763  12.680  1.00  0.00     0.220 C 
BRANCH  10  11
HETATM   11  O   UNL     1      -3.499  -6.795  12.106  1.00  0.00    -0.385 OA
ATOM     12  HO  UNL     1      -2.565  -6.752  12.274  1.00  0.00     0.210 HD
ENDBRANCH  10  11
BRANCH  10  13
HETATM   13  C   UNL     1      -3.547  -5.317  13.979  1.00  0.00     0.181 C 
HETATM   14  O   UNL     1      -4.242  -5.157  14.932  1.00  0.00    -0.293 OA
BRANCH  13  15
HETATM   15  C   UNL     1      -2.041  -4.990  13.986  1.00  0.00     0.245 C 
BRANCH  15  16
HETATM   16  O   UNL     1      -1.257  -6.128  13.741  1.00  0.00    -0.393 OA
ATOM     17  HO  UNL     1      -1.696  -6.745  13.166  1.00  0.00     0.209 HD
ENDBRANCH  15  16
ENDBRANCH  13  15
ENDBRANCH  10  13
ENDBRANCH   1  10
TORSDOF 9
ENDMDL
MODEL 3
REMARK VINA RESULT:    -6.007      1.168      1.658
REMARK INTER + INTRA:          -9.374
REMARK INTER:                  -9.090
REMARK INTRA:                  -0.284
REMARK UNBOUND:                -0.734
REMARK  9 active torsions:
REMARK  status: ('A' for Active; 'I' for Inactive)
REMARK    1  A    between atoms: O_1  and  C_3 
REMARK    2  A    between atoms: C_3  and  C_4 
REMARK    3  A    between atoms: C_4  and  C_6 
REMARK    4  A    between atoms: C_6  and  O_14 
REMARK    5  A    between atoms: C_6  and  C_7 
REMARK    6  A    between atoms: C_7  and  C_8 
REMARK    7  A    between atoms: C_7  and  O_16 
REMARK    8  A    between atoms: C_8  and  O_9 
REMARK    9  A    between atoms: O_9  and  P_10 
ROOT
HETATM    1  C   UNL     1      -5.355  -6.101  13.066  1.00  0.00     0.178 C 
ENDROOT
BRANCH   1   2
HETATM    2  C   UNL     1      -6.357  -5.036  12.712  1.00  0.00     0.217 C 
BRANCH   2   3
HETATM    3  O   UNL     1      -6.923  -5.572  11.571  1.00  0.00    -0.280 OA
BRANCH   3   4
HETATM    4  P   UNL     1      -7.106  -4.581  10.292  1.00  0.00     0.422 P 
HETATM    5  O   UNL     1      -7.264  -5.481   9.085  1.00  0.00    -0.617 OA
HETATM    6  O   UNL     1      -8.325  -3.753  10.528  1.00  0.00    -0.617 OA
HETATM    7  O   UNL     1      -5.912  -3.731   9.964  1.00  0.00    -0.617 OA
ENDBRANCH   3   4
ENDBRANCH   2   3
ENDBRANCH   1   2
BRANCH   1   8
HETATM    8  O   UNL     1      -5.884  -7.380  12.834  1.00  0.00    -0.390 OA
ATOM      9  HO  UNL     1      -5.365  -7.849  12.191  1.00  0.00     0.210 HD
ENDBRANCH   1   8
BRANCH   1  10
HETATM   10  C   UNL     1      -4.140  -6.067  12.127  1.00  0.00     0.220 C 
BRANCH  10  11
HETATM   11  O   UNL     1      -3.593  -7.314  11.854  1.00  0.00    -0.385 OA
ATOM     12  HO  UNL     1      -3.173  -7.728  12.599  1.00  0.00     0.210 HD
ENDBRANCH  10  11
BRANCH  10  13
HETATM   13  C   UNL     1      -3.173  -5.271  13.013  1.00  0.00     0.181 C 
HETATM   14  O   UNL     1      -3.424  -5.212  14.175  1.00  0.00    -0.293 OA
BRANCH  13  15
HETATM   15  C   UNL     1      -2.000  -4.500  12.378  1.00  0.00     0.245 C 
BRANCH  15  16
HETATM   16  O   UNL     1      -2.303  -4.063  11.078  1.00  0.00    -0.393 OA
ATOM     17  HO  UNL     1      -1.520  -3.930  10.556  1.00  0.00     0.209 HD
ENDBRANCH  15  16
ENDBRANCH  13  15
ENDBRANCH  10  13
ENDBRANCH   1  10
TORSDOF 9
ENDMDL
MODEL 4
REMARK VINA RESULT:    -5.956      0.927      1.723
REMARK INTER + INTRA:          -9.302
REMARK INTER:                  -9.061
REMARK INTRA:                  -0.241
REMARK UNBOUND:                -0.734
REMARK  9 active torsions:
REMARK  status: ('A' for Active; 'I' for Inactive)
REMARK    1  A    between atoms: O_1  and  C_3 
REMARK    2  A    between atoms: C_3  and  C_4 
REMARK    3  A    between atoms: C_4  and  C_6 
REMARK    4  A    between atoms: C_6  and  O_14 
REMARK    5  A    between atoms: C_6  and  C_7 
REMARK    6  A    between atoms: C_7  and  C_8 
REMARK    7  A    between atoms: C_7  and  O_16 
REMARK    8  A    between atoms: C_8  and  O_9 
REMARK    9  A    between atoms: O_9  and  P_10 
ROOT
HETATM    1  C   UNL     1      -5.500  -6.446  13.029  1.00  0.00     0.178 C 
ENDROOT
BRANCH   1   2
HETATM    2  C   UNL     1      -6.688  -5.875  12.303  1.00  0.00     0.217 C 
BRANCH   2   3
HETATM    3  O   UNL     1      -6.068  -5.018  11.414  1.00  0.00    -0.280 OA
BRANCH   3   4
HETATM    4  P   UNL     1      -6.970  -4.434  10.189  1.00  0.00     0.422 P 
HETATM    5  O   UNL     1      -6.176  -3.290   9.595  1.00  0.00    -0.617 OA
HETATM    6  O   UNL     1      -7.173  -5.538   9.206  1.00  0.00    -0.617 OA
HETATM    7  O   UNL     1      -8.273  -3.806  10.595  1.00  0.00    -0.617 OA
ENDBRANCH   3   4
ENDBRANCH   2   3
ENDBRANCH   1   2
BRANCH   1   8
HETATM    8  O   UNL     1      -5.478  -7.845  12.928  1.00  0.00    -0.390 OA
ATOM      9  HO  UNL     1      -6.131  -8.235  13.499  1.00  0.00     0.210 HD
ENDBRANCH   1   8
BRANCH   1  10
HETATM   10  C   UNL     1      -4.180  -6.041  12.356  1.00  0.00     0.220 C 
BRANCH  10  11
HETATM   11  O   UNL     1      -3.336  -7.106  12.068  1.00  0.00    -0.385 OA
ATOM     12  HO  UNL     1      -3.465  -7.486  11.207  1.00  0.00     0.210 HD
ENDBRANCH  10  11
BRANCH  10  13
HETATM   13  C   UNL     1      -3.576  -5.207  13.492  1.00  0.00     0.181 C 
HETATM   14  O   UNL     1      -2.619  -4.548  13.234  1.00  0.00    -0.293 OA
BRANCH  13  15
HETATM   15  C   UNL     1      -4.139  -5.325  14.922  1.00  0.00     0.245 C 
BRANCH  15  16
HETATM   16  O   UNL     1      -3.180  -5.815  15.823  1.00  0.00    -0.393 OA
ATOM     17  HO  UNL     1      -2.439  -6.205  15.375  1.00  0.00     0.209 HD
ENDBRANCH  15  16
ENDBRANCH  13  15
ENDBRANCH  10  13
ENDBRANCH   1  10
TORSDOF 9
ENDMDL
MODEL 5
REMARK VINA RESULT:    -5.745      1.350      1.746
REMARK INTER + INTRA:          -8.998
REMARK INTER:                  -8.074
REMARK INTRA:                  -0.924
REMARK UNBOUND:                -0.734
REMARK  9 active torsions:
REMARK  status: ('A' for Active; 'I' for Inactive)
REMARK    1  A    between atoms: O_1  and  C_3 
REMARK    2  A    between atoms: C_3  and  C_4 
REMARK    3  A    between atoms: C_4  and  C_6 
REMARK    4  A    between atoms: C_6  and  O_14 
REMARK    5  A    between atoms: C_6  and  C_7 
REMARK    6  A    between atoms: C_7  and  C_8 
REMARK    7  A    between atoms: C_7  and  O_16 
REMARK    8  A    between atoms: C_8  and  O_9 
REMARK    9  A    between atoms: O_9  and  P_10 
ROOT
HETATM    1  C   UNL     1      -4.208  -5.863  12.715  1.00  0.00     0.178 C 
ENDROOT
BRANCH   1   2
HETATM    2  C   UNL     1      -5.607  -5.373  12.455  1.00  0.00     0.217 C 
BRANCH   2   3
HETATM    3  O   UNL     1      -5.531  -5.057  11.112  1.00  0.00    -0.280 OA
BRANCH   3   4
HETATM    4  P   UNL     1      -6.909  -4.590  10.377  1.00  0.00     0.422 P 
HETATM    5  O   UNL     1      -8.017  -4.819  11.383  1.00  0.00    -0.617 OA
HETATM    6  O   UNL     1      -6.771  -3.147  10.024  1.00  0.00    -0.617 OA
HETATM    7  O   UNL     1      -7.313  -5.417   9.190  1.00  0.00    -0.617 OA
ENDBRANCH   3   4
ENDBRANCH   2   3
ENDBRANCH   1   2
BRANCH   1   8
HETATM    8  O   UNL     1      -3.809  -6.780  11.730  1.00  0.00    -0.390 OA
ATOM      9  HO  UNL     1      -3.968  -7.672  12.015  1.00  0.00     0.210 HD
ENDBRANCH   1   8
BRANCH   1  10
HETATM   10  C   UNL     1      -3.177  -4.735  12.559  1.00  0.00     0.220 C 
BRANCH  10  11
HETATM   11  O   UNL     1      -2.788  -4.494  11.247  1.00  0.00    -0.385 OA
ATOM     12  HO  UNL     1      -1.862  -4.629  11.083  1.00  0.00     0.210 HD
ENDBRANCH  10  11
BRANCH  10  13
HETATM   13  C   UNL     1      -2.010  -5.367  13.327  1.00  0.00     0.181 C 
HETATM   14  O   UNL     1      -2.112  -5.436  14.511  1.00  0.00    -0.293 OA
BRANCH  13  15
HETATM   15  C   UNL     1      -0.727  -5.780  12.580  1.00  0.00     0.245 C 
BRANCH  15  16
HETATM   16  O   UNL     1      -0.969  -6.803  11.649  1.00  0.00    -0.393 OA
ATOM     17  HO  UNL     1      -0.163  -7.152  11.288  1.00  0.00     0.209 HD
ENDBRANCH  15  16
ENDBRANCH  13  15
ENDBRANCH  10  13
ENDBRANCH   1  10
TORSDOF 9
ENDMDL
MODEL 6
REMARK VINA RESULT:    -5.665      1.332      2.329
REMARK INTER + INTRA:          -8.883
REMARK INTER:                  -8.393
REMARK INTRA:                  -0.490
REMARK UNBOUND:                -0.734
REMARK  9 active torsions:
REMARK  status: ('A' for Active; 'I' for Inactive)
REMARK    1  A    between atoms: O_1  and  C_3 
REMARK    2  A    between atoms: C_3  and  C_4 
REMARK    3  A    between atoms: C_4  and  C_6 
REMARK    4  A    between atoms: C_6  and  O_14 
REMARK    5  A    between atoms: C_6  and  C_7 
REMARK    6  A    between atoms: C_7  and  C_8 
REMARK    7  A    between atoms: C_7  and  O_16 
REMARK    8  A    between atoms: C_8  and  O_9 
REMARK    9  A    between atoms: O_9  and  P_10 
ROOT
HETATM    1  C   UNL     1      -5.694  -4.882  13.301  1.00  0.00     0.178 C 
ENDROOT
BRANCH   1   2
HETATM    2  C   UNL     1      -7.119  -4.946  12.821  1.00  0.00     0.217 C 
BRANCH   2   3
HETATM    3  O   UNL     1      -6.954  -5.529  11.579  1.00  0.00    -0.280 OA
BRANCH   3   4
HETATM    4  P   UNL     1      -7.110  -4.564  10.275  1.00  0.00     0.422 P 
HETATM    5  O   UNL     1      -7.245  -5.489   9.084  1.00  0.00    -0.617 OA
HETATM    6  O   UNL     1      -8.332  -3.730  10.469  1.00  0.00    -0.617 OA
HETATM    7  O   UNL     1      -5.908  -3.722   9.954  1.00  0.00    -0.617 OA
ENDBRANCH   3   4
ENDBRANCH   2   3
ENDBRANCH   1   2
BRANCH   1   8
HETATM    8  O   UNL     1      -5.626  -4.322  14.585  1.00  0.00    -0.390 OA
ATOM      9  HO  UNL     1      -5.562  -5.001  15.247  1.00  0.00     0.210 HD
ENDBRANCH   1   8
BRANCH   1  10
HETATM   10  C   UNL     1      -5.108  -6.285  13.515  1.00  0.00     0.220 C 
BRANCH  10  11
HETATM   11  O   UNL     1      -4.556  -6.487  14.773  1.00  0.00    -0.385 OA
ATOM     12  HO  UNL     1      -3.742  -6.978  14.769  1.00  0.00     0.210 HD
ENDBRANCH  10  11
BRANCH  10  13
HETATM   13  C   UNL     1      -3.986  -6.239  12.470  1.00  0.00     0.181 C 
HETATM   14  O   UNL     1      -3.780  -7.233  11.849  1.00  0.00    -0.293 OA
BRANCH  13  15
HETATM   15  C   UNL     1      -3.108  -4.980  12.333  1.00  0.00     0.245 C 
BRANCH  15  16
HETATM   16  O   UNL     1      -3.254  -4.373  11.075  1.00  0.00    -0.393 OA
ATOM     17  HO  UNL     1      -4.168  -4.284  10.829  1.00  0.00     0.209 HD
ENDBRANCH  15  16
ENDBRANCH  13  15
ENDBRANCH  10  13
ENDBRANCH   1  10
TORSDOF 9
ENDMDL
MODEL 7
REMARK VINA RESULT:    -5.646      1.348      2.280
REMARK INTER + INTRA:          -8.856
REMARK INTER:                  -8.303
REMARK INTRA:                  -0.553
REMARK UNBOUND:                -0.734
REMARK  9 active torsions:
REMARK  status: ('A' for Active; 'I' for Inactive)
REMARK    1  A    between atoms: O_1  and  C_3 
REMARK    2  A    between atoms: C_3  and  C_4 
REMARK    3  A    between atoms: C_4  and  C_6 
REMARK    4  A    between atoms: C_6  and  O_14 
REMARK    5  A    between atoms: C_6  and  C_7 
REMARK    6  A    between atoms: C_7  and  C_8 
REMARK    7  A    between atoms: C_7  and  O_16 
REMARK    8  A    between atoms: C_8  and  O_9 
REMARK    9  A    between atoms: O_9  and  P_10 
ROOT
HETATM    1  C   UNL     1      -4.093  -5.966  12.666  1.00  0.00     0.178 C 
ENDROOT
BRANCH   1   2
HETATM    2  C   UNL     1      -5.524  -5.506  12.593  1.00  0.00     0.217 C 
BRANCH   2   3
HETATM    3  O   UNL     1      -5.626  -5.167  11.258  1.00  0.00    -0.280 OA
BRANCH   3   4
HETATM    4  P   UNL     1      -7.045  -4.547  10.752  1.00  0.00     0.422 P 
HETATM    5  O   UNL     1      -7.247  -5.062   9.343  1.00  0.00    -0.617 OA
HETATM    6  O   UNL     1      -8.110  -5.033  11.677  1.00  0.00    -0.617 OA
HETATM    7  O   UNL     1      -7.076  -3.052  10.606  1.00  0.00    -0.617 OA
ENDBRANCH   3   4
ENDBRANCH   2   3
ENDBRANCH   1   2
BRANCH   1   8
HETATM    8  O   UNL     1      -3.766  -6.756  11.554  1.00  0.00    -0.390 OA
ATOM      9  HO  UNL     1      -3.167  -7.452  11.798  1.00  0.00     0.210 HD
ENDBRANCH   1   8
BRANCH   1  10
HETATM   10  C   UNL     1      -3.115  -4.788  12.539  1.00  0.00     0.220 C 
BRANCH  10  11
HETATM   11  O   UNL     1      -2.873  -4.385  11.231  1.00  0.00    -0.385 OA
ATOM     12  HO  UNL     1      -2.252  -3.671  11.151  1.00  0.00     0.210 HD
ENDBRANCH  10  11
BRANCH  10  13
HETATM   13  C   UNL     1      -1.857  -5.457  13.105  1.00  0.00     0.181 C 
HETATM   14  O   UNL     1      -1.263  -6.196  12.385  1.00  0.00    -0.293 OA
BRANCH  13  15
HETATM   15  C   UNL     1      -1.469  -5.249  14.582  1.00  0.00     0.245 C 
BRANCH  15  16
HETATM   16  O   UNL     1      -2.464  -5.717  15.455  1.00  0.00    -0.393 OA
ATOM     17  HO  UNL     1      -2.442  -5.268  16.292  1.00  0.00     0.209 HD
ENDBRANCH  15  16
ENDBRANCH  13  15
ENDBRANCH  10  13
ENDBRANCH   1  10
TORSDOF 9
ENDMDL
MODEL 8
REMARK VINA RESULT:    -5.311      1.369      2.637
REMARK INTER + INTRA:          -8.373
REMARK INTER:                  -7.826
REMARK INTRA:                  -0.547
REMARK UNBOUND:                -0.734
REMARK  9 active torsions:
REMARK  status: ('A' for Active; 'I' for Inactive)
REMARK    1  A    between atoms: O_1  and  C_3 
REMARK    2  A    between atoms: C_3  and  C_4 
REMARK    3  A    between atoms: C_4  and  C_6 
REMARK    4  A    between atoms: C_6  and  O_14 
REMARK    5  A    between atoms: C_6  and  C_7 
REMARK    6  A    between atoms: C_7  and  C_8 
REMARK    7  A    between atoms: C_7  and  O_16 
REMARK    8  A    between atoms: C_8  and  O_9 
REMARK    9  A    between atoms: O_9  and  P_10 
ROOT
HETATM    1  C   UNL     1      -3.646  -5.266  12.168  1.00  0.00     0.178 C 
ENDROOT
BRANCH   1   2
HETATM    2  C   UNL     1      -4.593  -4.295  11.515  1.00  0.00     0.217 C 
BRANCH   2   3
HETATM    3  O   UNL     1      -5.438  -5.159  10.845  1.00  0.00    -0.280 OA
BRANCH   3   4
HETATM    4  P   UNL     1      -6.852  -4.553  10.308  1.00  0.00     0.422 P 
HETATM    5  O   UNL     1      -7.878  -4.884  11.370  1.00  0.00    -0.617 OA
HETATM    6  O   UNL     1      -6.682  -3.080  10.142  1.00  0.00    -0.617 OA
HETATM    7  O   UNL     1      -7.391  -5.193   9.061  1.00  0.00    -0.617 OA
ENDBRANCH   3   4
ENDBRANCH   2   3
ENDBRANCH   1   2
BRANCH   1   8
HETATM    8  O   UNL     1      -2.315  -4.948  11.860  1.00  0.00    -0.390 OA
ATOM      9  HO  UNL     1      -1.714  -5.474  12.375  1.00  0.00     0.210 HD
ENDBRANCH   1   8
BRANCH   1  10
HETATM   10  C   UNL     1      -3.675  -5.139  13.698  1.00  0.00     0.220 C 
BRANCH  10  11
HETATM   11  O   UNL     1      -2.659  -5.827  14.348  1.00  0.00    -0.385 OA
ATOM     12  HO  UNL     1      -2.665  -5.732  15.293  1.00  0.00     0.210 HD
ENDBRANCH  10  11
BRANCH  10  13
HETATM   13  C   UNL     1      -5.015  -5.833  13.972  1.00  0.00     0.181 C 
HETATM   14  O   UNL     1      -5.762  -5.295  14.727  1.00  0.00    -0.293 OA
BRANCH  13  15
HETATM   15  C   UNL     1      -5.304  -7.221  13.368  1.00  0.00     0.245 C 
BRANCH  15  16
HETATM   16  O   UNL     1      -6.480  -7.225  12.601  1.00  0.00    -0.393 OA
ATOM     17  HO  UNL     1      -7.208  -6.828  13.066  1.00  0.00     0.209 HD
ENDBRANCH  15  16
ENDBRANCH  13  15
ENDBRANCH  10  13
ENDBRANCH   1  10
TORSDOF 9
ENDMDL
MODEL 9
REMARK VINA RESULT:    -5.169      2.327      4.979
REMARK INTER + INTRA:          -8.169
REMARK INTER:                  -7.818
REMARK INTRA:                  -0.351
REMARK UNBOUND:                -0.734
REMARK  9 active torsions:
REMARK  status: ('A' for Active; 'I' for Inactive)
REMARK    1  A    between atoms: O_1  and  C_3 
REMARK    2  A    between atoms: C_3  and  C_4 
REMARK    3  A    between atoms: C_4  and  C_6 
REMARK    4  A    between atoms: C_6  and  O_14 
REMARK    5  A    between atoms: C_6  and  C_7 
REMARK    6  A    between atoms: C_7  and  C_8 
REMARK    7  A    between atoms: C_7  and  O_16 
REMARK    8  A    between atoms: C_8  and  O_9 
REMARK    9  A    between atoms: O_9  and  P_10 
ROOT
HETATM    1  C   UNL     1      -4.601  -5.588  12.066  1.00  0.00     0.178 C 
ENDROOT
BRANCH   1   2
HETATM    2  C   UNL     1      -3.725  -4.904  13.080  1.00  0.00     0.217 C 
BRANCH   2   3
HETATM    3  O   UNL     1      -2.886  -4.176  12.258  1.00  0.00    -0.280 OA
BRANCH   3   4
HETATM    4  P   UNL     1      -1.301  -4.156  12.638  1.00  0.00     0.422 P 
HETATM    5  O   UNL     1      -0.836  -2.734  12.411  1.00  0.00    -0.617 OA
HETATM    6  O   UNL     1      -1.171  -4.561  14.068  1.00  0.00    -0.617 OA
HETATM    7  O   UNL     1      -0.418  -4.980  11.745  1.00  0.00    -0.617 OA
ENDBRANCH   3   4
ENDBRANCH   2   3
ENDBRANCH   1   2
BRANCH   1   8
HETATM    8  O   UNL     1      -4.032  -6.803  11.654  1.00  0.00    -0.390 OA
ATOM      9  HO  UNL     1      -3.383  -7.102  12.280  1.00  0.00     0.210 HD
ENDBRANCH   1   8
BRANCH   1  10
HETATM   10  C   UNL     1      -5.934  -6.035  12.684  1.00  0.00     0.220 C 
BRANCH  10  11
HETATM   11  O   UNL     1      -6.239  -7.375  12.477  1.00  0.00    -0.385 OA
ATOM     12  HO  UNL     1      -5.720  -7.978  12.996  1.00  0.00     0.210 HD
ENDBRANCH  10  11
BRANCH  10  13
HETATM   13  C   UNL     1      -6.887  -5.164  11.856  1.00  0.00     0.181 C 
HETATM   14  O   UNL     1      -7.989  -5.010  12.279  1.00  0.00    -0.293 OA
BRANCH  13  15
HETATM   15  C   UNL     1      -6.442  -4.620  10.485  1.00  0.00     0.245 C 
BRANCH  15  16
HETATM   16  O   UNL     1      -6.996  -5.355   9.425  1.00  0.00    -0.393 OA
ATOM     17  HO  UNL     1      -7.912  -5.557   9.574  1.00  0.00     0.209 HD
ENDBRANCH  15  16
ENDBRANCH  13  15
ENDBRANCH  10  13
ENDBRANCH   1  10
TORSDOF 9
ENDMDL
MODEL 10
REMARK VINA RESULT:    -5.076      2.415      5.470
REMARK INTER + INTRA:          -8.035
REMARK INTER:                  -7.275
REMARK INTRA:                  -0.760
REMARK UNBOUND:                -0.734
REMARK  9 active torsions:
REMARK  status: ('A' for Active; 'I' for Inactive)
REMARK    1  A    between atoms: O_1  and  C_3 
REMARK    2  A    between atoms: C_3  and  C_4 
REMARK    3  A    between atoms: C_4  and  C_6 
REMARK    4  A    between atoms: C_6  and  O_14 
REMARK    5  A    between atoms: C_6  and  C_7 
REMARK    6  A    between atoms: C_7  and  C_8 
REMARK    7  A    between atoms: C_7  and  O_16 
REMARK    8  A    between atoms: C_8  and  O_9 
REMARK    9  A    between atoms: O_9  and  P_10 
ROOT
HETATM    1  C   UNL     1      -4.237  -5.286  12.320  1.00  0.00     0.178 C 
ENDROOT
BRANCH   1   2
HETATM    2  C   UNL     1      -3.784  -5.269  13.755  1.00  0.00     0.217 C 
BRANCH   2   3
HETATM    3  O   UNL     1      -2.671  -4.456  13.673  1.00  0.00    -0.280 OA
BRANCH   3   4
HETATM    4  P   UNL     1      -1.223  -5.141  13.974  1.00  0.00     0.422 P 
HETATM    5  O   UNL     1      -1.290  -5.651  15.398  1.00  0.00    -0.617 OA
HETATM    6  O   UNL     1      -1.032  -6.252  12.996  1.00  0.00    -0.617 OA
HETATM    7  O   UNL     1      -0.055  -4.196  13.976  1.00  0.00    -0.617 OA
ENDBRANCH   3   4
ENDBRANCH   2   3
ENDBRANCH   1   2
BRANCH   1   8
HETATM    8  O   UNL     1      -3.963  -6.528  11.726  1.00  0.00    -0.390 OA
ATOM      9  HO  UNL     1      -4.070  -7.233  12.353  1.00  0.00     0.210 HD
ENDBRANCH   1   8
BRANCH   1  10
HETATM   10  C   UNL     1      -5.765  -5.192  12.210  1.00  0.00     0.220 C 
BRANCH  10  11
HETATM   11  O   UNL     1      -6.405  -6.417  12.067  1.00  0.00    -0.385 OA
ATOM     12  HO  UNL     1      -6.451  -6.731  11.171  1.00  0.00     0.210 HD
ENDBRANCH  10  11
BRANCH  10  13
HETATM   13  C   UNL     1      -5.865  -4.410  10.894  1.00  0.00     0.181 C 
HETATM   14  O   UNL     1      -4.939  -3.724  10.599  1.00  0.00    -0.293 OA
BRANCH  13  15
HETATM   15  C   UNL     1      -7.167  -4.446  10.071  1.00  0.00     0.245 C 
BRANCH  15  16
HETATM   16  O   UNL     1      -7.179  -5.513   9.157  1.00  0.00    -0.393 OA
ATOM     17  HO  UNL     1      -6.699  -5.306   8.364  1.00  0.00     0.209 HD
ENDBRANCH  15  16
ENDBRANCH  13  15
ENDBRANCH  10  13
ENDBRANCH   1  10
TORSDOF 9
ENDMDL
MODEL 11
REMARK VINA RESULT:    -5.008      2.232      5.089
REMARK INTER + INTRA:          -7.938
REMARK INTER:                  -7.610
REMARK INTRA:                  -0.328
REMARK UNBOUND:                -0.734
REMARK  9 active torsions:
REMARK  status: ('A' for Active; 'I' for Inactive)
REMARK    1  A    between atoms: O_1  and  C_3 
REMARK    2  A    between atoms: C_3  and  C_4 
REMARK    3  A    between atoms: C_4  and  C_6 
REMARK    4  A    between atoms: C_6  and  O_14 
REMARK    5  A    between atoms: C_6  and  C_7 
REMARK    6  A    between atoms: C_7  and  C_8 
REMARK    7  A    between atoms: C_7  and  O_16 
REMARK    8  A    between atoms: C_8  and  O_9 
REMARK    9  A    between atoms: O_9  and  P_10 
ROOT
HETATM    1  C   UNL     1      -4.633  -5.569  12.092  1.00  0.00     0.178 C 
ENDROOT
BRANCH   1   2
HETATM    2  C   UNL     1      -3.759  -4.929  13.136  1.00  0.00     0.217 C 
BRANCH   2   3
HETATM    3  O   UNL     1      -2.578  -5.623  12.956  1.00  0.00    -0.280 OA
BRANCH   3   4
HETATM    4  P   UNL     1      -1.201  -4.753  12.901  1.00  0.00     0.422 P 
HETATM    5  O   UNL     1      -0.532  -5.114  11.592  1.00  0.00    -0.617 OA
HETATM    6  O   UNL     1      -1.573  -3.309  12.953  1.00  0.00    -0.617 OA
HETATM    7  O   UNL     1      -0.181  -5.103  13.945  1.00  0.00    -0.617 OA
ENDBRANCH   3   4
ENDBRANCH   2   3
ENDBRANCH   1   2
BRANCH   1   8
HETATM    8  O   UNL     1      -4.075  -6.777  11.647  1.00  0.00    -0.390 OA
ATOM      9  HO  UNL     1      -3.392  -7.072  12.238  1.00  0.00     0.210 HD
ENDBRANCH   1   8
BRANCH   1  10
HETATM   10  C   UNL     1      -5.978  -6.018  12.682  1.00  0.00     0.220 C 
BRANCH  10  11
HETATM   11  O   UNL     1      -6.274  -7.360  12.473  1.00  0.00    -0.385 OA
ATOM     12  HO  UNL     1      -5.513  -7.910  12.331  1.00  0.00     0.210 HD
ENDBRANCH  10  11
BRANCH  10  13
HETATM   13  C   UNL     1      -6.915  -5.153  11.830  1.00  0.00     0.181 C 
HETATM   14  O   UNL     1      -8.029  -5.008  12.224  1.00  0.00    -0.293 OA
BRANCH  13  15
HETATM   15  C   UNL     1      -6.438  -4.603  10.472  1.00  0.00     0.245 C 
BRANCH  15  16
HETATM   16  O   UNL     1      -6.956  -5.342   9.396  1.00  0.00    -0.393 OA
ATOM     17  HO  UNL     1      -7.855  -5.610   9.550  1.00  0.00     0.209 HD
ENDBRANCH  15  16
ENDBRANCH  13  15
ENDBRANCH  10  13
ENDBRANCH   1  10
TORSDOF 9
ENDMDL
MODEL 12
REMARK VINA RESULT:    -5.003      2.219      5.103
REMARK INTER + INTRA:          -7.930
REMARK INTER:                  -7.610
REMARK INTRA:                  -0.320
REMARK UNBOUND:                -0.734
REMARK  9 active torsions:
REMARK  status: ('A' for Active; 'I' for Inactive)
REMARK    1  A    between atoms: O_1  and  C_3 
REMARK    2  A    between atoms: C_3  and  C_4 
REMARK    3  A    between atoms: C_4  and  C_6 
REMARK    4  A    between atoms: C_6  and  O_14 
REMARK    5  A    between atoms: C_6  and  C_7 
REMARK    6  A    between atoms: C_7  and  C_8 
REMARK    7  A    between atoms: C_7  and  O_16 
REMARK    8  A    between atoms: C_8  and  O_9 
REMARK    9  A    between atoms: O_9  and  P_10 
ROOT
HETATM    1  C   UNL     1      -4.624  -5.602  12.200  1.00  0.00     0.178 C 
ENDROOT
BRANCH   1   2
HETATM    2  C   UNL     1      -3.797  -5.000  13.304  1.00  0.00     0.217 C 
BRANCH   2   3
HETATM    3  O   UNL     1      -2.584  -5.630  13.100  1.00  0.00    -0.280 OA
BRANCH   3   4
HETATM    4  P   UNL     1      -1.253  -4.691  13.059  1.00  0.00     0.422 P 
HETATM    5  O   UNL     1      -0.658  -4.749  14.450  1.00  0.00    -0.617 OA
HETATM    6  O   UNL     1      -0.327  -5.258  12.036  1.00  0.00    -0.617 OA
HETATM    7  O   UNL     1      -1.508  -3.229  12.828  1.00  0.00    -0.617 OA
ENDBRANCH   3   4
ENDBRANCH   2   3
ENDBRANCH   1   2
BRANCH   1   8
HETATM    8  O   UNL     1      -4.036  -6.784  11.723  1.00  0.00    -0.390 OA
ATOM      9  HO  UNL     1      -3.096  -6.680  11.633  1.00  0.00     0.210 HD
ENDBRANCH   1   8
BRANCH   1  10
HETATM   10  C   UNL     1      -5.984  -6.091  12.718  1.00  0.00     0.220 C 
BRANCH  10  11
HETATM   11  O   UNL     1      -6.264  -7.420  12.423  1.00  0.00    -0.385 OA
ATOM     12  HO  UNL     1      -7.040  -7.546  11.889  1.00  0.00     0.210 HD
ENDBRANCH  10  11
BRANCH  10  13
HETATM   13  C   UNL     1      -6.899  -5.183  11.887  1.00  0.00     0.181 C 
HETATM   14  O   UNL     1      -8.007  -5.015  12.287  1.00  0.00    -0.293 OA
BRANCH  13  15
HETATM   15  C   UNL     1      -6.410  -4.620  10.538  1.00  0.00     0.245 C 
BRANCH  15  16
HETATM   16  O   UNL     1      -6.972  -5.306   9.449  1.00  0.00    -0.393 OA
ATOM     17  HO  UNL     1      -7.868  -5.034   9.283  1.00  0.00     0.209 HD
ENDBRANCH  15  16
ENDBRANCH  13  15
ENDBRANCH  10  13
ENDBRANCH   1  10
TORSDOF 9
ENDMDL
MODEL 13
REMARK VINA RESULT:    -4.936      1.895      2.730
REMARK INTER + INTRA:          -7.834
REMARK INTER:                  -7.393
REMARK INTRA:                  -0.442
REMARK UNBOUND:                -0.734
REMARK  9 active torsions:
REMARK  status: ('A' for Active; 'I' for Inactive)
REMARK    1  A    between atoms: O_1  and  C_3 
REMARK    2  A    between atoms: C_3  and  C_4 
REMARK    3  A    between atoms: C_4  and  C_6 
REMARK    4  A    between atoms: C_6  and  O_14 
REMARK    5  A    between atoms: C_6  and  C_7 
REMARK    6  A    between atoms: C_7  and  C_8 
REMARK    7  A    between atoms: C_7  and  O_16 
REMARK    8  A    between atoms: C_8  and  O_9 
REMARK    9  A    between atoms: O_9  and  P_10 
ROOT
HETATM    1  C   UNL     1      -3.402  -4.991  12.045  1.00  0.00     0.178 C 
ENDROOT
BRANCH   1   2
HETATM    2  C   UNL     1      -4.862  -4.780  12.340  1.00  0.00     0.217 C 
BRANCH   2   3
HETATM    3  O   UNL     1      -5.433  -5.152  11.138  1.00  0.00    -0.280 OA
BRANCH   3   4
HETATM    4  P   UNL     1      -6.911  -4.559  10.797  1.00  0.00     0.422 P 
HETATM    5  O   UNL     1      -6.781  -3.052  10.863  1.00  0.00    -0.617 OA
HETATM    6  O   UNL     1      -7.284  -5.023   9.429  1.00  0.00    -0.617 OA
HETATM    7  O   UNL     1      -7.978  -4.881  11.804  1.00  0.00    -0.617 OA
ENDBRANCH   3   4
ENDBRANCH   2   3
ENDBRANCH   1   2
BRANCH   1   8
HETATM    8  O   UNL     1      -2.991  -4.196  10.965  1.00  0.00    -0.390 OA
ATOM      9  HO  UNL     1      -3.171  -3.278  11.134  1.00  0.00     0.210 HD
ENDBRANCH   1   8
BRANCH   1  10
HETATM   10  C   UNL     1      -2.516  -4.483  13.192  1.00  0.00     0.220 C 
BRANCH  10  11
HETATM   11  O   UNL     1      -1.840  -3.302  12.912  1.00  0.00    -0.385 OA
ATOM     12  HO  UNL     1      -2.368  -2.518  13.007  1.00  0.00     0.210 HD
ENDBRANCH  10  11
BRANCH  10  13
HETATM   13  C   UNL     1      -1.512  -5.641  13.252  1.00  0.00     0.181 C 
HETATM   14  O   UNL     1      -1.590  -6.473  12.405  1.00  0.00    -0.293 OA
BRANCH  13  15
HETATM   15  C   UNL     1      -0.530  -5.751  14.435  1.00  0.00     0.245 C 
BRANCH  15  16
HETATM   16  O   UNL     1      -0.550  -7.030  15.014  1.00  0.00    -0.393 OA
ATOM     17  HO  UNL     1       0.310  -7.433  15.015  1.00  0.00     0.209 HD
ENDBRANCH  15  16
ENDBRANCH  13  15
ENDBRANCH  10  13
ENDBRANCH   1  10
TORSDOF 9
ENDMDL
MODEL 14
REMARK VINA RESULT:    -4.664      2.498      4.289
REMARK INTER + INTRA:          -7.442
REMARK INTER:                  -7.119
REMARK INTRA:                  -0.323
REMARK UNBOUND:                -0.734
REMARK  9 active torsions:
REMARK  status: ('A' for Active; 'I' for Inactive)
REMARK    1  A    between atoms: O_1  and  C_3 
REMARK    2  A    between atoms: C_3  and  C_4 
REMARK    3  A    between atoms: C_4  and  C_6 
REMARK    4  A    between atoms: C_6  and  O_14 
REMARK    5  A    between atoms: C_6  and  C_7 
REMARK    6  A    between atoms: C_7  and  C_8 
REMARK    7  A    between atoms: C_7  and  O_16 
REMARK    8  A    between atoms: C_8  and  O_9 
REMARK    9  A    between atoms: O_9  and  P_10 
ROOT
HETATM    1  C   UNL     1      -5.839  -3.767  11.139  1.00  0.00     0.178 C 
ENDROOT
BRANCH   1   2
HETATM    2  C   UNL     1      -4.591  -3.975  10.323  1.00  0.00     0.217 C 
BRANCH   2   3
HETATM    3  O   UNL     1      -4.843  -3.153   9.241  1.00  0.00    -0.280 OA
BRANCH   3   4
HETATM    4  P   UNL     1      -3.554  -2.544   8.451  1.00  0.00     0.422 P 
HETATM    5  O   UNL     1      -3.694  -1.039   8.524  1.00  0.00    -0.617 OA
HETATM    6  O   UNL     1      -2.325  -3.020   9.150  1.00  0.00    -0.617 OA
HETATM    7  O   UNL     1      -3.506  -2.840   6.980  1.00  0.00    -0.617 OA
ENDBRANCH   3   4
ENDBRANCH   2   3
ENDBRANCH   1   2
BRANCH   1   8
HETATM    8  O   UNL     1      -6.405  -2.511  10.874  1.00  0.00    -0.390 OA
ATOM      9  HO  UNL     1      -6.675  -2.447   9.965  1.00  0.00     0.210 HD
ENDBRANCH   1   8
BRANCH   1  10
HETATM   10  C   UNL     1      -6.955  -4.733  10.718  1.00  0.00     0.220 C 
BRANCH  10  11
HETATM   11  O   UNL     1      -8.125  -4.109  10.303  1.00  0.00    -0.385 OA
ATOM     12  HO  UNL     1      -8.015  -3.198  10.055  1.00  0.00     0.210 HD
ENDBRANCH  10  11
BRANCH  10  13
HETATM   13  C   UNL     1      -7.199  -5.422  12.066  1.00  0.00     0.181 C 
HETATM   14  O   UNL     1      -8.217  -5.172  12.629  1.00  0.00    -0.293 OA
BRANCH  13  15
HETATM   15  C   UNL     1      -6.103  -6.308  12.691  1.00  0.00     0.245 C 
BRANCH  15  16
HETATM   16  O   UNL     1      -5.703  -5.836  13.951  1.00  0.00    -0.393 OA
ATOM     17  HO  UNL     1      -6.225  -6.209  14.652  1.00  0.00     0.209 HD
ENDBRANCH  15  16
ENDBRANCH  13  15
ENDBRANCH  10  13
ENDBRANCH   1  10
TORSDOF 9
ENDMDL
MODEL 15
REMARK VINA RESULT:    -4.365      2.600      5.150
REMARK INTER + INTRA:          -7.013
REMARK INTER:                  -6.563
REMARK INTRA:                  -0.450
REMARK UNBOUND:                -0.734
REMARK  9 active torsions:
REMARK  status: ('A' for Active; 'I' for Inactive)
REMARK    1  A    between atoms: O_1  and  C_3 
REMARK    2  A    between atoms: C_3  and  C_4 
REMARK    3  A    between atoms: C_4  and  C_6 
REMARK    4  A    between atoms: C_6  and  O_14 
REMARK    5  A    between atoms: C_6  and  C_7 
REMARK    6  A    between atoms: C_7  and  C_8 
REMARK    7  A    between atoms: C_7  and  O_16 
REMARK    8  A    between atoms: C_8  and  O_9 
REMARK    9  A    between atoms: O_9  and  P_10 
ROOT
HETATM    1  C   UNL     1      -3.970  -5.469  12.184  1.00  0.00     0.178 C 
ENDROOT
BRANCH   1   2
HETATM    2  C   UNL     1      -2.688  -5.240  12.938  1.00  0.00     0.217 C 
BRANCH   2   3
HETATM    3  O   UNL     1      -2.342  -3.978  12.496  1.00  0.00    -0.280 OA
BRANCH   3   4
HETATM    4  P   UNL     1      -0.762  -3.691  12.217  1.00  0.00     0.422 P 
HETATM    5  O   UNL     1      -0.102  -3.635  13.578  1.00  0.00    -0.617 OA
HETATM    6  O   UNL     1      -0.234  -4.816  11.392  1.00  0.00    -0.617 OA
HETATM    7  O   UNL     1      -0.452  -2.357  11.602  1.00  0.00    -0.617 OA
ENDBRANCH   3   4
ENDBRANCH   2   3
ENDBRANCH   1   2
BRANCH   1   8
HETATM    8  O   UNL     1      -4.008  -6.763  11.645  1.00  0.00    -0.390 OA
ATOM      9  HO  UNL     1      -4.480  -6.772  10.820  1.00  0.00     0.210 HD
ENDBRANCH   1   8
BRANCH   1  10
HETATM   10  C   UNL     1      -5.185  -5.462  13.124  1.00  0.00     0.220 C 
BRANCH  10  11
HETATM   11  O   UNL     1      -5.173  -6.469  14.080  1.00  0.00    -0.385 OA
ATOM     12  HO  UNL     1      -5.877  -6.413  14.716  1.00  0.00     0.210 HD
ENDBRANCH  10  11
BRANCH  10  13
HETATM   13  C   UNL     1      -6.286  -5.751  12.096  1.00  0.00     0.181 C 
HETATM   14  O   UNL     1      -6.810  -6.818  12.146  1.00  0.00    -0.293 OA
BRANCH  13  15
HETATM   15  C   UNL     1      -6.598  -4.725  10.989  1.00  0.00     0.245 C 
BRANCH  15  16
HETATM   16  O   UNL     1      -6.923  -5.349   9.773  1.00  0.00    -0.393 OA
ATOM     17  HO  UNL     1      -7.278  -6.220   9.906  1.00  0.00     0.209 HD
ENDBRANCH  15  16
ENDBRANCH  13  15
ENDBRANCH  10  13
ENDBRANCH   1  10
TORSDOF 9
ENDMDL
MODEL 16
REMARK VINA RESULT:    -4.216      2.253      4.718
REMARK INTER + INTRA:          -6.798
REMARK INTER:                  -6.544
REMARK INTRA:                  -0.253
REMARK UNBOUND:                -0.734
REMARK  9 active torsions:
REMARK  status: ('A' for Active; 'I' for Inactive)
REMARK    1  A    between atoms: O_1  and  C_3 
REMARK    2  A    between atoms: C_3  and  C_4 
REMARK    3  A    between atoms: C_4  and  C_6 
REMARK    4  A    between atoms: C_6  and  O_14 
REMARK    5  A    between atoms: C_6  and  C_7 
REMARK    6  A    between atoms: C_7  and  C_8 
REMARK    7  A    between atoms: C_7  and  O_16 
REMARK    8  A    between atoms: C_8  and  O_9 
REMARK    9  A    between atoms: O_9  and  P_10 
ROOT
HETATM    1  C   UNL     1      -5.527  -4.048  10.950  1.00  0.00     0.178 C 
ENDROOT
BRANCH   1   2
HETATM    2  C   UNL     1      -4.396  -4.983  11.285  1.00  0.00     0.217 C 
BRANCH   2   3
HETATM    3  O   UNL     1      -3.400  -4.085  11.618  1.00  0.00    -0.280 OA
BRANCH   3   4
HETATM    4  P   UNL     1      -2.379  -4.513  12.814  1.00  0.00     0.422 P 
HETATM    5  O   UNL     1      -1.457  -3.330  13.019  1.00  0.00    -0.617 OA
HETATM    6  O   UNL     1      -3.195  -4.798  14.030  1.00  0.00    -0.617 OA
HETATM    7  O   UNL     1      -1.452  -5.650  12.488  1.00  0.00    -0.617 OA
ENDBRANCH   3   4
ENDBRANCH   2   3
ENDBRANCH   1   2
BRANCH   1   8
HETATM    8  O   UNL     1      -5.311  -3.427   9.711  1.00  0.00    -0.390 OA
ATOM      9  HO  UNL     1      -5.918  -3.756   9.058  1.00  0.00     0.210 HD
ENDBRANCH   1   8
BRANCH   1  10
HETATM   10  C   UNL     1      -6.839  -4.812  10.718  1.00  0.00     0.220 C 
BRANCH  10  11
HETATM   11  O   UNL     1      -7.962  -4.000  10.614  1.00  0.00    -0.385 OA
ATOM     12  HO  UNL     1      -7.863  -3.144  11.014  1.00  0.00     0.210 HD
ENDBRANCH  10  11
BRANCH  10  13
HETATM   13  C   UNL     1      -6.898  -5.595  12.035  1.00  0.00     0.181 C 
HETATM   14  O   UNL     1      -7.025  -6.776  11.960  1.00  0.00    -0.293 OA
BRANCH  13  15
HETATM   15  C   UNL     1      -6.904  -4.845  13.381  1.00  0.00     0.245 C 
BRANCH  15  16
HETATM   16  O   UNL     1      -5.994  -5.400  14.295  1.00  0.00    -0.393 OA
ATOM     17  HO  UNL     1      -5.370  -4.757  14.610  1.00  0.00     0.209 HD
ENDBRANCH  15  16
ENDBRANCH  13  15
ENDBRANCH  10  13
ENDBRANCH   1  10
TORSDOF 9
ENDMDL
MODEL 17
REMARK VINA RESULT:    -4.164      2.813      5.876
REMARK INTER + INTRA:          -6.724
REMARK INTER:                  -5.663
REMARK INTRA:                  -1.061
REMARK UNBOUND:                -0.734
REMARK  9 active torsions:
REMARK  status: ('A' for Active; 'I' for Inactive)
REMARK    1  A    between atoms: O_1  and  C_3 
REMARK    2  A    between atoms: C_3  and  C_4 
REMARK    3  A    between atoms: C_4  and  C_6 
REMARK    4  A    between atoms: C_6  and  O_14 
REMARK    5  A    between atoms: C_6  and  C_7 
REMARK    6  A    between atoms: C_7  and  C_8 
REMARK    7  A    between atoms: C_7  and  O_16 
REMARK    8  A    between atoms: C_8  and  O_9 
REMARK    9  A    between atoms: O_9  and  P_10 
ROOT
HETATM    1  C   UNL     1      -2.822  -5.812  12.294  1.00  0.00     0.178 C 
ENDROOT
BRANCH   1   2
HETATM    2  C   UNL     1      -1.450  -5.856  12.910  1.00  0.00     0.217 C 
BRANCH   2   3
HETATM    3  O   UNL     1      -1.693  -5.280  14.141  1.00  0.00    -0.280 OA
BRANCH   3   4
HETATM    4  P   UNL     1      -0.657  -5.632  15.348  1.00  0.00     0.422 P 
HETATM    5  O   UNL     1      -1.512  -5.895  16.570  1.00  0.00    -0.617 OA
HETATM    6  O   UNL     1       0.118  -6.841  14.944  1.00  0.00    -0.617 OA
HETATM    7  O   UNL     1       0.246  -4.507  15.766  1.00  0.00    -0.617 OA
ENDBRANCH   3   4
ENDBRANCH   2   3
ENDBRANCH   1   2
BRANCH   1   8
HETATM    8  O   UNL     1      -3.305  -7.109  12.059  1.00  0.00    -0.390 OA
ATOM      9  HO  UNL     1      -4.255  -7.119  12.049  1.00  0.00     0.210 HD
ENDBRANCH   1   8
BRANCH   1  10
HETATM   10  C   UNL     1      -3.860  -5.241  13.271  1.00  0.00     0.220 C 
BRANCH  10  11
HETATM   11  O   UNL     1      -4.266  -6.130  14.258  1.00  0.00    -0.385 OA
ATOM     12  HO  UNL     1      -4.608  -5.715  15.041  1.00  0.00     0.210 HD
ENDBRANCH  10  11
BRANCH  10  13
HETATM   13  C   UNL     1      -5.015  -5.011  12.288  1.00  0.00     0.181 C 
HETATM   14  O   UNL     1      -4.799  -4.313  11.349  1.00  0.00    -0.293 OA
BRANCH  13  15
HETATM   15  C   UNL     1      -6.414  -5.581  12.593  1.00  0.00     0.245 C 
BRANCH  15  16
HETATM   16  O   UNL     1      -6.454  -6.977  12.446  1.00  0.00    -0.393 OA
ATOM     17  HO  UNL     1      -5.584  -7.360  12.451  1.00  0.00     0.209 HD
ENDBRANCH  15  16
ENDBRANCH  13  15
ENDBRANCH  10  13
ENDBRANCH   1  10
TORSDOF 9
ENDMDL
MODEL 18
REMARK VINA RESULT:    -4.139      2.564      5.407
REMARK INTER + INTRA:          -6.688
REMARK INTER:                  -5.676
REMARK INTRA:                  -1.012
REMARK UNBOUND:                -0.734
REMARK  9 active torsions:
REMARK  status: ('A' for Active; 'I' for Inactive)
REMARK    1  A    between atoms: O_1  and  C_3 
REMARK    2  A    between atoms: C_3  and  C_4 
REMARK    3  A    between atoms: C_4  and  C_6 
REMARK    4  A    between atoms: C_6  and  O_14 
REMARK    5  A    between atoms: C_6  and  C_7 
REMARK    6  A    between atoms: C_7  and  C_8 
REMARK    7  A    between atoms: C_7  and  O_16 
REMARK    8  A    between atoms: C_8  and  O_9 
REMARK    9  A    between atoms: O_9  and  P_10 
ROOT
HETATM    1  C   UNL     1      -3.467  -4.662  12.284  1.00  0.00     0.178 C 
ENDROOT
BRANCH   1   2
HETATM    2  C   UNL     1      -1.962  -4.653  12.293  1.00  0.00     0.217 C 
BRANCH   2   3
HETATM    3  O   UNL     1      -1.692  -5.932  12.740  1.00  0.00    -0.280 OA
BRANCH   3   4
HETATM    4  P   UNL     1      -0.238  -6.563  12.363  1.00  0.00     0.422 P 
HETATM    5  O   UNL     1      -0.454  -8.055  12.219  1.00  0.00    -0.617 OA
HETATM    6  O   UNL     1       0.209  -5.943  11.081  1.00  0.00    -0.617 OA
HETATM    7  O   UNL     1       0.810  -6.444  13.432  1.00  0.00    -0.617 OA
ENDBRANCH   3   4
ENDBRANCH   2   3
ENDBRANCH   1   2
BRANCH   1   8
HETATM    8  O   UNL     1      -3.959  -4.528  10.977  1.00  0.00    -0.390 OA
ATOM      9  HO  UNL     1      -4.651  -5.156  10.810  1.00  0.00     0.210 HD
ENDBRANCH   1   8
BRANCH   1  10
HETATM   10  C   UNL     1      -4.024  -6.028  12.712  1.00  0.00     0.220 C 
BRANCH  10  11
HETATM   11  O   UNL     1      -4.169  -6.938  11.672  1.00  0.00    -0.385 OA
ATOM     12  HO  UNL     1      -3.969  -6.585  10.813  1.00  0.00     0.210 HD
ENDBRANCH  10  11
BRANCH  10  13
HETATM   13  C   UNL     1      -5.411  -5.582  13.193  1.00  0.00     0.181 C 
HETATM   14  O   UNL     1      -5.454  -4.887  14.158  1.00  0.00    -0.293 OA
BRANCH  13  15
HETATM   15  C   UNL     1      -6.678  -6.120  12.501  1.00  0.00     0.245 C 
BRANCH  15  16
HETATM   16  O   UNL     1      -6.718  -5.777  11.140  1.00  0.00    -0.393 OA
ATOM     17  HO  UNL     1      -7.572  -5.942  10.757  1.00  0.00     0.209 HD
ENDBRANCH  15  16
ENDBRANCH  13  15
ENDBRANCH  10  13
ENDBRANCH   1  10
TORSDOF 9
ENDMDL
MODEL 19
REMARK VINA RESULT:    -4.096      2.538      4.156
REMARK INTER + INTRA:          -6.625
REMARK INTER:                  -5.520
REMARK INTRA:                  -1.105
REMARK UNBOUND:                -0.734
REMARK  9 active torsions:
REMARK  status: ('A' for Active; 'I' for Inactive)
REMARK    1  A    between atoms: O_1  and  C_3 
REMARK    2  A    between atoms: C_3  and  C_4 
REMARK    3  A    between atoms: C_4  and  C_6 
REMARK    4  A    between atoms: C_6  and  O_14 
REMARK    5  A    between atoms: C_6  and  C_7 
REMARK    6  A    between atoms: C_7  and  C_8 
REMARK    7  A    between atoms: C_7  and  O_16 
REMARK    8  A    between atoms: C_8  and  O_9 
REMARK    9  A    between atoms: O_9  and  P_10 
ROOT
HETATM    1  C   UNL     1      -1.632  -5.391  12.900  1.00  0.00     0.178 C 
ENDROOT
BRANCH   1   2
HETATM    2  C   UNL     1      -2.912  -4.656  12.608  1.00  0.00     0.217 C 
BRANCH   2   3
HETATM    3  O   UNL     1      -3.789  -5.303  13.458  1.00  0.00    -0.280 OA
BRANCH   3   4
HETATM    4  P   UNL     1      -5.217  -5.780  12.836  1.00  0.00     0.422 P 
HETATM    5  O   UNL     1      -5.127  -7.284  12.691  1.00  0.00    -0.617 OA
HETATM    6  O   UNL     1      -6.288  -5.379  13.794  1.00  0.00    -0.617 OA
HETATM    7  O   UNL     1      -5.505  -5.292  11.445  1.00  0.00    -0.617 OA
ENDBRANCH   3   4
ENDBRANCH   2   3
ENDBRANCH   1   2
BRANCH   1   8
HETATM    8  O   UNL     1      -1.733  -6.113  14.099  1.00  0.00    -0.390 OA
ATOM      9  HO  UNL     1      -1.183  -5.729  14.772  1.00  0.00     0.210 HD
ENDBRANCH   1   8
BRANCH   1  10
HETATM   10  C   UNL     1      -1.367  -6.495  11.866  1.00  0.00     0.220 C 
BRANCH  10  11
HETATM   11  O   UNL     1      -2.263  -7.555  11.920  1.00  0.00    -0.385 OA
ATOM     12  HO  UNL     1      -2.923  -7.475  12.599  1.00  0.00     0.210 HD
ENDBRANCH  10  11
BRANCH  10  13
HETATM   13  C   UNL     1       0.006  -6.965  12.362  1.00  0.00     0.181 C 
HETATM   14  O   UNL     1       0.691  -6.161  12.911  1.00  0.00    -0.293 OA
BRANCH  13  15
HETATM   15  C   UNL     1       0.493  -8.393  12.047  1.00  0.00     0.245 C 
BRANCH  15  16
HETATM   16  O   UNL     1      -0.372  -9.369  12.568  1.00  0.00    -0.393 OA
ATOM     17  HO  UNL     1      -1.118  -8.981  13.012  1.00  0.00     0.209 HD
ENDBRANCH  15  16
ENDBRANCH  13  15
ENDBRANCH  10  13
ENDBRANCH   1  10
TORSDOF 9
ENDMDL
MODEL 20
REMARK VINA RESULT:    -4.079      8.800     10.128
REMARK INTER + INTRA:          -6.601
REMARK INTER:                  -5.328
REMARK INTRA:                  -1.273
REMARK UNBOUND:                -0.734
REMARK  9 active torsions:
REMARK  status: ('A' for Active; 'I' for Inactive)
REMARK    1  A    between atoms: O_1  and  C_3 
REMARK    2  A    between atoms: C_3  and  C_4 
REMARK    3  A    between atoms: C_4  and  C_6 
REMARK    4  A    between atoms: C_6  and  O_14 
REMARK    5  A    between atoms: C_6  and  C_7 
REMARK    6  A    between atoms: C_7  and  C_8 
REMARK    7  A    between atoms: C_7  and  O_16 
REMARK    8  A    between atoms: C_8  and  O_9 
REMARK    9  A    between atoms: O_9  and  P_10 
ROOT
HETATM    1  C   UNL     1      -4.998   0.480   5.276  1.00  0.00     0.178 C 
ENDROOT
BRANCH   1   2
HETATM    2  C   UNL     1      -4.487   1.659   6.059  1.00  0.00     0.217 C 
BRANCH   2   3
HETATM    3  O   UNL     1      -5.244   1.560   7.211  1.00  0.00    -0.280 OA
BRANCH   3   4
HETATM    4  P   UNL     1      -5.708   2.952   7.921  1.00  0.00     0.422 P 
HETATM    5  O   UNL     1      -6.881   3.462   7.112  1.00  0.00    -0.617 OA
HETATM    6  O   UNL     1      -6.100   2.637   9.326  1.00  0.00    -0.617 OA
HETATM    7  O   UNL     1      -4.705   4.067   7.860  1.00  0.00    -0.617 OA
ENDBRANCH   3   4
ENDBRANCH   2   3
ENDBRANCH   1   2
BRANCH   1   8
HETATM    8  O   UNL     1      -5.664  -0.426   6.115  1.00  0.00    -0.390 OA
ATOM      9  HO  UNL     1      -5.671  -1.296   5.735  1.00  0.00     0.210 HD
ENDBRANCH   1   8
BRANCH   1  10
HETATM   10  C   UNL     1      -6.099   0.893   4.288  1.00  0.00     0.220 C 
BRANCH  10  11
HETATM   11  O   UNL     1      -7.240   1.411   4.888  1.00  0.00    -0.385 OA
ATOM     12  HO  UNL     1      -7.070   2.091   5.529  1.00  0.00     0.210 HD
ENDBRANCH  10  11
BRANCH  10  13
HETATM   13  C   UNL     1      -6.418  -0.484   3.694  1.00  0.00     0.181 C 
HETATM   14  O   UNL     1      -5.504  -1.122   3.277  1.00  0.00    -0.293 OA
BRANCH  13  15
HETATM   15  C   UNL     1      -7.883  -0.944   3.553  1.00  0.00     0.245 C 
BRANCH  15  16
HETATM   16  O   UNL     1      -8.344  -1.587   4.713  1.00  0.00    -0.393 OA
ATOM     17  HO  UNL     1      -8.603  -0.965   5.383  1.00  0.00     0.209 HD
ENDBRANCH  15  16
ENDBRANCH  13  15
ENDBRANCH  10  13
ENDBRANCH   1  10
TORSDOF 9
ENDMDL
