REMARK  9 active torsions:
REMARK  status: ('A' for Active; 'I' for Inactive)
REMARK    1  A    between atoms: C_4  and  C_5 
REMARK    2  A    between atoms: C_8  and  O_45 
REMARK    3  A    between atoms: C_9  and  C_10 
REMARK       I    between atoms: C_10  and  N_35 
REMARK    4  A    between atoms: C_13  and  C_14 
REMARK    5  A    between atoms: C_13  and  N_36 
REMARK       I    between atoms: C_14  and  N_37 
REMARK    6  A    between atoms: C_15  and  N_37 
REMARK    7  A    between atoms: C_17  and  N_38 
REMARK    8  A    between atoms: C_21  and  N_39 
REMARK    9  A    between atoms: C_29  and  C_30 
ROOT
HETATM    1  C   UNL     1      -0.540  -3.513   5.481  1.00  0.00     0.161 C 
HETATM    2  C   UNL     1       0.873  -1.584   4.889  1.00  0.00     0.263 A 
HETATM    3  C   UNL     1       1.109  -0.448   4.118  1.00  0.00     0.089 A 
HETATM    4  C   UNL     1       2.148   0.474   4.057  1.00  0.00     0.009 A 
HETATM    5  C   UNL     1       1.753   1.422   3.113  1.00  0.00     0.106 A 
HETATM    6  C   UNL     1       0.170  -0.034   3.229  1.00  0.00     0.126 A 
HETATM    7  C   UNL     1      -1.225  -1.848   3.756  1.00  0.00     0.197 A 
HETATM    8  N   UNL     1      -0.285  -2.305   4.674  1.00  0.00    -0.300 N 
HETATM    9  N   UNL     1       0.536   1.104   2.613  1.00  0.00    -0.333 N 
HETATM   10  N   UNL     1      -0.982  -0.711   3.036  1.00  0.00    -0.323 N 
ATOM     11  HN  UNL     1      -1.667  -0.377   2.358  1.00  0.00     0.169 HD
HETATM   12  O   UNL     1       1.697  -1.925   5.781  1.00  0.00    -0.267 OA
ENDROOT
BRANCH   9  13
HETATM   13  C   UNL     1      -0.182   1.810   1.553  1.00  0.00     0.233 C 
BRANCH  13  14
HETATM   14  C   UNL     1       0.179   1.249   0.208  1.00  0.00     0.240 C 
HETATM   15  N   UNL     1       0.399   2.132  -0.904  1.00  0.00    -0.324 N 
HETATM   16  H   UNL     1       0.565   3.142  -0.698  1.00  0.00     0.169 HD
HETATM   17  O   UNL     1       0.265   0.000   0.058  1.00  0.00    -0.271 OA
BRANCH  15  18
HETATM   18  C   UNL     1       0.447   1.696  -2.276  1.00  0.00     0.061 A 
HETATM   19  C   UNL     1      -0.404   0.677  -2.736  1.00  0.00     0.079 A 
HETATM   20  C   UNL     1      -0.375   0.283  -4.090  1.00  0.00     0.105 A 
HETATM   21  N   UNL     1       0.479   0.927  -4.934  1.00  0.00    -0.351 N 
HETATM   22  C   UNL     1       1.304   1.923  -4.524  1.00  0.00     0.116 A 
ATOM     23  HN  UNL     1       0.499   0.649  -5.915  1.00  0.00     0.166 HD
HETATM   24  C   UNL     1       1.304   2.332  -3.191  1.00  0.00     0.076 A 
HETATM   25 CL   UNL     1       2.405   3.610  -2.693  1.00  0.00    -0.080 Cl
BRANCH  20  26
HETATM   26  N   UNL     1      -1.236  -0.772  -4.603  1.00  0.00    -0.359 N 
HETATM   27  C   UNL     1      -0.955  -1.309  -5.958  1.00  0.00     0.110 C 
HETATM   28  C   UNL     1       0.358  -2.106  -5.951  1.00  0.00     0.034 C 
HETATM   29  C   UNL     1      -2.091  -2.184  -6.546  1.00  0.00     0.298 C 
HETATM   30  N   UNL     1      -3.420  -1.860  -6.007  1.00  0.00     0.101 N 
HETATM   31  C   UNL     1      -3.399  -2.086  -4.553  1.00  0.00     0.293 C 
HETATM   32  C   UNL     1      -2.429  -1.153  -3.819  1.00  0.00     0.155 C 
BRANCH  30  33
HETATM   33  C   UNL     1      -3.869  -0.497  -6.375  1.00  0.00     0.270 A 
HETATM   34  C   UNL     1      -5.348  -0.266  -6.137  1.00  0.00     0.205 A 
HETATM   35  O   UNL     1      -5.624  -0.140  -7.510  1.00  0.00    -0.387 OA
HETATM   36  C   UNL     1      -4.275  -0.373  -7.830  1.00  0.00     0.205 A 
ENDBRANCH  30  33
ENDBRANCH  20  26
ENDBRANCH  15  18
ENDBRANCH  13  14
ENDBRANCH   9  13
BRANCH   4  37
HETATM   37  C   UNL     1       3.441   0.458   4.770  1.00  0.00    -0.021 A 
HETATM   38  C   UNL     1       4.210  -0.711   4.821  1.00  0.00     0.039 A 
HETATM   39  C   UNL     1       5.450  -0.719   5.465  1.00  0.00     0.069 A 
HETATM   40  C   UNL     1       5.944   0.459   6.061  1.00  0.00     0.103 A 
HETATM   41 CL   UNL     1       6.361  -2.224   5.499  1.00  0.00    -0.081 Cl
HETATM   42  C   UNL     1       5.184   1.648   5.998  1.00  0.00     0.067 A 
HETATM   43  C   UNL     1       3.941   1.636   5.342  1.00  0.00     0.032 A 
BRANCH  40  44
HETATM   44  O   UNL     1       7.173   0.462   6.726  1.00  0.00    -0.358 OA
HETATM   45  H   UNL     1       7.759  -0.359   6.807  1.00  0.00     0.217 HD
ENDBRANCH  40  44
BRANCH  42  46
HETATM   46  C   UNL     1       5.688   2.909   6.596  1.00  0.00     0.252 C 
HETATM   47  N   UNL     1       4.790   3.873   7.150  1.00  0.00    -0.366 N 
HETATM   48  H   UNL     1       3.773   3.667   7.264  1.00  0.00     0.159 HD
HETATM   49  H   UNL     1       5.157   4.781   7.513  1.00  0.00     0.159 HD
HETATM   50  O   UNL     1       6.926   3.143   6.623  1.00  0.00    -0.268 OA
ENDBRANCH  42  46
ENDBRANCH   4  37
BRANCH   7  51
HETATM   51  C   UNL     1      -2.525  -2.573   3.495  1.00  0.00     0.449 C 
HETATM   52  F   UNL     1      -2.272  -3.772   2.856  1.00  0.00    -0.163 F 
HETATM   53  F   UNL     1      -3.196  -2.808   4.681  1.00  0.00    -0.163 F 
HETATM   54  F   UNL     1      -3.346  -1.810   2.681  1.00  0.00    -0.163 F 
ENDBRANCH   7  51
TORSDOF 9
