REMARK  9 active torsions:
REMARK  status: ('A' for Active; 'I' for Inactive)
REMARK    1  A    between atoms: C_4  and  C_5 
REMARK    2  A    between atoms: C_8  and  O_48 
REMARK    3  A    between atoms: C_9  and  C_10 
REMARK       I    between atoms: C_10  and  N_35 
REMARK    4  A    between atoms: C_13  and  N_38 
REMARK    5  A    between atoms: C_13  and  C_14 
REMARK       I    between atoms: C_14  and  N_39 
REMARK    6  A    between atoms: C_15  and  N_39 
REMARK    7  A    between atoms: C_17  and  N_41 
REMARK    8  A    between atoms: C_21  and  N_42 
REMARK    9  A    between atoms: C_29  and  C_30 
ROOT
HETATM    1  C   UNL     1     -39.789  -0.750   3.524  1.00  0.00     0.161 C 
HETATM    2  C   UNL     1     -40.993   0.787   2.034  1.00  0.00     0.263 A 
HETATM    3  C   UNL     1     -41.182   1.214   0.658  1.00  0.00     0.089 A 
HETATM    4  C   UNL     1     -41.986   2.274   0.028  1.00  0.00     0.010 A 
HETATM    5  C   UNL     1     -41.661   2.142  -1.311  1.00  0.00     0.111 A 
HETATM    6  C   UNL     1     -40.407   0.566  -0.334  1.00  0.00     0.130 A 
HETATM    7  C   UNL     1     -39.375  -0.798   1.086  1.00  0.00     0.197 A 
HETATM    8  N   UNL     1     -40.014  -0.256   2.160  1.00  0.00    -0.300 N 
HETATM    9  N   UNL     1     -40.764   1.138  -1.515  1.00  0.00    -0.312 N 
HETATM   10  N   UNL     1     -39.525  -0.441  -0.172  1.00  0.00    -0.323 N 
ATOM     11  HN  UNL     1     -39.025  -0.881  -0.945  1.00  0.00     0.169 HD
HETATM   12  O   UNL     1     -41.537   1.200   3.015  1.00  0.00    -0.267 OA
ENDROOT
BRANCH   9  13
HETATM   13  C   UNL     1     -40.306   0.820  -2.798  1.00  0.00     0.172 C 
BRANCH  13  14
HETATM   14  C   UNL     1     -39.173   1.643  -3.291  1.00  0.00     0.261 C 
HETATM   15  N   UNL     1     -39.114   1.910  -4.621  1.00  0.00    -0.321 N 
ATOM     16  HN  UNL     1     -39.911   1.605  -5.179  1.00  0.00     0.169 HD
HETATM   17  O   UNL     1     -38.361   2.063  -2.481  1.00  0.00    -0.267 OA
BRANCH  15  18
HETATM   18  C   UNL     1     -38.073   2.563  -5.321  1.00  0.00     0.061 A 
HETATM   19  C   UNL     1     -38.277   2.954  -6.606  1.00  0.00     0.076 A 
HETATM   20  C   UNL     1     -37.217   3.507  -7.330  1.00  0.00     0.116 A 
HETATM   21 CL   UNL     1     -39.758   2.757  -7.424  1.00  0.00    -0.080 Cl
HETATM   22  N   UNL     1     -35.998   3.694  -6.822  1.00  0.00    -0.351 N 
HETATM   23  C   UNL     1     -35.728   3.307  -5.551  1.00  0.00     0.105 A 
ATOM     24  HN  UNL     1     -35.270   4.128  -7.389  1.00  0.00     0.166 HD
HETATM   25  C   UNL     1     -36.776   2.745  -4.774  1.00  0.00     0.079 A 
BRANCH  23  26
HETATM   26  N   UNL     1     -34.507   3.517  -5.036  1.00  0.00    -0.359 N 
HETATM   27  C   UNL     1     -33.260   3.538  -5.933  1.00  0.00     0.155 C 
HETATM   28  C   UNL     1     -32.181   4.320  -5.297  1.00  0.00     0.293 C 
HETATM   29  N   UNL     1     -31.780   3.531  -4.192  1.00  0.00     0.101 N 
HETATM   30  C   UNL     1     -32.812   3.594  -3.138  1.00  0.00     0.298 C 
HETATM   31  C   UNL     1     -34.088   2.882  -3.740  1.00  0.00     0.110 C 
HETATM   32  C   UNL     1     -33.907   1.391  -3.885  1.00  0.00     0.034 C 
BRANCH  29  33
HETATM   33  C   UNL     1     -30.660   4.311  -3.565  1.00  0.00     0.270 A 
HETATM   34  C   UNL     1     -29.324   4.292  -4.340  1.00  0.00     0.205 A 
HETATM   35  O   UNL     1     -28.674   3.663  -3.192  1.00  0.00    -0.387 OA
HETATM   36  C   UNL     1     -29.917   3.580  -2.446  1.00  0.00     0.205 A 
ENDBRANCH  29  33
ENDBRANCH  23  26
ENDBRANCH  15  18
ENDBRANCH  13  14
ENDBRANCH   9  13
BRANCH   4  37
HETATM   37  C   UNL     1     -42.919   3.270   0.499  1.00  0.00    -0.021 A 
HETATM   38  C   UNL     1     -43.150   4.420  -0.257  1.00  0.00     0.039 A 
HETATM   39  C   UNL     1     -44.023   5.346   0.139  1.00  0.00     0.069 A 
HETATM   40 CL   UNL     1     -44.235   6.722  -0.900  1.00  0.00    -0.081 Cl
HETATM   41  C   UNL     1     -44.751   5.250   1.315  1.00  0.00     0.103 A 
HETATM   42  C   UNL     1     -44.544   4.103   2.124  1.00  0.00     0.067 A 
HETATM   43  C   UNL     1     -43.646   3.132   1.676  1.00  0.00     0.032 A 
BRANCH  41  44
HETATM   44  O   UNL     1     -45.619   6.181   1.685  1.00  0.00    -0.358 OA
ATOM     45  HO  UNL     1     -46.118   6.115   2.491  1.00  0.00     0.217 HD
ENDBRANCH  41  44
BRANCH  42  46
HETATM   46  C   UNL     1     -45.257   3.858   3.407  1.00  0.00     0.252 C 
HETATM   47  O   UNL     1     -45.146   2.810   4.036  1.00  0.00    -0.268 OA
HETATM   48  N   UNL     1     -46.124   4.820   3.804  1.00  0.00    -0.366 N 
ATOM     49  HN2 UNL     1     -46.216   5.691   3.281  1.00  0.00     0.159 HD
ATOM     50  HN1 UNL     1     -46.613   4.652   4.683  1.00  0.00     0.159 HD
ENDBRANCH  42  46
ENDBRANCH   4  37
BRANCH   7  51
HETATM   51  C   UNL     1     -38.434  -1.919   1.307  1.00  0.00     0.449 C 
HETATM   52  F   UNL     1     -37.319  -1.566   2.053  1.00  0.00    -0.163 F 
HETATM   53  F   UNL     1     -37.853  -2.383   0.171  1.00  0.00    -0.163 F 
HETATM   54  F   UNL     1     -38.903  -2.973   1.874  1.00  0.00    -0.163 F 
ENDBRANCH   7  51
TORSDOF 9
