REMARK  4 active torsions:
REMARK  status: ('A' for Active; 'I' for Inactive)
REMARK    1  A    between atoms: C_15  and  C_21 
REMARK    2  A    between atoms: C_17  and  N_27 
REMARK    3  A    between atoms: C_19  and  S_34 
REMARK    4  A    between atoms: N_27  and  S_34 
ROOT
HETATM    1  C   UNL     1       1.230  -3.234  -0.565  1.00  0.00     0.037 A 
HETATM    2  C   UNL     1      -0.913  -4.311  -0.244  1.00  0.00     0.031 A 
HETATM    3  C   UNL     1       1.823  -1.080   0.587  1.00  0.00     0.049 C 
HETATM    4  C   UNL     1      -0.433  -2.221   0.896  1.00  0.00    -0.018 A 
HETATM    5  C   UNL     1       0.855  -2.201   0.312  1.00  0.00    -0.049 A 
HETATM    6  C   UNL     1       0.348  -4.292  -0.854  1.00  0.00     0.043 A 
HETATM    7  C   UNL     1      -1.302  -3.285   0.617  1.00  0.00     0.015 A 
ENDROOT
BRANCH   4   8
HETATM    8  C   UNL     1      -0.896  -1.136   1.788  1.00  0.00    -0.003 A 
HETATM    9  C   UNL     1      -1.177   0.126   1.241  1.00  0.00     0.031 A 
HETATM   10  C   UNL     1      -1.620   1.166   2.067  1.00  0.00     0.038 A 
HETATM   11  C   UNL     1      -1.792   0.953   3.458  1.00  0.00     0.052 A 
HETATM   12  C   UNL     1      -1.913   2.442   1.587  1.00  0.00     0.146 A 
HETATM   13  N   UNL     1      -2.228   1.976   4.264  1.00  0.00    -0.306 N 
HETATM   14  C   UNL     1      -1.511  -0.310   3.996  1.00  0.00     0.055 A 
HETATM   15  C   UNL     1      -2.503   3.208   3.743  1.00  0.00     0.347 A 
HETATM   16  H   UNL     1      -2.356   1.818   5.290  1.00  0.00     0.171 HD
HETATM   17  N   UNL     1      -2.334   3.402   2.412  1.00  0.00    -0.186 N 
HETATM   18  O   UNL     1      -2.905   4.144   4.485  1.00  0.00    -0.245 OA
HETATM   19  N   UNL     1      -2.547   4.504   1.721  1.00  0.00    -0.277 N 
HETATM   20  C   UNL     1      -2.226   4.168   0.449  1.00  0.00     0.094 A 
ATOM     21  HN  UNL     1      -2.878   5.405   2.066  1.00  0.00     0.189 HD
HETATM   22  C   UNL     1      -2.369   5.103  -0.704  1.00  0.00     0.090 C 
HETATM   23  N   UNL     1      -1.831   2.875   0.314  1.00  0.00    -0.329 N 
ATOM     24  HN  UNL     1      -1.548   2.369  -0.525  1.00  0.00     0.168 HD
HETATM   25  C   UNL     1      -1.066  -1.351   3.172  1.00  0.00     0.047 A 
HETATM   26 CL   UNL     1      -0.699  -2.907   3.909  1.00  0.00    -0.083 Cl
ENDBRANCH   4   8
BRANCH   6  27
HETATM   27  N   UNL     1       0.707  -5.357  -1.752  1.00  0.00    -0.278 N 
HETATM   28  H   UNL     1       0.071  -6.181  -1.842  1.00  0.00     0.179 HD
BRANCH  27  29
HETATM   29  S   UNL     1       2.071  -5.301  -2.823  1.00  0.00     0.295 S 
HETATM   30  O   UNL     1       2.009  -6.464  -3.773  1.00  0.00    -0.197 OA
HETATM   31  O   UNL     1       3.340  -5.392  -2.022  1.00  0.00    -0.197 OA
BRANCH  29  32
HETATM   32  C   UNL     1       2.039  -3.812  -3.750  1.00  0.00     0.224 A 
HETATM   33  N   UNL     1       3.099  -2.996  -3.888  1.00  0.00    -0.340 N 
HETATM   34  C   UNL     1       2.655  -1.971  -4.630  1.00  0.00     0.107 A 
HETATM   35  H   UNL     1       4.059  -3.123  -3.495  1.00  0.00     0.167 HD
HETATM   36  C   UNL     1       1.329  -2.193  -4.924  1.00  0.00     0.107 A 
HETATM   37  N   UNL     1       0.931  -3.355  -4.369  1.00  0.00    -0.340 N 
ATOM     38  HN  UNL     1       0.008  -3.788  -4.408  1.00  0.00     0.167 HD
ENDBRANCH  29  32
ENDBRANCH  27  29
ENDBRANCH   6  27
TORSDOF 4
