REMARK  1 active torsions:
REMARK  status: ('A' for Active; 'I' for Inactive)
REMARK    1  A    between atoms: C_2  and  C_3 
ROOT
HETATM    1  C   UNL     1    -106.416-176.749 309.469  1.00  0.00     0.164 C 
HETATM    2  C   UNL     1    -105.596-175.648 309.951  1.00  0.00     0.063 C 
HETATM    3  N   UNL     1    -105.058-174.757 310.302  1.00  0.00    -0.197 NA
ENDROOT
BRANCH   1   4
HETATM    4  C   UNL     1    -107.069-177.449 310.534  1.00  0.00    -0.017 A 
HETATM    5  C   UNL     1    -108.088-176.929 311.388  1.00  0.00     0.001 A 
HETATM    6  C   UNL     1    -108.319-177.887 312.382  1.00  0.00     0.043 A 
HETATM    7  C   UNL     1    -108.806-175.749 311.420  1.00  0.00     0.038 A 
HETATM    8  C   UNL     1    -109.240-177.674 313.393  1.00  0.00     0.032 A 
HETATM    9  N   UNL     1    -107.488-178.946 312.130  1.00  0.00    -0.365 N 
HETATM   10  C   UNL     1    -109.939-176.482 313.417  1.00  0.00     0.026 A 
HETATM   11  C   UNL     1    -109.722-175.550 312.430  1.00  0.00     0.035 A 
HETATM   12 CL   UNL     1    -110.675-174.095 312.427  1.00  0.00    -0.084 Cl
HETATM   13  C   UNL     1    -106.760-178.678 311.017  1.00  0.00     0.097 A 
ATOM     14  HN  UNL     1    -107.426-179.798 312.688  1.00  0.00     0.165 HD
ENDBRANCH   1   4
TORSDOF 1
