REMARK  1 active torsions:
REMARK  status: ('A' for Active; 'I' for Inactive)
REMARK    1  A    between atoms: C_2  and  C_3 
ROOT
HETATM    1  C   UNL     1      -2.845  -0.562  -1.079  1.00  0.00     0.164 C 
HETATM    2  C   UNL     1      -2.584   0.799  -1.556  1.00  0.00     0.063 C 
HETATM    3  N   UNL     1      -2.377   1.873  -1.932  1.00  0.00    -0.197 NA
ENDROOT
BRANCH   1   4
HETATM    4  C   UNL     1      -1.559  -1.226  -0.699  1.00  0.00    -0.017 A 
HETATM    5  C   UNL     1      -0.790  -2.066  -1.498  1.00  0.00     0.097 A 
HETATM    6  N   UNL     1       0.339  -2.432  -0.849  1.00  0.00    -0.365 N 
HETATM    7  C   UNL     1       0.295  -1.821   0.347  1.00  0.00     0.043 A 
HETATM    8  H   UNL     1       1.096  -3.053  -1.213  1.00  0.00     0.165 HD
HETATM    9  C   UNL     1      -0.846  -1.071   0.474  1.00  0.00     0.001 A 
HETATM   10  C   UNL     1       1.248  -1.881   1.363  1.00  0.00     0.032 A 
HETATM   11  C   UNL     1      -1.111  -0.324   1.622  1.00  0.00     0.038 A 
HETATM   12  C   UNL     1      -0.167  -0.366   2.666  1.00  0.00     0.035 A 
HETATM   13 CL   UNL     1      -0.449   0.552   4.133  1.00  0.00    -0.084 Cl
HETATM   14  C   UNL     1       1.007  -1.142   2.536  1.00  0.00     0.026 A 
ENDBRANCH   1   4
TORSDOF 1
