MODEL 1
REMARK VINA RESULT:    -4.303      0.000      0.000
REMARK INTER + INTRA:          -5.417
REMARK INTER:                  -5.183
REMARK INTRA:                  -0.234
REMARK UNBOUND:                -0.234
REMARK  6 active torsions:
REMARK  status: ('A' for Active; 'I' for Inactive)
REMARK    1  A    between atoms: C_1  and  O_7 
REMARK    2  A    between atoms: C_2  and  O_9 
REMARK    3  A    between atoms: C_3  and  O_11 
REMARK    4  A    between atoms: C_4  and  O_13 
REMARK    5  A    between atoms: C_5  and  C_6 
REMARK    6  A    between atoms: C_6  and  O_16 
ROOT
HETATM    1  C   UNL     1     -27.116  -6.269 -16.931  1.00  0.00     0.288 C 
HETATM    2  C   UNL     1     -26.331  -5.654 -15.778  1.00  0.00     0.204 C 
HETATM    3  C   UNL     1     -27.108  -4.546 -15.097  1.00  0.00     0.183 C 
HETATM    4  C   UNL     1     -27.665  -3.556 -16.154  1.00  0.00     0.180 C 
HETATM    5  C   UNL     1     -28.401  -4.316 -17.239  1.00  0.00     0.179 C 
HETATM    6  O   UNL     1     -27.525  -5.274 -17.842  1.00  0.00    -0.349 OA
ENDROOT
BRANCH   5   7
HETATM    7  C   UNL     1     -28.904  -3.444 -18.369  1.00  0.00     0.198 C 
BRANCH   7   8
HETATM    8  O   UNL     1     -27.834  -3.028 -19.213  1.00  0.00    -0.398 OA
ATOM      9  HO  UNL     1     -27.125  -2.650 -18.708  1.00  0.00     0.209 HD
ENDBRANCH   7   8
ENDBRANCH   5   7
BRANCH   4  10
HETATM   10  O   UNL     1     -26.601  -2.850 -16.759  1.00  0.00    -0.390 OA
ATOM     11  HO  UNL     1     -25.896  -2.781 -16.126  1.00  0.00     0.210 HD
ENDBRANCH   4  10
BRANCH   3  12
HETATM   12  O   UNL     1     -26.259  -3.827 -14.205  1.00  0.00    -0.390 OA
ATOM     13  HO  UNL     1     -26.336  -2.900 -14.396  1.00  0.00     0.210 HD
ENDBRANCH   3  12
BRANCH   1  14
HETATM   14  O   UNL     1     -26.314  -7.160 -17.627  1.00  0.00    -0.369 OA
ATOM     15  HO  UNL     1     -26.160  -7.904 -17.057  1.00  0.00     0.212 HD
ENDBRANCH   1  14
BRANCH   2  16
HETATM   16  O   UNL     1     -26.065  -6.650 -14.794  1.00  0.00    -0.388 OA
ATOM     17  HO  UNL     1     -26.376  -7.479 -15.140  1.00  0.00     0.210 HD
ENDBRANCH   2  16
TORSDOF 6
ENDMDL
MODEL 2
REMARK VINA RESULT:    -4.212      9.523     11.595
REMARK INTER + INTRA:          -5.308
REMARK INTER:                  -5.045
REMARK INTRA:                  -0.263
REMARK UNBOUND:                -0.234
REMARK  6 active torsions:
REMARK  status: ('A' for Active; 'I' for Inactive)
REMARK    1  A    between atoms: C_1  and  O_7 
REMARK    2  A    between atoms: C_2  and  O_9 
REMARK    3  A    between atoms: C_3  and  O_11 
REMARK    4  A    between atoms: C_4  and  O_13 
REMARK    5  A    between atoms: C_5  and  C_6 
REMARK    6  A    between atoms: C_6  and  O_16 
ROOT
HETATM    1  C   UNL     1     -30.926   3.244  -9.299  1.00  0.00     0.288 C 
HETATM    2  C   UNL     1     -29.735   2.750 -10.112  1.00  0.00     0.204 C 
HETATM    3  C   UNL     1     -29.509   1.263  -9.931  1.00  0.00     0.183 C 
HETATM    4  C   UNL     1     -29.506   0.903  -8.420  1.00  0.00     0.180 C 
HETATM    5  C   UNL     1     -30.738   1.476  -7.749  1.00  0.00     0.179 C 
HETATM    6  O   UNL     1     -30.781   2.894  -7.941  1.00  0.00    -0.349 OA
ENDROOT
BRANCH   5   7
HETATM    7  C   UNL     1     -30.782   1.258  -6.253  1.00  0.00     0.198 C 
BRANCH   7   8
HETATM    8  O   UNL     1     -30.064   2.276  -5.562  1.00  0.00    -0.398 OA
ATOM      9  HO  UNL     1     -29.225   2.444  -5.974  1.00  0.00     0.209 HD
ENDBRANCH   7   8
ENDBRANCH   5   7
BRANCH   4  10
HETATM   10  O   UNL     1     -28.368   1.460  -7.795  1.00  0.00    -0.390 OA
ATOM     11  HO  UNL     1     -28.648   1.869  -6.985  1.00  0.00     0.210 HD
ENDBRANCH   4  10
BRANCH   3  12
HETATM   12  O   UNL     1     -28.252   0.885 -10.488  1.00  0.00    -0.390 OA
ATOM     13  HO  UNL     1     -27.561   1.195  -9.914  1.00  0.00     0.210 HD
ENDBRANCH   3  12
BRANCH   1  14
HETATM   14  O   UNL     1     -31.000   4.627  -9.362  1.00  0.00    -0.369 OA
ATOM     15  HO  UNL     1     -31.439   4.921  -8.572  1.00  0.00     0.212 HD
ENDBRANCH   1  14
BRANCH   2  16
HETATM   16  O   UNL     1     -29.975   2.974 -11.499  1.00  0.00    -0.388 OA
ATOM     17  HO  UNL     1     -30.248   2.145 -11.875  1.00  0.00     0.210 HD
ENDBRANCH   2  16
TORSDOF 6
ENDMDL
MODEL 3
REMARK VINA RESULT:    -4.114     20.602     21.588
REMARK INTER + INTRA:          -5.189
REMARK INTER:                  -4.932
REMARK INTRA:                  -0.256
REMARK UNBOUND:                -0.234
REMARK  6 active torsions:
REMARK  status: ('A' for Active; 'I' for Inactive)
REMARK    1  A    between atoms: C_1  and  O_7 
REMARK    2  A    between atoms: C_2  and  O_9 
REMARK    3  A    between atoms: C_3  and  O_11 
REMARK    4  A    between atoms: C_4  and  O_13 
REMARK    5  A    between atoms: C_5  and  C_6 
REMARK    6  A    between atoms: C_6  and  O_16 
ROOT
HETATM    1  C   UNL     1     -20.653  11.694  -4.353  1.00  0.00     0.288 C 
HETATM    2  C   UNL     1     -22.096  11.370  -4.722  1.00  0.00     0.204 C 
HETATM    3  C   UNL     1     -23.013  11.436  -3.518  1.00  0.00     0.183 C 
HETATM    4  C   UNL     1     -22.407  10.628  -2.339  1.00  0.00     0.180 C 
HETATM    5  C   UNL     1     -20.969  11.049  -2.107  1.00  0.00     0.179 C 
HETATM    6  O   UNL     1     -20.208  10.863  -3.305  1.00  0.00    -0.349 OA
ENDROOT
BRANCH   5   7
HETATM    7  C   UNL     1     -20.260  10.251  -1.035  1.00  0.00     0.198 C 
BRANCH   7   8
HETATM    8  O   UNL     1     -19.792   9.006  -1.545  1.00  0.00    -0.398 OA
ATOM      9  HO  UNL     1     -19.051   9.130  -2.126  1.00  0.00     0.209 HD
ENDBRANCH   7   8
ENDBRANCH   5   7
BRANCH   4  10
HETATM   10  O   UNL     1     -22.414   9.249  -2.648  1.00  0.00    -0.390 OA
ATOM     11  HO  UNL     1     -21.525   8.989  -2.857  1.00  0.00     0.210 HD
ENDBRANCH   4  10
BRANCH   3  12
HETATM   12  O   UNL     1     -24.287  10.883  -3.839  1.00  0.00    -0.390 OA
ATOM     13  HO  UNL     1     -24.453  10.150  -3.258  1.00  0.00     0.210 HD
ENDBRANCH   3  12
BRANCH   1  14
HETATM   14  O   UNL     1     -19.824  11.464  -5.440  1.00  0.00    -0.369 OA
ATOM     15  HO  UNL     1     -19.767  12.278  -5.928  1.00  0.00     0.212 HD
ENDBRANCH   1  14
BRANCH   2  16
HETATM   16  O   UNL     1     -22.574  12.321  -5.670  1.00  0.00    -0.388 OA
ATOM     17  HO  UNL     1     -23.521  12.244  -5.691  1.00  0.00     0.210 HD
ENDBRANCH   2  16
TORSDOF 6
ENDMDL
MODEL 4
REMARK VINA RESULT:    -4.082      5.749      7.351
REMARK INTER + INTRA:          -5.151
REMARK INTER:                  -4.902
REMARK INTRA:                  -0.249
REMARK UNBOUND:                -0.234
REMARK  6 active torsions:
REMARK  status: ('A' for Active; 'I' for Inactive)
REMARK    1  A    between atoms: C_1  and  O_7 
REMARK    2  A    between atoms: C_2  and  O_9 
REMARK    3  A    between atoms: C_3  and  O_11 
REMARK    4  A    between atoms: C_4  and  O_13 
REMARK    5  A    between atoms: C_5  and  C_6 
REMARK    6  A    between atoms: C_6  and  O_16 
ROOT
HETATM    1  C   UNL     1     -27.477   1.330 -19.225  1.00  0.00     0.288 C 
HETATM    2  C   UNL     1     -26.579   2.524 -18.925  1.00  0.00     0.204 C 
HETATM    3  C   UNL     1     -25.791   2.329 -17.646  1.00  0.00     0.183 C 
HETATM    4  C   UNL     1     -26.736   1.875 -16.501  1.00  0.00     0.180 C 
HETATM    5  C   UNL     1     -27.572   0.696 -16.955  1.00  0.00     0.179 C 
HETATM    6  O   UNL     1     -28.316   1.050 -18.126  1.00  0.00    -0.349 OA
ENDROOT
BRANCH   5   7
HETATM    7  C   UNL     1     -28.593   0.238 -15.937  1.00  0.00     0.198 C 
BRANCH   7   8
HETATM    8  O   UNL     1     -28.171   0.541 -14.611  1.00  0.00    -0.398 OA
ATOM      9  HO  UNL     1     -28.284   1.463 -14.417  1.00  0.00     0.209 HD
ENDBRANCH   7   8
ENDBRANCH   5   7
BRANCH   4  10
HETATM   10  O   UNL     1     -27.613   2.928 -16.156  1.00  0.00    -0.390 OA
ATOM     11  HO  UNL     1     -27.104   3.728 -16.097  1.00  0.00     0.210 HD
ENDBRANCH   4  10
BRANCH   3  12
HETATM   12  O   UNL     1     -25.167   3.551 -17.261  1.00  0.00    -0.390 OA
ATOM     13  HO  UNL     1     -24.687   3.894 -18.007  1.00  0.00     0.210 HD
ENDBRANCH   3  12
BRANCH   1  14
HETATM   14  O   UNL     1     -28.297   1.614 -20.306  1.00  0.00    -0.369 OA
ATOM     15  HO  UNL     1     -29.178   1.725 -19.969  1.00  0.00     0.212 HD
ENDBRANCH   1  14
BRANCH   2  16
HETATM   16  O   UNL     1     -25.635   2.692 -19.981  1.00  0.00    -0.388 OA
ATOM     17  HO  UNL     1     -24.770   2.567 -19.607  1.00  0.00     0.210 HD
ENDBRANCH   2  16
TORSDOF 6
ENDMDL
MODEL 5
REMARK VINA RESULT:    -4.082      2.883      5.023
REMARK INTER + INTRA:          -5.151
REMARK INTER:                  -5.083
REMARK INTRA:                  -0.068
REMARK UNBOUND:                -0.234
REMARK  6 active torsions:
REMARK  status: ('A' for Active; 'I' for Inactive)
REMARK    1  A    between atoms: C_1  and  O_7 
REMARK    2  A    between atoms: C_2  and  O_9 
REMARK    3  A    between atoms: C_3  and  O_11 
REMARK    4  A    between atoms: C_4  and  O_13 
REMARK    5  A    between atoms: C_5  and  C_6 
REMARK    6  A    between atoms: C_6  and  O_16 
ROOT
HETATM    1  C   UNL     1     -26.618  -3.343 -14.365  1.00  0.00     0.288 C 
HETATM    2  C   UNL     1     -27.512  -2.731 -15.438  1.00  0.00     0.204 C 
HETATM    3  C   UNL     1     -27.981  -1.343 -15.055  1.00  0.00     0.183 C 
HETATM    4  C   UNL     1     -28.549  -1.350 -13.610  1.00  0.00     0.180 C 
HETATM    5  C   UNL     1     -27.558  -2.003 -12.667  1.00  0.00     0.179 C 
HETATM    6  O   UNL     1     -27.265  -3.332 -13.112  1.00  0.00    -0.349 OA
ENDROOT
BRANCH   5   7
HETATM    7  C   UNL     1     -28.060  -2.142 -11.247  1.00  0.00     0.198 C 
BRANCH   7   8
HETATM    8  O   UNL     1     -27.683  -3.397 -10.687  1.00  0.00    -0.398 OA
ATOM      9  HO  UNL     1     -28.426  -3.830 -10.285  1.00  0.00     0.209 HD
ENDBRANCH   7   8
ENDBRANCH   5   7
BRANCH   4  10
HETATM   10  O   UNL     1     -29.748  -2.096 -13.569  1.00  0.00    -0.390 OA
ATOM     11  HO  UNL     1     -29.528  -3.014 -13.668  1.00  0.00     0.210 HD
ENDBRANCH   4  10
BRANCH   3  12
HETATM   12  O   UNL     1     -29.007  -0.908 -15.943  1.00  0.00    -0.390 OA
ATOM     13  HO  UNL     1     -29.844  -1.213 -15.611  1.00  0.00     0.210 HD
ENDBRANCH   3  12
BRANCH   1  14
HETATM   14  O   UNL     1     -26.345  -4.666 -14.675  1.00  0.00    -0.369 OA
ATOM     15  HO  UNL     1     -26.970  -5.201 -14.200  1.00  0.00     0.212 HD
ENDBRANCH   1  14
BRANCH   2  16
HETATM   16  O   UNL     1     -26.783  -2.609 -16.657  1.00  0.00    -0.388 OA
ATOM     17  HO  UNL     1     -25.894  -2.361 -16.430  1.00  0.00     0.210 HD
ENDBRANCH   2  16
TORSDOF 6
ENDMDL
MODEL 6
REMARK VINA RESULT:    -4.047      2.596      4.083
REMARK INTER + INTRA:          -5.109
REMARK INTER:                  -4.855
REMARK INTRA:                  -0.254
REMARK UNBOUND:                -0.234
REMARK  6 active torsions:
REMARK  status: ('A' for Active; 'I' for Inactive)
REMARK    1  A    between atoms: C_1  and  O_7 
REMARK    2  A    between atoms: C_2  and  O_9 
REMARK    3  A    between atoms: C_3  and  O_11 
REMARK    4  A    between atoms: C_4  and  O_13 
REMARK    5  A    between atoms: C_5  and  C_6 
REMARK    6  A    between atoms: C_6  and  O_16 
ROOT
HETATM    1  C   UNL     1     -29.331  -5.181 -13.614  1.00  0.00     0.288 C 
HETATM    2  C   UNL     1     -28.962  -3.776 -13.153  1.00  0.00     0.204 C 
HETATM    3  C   UNL     1     -28.351  -2.958 -14.272  1.00  0.00     0.183 C 
HETATM    4  C   UNL     1     -27.227  -3.768 -14.972  1.00  0.00     0.180 C 
HETATM    5  C   UNL     1     -27.739  -5.143 -15.353  1.00  0.00     0.179 C 
HETATM    6  O   UNL     1     -28.216  -5.825 -14.188  1.00  0.00    -0.349 OA
ENDROOT
BRANCH   5   7
HETATM    7  C   UNL     1     -26.687  -6.045 -15.962  1.00  0.00     0.198 C 
BRANCH   7   8
HETATM    8  O   UNL     1     -25.861  -6.624 -14.956  1.00  0.00    -0.398 OA
ATOM      9  HO  UNL     1     -25.989  -7.564 -14.906  1.00  0.00     0.209 HD
ENDBRANCH   7   8
ENDBRANCH   5   7
BRANCH   4  10
HETATM   10  O   UNL     1     -26.135  -3.937 -14.091  1.00  0.00    -0.390 OA
ATOM     11  HO  UNL     1     -25.569  -3.179 -14.177  1.00  0.00     0.210 HD
ENDBRANCH   4  10
BRANCH   3  12
HETATM   12  O   UNL     1     -27.787  -1.757 -13.752  1.00  0.00    -0.390 OA
ATOM     13  HO  UNL     1     -26.963  -1.593 -14.195  1.00  0.00     0.210 HD
ENDBRANCH   3  12
BRANCH   1  14
HETATM   14  O   UNL     1     -29.732  -5.945 -12.529  1.00  0.00    -0.369 OA
ATOM     15  HO  UNL     1     -29.170  -6.710 -12.500  1.00  0.00     0.212 HD
ENDBRANCH   1  14
BRANCH   2  16
HETATM   16  O   UNL     1     -30.135  -3.090 -12.721  1.00  0.00    -0.388 OA
ATOM     17  HO  UNL     1     -30.651  -3.706 -12.214  1.00  0.00     0.210 HD
ENDBRANCH   2  16
TORSDOF 6
ENDMDL
MODEL 7
REMARK VINA RESULT:    -4.018      1.912      4.356
REMARK INTER + INTRA:          -5.073
REMARK INTER:                  -5.022
REMARK INTRA:                  -0.052
REMARK UNBOUND:                -0.234
REMARK  6 active torsions:
REMARK  status: ('A' for Active; 'I' for Inactive)
REMARK    1  A    between atoms: C_1  and  O_7 
REMARK    2  A    between atoms: C_2  and  O_9 
REMARK    3  A    between atoms: C_3  and  O_11 
REMARK    4  A    between atoms: C_4  and  O_13 
REMARK    5  A    between atoms: C_5  and  C_6 
REMARK    6  A    between atoms: C_6  and  O_16 
ROOT
HETATM    1  C   UNL     1     -27.381  -3.031 -13.360  1.00  0.00     0.288 C 
HETATM    2  C   UNL     1     -27.821  -1.815 -14.167  1.00  0.00     0.204 C 
HETATM    3  C   UNL     1     -28.588  -2.212 -15.411  1.00  0.00     0.183 C 
HETATM    4  C   UNL     1     -27.811  -3.308 -16.189  1.00  0.00     0.180 C 
HETATM    5  C   UNL     1     -27.430  -4.437 -15.253  1.00  0.00     0.179 C 
HETATM    6  O   UNL     1     -26.649  -3.925 -14.167  1.00  0.00    -0.349 OA
ENDROOT
BRANCH   5   7
HETATM    7  C   UNL     1     -26.587  -5.515 -15.899  1.00  0.00     0.198 C 
BRANCH   7   8
HETATM    8  O   UNL     1     -25.903  -6.290 -14.919  1.00  0.00    -0.398 OA
ATOM      9  HO  UNL     1     -26.249  -6.129 -14.050  1.00  0.00     0.209 HD
ENDBRANCH   7   8
ENDBRANCH   5   7
BRANCH   4  10
HETATM   10  O   UNL     1     -26.623  -2.765 -16.728  1.00  0.00    -0.390 OA
ATOM     11  HO  UNL     1     -26.714  -1.820 -16.747  1.00  0.00     0.210 HD
ENDBRANCH   4  10
BRANCH   3  12
HETATM   12  O   UNL     1     -28.757  -1.084 -16.266  1.00  0.00    -0.390 OA
ATOM     13  HO  UNL     1     -28.084  -0.445 -16.060  1.00  0.00     0.210 HD
ENDBRANCH   3  12
BRANCH   1  14
HETATM   14  O   UNL     1     -26.549  -2.636 -12.325  1.00  0.00    -0.369 OA
ATOM     15  HO  UNL     1     -25.659  -2.841 -12.585  1.00  0.00     0.212 HD
ENDBRANCH   1  14
BRANCH   2  16
HETATM   16  O   UNL     1     -28.689  -1.004 -13.378  1.00  0.00    -0.388 OA
ATOM     17  HO  UNL     1     -28.323  -0.972 -12.501  1.00  0.00     0.210 HD
ENDBRANCH   2  16
TORSDOF 6
ENDMDL
MODEL 8
REMARK VINA RESULT:    -3.993      2.767      4.861
REMARK INTER + INTRA:          -5.044
REMARK INTER:                  -4.781
REMARK INTRA:                  -0.263
REMARK UNBOUND:                -0.234
REMARK  6 active torsions:
REMARK  status: ('A' for Active; 'I' for Inactive)
REMARK    1  A    between atoms: C_1  and  O_7 
REMARK    2  A    between atoms: C_2  and  O_9 
REMARK    3  A    between atoms: C_3  and  O_11 
REMARK    4  A    between atoms: C_4  and  O_13 
REMARK    5  A    between atoms: C_5  and  C_6 
REMARK    6  A    between atoms: C_6  and  O_16 
ROOT
HETATM    1  C   UNL     1     -27.862  -1.358 -15.734  1.00  0.00     0.288 C 
HETATM    2  C   UNL     1     -26.931  -2.565 -15.738  1.00  0.00     0.204 C 
HETATM    3  C   UNL     1     -27.391  -3.634 -14.768  1.00  0.00     0.183 C 
HETATM    4  C   UNL     1     -27.691  -3.003 -13.381  1.00  0.00     0.180 C 
HETATM    5  C   UNL     1     -28.611  -1.809 -13.544  1.00  0.00     0.179 C 
HETATM    6  O   UNL     1     -28.015  -0.852 -14.426  1.00  0.00    -0.349 OA
ENDROOT
BRANCH   5   7
HETATM    7  C   UNL     1     -28.889  -1.067 -12.254  1.00  0.00     0.198 C 
BRANCH   7   8
HETATM    8  O   UNL     1     -27.908  -0.062 -12.016  1.00  0.00    -0.398 OA
ATOM      9  HO  UNL     1     -28.289   0.806 -12.056  1.00  0.00     0.209 HD
ENDBRANCH   7   8
ENDBRANCH   5   7
BRANCH   4  10
HETATM   10  O   UNL     1     -26.490  -2.553 -12.788  1.00  0.00    -0.390 OA
ATOM     11  HO  UNL     1     -26.526  -2.757 -11.861  1.00  0.00     0.210 HD
ENDBRANCH   4  10
BRANCH   3  12
HETATM   12  O   UNL     1     -26.376  -4.621 -14.606  1.00  0.00    -0.390 OA
ATOM     13  HO  UNL     1     -26.556  -5.113 -13.813  1.00  0.00     0.210 HD
ENDBRANCH   3  12
BRANCH   1  14
HETATM   14  O   UNL     1     -27.322  -0.342 -16.507  1.00  0.00    -0.369 OA
ATOM     15  HO  UNL     1     -27.915  -0.196 -17.235  1.00  0.00     0.212 HD
ENDBRANCH   1  14
BRANCH   2  16
HETATM   16  O   UNL     1     -26.915  -3.154 -17.037  1.00  0.00    -0.388 OA
ATOM     17  HO  UNL     1     -26.254  -3.836 -17.027  1.00  0.00     0.210 HD
ENDBRANCH   2  16
TORSDOF 6
ENDMDL
MODEL 9
REMARK VINA RESULT:    -3.936      2.271      3.748
REMARK INTER + INTRA:          -4.975
REMARK INTER:                  -4.712
REMARK INTRA:                  -0.263
REMARK UNBOUND:                -0.234
REMARK  6 active torsions:
REMARK  status: ('A' for Active; 'I' for Inactive)
REMARK    1  A    between atoms: C_1  and  O_7 
REMARK    2  A    between atoms: C_2  and  O_9 
REMARK    3  A    between atoms: C_3  and  O_11 
REMARK    4  A    between atoms: C_4  and  O_13 
REMARK    5  A    between atoms: C_5  and  C_6 
REMARK    6  A    between atoms: C_6  and  O_16 
ROOT
HETATM    1  C   UNL     1     -26.644  -5.165 -15.701  1.00  0.00     0.288 C 
HETATM    2  C   UNL     1     -27.859  -6.069 -15.527  1.00  0.00     0.204 C 
HETATM    3  C   UNL     1     -29.133  -5.270 -15.343  1.00  0.00     0.183 C 
HETATM    4  C   UNL     1     -28.927  -4.180 -14.257  1.00  0.00     0.180 C 
HETATM    5  C   UNL     1     -27.675  -3.380 -14.557  1.00  0.00     0.179 C 
HETATM    6  O   UNL     1     -26.544  -4.254 -14.629  1.00  0.00    -0.349 OA
ENDROOT
BRANCH   5   7
HETATM    7  C   UNL     1     -27.337  -2.349 -13.502  1.00  0.00     0.198 C 
BRANCH   7   8
HETATM    8  O   UNL     1     -26.518  -2.909 -12.479  1.00  0.00    -0.398 OA
ATOM      9  HO  UNL     1     -26.420  -3.846 -12.593  1.00  0.00     0.209 HD
ENDBRANCH   7   8
ENDBRANCH   5   7
BRANCH   4  10
HETATM   10  O   UNL     1     -28.766  -4.787 -12.991  1.00  0.00    -0.390 OA
ATOM     11  HO  UNL     1     -28.419  -4.134 -12.394  1.00  0.00     0.210 HD
ENDBRANCH   4  10
BRANCH   3  12
HETATM   12  O   UNL     1     -30.195  -6.126 -14.930  1.00  0.00    -0.390 OA
ATOM     13  HO  UNL     1     -30.582  -6.523 -15.702  1.00  0.00     0.210 HD
ENDBRANCH   3  12
BRANCH   1  14
HETATM   14  O   UNL     1     -25.486  -5.926 -15.703  1.00  0.00    -0.369 OA
ATOM     15  HO  UNL     1     -25.266  -6.102 -16.610  1.00  0.00     0.212 HD
ENDBRANCH   1  14
BRANCH   2  16
HETATM   16  O   UNL     1     -28.030  -6.872 -16.693  1.00  0.00    -0.388 OA
ATOM     17  HO  UNL     1     -28.954  -6.853 -16.915  1.00  0.00     0.210 HD
ENDBRANCH   2  16
TORSDOF 6
ENDMDL
MODEL 10
REMARK VINA RESULT:    -3.928     13.834     15.876
REMARK INTER + INTRA:          -4.966
REMARK INTER:                  -4.702
REMARK INTRA:                  -0.264
REMARK UNBOUND:                -0.234
REMARK  6 active torsions:
REMARK  status: ('A' for Active; 'I' for Inactive)
REMARK    1  A    between atoms: C_1  and  O_7 
REMARK    2  A    between atoms: C_2  and  O_9 
REMARK    3  A    between atoms: C_3  and  O_11 
REMARK    4  A    between atoms: C_4  and  O_13 
REMARK    5  A    between atoms: C_5  and  C_6 
REMARK    6  A    between atoms: C_6  and  O_16 
ROOT
HETATM    1  C   UNL     1     -28.618  -8.537  -2.044  1.00  0.00     0.288 C 
HETATM    2  C   UNL     1     -27.946  -9.009  -3.328  1.00  0.00     0.204 C 
HETATM    3  C   UNL     1     -27.212 -10.320  -3.131  1.00  0.00     0.183 C 
HETATM    4  C   UNL     1     -26.308 -10.242  -1.871  1.00  0.00     0.180 C 
HETATM    5  C   UNL     1     -27.111  -9.742  -0.687  1.00  0.00     0.179 C 
HETATM    6  O   UNL     1     -27.683  -8.465  -0.991  1.00  0.00    -0.349 OA
ENDROOT
BRANCH   5   7
HETATM    7  C   UNL     1     -26.294  -9.543   0.571  1.00  0.00     0.198 C 
BRANCH   7   8
HETATM    8  O   UNL     1     -25.710  -8.244   0.605  1.00  0.00    -0.398 OA
ATOM      9  HO  UNL     1     -25.716  -7.841  -0.255  1.00  0.00     0.209 HD
ENDBRANCH   7   8
ENDBRANCH   5   7
BRANCH   4  10
HETATM   10  O   UNL     1     -25.248  -9.334  -2.096  1.00  0.00    -0.390 OA
ATOM     11  HO  UNL     1     -24.707  -9.316  -1.316  1.00  0.00     0.210 HD
ENDBRANCH   4  10
BRANCH   3  12
HETATM   12  O   UNL     1     -26.391 -10.599  -4.262  1.00  0.00    -0.390 OA
ATOM     13  HO  UNL     1     -25.680 -11.167  -3.987  1.00  0.00     0.210 HD
ENDBRANCH   3  12
BRANCH   1  14
HETATM   14  O   UNL     1     -29.136  -7.264  -2.222  1.00  0.00    -0.369 OA
ATOM     15  HO  UNL     1     -29.772  -7.120  -1.531  1.00  0.00     0.212 HD
ENDBRANCH   1  14
BRANCH   2  16
HETATM   16  O   UNL     1     -28.932  -9.225  -4.335  1.00  0.00    -0.388 OA
ATOM     17  HO  UNL     1     -29.772  -8.981  -3.962  1.00  0.00     0.210 HD
ENDBRANCH   2  16
TORSDOF 6
ENDMDL
MODEL 11
REMARK VINA RESULT:    -3.926     20.689     22.500
REMARK INTER + INTRA:          -4.963
REMARK INTER:                  -4.714
REMARK INTRA:                  -0.248
REMARK UNBOUND:                -0.234
REMARK  6 active torsions:
REMARK  status: ('A' for Active; 'I' for Inactive)
REMARK    1  A    between atoms: C_1  and  O_7 
REMARK    2  A    between atoms: C_2  and  O_9 
REMARK    3  A    between atoms: C_3  and  O_11 
REMARK    4  A    between atoms: C_4  and  O_13 
REMARK    5  A    between atoms: C_5  and  C_6 
REMARK    6  A    between atoms: C_6  and  O_16 
ROOT
HETATM    1  C   UNL     1     -20.755  11.454  -2.602  1.00  0.00     0.288 C 
HETATM    2  C   UNL     1     -21.507  10.167  -2.920  1.00  0.00     0.204 C 
HETATM    3  C   UNL     1     -21.922   9.432  -1.662  1.00  0.00     0.183 C 
HETATM    4  C   UNL     1     -20.712   9.300  -0.697  1.00  0.00     0.180 C 
HETATM    5  C   UNL     1     -20.062  10.654  -0.495  1.00  0.00     0.179 C 
HETATM    6  O   UNL     1     -19.657  11.193  -1.758  1.00  0.00    -0.349 OA
ENDROOT
BRANCH   5   7
HETATM    7  C   UNL     1     -18.814  10.615   0.360  1.00  0.00     0.198 C 
BRANCH   7   8
HETATM    8  O   UNL     1     -18.845   9.518   1.268  1.00  0.00    -0.398 OA
ATOM      9  HO  UNL     1     -19.374   8.806   0.928  1.00  0.00     0.209 HD
ENDBRANCH   7   8
ENDBRANCH   5   7
BRANCH   4  10
HETATM   10  O   UNL     1     -19.747   8.429  -1.252  1.00  0.00    -0.390 OA
ATOM     11  HO  UNL     1     -18.895   8.682  -0.916  1.00  0.00     0.210 HD
ENDBRANCH   4  10
BRANCH   3  12
HETATM   12  O   UNL     1     -22.386   8.124  -1.987  1.00  0.00    -0.390 OA
ATOM     13  HO  UNL     1     -23.256   8.196  -2.362  1.00  0.00     0.210 HD
ENDBRANCH   3  12
BRANCH   1  14
HETATM   14  O   UNL     1     -20.254  12.010  -3.769  1.00  0.00    -0.369 OA
ATOM     15  HO  UNL     1     -20.451  11.406  -4.475  1.00  0.00     0.212 HD
ENDBRANCH   1  14
BRANCH   2  16
HETATM   16  O   UNL     1     -22.698  10.472  -3.642  1.00  0.00    -0.388 OA
ATOM     17  HO  UNL     1     -22.908  11.382  -3.465  1.00  0.00     0.210 HD
ENDBRANCH   2  16
TORSDOF 6
ENDMDL
MODEL 12
REMARK VINA RESULT:    -3.919     20.278     21.268
REMARK INTER + INTRA:          -4.955
REMARK INTER:                  -4.705
REMARK INTRA:                  -0.250
REMARK UNBOUND:                -0.234
REMARK  6 active torsions:
REMARK  status: ('A' for Active; 'I' for Inactive)
REMARK    1  A    between atoms: C_1  and  O_7 
REMARK    2  A    between atoms: C_2  and  O_9 
REMARK    3  A    between atoms: C_3  and  O_11 
REMARK    4  A    between atoms: C_4  and  O_13 
REMARK    5  A    between atoms: C_5  and  C_6 
REMARK    6  A    between atoms: C_6  and  O_16 
ROOT
HETATM    1  C   UNL     1     -23.127  11.793  -4.724  1.00  0.00     0.288 C 
HETATM    2  C   UNL     1     -22.148  11.472  -3.601  1.00  0.00     0.204 C 
HETATM    3  C   UNL     1     -21.016  12.477  -3.537  1.00  0.00     0.183 C 
HETATM    4  C   UNL     1     -20.402  12.680  -4.948  1.00  0.00     0.180 C 
HETATM    5  C   UNL     1     -21.497  12.972  -5.954  1.00  0.00     0.179 C 
HETATM    6  O   UNL     1     -22.452  11.906  -5.957  1.00  0.00    -0.349 OA
ENDROOT
BRANCH   5   7
HETATM    7  C   UNL     1     -21.007  13.095  -7.380  1.00  0.00     0.198 C 
BRANCH   7   8
HETATM    8  O   UNL     1     -21.125  11.856  -8.073  1.00  0.00    -0.398 OA
ATOM      9  HO  UNL     1     -20.354  11.682  -8.599  1.00  0.00     0.209 HD
ENDBRANCH   7   8
ENDBRANCH   5   7
BRANCH   4  10
HETATM   10  O   UNL     1     -19.736  11.502  -5.356  1.00  0.00    -0.390 OA
ATOM     11  HO  UNL     1     -18.948  11.413  -4.833  1.00  0.00     0.210 HD
ENDBRANCH   4  10
BRANCH   3  12
HETATM   12  O   UNL     1     -19.994  12.011  -2.660  1.00  0.00    -0.390 OA
ATOM     13  HO  UNL     1     -19.153  12.304  -2.993  1.00  0.00     0.210 HD
ENDBRANCH   3  12
BRANCH   1  14
HETATM   14  O   UNL     1     -24.051  10.767  -4.853  1.00  0.00    -0.369 OA
ATOM     15  HO  UNL     1     -24.060  10.510  -5.768  1.00  0.00     0.212 HD
ENDBRANCH   1  14
BRANCH   2  16
HETATM   16  O   UNL     1     -22.824  11.517  -2.347  1.00  0.00    -0.388 OA
ATOM     17  HO  UNL     1     -23.739  11.699  -2.527  1.00  0.00     0.210 HD
ENDBRANCH   2  16
TORSDOF 6
ENDMDL
MODEL 13
REMARK VINA RESULT:    -3.917      7.711      8.974
REMARK INTER + INTRA:          -4.952
REMARK INTER:                  -4.690
REMARK INTRA:                  -0.263
REMARK UNBOUND:                -0.234
REMARK  6 active torsions:
REMARK  status: ('A' for Active; 'I' for Inactive)
REMARK    1  A    between atoms: C_1  and  O_7 
REMARK    2  A    between atoms: C_2  and  O_9 
REMARK    3  A    between atoms: C_3  and  O_11 
REMARK    4  A    between atoms: C_4  and  O_13 
REMARK    5  A    between atoms: C_5  and  C_6 
REMARK    6  A    between atoms: C_6  and  O_16 
ROOT
HETATM    1  C   UNL     1     -29.469   0.442 -11.819  1.00  0.00     0.288 C 
HETATM    2  C   UNL     1     -28.636   0.493 -10.544  1.00  0.00     0.204 C 
HETATM    3  C   UNL     1     -29.367   1.200  -9.422  1.00  0.00     0.183 C 
HETATM    4  C   UNL     1     -29.935   2.555  -9.925  1.00  0.00     0.180 C 
HETATM    5  C   UNL     1     -30.721   2.343 -11.204  1.00  0.00     0.179 C 
HETATM    6  O   UNL     1     -29.885   1.736 -12.194  1.00  0.00    -0.349 OA
ENDROOT
BRANCH   5   7
HETATM    7  C   UNL     1     -31.240   3.622 -11.825  1.00  0.00     0.198 C 
BRANCH   7   8
HETATM    8  O   UNL     1     -30.250   4.232 -12.649  1.00  0.00    -0.398 OA
ATOM      9  HO  UNL     1     -29.794   3.586 -13.174  1.00  0.00     0.209 HD
ENDBRANCH   7   8
ENDBRANCH   5   7
BRANCH   4  10
HETATM   10  O   UNL     1     -28.875   3.447 -10.205  1.00  0.00    -0.390 OA
ATOM     11  HO  UNL     1     -28.063   3.032  -9.938  1.00  0.00     0.210 HD
ENDBRANCH   4  10
BRANCH   3  12
HETATM   12  O   UNL     1     -28.475   1.458  -8.340  1.00  0.00    -0.390 OA
ATOM     13  HO  UNL     1     -27.662   0.993  -8.501  1.00  0.00     0.210 HD
ENDBRANCH   3  12
BRANCH   1  14
HETATM   14  O   UNL     1     -28.708  -0.064 -12.861  1.00  0.00    -0.369 OA
ATOM     15  HO  UNL     1     -29.233   0.003 -13.651  1.00  0.00     0.212 HD
ENDBRANCH   1  14
BRANCH   2  16
HETATM   16  O   UNL     1     -28.360  -0.833 -10.098  1.00  0.00    -0.388 OA
ATOM     17  HO  UNL     1     -27.474  -1.043 -10.370  1.00  0.00     0.210 HD
ENDBRANCH   2  16
TORSDOF 6
ENDMDL
MODEL 14
REMARK VINA RESULT:    -3.888     14.729     16.656
REMARK INTER + INTRA:          -4.918
REMARK INTER:                  -4.656
REMARK INTRA:                  -0.261
REMARK UNBOUND:                -0.234
REMARK  6 active torsions:
REMARK  status: ('A' for Active; 'I' for Inactive)
REMARK    1  A    between atoms: C_1  and  O_7 
REMARK    2  A    between atoms: C_2  and  O_9 
REMARK    3  A    between atoms: C_3  and  O_11 
REMARK    4  A    between atoms: C_4  and  O_13 
REMARK    5  A    between atoms: C_5  and  C_6 
REMARK    6  A    between atoms: C_6  and  O_16 
ROOT
HETATM    1  C   UNL     1     -31.042   2.856  -3.771  1.00  0.00     0.288 C 
HETATM    2  C   UNL     1     -31.203   1.352  -3.583  1.00  0.00     0.204 C 
HETATM    3  C   UNL     1     -31.854   1.017  -2.257  1.00  0.00     0.183 C 
HETATM    4  C   UNL     1     -31.146   1.781  -1.106  1.00  0.00     0.180 C 
HETATM    5  C   UNL     1     -31.046   3.255  -1.447  1.00  0.00     0.179 C 
HETATM    6  O   UNL     1     -30.345   3.422  -2.683  1.00  0.00    -0.349 OA
ENDROOT
BRANCH   5   7
HETATM    7  C   UNL     1     -30.287   4.072  -0.425  1.00  0.00     0.198 C 
BRANCH   7   8
HETATM    8  O   UNL     1     -28.882   4.001  -0.649  1.00  0.00    -0.398 OA
ATOM      9  HO  UNL     1     -28.583   4.724  -1.187  1.00  0.00     0.209 HD
ENDBRANCH   7   8
ENDBRANCH   5   7
BRANCH   4  10
HETATM   10  O   UNL     1     -29.835   1.282  -0.932  1.00  0.00    -0.390 OA
ATOM     11  HO  UNL     1     -29.612   0.769  -1.700  1.00  0.00     0.210 HD
ENDBRANCH   4  10
BRANCH   3  12
HETATM   12  O   UNL     1     -31.755  -0.382  -2.000  1.00  0.00    -0.390 OA
ATOM     13  HO  UNL     1     -30.866  -0.660  -2.181  1.00  0.00     0.210 HD
ENDBRANCH   3  12
BRANCH   1  14
HETATM   14  O   UNL     1     -30.300   3.113  -4.913  1.00  0.00    -0.369 OA
ATOM     15  HO  UNL     1     -30.255   2.303  -5.408  1.00  0.00     0.212 HD
ENDBRANCH   1  14
BRANCH   2  16
HETATM   16  O   UNL     1     -32.042   0.827  -4.609  1.00  0.00    -0.388 OA
ATOM     17  HO  UNL     1     -32.941   0.965  -4.335  1.00  0.00     0.210 HD
ENDBRANCH   2  16
TORSDOF 6
ENDMDL
MODEL 15
REMARK VINA RESULT:    -3.880      3.158      4.323
REMARK INTER + INTRA:          -4.908
REMARK INTER:                  -4.647
REMARK INTRA:                  -0.261
REMARK UNBOUND:                -0.234
REMARK  6 active torsions:
REMARK  status: ('A' for Active; 'I' for Inactive)
REMARK    1  A    between atoms: C_1  and  O_7 
REMARK    2  A    between atoms: C_2  and  O_9 
REMARK    3  A    between atoms: C_3  and  O_11 
REMARK    4  A    between atoms: C_4  and  O_13 
REMARK    5  A    between atoms: C_5  and  C_6 
REMARK    6  A    between atoms: C_6  and  O_16 
ROOT
HETATM    1  C   UNL     1     -27.545  -2.424 -15.468  1.00  0.00     0.288 C 
HETATM    2  C   UNL     1     -26.960  -2.877 -14.135  1.00  0.00     0.204 C 
HETATM    3  C   UNL     1     -27.965  -2.751 -13.008  1.00  0.00     0.183 C 
HETATM    4  C   UNL     1     -28.617  -1.343 -13.029  1.00  0.00     0.180 C 
HETATM    5  C   UNL     1     -29.132  -1.031 -14.419  1.00  0.00     0.179 C 
HETATM    6  O   UNL     1     -28.062  -1.116 -15.366  1.00  0.00    -0.349 OA
ENDROOT
BRANCH   5   7
HETATM    7  C   UNL     1     -29.705   0.362 -14.565  1.00  0.00     0.198 C 
BRANCH   7   8
HETATM    8  O   UNL     1     -28.702   1.293 -14.961  1.00  0.00    -0.398 OA
ATOM      9  HO  UNL     1     -27.988   1.316 -14.336  1.00  0.00     0.209 HD
ENDBRANCH   7   8
ENDBRANCH   5   7
BRANCH   4  10
HETATM   10  O   UNL     1     -27.657  -0.363 -12.687  1.00  0.00    -0.390 OA
ATOM     11  HO  UNL     1     -28.083   0.485 -12.704  1.00  0.00     0.210 HD
ENDBRANCH   4  10
BRANCH   3  12
HETATM   12  O   UNL     1     -27.318  -2.933 -11.751  1.00  0.00    -0.390 OA
ATOM     13  HO  UNL     1     -26.427  -3.221 -11.908  1.00  0.00     0.210 HD
ENDBRANCH   3  12
BRANCH   1  14
HETATM   14  O   UNL     1     -26.553  -2.399 -16.435  1.00  0.00    -0.369 OA
ATOM     15  HO  UNL     1     -26.434  -1.493 -16.694  1.00  0.00     0.212 HD
ENDBRANCH   1  14
BRANCH   2  16
HETATM   16  O   UNL     1     -26.588  -4.251 -14.217  1.00  0.00    -0.388 OA
ATOM     17  HO  UNL     1     -27.219  -4.680 -14.782  1.00  0.00     0.210 HD
ENDBRANCH   2  16
TORSDOF 6
ENDMDL
MODEL 16
REMARK VINA RESULT:    -3.866     20.469     21.679
REMARK INTER + INTRA:          -4.890
REMARK INTER:                  -4.639
REMARK INTRA:                  -0.251
REMARK UNBOUND:                -0.234
REMARK  6 active torsions:
REMARK  status: ('A' for Active; 'I' for Inactive)
REMARK    1  A    between atoms: C_1  and  O_7 
REMARK    2  A    between atoms: C_2  and  O_9 
REMARK    3  A    between atoms: C_3  and  O_11 
REMARK    4  A    between atoms: C_4  and  O_13 
REMARK    5  A    between atoms: C_5  and  C_6 
REMARK    6  A    between atoms: C_6  and  O_16 
ROOT
HETATM    1  C   UNL     1     -21.997   9.523  -1.927  1.00  0.00     0.288 C 
HETATM    2  C   UNL     1     -20.592   9.988  -1.562  1.00  0.00     0.204 C 
HETATM    3  C   UNL     1     -20.478  11.499  -1.579  1.00  0.00     0.183 C 
HETATM    4  C   UNL     1     -21.067  12.064  -2.900  1.00  0.00     0.180 C 
HETATM    5  C   UNL     1     -22.453  11.498  -3.132  1.00  0.00     0.179 C 
HETATM    6  O   UNL     1     -22.396  10.068  -3.165  1.00  0.00    -0.349 OA
ENDROOT
BRANCH   5   7
HETATM    7  C   UNL     1     -23.077  11.919  -4.445  1.00  0.00     0.198 C 
BRANCH   7   8
HETATM    8  O   UNL     1     -22.844  10.947  -5.461  1.00  0.00    -0.398 OA
ATOM      9  HO  UNL     1     -21.952  10.625  -5.429  1.00  0.00     0.209 HD
ENDBRANCH   7   8
ENDBRANCH   5   7
BRANCH   4  10
HETATM   10  O   UNL     1     -20.251  11.687  -3.990  1.00  0.00    -0.390 OA
ATOM     11  HO  UNL     1     -20.487  10.802  -4.242  1.00  0.00     0.210 HD
ENDBRANCH   4  10
BRANCH   3  12
HETATM   12  O   UNL     1     -19.110  11.889  -1.490  1.00  0.00    -0.390 OA
ATOM     13  HO  UNL     1     -19.071  12.829  -1.361  1.00  0.00     0.210 HD
ENDBRANCH   3  12
BRANCH   1  14
HETATM   14  O   UNL     1     -22.019   8.143  -2.059  1.00  0.00    -0.369 OA
ATOM     15  HO  UNL     1     -22.776   7.826  -1.581  1.00  0.00     0.212 HD
ENDBRANCH   1  14
BRANCH   2  16
HETATM   16  O   UNL     1     -20.271   9.556  -0.242  1.00  0.00    -0.388 OA
ATOM     17  HO  UNL     1     -19.549  10.094   0.062  1.00  0.00     0.210 HD
ENDBRANCH   2  16
TORSDOF 6
ENDMDL
MODEL 17
REMARK VINA RESULT:    -3.834      3.638      5.543
REMARK INTER + INTRA:          -4.852
REMARK INTER:                  -4.642
REMARK INTRA:                  -0.210
REMARK UNBOUND:                -0.234
REMARK  6 active torsions:
REMARK  status: ('A' for Active; 'I' for Inactive)
REMARK    1  A    between atoms: C_1  and  O_7 
REMARK    2  A    between atoms: C_2  and  O_9 
REMARK    3  A    between atoms: C_3  and  O_11 
REMARK    4  A    between atoms: C_4  and  O_13 
REMARK    5  A    between atoms: C_5  and  C_6 
REMARK    6  A    between atoms: C_6  and  O_16 
ROOT
HETATM    1  C   UNL     1     -28.395  -0.476 -13.828  1.00  0.00     0.288 C 
HETATM    2  C   UNL     1     -28.564  -0.823 -12.353  1.00  0.00     0.204 C 
HETATM    3  C   UNL     1     -27.478  -1.762 -11.868  1.00  0.00     0.183 C 
HETATM    4  C   UNL     1     -27.335  -2.961 -12.844  1.00  0.00     0.180 C 
HETATM    5  C   UNL     1     -27.195  -2.458 -14.267  1.00  0.00     0.179 C 
HETATM    6  O   UNL     1     -28.324  -1.647 -14.610  1.00  0.00    -0.349 OA
ENDROOT
BRANCH   5   7
HETATM    7  C   UNL     1     -27.141  -3.557 -15.305  1.00  0.00     0.198 C 
BRANCH   7   8
HETATM    8  O   UNL     1     -26.305  -4.628 -14.879  1.00  0.00    -0.398 OA
ATOM      9  HO  UNL     1     -25.547  -4.305 -14.407  1.00  0.00     0.209 HD
ENDBRANCH   7   8
ENDBRANCH   5   7
BRANCH   4  10
HETATM   10  O   UNL     1     -28.489  -3.775 -12.779  1.00  0.00    -0.390 OA
ATOM     11  HO  UNL     1     -28.388  -4.370 -12.046  1.00  0.00     0.210 HD
ENDBRANCH   4  10
BRANCH   3  12
HETATM   12  O   UNL     1     -27.806  -2.266 -10.576  1.00  0.00    -0.390 OA
ATOM     13  HO  UNL     1     -26.999  -2.415 -10.096  1.00  0.00     0.210 HD
ENDBRANCH   3  12
BRANCH   1  14
HETATM   14  O   UNL     1     -29.491   0.248 -14.272  1.00  0.00    -0.369 OA
ATOM     15  HO  UNL     1     -30.260  -0.118 -13.850  1.00  0.00     0.212 HD
ENDBRANCH   1  14
BRANCH   2  16
HETATM   16  O   UNL     1     -28.476   0.364 -11.568  1.00  0.00    -0.388 OA
ATOM     17  HO  UNL     1     -28.639   1.098 -12.149  1.00  0.00     0.210 HD
ENDBRANCH   2  16
TORSDOF 6
ENDMDL
MODEL 18
REMARK VINA RESULT:    -3.809     20.891     22.314
REMARK INTER + INTRA:          -4.822
REMARK INTER:                  -4.610
REMARK INTRA:                  -0.212
REMARK UNBOUND:                -0.234
REMARK  6 active torsions:
REMARK  status: ('A' for Active; 'I' for Inactive)
REMARK    1  A    between atoms: C_1  and  O_7 
REMARK    2  A    between atoms: C_2  and  O_9 
REMARK    3  A    between atoms: C_3  and  O_11 
REMARK    4  A    between atoms: C_4  and  O_13 
REMARK    5  A    between atoms: C_5  and  C_6 
REMARK    6  A    between atoms: C_6  and  O_16 
ROOT
HETATM    1  C   UNL     1     -21.963  10.438   0.667  1.00  0.00     0.288 C 
HETATM    2  C   UNL     1     -21.056   9.227   0.484  1.00  0.00     0.204 C 
HETATM    3  C   UNL     1     -20.276   9.299  -0.813  1.00  0.00     0.183 C 
HETATM    4  C   UNL     1     -21.230   9.627  -1.992  1.00  0.00     0.180 C 
HETATM    5  C   UNL     1     -22.075  10.839  -1.654  1.00  0.00     0.179 C 
HETATM    6  O   UNL     1     -22.810  10.600  -0.449  1.00  0.00    -0.349 OA
ENDROOT
BRANCH   5   7
HETATM    7  C   UNL     1     -23.105  11.185  -2.707  1.00  0.00     0.198 C 
BRANCH   7   8
HETATM    8  O   UNL     1     -22.832  10.515  -3.934  1.00  0.00    -0.398 OA
ATOM      9  HO  UNL     1     -23.564  10.587  -4.535  1.00  0.00     0.209 HD
ENDBRANCH   7   8
ENDBRANCH   5   7
BRANCH   4  10
HETATM   10  O   UNL     1     -22.101   8.538  -2.224  1.00  0.00    -0.390 OA
ATOM     11  HO  UNL     1     -22.760   8.816  -2.849  1.00  0.00     0.210 HD
ENDBRANCH   4  10
BRANCH   3  12
HETATM   12  O   UNL     1     -19.643   8.049  -1.076  1.00  0.00    -0.390 OA
ATOM     13  HO  UNL     1     -19.803   7.469  -0.341  1.00  0.00     0.210 HD
ENDBRANCH   3  12
BRANCH   1  14
HETATM   14  O   UNL     1     -22.775  10.258   1.776  1.00  0.00    -0.369 OA
ATOM     15  HO  UNL     1     -22.386  10.746   2.492  1.00  0.00     0.212 HD
ENDBRANCH   1  14
BRANCH   2  16
HETATM   16  O   UNL     1     -20.106   9.174   1.546  1.00  0.00    -0.388 OA
ATOM     17  HO  UNL     1     -19.657   8.339   1.479  1.00  0.00     0.210 HD
ENDBRANCH   2  16
TORSDOF 6
ENDMDL
MODEL 19
REMARK VINA RESULT:    -3.785      2.538      4.440
REMARK INTER + INTRA:          -4.793
REMARK INTER:                  -4.530
REMARK INTRA:                  -0.263
REMARK UNBOUND:                -0.234
REMARK  6 active torsions:
REMARK  status: ('A' for Active; 'I' for Inactive)
REMARK    1  A    between atoms: C_1  and  O_7 
REMARK    2  A    between atoms: C_2  and  O_9 
REMARK    3  A    between atoms: C_3  and  O_11 
REMARK    4  A    between atoms: C_4  and  O_13 
REMARK    5  A    between atoms: C_5  and  C_6 
REMARK    6  A    between atoms: C_6  and  O_16 
ROOT
HETATM    1  C   UNL     1     -27.412  -4.429 -15.080  1.00  0.00     0.288 C 
HETATM    2  C   UNL     1     -27.247  -5.891 -15.481  1.00  0.00     0.204 C 
HETATM    3  C   UNL     1     -28.579  -6.607 -15.558  1.00  0.00     0.183 C 
HETATM    4  C   UNL     1     -29.406  -6.336 -14.272  1.00  0.00     0.180 C 
HETATM    5  C   UNL     1     -29.465  -4.847 -13.998  1.00  0.00     0.179 C 
HETATM    6  O   UNL     1     -28.138  -4.322 -13.876  1.00  0.00    -0.349 OA
ENDROOT
BRANCH   5   7
HETATM    7  C   UNL     1     -30.173  -4.486 -12.711  1.00  0.00     0.198 C 
BRANCH   7   8
HETATM    8  O   UNL     1     -29.269  -4.476 -11.610  1.00  0.00    -0.398 OA
ATOM      9  HO  UNL     1     -29.165  -5.345 -11.243  1.00  0.00     0.209 HD
ENDBRANCH   7   8
ENDBRANCH   5   7
BRANCH   4  10
HETATM   10  O   UNL     1     -28.792  -6.962 -13.165  1.00  0.00    -0.390 OA
ATOM     11  HO  UNL     1     -27.876  -6.709 -13.155  1.00  0.00     0.210 HD
ENDBRANCH   4  10
BRANCH   3  12
HETATM   12  O   UNL     1     -28.376  -8.012 -15.679  1.00  0.00    -0.390 OA
ATOM     13  HO  UNL     1     -28.394  -8.396 -14.810  1.00  0.00     0.210 HD
ENDBRANCH   3  12
BRANCH   1  14
HETATM   14  O   UNL     1     -26.169  -3.856 -14.862  1.00  0.00    -0.369 OA
ATOM     15  HO  UNL     1     -26.208  -3.407 -14.025  1.00  0.00     0.212 HD
ENDBRANCH   1  14
BRANCH   2  16
HETATM   16  O   UNL     1     -26.650  -5.969 -16.773  1.00  0.00    -0.388 OA
ATOM     17  HO  UNL     1     -26.343  -5.098 -16.994  1.00  0.00     0.210 HD
ENDBRANCH   2  16
TORSDOF 6
ENDMDL
MODEL 20
REMARK VINA RESULT:    -3.766      1.248      3.488
REMARK INTER + INTRA:          -4.770
REMARK INTER:                  -4.554
REMARK INTRA:                  -0.216
REMARK UNBOUND:                -0.234
REMARK  6 active torsions:
REMARK  status: ('A' for Active; 'I' for Inactive)
REMARK    1  A    between atoms: C_1  and  O_7 
REMARK    2  A    between atoms: C_2  and  O_9 
REMARK    3  A    between atoms: C_3  and  O_11 
REMARK    4  A    between atoms: C_4  and  O_13 
REMARK    5  A    between atoms: C_5  and  C_6 
REMARK    6  A    between atoms: C_6  and  O_16 
ROOT
HETATM    1  C   UNL     1     -27.995  -3.861 -17.607  1.00  0.00     0.288 C 
HETATM    2  C   UNL     1     -27.534  -5.309 -17.487  1.00  0.00     0.204 C 
HETATM    3  C   UNL     1     -27.876  -5.898 -16.133  1.00  0.00     0.183 C 
HETATM    4  C   UNL     1     -27.422  -4.936 -15.002  1.00  0.00     0.180 C 
HETATM    5  C   UNL     1     -27.941  -3.538 -15.272  1.00  0.00     0.179 C 
HETATM    6  O   UNL     1     -27.480  -3.085 -16.549  1.00  0.00    -0.349 OA
ENDROOT
BRANCH   5   7
HETATM    7  C   UNL     1     -27.474  -2.505 -14.270  1.00  0.00     0.198 C 
BRANCH   7   8
HETATM    8  O   UNL     1     -26.949  -3.123 -13.099  1.00  0.00    -0.398 OA
ATOM      9  HO  UNL     1     -27.150  -2.613 -12.323  1.00  0.00     0.209 HD
ENDBRANCH   7   8
ENDBRANCH   5   7
BRANCH   4  10
HETATM   10  O   UNL     1     -26.011  -4.878 -14.958  1.00  0.00    -0.390 OA
ATOM     11  HO  UNL     1     -25.676  -5.249 -15.766  1.00  0.00     0.210 HD
ENDBRANCH   4  10
BRANCH   3  12
HETATM   12  O   UNL     1     -27.212  -7.148 -15.959  1.00  0.00    -0.390 OA
ATOM     13  HO  UNL     1     -27.118  -7.313 -15.028  1.00  0.00     0.210 HD
ENDBRANCH   3  12
BRANCH   1  14
HETATM   14  O   UNL     1     -27.523  -3.312 -18.788  1.00  0.00    -0.369 OA
ATOM     15  HO  UNL     1     -27.394  -4.027 -19.400  1.00  0.00     0.212 HD
ENDBRANCH   1  14
BRANCH   2  16
HETATM   16  O   UNL     1     -28.190  -6.105 -18.471  1.00  0.00    -0.388 OA
ATOM     17  HO  UNL     1     -28.738  -5.523 -18.984  1.00  0.00     0.210 HD
ENDBRANCH   2  16
TORSDOF 6
ENDMDL
