REMARK  11 active torsions:
REMARK  status: ('A' for Active; 'I' for Inactive)
REMARK    1  A    between atoms: C_3  and  C_12 
REMARK    2  A    between atoms: C_4  and  C_5 
REMARK    3  A    between atoms: C_4  and  N_18 
REMARK    4  A    between atoms: C_6  and  O_10 
REMARK    5  A    between atoms: C_12  and  O_13 
REMARK    6  A    between atoms: O_13  and  P_14 
REMARK    7  A    between atoms: N_18  and  C_20 
REMARK    8  A    between atoms: C_20  and  C_22 
REMARK    9  A    between atoms: C_20  and  C_21 
REMARK   10  A    between atoms: C_22  and  O_25 
REMARK   11  A    between atoms: O_25  and  N_26 
ROOT
HETATM    1  C   UNK A   0      20.375   6.019  22.670  1.00  0.00     0.098 A 
HETATM    2  C   UNK A   0      18.920   5.322  21.027  1.00  0.00     0.039 A 
HETATM    3  C   UNK A   0      19.725   5.299  23.662  1.00  0.00    -0.008 A 
HETATM    4  C   UNK A   0      18.595   4.544  23.311  1.00  0.00     0.004 A 
HETATM    5  C   UNK A   0      18.211   4.560  21.959  1.00  0.00     0.096 A 
HETATM    6  C   UNK A   0      18.510   5.391  19.586  1.00  0.00     0.071 C 
HETATM    7  N   UNK A   0      20.003   6.000  21.388  1.00  0.00    -0.367 N 
ATOM      8  HN  UNK A   0      20.548   6.504  20.689  1.00  0.00     0.165 HD
ENDROOT
BRANCH   4   9
HETATM    9  C   UNK A   0      17.854   3.707  24.349  1.00  0.00     0.162 C 
BRANCH   9  10
HETATM   10  N   UNK A   1      18.528   2.608  25.093  1.00  0.00    -0.382 N 
ATOM     11  HN  UNK A   1      19.548   2.613  25.075  1.00  0.00     0.160 HD
BRANCH  10  12
HETATM   12  C   UNK A   1      17.926   1.565  25.817  1.00  0.00     0.109 C 
BRANCH  12  13
HETATM   13  C   UNK A   1      16.443   1.386  25.545  1.00  0.00     0.264 C 
BRANCH  13  14
HETATM   14  O   UNK A   1      16.161   1.054  24.167  1.00  0.00    -0.281 OA
BRANCH  14  15
HETATM   15  N   UNK A   1      14.801   1.442  23.791  1.00  0.00    -0.311 N 
ATOM     16  HN2 UNK A   1      14.146   1.890  24.432  1.00  0.00     0.184 HD
ATOM     17  HN1 UNK A   1      14.602   1.208  22.818  1.00  0.00     0.184 HD
ENDBRANCH  14  15
ENDBRANCH  13  14
ENDBRANCH  12  13
BRANCH  12  18
HETATM   18  C   UNK A   1      18.499   0.620  26.749  1.00  0.00     0.224 C 
HETATM   19  O   UNK A   1      17.615   0.251  27.537  1.00  0.00    -0.643 OA
HETATM   20  O   UNK A   1      19.707   0.113  26.869  1.00  0.00    -0.643 OA
ENDBRANCH  12  18
ENDBRANCH  10  12
ENDBRANCH   9  10
ENDBRANCH   4   9
BRANCH   5  21
HETATM   21  O   UNK A   0      17.149   3.829  21.518  1.00  0.00    -0.358 OA
ATOM     22  HO  UNK A   0      16.889   3.840  20.604  1.00  0.00     0.217 HD
ENDBRANCH   5  21
BRANCH   3  23
HETATM   23  C   UNK A   0      20.213   5.364  25.075  1.00  0.00     0.223 C 
BRANCH  23  24
HETATM   24  O   UNK A   0      19.408   6.321  25.825  1.00  0.00    -0.278 OA
BRANCH  24  25
HETATM   25  P   UNK A   0      19.336   6.163  27.409  1.00  0.00     0.422 P 
HETATM   26  O   UNK A   0      18.507   7.389  27.797  1.00  0.00    -0.617 OA
HETATM   27  O   UNK A   0      20.749   6.237  27.879  1.00  0.00    -0.617 OA
HETATM   28  O   UNK A   0      18.593   4.858  27.707  1.00  0.00    -0.617 OA
ENDBRANCH  24  25
ENDBRANCH  23  24
ENDBRANCH   3  23
TORSDOF 11
