MODEL 1
REMARK VINA RESULT:    -9.444      0.000      0.000
REMARK INTER + INTRA:         -11.522
REMARK INTER:                 -11.100
REMARK INTRA:                  -0.422
REMARK UNBOUND:                -0.422
REMARK  3 active torsions:
REMARK  status: ('A' for Active; 'I' for Inactive)
REMARK       I    between atoms: C_1  and  N_13 
REMARK    1  A    between atoms: C_1  and  C_19 
REMARK    2  A    between atoms: C_2  and  N_13 
REMARK    3  A    between atoms: N_20  and  C_27 
ROOT
HETATM    1  C   UNL     1      23.519  11.206 -24.234  1.00  0.00     0.111 A 
HETATM    2  C   UNL     1      23.139  15.019 -26.580  1.00  0.00     0.183 A 
HETATM    3  C   UNL     1      25.155  14.010 -25.982  1.00  0.00     0.132 A 
HETATM    4  C   UNL     1      24.423  12.978 -25.343  1.00  0.00     0.066 A 
HETATM    5  C   UNL     1      24.728  11.744 -24.601  1.00  0.00     0.065 A 
HETATM    6  N   UNL     1      22.525  11.960 -24.716  1.00  0.00    -0.332 N 
HETATM    7  C   UNL     1      23.011  13.042 -25.383  1.00  0.00     0.123 A 
HETATM    8  N   UNL     1      22.415  14.065 -26.013  1.00  0.00    -0.338 N 
ATOM      9  HN  UNL     1      21.397  14.109 -26.056  1.00  0.00     0.168 HD
HETATM   10  N   UNL     1      24.470  15.000 -26.586  1.00  0.00    -0.340 N 
ATOM     11  HN  UNL     1      24.981  15.749 -27.056  1.00  0.00     0.167 HD
HETATM   12  N   UNL     1      26.535  14.024 -26.037  1.00  0.00    -0.082 NA
ENDROOT
BRANCH   5  13
HETATM   13  C   UNL     1      26.050  11.264 -24.190  1.00  0.00     0.259 C 
HETATM   14  O   UNL     1      26.084  10.375 -23.349  1.00  0.00    -0.267 OA
HETATM   15  N   UNL     1      27.164  11.727 -24.789  1.00  0.00    -0.308 N 
ATOM     16  HN  UNL     1      27.057  12.480 -25.469  1.00  0.00     0.170 HD
BRANCH  15  17
HETATM   17  C   UNL     1      28.438  11.259 -24.550  1.00  0.00     0.124 A 
HETATM   18  N   UNL     1      28.765  10.032 -24.914  1.00  0.00    -0.285 N 
HETATM   19  N   UNL     1      30.068   9.807 -24.496  1.00  0.00    -0.304 N 
ATOM     20  HN  UNL     1      28.168   9.370 -25.411  1.00  0.00     0.188 HD
HETATM   21  C   UNL     1      30.498  10.854 -23.846  1.00  0.00     0.025 A 
ATOM     22  HN  UNL     1      30.606   8.957 -24.668  1.00  0.00     0.186 HD
HETATM   23  C   UNL     1      31.857  10.994 -23.215  1.00  0.00     0.070 C 
HETATM   24  C   UNL     1      29.478  11.796 -23.835  1.00  0.00     0.076 A 
ENDBRANCH  15  17
ENDBRANCH   5  13
BRANCH   6  25
HETATM   25  C   UNL     1      21.101  11.689 -24.573  1.00  0.00     0.035 A 
HETATM   26  C   UNL     1      20.330  12.769 -23.810  1.00  0.00     0.039 C 
HETATM   27  C   UNL     1      20.740  10.223 -24.353  1.00  0.00     0.033 A 
HETATM   28  C   UNL     1      20.365  10.910 -25.664  1.00  0.00     0.033 A 
ENDBRANCH   6  25
TORSDOF 3
ENDMDL
MODEL 2
REMARK VINA RESULT:    -9.287      2.055      6.743
REMARK INTER + INTRA:         -11.338
REMARK INTER:                 -10.742
REMARK INTRA:                  -0.596
REMARK UNBOUND:                -0.422
REMARK  3 active torsions:
REMARK  status: ('A' for Active; 'I' for Inactive)
REMARK       I    between atoms: C_1  and  N_13 
REMARK    1  A    between atoms: C_1  and  C_19 
REMARK    2  A    between atoms: C_2  and  N_13 
REMARK    3  A    between atoms: N_20  and  C_27 
ROOT
HETATM    1  C   UNL     1      26.126  10.389 -24.429  1.00  0.00     0.111 A 
HETATM    2  C   UNL     1      25.101  14.443 -26.076  1.00  0.00     0.183 A 
HETATM    3  C   UNL     1      23.551  12.877 -25.309  1.00  0.00     0.132 A 
HETATM    4  C   UNL     1      24.621  12.000 -25.004  1.00  0.00     0.066 A 
HETATM    5  C   UNL     1      24.778  10.653 -24.431  1.00  0.00     0.065 A 
HETATM    6  N   UNL     1      26.794  11.450 -24.896  1.00  0.00    -0.332 N 
HETATM    7  C   UNL     1      25.939  12.443 -25.264  1.00  0.00     0.123 A 
HETATM    8  N   UNL     1      26.132  13.663 -25.787  1.00  0.00    -0.338 N 
ATOM      9  HN  UNL     1      27.080  13.993 -25.964  1.00  0.00     0.168 HD
HETATM   10  N   UNL     1      23.841  14.082 -25.837  1.00  0.00    -0.340 N 
ATOM     11  HN  UNL     1      23.083  14.729 -26.058  1.00  0.00     0.167 HD
HETATM   12  N   UNL     1      22.229  12.560 -25.059  1.00  0.00    -0.082 NA
ENDROOT
BRANCH   5  13
HETATM   13  C   UNL     1      23.711   9.711 -24.083  1.00  0.00     0.259 C 
HETATM   14  O   UNL     1      23.946   8.907 -23.190  1.00  0.00    -0.267 OA
HETATM   15  N   UNL     1      22.500   9.801 -24.666  1.00  0.00    -0.308 N 
ATOM     16  HN  UNL     1      22.385  10.485 -25.413  1.00  0.00     0.170 HD
BRANCH  15  17
HETATM   17  C   UNL     1      21.406   9.036 -24.327  1.00  0.00     0.124 A 
HETATM   18  N   UNL     1      21.509   7.719 -24.297  1.00  0.00    -0.285 N 
HETATM   19  N   UNL     1      20.254   7.210 -23.995  1.00  0.00    -0.304 N 
ATOM     20  HN  UNL     1      22.356   7.176 -24.465  1.00  0.00     0.188 HD
HETATM   21  C   UNL     1      19.402   8.194 -23.900  1.00  0.00     0.025 A 
ATOM     22  HN  UNL     1      20.032   6.222 -23.868  1.00  0.00     0.186 HD
HETATM   23  C   UNL     1      17.934   8.053 -23.606  1.00  0.00     0.070 C 
HETATM   24  C   UNL     1      20.092   9.377 -24.131  1.00  0.00     0.076 A 
ENDBRANCH  15  17
ENDBRANCH   5  13
BRANCH   6  25
HETATM   25  C   UNL     1      28.241  11.569 -25.004  1.00  0.00     0.035 A 
HETATM   26  C   UNL     1      28.746  11.813 -26.428  1.00  0.00     0.039 C 
HETATM   27  C   UNL     1      29.037  10.650 -24.082  1.00  0.00     0.033 A 
HETATM   28  C   UNL     1      29.042  12.157 -23.843  1.00  0.00     0.033 A 
ENDBRANCH   6  25
TORSDOF 3
ENDMDL
MODEL 3
REMARK VINA RESULT:    -9.203      2.945      7.819
REMARK INTER + INTRA:         -11.240
REMARK INTER:                 -10.726
REMARK INTRA:                  -0.514
REMARK UNBOUND:                -0.422
REMARK  3 active torsions:
REMARK  status: ('A' for Active; 'I' for Inactive)
REMARK       I    between atoms: C_1  and  N_13 
REMARK    1  A    between atoms: C_1  and  C_19 
REMARK    2  A    between atoms: C_2  and  N_13 
REMARK    3  A    between atoms: N_20  and  C_27 
ROOT
HETATM    1  C   UNL     1      25.472  14.051 -26.082  1.00  0.00     0.111 A 
HETATM    2  C   UNL     1      23.237  10.839 -23.873  1.00  0.00     0.183 A 
HETATM    3  C   UNL     1      22.250  12.503 -25.176  1.00  0.00     0.132 A 
HETATM    4  C   UNL     1      23.541  13.012 -25.464  1.00  0.00     0.066 A 
HETATM    5  C   UNL     1      24.111  14.116 -26.253  1.00  0.00     0.065 A 
HETATM    6  N   UNL     1      25.780  13.000 -25.313  1.00  0.00    -0.332 N 
HETATM    7  C   UNL     1      24.658  12.346 -24.907  1.00  0.00     0.123 A 
HETATM    8  N   UNL     1      24.463  11.269 -24.132  1.00  0.00    -0.338 N 
ATOM      9  HN  UNL     1      25.265  10.777 -23.739  1.00  0.00     0.168 HD
HETATM   10  N   UNL     1      22.152  11.418 -24.384  1.00  0.00    -0.340 N 
ATOM     11  HN  UNL     1      21.231  11.034 -24.171  1.00  0.00     0.167 HD
HETATM   12  N   UNL     1      21.096  13.053 -25.700  1.00  0.00    -0.082 NA
ENDROOT
BRANCH   5  13
HETATM   13  C   UNL     1      23.376  15.175 -26.951  1.00  0.00     0.259 C 
HETATM   14  O   UNL     1      23.820  15.544 -28.030  1.00  0.00    -0.267 OA
HETATM   15  N   UNL     1      22.214  15.643 -26.455  1.00  0.00    -0.308 N 
ATOM     16  HN  UNL     1      21.916  15.299 -25.543  1.00  0.00     0.170 HD
BRANCH  15  17
HETATM   17  C   UNL     1      21.399  16.553 -27.091  1.00  0.00     0.124 A 
HETATM   18  N   UNL     1      21.933  17.518 -27.818  1.00  0.00    -0.285 N 
HETATM   19  N   UNL     1      20.896  18.316 -28.279  1.00  0.00    -0.304 N 
ATOM     20  HN  UNL     1      22.927  17.652 -28.006  1.00  0.00     0.188 HD
HETATM   21  C   UNL     1      19.768  17.875 -27.796  1.00  0.00     0.025 A 
ATOM     22  HN  UNL     1      21.000  19.121 -28.897  1.00  0.00     0.186 HD
HETATM   23  C   UNL     1      18.414  18.483 -28.045  1.00  0.00     0.070 C 
HETATM   24  C   UNL     1      20.046  16.765 -27.010  1.00  0.00     0.076 A 
ENDBRANCH  15  17
ENDBRANCH   5  13
BRANCH   6  25
HETATM   25  C   UNL     1      27.123  12.576 -24.945  1.00  0.00     0.035 A 
HETATM   26  C   UNL     1      27.710  13.325 -23.746  1.00  0.00     0.039 C 
HETATM   27  C   UNL     1      28.034  12.219 -26.115  1.00  0.00     0.033 A 
HETATM   28  C   UNL     1      27.548  11.125 -25.169  1.00  0.00     0.033 A 
ENDBRANCH   6  25
TORSDOF 3
ENDMDL
MODEL 4
REMARK VINA RESULT:    -9.127      1.551      1.754
REMARK INTER + INTRA:         -11.150
REMARK INTER:                 -10.868
REMARK INTRA:                  -0.282
REMARK UNBOUND:                -0.422
REMARK  3 active torsions:
REMARK  status: ('A' for Active; 'I' for Inactive)
REMARK       I    between atoms: C_1  and  N_13 
REMARK    1  A    between atoms: C_1  and  C_19 
REMARK    2  A    between atoms: C_2  and  N_13 
REMARK    3  A    between atoms: N_20  and  C_27 
ROOT
HETATM    1  C   UNL     1      23.786  12.724 -24.960  1.00  0.00     0.111 A 
HETATM    2  C   UNL     1      22.265  15.856 -27.801  1.00  0.00     0.183 A 
HETATM    3  C   UNL     1      24.514  15.353 -27.440  1.00  0.00     0.132 A 
HETATM    4  C   UNL     1      24.120  14.362 -26.507  1.00  0.00     0.066 A 
HETATM    5  C   UNL     1      24.785  13.376 -25.639  1.00  0.00     0.065 A 
HETATM    6  N   UNL     1      22.594  13.181 -25.362  1.00  0.00    -0.332 N 
HETATM    7  C   UNL     1      22.736  14.172 -26.284  1.00  0.00     0.123 A 
HETATM    8  N   UNL     1      21.852  14.927 -26.952  1.00  0.00    -0.338 N 
ATOM      9  HN  UNL     1      20.853  14.785 -26.805  1.00  0.00     0.168 HD
HETATM   10  N   UNL     1      23.555  16.067 -28.060  1.00  0.00    -0.340 N 
ATOM     11  HN  UNL     1      23.820  16.780 -28.740  1.00  0.00     0.167 HD
HETATM   12  N   UNL     1      25.836  15.593 -27.762  1.00  0.00    -0.082 NA
ENDROOT
BRANCH   5  13
HETATM   13  C   UNL     1      26.225  13.226 -25.415  1.00  0.00     0.259 C 
HETATM   14  O   UNL     1      26.868  14.247 -25.210  1.00  0.00    -0.267 OA
HETATM   15  N   UNL     1      26.784  12.002 -25.348  1.00  0.00    -0.308 N 
ATOM     16  HN  UNL     1      26.188  11.198 -25.546  1.00  0.00     0.170 HD
BRANCH  15  17
HETATM   17  C   UNL     1      28.102  11.756 -25.033  1.00  0.00     0.124 A 
HETATM   18  N   UNL     1      28.959  11.444 -25.989  1.00  0.00    -0.285 N 
HETATM   19  N   UNL     1      30.182  11.186 -25.386  1.00  0.00    -0.304 N 
ATOM     20  HN  UNL     1      28.759  11.401 -26.988  1.00  0.00     0.188 HD
HETATM   21  C   UNL     1      30.051  11.286 -24.091  1.00  0.00     0.025 A 
ATOM     22  HN  UNL     1      31.046  10.955 -25.876  1.00  0.00     0.186 HD
HETATM   23  C   UNL     1      31.145  11.060 -23.083  1.00  0.00     0.070 C 
HETATM   24  C   UNL     1      28.731  11.624 -23.821  1.00  0.00     0.076 A 
ENDBRANCH  15  17
ENDBRANCH   5  13
BRANCH   6  25
HETATM   25  C   UNL     1      21.297  12.703 -24.904  1.00  0.00     0.035 A 
HETATM   26  C   UNL     1      20.441  13.771 -24.219  1.00  0.00     0.039 C 
HETATM   27  C   UNL     1      21.289  11.280 -24.355  1.00  0.00     0.033 A 
HETATM   28  C   UNL     1      20.585  11.591 -25.673  1.00  0.00     0.033 A 
ENDBRANCH   6  25
TORSDOF 3
ENDMDL
MODEL 5
REMARK VINA RESULT:    -9.126      2.146      6.718
REMARK INTER + INTRA:         -11.149
REMARK INTER:                 -10.822
REMARK INTRA:                  -0.326
REMARK UNBOUND:                -0.422
REMARK  3 active torsions:
REMARK  status: ('A' for Active; 'I' for Inactive)
REMARK       I    between atoms: C_1  and  N_13 
REMARK    1  A    between atoms: C_1  and  C_19 
REMARK    2  A    between atoms: C_2  and  N_13 
REMARK    3  A    between atoms: N_20  and  C_27 
ROOT
HETATM    1  C   UNL     1      25.738  10.705 -24.344  1.00  0.00     0.111 A 
HETATM    2  C   UNL     1      24.447  14.621 -26.131  1.00  0.00     0.183 A 
HETATM    3  C   UNL     1      23.003  12.944 -25.396  1.00  0.00     0.132 A 
HETATM    4  C   UNL     1      24.129  12.168 -25.023  1.00  0.00     0.066 A 
HETATM    5  C   UNL     1      24.374  10.852 -24.411  1.00  0.00     0.065 A 
HETATM    6  N   UNL     1      26.334  11.810 -24.808  1.00  0.00    -0.332 N 
HETATM    7  C   UNL     1      25.415  12.718 -25.236  1.00  0.00     0.123 A 
HETATM    8  N   UNL     1      25.527  13.939 -25.780  1.00  0.00    -0.338 N 
ATOM      9  HN  UNL     1      26.451  14.346 -25.923  1.00  0.00     0.168 HD
HETATM   10  N   UNL     1      23.213  14.158 -25.939  1.00  0.00    -0.340 N 
ATOM     11  HN  UNL     1      22.414  14.733 -26.208  1.00  0.00     0.167 HD
HETATM   12  N   UNL     1      21.703  12.519 -25.195  1.00  0.00    -0.082 NA
ENDROOT
BRANCH   5  13
HETATM   13  C   UNL     1      23.377   9.829 -24.087  1.00  0.00     0.259 C 
HETATM   14  O   UNL     1      23.701   8.970 -23.277  1.00  0.00    -0.267 OA
HETATM   15  N   UNL     1      22.131   9.900 -24.597  1.00  0.00    -0.308 N 
ATOM     16  HN  UNL     1      21.940  10.635 -25.278  1.00  0.00     0.170 HD
BRANCH  15  17
HETATM   17  C   UNL     1      21.097   9.053 -24.265  1.00  0.00     0.124 A 
HETATM   18  N   UNL     1      21.309   7.750 -24.205  1.00  0.00    -0.285 N 
HETATM   19  N   UNL     1      20.095   7.143 -23.920  1.00  0.00    -0.304 N 
ATOM     20  HN  UNL     1      22.202   7.277 -24.342  1.00  0.00     0.188 HD
HETATM   21  C   UNL     1      19.162   8.053 -23.865  1.00  0.00     0.025 A 
ATOM     22  HN  UNL     1      19.953   6.143 -23.777  1.00  0.00     0.186 HD
HETATM   23  C   UNL     1      17.704   7.795 -23.600  1.00  0.00     0.070 C 
HETATM   24  C   UNL     1      19.755   9.286 -24.105  1.00  0.00     0.076 A 
ENDBRANCH  15  17
ENDBRANCH   5  13
BRANCH   6  25
HETATM   25  C   UNL     1      27.769  12.050 -24.855  1.00  0.00     0.035 A 
HETATM   26  C   UNL     1      28.273  13.045 -23.807  1.00  0.00     0.039 C 
HETATM   27  C   UNL     1      28.375  12.075 -26.255  1.00  0.00     0.033 A 
HETATM   28  C   UNL     1      28.710  10.931 -25.301  1.00  0.00     0.033 A 
ENDBRANCH   6  25
TORSDOF 3
ENDMDL
MODEL 6
REMARK VINA RESULT:    -9.085      1.865      3.651
REMARK INTER + INTRA:         -11.101
REMARK INTER:                 -10.506
REMARK INTRA:                  -0.595
REMARK UNBOUND:                -0.422
REMARK  3 active torsions:
REMARK  status: ('A' for Active; 'I' for Inactive)
REMARK       I    between atoms: C_1  and  N_13 
REMARK    1  A    between atoms: C_1  and  C_19 
REMARK    2  A    between atoms: C_2  and  N_13 
REMARK    3  A    between atoms: N_20  and  C_27 
ROOT
HETATM    1  C   UNL     1      23.121  12.235 -24.481  1.00  0.00     0.111 A 
HETATM    2  C   UNL     1      20.249   8.779 -24.524  1.00  0.00     0.183 A 
HETATM    3  C   UNL     1      22.482   8.657 -23.861  1.00  0.00     0.132 A 
HETATM    4  C   UNL     1      22.614  10.042 -24.128  1.00  0.00     0.066 A 
HETATM    5  C   UNL     1      23.675  11.059 -24.040  1.00  0.00     0.065 A 
HETATM    6  N   UNL     1      21.831  12.041 -24.779  1.00  0.00    -0.332 N 
HETATM    7  C   UNL     1      21.476  10.741 -24.594  1.00  0.00     0.123 A 
HETATM    8  N   UNL     1      20.322  10.079 -24.768  1.00  0.00    -0.338 N 
ATOM      9  HN  UNL     1      19.495  10.581 -25.090  1.00  0.00     0.168 HD
HETATM   10  N   UNL     1      21.285   8.076 -24.070  1.00  0.00    -0.340 N 
ATOM     11  HN  UNL     1      21.169   7.080 -23.877  1.00  0.00     0.167 HD
HETATM   12  N   UNL     1      23.518   7.889 -23.366  1.00  0.00    -0.082 NA
ENDROOT
BRANCH   5  13
HETATM   13  C   UNL     1      25.085  10.837 -23.708  1.00  0.00     0.259 C 
HETATM   14  O   UNL     1      25.327  10.278 -22.647  1.00  0.00    -0.267 OA
HETATM   15  N   UNL     1      26.055  11.157 -24.588  1.00  0.00    -0.308 N 
ATOM     16  HN  UNL     1      25.777  11.635 -25.445  1.00  0.00     0.170 HD
BRANCH  15  17
HETATM   17  C   UNL     1      27.394  10.886 -24.414  1.00  0.00     0.124 A 
HETATM   18  N   UNL     1      27.808   9.633 -24.351  1.00  0.00    -0.285 N 
HETATM   19  N   UNL     1      29.173   9.656 -24.107  1.00  0.00    -0.304 N 
ATOM     20  HN  UNL     1      27.229   8.800 -24.462  1.00  0.00     0.188 HD
HETATM   21  C   UNL     1      29.564  10.894 -23.971  1.00  0.00     0.025 A 
ATOM     22  HN  UNL     1      29.777   8.836 -24.044  1.00  0.00     0.186 HD
HETATM   23  C   UNL     1      30.971  11.338 -23.676  1.00  0.00     0.070 C 
HETATM   24  C   UNL     1      28.453  11.711 -24.134  1.00  0.00     0.076 A 
ENDBRANCH  15  17
ENDBRANCH   5  13
BRANCH   6  25
HETATM   25  C   UNL     1      20.898  13.062 -25.236  1.00  0.00     0.035 A 
HETATM   26  C   UNL     1      20.505  12.938 -26.710  1.00  0.00     0.039 C 
HETATM   27  C   UNL     1      21.112  14.449 -24.639  1.00  0.00     0.033 A 
HETATM   28  C   UNL     1      19.873  13.642 -24.261  1.00  0.00     0.033 A 
ENDBRANCH   6  25
TORSDOF 3
ENDMDL
MODEL 7
REMARK VINA RESULT:    -9.042      1.645      3.265
REMARK INTER + INTRA:         -11.051
REMARK INTER:                 -10.460
REMARK INTRA:                  -0.590
REMARK UNBOUND:                -0.422
REMARK  3 active torsions:
REMARK  status: ('A' for Active; 'I' for Inactive)
REMARK       I    between atoms: C_1  and  N_13 
REMARK    1  A    between atoms: C_1  and  C_19 
REMARK    2  A    between atoms: C_2  and  N_13 
REMARK    3  A    between atoms: N_20  and  C_27 
ROOT
HETATM    1  C   UNL     1      24.211  12.971 -25.360  1.00  0.00     0.111 A 
HETATM    2  C   UNL     1      21.627   9.565 -23.978  1.00  0.00     0.183 A 
HETATM    3  C   UNL     1      23.958   9.532 -24.053  1.00  0.00     0.132 A 
HETATM    4  C   UNL     1      23.938  10.860 -24.547  1.00  0.00     0.066 A 
HETATM    5  C   UNL     1      24.927  11.872 -24.953  1.00  0.00     0.065 A 
HETATM    6  N   UNL     1      22.903  12.742 -25.198  1.00  0.00    -0.332 N 
HETATM    7  C   UNL     1      22.682  11.486 -24.722  1.00  0.00     0.123 A 
HETATM    8  N   UNL     1      21.563  10.812 -24.419  1.00  0.00    -0.338 N 
ATOM      9  HN  UNL     1      20.655  11.263 -24.529  1.00  0.00     0.168 HD
HETATM   10  N   UNL     1      22.783   8.933 -23.781  1.00  0.00    -0.340 N 
ATOM     11  HN  UNL     1      22.778   7.979 -23.419  1.00  0.00     0.167 HD
HETATM   12  N   UNL     1      25.130   8.843 -23.809  1.00  0.00    -0.082 NA
ENDROOT
BRANCH   5  13
HETATM   13  C   UNL     1      26.378  11.696 -25.061  1.00  0.00     0.259 C 
HETATM   14  O   UNL     1      26.947  12.290 -25.967  1.00  0.00    -0.267 OA
HETATM   15  N   UNL     1      27.052  10.982 -24.138  1.00  0.00    -0.308 N 
ATOM     16  HN  UNL     1      26.508  10.502 -23.421  1.00  0.00     0.170 HD
BRANCH  15  17
HETATM   17  C   UNL     1      28.423  10.853 -24.091  1.00  0.00     0.124 A 
HETATM   18  N   UNL     1      28.986   9.706 -24.428  1.00  0.00    -0.285 N 
HETATM   19  N   UNL     1      30.352   9.837 -24.226  1.00  0.00    -0.304 N 
ATOM     20  HN  UNL     1      28.504   8.875 -24.773  1.00  0.00     0.188 HD
HETATM   21  C   UNL     1      30.601  11.016 -23.727  1.00  0.00     0.025 A 
ATOM     22  HN  UNL     1      31.051   9.124 -24.434  1.00  0.00     0.186 HD
HETATM   23  C   UNL     1      31.962  11.535 -23.348  1.00  0.00     0.070 C 
HETATM   24  C   UNL     1      29.393  11.689 -23.601  1.00  0.00     0.076 A 
ENDBRANCH  15  17
ENDBRANCH   5  13
BRANCH   6  25
HETATM   25  C   UNL     1      21.830  13.686 -25.476  1.00  0.00     0.035 A 
HETATM   26  C   UNL     1      20.864  13.232 -26.573  1.00  0.00     0.039 C 
HETATM   27  C   UNL     1      22.225  15.157 -25.397  1.00  0.00     0.033 A 
HETATM   28  C   UNL     1      21.285  14.565 -24.351  1.00  0.00     0.033 A 
ENDBRANCH   6  25
TORSDOF 3
ENDMDL
MODEL 8
REMARK VINA RESULT:    -8.845      2.314      6.688
REMARK INTER + INTRA:         -10.819
REMARK INTER:                 -10.321
REMARK INTRA:                  -0.497
REMARK UNBOUND:                -0.422
REMARK  3 active torsions:
REMARK  status: ('A' for Active; 'I' for Inactive)
REMARK       I    between atoms: C_1  and  N_13 
REMARK    1  A    between atoms: C_1  and  C_19 
REMARK    2  A    between atoms: C_2  and  N_13 
REMARK    3  A    between atoms: N_20  and  C_27 
ROOT
HETATM    1  C   UNL     1      24.911  11.777 -24.486  1.00  0.00     0.111 A 
HETATM    2  C   UNL     1      24.897  15.440 -27.089  1.00  0.00     0.183 A 
HETATM    3  C   UNL     1      22.992  14.348 -26.303  1.00  0.00     0.132 A 
HETATM    4  C   UNL     1      23.827  13.416 -25.638  1.00  0.00     0.066 A 
HETATM    5  C   UNL     1      23.650  12.233 -24.781  1.00  0.00     0.065 A 
HETATM    6  N   UNL     1      25.824  12.587 -25.037  1.00  0.00    -0.332 N 
HETATM    7  C   UNL     1      25.228  13.583 -25.747  1.00  0.00     0.123 A 
HETATM    8  N   UNL     1      25.715  14.603 -26.468  1.00  0.00    -0.338 N 
ATOM      9  HN  UNL     1      26.724  14.736 -26.538  1.00  0.00     0.168 HD
HETATM   10  N   UNL     1      23.572  15.339 -27.008  1.00  0.00    -0.340 N 
ATOM     11  HN  UNL     1      22.986  16.023 -27.488  1.00  0.00     0.167 HD
HETATM   12  N   UNL     1      21.613  14.301 -26.230  1.00  0.00    -0.082 NA
ENDROOT
BRANCH   5  13
HETATM   13  C   UNL     1      22.388  11.569 -24.440  1.00  0.00     0.259 C 
HETATM   14  O   UNL     1      21.562  12.226 -23.821  1.00  0.00    -0.267 OA
HETATM   15  N   UNL     1      22.129  10.322 -24.879  1.00  0.00    -0.308 N 
ATOM     16  HN  UNL     1      22.873   9.832 -25.376  1.00  0.00     0.170 HD
BRANCH  15  17
HETATM   17  C   UNL     1      20.934   9.660 -24.706  1.00  0.00     0.124 A 
HETATM   18  N   UNL     1      19.845  10.101 -25.312  1.00  0.00    -0.285 N 
HETATM   19  N   UNL     1      18.790   9.296 -24.910  1.00  0.00    -0.304 N 
ATOM     20  HN  UNL     1      19.791  10.890 -25.956  1.00  0.00     0.188 HD
HETATM   21  C   UNL     1      19.221   8.424 -24.041  1.00  0.00     0.025 A 
ATOM     22  HN  UNL     1      17.828   9.373 -25.242  1.00  0.00     0.186 HD
HETATM   23  C   UNL     1      18.377   7.386 -23.353  1.00  0.00     0.070 C 
HETATM   24  C   UNL     1      20.581   8.639 -23.861  1.00  0.00     0.076 A 
ENDBRANCH  15  17
ENDBRANCH   5  13
BRANCH   6  25
HETATM   25  C   UNL     1      27.268  12.457 -24.909  1.00  0.00     0.035 A 
HETATM   26  C   UNL     1      27.889  13.375 -23.852  1.00  0.00     0.039 C 
HETATM   27  C   UNL     1      28.016  12.219 -26.217  1.00  0.00     0.033 A 
HETATM   28  C   UNL     1      27.935  11.108 -25.174  1.00  0.00     0.033 A 
ENDBRANCH   6  25
TORSDOF 3
ENDMDL
MODEL 9
REMARK VINA RESULT:    -8.775      2.080      6.961
REMARK INTER + INTRA:         -10.736
REMARK INTER:                  -9.994
REMARK INTRA:                  -0.742
REMARK UNBOUND:                -0.422
REMARK  3 active torsions:
REMARK  status: ('A' for Active; 'I' for Inactive)
REMARK       I    between atoms: C_1  and  N_13 
REMARK    1  A    between atoms: C_1  and  C_19 
REMARK    2  A    between atoms: C_2  and  N_13 
REMARK    3  A    between atoms: N_20  and  C_27 
ROOT
HETATM    1  C   UNL     1      25.098  11.175 -24.666  1.00  0.00     0.111 A 
HETATM    2  C   UNL     1      24.657  15.231 -26.550  1.00  0.00     0.183 A 
HETATM    3  C   UNL     1      22.889  13.878 -25.853  1.00  0.00     0.132 A 
HETATM    4  C   UNL     1      23.829  12.907 -25.426  1.00  0.00     0.066 A 
HETATM    5  C   UNL     1      23.792  11.581 -24.789  1.00  0.00     0.065 A 
HETATM    6  N   UNL     1      25.913  12.135 -25.118  1.00  0.00    -0.332 N 
HETATM    7  C   UNL     1      25.204  13.194 -25.594  1.00  0.00     0.123 A 
HETATM    8  N   UNL     1      25.570  14.360 -26.147  1.00  0.00    -0.338 N 
ATOM      9  HN  UNL     1      26.560  14.578 -26.257  1.00  0.00     0.168 HD
HETATM   10  N   UNL     1      23.350  15.018 -26.402  1.00  0.00    -0.340 N 
ATOM     11  HN  UNL     1      22.688  15.731 -26.709  1.00  0.00     0.167 HD
HETATM   12  N   UNL     1      21.525  13.716 -25.700  1.00  0.00    -0.082 NA
ENDROOT
BRANCH   5  13
HETATM   13  C   UNL     1      22.604  10.776 -24.493  1.00  0.00     0.259 C 
HETATM   14  O   UNL     1      22.624  10.106 -23.469  1.00  0.00    -0.267 OA
HETATM   15  N   UNL     1      21.510  10.854 -25.277  1.00  0.00    -0.308 N 
ATOM     16  HN  UNL     1      21.574  11.421 -26.122  1.00  0.00     0.170 HD
BRANCH  15  17
HETATM   17  C   UNL     1      20.312  10.224 -25.020  1.00  0.00     0.124 A 
HETATM   18  N   UNL     1      20.307   8.979 -24.577  1.00  0.00    -0.285 N 
HETATM   19  N   UNL     1      18.982   8.581 -24.471  1.00  0.00    -0.304 N 
ATOM     20  HN  UNL     1      21.126   8.414 -24.355  1.00  0.00     0.188 HD
HETATM   21  C   UNL     1      18.209   9.544 -24.891  1.00  0.00     0.025 A 
ATOM     22  HN  UNL     1      18.663   7.678 -24.120  1.00  0.00     0.186 HD
HETATM   23  C   UNL     1      16.707   9.493 -24.955  1.00  0.00     0.070 C 
HETATM   24  C   UNL     1      19.020  10.604 -25.276  1.00  0.00     0.076 A 
ENDBRANCH  15  17
ENDBRANCH   5  13
BRANCH   6  25
HETATM   25  C   UNL     1      27.368  12.093 -25.110  1.00  0.00     0.035 A 
HETATM   26  C   UNL     1      28.004  12.143 -26.502  1.00  0.00     0.039 C 
HETATM   27  C   UNL     1      27.985  11.192 -24.045  1.00  0.00     0.033 A 
HETATM   28  C   UNL     1      28.139  12.707 -23.942  1.00  0.00     0.033 A 
ENDBRANCH   6  25
TORSDOF 3
ENDMDL
MODEL 10
REMARK VINA RESULT:    -8.681      1.264      1.432
REMARK INTER + INTRA:         -10.626
REMARK INTER:                 -10.101
REMARK INTRA:                  -0.525
REMARK UNBOUND:                -0.422
REMARK  3 active torsions:
REMARK  status: ('A' for Active; 'I' for Inactive)
REMARK       I    between atoms: C_1  and  N_13 
REMARK    1  A    between atoms: C_1  and  C_19 
REMARK    2  A    between atoms: C_2  and  N_13 
REMARK    3  A    between atoms: N_20  and  C_27 
ROOT
HETATM    1  C   UNL     1      22.297  10.643 -24.477  1.00  0.00     0.111 A 
HETATM    2  C   UNL     1      21.778  14.897 -25.828  1.00  0.00     0.183 A 
HETATM    3  C   UNL     1      23.813  13.760 -25.735  1.00  0.00     0.132 A 
HETATM    4  C   UNL     1      23.126  12.615 -25.260  1.00  0.00     0.066 A 
HETATM    5  C   UNL     1      23.472  11.241 -24.862  1.00  0.00     0.065 A 
HETATM    6  N   UNL     1      21.280  11.496 -24.646  1.00  0.00    -0.332 N 
HETATM    7  C   UNL     1      21.722  12.699 -25.105  1.00  0.00     0.123 A 
HETATM    8  N   UNL     1      21.094  13.844 -25.406  1.00  0.00    -0.338 N 
ATOM      9  HN  UNL     1      20.080  13.906 -25.310  1.00  0.00     0.168 HD
HETATM   10  N   UNL     1      23.098  14.869 -26.006  1.00  0.00    -0.340 N 
ATOM     11  HN  UNL     1      23.575  15.701 -26.355  1.00  0.00     0.167 HD
HETATM   12  N   UNL     1      25.176  13.775 -25.959  1.00  0.00    -0.082 NA
ENDROOT
BRANCH   5  13
HETATM   13  C   UNL     1      24.815  10.668 -24.741  1.00  0.00     0.259 C 
HETATM   14  O   UNL     1      24.974   9.526 -25.150  1.00  0.00    -0.267 OA
HETATM   15  N   UNL     1      25.839  11.414 -24.283  1.00  0.00    -0.308 N 
ATOM     16  HN  UNL     1      25.627  12.353 -23.945  1.00  0.00     0.170 HD
BRANCH  15  17
HETATM   17  C   UNL     1      27.153  11.002 -24.237  1.00  0.00     0.124 A 
HETATM   18  N   UNL     1      27.434   9.718 -24.101  1.00  0.00    -0.285 N 
HETATM   19  N   UNL     1      28.813   9.599 -24.017  1.00  0.00    -0.304 N 
ATOM     20  HN  UNL     1      26.759   8.953 -24.064  1.00  0.00     0.188 HD
HETATM   21  C   UNL     1      29.349  10.789 -24.047  1.00  0.00     0.025 A 
ATOM     22  HN  UNL     1      29.328   8.721 -23.944  1.00  0.00     0.186 HD
HETATM   23  C   UNL     1      30.821  11.086 -23.958  1.00  0.00     0.070 C 
HETATM   24  C   UNL     1      28.321  11.716 -24.160  1.00  0.00     0.076 A 
ENDBRANCH  15  17
ENDBRANCH   5  13
BRANCH   6  25
HETATM   25  C   UNL     1      19.875  11.212 -24.390  1.00  0.00     0.035 A 
HETATM   26  C   UNL     1      19.186  12.228 -23.477  1.00  0.00     0.039 C 
HETATM   27  C   UNL     1      19.529   9.733 -24.250  1.00  0.00     0.033 A 
HETATM   28  C   UNL     1      19.036  10.517 -25.463  1.00  0.00     0.033 A 
ENDBRANCH   6  25
TORSDOF 3
ENDMDL
MODEL 11
REMARK VINA RESULT:    -8.654      2.775      7.051
REMARK INTER + INTRA:         -10.594
REMARK INTER:                 -10.055
REMARK INTRA:                  -0.539
REMARK UNBOUND:                -0.422
REMARK  3 active torsions:
REMARK  status: ('A' for Active; 'I' for Inactive)
REMARK       I    between atoms: C_1  and  N_13 
REMARK    1  A    between atoms: C_1  and  C_19 
REMARK    2  A    between atoms: C_2  and  N_13 
REMARK    3  A    between atoms: N_20  and  C_27 
ROOT
HETATM    1  C   UNL     1      22.503  11.654 -24.332  1.00  0.00     0.111 A 
HETATM    2  C   UNL     1      26.710  12.175 -25.823  1.00  0.00     0.183 A 
HETATM    3  C   UNL     1      25.068  13.832 -25.839  1.00  0.00     0.132 A 
HETATM    4  C   UNL     1      24.164  12.912 -25.253  1.00  0.00     0.066 A 
HETATM    5  C   UNL     1      22.764  12.918 -24.801  1.00  0.00     0.065 A 
HETATM    6  N   UNL     1      23.610  10.906 -24.413  1.00  0.00    -0.332 N 
HETATM    7  C   UNL     1      24.635  11.609 -24.966  1.00  0.00     0.123 A 
HETATM    8  N   UNL     1      25.905  11.289 -25.257  1.00  0.00    -0.338 N 
ATOM      9  HN  UNL     1      26.253  10.355 -25.039  1.00  0.00     0.168 HD
HETATM   10  N   UNL     1      26.324  13.419 -26.100  1.00  0.00    -0.340 N 
ATOM     11  HN  UNL     1      26.990  14.070 -26.517  1.00  0.00     0.167 HD
HETATM   12  N   UNL     1      24.724  15.140 -26.124  1.00  0.00    -0.082 NA
ENDROOT
BRANCH   5  13
HETATM   13  C   UNL     1      21.788  13.999 -24.965  1.00  0.00     0.259 C 
HETATM   14  O   UNL     1      21.357  14.521 -23.945  1.00  0.00    -0.267 OA
HETATM   15  N   UNL     1      21.462  14.448 -26.192  1.00  0.00    -0.308 N 
ATOM     16  HN  UNL     1      21.849  13.953 -26.995  1.00  0.00     0.170 HD
BRANCH  15  17
HETATM   17  C   UNL     1      20.644  15.528 -26.443  1.00  0.00     0.124 A 
HETATM   18  N   UNL     1      19.430  15.567 -25.921  1.00  0.00    -0.285 N 
HETATM   19  N   UNL     1      18.813  16.718 -26.387  1.00  0.00    -0.304 N 
ATOM     20  HN  UNL     1      19.022  14.877 -25.291  1.00  0.00     0.188 HD
HETATM   21  C   UNL     1      19.615  17.331 -27.215  1.00  0.00     0.025 A 
ATOM     22  HN  UNL     1      17.880  17.036 -26.125  1.00  0.00     0.186 HD
HETATM   23  C   UNL     1      19.305  18.606 -27.949  1.00  0.00     0.070 C 
HETATM   24  C   UNL     1      20.786  16.590 -27.299  1.00  0.00     0.076 A 
ENDBRANCH  15  17
ENDBRANCH   5  13
BRANCH   6  25
HETATM   25  C   UNL     1      23.741   9.525 -23.970  1.00  0.00     0.035 A 
HETATM   26  C   UNL     1      24.877   9.293 -22.971  1.00  0.00     0.039 C 
HETATM   27  C   UNL     1      23.466   8.473 -25.040  1.00  0.00     0.033 A 
HETATM   28  C   UNL     1      22.499   8.640 -23.871  1.00  0.00     0.033 A 
ENDBRANCH   6  25
TORSDOF 3
ENDMDL
MODEL 12
REMARK VINA RESULT:    -8.554      2.680      7.858
REMARK INTER + INTRA:         -10.477
REMARK INTER:                  -9.554
REMARK INTRA:                  -0.923
REMARK UNBOUND:                -0.422
REMARK  3 active torsions:
REMARK  status: ('A' for Active; 'I' for Inactive)
REMARK       I    between atoms: C_1  and  N_13 
REMARK    1  A    between atoms: C_1  and  C_19 
REMARK    2  A    between atoms: C_2  and  N_13 
REMARK    3  A    between atoms: N_20  and  C_27 
ROOT
HETATM    1  C   UNL     1      24.404  13.029 -25.294  1.00  0.00     0.111 A 
HETATM    2  C   UNL     1      25.475   9.087 -23.422  1.00  0.00     0.183 A 
HETATM    3  C   UNL     1      23.302   9.821 -23.848  1.00  0.00     0.132 A 
HETATM    4  C   UNL     1      23.836  11.018 -24.388  1.00  0.00     0.066 A 
HETATM    5  C   UNL     1      23.312  12.252 -24.996  1.00  0.00     0.065 A 
HETATM    6  N   UNL     1      25.525  12.374 -24.973  1.00  0.00    -0.332 N 
HETATM    7  C   UNL     1      25.243  11.164 -24.417  1.00  0.00     0.123 A 
HETATM    8  N   UNL     1      26.017  10.181 -23.937  1.00  0.00    -0.338 N 
ATOM      9  HN  UNL     1      27.032  10.275 -23.968  1.00  0.00     0.168 HD
HETATM   10  N   UNL     1      24.158   8.891 -23.384  1.00  0.00    -0.340 N 
ATOM     11  HN  UNL     1      23.792   8.020 -22.997  1.00  0.00     0.167 HD
HETATM   12  N   UNL     1      21.946   9.559 -23.808  1.00  0.00    -0.082 NA
ENDROOT
BRANCH   5  13
HETATM   13  C   UNL     1      21.907  12.651 -25.113  1.00  0.00     0.259 C 
HETATM   14  O   UNL     1      21.538  13.083 -26.197  1.00  0.00    -0.267 OA
HETATM   15  N   UNL     1      21.052  12.457 -24.090  1.00  0.00    -0.308 N 
ATOM     16  HN  UNL     1      21.436  12.108 -23.212  1.00  0.00     0.170 HD
BRANCH  15  17
HETATM   17  C   UNL     1      19.696  12.696 -24.142  1.00  0.00     0.124 A 
HETATM   18  N   UNL     1      19.252  13.870 -24.553  1.00  0.00    -0.285 N 
HETATM   19  N   UNL     1      17.869  13.855 -24.441  1.00  0.00    -0.304 N 
ATOM     20  HN  UNL     1      19.821  14.647 -24.891  1.00  0.00     0.188 HD
HETATM   21  C   UNL     1      17.492  12.719 -23.923  1.00  0.00     0.025 A 
ATOM     22  HN  UNL     1      17.246  14.613 -24.720  1.00  0.00     0.186 HD
HETATM   23  C   UNL     1      16.072  12.324 -23.623  1.00  0.00     0.070 C 
HETATM   24  C   UNL     1      18.631  11.958 -23.693  1.00  0.00     0.076 A 
ENDBRANCH  15  17
ENDBRANCH   5  13
BRANCH   6  25
HETATM   25  C   UNL     1      26.884  12.854 -25.182  1.00  0.00     0.035 A 
HETATM   26  C   UNL     1      27.628  13.211 -23.893  1.00  0.00     0.039 C 
HETATM   27  C   UNL     1      27.080  13.725 -26.419  1.00  0.00     0.033 A 
HETATM   28  C   UNL     1      27.699  12.330 -26.365  1.00  0.00     0.033 A 
ENDBRANCH   6  25
TORSDOF 3
ENDMDL
MODEL 13
REMARK VINA RESULT:    -8.536      2.662      7.725
REMARK INTER + INTRA:         -10.455
REMARK INTER:                  -9.742
REMARK INTRA:                  -0.713
REMARK UNBOUND:                -0.422
REMARK  3 active torsions:
REMARK  status: ('A' for Active; 'I' for Inactive)
REMARK       I    between atoms: C_1  and  N_13 
REMARK    1  A    between atoms: C_1  and  C_19 
REMARK    2  A    between atoms: C_2  and  N_13 
REMARK    3  A    between atoms: N_20  and  C_27 
ROOT
HETATM    1  C   UNL     1      24.824  13.346 -25.239  1.00  0.00     0.111 A 
HETATM    2  C   UNL     1      24.798   9.038 -23.960  1.00  0.00     0.183 A 
HETATM    3  C   UNL     1      22.902  10.373 -24.208  1.00  0.00     0.132 A 
HETATM    4  C   UNL     1      23.737  11.450 -24.598  1.00  0.00     0.066 A 
HETATM    5  C   UNL     1      23.564  12.851 -25.013  1.00  0.00     0.065 A 
HETATM    6  N   UNL     1      25.729  12.379 -25.049  1.00  0.00    -0.332 N 
HETATM    7  C   UNL     1      25.132  11.222 -24.654  1.00  0.00     0.123 A 
HETATM    8  N   UNL     1      25.615  10.011 -24.338  1.00  0.00    -0.338 N 
ATOM      9  HN  UNL     1      26.618   9.837 -24.390  1.00  0.00     0.168 HD
HETATM   10  N   UNL     1      23.477   9.194 -23.905  1.00  0.00    -0.340 N 
ATOM     11  HN  UNL     1      22.890   8.406 -23.628  1.00  0.00     0.167 HD
HETATM   12  N   UNL     1      21.525  10.476 -24.159  1.00  0.00    -0.082 NA
ENDROOT
BRANCH   5  13
HETATM   13  C   UNL     1      22.316  13.620 -25.027  1.00  0.00     0.259 C 
HETATM   14  O   UNL     1      21.745  13.777 -23.956  1.00  0.00    -0.267 OA
HETATM   15  N   UNL     1      21.881  14.201 -26.163  1.00  0.00    -0.308 N 
ATOM     16  HN  UNL     1      22.401  14.012 -27.020  1.00  0.00     0.170 HD
BRANCH  15  17
HETATM   17  C   UNL     1      20.786  15.031 -26.252  1.00  0.00     0.124 A 
HETATM   18  N   UNL     1      19.605  14.607 -25.836  1.00  0.00    -0.285 N 
HETATM   19  N   UNL     1      18.685  15.609 -26.103  1.00  0.00    -0.304 N 
ATOM     20  HN  UNL     1      19.407  13.707 -25.399  1.00  0.00     0.188 HD
HETATM   21  C   UNL     1      19.285  16.592 -26.716  1.00  0.00     0.025 A 
ATOM     22  HN  UNL     1      17.694  15.582 -25.860  1.00  0.00     0.186 HD
HETATM   23  C   UNL     1      18.626  17.858 -27.193  1.00  0.00     0.070 C 
HETATM   24  C   UNL     1      20.625  16.252 -26.854  1.00  0.00     0.076 A 
ENDBRANCH  15  17
ENDBRANCH   5  13
BRANCH   6  25
HETATM   25  C   UNL     1      27.168  12.507 -25.236  1.00  0.00     0.035 A 
HETATM   26  C   UNL     1      27.958  12.655 -23.934  1.00  0.00     0.039 C 
HETATM   27  C   UNL     1      27.593  13.314 -26.459  1.00  0.00     0.033 A 
HETATM   28  C   UNL     1      27.843  11.809 -26.416  1.00  0.00     0.033 A 
ENDBRANCH   6  25
TORSDOF 3
ENDMDL
MODEL 14
REMARK VINA RESULT:    -8.484      2.553      7.332
REMARK INTER + INTRA:         -10.394
REMARK INTER:                  -9.596
REMARK INTRA:                  -0.798
REMARK UNBOUND:                -0.422
REMARK  3 active torsions:
REMARK  status: ('A' for Active; 'I' for Inactive)
REMARK       I    between atoms: C_1  and  N_13 
REMARK    1  A    between atoms: C_1  and  C_19 
REMARK    2  A    between atoms: C_2  and  N_13 
REMARK    3  A    between atoms: N_20  and  C_27 
ROOT
HETATM    1  C   UNL     1      24.454  12.339 -24.796  1.00  0.00     0.111 A 
HETATM    2  C   UNL     1      25.311  15.746 -27.598  1.00  0.00     0.183 A 
HETATM    3  C   UNL     1      23.189  15.121 -26.859  1.00  0.00     0.132 A 
HETATM    4  C   UNL     1      23.783  14.084 -26.097  1.00  0.00     0.066 A 
HETATM    5  C   UNL     1      23.328  13.022 -25.186  1.00  0.00     0.065 A 
HETATM    6  N   UNL     1      25.537  12.907 -25.339  1.00  0.00    -0.332 N 
HETATM    7  C   UNL     1      25.192  13.954 -26.137  1.00  0.00     0.123 A 
HETATM    8  N   UNL     1      25.911  14.803 -26.886  1.00  0.00    -0.338 N 
ATOM      9  HN  UNL     1      26.927  14.722 -26.907  1.00  0.00     0.168 HD
HETATM   10  N   UNL     1      23.991  15.923 -27.585  1.00  0.00    -0.340 N 
ATOM     11  HN  UNL     1      23.581  16.678 -28.135  1.00  0.00     0.167 HD
HETATM   12  N   UNL     1      21.828  15.361 -26.861  1.00  0.00    -0.082 NA
ENDROOT
BRANCH   5  13
HETATM   13  C   UNL     1      21.943  12.654 -24.879  1.00  0.00     0.259 C 
HETATM   14  O   UNL     1      21.616  12.647 -23.700  1.00  0.00    -0.267 OA
HETATM   15  N   UNL     1      21.059  12.429 -25.870  1.00  0.00    -0.308 N 
ATOM     16  HN  UNL     1      21.409  12.437 -26.828  1.00  0.00     0.170 HD
BRANCH  15  17
HETATM   17  C   UNL     1      19.715  12.188 -25.685  1.00  0.00     0.124 A 
HETATM   18  N   UNL     1      19.315  11.010 -25.237  1.00  0.00    -0.285 N 
HETATM   19  N   UNL     1      17.928  11.024 -25.211  1.00  0.00    -0.304 N 
ATOM     20  HN  UNL     1      19.916  10.233 -24.962  1.00  0.00     0.188 HD
HETATM   21  C   UNL     1      17.501  12.163 -25.684  1.00  0.00     0.025 A 
ATOM     22  HN  UNL     1      17.336  10.264 -24.876  1.00  0.00     0.186 HD
HETATM   23  C   UNL     1      16.057  12.557 -25.840  1.00  0.00     0.070 C 
HETATM   24  C   UNL     1      18.610  12.926 -26.022  1.00  0.00     0.076 A 
ENDBRANCH  15  17
ENDBRANCH   5  13
BRANCH   6  25
HETATM   25  C   UNL     1      26.917  12.494 -25.124  1.00  0.00     0.035 A 
HETATM   26  C   UNL     1      27.688  12.189 -26.410  1.00  0.00     0.039 C 
HETATM   27  C   UNL     1      27.147  11.620 -23.895  1.00  0.00     0.033 A 
HETATM   28  C   UNL     1      27.694  13.044 -23.928  1.00  0.00     0.033 A 
ENDBRANCH   6  25
TORSDOF 3
ENDMDL
MODEL 15
REMARK VINA RESULT:    -8.480      2.611      7.858
REMARK INTER + INTRA:         -10.389
REMARK INTER:                  -9.488
REMARK INTRA:                  -0.901
REMARK UNBOUND:                -0.422
REMARK  3 active torsions:
REMARK  status: ('A' for Active; 'I' for Inactive)
REMARK       I    between atoms: C_1  and  N_13 
REMARK    1  A    between atoms: C_1  and  C_19 
REMARK    2  A    between atoms: C_2  and  N_13 
REMARK    3  A    between atoms: N_20  and  C_27 
ROOT
HETATM    1  C   UNL     1      24.658  13.037 -25.255  1.00  0.00     0.111 A 
HETATM    2  C   UNL     1      25.226   8.944 -23.489  1.00  0.00     0.183 A 
HETATM    3  C   UNL     1      23.163   9.934 -23.940  1.00  0.00     0.132 A 
HETATM    4  C   UNL     1      23.843  11.078 -24.428  1.00  0.00     0.066 A 
HETATM    5  C   UNL     1      23.478  12.381 -25.007  1.00  0.00     0.065 A 
HETATM    6  N   UNL     1      25.690  12.249 -24.930  1.00  0.00    -0.332 N 
HETATM    7  C   UNL     1      25.257  11.064 -24.421  1.00  0.00     0.123 A 
HETATM    8  N   UNL     1      25.902   9.984 -23.955  1.00  0.00    -0.338 N 
ATOM      9  HN  UNL     1      26.922   9.963 -23.960  1.00  0.00     0.168 HD
HETATM   10  N   UNL     1      23.895   8.899 -23.487  1.00  0.00    -0.340 N 
ATOM     11  HN  UNL     1      23.422   8.065 -23.137  1.00  0.00     0.167 HD
HETATM   12  N   UNL     1      21.785   9.828 -23.938  1.00  0.00    -0.082 NA
ENDROOT
BRANCH   5  13
HETATM   13  C   UNL     1      22.131  12.942 -25.142  1.00  0.00     0.259 C 
HETATM   14  O   UNL     1      21.966  14.094 -24.765  1.00  0.00    -0.267 OA
HETATM   15  N   UNL     1      21.152  12.237 -25.743  1.00  0.00    -0.308 N 
ATOM     16  HN  UNL     1      21.361  11.277 -26.017  1.00  0.00     0.170 HD
BRANCH  15  17
HETATM   17  C   UNL     1      19.891  12.718 -26.015  1.00  0.00     0.124 A 
HETATM   18  N   UNL     1      19.744  13.940 -26.498  1.00  0.00    -0.285 N 
HETATM   19  N   UNL     1      18.383  14.182 -26.611  1.00  0.00    -0.304 N 
ATOM     20  HN  UNL     1      20.494  14.586 -26.742  1.00  0.00     0.188 HD
HETATM   21  C   UNL     1      17.723  13.152 -26.156  1.00  0.00     0.025 A 
ATOM     22  HN  UNL     1      17.963  15.031 -26.990  1.00  0.00     0.186 HD
HETATM   23  C   UNL     1      16.225  13.034 -26.088  1.00  0.00     0.070 C 
HETATM   24  C   UNL     1      18.649  12.204 -25.741  1.00  0.00     0.076 A 
ENDBRANCH  15  17
ENDBRANCH   5  13
BRANCH   6  25
HETATM   25  C   UNL     1      27.099  12.576 -25.093  1.00  0.00     0.035 A 
HETATM   26  C   UNL     1      27.793  13.018 -23.802  1.00  0.00     0.039 C 
HETATM   27  C   UNL     1      27.456  13.272 -26.403  1.00  0.00     0.033 A 
HETATM   28  C   UNL     1      27.930  11.844 -26.146  1.00  0.00     0.033 A 
ENDBRANCH   6  25
TORSDOF 3
ENDMDL
MODEL 16
REMARK VINA RESULT:    -8.359     10.008     11.479
REMARK INTER + INTRA:         -10.248
REMARK INTER:                  -9.504
REMARK INTRA:                  -0.744
REMARK UNBOUND:                -0.422
REMARK  3 active torsions:
REMARK  status: ('A' for Active; 'I' for Inactive)
REMARK       I    between atoms: C_1  and  N_13 
REMARK    1  A    between atoms: C_1  and  C_19 
REMARK    2  A    between atoms: C_2  and  N_13 
REMARK    3  A    between atoms: N_20  and  C_27 
ROOT
HETATM    1  C   UNL     1      19.007   5.424 -19.551  1.00  0.00     0.111 A 
HETATM    2  C   UNL     1      16.360   1.794 -19.442  1.00  0.00     0.183 A 
HETATM    3  C   UNL     1      18.654   1.767 -19.868  1.00  0.00     0.132 A 
HETATM    4  C   UNL     1      18.675   3.176 -19.719  1.00  0.00     0.066 A 
HETATM    5  C   UNL     1      19.681   4.250 -19.779  1.00  0.00     0.065 A 
HETATM    6  N   UNL     1      17.716   5.164 -19.315  1.00  0.00    -0.332 N 
HETATM    7  C   UNL     1      17.460   3.831 -19.412  1.00  0.00     0.123 A 
HETATM    8  N   UNL     1      16.339   3.108 -19.275  1.00  0.00    -0.338 N 
ATOM      9  HN  UNL     1      15.462   3.573 -19.040  1.00  0.00     0.168 HD
HETATM   10  N   UNL     1      17.479   1.125 -19.717  1.00  0.00    -0.340 N 
ATOM     11  HN  UNL     1      17.446   0.110 -19.815  1.00  0.00     0.167 HD
HETATM   12  N   UNL     1      19.790   1.026 -20.129  1.00  0.00    -0.082 NA
ENDROOT
BRANCH   5  13
HETATM   13  C   UNL     1      21.088   4.121 -20.167  1.00  0.00     0.259 C 
HETATM   14  O   UNL     1      21.463   4.771 -21.134  1.00  0.00    -0.267 OA
HETATM   15  N   UNL     1      21.940   3.386 -19.424  1.00  0.00    -0.308 N 
ATOM     16  HN  UNL     1      21.551   2.859 -18.642  1.00  0.00     0.170 HD
BRANCH  15  17
HETATM   17  C   UNL     1      23.296   3.295 -19.643  1.00  0.00     0.124 A 
HETATM   18  N   UNL     1      23.746   2.793 -20.780  1.00  0.00    -0.285 N 
HETATM   19  N   UNL     1      25.130   2.759 -20.702  1.00  0.00    -0.304 N 
ATOM     20  HN  UNL     1      23.178   2.485 -21.570  1.00  0.00     0.188 HD
HETATM   21  C   UNL     1      25.505   3.179 -19.525  1.00  0.00     0.025 A 
ATOM     22  HN  UNL     1      25.757   2.453 -21.447  1.00  0.00     0.186 HD
HETATM   23  C   UNL     1      26.927   3.272 -19.042  1.00  0.00     0.070 C 
HETATM   24  C   UNL     1      24.362   3.508 -18.807  1.00  0.00     0.076 A 
ENDBRANCH  15  17
ENDBRANCH   5  13
BRANCH   6  25
HETATM   25  C   UNL     1      16.693   6.147 -18.987  1.00  0.00     0.035 A 
HETATM   26  C   UNL     1      16.391   6.262 -17.491  1.00  0.00     0.039 C 
HETATM   27  C   UNL     1      15.545   6.245 -19.986  1.00  0.00     0.033 A 
HETATM   28  C   UNL     1      16.538   7.397 -19.853  1.00  0.00     0.033 A 
ENDBRANCH   6  25
TORSDOF 3
ENDMDL
MODEL 17
REMARK VINA RESULT:    -8.320      2.707      5.094
REMARK INTER + INTRA:         -10.201
REMARK INTER:                  -9.465
REMARK INTRA:                  -0.736
REMARK UNBOUND:                -0.422
REMARK  3 active torsions:
REMARK  status: ('A' for Active; 'I' for Inactive)
REMARK       I    between atoms: C_1  and  N_13 
REMARK    1  A    between atoms: C_1  and  C_19 
REMARK    2  A    between atoms: C_2  and  N_13 
REMARK    3  A    between atoms: N_20  and  C_27 
ROOT
HETATM    1  C   UNL     1      20.076  11.710 -24.502  1.00  0.00     0.111 A 
HETATM    2  C   UNL     1      19.980   7.272 -23.806  1.00  0.00     0.183 A 
HETATM    3  C   UNL     1      21.917   8.563 -23.952  1.00  0.00     0.132 A 
HETATM    4  C   UNL     1      21.111   9.711 -24.152  1.00  0.00     0.066 A 
HETATM    5  C   UNL     1      21.323  11.153 -24.360  1.00  0.00     0.065 A 
HETATM    6  N   UNL     1      19.140  10.765 -24.356  1.00  0.00    -0.332 N 
HETATM    7  C   UNL     1      19.706   9.545 -24.152  1.00  0.00     0.123 A 
HETATM    8  N   UNL     1      19.188   8.321 -23.969  1.00  0.00    -0.338 N 
ATOM      9  HN  UNL     1      18.175   8.198 -23.955  1.00  0.00     0.168 HD
HETATM   10  N   UNL     1      21.308   7.374 -23.782  1.00  0.00    -0.340 N 
ATOM     11  HN  UNL     1      21.873   6.538 -23.631  1.00  0.00     0.167 HD
HETATM   12  N   UNL     1      23.296   8.620 -23.895  1.00  0.00    -0.082 NA
ENDROOT
BRANCH   5  13
HETATM   13  C   UNL     1      22.604  11.839 -24.544  1.00  0.00     0.259 C 
HETATM   14  O   UNL     1      22.717  12.953 -24.048  1.00  0.00    -0.267 OA
HETATM   15  N   UNL     1      23.633  11.219 -25.153  1.00  0.00    -0.308 N 
ATOM     16  HN  UNL     1      23.458  10.298 -25.555  1.00  0.00     0.170 HD
BRANCH  15  17
HETATM   17  C   UNL     1      24.903  11.737 -25.274  1.00  0.00     0.124 A 
HETATM   18  N   UNL     1      25.066  13.014 -25.575  1.00  0.00    -0.285 N 
HETATM   19  N   UNL     1      26.429  13.243 -25.698  1.00  0.00    -0.304 N 
ATOM     20  HN  UNL     1      24.325  13.704 -25.695  1.00  0.00     0.188 HD
HETATM   21  C   UNL     1      27.070  12.119 -25.529  1.00  0.00     0.025 A 
ATOM     22  HN  UNL     1      26.861  14.147 -25.890  1.00  0.00     0.186 HD
HETATM   23  C   UNL     1      28.562  11.945 -25.607  1.00  0.00     0.070 C 
HETATM   24  C   UNL     1      26.131  11.126 -25.282  1.00  0.00     0.076 A 
ENDBRANCH  15  17
ENDBRANCH   5  13
BRANCH   6  25
HETATM   25  C   UNL     1      17.700  10.977 -24.395  1.00  0.00     0.035 A 
HETATM   26  C   UNL     1      16.980  10.186 -25.490  1.00  0.00     0.039 C 
HETATM   27  C   UNL     1      17.245  12.400 -24.087  1.00  0.00     0.033 A 
HETATM   28  C   UNL     1      16.942  11.274 -23.101  1.00  0.00     0.033 A 
ENDBRANCH   6  25
TORSDOF 3
ENDMDL
MODEL 18
REMARK VINA RESULT:    -8.262      2.315      6.526
REMARK INTER + INTRA:         -10.133
REMARK INTER:                 -10.666
REMARK INTRA:                   0.533
REMARK UNBOUND:                -0.422
REMARK  3 active torsions:
REMARK  status: ('A' for Active; 'I' for Inactive)
REMARK       I    between atoms: C_1  and  N_13 
REMARK    1  A    between atoms: C_1  and  C_19 
REMARK    2  A    between atoms: C_2  and  N_13 
REMARK    3  A    between atoms: N_20  and  C_27 
ROOT
HETATM    1  C   UNL     1      22.921  12.671 -25.377  1.00  0.00     0.111 A 
HETATM    2  C   UNL     1      27.401  12.649 -25.731  1.00  0.00     0.183 A 
HETATM    3  C   UNL     1      26.106  10.853 -24.996  1.00  0.00     0.132 A 
HETATM    4  C   UNL     1      24.944  11.642 -25.185  1.00  0.00     0.066 A 
HETATM    5  C   UNL     1      23.491  11.474 -25.022  1.00  0.00     0.065 A 
HETATM    6  N   UNL     1      23.873  13.522 -25.778  1.00  0.00    -0.332 N 
HETATM    7  C   UNL     1      25.107  12.959 -25.675  1.00  0.00     0.123 A 
HETATM    8  N   UNL     1      26.340  13.414 -25.941  1.00  0.00    -0.338 N 
ATOM      9  HN  UNL     1      26.463  14.358 -26.308  1.00  0.00     0.168 HD
HETATM   10  N   UNL     1      27.304  11.397 -25.285  1.00  0.00    -0.340 N 
ATOM     11  HN  UNL     1      28.151  10.842 -25.161  1.00  0.00     0.167 HD
HETATM   12  N   UNL     1      26.058   9.543 -24.559  1.00  0.00    -0.082 NA
ENDROOT
BRANCH   5  13
HETATM   13  C   UNL     1      22.795  10.322 -24.442  1.00  0.00     0.259 C 
HETATM   14  O   UNL     1      23.315   9.785 -23.472  1.00  0.00    -0.267 OA
HETATM   15  N   UNL     1      21.590   9.942 -24.910  1.00  0.00    -0.308 N 
ATOM     16  HN  UNL     1      21.228  10.427 -25.732  1.00  0.00     0.170 HD
BRANCH  15  17
HETATM   17  C   UNL     1      20.811   8.947 -24.362  1.00  0.00     0.124 A 
HETATM   18  N   UNL     1      21.299   7.725 -24.237  1.00  0.00    -0.285 N 
HETATM   19  N   UNL     1      20.289   6.924 -23.725  1.00  0.00    -0.304 N 
ATOM     20  HN  UNL     1      22.245   7.426 -24.474  1.00  0.00     0.188 HD
HETATM   21  C   UNL     1      19.202   7.633 -23.596  1.00  0.00     0.025 A 
ATOM     22  HN  UNL     1      20.382   5.936 -23.487  1.00  0.00     0.186 HD
HETATM   23  C   UNL     1      17.880   7.122 -23.091  1.00  0.00     0.070 C 
HETATM   24  C   UNL     1      19.484   8.926 -24.016  1.00  0.00     0.076 A 
ENDBRANCH  15  17
ENDBRANCH   5  13
BRANCH   6  25
HETATM   25  C   UNL     1      23.656  14.874 -26.273  1.00  0.00     0.035 A 
HETATM   26  C   UNL     1      22.494  15.609 -25.601  1.00  0.00     0.039 C 
HETATM   27  C   UNL     1      23.886  15.061 -27.770  1.00  0.00     0.033 A 
HETATM   28  C   UNL     1      24.844  15.700 -26.768  1.00  0.00     0.033 A 
ENDBRANCH   6  25
TORSDOF 3
ENDMDL
MODEL 19
REMARK VINA RESULT:    -7.996      2.700      7.367
REMARK INTER + INTRA:          -9.821
REMARK INTER:                  -9.557
REMARK INTRA:                  -0.264
REMARK UNBOUND:                -0.422
REMARK  3 active torsions:
REMARK  status: ('A' for Active; 'I' for Inactive)
REMARK       I    between atoms: C_1  and  N_13 
REMARK    1  A    between atoms: C_1  and  C_19 
REMARK    2  A    between atoms: C_2  and  N_13 
REMARK    3  A    between atoms: N_20  and  C_27 
ROOT
HETATM    1  C   UNL     1      23.026  12.880 -25.431  1.00  0.00     0.111 A 
HETATM    2  C   UNL     1      26.785  10.460 -24.969  1.00  0.00     0.183 A 
HETATM    3  C   UNL     1      24.632   9.696 -24.495  1.00  0.00     0.132 A 
HETATM    4  C   UNL     1      24.122  10.959 -24.885  1.00  0.00     0.066 A 
HETATM    5  C   UNL     1      22.801  11.600 -24.989  1.00  0.00     0.065 A 
HETATM    6  N   UNL     1      24.335  13.059 -25.647  1.00  0.00    -0.332 N 
HETATM    7  C   UNL     1      25.040  11.940 -25.327  1.00  0.00     0.123 A 
HETATM    8  N   UNL     1      26.349  11.649 -25.361  1.00  0.00    -0.338 N 
ATOM      9  HN  UNL     1      27.014  12.347 -25.693  1.00  0.00     0.168 HD
HETATM   10  N   UNL     1      25.963   9.496 -24.559  1.00  0.00    -0.340 N 
ATOM     11  HN  UNL     1      26.348   8.591 -24.288  1.00  0.00     0.167 HD
HETATM   12  N   UNL     1      23.821   8.656 -24.085  1.00  0.00    -0.082 NA
ENDROOT
BRANCH   5  13
HETATM   13  C   UNL     1      21.514  11.049 -24.554  1.00  0.00     0.259 C 
HETATM   14  O   UNL     1      20.809  11.763 -23.855  1.00  0.00    -0.267 OA
HETATM   15  N   UNL     1      21.103   9.843 -24.991  1.00  0.00    -0.308 N 
ATOM     16  HN  UNL     1      21.753   9.298 -25.558  1.00  0.00     0.170 HD
BRANCH  15  17
HETATM   17  C   UNL     1      19.869   9.291 -24.728  1.00  0.00     0.124 A 
HETATM   18  N   UNL     1      18.788   9.798 -25.295  1.00  0.00    -0.285 N 
HETATM   19  N   UNL     1      17.694   9.100 -24.806  1.00  0.00    -0.304 N 
ATOM     20  HN  UNL     1      18.763  10.564 -25.969  1.00  0.00     0.188 HD
HETATM   21  C   UNL     1      18.099   8.228 -23.924  1.00  0.00     0.025 A 
ATOM     22  HN  UNL     1      16.725   9.245 -25.091  1.00  0.00     0.186 HD
HETATM   23  C   UNL     1      17.213   7.291 -23.151  1.00  0.00     0.070 C 
HETATM   24  C   UNL     1      19.480   8.335 -23.825  1.00  0.00     0.076 A 
ENDBRANCH  15  17
ENDBRANCH   5  13
BRANCH   6  25
HETATM   25  C   UNL     1      24.958  14.270 -26.163  1.00  0.00     0.035 A 
HETATM   26  C   UNL     1      26.429  14.433 -25.772  1.00  0.00     0.039 C 
HETATM   27  C   UNL     1      24.056  15.500 -26.191  1.00  0.00     0.033 A 
HETATM   28  C   UNL     1      24.496  14.849 -27.500  1.00  0.00     0.033 A 
ENDBRANCH   6  25
TORSDOF 3
ENDMDL
MODEL 20
REMARK VINA RESULT:    -7.921      3.257      8.040
REMARK INTER + INTRA:          -9.733
REMARK INTER:                  -9.311
REMARK INTRA:                  -0.422
REMARK UNBOUND:                -0.422
REMARK  3 active torsions:
REMARK  status: ('A' for Active; 'I' for Inactive)
REMARK       I    between atoms: C_1  and  N_13 
REMARK    1  A    between atoms: C_1  and  C_19 
REMARK    2  A    between atoms: C_2  and  N_13 
REMARK    3  A    between atoms: N_20  and  C_27 
ROOT
HETATM    1  C   UNL     1      23.427  12.841 -24.789  1.00  0.00     0.111 A 
HETATM    2  C   UNL     1      22.413   8.533 -24.012  1.00  0.00     0.183 A 
HETATM    3  C   UNL     1      20.855  10.233 -24.366  1.00  0.00     0.132 A 
HETATM    4  C   UNL     1      21.924  11.151 -24.517  1.00  0.00     0.066 A 
HETATM    5  C   UNL     1      22.077  12.588 -24.794  1.00  0.00     0.065 A 
HETATM    6  N   UNL     1      24.098  11.702 -24.586  1.00  0.00    -0.332 N 
HETATM    7  C   UNL     1      23.245  10.657 -24.407  1.00  0.00     0.123 A 
HETATM    8  N   UNL     1      23.442   9.352 -24.165  1.00  0.00    -0.338 N 
ATOM      9  HN  UNL     1      24.393   8.988 -24.099  1.00  0.00     0.168 HD
HETATM   10  N   UNL     1      21.150   8.942 -24.120  1.00  0.00    -0.340 N 
ATOM     11  HN  UNL     1      20.393   8.265 -24.015  1.00  0.00     0.167 HD
HETATM   12  N   UNL     1      19.530  10.601 -24.494  1.00  0.00    -0.082 NA
ENDROOT
BRANCH   5  13
HETATM   13  C   UNL     1      21.009  13.587 -24.892  1.00  0.00     0.259 C 
HETATM   14  O   UNL     1      20.382  13.835 -23.871  1.00  0.00    -0.267 OA
HETATM   15  N   UNL     1      20.804  14.261 -26.041  1.00  0.00    -0.308 N 
ATOM     16  HN  UNL     1      21.356  13.988 -26.854  1.00  0.00     0.170 HD
BRANCH  15  17
HETATM   17  C   UNL     1      19.904  15.291 -26.198  1.00  0.00     0.124 A 
HETATM   18  N   UNL     1      18.653  15.137 -25.800  1.00  0.00    -0.285 N 
HETATM   19  N   UNL     1      17.963  16.292 -26.138  1.00  0.00    -0.304 N 
ATOM     20  HN  UNL     1      18.266  14.317 -25.332  1.00  0.00     0.188 HD
HETATM   21  C   UNL     1      18.765  17.102 -26.772  1.00  0.00     0.025 A 
ATOM     22  HN  UNL     1      16.983  16.478 -25.924  1.00  0.00     0.186 HD
HETATM   23  C   UNL     1      18.389  18.450 -27.323  1.00  0.00     0.070 C 
HETATM   24  C   UNL     1      20.009  16.490 -26.855  1.00  0.00     0.076 A 
ENDBRANCH  15  17
ENDBRANCH   5  13
BRANCH   6  25
HETATM   25  C   UNL     1      25.547  11.558 -24.560  1.00  0.00     0.035 A 
HETATM   26  C   UNL     1      26.071  10.696 -23.408  1.00  0.00     0.039 C 
HETATM   27  C   UNL     1      26.329  12.800 -24.973  1.00  0.00     0.033 A 
HETATM   28  C   UNL     1      26.333  11.566 -25.871  1.00  0.00     0.033 A 
ENDBRANCH   6  25
TORSDOF 3
ENDMDL
