MODEL 1
REMARK VINA RESULT:    -6.615      0.000      0.000
REMARK INTER + INTRA:          -8.003
REMARK INTER:                  -7.775
REMARK INTRA:                  -0.228
REMARK UNBOUND:                -0.228
REMARK  5 active torsions:
REMARK  status: ('A' for Active; 'I' for Inactive)
REMARK    1  A    between atoms: C_2  and  O_3 
REMARK    2  A    between atoms: C_5  and  O_6 
REMARK    3  A    between atoms: C_8  and  O_9 
REMARK    4  A    between atoms: C_11  and  C_14 
REMARK    5  A    between atoms: C_14  and  O_15 
ROOT
HETATM    1  C   UNK A   0      13.780   3.270  34.351  1.00  0.00     0.148 C 
HETATM    2  C   UNK A   1      13.164   2.141  35.169  1.00  0.00     0.166 C 
HETATM    3  C   UNK A   1      12.963   2.568  36.609  1.00  0.00     0.179 C 
HETATM    4  C   UNK A   1      14.288   3.005  37.209  1.00  0.00     0.173 C 
HETATM    5  C   UNK A   1      14.971   4.091  36.365  1.00  0.00     0.131 C 
HETATM    6  N   UNK A   1      15.036   3.730  34.936  1.00  0.00    -0.410 N 
ATOM      7  HN  UNK A   1      15.898   3.797  34.395  1.00  0.00     0.153 HD
ENDROOT
BRANCH   5   8
HETATM    8  C   UNK A   1      16.417   4.351  36.783  1.00  0.00     0.191 C 
BRANCH   8   9
HETATM    9  O   UNK A   1      16.503   4.826  38.156  1.00  0.00    -0.399 OA
ATOM     10  HO  UNK A   1      16.091   5.675  38.260  1.00  0.00     0.209 HD
ENDBRANCH   8   9
ENDBRANCH   5   8
BRANCH   4  11
HETATM   11  O   UNK A   1      14.097   3.445  38.559  1.00  0.00    -0.391 OA
ATOM     12  HO  UNK A   1      13.170   3.470  38.767  1.00  0.00     0.210 HD
ENDBRANCH   4  11
BRANCH   3  13
HETATM   13  O   UNK A   1      12.501   1.451  37.372  1.00  0.00    -0.390 OA
ATOM     14  HO  UNK A   1      11.962   1.763  38.089  1.00  0.00     0.210 HD
ENDBRANCH   3  13
BRANCH   2  15
HETATM   15  O   UNK A   1      11.936   1.756  34.565  1.00  0.00    -0.391 OA
ATOM     16  HO  UNK A   1      11.620   0.932  34.916  1.00  0.00     0.210 HD
ENDBRANCH   2  15
TORSDOF 5
ENDMDL
MODEL 2
REMARK VINA RESULT:    -6.255      1.241      3.528
REMARK INTER + INTRA:          -7.580
REMARK INTER:                  -7.350
REMARK INTRA:                  -0.230
REMARK UNBOUND:                -0.228
REMARK  5 active torsions:
REMARK  status: ('A' for Active; 'I' for Inactive)
REMARK    1  A    between atoms: C_2  and  O_3 
REMARK    2  A    between atoms: C_5  and  O_6 
REMARK    3  A    between atoms: C_8  and  O_9 
REMARK    4  A    between atoms: C_11  and  C_14 
REMARK    5  A    between atoms: C_14  and  O_15 
ROOT
HETATM    1  C   UNK A   0      15.110   3.837  36.817  1.00  0.00     0.148 C 
HETATM    2  C   UNK A   1      14.047   3.035  37.559  1.00  0.00     0.166 C 
HETATM    3  C   UNK A   1      13.337   2.084  36.618  1.00  0.00     0.179 C 
HETATM    4  C   UNK A   1      12.719   2.858  35.467  1.00  0.00     0.173 C 
HETATM    5  C   UNK A   1      13.751   3.736  34.744  1.00  0.00     0.131 C 
HETATM    6  N   UNK A   1      14.539   4.558  35.682  1.00  0.00    -0.410 N 
ATOM      7  HN  UNK A   1      14.676   5.560  35.547  1.00  0.00     0.153 HD
ENDROOT
BRANCH   5   8
HETATM    8  C   UNK A   1      13.116   4.727  33.772  1.00  0.00     0.191 C 
BRANCH   8   9
HETATM    9  O   UNK A   1      11.668   4.586  33.729  1.00  0.00    -0.399 OA
ATOM     10  HO  UNK A   1      11.405   3.828  33.221  1.00  0.00     0.209 HD
ENDBRANCH   8   9
ENDBRANCH   5   8
BRANCH   4  11
HETATM   11  O   UNK A   1      12.078   1.958  34.554  1.00  0.00    -0.391 OA
ATOM     12  HO  UNK A   1      12.323   2.170  33.661  1.00  0.00     0.210 HD
ENDBRANCH   4  11
BRANCH   3  13
HETATM   13  O   UNK A   1      12.269   1.439  37.316  1.00  0.00    -0.390 OA
ATOM     14  HO  UNK A   1      12.623   0.957  38.054  1.00  0.00     0.210 HD
ENDBRANCH   3  13
BRANCH   2  15
HETATM   15  O   UNK A   1      14.666   2.339  38.632  1.00  0.00    -0.391 OA
ATOM     16  HO  UNK A   1      15.612   2.336  38.545  1.00  0.00     0.210 HD
ENDBRANCH   2  15
TORSDOF 5
ENDMDL
MODEL 3
REMARK VINA RESULT:    -5.979      1.037      3.765
REMARK INTER + INTRA:          -7.256
REMARK INTER:                  -7.015
REMARK INTRA:                  -0.242
REMARK UNBOUND:                -0.228
REMARK  5 active torsions:
REMARK  status: ('A' for Active; 'I' for Inactive)
REMARK    1  A    between atoms: C_2  and  O_3 
REMARK    2  A    between atoms: C_5  and  O_6 
REMARK    3  A    between atoms: C_8  and  O_9 
REMARK    4  A    between atoms: C_11  and  C_14 
REMARK    5  A    between atoms: C_14  and  O_15 
ROOT
HETATM    1  C   UNK A   0      15.611   4.647  35.611  1.00  0.00     0.148 C 
HETATM    2  C   UNK A   1      15.448   4.243  37.071  1.00  0.00     0.166 C 
HETATM    3  C   UNK A   1      14.692   2.935  37.186  1.00  0.00     0.179 C 
HETATM    4  C   UNK A   1      13.338   3.057  36.508  1.00  0.00     0.173 C 
HETATM    5  C   UNK A   1      13.464   3.536  35.055  1.00  0.00     0.131 C 
HETATM    6  N   UNK A   1      14.320   4.731  34.932  1.00  0.00    -0.410 N 
ATOM      7  HN  UNK A   1      14.031   5.559  34.410  1.00  0.00     0.153 HD
ENDROOT
BRANCH   5   8
HETATM    8  C   UNK A   1      12.125   3.932  34.439  1.00  0.00     0.191 C 
BRANCH   8   9
HETATM    9  O   UNK A   1      11.295   2.769  34.161  1.00  0.00    -0.399 OA
ATOM     10  HO  UNK A   1      10.622   2.964  33.521  1.00  0.00     0.209 HD
ENDBRANCH   8   9
ENDBRANCH   5   8
BRANCH   4  11
HETATM   11  O   UNK A   1      12.636   1.810  36.581  1.00  0.00    -0.391 OA
ATOM     12  HO  UNK A   1      13.184   1.106  36.256  1.00  0.00     0.210 HD
ENDBRANCH   4  11
BRANCH   3  13
HETATM   13  O   UNK A   1      14.450   2.649  38.566  1.00  0.00    -0.390 OA
ATOM     14  HO  UNK A   1      15.259   2.363  38.973  1.00  0.00     0.210 HD
ENDBRANCH   3  13
BRANCH   2  15
HETATM   15  O   UNK A   1      16.735   4.153  37.668  1.00  0.00    -0.391 OA
ATOM     16  HO  UNK A   1      16.710   3.652  38.474  1.00  0.00     0.210 HD
ENDBRANCH   2  15
TORSDOF 5
ENDMDL
MODEL 4
REMARK VINA RESULT:    -5.864      1.805      2.717
REMARK INTER + INTRA:          -7.120
REMARK INTER:                  -6.916
REMARK INTRA:                  -0.204
REMARK UNBOUND:                -0.228
REMARK  5 active torsions:
REMARK  status: ('A' for Active; 'I' for Inactive)
REMARK    1  A    between atoms: C_2  and  O_3 
REMARK    2  A    between atoms: C_5  and  O_6 
REMARK    3  A    between atoms: C_8  and  O_9 
REMARK    4  A    between atoms: C_11  and  C_14 
REMARK    5  A    between atoms: C_14  and  O_15 
ROOT
HETATM    1  C   UNK A   0      14.220   2.510  37.938  1.00  0.00     0.148 C 
HETATM    2  C   UNK A   1      13.154   2.341  36.862  1.00  0.00     0.166 C 
HETATM    3  C   UNK A   1      13.790   2.071  35.514  1.00  0.00     0.179 C 
HETATM    4  C   UNK A   1      14.741   3.199  35.154  1.00  0.00     0.173 C 
HETATM    5  C   UNK A   1      15.783   3.445  36.255  1.00  0.00     0.131 C 
HETATM    6  N   UNK A   1      15.167   3.566  37.591  1.00  0.00    -0.410 N 
ATOM      7  HN  UNK A   1      15.388   4.333  38.226  1.00  0.00     0.153 HD
ENDROOT
BRANCH   5   8
HETATM    8  C   UNK A   1      16.570   4.738  36.054  1.00  0.00     0.191 C 
BRANCH   8   9
HETATM    9  O   UNK A   1      15.801   5.726  35.312  1.00  0.00    -0.399 OA
ATOM     10  HO  UNK A   1      15.808   6.572  35.743  1.00  0.00     0.209 HD
ENDBRANCH   8   9
ENDBRANCH   5   8
BRANCH   4  11
HETATM   11  O   UNK A   1      15.374   2.930  33.897  1.00  0.00    -0.391 OA
ATOM     12  HO  UNK A   1      14.772   2.477  33.318  1.00  0.00     0.210 HD
ENDBRANCH   4  11
BRANCH   3  13
HETATM   13  O   UNK A   1      12.773   2.039  34.510  1.00  0.00    -0.390 OA
ATOM     14  HO  UNK A   1      12.384   2.902  34.430  1.00  0.00     0.210 HD
ENDBRANCH   3  13
BRANCH   2  15
HETATM   15  O   UNK A   1      12.281   1.286  37.245  1.00  0.00    -0.391 OA
ATOM     16  HO  UNK A   1      11.596   1.596  37.825  1.00  0.00     0.210 HD
ENDBRANCH   2  15
TORSDOF 5
ENDMDL
MODEL 5
REMARK VINA RESULT:    -5.791      1.387      2.034
REMARK INTER + INTRA:          -7.035
REMARK INTER:                  -6.805
REMARK INTRA:                  -0.230
REMARK UNBOUND:                -0.228
REMARK  5 active torsions:
REMARK  status: ('A' for Active; 'I' for Inactive)
REMARK    1  A    between atoms: C_2  and  O_3 
REMARK    2  A    between atoms: C_5  and  O_6 
REMARK    3  A    between atoms: C_8  and  O_9 
REMARK    4  A    between atoms: C_11  and  C_14 
REMARK    5  A    between atoms: C_14  and  O_15 
ROOT
HETATM    1  C   UNK A   0      12.862   2.566  35.326  1.00  0.00     0.148 C 
HETATM    2  C   UNK A   1      13.447   1.930  36.581  1.00  0.00     0.166 C 
HETATM    3  C   UNK A   1      13.975   2.991  37.525  1.00  0.00     0.179 C 
HETATM    4  C   UNK A   1      15.016   3.841  36.818  1.00  0.00     0.173 C 
HETATM    5  C   UNK A   1      14.480   4.436  35.508  1.00  0.00     0.131 C 
HETATM    6  N   UNK A   1      13.838   3.418  34.653  1.00  0.00    -0.410 N 
ATOM      7  HN  UNK A   1      14.061   3.318  33.663  1.00  0.00     0.153 HD
ENDROOT
BRANCH   5   8
HETATM    8  C   UNK A   1      15.573   5.059  34.643  1.00  0.00     0.191 C 
BRANCH   8   9
HETATM    9  O   UNK A   1      16.225   6.171  35.319  1.00  0.00    -0.399 OA
ATOM     10  HO  UNK A   1      16.804   5.871  36.009  1.00  0.00     0.209 HD
ENDBRANCH   8   9
ENDBRANCH   5   8
BRANCH   4  11
HETATM   11  O   UNK A   1      15.491   4.871  37.695  1.00  0.00    -0.391 OA
ATOM     12  HO  UNK A   1      15.820   4.489  38.500  1.00  0.00     0.210 HD
ENDBRANCH   4  11
BRANCH   3  13
HETATM   13  O   UNK A   1      14.624   2.359  38.630  1.00  0.00    -0.390 OA
ATOM     14  HO  UNK A   1      13.968   1.998  39.214  1.00  0.00     0.210 HD
ENDBRANCH   3  13
BRANCH   2  15
HETATM   15  O   UNK A   1      12.444   1.136  37.202  1.00  0.00    -0.391 OA
ATOM     16  HO  UNK A   1      12.031   0.550  36.579  1.00  0.00     0.210 HD
ENDBRANCH   2  15
TORSDOF 5
ENDMDL
MODEL 6
REMARK VINA RESULT:    -5.749      2.282      2.546
REMARK INTER + INTRA:          -6.985
REMARK INTER:                  -6.750
REMARK INTRA:                  -0.235
REMARK UNBOUND:                -0.228
REMARK  5 active torsions:
REMARK  status: ('A' for Active; 'I' for Inactive)
REMARK    1  A    between atoms: C_2  and  O_3 
REMARK    2  A    between atoms: C_5  and  O_6 
REMARK    3  A    between atoms: C_8  and  O_9 
REMARK    4  A    between atoms: C_11  and  C_14 
REMARK    5  A    between atoms: C_14  and  O_15 
ROOT
HETATM    1  C   UNK A   0      12.193   4.025  34.471  1.00  0.00     0.148 C 
HETATM    2  C   UNK A   1      12.871   2.661  34.532  1.00  0.00     0.166 C 
HETATM    3  C   UNK A   1      14.093   2.709  35.427  1.00  0.00     0.179 C 
HETATM    4  C   UNK A   1      15.060   3.767  34.928  1.00  0.00     0.173 C 
HETATM    5  C   UNK A   1      14.386   5.140  34.783  1.00  0.00     0.131 C 
HETATM    6  N   UNK A   1      13.120   5.063  34.029  1.00  0.00    -0.410 N 
ATOM      7  HN  UNK A   1      12.907   5.692  33.255  1.00  0.00     0.153 HD
ENDROOT
BRANCH   5   8
HETATM    8  C   UNK A   1      15.246   6.151  34.028  1.00  0.00     0.191 C 
BRANCH   8   9
HETATM    9  O   UNK A   1      16.275   6.726  34.882  1.00  0.00    -0.399 OA
ATOM     10  HO  UNK A   1      17.140   6.412  34.649  1.00  0.00     0.209 HD
ENDBRANCH   8   9
ENDBRANCH   5   8
BRANCH   4  11
HETATM   11  O   UNK A   1      16.200   3.842  35.794  1.00  0.00    -0.391 OA
ATOM     12  HO  UNK A   1      16.000   4.378  36.552  1.00  0.00     0.210 HD
ENDBRANCH   4  11
BRANCH   3  13
HETATM   13  O   UNK A   1      14.772   1.452  35.366  1.00  0.00    -0.390 OA
ATOM     14  HO  UNK A   1      14.147   0.769  35.153  1.00  0.00     0.210 HD
ENDBRANCH   3  13
BRANCH   2  15
HETATM   15  O   UNK A   1      11.928   1.702  34.991  1.00  0.00    -0.391 OA
ATOM     16  HO  UNK A   1      12.234   0.815  34.840  1.00  0.00     0.210 HD
ENDBRANCH   2  15
TORSDOF 5
ENDMDL
MODEL 7
REMARK VINA RESULT:    -5.727      1.715      3.999
REMARK INTER + INTRA:          -6.960
REMARK INTER:                  -6.736
REMARK INTRA:                  -0.224
REMARK UNBOUND:                -0.228
REMARK  5 active torsions:
REMARK  status: ('A' for Active; 'I' for Inactive)
REMARK    1  A    between atoms: C_2  and  O_3 
REMARK    2  A    between atoms: C_5  and  O_6 
REMARK    3  A    between atoms: C_8  and  O_9 
REMARK    4  A    between atoms: C_11  and  C_14 
REMARK    5  A    between atoms: C_14  and  O_15 
ROOT
HETATM    1  C   UNK A   0      15.002   4.677  34.919  1.00  0.00     0.148 C 
HETATM    2  C   UNK A   1      15.028   3.693  36.083  1.00  0.00     0.166 C 
HETATM    3  C   UNK A   1      14.272   2.428  35.733  1.00  0.00     0.179 C 
HETATM    4  C   UNK A   1      12.842   2.768  35.350  1.00  0.00     0.173 C 
HETATM    5  C   UNK A   1      12.781   3.816  34.229  1.00  0.00     0.131 C 
HETATM    6  N   UNK A   1      13.634   4.986  34.511  1.00  0.00    -0.410 N 
ATOM      7  HN  UNK A   1      13.292   5.943  34.427  1.00  0.00     0.153 HD
ENDROOT
BRANCH   5   8
HETATM    8  C   UNK A   1      11.379   4.380  34.014  1.00  0.00     0.191 C 
BRANCH   8   9
HETATM    9  O   UNK A   1      10.576   3.516  33.161  1.00  0.00    -0.399 OA
ATOM     10  HO  UNK A   1      10.183   3.998  32.444  1.00  0.00     0.209 HD
ENDBRANCH   8   9
ENDBRANCH   5   8
BRANCH   4  11
HETATM   11  O   UNK A   1      12.133   1.578  34.982  1.00  0.00    -0.391 OA
ATOM     12  HO  UNK A   1      11.568   1.301  35.693  1.00  0.00     0.210 HD
ENDBRANCH   4  11
BRANCH   3  13
HETATM   13  O   UNK A   1      14.212   1.581  36.884  1.00  0.00    -0.390 OA
ATOM     14  HO  UNK A   1      15.078   1.240  37.067  1.00  0.00     0.210 HD
ENDBRANCH   3  13
BRANCH   2  15
HETATM   15  O   UNK A   1      16.382   3.414  36.415  1.00  0.00    -0.391 OA
ATOM     16  HO  UNK A   1      16.451   2.652  36.979  1.00  0.00     0.210 HD
ENDBRANCH   2  15
TORSDOF 5
ENDMDL
MODEL 8
REMARK VINA RESULT:    -5.621      1.767      1.767
REMARK INTER + INTRA:          -6.836
REMARK INTER:                  -6.608
REMARK INTRA:                  -0.227
REMARK UNBOUND:                -0.228
REMARK  5 active torsions:
REMARK  status: ('A' for Active; 'I' for Inactive)
REMARK    1  A    between atoms: C_2  and  O_3 
REMARK    2  A    between atoms: C_5  and  O_6 
REMARK    3  A    between atoms: C_8  and  O_9 
REMARK    4  A    between atoms: C_11  and  C_14 
REMARK    5  A    between atoms: C_14  and  O_15 
ROOT
HETATM    1  C   UNK A   0      14.030   3.105  34.448  1.00  0.00     0.148 C 
HETATM    2  C   UNK A   1      12.885   2.711  35.373  1.00  0.00     0.166 C 
HETATM    3  C   UNK A   1      13.273   2.912  36.824  1.00  0.00     0.179 C 
HETATM    4  C   UNK A   1      14.522   2.109  37.143  1.00  0.00     0.173 C 
HETATM    5  C   UNK A   1      15.673   2.429  36.179  1.00  0.00     0.131 C 
HETATM    6  N   UNK A   1      15.252   2.370  34.766  1.00  0.00    -0.410 N 
ATOM      7  HN  UNK A   1      15.776   1.852  34.061  1.00  0.00     0.153 HD
ENDROOT
BRANCH   5   8
HETATM    8  C   UNK A   1      16.839   1.450  36.294  1.00  0.00     0.191 C 
BRANCH   8   9
HETATM    9  O   UNK A   1      17.428   1.470  37.625  1.00  0.00    -0.399 OA
ATOM     10  HO  UNK A   1      16.845   1.867  38.261  1.00  0.00     0.209 HD
ENDBRANCH   8   9
ENDBRANCH   5   8
BRANCH   4  11
HETATM   11  O   UNK A   1      14.915   2.327  38.504  1.00  0.00    -0.391 OA
ATOM     12  HO  UNK A   1      15.005   3.257  38.673  1.00  0.00     0.210 HD
ENDBRANCH   4  11
BRANCH   3  13
HETATM   13  O   UNK A   1      12.227   2.420  37.665  1.00  0.00    -0.390 OA
ATOM     14  HO  UNK A   1      11.697   3.149  37.964  1.00  0.00     0.210 HD
ENDBRANCH   3  13
BRANCH   2  15
HETATM   15  O   UNK A   1      11.737   3.476  35.031  1.00  0.00    -0.391 OA
ATOM     16  HO  UNK A   1      10.938   3.052  35.323  1.00  0.00     0.210 HD
ENDBRANCH   2  15
TORSDOF 5
ENDMDL
MODEL 9
REMARK VINA RESULT:    -5.579      1.380      3.756
REMARK INTER + INTRA:          -6.785
REMARK INTER:                  -6.743
REMARK INTRA:                  -0.042
REMARK UNBOUND:                -0.228
REMARK  5 active torsions:
REMARK  status: ('A' for Active; 'I' for Inactive)
REMARK    1  A    between atoms: C_2  and  O_3 
REMARK    2  A    between atoms: C_5  and  O_6 
REMARK    3  A    between atoms: C_8  and  O_9 
REMARK    4  A    between atoms: C_11  and  C_14 
REMARK    5  A    between atoms: C_14  and  O_15 
ROOT
HETATM    1  C   UNK A   0      15.152   4.071  34.264  1.00  0.00     0.148 C 
HETATM    2  C   UNK A   1      15.286   4.961  35.494  1.00  0.00     0.166 C 
HETATM    3  C   UNK A   1      15.544   4.129  36.734  1.00  0.00     0.179 C 
HETATM    4  C   UNK A   1      14.427   3.117  36.921  1.00  0.00     0.173 C 
HETATM    5  C   UNK A   1      14.217   2.254  35.669  1.00  0.00     0.131 C 
HETATM    6  N   UNK A   1      14.108   3.066  34.442  1.00  0.00    -0.410 N 
ATOM      7  HN  UNK A   1      13.355   2.935  33.766  1.00  0.00     0.153 HD
ENDROOT
BRANCH   5   8
HETATM    8  C   UNK A   1      12.935   1.426  35.722  1.00  0.00     0.191 C 
BRANCH   8   9
HETATM    9  O   UNK A   1      12.080   1.686  34.574  1.00  0.00    -0.399 OA
ATOM     10  HO  UNK A   1      12.038   2.612  34.369  1.00  0.00     0.209 HD
ENDBRANCH   8   9
ENDBRANCH   5   8
BRANCH   4  11
HETATM   11  O   UNK A   1      14.687   2.302  38.071  1.00  0.00    -0.391 OA
ATOM     12  HO  UNK A   1      15.541   2.509  38.432  1.00  0.00     0.210 HD
ENDBRANCH   4  11
BRANCH   3  13
HETATM   13  O   UNK A   1      15.542   4.980  37.883  1.00  0.00    -0.390 OA
ATOM     14  HO  UNK A   1      16.302   4.786  38.418  1.00  0.00     0.210 HD
ENDBRANCH   3  13
BRANCH   2  15
HETATM   15  O   UNK A   1      16.331   5.898  35.271  1.00  0.00    -0.391 OA
ATOM     16  HO  UNK A   1      17.012   5.533  34.718  1.00  0.00     0.210 HD
ENDBRANCH   2  15
TORSDOF 5
ENDMDL
MODEL 10
REMARK VINA RESULT:    -5.569      1.778      2.447
REMARK INTER + INTRA:          -6.774
REMARK INTER:                  -6.722
REMARK INTRA:                  -0.052
REMARK UNBOUND:                -0.228
REMARK  5 active torsions:
REMARK  status: ('A' for Active; 'I' for Inactive)
REMARK    1  A    between atoms: C_2  and  O_3 
REMARK    2  A    between atoms: C_5  and  O_6 
REMARK    3  A    between atoms: C_8  and  O_9 
REMARK    4  A    between atoms: C_11  and  C_14 
REMARK    5  A    between atoms: C_14  and  O_15 
ROOT
HETATM    1  C   UNK A   0      14.114   1.622  35.961  1.00  0.00     0.148 C 
HETATM    2  C   UNK A   1      12.983   2.503  35.447  1.00  0.00     0.166 C 
HETATM    3  C   UNK A   1      13.514   3.564  34.504  1.00  0.00     0.179 C 
HETATM    4  C   UNK A   1      14.569   4.401  35.207  1.00  0.00     0.173 C 
HETATM    5  C   UNK A   1      15.687   3.533  35.803  1.00  0.00     0.131 C 
HETATM    6  N   UNK A   1      15.158   2.414  36.607  1.00  0.00    -0.410 N 
ATOM      7  HN  UNK A   1      15.497   2.209  37.546  1.00  0.00     0.153 HD
ENDROOT
BRANCH   5   8
HETATM    8  C   UNK A   1      16.606   4.308  36.745  1.00  0.00     0.191 C 
BRANCH   8   9
HETATM    9  O   UNK A   1      15.905   4.738  37.946  1.00  0.00    -0.399 OA
ATOM     10  HO  UNK A   1      15.223   4.126  38.193  1.00  0.00     0.209 HD
ENDBRANCH   8   9
ENDBRANCH   5   8
BRANCH   4  11
HETATM   11  O   UNK A   1      15.101   5.381  34.307  1.00  0.00    -0.391 OA
ATOM     12  HO  UNK A   1      15.200   5.009  33.439  1.00  0.00     0.210 HD
ENDBRANCH   4  11
BRANCH   3  13
HETATM   13  O   UNK A   1      12.449   4.445  34.138  1.00  0.00    -0.390 OA
ATOM     14  HO  UNK A   1      11.693   3.933  33.879  1.00  0.00     0.210 HD
ENDBRANCH   3  13
BRANCH   2  15
HETATM   15  O   UNK A   1      12.015   1.680  34.809  1.00  0.00    -0.391 OA
ATOM     16  HO  UNK A   1      11.401   1.317  35.436  1.00  0.00     0.210 HD
ENDBRANCH   2  15
TORSDOF 5
ENDMDL
MODEL 11
REMARK VINA RESULT:    -5.541      2.256      2.830
REMARK INTER + INTRA:          -6.741
REMARK INTER:                  -6.588
REMARK INTRA:                  -0.153
REMARK UNBOUND:                -0.228
REMARK  5 active torsions:
REMARK  status: ('A' for Active; 'I' for Inactive)
REMARK    1  A    between atoms: C_2  and  O_3 
REMARK    2  A    between atoms: C_5  and  O_6 
REMARK    3  A    between atoms: C_8  and  O_9 
REMARK    4  A    between atoms: C_11  and  C_14 
REMARK    5  A    between atoms: C_14  and  O_15 
ROOT
HETATM    1  C   UNK A   0      14.536   4.864  34.991  1.00  0.00     0.148 C 
HETATM    2  C   UNK A   1      13.370   4.219  34.252  1.00  0.00     0.166 C 
HETATM    3  C   UNK A   1      12.799   3.066  35.052  1.00  0.00     0.179 C 
HETATM    4  C   UNK A   1      13.885   2.044  35.337  1.00  0.00     0.173 C 
HETATM    5  C   UNK A   1      15.108   2.680  36.015  1.00  0.00     0.131 C 
HETATM    6  N   UNK A   1      15.574   3.888  35.308  1.00  0.00    -0.410 N 
ATOM      7  HN  UNK A   1      16.553   4.031  35.059  1.00  0.00     0.153 HD
ENDROOT
BRANCH   5   8
HETATM    8  C   UNK A   1      16.316   1.747  36.063  1.00  0.00     0.191 C 
BRANCH   8   9
HETATM    9  O   UNK A   1      16.386   0.897  34.884  1.00  0.00    -0.399 OA
ATOM     10  HO  UNK A   1      16.114   0.008  35.076  1.00  0.00     0.209 HD
ENDBRANCH   8   9
ENDBRANCH   5   8
BRANCH   4  11
HETATM   11  O   UNK A   1      13.358   0.971  36.127  1.00  0.00    -0.391 OA
ATOM     12  HO  UNK A   1      13.995   0.269  36.191  1.00  0.00     0.210 HD
ENDBRANCH   4  11
BRANCH   3  13
HETATM   13  O   UNK A   1      11.792   2.408  34.279  1.00  0.00    -0.390 OA
ATOM     14  HO  UNK A   1      11.884   1.468  34.379  1.00  0.00     0.210 HD
ENDBRANCH   3  13
BRANCH   2  15
HETATM   15  O   UNK A   1      12.385   5.211  33.995  1.00  0.00    -0.391 OA
ATOM     16  HO  UNK A   1      11.915   5.033  33.189  1.00  0.00     0.210 HD
ENDBRANCH   2  15
TORSDOF 5
ENDMDL
MODEL 12
REMARK VINA RESULT:    -5.534      2.261      4.553
REMARK INTER + INTRA:          -6.733
REMARK INTER:                  -6.539
REMARK INTRA:                  -0.194
REMARK UNBOUND:                -0.228
REMARK  5 active torsions:
REMARK  status: ('A' for Active; 'I' for Inactive)
REMARK    1  A    between atoms: C_2  and  O_3 
REMARK    2  A    between atoms: C_5  and  O_6 
REMARK    3  A    between atoms: C_8  and  O_9 
REMARK    4  A    between atoms: C_11  and  C_14 
REMARK    5  A    between atoms: C_14  and  O_15 
ROOT
HETATM    1  C   UNK A   0      15.512   4.494  36.475  1.00  0.00     0.148 C 
HETATM    2  C   UNK A   1      15.703   5.144  35.110  1.00  0.00     0.166 C 
HETATM    3  C   UNK A   1      14.372   5.323  34.409  1.00  0.00     0.179 C 
HETATM    4  C   UNK A   1      13.673   3.982  34.273  1.00  0.00     0.173 C 
HETATM    5  C   UNK A   1      13.532   3.266  35.624  1.00  0.00     0.131 C 
HETATM    6  N   UNK A   1      14.806   3.220  36.367  1.00  0.00    -0.410 N 
ATOM      7  HN  UNK A   1      15.168   2.359  36.776  1.00  0.00     0.153 HD
ENDROOT
BRANCH   5   8
HETATM    8  C   UNK A   1      13.091   1.811  35.486  1.00  0.00     0.191 C 
BRANCH   8   9
HETATM    9  O   UNK A   1      11.938   1.680  34.607  1.00  0.00    -0.399 OA
ATOM     10  HO  UNK A   1      11.315   2.384  34.738  1.00  0.00     0.209 HD
ENDBRANCH   8   9
ENDBRANCH   5   8
BRANCH   4  11
HETATM   11  O   UNK A   1      12.396   4.152  33.644  1.00  0.00    -0.391 OA
ATOM     12  HO  UNK A   1      11.902   3.343  33.683  1.00  0.00     0.210 HD
ENDBRANCH   4  11
BRANCH   3  13
HETATM   13  O   UNK A   1      14.597   5.820  33.088  1.00  0.00    -0.390 OA
ATOM     14  HO  UNK A   1      15.265   6.495  33.116  1.00  0.00     0.210 HD
ENDBRANCH   3  13
BRANCH   2  15
HETATM   15  O   UNK A   1      16.370   6.387  35.285  1.00  0.00    -0.391 OA
ATOM     16  HO  UNK A   1      16.607   6.529  36.193  1.00  0.00     0.210 HD
ENDBRANCH   2  15
TORSDOF 5
ENDMDL
MODEL 13
REMARK VINA RESULT:    -5.513      2.072      3.199
REMARK INTER + INTRA:          -6.708
REMARK INTER:                  -6.665
REMARK INTRA:                  -0.043
REMARK UNBOUND:                -0.228
REMARK  5 active torsions:
REMARK  status: ('A' for Active; 'I' for Inactive)
REMARK    1  A    between atoms: C_2  and  O_3 
REMARK    2  A    between atoms: C_5  and  O_6 
REMARK    3  A    between atoms: C_8  and  O_9 
REMARK    4  A    between atoms: C_11  and  C_14 
REMARK    5  A    between atoms: C_14  and  O_15 
ROOT
HETATM    1  C   UNK A   0      15.967   3.989  37.045  1.00  0.00     0.148 C 
HETATM    2  C   UNK A   1      14.548   3.629  37.468  1.00  0.00     0.166 C 
HETATM    3  C   UNK A   1      13.719   3.213  36.270  1.00  0.00     0.179 C 
HETATM    4  C   UNK A   1      13.706   4.326  35.237  1.00  0.00     0.173 C 
HETATM    5  C   UNK A   1      15.125   4.764  34.845  1.00  0.00     0.131 C 
HETATM    6  N   UNK A   1      15.972   5.032  36.024  1.00  0.00    -0.410 N 
ATOM      7  HN  UNK A   1      16.523   5.885  36.117  1.00  0.00     0.153 HD
ENDROOT
BRANCH   5   8
HETATM    8  C   UNK A   1      15.147   6.054  34.029  1.00  0.00     0.191 C 
BRANCH   8   9
HETATM    9  O   UNK A   1      15.949   7.084  34.673  1.00  0.00    -0.399 OA
ATOM     10  HO  UNK A   1      15.527   7.419  35.454  1.00  0.00     0.209 HD
ENDBRANCH   8   9
ENDBRANCH   5   8
BRANCH   4  11
HETATM   11  O   UNK A   1      12.955   3.922  34.086  1.00  0.00    -0.391 OA
ATOM     12  HO  UNK A   1      12.909   4.634  33.458  1.00  0.00     0.210 HD
ENDBRANCH   4  11
BRANCH   3  13
HETATM   13  O   UNK A   1      12.367   3.001  36.682  1.00  0.00    -0.390 OA
ATOM     14  HO  UNK A   1      12.361   2.583  37.535  1.00  0.00     0.210 HD
ENDBRANCH   3  13
BRANCH   2  15
HETATM   15  O   UNK A   1      14.609   2.595  38.442  1.00  0.00    -0.391 OA
ATOM     16  HO  UNK A   1      14.317   2.901  39.292  1.00  0.00     0.210 HD
ENDBRANCH   2  15
TORSDOF 5
ENDMDL
MODEL 14
REMARK VINA RESULT:    -5.335      2.227      3.808
REMARK INTER + INTRA:          -6.499
REMARK INTER:                  -6.263
REMARK INTRA:                  -0.237
REMARK UNBOUND:                -0.228
REMARK  5 active torsions:
REMARK  status: ('A' for Active; 'I' for Inactive)
REMARK    1  A    between atoms: C_2  and  O_3 
REMARK    2  A    between atoms: C_5  and  O_6 
REMARK    3  A    between atoms: C_8  and  O_9 
REMARK    4  A    between atoms: C_11  and  C_14 
REMARK    5  A    between atoms: C_14  and  O_15 
ROOT
HETATM    1  C   UNK A   0      15.677   4.777  35.519  1.00  0.00     0.148 C 
HETATM    2  C   UNK A   1      14.879   5.034  34.246  1.00  0.00     0.166 C 
HETATM    3  C   UNK A   1      13.391   4.953  34.519  1.00  0.00     0.179 C 
HETATM    4  C   UNK A   1      13.045   3.595  35.105  1.00  0.00     0.173 C 
HETATM    5  C   UNK A   1      13.887   3.273  36.348  1.00  0.00     0.131 C 
HETATM    6  N   UNK A   1      15.328   3.491  36.118  1.00  0.00    -0.410 N 
ATOM      7  HN  UNK A   1      16.031   2.793  36.360  1.00  0.00     0.153 HD
ENDROOT
BRANCH   5   8
HETATM    8  C   UNK A   1      13.764   1.818  36.792  1.00  0.00     0.191 C 
BRANCH   8   9
HETATM    9  O   UNK A   1      12.420   1.510  37.258  1.00  0.00    -0.399 OA
ATOM     10  HO  UNK A   1      12.412   0.751  37.829  1.00  0.00     0.209 HD
ENDBRANCH   8   9
ENDBRANCH   5   8
BRANCH   4  11
HETATM   11  O   UNK A   1      11.644   3.528  35.400  1.00  0.00    -0.391 OA
ATOM     12  HO  UNK A   1      11.348   2.625  35.379  1.00  0.00     0.210 HD
ENDBRANCH   4  11
BRANCH   3  13
HETATM   13  O   UNK A   1      12.678   5.076  33.286  1.00  0.00    -0.390 OA
ATOM     14  HO  UNK A   1      12.389   5.975  33.180  1.00  0.00     0.210 HD
ENDBRANCH   3  13
BRANCH   2  15
HETATM   15  O   UNK A   1      15.243   6.306  33.727  1.00  0.00    -0.391 OA
ATOM     16  HO  UNK A   1      15.319   6.954  34.417  1.00  0.00     0.210 HD
ENDBRANCH   2  15
TORSDOF 5
ENDMDL
MODEL 15
REMARK VINA RESULT:    -5.319      2.386      4.177
REMARK INTER + INTRA:          -6.480
REMARK INTER:                  -6.240
REMARK INTRA:                  -0.240
REMARK UNBOUND:                -0.228
REMARK  5 active torsions:
REMARK  status: ('A' for Active; 'I' for Inactive)
REMARK    1  A    between atoms: C_2  and  O_3 
REMARK    2  A    between atoms: C_5  and  O_6 
REMARK    3  A    between atoms: C_8  and  O_9 
REMARK    4  A    between atoms: C_11  and  C_14 
REMARK    5  A    between atoms: C_14  and  O_15 
ROOT
HETATM    1  C   UNK A   0      14.804   3.021  37.660  1.00  0.00     0.148 C 
HETATM    2  C   UNK A   1      15.622   2.009  36.866  1.00  0.00     0.166 C 
HETATM    3  C   UNK A   1      15.829   2.484  35.442  1.00  0.00     0.179 C 
HETATM    4  C   UNK A   1      14.485   2.729  34.777  1.00  0.00     0.173 C 
HETATM    5  C   UNK A   1      13.606   3.688  35.593  1.00  0.00     0.131 C 
HETATM    6  N   UNK A   1      13.524   3.298  37.014  1.00  0.00    -0.410 N 
ATOM      7  HN  UNK A   1      12.636   3.227  37.510  1.00  0.00     0.153 HD
ENDROOT
BRANCH   5   8
HETATM    8  C   UNK A   1      12.161   3.736  35.103  1.00  0.00     0.191 C 
BRANCH   8   9
HETATM    9  O   UNK A   1      11.831   2.578  34.286  1.00  0.00    -0.399 OA
ATOM     10  HO  UNK A   1      10.925   2.594  34.004  1.00  0.00     0.209 HD
ENDBRANCH   8   9
ENDBRANCH   5   8
BRANCH   4  11
HETATM   11  O   UNK A   1      14.676   3.215  33.442  1.00  0.00    -0.391 OA
ATOM     12  HO  UNK A   1      14.476   2.532  32.814  1.00  0.00     0.210 HD
ENDBRANCH   4  11
BRANCH   3  13
HETATM   13  O   UNK A   1      16.491   1.461  34.694  1.00  0.00    -0.390 OA
ATOM     14  HO  UNK A   1      16.805   1.825  33.875  1.00  0.00     0.210 HD
ENDBRANCH   3  13
BRANCH   2  15
HETATM   15  O   UNK A   1      16.863   1.802  37.529  1.00  0.00    -0.391 OA
ATOM     16  HO  UNK A   1      16.780   1.929  38.466  1.00  0.00     0.210 HD
ENDBRANCH   2  15
TORSDOF 5
ENDMDL
MODEL 16
REMARK VINA RESULT:    -5.037      2.089      2.865
REMARK INTER + INTRA:          -6.149
REMARK INTER:                  -6.106
REMARK INTRA:                  -0.043
REMARK UNBOUND:                -0.228
REMARK  5 active torsions:
REMARK  status: ('A' for Active; 'I' for Inactive)
REMARK    1  A    between atoms: C_2  and  O_3 
REMARK    2  A    between atoms: C_5  and  O_6 
REMARK    3  A    between atoms: C_8  and  O_9 
REMARK    4  A    between atoms: C_11  and  C_14 
REMARK    5  A    between atoms: C_14  and  O_15 
ROOT
HETATM    1  C   UNK A   0      15.172   2.456  35.244  1.00  0.00     0.148 C 
HETATM    2  C   UNK A   1      13.694   2.390  35.612  1.00  0.00     0.166 C 
HETATM    3  C   UNK A   1      12.850   3.101  34.575  1.00  0.00     0.179 C 
HETATM    4  C   UNK A   1      13.305   4.543  34.436  1.00  0.00     0.173 C 
HETATM    5  C   UNK A   1      14.808   4.646  34.139  1.00  0.00     0.131 C 
HETATM    6  N   UNK A   1      15.618   3.835  35.068  1.00  0.00    -0.410 N 
ATOM      7  HN  UNK A   1      16.432   4.212  35.553  1.00  0.00     0.153 HD
ENDROOT
BRANCH   5   8
HETATM    8  C   UNK A   1      15.346   6.069  34.268  1.00  0.00     0.191 C 
BRANCH   8   9
HETATM    9  O   UNK A   1      16.292   6.187  35.367  1.00  0.00    -0.399 OA
ATOM     10  HO  UNK A   1      16.776   5.381  35.503  1.00  0.00     0.209 HD
ENDBRANCH   8   9
ENDBRANCH   5   8
BRANCH   4  11
HETATM   11  O   UNK A   1      12.533   5.209  33.428  1.00  0.00    -0.391 OA
ATOM     12  HO  UNK A   1      12.988   5.988  33.130  1.00  0.00     0.210 HD
ENDBRANCH   4  11
BRANCH   3  13
HETATM   13  O   UNK A   1      11.488   3.126  35.011  1.00  0.00    -0.390 OA
ATOM     14  HO  UNK A   1      11.425   2.711  35.863  1.00  0.00     0.210 HD
ENDBRANCH   3  13
BRANCH   2  15
HETATM   15  O   UNK A   1      13.316   1.026  35.744  1.00  0.00    -0.391 OA
ATOM     16  HO  UNK A   1      13.471   0.706  36.624  1.00  0.00     0.210 HD
ENDBRANCH   2  15
TORSDOF 5
ENDMDL
MODEL 17
REMARK VINA RESULT:    -4.994      2.218      3.546
REMARK INTER + INTRA:          -6.098
REMARK INTER:                  -6.055
REMARK INTRA:                  -0.043
REMARK UNBOUND:                -0.228
REMARK  5 active torsions:
REMARK  status: ('A' for Active; 'I' for Inactive)
REMARK    1  A    between atoms: C_2  and  O_3 
REMARK    2  A    between atoms: C_5  and  O_6 
REMARK    3  A    between atoms: C_8  and  O_9 
REMARK    4  A    between atoms: C_11  and  C_14 
REMARK    5  A    between atoms: C_14  and  O_15 
ROOT
HETATM    1  C   UNK A   0      12.754   4.005  34.266  1.00  0.00     0.148 C 
HETATM    2  C   UNK A   1      13.756   5.103  34.602  1.00  0.00     0.166 C 
HETATM    3  C   UNK A   1      15.083   4.507  35.025  1.00  0.00     0.179 C 
HETATM    4  C   UNK A   1      14.881   3.583  36.213  1.00  0.00     0.173 C 
HETATM    5  C   UNK A   1      13.820   2.509  35.932  1.00  0.00     0.131 C 
HETATM    6  N   UNK A   1      12.576   3.084  35.385  1.00  0.00    -0.410 N 
ATOM      7  HN  UNK A   1      11.656   2.853  35.762  1.00  0.00     0.153 HD
ENDROOT
BRANCH   5   8
HETATM    8  C   UNK A   1      13.396   1.746  37.185  1.00  0.00     0.191 C 
BRANCH   8   9
HETATM    9  O   UNK A   1      12.214   2.333  37.798  1.00  0.00    -0.399 OA
ATOM     10  HO  UNK A   1      11.571   1.672  38.024  1.00  0.00     0.209 HD
ENDBRANCH   8   9
ENDBRANCH   5   8
BRANCH   4  11
HETATM   11  O   UNK A   1      16.128   2.987  36.593  1.00  0.00    -0.391 OA
ATOM     12  HO  UNK A   1      16.321   3.184  37.502  1.00  0.00     0.210 HD
ENDBRANCH   4  11
BRANCH   3  13
HETATM   13  O   UNK A   1      15.958   5.556  35.449  1.00  0.00    -0.390 OA
ATOM     14  HO  UNK A   1      15.599   5.969  36.225  1.00  0.00     0.210 HD
ENDBRANCH   3  13
BRANCH   2  15
HETATM   15  O   UNK A   1      13.905   5.949  33.469  1.00  0.00    -0.391 OA
ATOM     16  HO  UNK A   1      14.791   5.921  33.129  1.00  0.00     0.210 HD
ENDBRANCH   2  15
TORSDOF 5
ENDMDL
MODEL 18
REMARK VINA RESULT:    -4.956      6.244      6.762
REMARK INTER + INTRA:          -6.053
REMARK INTER:                  -5.993
REMARK INTRA:                  -0.061
REMARK UNBOUND:                -0.228
REMARK  5 active torsions:
REMARK  status: ('A' for Active; 'I' for Inactive)
REMARK    1  A    between atoms: C_2  and  O_3 
REMARK    2  A    between atoms: C_5  and  O_6 
REMARK    3  A    between atoms: C_8  and  O_9 
REMARK    4  A    between atoms: C_11  and  C_14 
REMARK    5  A    between atoms: C_14  and  O_15 
ROOT
HETATM    1  C   UNK A   0      17.988  -0.182  35.832  1.00  0.00     0.148 C 
HETATM    2  C   UNK A   1      17.491   0.830  34.807  1.00  0.00     0.166 C 
HETATM    3  C   UNK A   1      17.813   0.370  33.399  1.00  0.00     0.179 C 
HETATM    4  C   UNK A   1      19.309   0.150  33.255  1.00  0.00     0.173 C 
HETATM    5  C   UNK A   1      19.855  -0.808  34.323  1.00  0.00     0.131 C 
HETATM    6  N   UNK A   1      19.419  -0.435  35.683  1.00  0.00    -0.410 N 
ATOM      7  HN  UNK A   1      20.071  -0.360  36.464  1.00  0.00     0.153 HD
ENDROOT
BRANCH   5   8
HETATM    8  C   UNK A   1      21.380  -0.832  34.380  1.00  0.00     0.191 C 
BRANCH   8   9
HETATM    9  O   UNK A   1      21.936   0.508  34.491  1.00  0.00    -0.399 OA
ATOM     10  HO  UNK A   1      22.568   0.569  35.197  1.00  0.00     0.209 HD
ENDBRANCH   8   9
ENDBRANCH   5   8
BRANCH   4  11
HETATM   11  O   UNK A   1      19.613  -0.321  31.936  1.00  0.00    -0.391 OA
ATOM     12  HO  UNK A   1      19.788  -1.254  31.955  1.00  0.00     0.210 HD
ENDBRANCH   4  11
BRANCH   3  13
HETATM   13  O   UNK A   1      17.444   1.395  32.473  1.00  0.00    -0.390 OA
ATOM     14  HO  UNK A   1      18.049   1.388  31.741  1.00  0.00     0.210 HD
ENDBRANCH   3  13
BRANCH   2  15
HETATM   15  O   UNK A   1      16.093   1.014  34.986  1.00  0.00    -0.391 OA
ATOM     16  HO  UNK A   1      15.737   0.388  35.606  1.00  0.00     0.210 HD
ENDBRANCH   2  15
TORSDOF 5
ENDMDL
MODEL 19
REMARK VINA RESULT:    -4.921      1.824      3.831
REMARK INTER + INTRA:          -6.012
REMARK INTER:                  -5.985
REMARK INTRA:                  -0.027
REMARK UNBOUND:                -0.228
REMARK  5 active torsions:
REMARK  status: ('A' for Active; 'I' for Inactive)
REMARK    1  A    between atoms: C_2  and  O_3 
REMARK    2  A    between atoms: C_5  and  O_6 
REMARK    3  A    between atoms: C_8  and  O_9 
REMARK    4  A    between atoms: C_11  and  C_14 
REMARK    5  A    between atoms: C_14  and  O_15 
ROOT
HETATM    1  C   UNK A   0      13.100   2.696  37.107  1.00  0.00     0.148 C 
HETATM    2  C   UNK A   1      14.594   2.552  37.373  1.00  0.00     0.166 C 
HETATM    3  C   UNK A   1      15.312   3.864  37.128  1.00  0.00     0.179 C 
HETATM    4  C   UNK A   1      15.062   4.334  35.706  1.00  0.00     0.173 C 
HETATM    5  C   UNK A   1      13.563   4.417  35.383  1.00  0.00     0.131 C 
HETATM    6  N   UNK A   1      12.842   3.185  35.756  1.00  0.00    -0.410 N 
ATOM      7  HN  UNK A   1      12.208   2.708  35.115  1.00  0.00     0.153 HD
ENDROOT
BRANCH   5   8
HETATM    8  C   UNK A   1      13.282   4.615  33.895  1.00  0.00     0.191 C 
BRANCH   8   9
HETATM    9  O   UNK A   1      11.859   4.758  33.631  1.00  0.00    -0.399 OA
ATOM     10  HO  UNK A   1      11.627   4.432  32.770  1.00  0.00     0.209 HD
ENDBRANCH   8   9
ENDBRANCH   5   8
BRANCH   4  11
HETATM   11  O   UNK A   1      15.707   5.594  35.482  1.00  0.00    -0.391 OA
ATOM     12  HO  UNK A   1      15.364   6.003  34.697  1.00  0.00     0.210 HD
ENDBRANCH   4  11
BRANCH   3  13
HETATM   13  O   UNK A   1      16.721   3.664  37.266  1.00  0.00    -0.390 OA
ATOM     14  HO  UNK A   1      17.162   4.003  36.497  1.00  0.00     0.210 HD
ENDBRANCH   3  13
BRANCH   2  15
HETATM   15  O   UNK A   1      14.780   2.099  38.707  1.00  0.00    -0.391 OA
ATOM     16  HO  UNK A   1      15.702   2.018  38.921  1.00  0.00     0.210 HD
ENDBRANCH   2  15
TORSDOF 5
ENDMDL
MODEL 20
REMARK VINA RESULT:    -4.891      2.341      4.410
REMARK INTER + INTRA:          -5.977
REMARK INTER:                  -5.736
REMARK INTRA:                  -0.242
REMARK UNBOUND:                -0.228
REMARK  5 active torsions:
REMARK  status: ('A' for Active; 'I' for Inactive)
REMARK    1  A    between atoms: C_2  and  O_3 
REMARK    2  A    between atoms: C_5  and  O_6 
REMARK    3  A    between atoms: C_8  and  O_9 
REMARK    4  A    between atoms: C_11  and  C_14 
REMARK    5  A    between atoms: C_14  and  O_15 
ROOT
HETATM    1  C   UNK A   0      13.583   2.893  37.202  1.00  0.00     0.148 C 
HETATM    2  C   UNK A   1      14.955   3.277  36.660  1.00  0.00     0.166 C 
HETATM    3  C   UNK A   1      14.878   4.569  35.872  1.00  0.00     0.179 C 
HETATM    4  C   UNK A   1      13.874   4.427  34.741  1.00  0.00     0.173 C 
HETATM    5  C   UNK A   1      12.499   3.967  35.247  1.00  0.00     0.131 C 
HETATM    6  N   UNK A   1      12.595   2.789  36.132  1.00  0.00    -0.410 N 
ATOM      7  HN  UNK A   1      12.012   1.962  36.005  1.00  0.00     0.153 HD
ENDROOT
BRANCH   5   8
HETATM    8  C   UNK A   1      11.557   3.550  34.120  1.00  0.00     0.191 C 
BRANCH   8   9
HETATM    9  O   UNK A   1      11.089   4.698  33.359  1.00  0.00    -0.399 OA
ATOM     10  HO  UNK A   1      10.526   4.437  32.640  1.00  0.00     0.209 HD
ENDBRANCH   8   9
ENDBRANCH   5   8
BRANCH   4  11
HETATM   11  O   UNK A   1      13.770   5.659  34.016  1.00  0.00    -0.391 OA
ATOM     12  HO  UNK A   1      14.036   6.386  34.566  1.00  0.00     0.210 HD
ENDBRANCH   4  11
BRANCH   3  13
HETATM   13  O   UNK A   1      16.151   4.835  35.277  1.00  0.00    -0.390 OA
ATOM     14  HO  UNK A   1      16.642   5.423  35.839  1.00  0.00     0.210 HD
ENDBRANCH   3  13
BRANCH   2  15
HETATM   15  O   UNK A   1      15.863   3.386  37.748  1.00  0.00    -0.391 OA
ATOM     16  HO  UNK A   1      16.646   3.864  37.501  1.00  0.00     0.210 HD
ENDBRANCH   2  15
TORSDOF 5
ENDMDL
