REMARK  8 active torsions:
REMARK  status: ('A' for Active; 'I' for Inactive)
REMARK    1  A    between atoms: C_1  and  O_10 
REMARK    2  A    between atoms: C_2  and  N_9 
REMARK    3  A    between atoms: C_3  and  O_11 
REMARK    4  A    between atoms: C_4  and  O_12 
REMARK    5  A    between atoms: C_5  and  C_6 
REMARK    6  A    between atoms: C_6  and  O_14 
REMARK       I    between atoms: C_7  and  N_9 
REMARK    7  A    between atoms: O_12  and  S_16 
REMARK    8  A    between atoms: S_16  and  O_18 
ROOT
HETATM    1  C   UNL     1      -0.026   0.644  -1.354  1.00  0.00     0.282 C 
HETATM    2  C   UNL     1       1.038  -0.006  -0.436  1.00  0.00     0.170 C 
HETATM    3  C   UNL     1       0.453  -1.248   0.290  1.00  0.00     0.178 C 
HETATM    4  C   UNL     1      -1.077  -1.141   0.450  1.00  0.00     0.206 C 
HETATM    5  C   UNL     1      -1.708  -0.966  -0.975  1.00  0.00     0.181 C 
HETATM    6  O   UNL     1      -0.846  -0.354  -1.933  1.00  0.00    -0.349 OA
ENDROOT
BRANCH   4   7
HETATM    7  O   UNL     1      -1.390  -0.028   1.274  1.00  0.00    -0.253 OA
BRANCH   7   8
HETATM    8  S   UNL     1      -2.071  -0.537   2.746  1.00  0.00     0.240 S 
HETATM    9  O   UNL     1      -3.380  -1.236   2.507  1.00  0.00    -0.579 OA
HETATM   10  O   UNL     1      -1.133  -1.464   3.466  1.00  0.00    -0.579 OA
BRANCH   8  11
HETATM   11  O   UNL     1      -2.341   0.812   3.711  1.00  0.00    -0.274 OA
HETATM   12  H   UNL     1      -2.835   1.444   3.130  1.00  0.00     0.234 HD
ENDBRANCH   8  11
ENDBRANCH   7   8
ENDBRANCH   4   7
BRANCH   3  13
HETATM   13  O   UNL     1       1.089  -1.470   1.525  1.00  0.00    -0.391 OA
HETATM   14  H   UNL     1       0.996  -0.645   2.069  1.00  0.00     0.210 HD
ENDBRANCH   3  13
BRANCH   5  15
HETATM   15  C   UNL     1      -3.075  -0.264  -0.974  1.00  0.00     0.199 C 
BRANCH  15  16
HETATM   16  O   UNL     1      -4.009  -1.031  -0.267  1.00  0.00    -0.398 OA
HETATM   17  H   UNL     1      -4.857  -0.516  -0.282  1.00  0.00     0.209 HD
ENDBRANCH  15  16
ENDBRANCH   5  15
BRANCH   2  18
HETATM   18  N   UNL     1       2.219  -0.410  -1.208  1.00  0.00    -0.349 N 
HETATM   19  C   UNL     1       3.543  -0.399  -0.656  1.00  0.00     0.214 C 
HETATM   20  C   UNL     1       4.688  -0.927  -1.456  1.00  0.00     0.117 C 
HETATM   21  O   UNL     1       3.745   0.028   0.513  1.00  0.00    -0.274 OA
HETATM   22  H   UNL     1       2.077  -0.864  -2.139  1.00  0.00     0.163 HD
ENDBRANCH   2  18
BRANCH   1  23
HETATM   23  O   UNL     1       0.599   1.382  -2.371  1.00  0.00    -0.369 OA
HETATM   24  H   UNL     1      -0.126   1.839  -2.873  1.00  0.00     0.212 HD
ENDBRANCH   1  23
TORSDOF 8
