REMARK  3 active torsions:
REMARK  status: ('A' for Active; 'I' for Inactive)
REMARK       I    between atoms: C_1  and  N_13 
REMARK    1  A    between atoms: C_1  and  C_19 
REMARK    2  A    between atoms: C_2  and  N_13 
REMARK    3  A    between atoms: N_20  and  C_27 
ROOT
HETATM    1  C   UNL     1      23.951  13.891 -25.866  1.00  0.00     0.111 A 
HETATM    2  C   UNL     1      26.977  15.950 -28.473  1.00  0.00     0.183 A 
HETATM    3  C   UNL     1      27.400  14.071 -27.157  1.00  0.00     0.132 A 
HETATM    4  C   UNL     1      26.049  14.093 -26.730  1.00  0.00     0.066 A 
HETATM    5  C   UNL     1      25.188  13.296 -25.841  1.00  0.00     0.065 A 
HETATM    6  N   UNL     1      23.967  14.930 -26.709  1.00  0.00    -0.332 N 
HETATM    7  C   UNL     1      25.204  15.102 -27.249  1.00  0.00     0.123 A 
HETATM    8  N   UNL     1      25.702  15.996 -28.116  1.00  0.00    -0.338 N 
ATOM      9  HN  UNL     1      25.094  16.717 -28.504  1.00  0.00     0.168 HD
HETATM   10  N   UNL     1      27.812  15.013 -28.027  1.00  0.00    -0.340 N 
ATOM     11  HN  UNL     1      28.780  15.009 -28.350  1.00  0.00     0.167 HD
HETATM   12  N   UNL     1      28.299  13.107 -26.743  1.00  0.00    -0.082 NA
ENDROOT
BRANCH   5  13
HETATM   13  C   UNL     1      25.599  12.189 -24.973  1.00  0.00     0.259 C 
HETATM   14  O   UNL     1      26.799  12.048 -24.779  1.00  0.00    -0.267 OA
HETATM   15  N   UNL     1      24.678  11.428 -24.350  1.00  0.00    -0.308 N 
ATOM     16  HN  UNL     1      23.697  11.595 -24.574  1.00  0.00     0.170 HD
BRANCH  15  17
HETATM   17  C   UNL     1      24.964  10.441 -23.433  1.00  0.00     0.124 A 
HETATM   18  N   UNL     1      24.098   9.464 -23.228  1.00  0.00    -0.285 N 
HETATM   19  N   UNL     1      24.607   8.661 -22.218  1.00  0.00    -0.304 N 
ATOM     20  HN  UNL     1      23.216   9.326 -23.722  1.00  0.00     0.188 HD
HETATM   21  C   UNL     1      25.727   9.172 -21.786  1.00  0.00     0.025 A 
ATOM     22  HN  UNL     1      24.174   7.806 -21.868  1.00  0.00     0.186 HD
HETATM   23  C   UNL     1      26.576   8.607 -20.680  1.00  0.00     0.070 C 
HETATM   24  C   UNL     1      25.979  10.325 -22.518  1.00  0.00     0.076 A 
ENDBRANCH  15  17
ENDBRANCH   5  13
BRANCH   6  25
HETATM   25  C   UNL     1      22.832  15.781 -27.037  1.00  0.00     0.035 A 
HETATM   26  C   UNL     1      22.208  15.494 -28.405  1.00  0.00     0.039 C 
HETATM   27  C   UNL     1      22.947  17.226 -26.562  1.00  0.00     0.033 A 
HETATM   28  C   UNL     1      21.922  16.294 -25.921  1.00  0.00     0.033 A 
ENDBRANCH   6  25
TORSDOF 3
