REMARK  3 active torsions:
REMARK  status: ('A' for Active; 'I' for Inactive)
REMARK    1  A    between atoms: S_2  and  N_4 
REMARK    2  A    between atoms: S_2  and  C_5 
REMARK    3  A    between atoms: C_10  and  C_11 
ROOT
HETATM    1  C   UNL     1      -1.456   0.874  -0.160  1.00  0.00     0.074 A 
HETATM    2  C   UNL     1      -0.728   0.953   1.034  1.00  0.00     0.025 A 
HETATM    3  C   UNL     1       0.623   0.590   1.060  1.00  0.00     0.009 A 
HETATM    4  C   UNL     1      -0.828   0.413  -1.325  1.00  0.00     0.025 A 
HETATM    5  C   UNL     1       0.522   0.051  -1.300  1.00  0.00     0.009 A 
HETATM    6  C   UNL     1       1.260   0.149  -0.110  1.00  0.00    -0.058 A 
ENDROOT
BRANCH   1   7
HETATM    7  S   UNL     1      -3.161   1.312  -0.188  1.00  0.00     0.239 S 
HETATM    8  O   UNL     1      -3.529   1.840  -1.547  1.00  0.00    -0.206 OA
HETATM    9  O   UNL     1      -3.428   2.384   0.832  1.00  0.00    -0.206 OA
BRANCH   7  10
HETATM   10  N   UNL     1      -4.124  -0.077   0.171  1.00  0.00    -0.225 NA
HETATM   11  H   UNL     1      -3.808  -0.436   1.100  1.00  0.00     0.136 HD
HETATM   12  H   UNL     1      -3.878  -0.809  -0.533  1.00  0.00     0.136 HD
ENDBRANCH   7  10
ENDBRANCH   1   7
BRANCH   6  13
HETATM   13  C   UNL     1       2.704  -0.274  -0.075  1.00  0.00     0.034 C 
HETATM   14  C   UNL     1       2.825  -1.757   0.259  1.00  0.00     0.010 C 
ENDBRANCH   6  13
TORSDOF 3
