REMARK  8 active torsions:
REMARK  status: ('A' for Active; 'I' for Inactive)
REMARK    1  A    between atoms: C_2  and  C_14 
REMARK    2  A    between atoms: C_11  and  C_12 
REMARK    3  A    between atoms: C_11  and  O_26 
REMARK    4  A    between atoms: C_12  and  C_16 
REMARK    5  A    between atoms: C_14  and  N_20 
REMARK    6  A    between atoms: O_26  and  P_29 
REMARK    7  A    between atoms: O_27  and  P_28 
REMARK    8  A    between atoms: O_27  and  P_29 
ROOT
HETATM    1  C   UNL     1      65.669 101.796  89.050  1.00  0.00     0.069 C 
HETATM    2  C   UNL     1      68.440 101.841  86.641  1.00  0.00     0.141 C 
HETATM    3  C   UNL     1      66.959 101.577  88.341  1.00  0.00     0.021 C 
HETATM    4  C   UNL     1      68.058 101.026  88.890  1.00  0.00     0.008 C 
HETATM    5  N   UNL     1      67.169 101.907  87.002  1.00  0.00    -0.349 N 
HETATM    6  S   UNL     1      69.364 100.952  87.765  1.00  0.00    -0.087 SA
ENDROOT
BRANCH   5   7
HETATM    7  C   UNL     1      66.118 102.248  86.034  1.00  0.00     0.172 C 
BRANCH   7   8
HETATM    8  C   UNL     1      65.324 101.032  85.587  1.00  0.00     0.019 A 
HETATM    9  C   UNL     1      65.847 100.021  84.725  1.00  0.00     0.109 A 
HETATM   10  N   UNL     1      67.082 100.132  84.186  1.00  0.00    -0.385 N 
HETATM   11  N   UNL     1      65.100  98.939  84.350  1.00  0.00    -0.332 N 
ATOM     12  HN2 UNL     1      67.639 100.939  84.466  1.00  0.00     0.157 HD
ATOM     13  HN1 UNL     1      67.456  99.410  83.570  1.00  0.00     0.157 HD
HETATM   14  C   UNL     1      63.850  98.851  84.834  1.00  0.00     0.078 A 
ATOM     15  HN  UNL     1      65.478  98.226  83.726  1.00  0.00     0.168 HD
HETATM   16  C   UNL     1      63.025  97.684  84.407  1.00  0.00     0.089 C 
HETATM   17  N   UNL     1      63.292  99.731  85.676  1.00  0.00    -0.355 N 
HETATM   18  C   UNL     1      64.042 100.801  86.040  1.00  0.00     0.102 A 
ATOM     19  HN  UNL     1      62.344  99.602  86.028  1.00  0.00     0.166 HD
ENDBRANCH   7   8
ENDBRANCH   5   7
BRANCH   4  20
HETATM   20  C   UNL     1      68.193 100.458  90.276  1.00  0.00     0.075 C 
BRANCH  20  21
HETATM   21  C   UNL     1      69.569 100.444  90.745  1.00  0.00     0.186 C 
BRANCH  21  22
HETATM   22  O   UNL     1      69.616  99.618  91.930  1.00  0.00    -0.289 OA
BRANCH  22  23
HETATM   23  P   UNL     1      70.520  98.322  91.961  1.00  0.00     0.418 P 
HETATM   24  O   UNL     1      70.061  97.339  90.941  1.00  0.00    -0.624 OA
HETATM   25  O   UNL     1      70.610  97.925  93.390  1.00  0.00    -0.624 OA
BRANCH  23  26
HETATM   26  O   UNL     1      71.961  98.842  91.497  1.00  0.00    -0.173 OA
BRANCH  26  27
HETATM   27  P   UNL     1      73.105  99.629  92.311  1.00  0.00     0.431 P 
HETATM   28  O   UNL     1      74.360  99.549  91.512  1.00  0.00    -0.616 OA
HETATM   29  O   UNL     1      72.676 101.075  92.420  1.00  0.00    -0.616 OA
HETATM   30  O   UNL     1      73.212  98.956  93.702  1.00  0.00    -0.616 OA
ENDBRANCH  26  27
ENDBRANCH  23  26
ENDBRANCH  22  23
ENDBRANCH  21  22
ENDBRANCH  20  21
ENDBRANCH   4  20
TORSDOF 8
