REMARK  5 active torsions:
REMARK  status: ('A' for Active; 'I' for Inactive)
REMARK    1  A    between atoms: C_2  and  C_3 
REMARK    2  A    between atoms: O_7  and  C_12 
REMARK    3  A    between atoms: C_12  and  C_30 
REMARK    4  A    between atoms: C_17  and  S_18 
REMARK    5  A    between atoms: S_18  and  N_20 
ROOT
HETATM    1  C   UNL     1      -5.792   2.382 -13.515  1.00  0.00    -0.008 A 
HETATM    2  C   UNL     1      -5.624   3.770 -13.844  1.00  0.00     0.062 A 
HETATM    3  C   UNL     1      -6.231   1.517 -14.521  1.00  0.00     0.030 A 
HETATM    4  N   UNL     1      -4.285   5.856 -11.255  1.00  0.00    -0.227 N 
ATOM      5  HN  UNL     1      -3.601   6.194 -10.578  1.00  0.00     0.210 HD
HETATM    6  N   UNL     1      -5.422   6.375 -11.424  1.00  0.00    -0.227 N 
ATOM      7  HN  UNL     1      -5.810   7.169 -10.916  1.00  0.00     0.210 HD
HETATM    8  N   UNL     1      -6.042   5.655 -12.436  1.00  0.00    -0.268 N 
ATOM      9  HN  UNL     1      -6.975   5.827 -12.810  1.00  0.00     0.190 HD
HETATM   10  C   UNL     1      -5.851   4.151 -15.209  1.00  0.00     0.163 A 
HETATM   11  C   UNL     1      -5.208   4.705 -12.830  1.00  0.00     0.151 A 
HETATM   12  N   UNL     1      -4.080   4.825 -12.054  1.00  0.00    -0.268 N 
ATOM     13  HN  UNL     1      -3.249   4.235 -12.088  1.00  0.00     0.190 HD
HETATM   14  N   UNL     1      -6.298   3.337 -16.125  1.00  0.00    -0.354 N 
ATOM     15  HN  UNL     1      -6.475   3.670 -17.073  1.00  0.00     0.166 HD
HETATM   16  C   UNL     1      -6.527   2.018 -15.790  1.00  0.00     0.090 A 
ENDROOT
BRANCH   1  17
HETATM   17  C   UNL     1      -5.400   1.866 -12.172  1.00  0.00    -0.025 A 
HETATM   18  C   UNL     1      -4.152   1.256 -11.945  1.00  0.00     0.013 A 
HETATM   19  C   UNL     1      -3.789   0.781 -10.684  1.00  0.00     0.010 A 
HETATM   20  C   UNL     1      -4.645   0.910  -9.586  1.00  0.00    -0.035 A 
HETATM   21  C   UNL     1      -5.892   1.532  -9.793  1.00  0.00     0.010 A 
HETATM   22  C   UNL     1      -6.250   1.991 -11.066  1.00  0.00     0.013 A 
BRANCH  20  23
HETATM   23  C   UNL     1      -4.212   0.382  -8.240  1.00  0.00     0.202 C 
BRANCH  23  24
HETATM   24  O   UNL     1      -2.896   0.696  -7.843  1.00  0.00    -0.396 OA
ATOM     25  HO  UNL     1      -2.623   0.364  -6.996  1.00  0.00     0.209 HD
ENDBRANCH  23  24
ENDBRANCH  20  23
ENDBRANCH   1  17
BRANCH  10  26
HETATM   26  S   UNL     1      -5.666   5.759 -15.948  1.00  0.00     0.273 S 
HETATM   27  O   UNL     1      -5.752   5.656 -17.384  1.00  0.00    -0.199 OA
HETATM   28  O   UNL     1      -4.411   6.233 -15.412  1.00  0.00    -0.199 OA
BRANCH  26  29
HETATM   29  N   UNL     1      -6.841   6.767 -15.476  1.00  0.00    -0.323 N 
ATOM     30  HN2 UNL     1      -7.508   7.234 -16.090  1.00  0.00     0.169 HD
ATOM     31  HN1 UNL     1      -6.780   6.840 -14.460  1.00  0.00     0.169 HD
ENDBRANCH  26  29
ENDBRANCH  10  26
TORSDOF 5
