MODEL 1
REMARK VINA RESULT:    -8.688      0.000      0.000
REMARK INTER + INTRA:         -11.478
REMARK INTER:                 -10.720
REMARK INTRA:                  -0.758
REMARK UNBOUND:                -0.758
REMARK  4 active torsions:
REMARK  status: ('A' for Active; 'I' for Inactive)
REMARK    1  A    between atoms: C_3  and  N_20 
REMARK    2  A    between atoms: C_13  and  N_15 
REMARK    3  A    between atoms: N_20  and  C_22 
REMARK    4  A    between atoms: C_23  and  C_33 
ROOT
HETATM    1  C   UNL     1     -39.273-115.779 222.141  1.00  0.00     0.075 A 
HETATM    2  C   UNL     1     -37.567-111.187 221.515  1.00  0.00     0.147 C 
HETATM    3  C   UNL     1     -37.221-109.863 222.250  1.00  0.00     0.101 C 
HETATM    4  C   UNL     1     -37.390-111.626 223.893  1.00  0.00     0.220 C 
HETATM    5  C   UNL     1     -39.032-115.244 223.407  1.00  0.00     0.124 A 
HETATM    6  C   UNL     1     -38.892-115.046 221.037  1.00  0.00     0.036 A 
HETATM    7  N   UNL     1     -38.287-113.886 221.191  1.00  0.00    -0.195 N 
ATOM      8  HN  UNL     1     -37.981-113.357 220.375  1.00  0.00     0.184 HD
HETATM    9  C   UNL     1     -38.077-113.408 222.409  1.00  0.00     0.682 A 
HETATM   10  N   UNL     1     -38.428-114.066 223.495  1.00  0.00    -0.176 N 
ATOM     11  HN  UNL     1     -38.234-113.665 224.413  1.00  0.00     0.186 HD
HETATM   12  N   UNL     1     -37.435-112.214 222.560  1.00  0.00    -0.212 N 
HETATM   13  C   UNL     1     -36.618-110.330 223.608  1.00  0.00     0.261 C 
HETATM   14  F   UNL     1     -36.824-109.414 224.641  1.00  0.00    -0.204 F 
HETATM   15  F   UNL     1     -35.262-110.583 223.448  1.00  0.00    -0.204 F 
ENDROOT
BRANCH   5  16
HETATM   16  N   UNL     1     -39.416-115.994 224.504  1.00  0.00    -0.328 N 
ATOM     17  HN  UNL     1     -39.373-117.005 224.382  1.00  0.00     0.169 HD
BRANCH  16  18
HETATM   18  C   UNL     1     -39.855-115.558 225.756  1.00  0.00     0.108 A 
HETATM   19  N   UNL     1     -40.217-116.519 226.592  1.00  0.00    -0.351 N 
HETATM   20  C   UNL     1     -40.655-116.266 227.804  1.00  0.00     0.104 A 
ATOM     21  HN  UNL     1     -40.153-117.489 226.284  1.00  0.00     0.166 HD
HETATM   22  C   UNL     1     -40.780-114.951 228.247  1.00  0.00     0.025 A 
HETATM   23  C   UNL     1     -40.424-113.894 227.384  1.00  0.00     0.067 A 
HETATM   24  C   UNL     1     -41.231-114.338 229.484  1.00  0.00     0.122 A 
HETATM   25  N   UNL     1     -40.651-112.746 228.069  1.00  0.00    -0.288 N 
HETATM   26  C   UNL     1     -39.953-114.217 226.111  1.00  0.00     0.080 A 
HETATM   27  N   UNL     1     -41.150-113.049 229.342  1.00  0.00    -0.308 N 
ATOM     28  HN  UNL     1     -41.411-112.362 230.051  1.00  0.00     0.186 HD
BRANCH  25  29
HETATM   29  C   UNL     1     -40.444-111.390 227.569  1.00  0.00     0.100 C 
HETATM   30  C   UNL     1     -40.042-110.485 228.735  1.00  0.00     0.034 C 
HETATM   31  C   UNL     1     -41.769-110.945 226.956  1.00  0.00     0.034 C 
ENDBRANCH  25  29
ENDBRANCH  16  18
ENDBRANCH   5  16
BRANCH   6  32
HETATM   32  C   UNL     1     -39.155-115.575 219.655  1.00  0.00     0.063 C 
HETATM   33  C   UNL     1     -39.244-114.398 218.663  1.00  0.00     0.243 C 
HETATM   34  N   UNL     1     -38.709-114.904 217.383  1.00  0.00    -0.074 N 
HETATM   35  C   UNL     1     -38.142-116.252 217.599  1.00  0.00     0.233 C 
ATOM     36  HN2 UNL     1     -38.036-114.262 216.963  1.00  0.00     0.277 HD
ATOM     37  HN1 UNL     1     -39.405-114.889 216.639  1.00  0.00     0.277 HD
HETATM   38  C   UNL     1     -37.922-116.352 219.128  1.00  0.00     0.040 C 
ENDBRANCH   6  32
TORSDOF 4
ENDMDL
MODEL 2
REMARK VINA RESULT:    -8.650      1.380      1.933
REMARK INTER + INTRA:         -11.431
REMARK INTER:                 -10.810
REMARK INTRA:                  -0.620
REMARK UNBOUND:                -0.758
REMARK  4 active torsions:
REMARK  status: ('A' for Active; 'I' for Inactive)
REMARK    1  A    between atoms: C_3  and  N_20 
REMARK    2  A    between atoms: C_13  and  N_15 
REMARK    3  A    between atoms: N_20  and  C_22 
REMARK    4  A    between atoms: C_23  and  C_33 
ROOT
HETATM    1  C   UNL     1     -38.970-115.273 220.336  1.00  0.00     0.075 A 
HETATM    2  C   UNL     1     -37.221-110.728 221.161  1.00  0.00     0.147 C 
HETATM    3  C   UNL     1     -37.016-109.637 222.248  1.00  0.00     0.101 C 
HETATM    4  C   UNL     1     -37.447-111.743 223.351  1.00  0.00     0.220 C 
HETATM    5  C   UNL     1     -38.952-115.073 221.717  1.00  0.00     0.124 A 
HETATM    6  C   UNL     1     -38.412-114.304 219.528  1.00  0.00     0.036 A 
HETATM    7  N   UNL     1     -37.853-113.239 220.063  1.00  0.00    -0.195 N 
ATOM      8  HN  UNL     1     -37.417-112.537 219.466  1.00  0.00     0.184 HD
HETATM    9  C   UNL     1     -37.857-113.082 221.379  1.00  0.00     0.682 A 
HETATM   10  N   UNL     1     -38.382-113.974 222.194  1.00  0.00    -0.176 N 
ATOM     11  HN  UNL     1     -38.350-113.818 223.201  1.00  0.00     0.186 HD
HETATM   12  N   UNL     1     -37.260-111.984 221.926  1.00  0.00    -0.212 N 
HETATM   13  C   UNL     1     -36.649-110.444 223.529  1.00  0.00     0.261 C 
HETATM   14  F   UNL     1     -37.035-109.803 224.707  1.00  0.00    -0.204 F 
HETATM   15  F   UNL     1     -35.284-110.696 223.539  1.00  0.00    -0.204 F 
ENDROOT
BRANCH   5  16
HETATM   16  N   UNL     1     -39.511-116.055 222.515  1.00  0.00    -0.328 N 
ATOM     17  HN  UNL     1     -39.821-116.895 222.025  1.00  0.00     0.169 HD
BRANCH  16  18
HETATM   18  C   UNL     1     -39.711-116.057 223.897  1.00  0.00     0.108 A 
HETATM   19  N   UNL     1     -40.378-117.099 224.367  1.00  0.00    -0.351 N 
HETATM   20  C   UNL     1     -40.648-117.240 225.645  1.00  0.00     0.104 A 
ATOM     21  HN  UNL     1     -40.694-117.818 223.715  1.00  0.00     0.166 HD
HETATM   22  C   UNL     1     -40.255-116.265 226.559  1.00  0.00     0.025 A 
HETATM   23  C   UNL     1     -39.558-115.128 226.100  1.00  0.00     0.067 A 
HETATM   24  C   UNL     1     -40.401-116.106 227.996  1.00  0.00     0.122 A 
HETATM   25  N   UNL     1     -39.314-114.361 227.191  1.00  0.00    -0.288 N 
HETATM   26  C   UNL     1     -39.287-115.032 224.735  1.00  0.00     0.080 A 
HETATM   27  N   UNL     1     -39.847-114.980 228.330  1.00  0.00    -0.308 N 
ATOM     28  HN  UNL     1     -39.806-114.603 229.277  1.00  0.00     0.186 HD
BRANCH  25  29
HETATM   29  C   UNL     1     -38.631-113.071 227.201  1.00  0.00     0.100 C 
HETATM   30  C   UNL     1     -37.689-113.015 228.405  1.00  0.00     0.034 C 
HETATM   31  C   UNL     1     -39.716-112.003 227.301  1.00  0.00     0.034 C 
ENDBRANCH  25  29
ENDBRANCH  16  18
ENDBRANCH   5  16
BRANCH   6  32
HETATM   32  C   UNL     1     -38.432-114.468 218.034  1.00  0.00     0.063 C 
HETATM   33  C   UNL     1     -38.050-115.917 217.672  1.00  0.00     0.243 C 
HETATM   34  N   UNL     1     -38.810-116.245 216.450  1.00  0.00    -0.074 N 
HETATM   35  C   UNL     1     -39.756-115.145 216.163  1.00  0.00     0.233 C 
ATOM     36  HN2 UNL     1     -39.275-117.151 216.512  1.00  0.00     0.277 HD
ATOM     37  HN1 UNL     1     -38.202-116.451 215.658  1.00  0.00     0.277 HD
HETATM   38  C   UNL     1     -39.882-114.370 217.497  1.00  0.00     0.040 C 
ENDBRANCH   6  32
TORSDOF 4
ENDMDL
MODEL 3
REMARK VINA RESULT:    -8.410      3.656      8.334
REMARK INTER + INTRA:         -11.134
REMARK INTER:                 -10.149
REMARK INTRA:                  -0.985
REMARK UNBOUND:                -0.758
REMARK  4 active torsions:
REMARK  status: ('A' for Active; 'I' for Inactive)
REMARK    1  A    between atoms: C_3  and  N_20 
REMARK    2  A    between atoms: C_13  and  N_15 
REMARK    3  A    between atoms: N_20  and  C_22 
REMARK    4  A    between atoms: C_23  and  C_33 
ROOT
HETATM    1  C   UNL     1     -38.376-111.290 228.184  1.00  0.00     0.075 A 
HETATM    2  C   UNL     1     -39.841-115.597 226.262  1.00  0.00     0.147 C 
HETATM    3  C   UNL     1     -40.070-116.369 224.933  1.00  0.00     0.101 C 
HETATM    4  C   UNL     1     -38.671-114.454 224.473  1.00  0.00     0.220 C 
HETATM    5  C   UNL     1     -38.068-111.270 226.822  1.00  0.00     0.124 A 
HETATM    6  C   UNL     1     -38.861-112.461 228.727  1.00  0.00     0.036 A 
HETATM    7  N   UNL     1     -38.995-113.533 227.974  1.00  0.00    -0.195 N 
ATOM      8  HN  UNL     1     -39.328-114.406 228.383  1.00  0.00     0.184 HD
HETATM    9  C   UNL     1     -38.695-113.476 226.685  1.00  0.00     0.682 A 
HETATM   10  N   UNL     1     -38.235-112.380 226.115  1.00  0.00    -0.176 N 
ATOM     11  HN  UNL     1     -38.005-112.386 225.122  1.00  0.00     0.186 HD
HETATM   12  N   UNL     1     -38.821-114.595 225.915  1.00  0.00    -0.212 N 
HETATM   13  C   UNL     1     -38.899-115.902 224.018  1.00  0.00     0.261 C 
HETATM   14  F   UNL     1     -39.222-115.932 222.661  1.00  0.00    -0.204 F 
HETATM   15  F   UNL     1     -37.780-116.685 224.267  1.00  0.00    -0.204 F 
ENDROOT
BRANCH   5  16
HETATM   16  N   UNL     1     -37.579-110.089 226.293  1.00  0.00    -0.328 N 
ATOM     17  HN  UNL     1     -37.041-109.509 226.936  1.00  0.00     0.169 HD
BRANCH  16  18
HETATM   18  C   UNL     1     -37.719-109.581 224.999  1.00  0.00     0.108 A 
HETATM   19  N   UNL     1     -36.587-109.252 224.398  1.00  0.00    -0.351 N 
HETATM   20  C   UNL     1     -36.557-108.757 223.182  1.00  0.00     0.104 A 
ATOM     21  HN  UNL     1     -35.707-109.386 224.897  1.00  0.00     0.166 HD
HETATM   22  C   UNL     1     -37.741-108.536 222.483  1.00  0.00     0.025 A 
HETATM   23  C   UNL     1     -38.973-108.854 223.091  1.00  0.00     0.067 A 
HETATM   24  C   UNL     1     -38.056-108.005 221.168  1.00  0.00     0.122 A 
HETATM   25  N   UNL     1     -39.938-108.534 222.194  1.00  0.00    -0.288 N 
HETATM   26  C   UNL     1     -38.949-109.388 224.379  1.00  0.00     0.080 A 
HETATM   27  N   UNL     1     -39.349-108.011 221.036  1.00  0.00    -0.308 N 
ATOM     28  HN  UNL     1     -39.857-107.684 220.213  1.00  0.00     0.186 HD
BRANCH  25  29
HETATM   29  C   UNL     1     -41.377-108.673 222.393  1.00  0.00     0.100 C 
HETATM   30  C   UNL     1     -41.743-110.159 222.363  1.00  0.00     0.034 C 
HETATM   31  C   UNL     1     -42.050-107.918 221.250  1.00  0.00     0.034 C 
ENDBRANCH  25  29
ENDBRANCH  16  18
ENDBRANCH   5  16
BRANCH   6  32
HETATM   32  C   UNL     1     -39.226-112.519 230.184  1.00  0.00     0.063 C 
HETATM   33  C   UNL     1     -39.450-111.089 230.714  1.00  0.00     0.243 C 
HETATM   34  N   UNL     1     -40.498-111.197 231.748  1.00  0.00    -0.074 N 
HETATM   35  C   UNL     1     -41.039-112.573 231.740  1.00  0.00     0.233 C 
ATOM     36  HN2 UNL     1     -41.227-110.492 231.637  1.00  0.00     0.277 HD
ATOM     37  HN1 UNL     1     -40.165-110.916 232.669  1.00  0.00     0.277 HD
HETATM   38  C   UNL     1     -40.627-113.156 230.366  1.00  0.00     0.040 C 
ENDBRANCH   6  32
TORSDOF 4
ENDMDL
MODEL 4
REMARK VINA RESULT:    -8.196      4.531      8.022
REMARK INTER + INTRA:         -10.870
REMARK INTER:                  -9.907
REMARK INTRA:                  -0.963
REMARK UNBOUND:                -0.758
REMARK  4 active torsions:
REMARK  status: ('A' for Active; 'I' for Inactive)
REMARK    1  A    between atoms: C_3  and  N_20 
REMARK    2  A    between atoms: C_13  and  N_15 
REMARK    3  A    between atoms: N_20  and  C_22 
REMARK    4  A    between atoms: C_23  and  C_33 
ROOT
HETATM    1  C   UNL     1     -38.906-108.875 226.643  1.00  0.00     0.075 A 
HETATM    2  C   UNL     1     -39.222-104.986 229.670  1.00  0.00     0.147 C 
HETATM    3  C   UNL     1     -38.897-104.476 231.101  1.00  0.00     0.101 C 
HETATM    4  C   UNL     1     -37.592-106.466 230.685  1.00  0.00     0.220 C 
HETATM    5  C   UNL     1     -38.137-109.158 227.773  1.00  0.00     0.124 A 
HETATM    6  C   UNL     1     -39.453-107.615 226.523  1.00  0.00     0.036 A 
HETATM    7  N   UNL     1     -39.219-106.703 227.443  1.00  0.00    -0.195 N 
ATOM      8  HN  UNL     1     -39.601-105.763 227.339  1.00  0.00     0.184 HD
HETATM    9  C   UNL     1     -38.486-107.008 228.504  1.00  0.00     0.682 A 
HETATM   10  N   UNL     1     -37.946-108.198 228.670  1.00  0.00    -0.176 N 
ATOM     11  HN  UNL     1     -37.378-108.385 229.495  1.00  0.00     0.186 HD
HETATM   12  N   UNL     1     -38.234-106.052 229.444  1.00  0.00    -0.212 N 
HETATM   13  C   UNL     1     -37.520-105.126 231.431  1.00  0.00     0.261 C 
HETATM   14  F   UNL     1     -37.334-105.349 232.796  1.00  0.00    -0.204 F 
HETATM   15  F   UNL     1     -36.502-104.329 230.927  1.00  0.00    -0.204 F 
ENDROOT
BRANCH   5  16
HETATM   16  N   UNL     1     -37.592-110.425 227.877  1.00  0.00    -0.328 N 
ATOM     17  HN  UNL     1     -36.579-110.460 227.996  1.00  0.00     0.169 HD
BRANCH  16  18
HETATM   18  C   UNL     1     -38.235-111.664 227.843  1.00  0.00     0.108 A 
HETATM   19  N   UNL     1     -38.759-112.058 228.994  1.00  0.00    -0.351 N 
HETATM   20  C   UNL     1     -39.392-113.202 229.121  1.00  0.00     0.104 A 
ATOM     21  HN  UNL     1     -38.667-111.452 229.810  1.00  0.00     0.166 HD
HETATM   22  C   UNL     1     -39.511-114.064 228.034  1.00  0.00     0.025 A 
HETATM   23  C   UNL     1     -38.952-113.695 226.793  1.00  0.00     0.067 A 
HETATM   24  C   UNL     1     -40.116-115.371 227.839  1.00  0.00     0.122 A 
HETATM   25  N   UNL     1     -39.213-114.713 225.936  1.00  0.00    -0.288 N 
HETATM   26  C   UNL     1     -38.301-112.465 226.708  1.00  0.00     0.080 A 
HETATM   27  N   UNL     1     -39.916-115.723 226.605  1.00  0.00    -0.308 N 
ATOM     28  HN  UNL     1     -40.224-116.601 226.187  1.00  0.00     0.186 HD
BRANCH  25  29
HETATM   29  C   UNL     1     -38.808-114.783 224.535  1.00  0.00     0.100 C 
HETATM   30  C   UNL     1     -39.837-114.038 223.681  1.00  0.00     0.034 C 
HETATM   31  C   UNL     1     -38.758-116.264 224.169  1.00  0.00     0.034 C 
ENDBRANCH  25  29
ENDBRANCH  16  18
ENDBRANCH   5  16
BRANCH   6  32
HETATM   32  C   UNL     1     -40.308-107.277 225.333  1.00  0.00     0.063 C 
HETATM   33  C   UNL     1     -41.581-108.146 225.352  1.00  0.00     0.243 C 
HETATM   34  N   UNL     1     -42.649-107.315 224.763  1.00  0.00    -0.074 N 
HETATM   35  C   UNL     1     -42.135-105.945 224.559  1.00  0.00     0.233 C 
ATOM     36  HN2 UNL     1     -43.504-107.331 225.319  1.00  0.00     0.277 HD
ATOM     37  HN1 UNL     1     -43.028-107.720 223.907  1.00  0.00     0.277 HD
HETATM   38  C   UNL     1     -40.888-105.847 225.472  1.00  0.00     0.040 C 
ENDBRANCH   6  32
TORSDOF 4
ENDMDL
MODEL 5
REMARK VINA RESULT:    -8.179      3.481      8.372
REMARK INTER + INTRA:         -10.849
REMARK INTER:                  -9.892
REMARK INTRA:                  -0.957
REMARK UNBOUND:                -0.758
REMARK  4 active torsions:
REMARK  status: ('A' for Active; 'I' for Inactive)
REMARK    1  A    between atoms: C_3  and  N_20 
REMARK    2  A    between atoms: C_13  and  N_15 
REMARK    3  A    between atoms: N_20  and  C_22 
REMARK    4  A    between atoms: C_23  and  C_33 
ROOT
HETATM    1  C   UNL     1     -41.211-111.427 227.859  1.00  0.00     0.075 A 
HETATM    2  C   UNL     1     -39.602-115.492 225.561  1.00  0.00     0.147 C 
HETATM    3  C   UNL     1     -39.644-116.281 224.224  1.00  0.00     0.101 C 
HETATM    4  C   UNL     1     -40.391-114.022 223.802  1.00  0.00     0.220 C 
HETATM    5  C   UNL     1     -41.531-111.301 226.507  1.00  0.00     0.124 A 
HETATM    6  C   UNL     1     -40.445-112.505 228.252  1.00  0.00     0.036 A 
HETATM    7  N   UNL     1     -40.008-113.366 227.357  1.00  0.00    -0.195 N 
ATOM      8  HN  UNL     1     -39.419-114.147 227.644  1.00  0.00     0.184 HD
HETATM    9  C   UNL     1     -40.334-113.215 226.081  1.00  0.00     0.682 A 
HETATM   10  N   UNL     1     -41.068-112.207 225.655  1.00  0.00    -0.176 N 
ATOM     11  HN  UNL     1     -41.283-112.124 224.662  1.00  0.00     0.186 HD
HETATM   12  N   UNL     1     -39.863-114.102 225.158  1.00  0.00    -0.212 N 
HETATM   13  C   UNL     1     -39.628-115.172 223.130  1.00  0.00     0.261 C 
HETATM   14  F   UNL     1     -40.277-115.555 221.955  1.00  0.00    -0.204 F 
HETATM   15  F   UNL     1     -38.315-114.809 222.861  1.00  0.00    -0.204 F 
ENDROOT
BRANCH   5  16
HETATM   16  N   UNL     1     -42.296-110.212 226.128  1.00  0.00    -0.328 N 
ATOM     17  HN  UNL     1     -43.256-110.208 226.474  1.00  0.00     0.169 HD
BRANCH  16  18
HETATM   18  C   UNL     1     -41.938-109.118 225.337  1.00  0.00     0.108 A 
HETATM   19  N   UNL     1     -42.436-107.955 225.726  1.00  0.00    -0.351 N 
HETATM   20  C   UNL     1     -42.192-106.837 225.082  1.00  0.00     0.104 A 
ATOM     21  HN  UNL     1     -43.031-107.927 226.555  1.00  0.00     0.166 HD
HETATM   22  C   UNL     1     -41.407-106.845 223.931  1.00  0.00     0.025 A 
HETATM   23  C   UNL     1     -40.871-108.064 223.468  1.00  0.00     0.067 A 
HETATM   24  C   UNL     1     -40.967-105.821 222.999  1.00  0.00     0.122 A 
HETATM   25  N   UNL     1     -40.167-107.772 222.347  1.00  0.00    -0.288 N 
HETATM   26  C   UNL     1     -41.150-109.221 224.195  1.00  0.00     0.080 A 
HETATM   27  N   UNL     1     -40.251-106.399 222.082  1.00  0.00    -0.308 N 
ATOM     28  HN  UNL     1     -39.817-105.925 221.290  1.00  0.00     0.186 HD
BRANCH  25  29
HETATM   29  C   UNL     1     -39.448-108.728 221.509  1.00  0.00     0.100 C 
HETATM   30  C   UNL     1     -38.038-108.921 222.071  1.00  0.00     0.034 C 
HETATM   31  C   UNL     1     -39.405-108.131 220.106  1.00  0.00     0.034 C 
ENDBRANCH  25  29
ENDBRANCH  16  18
ENDBRANCH   5  16
BRANCH   6  32
HETATM   32  C   UNL     1     -40.098-112.692 229.702  1.00  0.00     0.063 C 
HETATM   33  C   UNL     1     -39.888-111.315 230.362  1.00  0.00     0.243 C 
HETATM   34  N   UNL     1     -40.343-111.458 231.758  1.00  0.00    -0.074 N 
HETATM   35  C   UNL     1     -40.977-112.784 231.923  1.00  0.00     0.233 C 
ATOM     36  HN2 UNL     1     -40.955-110.696 232.047  1.00  0.00     0.277 HD
ATOM     37  HN1 UNL     1     -39.591-111.301 232.429  1.00  0.00     0.277 HD
HETATM   38  C   UNL     1     -41.316-113.245 230.484  1.00  0.00     0.040 C 
ENDBRANCH   6  32
TORSDOF 4
ENDMDL
MODEL 6
REMARK VINA RESULT:    -8.130      3.183      5.263
REMARK INTER + INTRA:         -10.789
REMARK INTER:                 -10.296
REMARK INTRA:                  -0.494
REMARK UNBOUND:                -0.758
REMARK  4 active torsions:
REMARK  status: ('A' for Active; 'I' for Inactive)
REMARK    1  A    between atoms: C_3  and  N_20 
REMARK    2  A    between atoms: C_13  and  N_15 
REMARK    3  A    between atoms: N_20  and  C_22 
REMARK    4  A    between atoms: C_23  and  C_33 
ROOT
HETATM    1  C   UNL     1     -38.362-113.521 222.017  1.00  0.00     0.075 A 
HETATM    2  C   UNL     1     -38.618-112.598 217.173  1.00  0.00     0.147 C 
HETATM    3  C   UNL     1     -38.903-113.233 215.784  1.00  0.00     0.101 C 
HETATM    4  C   UNL     1     -39.768-114.708 217.492  1.00  0.00     0.220 C 
HETATM    5  C   UNL     1     -38.932-114.638 221.405  1.00  0.00     0.124 A 
HETATM    6  C   UNL     1     -38.125-112.402 221.245  1.00  0.00     0.036 A 
HETATM    7  N   UNL     1     -38.463-112.394 219.973  1.00  0.00    -0.195 N 
ATOM      8  HN  UNL     1     -38.312-111.558 219.410  1.00  0.00     0.184 HD
HETATM    9  C   UNL     1     -38.999-113.475 219.425  1.00  0.00     0.682 A 
HETATM   10  N   UNL     1     -39.240-114.571 220.116  1.00  0.00    -0.176 N 
ATOM     11  HN  UNL     1     -39.667-115.374 219.657  1.00  0.00     0.186 HD
HETATM   12  N   UNL     1     -39.362-113.453 218.110  1.00  0.00    -0.212 N 
HETATM   13  C   UNL     1     -40.060-114.239 216.059  1.00  0.00     0.261 C 
HETATM   14  F   UNL     1     -40.054-115.331 215.189  1.00  0.00    -0.204 F 
HETATM   15  F   UNL     1     -41.277-113.573 215.992  1.00  0.00    -0.204 F 
ENDROOT
BRANCH   5  16
HETATM   16  N   UNL     1     -39.167-115.751 222.193  1.00  0.00    -0.328 N 
ATOM     17  HN  UNL     1     -39.154-116.646 221.705  1.00  0.00     0.169 HD
BRANCH  16  18
HETATM   18  C   UNL     1     -39.421-115.819 223.565  1.00  0.00     0.108 A 
HETATM   19  N   UNL     1     -40.229-116.798 223.940  1.00  0.00    -0.351 N 
HETATM   20  C   UNL     1     -40.564-116.988 225.196  1.00  0.00     0.104 A 
ATOM     21  HN  UNL     1     -40.604-117.427 223.229  1.00  0.00     0.166 HD
HETATM   22  C   UNL     1     -40.092-116.132 226.187  1.00  0.00     0.025 A 
HETATM   23  C   UNL     1     -39.244-115.063 225.832  1.00  0.00     0.067 A 
HETATM   24  C   UNL     1     -40.275-116.051 227.627  1.00  0.00     0.122 A 
HETATM   25  N   UNL     1     -38.952-114.406 226.982  1.00  0.00    -0.288 N 
HETATM   26  C   UNL     1     -38.908-114.912 224.487  1.00  0.00     0.080 A 
HETATM   27  N   UNL     1     -39.601-115.027 228.056  1.00  0.00    -0.308 N 
ATOM     28  HN  UNL     1     -39.552-114.722 229.029  1.00  0.00     0.186 HD
BRANCH  25  29
HETATM   29  C   UNL     1     -38.116-113.215 227.103  1.00  0.00     0.100 C 
HETATM   30  C   UNL     1     -37.683-113.057 228.562  1.00  0.00     0.034 C 
HETATM   31  C   UNL     1     -38.972-112.035 226.652  1.00  0.00     0.034 C 
ENDBRANCH  25  29
ENDBRANCH  16  18
ENDBRANCH   5  16
BRANCH   6  32
HETATM   32  C   UNL     1     -37.491-111.186 221.860  1.00  0.00     0.063 C 
HETATM   33  C   UNL     1     -38.540-110.428 222.698  1.00  0.00     0.243 C 
HETATM   34  N   UNL     1     -37.801-109.824 223.824  1.00  0.00    -0.074 N 
HETATM   35  C   UNL     1     -36.410-110.322 223.808  1.00  0.00     0.233 C 
ATOM     36  HN2 UNL     1     -38.261-109.984 224.720  1.00  0.00     0.277 HD
ATOM     37  HN1 UNL     1     -37.850-108.806 223.818  1.00  0.00     0.277 HD
HETATM   38  C   UNL     1     -36.453-111.599 222.933  1.00  0.00     0.040 C 
ENDBRANCH   6  32
TORSDOF 4
ENDMDL
MODEL 7
REMARK VINA RESULT:    -8.099      3.315      8.456
REMARK INTER + INTRA:         -10.750
REMARK INTER:                  -9.933
REMARK INTRA:                  -0.817
REMARK UNBOUND:                -0.758
REMARK  4 active torsions:
REMARK  status: ('A' for Active; 'I' for Inactive)
REMARK    1  A    between atoms: C_3  and  N_20 
REMARK    2  A    between atoms: C_13  and  N_15 
REMARK    3  A    between atoms: N_20  and  C_22 
REMARK    4  A    between atoms: C_23  and  C_33 
ROOT
HETATM    1  C   UNL     1     -41.524-110.905 226.835  1.00  0.00     0.075 A 
HETATM    2  C   UNL     1     -39.735-115.403 225.860  1.00  0.00     0.147 C 
HETATM    3  C   UNL     1     -39.549-116.468 224.744  1.00  0.00     0.101 C 
HETATM    4  C   UNL     1     -40.045-114.347 223.700  1.00  0.00     0.220 C 
HETATM    5  C   UNL     1     -41.546-111.075 225.450  1.00  0.00     0.124 A 
HETATM    6  C   UNL     1     -40.927-111.882 227.605  1.00  0.00     0.036 A 
HETATM    7  N   UNL     1     -40.369-112.926 227.030  1.00  0.00    -0.195 N 
ATOM      8  HN  UNL     1     -39.904-113.634 227.598  1.00  0.00     0.184 HD
HETATM    9  C   UNL     1     -40.412-113.056 225.712  1.00  0.00     0.682 A 
HETATM   10  N   UNL     1     -40.976-112.156 224.932  1.00  0.00    -0.176 N 
ATOM     11  HN  UNL     1     -40.974-112.290 223.922  1.00  0.00     0.186 HD
HETATM   12  N   UNL     1     -39.817-114.133 225.123  1.00  0.00    -0.212 N 
HETATM   13  C   UNL     1     -39.234-115.630 223.469  1.00  0.00     0.261 C 
HETATM   14  F   UNL     1     -39.648-116.252 222.291  1.00  0.00    -0.204 F 
HETATM   15  F   UNL     1     -37.874-115.357 223.421  1.00  0.00    -0.204 F 
ENDROOT
BRANCH   5  16
HETATM   16  N   UNL     1     -42.145-110.085 224.692  1.00  0.00    -0.328 N 
ATOM     17  HN  UNL     1     -43.070-109.791 225.005  1.00  0.00     0.169 HD
BRANCH  16  18
HETATM   18  C   UNL     1     -41.659-109.433 223.557  1.00  0.00     0.108 A 
HETATM   19  N   UNL     1     -42.145-108.218 223.355  1.00  0.00    -0.351 N 
HETATM   20  C   UNL     1     -41.786-107.481 222.328  1.00  0.00     0.104 A 
ATOM     21  HN  UNL     1     -42.821-107.841 224.020  1.00  0.00     0.166 HD
HETATM   22  C   UNL     1     -40.886-107.976 221.388  1.00  0.00     0.025 A 
HETATM   23  C   UNL     1     -40.357-109.273 221.551  1.00  0.00     0.067 A 
HETATM   24  C   UNL     1     -40.307-107.447 220.165  1.00  0.00     0.122 A 
HETATM   25  N   UNL     1     -39.528-109.485 220.500  1.00  0.00    -0.288 N 
HETATM   26  C   UNL     1     -40.761-110.009 222.665  1.00  0.00     0.080 A 
HETATM   27  N   UNL     1     -39.525-108.358 219.669  1.00  0.00    -0.308 N 
ATOM     28  HN  UNL     1     -38.989-108.266 218.804  1.00  0.00     0.186 HD
BRANCH  25  29
HETATM   29  C   UNL     1     -38.767-110.703 220.236  1.00  0.00     0.100 C 
HETATM   30  C   UNL     1     -37.403-110.597 220.922  1.00  0.00     0.034 C 
HETATM   31  C   UNL     1     -38.616-110.802 218.721  1.00  0.00     0.034 C 
ENDBRANCH  25  29
ENDBRANCH  16  18
ENDBRANCH   5  16
BRANCH   6  32
HETATM   32  C   UNL     1     -40.902-111.749 229.102  1.00  0.00     0.063 C 
HETATM   33  C   UNL     1     -40.292-113.022 229.720  1.00  0.00     0.243 C 
HETATM   34  N   UNL     1     -39.578-112.583 230.935  1.00  0.00    -0.074 N 
HETATM   35  C   UNL     1     -39.574-111.105 230.982  1.00  0.00     0.233 C 
ATOM     36  HN2 UNL     1     -38.639-112.976 230.997  1.00  0.00     0.277 HD
ATOM     37  HN1 UNL     1     -39.964-112.997 231.783  1.00  0.00     0.277 HD
HETATM   38  C   UNL     1     -39.887-110.660 229.532  1.00  0.00     0.040 C 
ENDBRANCH   6  32
TORSDOF 4
ENDMDL
MODEL 8
REMARK VINA RESULT:    -8.088      3.243      5.119
REMARK INTER + INTRA:         -10.737
REMARK INTER:                 -10.032
REMARK INTRA:                  -0.705
REMARK UNBOUND:                -0.758
REMARK  4 active torsions:
REMARK  status: ('A' for Active; 'I' for Inactive)
REMARK    1  A    between atoms: C_3  and  N_20 
REMARK    2  A    between atoms: C_13  and  N_15 
REMARK    3  A    between atoms: N_20  and  C_22 
REMARK    4  A    between atoms: C_23  and  C_33 
ROOT
HETATM    1  C   UNL     1     -39.481-113.090 222.686  1.00  0.00     0.075 A 
HETATM    2  C   UNL     1     -39.212-112.775 217.765  1.00  0.00     0.147 C 
HETATM    3  C   UNL     1     -38.742-113.513 216.481  1.00  0.00     0.101 C 
HETATM    4  C   UNL     1     -38.856-115.117 218.285  1.00  0.00     0.220 C 
HETATM    5  C   UNL     1     -39.097-114.343 222.205  1.00  0.00     0.124 A 
HETATM    6  C   UNL     1     -39.823-112.115 221.773  1.00  0.00     0.036 A 
HETATM    7  N   UNL     1     -39.814-112.386 220.484  1.00  0.00    -0.195 N 
ATOM      8  HN  UNL     1     -40.094-111.672 219.811  1.00  0.00     0.184 HD
HETATM    9  C   UNL     1     -39.441-113.585 220.063  1.00  0.00     0.682 A 
HETATM   10  N   UNL     1     -39.098-114.549 220.894  1.00  0.00    -0.176 N 
ATOM     11  HN  UNL     1     -38.831-115.461 220.526  1.00  0.00     0.186 HD
HETATM   12  N   UNL     1     -39.451-113.862 218.727  1.00  0.00    -0.212 N 
HETATM   13  C   UNL     1     -39.062-115.011 216.767  1.00  0.00     0.261 C 
HETATM   14  F   UNL     1     -38.201-115.889 216.106  1.00  0.00    -0.204 F 
HETATM   15  F   UNL     1     -40.381-115.275 216.424  1.00  0.00    -0.204 F 
ENDROOT
BRANCH   5  16
HETATM   16  N   UNL     1     -38.760-115.312 223.134  1.00  0.00    -0.328 N 
ATOM     17  HN  UNL     1     -38.044-115.974 222.837  1.00  0.00     0.169 HD
BRANCH  16  18
HETATM   18  C   UNL     1     -39.264-115.508 224.421  1.00  0.00     0.108 A 
HETATM   19  N   UNL     1     -39.848-116.679 224.624  1.00  0.00    -0.351 N 
HETATM   20  C   UNL     1     -40.373-117.009 225.782  1.00  0.00     0.104 A 
ATOM     21  HN  UNL     1     -39.891-117.348 223.855  1.00  0.00     0.166 HD
HETATM   22  C   UNL     1     -40.355-116.109 226.844  1.00  0.00     0.025 A 
HETATM   23  C   UNL     1     -39.761-114.842 226.668  1.00  0.00     0.067 A 
HETATM   24  C   UNL     1     -40.845-116.147 228.212  1.00  0.00     0.122 A 
HETATM   25  N   UNL     1     -39.893-114.189 227.849  1.00  0.00    -0.288 N 
HETATM   26  C   UNL     1     -39.207-114.546 225.423  1.00  0.00     0.080 A 
HETATM   27  N   UNL     1     -40.565-115.006 228.767  1.00  0.00    -0.308 N 
ATOM     28  HN  UNL     1     -40.800-114.746 229.725  1.00  0.00     0.186 HD
BRANCH  25  29
HETATM   29  C   UNL     1     -39.441-112.831 228.136  1.00  0.00     0.100 C 
HETATM   30  C   UNL     1     -38.049-112.892 228.767  1.00  0.00     0.034 C 
HETATM   31  C   UNL     1     -40.458-112.227 229.101  1.00  0.00     0.034 C 
ENDBRANCH  25  29
ENDBRANCH  16  18
ENDBRANCH   5  16
BRANCH   6  32
HETATM   32  C   UNL     1     -40.220-110.746 222.248  1.00  0.00     0.063 C 
HETATM   33  C   UNL     1     -41.756-110.657 222.335  1.00  0.00     0.243 C 
HETATM   34  N   UNL     1     -42.048-109.750 223.462  1.00  0.00    -0.074 N 
HETATM   35  C   UNL     1     -40.786-109.433 224.163  1.00  0.00     0.233 C 
ATOM     36  HN2 UNL     1     -42.758-110.126 224.090  1.00  0.00     0.277 HD
ATOM     37  HN1 UNL     1     -42.549-108.912 223.165  1.00  0.00     0.277 HD
HETATM   38  C   UNL     1     -39.798-110.542 223.725  1.00  0.00     0.040 C 
ENDBRANCH   6  32
TORSDOF 4
ENDMDL
MODEL 9
REMARK VINA RESULT:    -8.050      3.983      6.085
REMARK INTER + INTRA:         -10.690
REMARK INTER:                  -9.678
REMARK INTRA:                  -1.012
REMARK UNBOUND:                -0.758
REMARK  4 active torsions:
REMARK  status: ('A' for Active; 'I' for Inactive)
REMARK    1  A    between atoms: C_3  and  N_20 
REMARK    2  A    between atoms: C_13  and  N_15 
REMARK    3  A    between atoms: N_20  and  C_22 
REMARK    4  A    between atoms: C_23  and  C_33 
ROOT
HETATM    1  C   UNL     1     -40.261-112.749 221.629  1.00  0.00     0.075 A 
HETATM    2  C   UNL     1     -38.657-114.662 225.890  1.00  0.00     0.147 C 
HETATM    3  C   UNL     1     -38.688-114.495 227.434  1.00  0.00     0.101 C 
HETATM    4  C   UNL     1     -40.487-113.188 226.489  1.00  0.00     0.220 C 
HETATM    5  C   UNL     1     -40.950-112.112 222.662  1.00  0.00     0.124 A 
HETATM    6  C   UNL     1     -39.432-113.805 221.949  1.00  0.00     0.036 A 
HETATM    7  N   UNL     1     -39.330-114.209 223.197  1.00  0.00    -0.195 N 
ATOM      8  HN  UNL     1     -38.738-115.006 223.429  1.00  0.00     0.184 HD
HETATM    9  C   UNL     1     -39.997-113.578 224.153  1.00  0.00     0.682 A 
HETATM   10  N   UNL     1     -40.796-112.561 223.901  1.00  0.00    -0.176 N 
ATOM     11  HN  UNL     1     -41.301-112.114 224.666  1.00  0.00     0.186 HD
HETATM   12  N   UNL     1     -39.899-114.014 225.442  1.00  0.00    -0.212 N 
HETATM   13  C   UNL     1     -40.140-114.017 227.734  1.00  0.00     0.261 C 
HETATM   14  F   UNL     1     -40.227-113.220 228.877  1.00  0.00    -0.204 F 
HETATM   15  F   UNL     1     -40.975-115.120 227.847  1.00  0.00    -0.204 F 
ENDROOT
BRANCH   5  16
HETATM   16  N   UNL     1     -41.780-111.058 222.324  1.00  0.00    -0.328 N 
ATOM     17  HN  UNL     1     -42.645-111.315 221.848  1.00  0.00     0.169 HD
BRANCH  16  18
HETATM   18  C   UNL     1     -41.600-109.691 222.546  1.00  0.00     0.108 A 
HETATM   19  N   UNL     1     -42.425-108.899 221.879  1.00  0.00    -0.351 N 
HETATM   20  C   UNL     1     -42.375-107.591 221.980  1.00  0.00     0.104 A 
ATOM     21  HN  UNL     1     -43.123-109.320 221.266  1.00  0.00     0.166 HD
HETATM   22  C   UNL     1     -41.417-106.983 222.788  1.00  0.00     0.025 A 
HETATM   23  C   UNL     1     -40.504-107.787 223.502  1.00  0.00     0.067 A 
HETATM   24  C   UNL     1     -41.086-105.604 223.104  1.00  0.00     0.122 A 
HETATM   25  N   UNL     1     -39.699-106.937 224.187  1.00  0.00    -0.288 N 
HETATM   26  C   UNL     1     -40.607-109.171 223.370  1.00  0.00     0.080 A 
HETATM   27  N   UNL     1     -40.073-105.615 223.918  1.00  0.00    -0.308 N 
ATOM     28  HN  UNL     1     -39.619-104.785 224.302  1.00  0.00     0.186 HD
BRANCH  25  29
HETATM   29  C   UNL     1     -38.588-107.317 225.054  1.00  0.00     0.100 C 
HETATM   30  C   UNL     1     -39.124-107.593 226.461  1.00  0.00     0.034 C 
HETATM   31  C   UNL     1     -37.615-106.141 225.057  1.00  0.00     0.034 C 
ENDBRANCH  25  29
ENDBRANCH  16  18
ENDBRANCH   5  16
BRANCH   6  32
HETATM   32  C   UNL     1     -38.653-114.503 220.869  1.00  0.00     0.063 C 
HETATM   33  C   UNL     1     -39.136-115.962 220.750  1.00  0.00     0.243 C 
HETATM   34  N   UNL     1     -39.000-116.320 219.324  1.00  0.00    -0.074 N 
HETATM   35  C   UNL     1     -38.635-115.110 218.558  1.00  0.00     0.233 C 
ATOM     36  HN2 UNL     1     -39.835-116.775 218.957  1.00  0.00     0.277 HD
ATOM     37  HN1 UNL     1     -38.343-117.086 219.178  1.00  0.00     0.277 HD
HETATM   38  C   UNL     1     -39.016-113.924 219.479  1.00  0.00     0.040 C 
ENDBRANCH   6  32
TORSDOF 4
ENDMDL
MODEL 10
REMARK VINA RESULT:    -7.909      3.229      6.577
REMARK INTER + INTRA:         -10.516
REMARK INTER:                 -10.303
REMARK INTRA:                  -0.212
REMARK UNBOUND:                -0.758
REMARK  4 active torsions:
REMARK  status: ('A' for Active; 'I' for Inactive)
REMARK    1  A    between atoms: C_3  and  N_20 
REMARK    2  A    between atoms: C_13  and  N_15 
REMARK    3  A    between atoms: N_20  and  C_22 
REMARK    4  A    between atoms: C_23  and  C_33 
ROOT
HETATM    1  C   UNL     1     -38.185-111.067 225.952  1.00  0.00     0.075 A 
HETATM    2  C   UNL     1     -38.471-106.557 227.945  1.00  0.00     0.147 C 
HETATM    3  C   UNL     1     -38.871-105.770 229.223  1.00  0.00     0.101 C 
HETATM    4  C   UNL     1     -38.619-108.100 229.809  1.00  0.00     0.220 C 
HETATM    5  C   UNL     1     -38.456-111.224 227.312  1.00  0.00     0.124 A 
HETATM    6  C   UNL     1     -37.928-109.797 225.479  1.00  0.00     0.036 A 
HETATM    7  N   UNL     1     -37.911-108.775 226.308  1.00  0.00    -0.195 N 
ATOM      8  HN  UNL     1     -37.695-107.840 225.962  1.00  0.00     0.184 HD
HETATM    9  C   UNL     1     -38.175-108.961 227.593  1.00  0.00     0.682 A 
HETATM   10  N   UNL     1     -38.434-110.152 228.094  1.00  0.00    -0.176 N 
ATOM     11  HN  UNL     1     -38.618-110.251 229.092  1.00  0.00     0.186 HD
HETATM   12  N   UNL     1     -38.139-107.899 228.448  1.00  0.00    -0.212 N 
HETATM   13  C   UNL     1     -38.421-106.694 230.393  1.00  0.00     0.261 C 
HETATM   14  F   UNL     1     -39.199-106.540 231.542  1.00  0.00    -0.204 F 
HETATM   15  F   UNL     1     -37.083-106.458 230.679  1.00  0.00    -0.204 F 
ENDROOT
BRANCH   5  16
HETATM   16  N   UNL     1     -38.708-112.505 227.773  1.00  0.00    -0.328 N 
ATOM     17  HN  UNL     1     -38.585-112.643 228.776  1.00  0.00     0.169 HD
BRANCH  16  18
HETATM   18  C   UNL     1     -39.106-113.634 227.055  1.00  0.00     0.108 A 
HETATM   19  N   UNL     1     -39.545-114.643 227.791  1.00  0.00    -0.351 N 
HETATM   20  C   UNL     1     -39.951-115.774 227.260  1.00  0.00     0.104 A 
ATOM     21  HN  UNL     1     -39.568-114.539 228.806  1.00  0.00     0.166 HD
HETATM   22  C   UNL     1     -39.907-115.959 225.880  1.00  0.00     0.025 A 
HETATM   23  C   UNL     1     -39.429-114.918 225.057  1.00  0.00     0.067 A 
HETATM   24  C   UNL     1     -40.256-117.057 224.995  1.00  0.00     0.122 A 
HETATM   25  N   UNL     1     -39.496-115.376 223.783  1.00  0.00    -0.288 N 
HETATM   26  C   UNL     1     -39.021-113.733 225.670  1.00  0.00     0.080 A 
HETATM   27  N   UNL     1     -39.995-116.684 223.778  1.00  0.00    -0.308 N 
ATOM     28  HN  UNL     1     -40.133-117.258 222.945  1.00  0.00     0.186 HD
BRANCH  25  29
HETATM   29  C   UNL     1     -39.087-114.647 222.585  1.00  0.00     0.100 C 
HETATM   30  C   UNL     1     -40.115-113.553 222.292  1.00  0.00     0.034 C 
HETATM   31  C   UNL     1     -39.031-115.668 221.452  1.00  0.00     0.034 C 
ENDBRANCH  25  29
ENDBRANCH  16  18
ENDBRANCH   5  16
BRANCH   6  32
HETATM   32  C   UNL     1     -37.656-109.580 224.017  1.00  0.00     0.063 C 
HETATM   33  C   UNL     1     -37.950-108.112 223.652  1.00  0.00     0.243 C 
HETATM   34  N   UNL     1     -36.991-107.757 222.588  1.00  0.00    -0.074 N 
HETATM   35  C   UNL     1     -36.027-108.865 222.421  1.00  0.00     0.233 C 
ATOM     36  HN2 UNL     1     -36.530-106.864 222.762  1.00  0.00     0.277 HD
ATOM     37  HN1 UNL     1     -37.455-107.511 221.714  1.00  0.00     0.277 HD
HETATM   38  C   UNL     1     -36.138-109.690 223.727  1.00  0.00     0.040 C 
ENDBRANCH   6  32
TORSDOF 4
ENDMDL
MODEL 11
REMARK VINA RESULT:    -7.906      2.587      8.317
REMARK INTER + INTRA:         -10.512
REMARK INTER:                 -10.006
REMARK INTRA:                  -0.506
REMARK UNBOUND:                -0.758
REMARK  4 active torsions:
REMARK  status: ('A' for Active; 'I' for Inactive)
REMARK    1  A    between atoms: C_3  and  N_20 
REMARK    2  A    between atoms: C_13  and  N_15 
REMARK    3  A    between atoms: N_20  and  C_22 
REMARK    4  A    between atoms: C_23  and  C_33 
ROOT
HETATM    1  C   UNL     1     -39.672-115.220 224.133  1.00  0.00     0.075 A 
HETATM    2  C   UNL     1     -40.387-110.357 224.602  1.00  0.00     0.147 C 
HETATM    3  C   UNL     1     -40.461-109.015 223.822  1.00  0.00     0.101 C 
HETATM    4  C   UNL     1     -40.678-110.830 222.242  1.00  0.00     0.220 C 
HETATM    5  C   UNL     1     -39.812-114.690 222.850  1.00  0.00     0.124 A 
HETATM    6  C   UNL     1     -39.881-114.387 225.212  1.00  0.00     0.036 A 
HETATM    7  N   UNL     1     -40.235-113.134 225.019  1.00  0.00    -0.195 N 
ATOM      8  HN  UNL     1     -40.416-112.525 225.817  1.00  0.00     0.184 HD
HETATM    9  C   UNL     1     -40.356-112.664 223.786  1.00  0.00     0.682 A 
HETATM   10  N   UNL     1     -40.161-113.416 222.722  1.00  0.00    -0.176 N 
ATOM     11  HN  UNL     1     -40.278-113.016 221.792  1.00  0.00     0.186 HD
HETATM   12  N   UNL     1     -40.740-111.369 223.595  1.00  0.00    -0.212 N 
HETATM   13  C   UNL     1     -41.162-109.393 222.484  1.00  0.00     0.261 C 
HETATM   14  F   UNL     1     -40.784-108.576 221.419  1.00  0.00    -0.204 F 
HETATM   15  F   UNL     1     -42.539-109.355 222.659  1.00  0.00    -0.204 F 
ENDROOT
BRANCH   5  16
HETATM   16  N   UNL     1     -39.602-115.540 221.778  1.00  0.00    -0.328 N 
ATOM     17  HN  UNL     1     -40.013-116.469 221.867  1.00  0.00     0.169 HD
BRANCH  16  18
HETATM   18  C   UNL     1     -38.906-115.302 220.591  1.00  0.00     0.108 A 
HETATM   19  N   UNL     1     -38.608-114.033 220.359  1.00  0.00    -0.351 N 
HETATM   20  C   UNL     1     -37.959-113.652 219.282  1.00  0.00     0.104 A 
ATOM     21  HN  UNL     1     -38.891-113.328 221.039  1.00  0.00     0.166 HD
HETATM   22  C   UNL     1     -37.581-114.586 218.320  1.00  0.00     0.025 A 
HETATM   23  C   UNL     1     -37.895-115.947 218.517  1.00  0.00     0.067 A 
HETATM   24  C   UNL     1     -36.887-114.503 217.046  1.00  0.00     0.122 A 
HETATM   25  N   UNL     1     -37.417-116.610 217.435  1.00  0.00    -0.288 N 
HETATM   26  C   UNL     1     -38.574-116.301 219.682  1.00  0.00     0.080 A 
HETATM   27  N   UNL     1     -36.816-115.703 216.554  1.00  0.00    -0.308 N 
ATOM     28  HN  UNL     1     -36.387-115.947 215.660  1.00  0.00     0.186 HD
BRANCH  25  29
HETATM   29  C   UNL     1     -37.526-118.045 217.190  1.00  0.00     0.100 C 
HETATM   30  C   UNL     1     -36.169-118.701 217.455  1.00  0.00     0.034 C 
HETATM   31  C   UNL     1     -37.940-118.207 215.730  1.00  0.00     0.034 C 
ENDBRANCH  25  29
ENDBRANCH  16  18
ENDBRANCH   5  16
BRANCH   6  32
HETATM   32  C   UNL     1     -39.717-114.912 226.611  1.00  0.00     0.063 C 
HETATM   33  C   UNL     1     -40.609-114.101 227.571  1.00  0.00     0.243 C 
HETATM   34  N   UNL     1     -41.038-115.044 228.622  1.00  0.00    -0.074 N 
HETATM   35  C   UNL     1     -40.604-116.407 228.250  1.00  0.00     0.233 C 
ATOM     36  HN2 UNL     1     -42.040-114.992 228.805  1.00  0.00     0.277 HD
ATOM     37  HN1 UNL     1     -40.709-114.770 229.548  1.00  0.00     0.277 HD
HETATM   38  C   UNL     1     -40.320-116.334 226.730  1.00  0.00     0.040 C 
ENDBRANCH   6  32
TORSDOF 4
ENDMDL
MODEL 12
REMARK VINA RESULT:    -7.897      2.097      8.105
REMARK INTER + INTRA:         -10.501
REMARK INTER:                  -9.490
REMARK INTRA:                  -1.011
REMARK UNBOUND:                -0.758
REMARK  4 active torsions:
REMARK  status: ('A' for Active; 'I' for Inactive)
REMARK    1  A    between atoms: C_3  and  N_20 
REMARK    2  A    between atoms: C_13  and  N_15 
REMARK    3  A    between atoms: N_20  and  C_22 
REMARK    4  A    between atoms: C_23  and  C_33 
ROOT
HETATM    1  C   UNL     1     -39.267-115.823 222.833  1.00  0.00     0.075 A 
HETATM    2  C   UNL     1     -36.901-111.546 223.538  1.00  0.00     0.147 C 
HETATM    3  C   UNL     1     -36.196-110.364 222.816  1.00  0.00     0.101 C 
HETATM    4  C   UNL     1     -37.537-111.556 221.198  1.00  0.00     0.220 C 
HETATM    5  C   UNL     1     -39.127-115.209 221.587  1.00  0.00     0.124 A 
HETATM    6  C   UNL     1     -38.880-115.121 223.955  1.00  0.00     0.036 A 
HETATM    7  N   UNL     1     -38.422-113.892 223.840  1.00  0.00    -0.195 N 
ATOM      8  HN  UNL     1     -38.161-113.364 224.672  1.00  0.00     0.184 HD
HETATM    9  C   UNL     1     -38.300-113.342 222.640  1.00  0.00     0.682 A 
HETATM   10  N   UNL     1     -38.649-113.972 221.537  1.00  0.00    -0.176 N 
ATOM     11  HN  UNL     1     -38.551-113.505 220.636  1.00  0.00     0.186 HD
HETATM   12  N   UNL     1     -37.840-112.062 222.531  1.00  0.00    -0.212 N 
HETATM   13  C   UNL     1     -37.052-110.139 221.535  1.00  0.00     0.261 C 
HETATM   14  F   UNL     1     -36.314-109.622 220.469  1.00  0.00    -0.204 F 
HETATM   15  F   UNL     1     -38.120-109.305 221.834  1.00  0.00    -0.204 F 
ENDROOT
BRANCH   5  16
HETATM   16  N   UNL     1     -39.523-115.925 220.471  1.00  0.00    -0.328 N 
ATOM     17  HN  UNL     1     -40.235-116.637 220.636  1.00  0.00     0.169 HD
BRANCH  16  18
HETATM   18  C   UNL     1     -39.085-115.807 219.151  1.00  0.00     0.108 A 
HETATM   19  N   UNL     1     -38.147-116.669 218.790  1.00  0.00    -0.351 N 
HETATM   20  C   UNL     1     -37.631-116.680 217.582  1.00  0.00     0.104 A 
ATOM     21  HN  UNL     1     -37.812-117.348 219.475  1.00  0.00     0.166 HD
HETATM   22  C   UNL     1     -38.046-115.750 216.632  1.00  0.00     0.025 A 
HETATM   23  C   UNL     1     -39.030-114.800 216.977  1.00  0.00     0.067 A 
HETATM   24  C   UNL     1     -37.682-115.483 215.251  1.00  0.00     0.122 A 
HETATM   25  N   UNL     1     -39.227-114.035 215.875  1.00  0.00    -0.288 N 
HETATM   26  C   UNL     1     -39.553-114.839 218.269  1.00  0.00     0.080 A 
HETATM   27  N   UNL     1     -38.386-114.470 214.843  1.00  0.00    -0.308 N 
ATOM     28  HN  UNL     1     -38.333-114.054 213.912  1.00  0.00     0.186 HD
BRANCH  25  29
HETATM   29  C   UNL     1     -40.146-112.906 215.766  1.00  0.00     0.100 C 
HETATM   30  C   UNL     1     -41.372-113.338 214.958  1.00  0.00     0.034 C 
HETATM   31  C   UNL     1     -39.384-111.791 215.055  1.00  0.00     0.034 C 
ENDBRANCH  25  29
ENDBRANCH  16  18
ENDBRANCH   5  16
BRANCH   6  32
HETATM   32  C   UNL     1     -38.991-115.754 225.314  1.00  0.00     0.063 C 
HETATM   33  C   UNL     1     -39.320-114.670 226.360  1.00  0.00     0.243 C 
HETATM   34  N   UNL     1     -40.161-115.329 227.378  1.00  0.00    -0.074 N 
HETATM   35  C   UNL     1     -40.502-116.690 226.912  1.00  0.00     0.233 C 
ATOM     36  HN2 UNL     1     -40.988-114.780 227.613  1.00  0.00     0.277 HD
ATOM     37  HN1 UNL     1     -39.724-115.332 228.299  1.00  0.00     0.277 HD
HETATM   38  C   UNL     1     -40.243-116.665 225.385  1.00  0.00     0.040 C 
ENDBRANCH   6  32
TORSDOF 4
ENDMDL
MODEL 13
REMARK VINA RESULT:    -7.825      2.550      4.717
REMARK INTER + INTRA:         -10.412
REMARK INTER:                  -9.980
REMARK INTRA:                  -0.432
REMARK UNBOUND:                -0.758
REMARK  4 active torsions:
REMARK  status: ('A' for Active; 'I' for Inactive)
REMARK    1  A    between atoms: C_3  and  N_20 
REMARK    2  A    between atoms: C_13  and  N_15 
REMARK    3  A    between atoms: N_20  and  C_22 
REMARK    4  A    between atoms: C_23  and  C_33 
ROOT
HETATM    1  C   UNL     1     -38.364-113.438 224.060  1.00  0.00     0.075 A 
HETATM    2  C   UNL     1     -37.477-113.672 219.208  1.00  0.00     0.147 C 
HETATM    3  C   UNL     1     -37.403-114.630 217.987  1.00  0.00     0.101 C 
HETATM    4  C   UNL     1     -38.608-115.743 219.760  1.00  0.00     0.220 C 
HETATM    5  C   UNL     1     -38.738-114.710 223.625  1.00  0.00     0.124 A 
HETATM    6  C   UNL     1     -37.980-112.510 223.115  1.00  0.00     0.036 A 
HETATM    7  N   UNL     1     -38.003-112.822 221.836  1.00  0.00    -0.195 N 
ATOM      8  HN  UNL     1     -37.746-112.126 221.136  1.00  0.00     0.184 HD
HETATM    9  C   UNL     1     -38.362-114.040 221.460  1.00  0.00     0.682 A 
HETATM   10  N   UNL     1     -38.729-114.966 222.323  1.00  0.00    -0.176 N 
ATOM     11  HN  UNL     1     -39.010-115.886 221.987  1.00  0.00     0.186 HD
HETATM   12  N   UNL     1     -38.398-114.350 220.131  1.00  0.00    -0.212 N 
HETATM   13  C   UNL     1     -38.562-115.641 218.229  1.00  0.00     0.261 C 
HETATM   14  F   UNL     1     -38.316-116.898 217.673  1.00  0.00    -0.204 F 
HETATM   15  F   UNL     1     -39.745-115.114 217.729  1.00  0.00    -0.204 F 
ENDROOT
BRANCH   5  16
HETATM   16  N   UNL     1     -39.123-115.629 224.585  1.00  0.00    -0.328 N 
ATOM     17  HN  UNL     1     -38.970-116.608 224.342  1.00  0.00     0.169 HD
BRANCH  16  18
HETATM   18  C   UNL     1     -39.693-115.403 225.839  1.00  0.00     0.108 A 
HETATM   19  N   UNL     1     -40.197-116.476 226.430  1.00  0.00    -0.351 N 
HETATM   20  C   UNL     1     -40.769-116.421 227.611  1.00  0.00     0.104 A 
ATOM     21  HN  UNL     1     -40.138-117.375 225.952  1.00  0.00     0.166 HD
HETATM   22  C   UNL     1     -40.890-115.205 228.279  1.00  0.00     0.025 A 
HETATM   23  C   UNL     1     -40.386-114.033 227.679  1.00  0.00     0.067 A 
HETATM   24  C   UNL     1     -41.464-114.802 229.552  1.00  0.00     0.122 A 
HETATM   25  N   UNL     1     -40.645-113.019 228.541  1.00  0.00    -0.288 N 
HETATM   26  C   UNL     1     -39.776-114.147 226.430  1.00  0.00     0.080 A 
HETATM   27  N   UNL     1     -41.310-113.517 229.668  1.00  0.00    -0.308 N 
ATOM     28  HN  UNL     1     -41.626-112.957 230.461  1.00  0.00     0.186 HD
BRANCH  25  29
HETATM   29  C   UNL     1     -40.319-111.611 228.335  1.00  0.00     0.100 C 
HETATM   30  C   UNL     1     -40.204-110.921 229.696  1.00  0.00     0.034 C 
HETATM   31  C   UNL     1     -41.458-111.016 227.511  1.00  0.00     0.034 C 
ENDBRANCH  25  29
ENDBRANCH  16  18
ENDBRANCH   5  16
BRANCH   6  32
HETATM   32  C   UNL     1     -37.547-111.135 223.543  1.00  0.00     0.063 C 
HETATM   33  C   UNL     1     -38.403-110.078 222.818  1.00  0.00     0.243 C 
HETATM   34  N   UNL     1     -38.540-108.950 223.760  1.00  0.00    -0.074 N 
HETATM   35  C   UNL     1     -37.970-109.343 225.066  1.00  0.00     0.233 C 
ATOM     36  HN2 UNL     1     -39.503-108.624 223.838  1.00  0.00     0.277 HD
ATOM     37  HN1 UNL     1     -38.127-108.090 223.398  1.00  0.00     0.277 HD
HETATM   38  C   UNL     1     -37.915-110.890 225.028  1.00  0.00     0.040 C 
ENDBRANCH   6  32
TORSDOF 4
ENDMDL
MODEL 14
REMARK VINA RESULT:    -7.807      4.450      7.410
REMARK INTER + INTRA:         -10.391
REMARK INTER:                  -9.399
REMARK INTRA:                  -0.991
REMARK UNBOUND:                -0.758
REMARK  4 active torsions:
REMARK  status: ('A' for Active; 'I' for Inactive)
REMARK    1  A    between atoms: C_3  and  N_20 
REMARK    2  A    between atoms: C_13  and  N_15 
REMARK    3  A    between atoms: N_20  and  C_22 
REMARK    4  A    between atoms: C_23  and  C_33 
ROOT
HETATM    1  C   UNL     1     -41.038-111.815 223.734  1.00  0.00     0.075 A 
HETATM    2  C   UNL     1     -38.735-115.383 221.212  1.00  0.00     0.147 C 
HETATM    3  C   UNL     1     -38.533-115.994 219.798  1.00  0.00     0.101 C 
HETATM    4  C   UNL     1     -39.465-113.780 219.546  1.00  0.00     0.220 C 
HETATM    5  C   UNL     1     -41.207-111.546 222.375  1.00  0.00     0.124 A 
HETATM    6  C   UNL     1     -40.211-112.858 224.096  1.00  0.00     0.036 A 
HETATM    7  N   UNL     1     -39.580-113.552 223.172  1.00  0.00    -0.195 N 
ATOM      8  HN  UNL     1     -38.948-114.305 223.442  1.00  0.00     0.184 HD
HETATM    9  C   UNL     1     -39.767-113.270 221.891  1.00  0.00     0.682 A 
HETATM   10  N   UNL     1     -40.551-112.289 221.492  1.00  0.00    -0.176 N 
ATOM     11  HN  UNL     1     -40.654-112.099 220.496  1.00  0.00     0.186 HD
HETATM   12  N   UNL     1     -39.096-113.983 220.941  1.00  0.00    -0.212 N 
HETATM   13  C   UNL     1     -38.507-114.758 218.852  1.00  0.00     0.261 C 
HETATM   14  F   UNL     1     -38.968-115.045 217.566  1.00  0.00    -0.204 F 
HETATM   15  F   UNL     1     -37.219-114.242 218.801  1.00  0.00    -0.204 F 
ENDROOT
BRANCH   5  16
HETATM   16  N   UNL     1     -42.036-110.494 222.027  1.00  0.00    -0.328 N 
ATOM     17  HN  UNL     1     -42.987-110.753 221.766  1.00  0.00     0.169 HD
BRANCH  16  18
HETATM   18  C   UNL     1     -41.751-109.128 221.984  1.00  0.00     0.108 A 
HETATM   19  N   UNL     1     -41.294-108.684 220.824  1.00  0.00    -0.351 N 
HETATM   20  C   UNL     1     -40.978-107.424 220.630  1.00  0.00     0.104 A 
ATOM     21  HN  UNL     1     -41.182-109.344 220.053  1.00  0.00     0.166 HD
HETATM   22  C   UNL     1     -41.092-106.503 221.668  1.00  0.00     0.025 A 
HETATM   23  C   UNL     1     -41.557-106.934 222.928  1.00  0.00     0.067 A 
HETATM   24  C   UNL     1     -40.822-105.080 221.793  1.00  0.00     0.122 A 
HETATM   25  N   UNL     1     -41.559-105.841 223.730  1.00  0.00    -0.288 N 
HETATM   26  C   UNL     1     -41.890-108.280 223.078  1.00  0.00     0.080 A 
HETATM   27  N   UNL     1     -41.098-104.729 223.013  1.00  0.00    -0.308 N 
ATOM     28  HN  UNL     1     -40.995-103.787 223.391  1.00  0.00     0.186 HD
BRANCH  25  29
HETATM   29  C   UNL     1     -41.948-105.808 225.137  1.00  0.00     0.100 C 
HETATM   30  C   UNL     1     -42.967-104.685 225.346  1.00  0.00     0.034 C 
HETATM   31  C   UNL     1     -40.674-105.550 225.936  1.00  0.00     0.034 C 
ENDBRANCH  25  29
ENDBRANCH  16  18
ENDBRANCH   5  16
BRANCH   6  32
HETATM   32  C   UNL     1     -40.020-113.196 225.548  1.00  0.00     0.063 C 
HETATM   33  C   UNL     1     -39.666-114.690 225.685  1.00  0.00     0.243 C 
HETATM   34  N   UNL     1     -38.763-114.789 226.848  1.00  0.00    -0.074 N 
HETATM   35  C   UNL     1     -38.415-113.427 227.303  1.00  0.00     0.233 C 
ATOM     36  HN2 UNL     1     -37.938-115.356 226.652  1.00  0.00     0.277 HD
ATOM     37  HN1 UNL     1     -39.154-115.361 227.596  1.00  0.00     0.277 HD
HETATM   38  C   UNL     1     -38.747-112.508 226.102  1.00  0.00     0.040 C 
ENDBRANCH   6  32
TORSDOF 4
ENDMDL
MODEL 15
REMARK VINA RESULT:    -7.798      3.682      8.534
REMARK INTER + INTRA:         -10.379
REMARK INTER:                  -9.366
REMARK INTRA:                  -1.013
REMARK UNBOUND:                -0.758
REMARK  4 active torsions:
REMARK  status: ('A' for Active; 'I' for Inactive)
REMARK    1  A    between atoms: C_3  and  N_20 
REMARK    2  A    between atoms: C_13  and  N_15 
REMARK    3  A    between atoms: N_20  and  C_22 
REMARK    4  A    between atoms: C_23  and  C_33 
ROOT
HETATM    1  C   UNL     1     -39.418-113.269 221.614  1.00  0.00     0.075 A 
HETATM    2  C   UNL     1     -41.431-109.248 223.657  1.00  0.00     0.147 C 
HETATM    3  C   UNL     1     -41.611-107.713 223.499  1.00  0.00     0.101 C 
HETATM    4  C   UNL     1     -40.905-108.621 221.374  1.00  0.00     0.220 C 
HETATM    5  C   UNL     1     -39.313-112.229 220.689  1.00  0.00     0.124 A 
HETATM    6  C   UNL     1     -40.130-113.043 222.774  1.00  0.00     0.036 A 
HETATM    7  N   UNL     1     -40.715-111.880 222.973  1.00  0.00    -0.195 N 
ATOM      8  HN  UNL     1     -41.263-111.723 223.818  1.00  0.00     0.184 HD
HETATM    9  C   UNL     1     -40.592-110.915 222.074  1.00  0.00     0.682 A 
HETATM   10  N   UNL     1     -39.918-111.078 220.953  1.00  0.00    -0.176 N 
ATOM     11  HN  UNL     1     -39.860-110.312 220.283  1.00  0.00     0.186 HD
HETATM   12  N   UNL     1     -41.215-109.720 222.281  1.00  0.00    -0.212 N 
HETATM   13  C   UNL     1     -41.782-107.508 221.965  1.00  0.00     0.261 C 
HETATM   14  F   UNL     1     -41.331-106.262 221.526  1.00  0.00    -0.204 F 
HETATM   15  F   UNL     1     -43.115-107.689 221.621  1.00  0.00    -0.204 F 
ENDROOT
BRANCH   5  16
HETATM   16  N   UNL     1     -38.600-112.473 219.528  1.00  0.00    -0.328 N 
ATOM     17  HN  UNL     1     -37.724-111.958 219.435  1.00  0.00     0.169 HD
BRANCH  16  18
HETATM   18  C   UNL     1     -38.912-113.325 218.467  1.00  0.00     0.108 A 
HETATM   19  N   UNL     1     -40.053-113.059 217.850  1.00  0.00    -0.351 N 
HETATM   20  C   UNL     1     -40.485-113.775 216.836  1.00  0.00     0.104 A 
ATOM     21  HN  UNL     1     -40.617-112.273 218.173  1.00  0.00     0.166 HD
HETATM   22  C   UNL     1     -39.753-114.871 216.387  1.00  0.00     0.025 A 
HETATM   23  C   UNL     1     -38.540-115.203 217.027  1.00  0.00     0.067 A 
HETATM   24  C   UNL     1     -39.945-115.854 215.334  1.00  0.00     0.122 A 
HETATM   25  N   UNL     1     -38.059-116.300 216.391  1.00  0.00    -0.288 N 
HETATM   26  C   UNL     1     -38.121-114.405 218.091  1.00  0.00     0.080 A 
HETATM   27  N   UNL     1     -38.940-116.677 215.370  1.00  0.00    -0.308 N 
ATOM     28  HN  UNL     1     -38.814-117.477 214.749  1.00  0.00     0.186 HD
BRANCH  25  29
HETATM   29  C   UNL     1     -36.829-117.014 216.721  1.00  0.00     0.100 C 
HETATM   30  C   UNL     1     -36.380-117.823 215.502  1.00  0.00     0.034 C 
HETATM   31  C   UNL     1     -37.158-117.928 217.898  1.00  0.00     0.034 C 
ENDBRANCH  25  29
ENDBRANCH  16  18
ENDBRANCH   5  16
BRANCH   6  32
HETATM   32  C   UNL     1     -40.247-114.128 223.807  1.00  0.00     0.063 C 
HETATM   33  C   UNL     1     -41.051-115.307 223.224  1.00  0.00     0.243 C 
HETATM   34  N   UNL     1     -40.492-116.525 223.842  1.00  0.00    -0.074 N 
HETATM   35  C   UNL     1     -39.289-116.160 224.620  1.00  0.00     0.233 C 
ATOM     36  HN2 UNL     1     -40.305-117.257 223.157  1.00  0.00     0.277 HD
ATOM     37  HN1 UNL     1     -41.180-117.027 224.403  1.00  0.00     0.277 HD
HETATM   38  C   UNL     1     -38.865-114.775 224.073  1.00  0.00     0.040 C 
ENDBRANCH   6  32
TORSDOF 4
ENDMDL
MODEL 16
REMARK VINA RESULT:    -7.791      4.020      8.260
REMARK INTER + INTRA:         -10.370
REMARK INTER:                  -9.369
REMARK INTRA:                  -1.001
REMARK UNBOUND:                -0.758
REMARK  4 active torsions:
REMARK  status: ('A' for Active; 'I' for Inactive)
REMARK    1  A    between atoms: C_3  and  N_20 
REMARK    2  A    between atoms: C_13  and  N_15 
REMARK    3  A    between atoms: N_20  and  C_22 
REMARK    4  A    between atoms: C_23  and  C_33 
ROOT
HETATM    1  C   UNL     1     -37.964-108.330 228.606  1.00  0.00     0.075 A 
HETATM    2  C   UNL     1     -39.921-106.291 224.556  1.00  0.00     0.147 C 
HETATM    3  C   UNL     1     -40.321-106.561 223.079  1.00  0.00     0.101 C 
HETATM    4  C   UNL     1     -40.027-108.685 224.191  1.00  0.00     0.220 C 
HETATM    5  C   UNL     1     -38.208-109.357 227.693  1.00  0.00     0.124 A 
HETATM    6  C   UNL     1     -38.406-107.061 228.295  1.00  0.00     0.036 A 
HETATM    7  N   UNL     1     -39.067-106.847 227.177  1.00  0.00    -0.195 N 
ATOM      8  HN  UNL     1     -39.416-105.914 226.961  1.00  0.00     0.184 HD
HETATM    9  C   UNL     1     -39.277-107.846 226.333  1.00  0.00     0.682 A 
HETATM   10  N   UNL     1     -38.871-109.075 226.578  1.00  0.00    -0.176 N 
ATOM     11  HN  UNL     1     -39.067-109.816 225.906  1.00  0.00     0.186 HD
HETATM   12  N   UNL     1     -39.978-107.619 225.184  1.00  0.00    -0.212 N 
HETATM   13  C   UNL     1     -40.871-108.018 223.097  1.00  0.00     0.261 C 
HETATM   14  F   UNL     1     -40.693-108.684 221.883  1.00  0.00    -0.204 F 
HETATM   15  F   UNL     1     -42.215-107.999 223.446  1.00  0.00    -0.204 F 
ENDROOT
BRANCH   5  16
HETATM   16  N   UNL     1     -37.762-110.626 228.021  1.00  0.00    -0.328 N 
ATOM     17  HN  UNL     1     -36.786-110.688 228.308  1.00  0.00     0.169 HD
BRANCH  16  18
HETATM   18  C   UNL     1     -38.464-111.833 228.013  1.00  0.00     0.108 A 
HETATM   19  N   UNL     1     -39.029-112.163 229.164  1.00  0.00    -0.351 N 
HETATM   20  C   UNL     1     -39.720-113.270 229.314  1.00  0.00     0.104 A 
ATOM     21  HN  UNL     1     -38.925-111.535 229.961  1.00  0.00     0.166 HD
HETATM   22  C   UNL     1     -39.859-114.162 228.253  1.00  0.00     0.025 A 
HETATM   23  C   UNL     1     -39.258-113.861 227.013  1.00  0.00     0.067 A 
HETATM   24  C   UNL     1     -40.522-115.444 228.088  1.00  0.00     0.122 A 
HETATM   25  N   UNL     1     -39.551-114.893 226.184  1.00  0.00    -0.288 N 
HETATM   26  C   UNL     1     -38.546-112.667 226.903  1.00  0.00     0.080 A 
HETATM   27  N   UNL     1     -40.315-115.845 226.870  1.00  0.00    -0.308 N 
ATOM     28  HN  UNL     1     -40.657-116.722 226.474  1.00  0.00     0.186 HD
BRANCH  25  29
HETATM   29  C   UNL     1     -39.122-115.029 224.795  1.00  0.00     0.100 C 
HETATM   30  C   UNL     1     -39.993-114.131 223.914  1.00  0.00     0.034 C 
HETATM   31  C   UNL     1     -39.297-116.500 224.427  1.00  0.00     0.034 C 
ENDBRANCH  25  29
ENDBRANCH  16  18
ENDBRANCH   5  16
BRANCH   6  32
HETATM   32  C   UNL     1     -38.143-105.921 229.239  1.00  0.00     0.063 C 
HETATM   33  C   UNL     1     -39.484-105.341 229.729  1.00  0.00     0.243 C 
HETATM   34  N   UNL     1     -39.247-104.877 231.110  1.00  0.00    -0.074 N 
HETATM   35  C   UNL     1     -37.898-105.307 231.536  1.00  0.00     0.233 C 
ATOM     36  HN2 UNL     1     -39.974-105.187 231.754  1.00  0.00     0.277 HD
ATOM     37  HN1 UNL     1     -39.384-103.872 231.211  1.00  0.00     0.277 HD
HETATM   38  C   UNL     1     -37.513-106.443 230.556  1.00  0.00     0.040 C 
ENDBRANCH   6  32
TORSDOF 4
ENDMDL
MODEL 17
REMARK VINA RESULT:    -7.776      3.579      6.247
REMARK INTER + INTRA:         -10.352
REMARK INTER:                  -9.682
REMARK INTRA:                  -0.670
REMARK UNBOUND:                -0.758
REMARK  4 active torsions:
REMARK  status: ('A' for Active; 'I' for Inactive)
REMARK    1  A    between atoms: C_3  and  N_20 
REMARK    2  A    between atoms: C_13  and  N_15 
REMARK    3  A    between atoms: N_20  and  C_22 
REMARK    4  A    between atoms: C_23  and  C_33 
ROOT
HETATM    1  C   UNL     1     -39.258-110.078 225.738  1.00  0.00     0.075 A 
HETATM    2  C   UNL     1     -37.870-105.363 226.217  1.00  0.00     0.147 C 
HETATM    3  C   UNL     1     -38.124-104.051 227.008  1.00  0.00     0.101 C 
HETATM    4  C   UNL     1     -39.090-105.888 228.245  1.00  0.00     0.220 C 
HETATM    5  C   UNL     1     -39.849-109.582 226.901  1.00  0.00     0.124 A 
HETATM    6  C   UNL     1     -38.359-109.276 225.067  1.00  0.00     0.036 A 
HETATM    7  N   UNL     1     -38.052-108.088 225.543  1.00  0.00    -0.195 N 
ATOM      8  HN  UNL     1     -37.367-107.506 225.061  1.00  0.00     0.184 HD
HETATM    9  C   UNL     1     -38.634-107.648 226.649  1.00  0.00     0.682 A 
HETATM   10  N   UNL     1     -39.505-108.371 227.323  1.00  0.00    -0.176 N 
ATOM     11  HN  UNL     1     -39.919-107.998 228.177  1.00  0.00     0.186 HD
HETATM   12  N   UNL     1     -38.298-106.422 227.144  1.00  0.00    -0.212 N 
HETATM   13  C   UNL     1     -38.400-104.534 228.463  1.00  0.00     0.261 C 
HETATM   14  F   UNL     1     -39.244-103.677 229.172  1.00  0.00    -0.204 F 
HETATM   15  F   UNL     1     -37.195-104.692 229.133  1.00  0.00    -0.204 F 
ENDROOT
BRANCH   5  16
HETATM   16  N   UNL     1     -40.746-110.399 227.565  1.00  0.00    -0.328 N 
ATOM     17  HN  UNL     1     -41.543-109.924 227.989  1.00  0.00     0.169 HD
BRANCH  16  18
HETATM   18  C   UNL     1     -40.712-111.785 227.735  1.00  0.00     0.108 A 
HETATM   19  N   UNL     1     -40.944-112.206 228.969  1.00  0.00    -0.351 N 
HETATM   20  C   UNL     1     -40.942-113.481 229.286  1.00  0.00     0.104 A 
ATOM     21  HN  UNL     1     -41.130-111.517 229.698  1.00  0.00     0.166 HD
HETATM   22  C   UNL     1     -40.665-114.446 228.321  1.00  0.00     0.025 A 
HETATM   23  C   UNL     1     -40.393-114.042 226.997  1.00  0.00     0.067 A 
HETATM   24  C   UNL     1     -40.569-115.896 228.337  1.00  0.00     0.122 A 
HETATM   25  N   UNL     1     -40.158-115.176 226.292  1.00  0.00    -0.288 N 
HETATM   26  C   UNL     1     -40.419-112.678 226.710  1.00  0.00     0.080 A 
HETATM   27  N   UNL     1     -40.264-116.288 227.137  1.00  0.00    -0.308 N 
ATOM     28  HN  UNL     1     -40.123-117.258 226.853  1.00  0.00     0.186 HD
BRANCH  25  29
HETATM   29  C   UNL     1     -39.814-115.251 224.875  1.00  0.00     0.100 C 
HETATM   30  C   UNL     1     -40.216-116.626 224.336  1.00  0.00     0.034 C 
HETATM   31  C   UNL     1     -38.305-115.041 224.780  1.00  0.00     0.034 C 
ENDBRANCH  25  29
ENDBRANCH  16  18
ENDBRANCH   5  16
BRANCH   6  32
HETATM   32  C   UNL     1     -37.718-109.763 223.798  1.00  0.00     0.063 C 
HETATM   33  C   UNL     1     -36.197-109.898 224.009  1.00  0.00     0.243 C 
HETATM   34  N   UNL     1     -35.769-111.033 223.169  1.00  0.00    -0.074 N 
HETATM   35  C   UNL     1     -36.966-111.695 222.609  1.00  0.00     0.233 C 
ATOM     36  HN2 UNL     1     -35.165-111.683 223.672  1.00  0.00     0.277 HD
ATOM     37  HN1 UNL     1     -35.106-110.752 222.446  1.00  0.00     0.277 HD
HETATM   38  C   UNL     1     -38.137-111.226 223.507  1.00  0.00     0.040 C 
ENDBRANCH   6  32
TORSDOF 4
ENDMDL
MODEL 18
REMARK VINA RESULT:    -7.753      3.692      7.237
REMARK INTER + INTRA:         -10.324
REMARK INTER:                  -9.297
REMARK INTRA:                  -1.027
REMARK UNBOUND:                -0.758
REMARK  4 active torsions:
REMARK  status: ('A' for Active; 'I' for Inactive)
REMARK    1  A    between atoms: C_3  and  N_20 
REMARK    2  A    between atoms: C_13  and  N_15 
REMARK    3  A    between atoms: N_20  and  C_22 
REMARK    4  A    between atoms: C_23  and  C_33 
ROOT
HETATM    1  C   UNL     1     -40.802-112.526 225.595  1.00  0.00     0.075 A 
HETATM    2  C   UNL     1     -38.971-115.538 222.136  1.00  0.00     0.147 C 
HETATM    3  C   UNL     1     -38.875-115.785 220.606  1.00  0.00     0.101 C 
HETATM    4  C   UNL     1     -39.569-113.499 220.969  1.00  0.00     0.220 C 
HETATM    5  C   UNL     1     -40.979-111.903 224.358  1.00  0.00     0.124 A 
HETATM    6  C   UNL     1     -40.083-113.702 225.638  1.00  0.00     0.036 A 
HETATM    7  N   UNL     1     -39.557-114.195 224.537  1.00  0.00    -0.195 N 
ATOM      8  HN  UNL     1     -39.003-115.051 224.574  1.00  0.00     0.184 HD
HETATM    9  C   UNL     1     -39.748-113.578 223.380  1.00  0.00     0.682 A 
HETATM   10  N   UNL     1     -40.432-112.456 223.283  1.00  0.00    -0.176 N 
ATOM     11  HN  UNL     1     -40.542-112.009 222.374  1.00  0.00     0.186 HD
HETATM   12  N   UNL     1     -39.185-114.087 222.246  1.00  0.00    -0.212 N 
HETATM   13  C   UNL     1     -38.742-114.356 220.000  1.00  0.00     0.261 C 
HETATM   14  F   UNL     1     -39.267-114.259 218.710  1.00  0.00    -0.204 F 
HETATM   15  F   UNL     1     -37.408-113.973 220.010  1.00  0.00    -0.204 F 
ENDROOT
BRANCH   5  16
HETATM   16  N   UNL     1     -41.698-110.722 224.331  1.00  0.00    -0.328 N 
ATOM     17  HN  UNL     1     -42.617-110.757 224.772  1.00  0.00     0.169 HD
BRANCH  16  18
HETATM   18  C   UNL     1     -41.341-109.488 223.785  1.00  0.00     0.108 A 
HETATM   19  N   UNL     1     -42.171-109.017 222.867  1.00  0.00    -0.351 N 
HETATM   20  C   UNL     1     -41.968-107.871 222.259  1.00  0.00     0.104 A 
ATOM     21  HN  UNL     1     -42.997-109.564 222.623  1.00  0.00     0.166 HD
HETATM   22  C   UNL     1     -40.836-107.112 222.549  1.00  0.00     0.025 A 
HETATM   23  C   UNL     1     -39.914-107.582 223.507  1.00  0.00     0.067 A 
HETATM   24  C   UNL     1     -40.315-105.845 222.065  1.00  0.00     0.122 A 
HETATM   25  N   UNL     1     -38.927-106.656 223.577  1.00  0.00    -0.288 N 
HETATM   26  C   UNL     1     -40.183-108.800 224.132  1.00  0.00     0.080 A 
HETATM   27  N   UNL     1     -39.196-105.613 222.681  1.00  0.00    -0.308 N 
ATOM     28  HN  UNL     1     -38.602-104.796 222.534  1.00  0.00     0.186 HD
BRANCH  25  29
HETATM   29  C   UNL     1     -37.741-106.725 224.426  1.00  0.00     0.100 C 
HETATM   30  C   UNL     1     -38.042-106.040 225.761  1.00  0.00     0.034 C 
HETATM   31  C   UNL     1     -36.625-106.003 223.676  1.00  0.00     0.034 C 
ENDBRANCH  25  29
ENDBRANCH  16  18
ENDBRANCH   5  16
BRANCH   6  32
HETATM   32  C   UNL     1     -39.890-114.417 226.946  1.00  0.00     0.063 C 
HETATM   33  C   UNL     1     -40.989-113.983 227.936  1.00  0.00     0.243 C 
HETATM   34  N   UNL     1     -41.264-115.161 228.781  1.00  0.00    -0.074 N 
HETATM   35  C   UNL     1     -40.526-116.323 228.241  1.00  0.00     0.233 C 
ATOM     36  HN2 UNL     1     -42.262-115.346 228.877  1.00  0.00     0.277 HD
ATOM     37  HN1 UNL     1     -41.054-114.991 229.764  1.00  0.00     0.277 HD
HETATM   38  C   UNL     1     -40.178-115.931 226.783  1.00  0.00     0.040 C 
ENDBRANCH   6  32
TORSDOF 4
ENDMDL
MODEL 19
REMARK VINA RESULT:    -7.678      3.185      5.940
REMARK INTER + INTRA:         -10.231
REMARK INTER:                  -9.646
REMARK INTRA:                  -0.586
REMARK UNBOUND:                -0.758
REMARK  4 active torsions:
REMARK  status: ('A' for Active; 'I' for Inactive)
REMARK    1  A    between atoms: C_3  and  N_20 
REMARK    2  A    between atoms: C_13  and  N_15 
REMARK    3  A    between atoms: N_20  and  C_22 
REMARK    4  A    between atoms: C_23  and  C_33 
ROOT
HETATM    1  C   UNL     1     -40.141-113.700 222.958  1.00  0.00     0.075 A 
HETATM    2  C   UNL     1     -37.963-116.242 219.327  1.00  0.00     0.147 C 
HETATM    3  C   UNL     1     -37.770-116.322 217.788  1.00  0.00     0.101 C 
HETATM    4  C   UNL     1     -38.605-114.123 218.340  1.00  0.00     0.220 C 
HETATM    5  C   UNL     1     -40.282-112.960 221.783  1.00  0.00     0.124 A 
HETATM    6  C   UNL     1     -39.364-114.839 222.924  1.00  0.00     0.036 A 
HETATM    7  N   UNL     1     -38.752-115.188 221.812  1.00  0.00    -0.195 N 
ATOM      8  HN  UNL     1     -38.156-116.015 221.795  1.00  0.00     0.184 HD
HETATM    9  C   UNL     1     -38.911-114.463 220.715  1.00  0.00     0.682 A 
HETATM   10  N   UNL     1     -39.648-113.370 220.692  1.00  0.00    -0.176 N 
ATOM     11  HN  UNL     1     -39.732-112.836 219.828  1.00  0.00     0.186 HD
HETATM   12  N   UNL     1     -38.261-114.822 219.571  1.00  0.00    -0.212 N 
HETATM   13  C   UNL     1     -37.681-114.833 217.340  1.00  0.00     0.261 C 
HETATM   14  F   UNL     1     -38.138-114.626 216.038  1.00  0.00    -0.204 F 
HETATM   15  F   UNL     1     -36.372-114.389 217.470  1.00  0.00    -0.204 F 
ENDROOT
BRANCH   5  16
HETATM   16  N   UNL     1     -41.062-111.818 221.834  1.00  0.00    -0.328 N 
ATOM     17  HN  UNL     1     -41.790-111.751 221.122  1.00  0.00     0.169 HD
BRANCH  16  18
HETATM   18  C   UNL     1     -40.991-110.744 222.723  1.00  0.00     0.108 A 
HETATM   19  N   UNL     1     -41.202-109.553 222.186  1.00  0.00    -0.351 N 
HETATM   20  C   UNL     1     -41.164-108.447 222.894  1.00  0.00     0.104 A 
ATOM     21  HN  UNL     1     -41.400-109.491 221.187  1.00  0.00     0.166 HD
HETATM   22  C   UNL     1     -40.869-108.493 224.255  1.00  0.00     0.025 A 
HETATM   23  C   UNL     1     -40.619-109.739 224.867  1.00  0.00     0.067 A 
HETATM   24  C   UNL     1     -40.736-107.489 225.296  1.00  0.00     0.122 A 
HETATM   25  N   UNL     1     -40.360-109.480 226.172  1.00  0.00    -0.288 N 
HETATM   26  C   UNL     1     -40.683-110.884 224.073  1.00  0.00     0.080 A 
HETATM   27  N   UNL     1     -40.430-108.100 226.401  1.00  0.00    -0.308 N 
ATOM     28  HN  UNL     1     -40.267-107.644 227.299  1.00  0.00     0.186 HD
BRANCH  25  29
HETATM   29  C   UNL     1     -40.025-110.467 227.195  1.00  0.00     0.100 C 
HETATM   30  C   UNL     1     -41.314-111.122 227.695  1.00  0.00     0.034 C 
HETATM   31  C   UNL     1     -39.321-109.710 228.317  1.00  0.00     0.034 C 
ENDBRANCH  25  29
ENDBRANCH  16  18
ENDBRANCH   5  16
BRANCH   6  32
HETATM   32  C   UNL     1     -39.204-115.677 224.162  1.00  0.00     0.063 C 
HETATM   33  C   UNL     1     -39.339-114.781 225.409  1.00  0.00     0.243 C 
HETATM   34  N   UNL     1     -39.960-115.624 226.450  1.00  0.00    -0.074 N 
HETATM   35  C   UNL     1     -40.367-116.910 225.846  1.00  0.00     0.233 C 
ATOM     36  HN2 UNL     1     -40.733-115.153 226.920  1.00  0.00     0.277 HD
ATOM     37  HN1 UNL     1     -39.354-115.749 227.260  1.00  0.00     0.277 HD
HETATM   38  C   UNL     1     -40.407-116.641 224.322  1.00  0.00     0.040 C 
ENDBRANCH   6  32
TORSDOF 4
ENDMDL
MODEL 20
REMARK VINA RESULT:    -7.638      1.985      2.404
REMARK INTER + INTRA:         -10.181
REMARK INTER:                  -9.344
REMARK INTRA:                  -0.837
REMARK UNBOUND:                -0.758
REMARK  4 active torsions:
REMARK  status: ('A' for Active; 'I' for Inactive)
REMARK    1  A    between atoms: C_3  and  N_20 
REMARK    2  A    between atoms: C_13  and  N_15 
REMARK    3  A    between atoms: N_20  and  C_22 
REMARK    4  A    between atoms: C_23  and  C_33 
ROOT
HETATM    1  C   UNL     1     -39.114-114.411 220.717  1.00  0.00     0.075 A 
HETATM    2  C   UNL     1     -40.250-109.661 221.452  1.00  0.00     0.147 C 
HETATM    3  C   UNL     1     -40.560-108.596 222.539  1.00  0.00     0.101 C 
HETATM    4  C   UNL     1     -39.508-110.491 223.606  1.00  0.00     0.220 C 
HETATM    5  C   UNL     1     -39.008-114.160 222.086  1.00  0.00     0.124 A 
HETATM    6  C   UNL     1     -39.357-113.346 219.874  1.00  0.00     0.036 A 
HETATM    7  N   UNL     1     -39.452-112.127 220.360  1.00  0.00    -0.195 N 
ATOM      8  HN  UNL     1     -39.605-111.337 219.733  1.00  0.00     0.184 HD
HETATM    9  C   UNL     1     -39.349-111.927 221.666  1.00  0.00     0.682 A 
HETATM   10  N   UNL     1     -39.124-112.910 222.515  1.00  0.00    -0.176 N 
ATOM     11  HN  UNL     1     -39.039-112.707 223.510  1.00  0.00     0.186 HD
HETATM   12  N   UNL     1     -39.432-110.658 222.160  1.00  0.00    -0.212 N 
HETATM   13  C   UNL     1     -39.604-108.962 223.712  1.00  0.00     0.261 C 
HETATM   14  F   UNL     1     -40.109-108.602 224.962  1.00  0.00    -0.204 F 
HETATM   15  F   UNL     1     -38.366-108.370 223.501  1.00  0.00    -0.204 F 
ENDROOT
BRANCH   5  16
HETATM   16  N   UNL     1     -38.761-115.237 222.918  1.00  0.00    -0.328 N 
ATOM     17  HN  UNL     1     -38.144-115.954 222.537  1.00  0.00     0.169 HD
BRANCH  16  18
HETATM   18  C   UNL     1     -39.238-115.479 224.208  1.00  0.00     0.108 A 
HETATM   19  N   UNL     1     -39.779-116.673 224.393  1.00  0.00    -0.351 N 
HETATM   20  C   UNL     1     -40.276-117.045 225.551  1.00  0.00     0.104 A 
ATOM     21  HN  UNL     1     -39.812-117.325 223.610  1.00  0.00     0.166 HD
HETATM   22  C   UNL     1     -40.271-116.169 226.633  1.00  0.00     0.025 A 
HETATM   23  C   UNL     1     -39.722-114.879 226.477  1.00  0.00     0.067 A 
HETATM   24  C   UNL     1     -40.738-116.254 228.007  1.00  0.00     0.122 A 
HETATM   25  N   UNL     1     -39.858-114.257 227.674  1.00  0.00    -0.288 N 
HETATM   26  C   UNL     1     -39.197-114.537 225.231  1.00  0.00     0.080 A 
HETATM   27  N   UNL     1     -40.488-115.117 228.583  1.00  0.00    -0.308 N 
ATOM     28  HN  UNL     1     -40.715-114.886 229.550  1.00  0.00     0.186 HD
BRANCH  25  29
HETATM   29  C   UNL     1     -39.446-112.891 227.985  1.00  0.00     0.100 C 
HETATM   30  C   UNL     1     -38.085-112.927 228.683  1.00  0.00     0.034 C 
HETATM   31  C   UNL     1     -40.520-112.311 228.901  1.00  0.00     0.034 C 
ENDBRANCH  25  29
ENDBRANCH  16  18
ENDBRANCH   5  16
BRANCH   6  32
HETATM   32  C   UNL     1     -39.501-113.576 218.395  1.00  0.00     0.063 C 
HETATM   33  C   UNL     1     -38.757-112.466 217.628  1.00  0.00     0.243 C 
HETATM   34  N   UNL     1     -38.247-113.095 216.394  1.00  0.00    -0.074 N 
HETATM   35  C   UNL     1     -38.486-114.552 216.464  1.00  0.00     0.233 C 
ATOM     36  HN2 UNL     1     -37.267-112.870 216.220  1.00  0.00     0.277 HD
ATOM     37  HN1 UNL     1     -38.641-112.676 215.553  1.00  0.00     0.277 HD
HETATM   38  C   UNL     1     -38.723-114.846 217.966  1.00  0.00     0.040 C 
ENDBRANCH   6  32
TORSDOF 4
ENDMDL
