REMARK  9 active torsions:
REMARK  status: ('A' for Active; 'I' for Inactive)
REMARK    1  A    between atoms: C_3  and  C_4 
REMARK    2  A    between atoms: C_3  and  C_11 
REMARK    3  A    between atoms: C_4  and  C_7 
REMARK    4  A    between atoms: N_5  and  C_21 
REMARK       I    between atoms: N_5  and  C_7 
REMARK    5  A    between atoms: C_10  and  C_11 
REMARK    6  A    between atoms: C_10  and  C_12 
REMARK    7  A    between atoms: C_25  and  C_27 
REMARK    8  A    between atoms: C_29  and  C_30 
REMARK    9  A    between atoms: C_33  and  C_35 
ROOT
HETATM    1  N   UNL     1      46.470 -23.485  15.642  1.00  0.00    -0.349 N 
ATOM      2  HN  UNL     1      47.192 -23.965  16.178  1.00  0.00     0.163 HD
HETATM    3  C   UNL     1      46.064 -22.270  16.033  1.00  0.00     0.218 C 
HETATM    4  O   UNL     1      45.192 -21.620  15.422  1.00  0.00    -0.274 OA
ENDROOT
BRANCH   1   5
HETATM    5  C   UNL     1      45.911 -24.128  14.483  1.00  0.00     0.167 C 
HETATM    6  C   UNL     1      44.414 -24.219  14.725  1.00  0.00     0.186 C 
HETATM    7  C   UNL     1      43.749 -23.787  13.482  1.00  0.00     0.068 C 
HETATM    8  O   UNL     1      43.849 -24.535  15.755  1.00  0.00    -0.290 OA
HETATM    9  C   UNL     1      44.636 -23.197  12.622  1.00  0.00     0.166 C 
HETATM   10  O   UNL     1      44.343 -22.843  11.490  1.00  0.00    -0.292 OA
HETATM   11  C   UNL     1      46.029 -23.332  13.169  1.00  0.00     0.117 C 
BRANCH   7  12
HETATM   12  C   UNL     1      42.295 -23.392  13.728  1.00  0.00    -0.018 A 
HETATM   13  C   UNL     1      41.379 -24.347  14.154  1.00  0.00     0.020 A 
HETATM   14  C   UNL     1      40.027 -24.044  14.288  1.00  0.00    -0.047 A 
HETATM   15  C   UNL     1      39.599 -22.758  13.973  1.00  0.00     0.015 A 
HETATM   16  C   UNL     1      40.499 -21.780  13.563  1.00  0.00    -0.047 A 
HETATM   17  C   UNL     1      41.848 -22.107  13.457  1.00  0.00     0.020 A 
BRANCH  14  18
HETATM   18  C   UNL     1      39.053 -25.075  14.802  1.00  0.00     0.124 C 
HETATM   19  S   UNL     1      39.735 -26.770  14.692  1.00  0.00    -0.093 SA
ENDBRANCH  14  18
BRANCH  16  20
HETATM   20  C   UNL     1      40.030 -20.384  13.257  1.00  0.00     0.124 C 
HETATM   21  S   UNL     1      39.957 -19.671  14.906  1.00  0.00    -0.093 SA
ENDBRANCH  16  20
ENDBRANCH   7  12
ENDBRANCH   1   5
BRANCH   3  22
HETATM   22  C   UNL     1      46.848 -21.661  17.167  1.00  0.00     0.103 C 
BRANCH  22  23
HETATM   23  C   UNL     1      47.182 -20.209  16.927  1.00  0.00     0.009 C 
BRANCH  23  24
HETATM   24  C   UNL     1      48.239 -20.029  15.820  1.00  0.00     0.002 C 
BRANCH  24  25
HETATM   25  C   UNL     1      48.476 -18.615  15.396  1.00  0.00     0.017 C 
BRANCH  25  26
HETATM   26  C   UNL     1      49.554 -18.453  14.318  1.00  0.00     0.072 C 
HETATM   27  S   UNL     1      51.265 -18.803  14.760  1.00  0.00    -0.160 SA
HETATM   28  C   UNL     1      51.826 -18.135  13.156  1.00  0.00     0.101 C 
HETATM   29  C   UNL     1      51.022 -16.851  12.979  1.00  0.00     0.119 A 
HETATM   30  C   UNL     1      49.639 -17.020  13.700  1.00  0.00     0.123 A 
HETATM   31  N   UNL     1      51.616 -15.755  13.705  1.00  0.00    -0.336 N 
HETATM   32  N   UNL     1      49.704 -15.967  14.708  1.00  0.00    -0.335 N 
HETATM   33  C   UNL     1      50.859 -15.265  14.669  1.00  0.00     0.316 A 
ATOM     34  HN  UNL     1      48.955 -15.780  15.374  1.00  0.00     0.164 HD
HETATM   35  O   UNL     1      51.126 -14.310  15.374  1.00  0.00    -0.247 OA
ATOM     36  HN  UNL     1      52.544 -15.389  13.491  1.00  0.00     0.164 HD
ENDBRANCH  25  26
ENDBRANCH  24  25
ENDBRANCH  23  24
ENDBRANCH  22  23
ENDBRANCH   3  22
TORSDOF 9
