REMARK  11 active torsions:
REMARK  status: ('A' for Active; 'I' for Inactive)
REMARK    1  A    between atoms: C_2  and  C_3 
REMARK    2  A    between atoms: C_2  and  C_9 
REMARK    3  A    between atoms: C_3  and  C_5 
REMARK       I    between atoms: N_4  and  C_5 
REMARK    4  A    between atoms: N_4  and  C_18 
REMARK    5  A    between atoms: C_8  and  C_9 
REMARK    6  A    between atoms: C_8  and  C_10 
REMARK    7  A    between atoms: C_22  and  C_24 
REMARK    8  A    between atoms: C_26  and  C_27 
REMARK    9  A    between atoms: C_27  and  S_28 
REMARK   10  A    between atoms: C_30  and  C_32 
REMARK   11  A    between atoms: C_32  and  S_33 
ROOT
HETATM    1  O   UNL     1      -2.825   1.895  -0.262  1.00  0.00    -0.294 OA
HETATM    2  C   UNL     1      -0.444   1.700  -0.412  1.00  0.00     0.162 A 
HETATM    3  C   UNL     1       0.660   2.472   0.339  1.00  0.00     0.112 A 
HETATM    4  C   UNL     1      -0.069   3.339   1.314  1.00  0.00     0.145 A 
HETATM    5  O   UNL     1       0.507   4.090   2.088  1.00  0.00    -0.297 OA
HETATM    6  C   UNL     1      -1.553   3.221   1.253  1.00  0.00     0.160 A 
HETATM    7  C   UNL     1      -1.727   2.226   0.159  1.00  0.00     0.165 A 
ENDROOT
BRANCH   2   8
HETATM    8  N   UNL     1      -0.343   0.253  -0.192  1.00  0.00    -0.349 N 
HETATM    9  C   UNL     1      -1.017  -0.694  -1.033  1.00  0.00     0.218 C 
HETATM   10  O   UNL     1      -1.740  -0.293  -1.985  1.00  0.00    -0.274 OA
HETATM   11  H   UNL     1       0.195  -0.110   0.627  1.00  0.00     0.163 HD
BRANCH   9  12
HETATM   12  C   UNL     1      -0.907  -2.168  -0.753  1.00  0.00     0.103 C 
BRANCH  12  13
HETATM   13  C   UNL     1      -0.617  -2.988  -2.019  1.00  0.00     0.009 C 
BRANCH  13  14
HETATM   14  C   UNL     1       0.775  -2.696  -2.599  1.00  0.00     0.002 C 
BRANCH  14  15
HETATM   15  C   UNL     1       1.019  -3.523  -3.871  1.00  0.00     0.017 C 
BRANCH  15  16
HETATM   16  C   UNL     1       2.406  -3.253  -4.484  1.00  0.00     0.072 C 
HETATM   17  C   UNL     1       3.609  -3.705  -3.633  1.00  0.00     0.123 A 
HETATM   18  C   UNL     1       4.804  -3.989  -4.590  1.00  0.00     0.119 A 
HETATM   19  N   UNL     1       3.360  -4.969  -2.938  1.00  0.00    -0.335 N 
HETATM   20  N   UNL     1       5.175  -5.383  -4.360  1.00  0.00    -0.336 N 
HETATM   21  C   UNL     1       4.346  -3.792  -6.035  1.00  0.00     0.101 C 
HETATM   22  C   UNL     1       4.304  -5.908  -3.389  1.00  0.00     0.316 A 
HETATM   23  H   UNL     1       5.942  -5.904  -4.840  1.00  0.00     0.164 HD
HETATM   24  O   UNL     1       4.371  -7.090  -2.961  1.00  0.00    -0.247 OA
HETATM   25  S   UNL     1       2.555  -4.072  -6.099  1.00  0.00    -0.160 SA
HETATM   26  H   UNL     1       2.691  -5.120  -2.149  1.00  0.00     0.164 HD
ENDBRANCH  15  16
ENDBRANCH  14  15
ENDBRANCH  13  14
ENDBRANCH  12  13
ENDBRANCH   9  12
ENDBRANCH   2   8
BRANCH   6  27
HETATM   27  C   UNL     1      -2.143   2.729   2.558  1.00  0.00    -0.038 A 
HETATM   28  C   UNL     1      -3.160   3.466   3.184  1.00  0.00     0.016 A 
HETATM   29  C   UNL     1      -3.724   3.026   4.393  1.00  0.00    -0.048 A 
HETATM   30  C   UNL     1      -3.254   1.844   4.985  1.00  0.00     0.015 A 
HETATM   31  C   UNL     1      -2.252   1.087   4.361  1.00  0.00    -0.048 A 
HETATM   32  C   UNL     1      -1.694   1.537   3.156  1.00  0.00     0.016 A 
BRANCH  29  33
HETATM   33  C   UNL     1      -4.781   3.844   5.077  1.00  0.00     0.109 C 
BRANCH  33  34
HETATM   34  S   UNL     1      -3.998   5.043   6.197  1.00  0.00    -0.178 SA
HETATM   35  H   UNL     1      -5.240   5.560   6.618  1.00  0.00     0.101 HD
ENDBRANCH  33  34
ENDBRANCH  29  33
BRANCH  31  36
HETATM   36  C   UNL     1      -1.735  -0.165   5.012  1.00  0.00     0.109 C 
BRANCH  36  37
HETATM   37  S   UNL     1      -0.328   0.231   6.092  1.00  0.00    -0.178 SA
HETATM   38  H   UNL     1      -1.127   0.955   7.001  1.00  0.00     0.101 HD
ENDBRANCH  36  37
ENDBRANCH  31  36
ENDBRANCH   6  27
TORSDOF 11
