MODEL 1
REMARK VINA RESULT:    -8.649      0.000      0.000
REMARK INTER + INTRA:         -11.090
REMARK INTER:                 -10.671
REMARK INTRA:                  -0.420
REMARK UNBOUND:                -0.420
REMARK  4 active torsions:
REMARK  status: ('A' for Active; 'I' for Inactive)
REMARK    1  A    between atoms: C_3  and  C_8 
REMARK    2  A    between atoms: C_10  and  C_11 
REMARK       I    between atoms: C_11  and  N_12 
REMARK    3  A    between atoms: N_12  and  C_15 
REMARK    4  A    between atoms: C_15  and  C_16 
ROOT
HETATM    1  C   UNL     1     -14.706 -21.644  -0.233  1.00  0.00     0.257 C 
HETATM    2  N   UNL     1     -15.830 -22.360  -0.289  1.00  0.00    -0.351 N 
ATOM      3  HN  UNL     1     -15.815 -23.338  -0.003  1.00  0.00     0.163 HD
HETATM    4  O   UNL     1     -14.666 -20.465  -0.596  1.00  0.00    -0.267 OA
ENDROOT
BRANCH   2   5
HETATM    5  C   UNL     1     -17.071 -21.773  -0.748  1.00  0.00     0.188 C 
BRANCH   5   6
HETATM    6  C   UNL     1     -18.268 -22.591  -0.438  1.00  0.00     0.072 A 
HETATM    7  O   UNL     1     -18.489 -22.838   0.909  1.00  0.00    -0.311 OA
HETATM    8  C   UNL     1     -19.647 -23.571   0.979  1.00  0.00     0.103 A 
HETATM    9  C   UNL     1     -20.159 -23.805  -0.299  1.00  0.00     0.001 A 
HETATM   10  C   UNL     1     -20.305 -24.002   2.140  1.00  0.00     0.075 A 
HETATM   11  C   UNL     1     -19.246 -23.158  -1.203  1.00  0.00     0.048 A 
HETATM   12  C   UNL     1     -21.371 -24.489  -0.416  1.00  0.00     0.014 A 
HETATM   13  C   UNL     1     -22.039 -24.921   0.720  1.00  0.00     0.002 A 
HETATM   14  C   UNL     1     -21.515 -24.684   1.987  1.00  0.00     0.021 A 
BRANCH  10  15
HETATM   15  C   UNL     1     -19.756 -23.784   3.527  1.00  0.00     0.212 C 
HETATM   16  O   UNL     1     -20.209 -24.525   4.492  1.00  0.00    -0.644 OA
HETATM   17  O   UNL     1     -18.894 -22.970   3.750  1.00  0.00    -0.644 OA
ENDBRANCH  10  15
ENDBRANCH   5   6
ENDBRANCH   2   5
BRANCH   1  18
HETATM   18  C   UNL     1     -13.474 -22.318   0.278  1.00  0.00     0.094 A 
HETATM   19  C   UNL     1     -13.177 -23.694   0.315  1.00  0.00     0.128 A 
HETATM   20  N   UNL     1     -11.988 -23.956   0.844  1.00  0.00    -0.303 N 
HETATM   21  N   UNL     1     -11.462 -22.698   1.176  1.00  0.00    -0.250 N 
ATOM     22  HN  UNL     1     -11.553 -24.869   0.979  1.00  0.00     0.186 HD
HETATM   23  C   UNL     1     -10.259 -22.418   1.772  1.00  0.00     0.119 A 
HETATM   24  C   UNL     1     -12.324 -21.686   0.848  1.00  0.00     0.143 A 
HETATM   25  C   UNL     1      -9.958 -21.124   2.028  1.00  0.00     0.036 A 
HETATM   26  C   UNL     1     -10.878 -20.139   1.669  1.00  0.00     0.091 A 
HETATM   27  N   UNL     1     -12.046 -20.378   1.090  1.00  0.00    -0.350 N 
ATOM     28  HN  UNL     1     -12.693 -19.630   0.841  1.00  0.00     0.166 HD
ENDBRANCH   1  18
TORSDOF 4
ENDMDL
MODEL 2
REMARK VINA RESULT:    -8.345      4.027      6.063
REMARK INTER + INTRA:         -10.716
REMARK INTER:                 -10.355
REMARK INTRA:                  -0.361
REMARK UNBOUND:                -0.420
REMARK  4 active torsions:
REMARK  status: ('A' for Active; 'I' for Inactive)
REMARK    1  A    between atoms: C_3  and  C_8 
REMARK    2  A    between atoms: C_10  and  C_11 
REMARK       I    between atoms: C_11  and  N_12 
REMARK    3  A    between atoms: N_12  and  C_15 
REMARK    4  A    between atoms: C_15  and  C_16 
ROOT
HETATM    1  C   UNL     1     -10.334 -22.452   2.065  1.00  0.00     0.257 C 
HETATM    2  N   UNL     1     -11.555 -22.386   1.531  1.00  0.00    -0.351 N 
ATOM      3  HN  UNL     1     -12.308 -22.943   1.933  1.00  0.00     0.163 HD
HETATM    4  O   UNL     1      -9.382 -21.821   1.596  1.00  0.00    -0.267 OA
ENDROOT
BRANCH   2   5
HETATM    5  C   UNL     1     -11.828 -21.538   0.389  1.00  0.00     0.188 C 
BRANCH   5   6
HETATM    6  C   UNL     1     -13.269 -21.445   0.049  1.00  0.00     0.072 A 
HETATM    7  O   UNL     1     -13.718 -20.180  -0.301  1.00  0.00    -0.311 OA
HETATM    8  C   UNL     1     -15.048 -20.317  -0.608  1.00  0.00     0.103 A 
HETATM    9  C   UNL     1     -15.455 -21.643  -0.447  1.00  0.00     0.001 A 
HETATM   10  C   UNL     1     -15.914 -19.320  -1.078  1.00  0.00     0.075 A 
HETATM   11  C   UNL     1     -14.282 -22.357  -0.021  1.00  0.00     0.048 A 
HETATM   12  C   UNL     1     -16.772 -21.980  -0.773  1.00  0.00     0.014 A 
HETATM   13  C   UNL     1     -17.642 -21.009  -1.242  1.00  0.00     0.002 A 
HETATM   14  C   UNL     1     -17.224 -19.691  -1.394  1.00  0.00     0.021 A 
BRANCH  10  15
HETATM   15  C   UNL     1     -15.503 -17.877  -1.232  1.00  0.00     0.212 C 
HETATM   16  O   UNL     1     -16.434 -16.977  -1.322  1.00  0.00    -0.644 OA
HETATM   17  O   UNL     1     -14.344 -17.544  -1.242  1.00  0.00    -0.644 OA
ENDBRANCH  10  15
ENDBRANCH   5   6
ENDBRANCH   2   5
BRANCH   1  18
HETATM   18  C   UNL     1     -10.142 -23.332   3.258  1.00  0.00     0.094 A 
HETATM   19  C   UNL     1     -11.098 -24.111   3.938  1.00  0.00     0.128 A 
HETATM   20  N   UNL     1     -10.590 -24.773   4.970  1.00  0.00    -0.303 N 
HETATM   21  N   UNL     1      -9.231 -24.424   4.983  1.00  0.00    -0.250 N 
ATOM     22  HN  UNL     1     -11.079 -25.397   5.612  1.00  0.00     0.186 HD
HETATM   23  C   UNL     1      -8.265 -24.827   5.869  1.00  0.00     0.119 A 
HETATM   24  C   UNL     1      -8.920 -23.561   3.967  1.00  0.00     0.143 A 
HETATM   25  C   UNL     1      -7.011 -24.345   5.712  1.00  0.00     0.036 A 
HETATM   26  C   UNL     1      -6.758 -23.470   4.655  1.00  0.00     0.091 A 
HETATM   27  N   UNL     1      -7.669 -23.065   3.782  1.00  0.00    -0.350 N 
ATOM     28  HN  UNL     1      -7.445 -22.423   3.021  1.00  0.00     0.166 HD
ENDBRANCH   1  18
TORSDOF 4
ENDMDL
MODEL 3
REMARK VINA RESULT:    -8.274      4.329      8.974
REMARK INTER + INTRA:         -10.629
REMARK INTER:                 -10.023
REMARK INTRA:                  -0.606
REMARK UNBOUND:                -0.420
REMARK  4 active torsions:
REMARK  status: ('A' for Active; 'I' for Inactive)
REMARK    1  A    between atoms: C_3  and  C_8 
REMARK    2  A    between atoms: C_10  and  C_11 
REMARK       I    between atoms: C_11  and  N_12 
REMARK    3  A    between atoms: N_12  and  C_15 
REMARK    4  A    between atoms: C_15  and  C_16 
ROOT
HETATM    1  C   UNL     1     -12.022 -21.320   0.192  1.00  0.00     0.257 C 
HETATM    2  N   UNL     1     -10.998 -20.857   0.910  1.00  0.00    -0.351 N 
ATOM      3  HN  UNL     1     -11.033 -19.906   1.277  1.00  0.00     0.163 HD
HETATM    4  O   UNL     1     -12.014 -22.453  -0.299  1.00  0.00    -0.267 OA
ENDROOT
BRANCH   2   5
HETATM    5  C   UNL     1      -9.837 -21.679   1.178  1.00  0.00     0.188 C 
BRANCH   5   6
HETATM    6  C   UNL     1      -9.992 -22.562   2.359  1.00  0.00     0.072 A 
HETATM    7  O   UNL     1      -8.828 -22.816   3.071  1.00  0.00    -0.311 OA
HETATM    8  C   UNL     1      -9.192 -23.611   4.128  1.00  0.00     0.103 A 
HETATM    9  C   UNL     1     -10.562 -23.877   4.094  1.00  0.00     0.001 A 
HETATM   10  C   UNL     1      -8.364 -24.074   5.160  1.00  0.00     0.075 A 
HETATM   11  C   UNL     1     -11.061 -23.184   2.937  1.00  0.00     0.048 A 
HETATM   12  C   UNL     1     -11.121 -24.628   5.132  1.00  0.00     0.014 A 
HETATM   13  C   UNL     1     -10.319 -25.092   6.164  1.00  0.00     0.002 A 
HETATM   14  C   UNL     1      -8.955 -24.823   6.183  1.00  0.00     0.021 A 
BRANCH  10  15
HETATM   15  C   UNL     1      -6.878 -23.822   5.202  1.00  0.00     0.212 C 
HETATM   16  O   UNL     1      -6.131 -24.393   4.307  1.00  0.00    -0.644 OA
HETATM   17  O   UNL     1      -6.381 -23.085   6.017  1.00  0.00    -0.644 OA
ENDBRANCH  10  15
ENDBRANCH   5   6
ENDBRANCH   2   5
BRANCH   1  18
HETATM   18  C   UNL     1     -13.194 -20.416  -0.016  1.00  0.00     0.094 A 
HETATM   19  C   UNL     1     -13.237 -19.009   0.032  1.00  0.00     0.128 A 
HETATM   20  N   UNL     1     -14.449 -18.517  -0.194  1.00  0.00    -0.303 N 
HETATM   21  N   UNL     1     -15.256 -19.646  -0.404  1.00  0.00    -0.250 N 
ATOM     22  HN  UNL     1     -14.731 -17.537  -0.211  1.00  0.00     0.186 HD
HETATM   23  C   UNL     1     -16.604 -19.683  -0.658  1.00  0.00     0.119 A 
HETATM   24  C   UNL     1     -14.538 -20.808  -0.309  1.00  0.00     0.143 A 
HETATM   25  C   UNL     1     -17.194 -20.891  -0.805  1.00  0.00     0.036 A 
HETATM   26  C   UNL     1     -16.406 -22.038  -0.697  1.00  0.00     0.091 A 
HETATM   27  N   UNL     1     -15.104 -22.034  -0.456  1.00  0.00    -0.350 N 
ATOM     28  HN  UNL     1     -14.562 -22.895  -0.385  1.00  0.00     0.166 HD
ENDBRANCH   1  18
TORSDOF 4
ENDMDL
MODEL 4
REMARK VINA RESULT:    -8.243      4.424      6.417
REMARK INTER + INTRA:         -10.590
REMARK INTER:                  -9.819
REMARK INTRA:                  -0.771
REMARK UNBOUND:                -0.420
REMARK  4 active torsions:
REMARK  status: ('A' for Active; 'I' for Inactive)
REMARK    1  A    between atoms: C_3  and  C_8 
REMARK    2  A    between atoms: C_10  and  C_11 
REMARK       I    between atoms: C_11  and  N_12 
REMARK    3  A    between atoms: N_12  and  C_15 
REMARK    4  A    between atoms: C_15  and  C_16 
ROOT
HETATM    1  C   UNL     1     -11.002 -23.031   1.996  1.00  0.00     0.257 C 
HETATM    2  N   UNL     1     -11.555 -22.846   0.797  1.00  0.00    -0.351 N 
ATOM      3  HN  UNL     1     -11.042 -22.330   0.083  1.00  0.00     0.163 HD
HETATM    4  O   UNL     1     -11.594 -23.622   2.904  1.00  0.00    -0.267 OA
ENDROOT
BRANCH   2   5
HETATM    5  C   UNL     1     -12.871 -23.365   0.491  1.00  0.00     0.188 C 
BRANCH   5   6
HETATM    6  C   UNL     1     -13.838 -22.325   0.063  1.00  0.00     0.072 A 
HETATM    7  O   UNL     1     -13.313 -21.050  -0.091  1.00  0.00    -0.311 OA
HETATM    8  C   UNL     1     -14.349 -20.258  -0.518  1.00  0.00     0.103 A 
HETATM    9  C   UNL     1     -15.524 -21.004  -0.626  1.00  0.00     0.001 A 
HETATM   10  C   UNL     1     -14.286 -18.903  -0.869  1.00  0.00     0.075 A 
HETATM   11  C   UNL     1     -15.168 -22.344  -0.245  1.00  0.00     0.048 A 
HETATM   12  C   UNL     1     -16.673 -20.370  -1.106  1.00  0.00     0.014 A 
HETATM   13  C   UNL     1     -16.631 -19.030  -1.462  1.00  0.00     0.002 A 
HETATM   14  C   UNL     1     -15.454 -18.299  -1.345  1.00  0.00     0.021 A 
BRANCH  10  15
HETATM   15  C   UNL     1     -13.035 -18.073  -0.734  1.00  0.00     0.212 C 
HETATM   16  O   UNL     1     -13.063 -17.037   0.047  1.00  0.00    -0.644 OA
HETATM   17  O   UNL     1     -12.013 -18.366  -1.304  1.00  0.00    -0.644 OA
ENDBRANCH  10  15
ENDBRANCH   5   6
ENDBRANCH   2   5
BRANCH   1  18
HETATM   18  C   UNL     1      -9.628 -22.484   2.222  1.00  0.00     0.094 A 
HETATM   19  C   UNL     1      -8.850 -21.683   1.365  1.00  0.00     0.128 A 
HETATM   20  N   UNL     1      -7.663 -21.377   1.874  1.00  0.00    -0.303 N 
HETATM   21  N   UNL     1      -7.645 -22.000   3.132  1.00  0.00    -0.250 N 
ATOM     22  HN  UNL     1      -6.928 -20.814   1.447  1.00  0.00     0.186 HD
HETATM   23  C   UNL     1      -6.630 -22.008   4.054  1.00  0.00     0.119 A 
HETATM   24  C   UNL     1      -8.810 -22.674   3.381  1.00  0.00     0.143 A 
HETATM   25  C   UNL     1      -6.814 -22.699   5.202  1.00  0.00     0.036 A 
HETATM   26  C   UNL     1      -8.025 -23.364   5.396  1.00  0.00     0.091 A 
HETATM   27  N   UNL     1      -9.024 -23.373   4.526  1.00  0.00    -0.350 N 
ATOM     28  HN  UNL     1      -9.896 -23.871   4.704  1.00  0.00     0.166 HD
ENDBRANCH   1  18
TORSDOF 4
ENDMDL
MODEL 5
REMARK VINA RESULT:    -8.231      2.858      5.373
REMARK INTER + INTRA:         -10.576
REMARK INTER:                  -9.914
REMARK INTRA:                  -0.662
REMARK UNBOUND:                -0.420
REMARK  4 active torsions:
REMARK  status: ('A' for Active; 'I' for Inactive)
REMARK    1  A    between atoms: C_3  and  C_8 
REMARK    2  A    between atoms: C_10  and  C_11 
REMARK       I    between atoms: C_11  and  N_12 
REMARK    3  A    between atoms: N_12  and  C_15 
REMARK    4  A    between atoms: C_15  and  C_16 
ROOT
HETATM    1  C   UNL     1     -11.071 -22.986   1.967  1.00  0.00     0.257 C 
HETATM    2  N   UNL     1     -11.595 -22.799   0.754  1.00  0.00    -0.351 N 
ATOM      3  HN  UNL     1     -11.037 -22.345   0.032  1.00  0.00     0.163 HD
HETATM    4  O   UNL     1     -11.716 -23.504   2.883  1.00  0.00    -0.267 OA
ENDROOT
BRANCH   2   5
HETATM    5  C   UNL     1     -12.942 -23.232   0.445  1.00  0.00     0.188 C 
BRANCH   5   6
HETATM    6  C   UNL     1     -13.833 -22.133   0.001  1.00  0.00     0.072 A 
HETATM    7  O   UNL     1     -15.154 -22.491  -0.227  1.00  0.00    -0.311 OA
HETATM    8  C   UNL     1     -15.806 -21.339  -0.591  1.00  0.00     0.103 A 
HETATM    9  C   UNL     1     -14.921 -20.259  -0.609  1.00  0.00     0.001 A 
HETATM   10  C   UNL     1     -17.173 -21.192  -0.859  1.00  0.00     0.075 A 
HETATM   11  C   UNL     1     -13.646 -20.799  -0.220  1.00  0.00     0.048 A 
HETATM   12  C   UNL     1     -15.426 -18.990  -0.903  1.00  0.00     0.014 A 
HETATM   13  C   UNL     1     -16.776 -18.823  -1.168  1.00  0.00     0.002 A 
HETATM   14  C   UNL     1     -17.645 -19.908  -1.150  1.00  0.00     0.021 A 
BRANCH  10  15
HETATM   15  C   UNL     1     -18.140 -22.349  -0.872  1.00  0.00     0.212 C 
HETATM   16  O   UNL     1     -18.311 -23.021   0.225  1.00  0.00    -0.644 OA
HETATM   17  O   UNL     1     -18.774 -22.638  -1.857  1.00  0.00    -0.644 OA
ENDBRANCH  10  15
ENDBRANCH   5   6
ENDBRANCH   2   5
BRANCH   1  18
HETATM   18  C   UNL     1      -9.665 -22.534   2.195  1.00  0.00     0.094 A 
HETATM   19  C   UNL     1      -8.854 -21.733   1.368  1.00  0.00     0.128 A 
HETATM   20  N   UNL     1      -7.643 -21.525   1.870  1.00  0.00    -0.303 N 
HETATM   21  N   UNL     1      -7.642 -22.217   3.092  1.00  0.00    -0.250 N 
ATOM     22  HN  UNL     1      -6.883 -20.983   1.460  1.00  0.00     0.186 HD
HETATM   23  C   UNL     1      -6.614 -22.335   3.992  1.00  0.00     0.119 A 
HETATM   24  C   UNL     1      -8.841 -22.835   3.326  1.00  0.00     0.143 A 
HETATM   25  C   UNL     1      -6.820 -23.077   5.105  1.00  0.00     0.036 A 
HETATM   26  C   UNL     1      -8.065 -23.680   5.285  1.00  0.00     0.091 A 
HETATM   27  N   UNL     1      -9.077 -23.582   4.435  1.00  0.00    -0.350 N 
ATOM     28  HN  UNL     1      -9.974 -24.038   4.603  1.00  0.00     0.166 HD
ENDBRANCH   1  18
TORSDOF 4
ENDMDL
MODEL 6
REMARK VINA RESULT:    -8.223      4.946      8.897
REMARK INTER + INTRA:         -10.565
REMARK INTER:                  -9.848
REMARK INTRA:                  -0.717
REMARK UNBOUND:                -0.420
REMARK  4 active torsions:
REMARK  status: ('A' for Active; 'I' for Inactive)
REMARK    1  A    between atoms: C_3  and  C_8 
REMARK    2  A    between atoms: C_10  and  C_11 
REMARK       I    between atoms: C_11  and  N_12 
REMARK    3  A    between atoms: N_12  and  C_15 
REMARK    4  A    between atoms: C_15  and  C_16 
ROOT
HETATM    1  C   UNL     1     -12.393 -20.954   0.754  1.00  0.00     0.257 C 
HETATM    2  N   UNL     1     -11.682 -22.076   0.637  1.00  0.00    -0.351 N 
ATOM      3  HN  UNL     1     -12.077 -22.869   0.133  1.00  0.00     0.163 HD
HETATM    4  O   UNL     1     -11.971 -19.977   1.380  1.00  0.00    -0.267 OA
ENDROOT
BRANCH   2   5
HETATM    5  C   UNL     1     -10.358 -22.189   1.213  1.00  0.00     0.188 C 
BRANCH   5   6
HETATM    6  C   UNL     1     -10.325 -22.949   2.486  1.00  0.00     0.072 A 
HETATM    7  O   UNL     1      -9.077 -23.064   3.081  1.00  0.00    -0.311 OA
HETATM    8  C   UNL     1      -9.270 -23.762   4.246  1.00  0.00     0.103 A 
HETATM    9  C   UNL     1     -10.616 -24.104   4.396  1.00  0.00     0.001 A 
HETATM   10  C   UNL     1      -8.307 -24.069   5.216  1.00  0.00     0.075 A 
HETATM   11  C   UNL     1     -11.282 -23.564   3.242  1.00  0.00     0.048 A 
HETATM   12  C   UNL     1     -11.008 -24.770   5.561  1.00  0.00     0.014 A 
HETATM   13  C   UNL     1     -10.070 -25.080   6.534  1.00  0.00     0.002 A 
HETATM   14  C   UNL     1      -8.733 -24.737   6.368  1.00  0.00     0.021 A 
BRANCH  10  15
HETATM   15  C   UNL     1      -6.845 -23.735   5.061  1.00  0.00     0.212 C 
HETATM   16  O   UNL     1      -6.335 -22.825   5.834  1.00  0.00    -0.644 OA
HETATM   17  O   UNL     1      -6.142 -24.310   4.267  1.00  0.00    -0.644 OA
ENDBRANCH  10  15
ENDBRANCH   5   6
ENDBRANCH   2   5
BRANCH   1  18
HETATM   18  C   UNL     1     -13.740 -20.911   0.107  1.00  0.00     0.094 A 
HETATM   19  C   UNL     1     -14.617 -21.978  -0.166  1.00  0.00     0.128 A 
HETATM   20  N   UNL     1     -15.739 -21.590  -0.760  1.00  0.00    -0.303 N 
HETATM   21  N   UNL     1     -15.609 -20.199  -0.890  1.00  0.00    -0.250 N 
ATOM     22  HN  UNL     1     -16.521 -22.174  -1.056  1.00  0.00     0.186 HD
HETATM   23  C   UNL     1     -16.493 -19.320  -1.462  1.00  0.00     0.119 A 
HETATM   24  C   UNL     1     -14.421 -19.750  -0.378  1.00  0.00     0.143 A 
HETATM   25  C   UNL     1     -16.155 -18.010  -1.506  1.00  0.00     0.036 A 
HETATM   26  C   UNL     1     -14.931 -17.617  -0.965  1.00  0.00     0.091 A 
HETATM   27  N   UNL     1     -14.058 -18.442  -0.405  1.00  0.00    -0.350 N 
ATOM     28  HN  UNL     1     -13.172 -18.115  -0.020  1.00  0.00     0.166 HD
ENDBRANCH   1  18
TORSDOF 4
ENDMDL
MODEL 7
REMARK VINA RESULT:    -8.175      4.771      7.154
REMARK INTER + INTRA:         -10.506
REMARK INTER:                 -10.298
REMARK INTRA:                  -0.207
REMARK UNBOUND:                -0.420
REMARK  4 active torsions:
REMARK  status: ('A' for Active; 'I' for Inactive)
REMARK    1  A    between atoms: C_3  and  C_8 
REMARK    2  A    between atoms: C_10  and  C_11 
REMARK       I    between atoms: C_11  and  N_12 
REMARK    3  A    between atoms: N_12  and  C_15 
REMARK    4  A    between atoms: C_15  and  C_16 
ROOT
HETATM    1  C   UNL     1      -8.113 -22.285   2.127  1.00  0.00     0.257 C 
HETATM    2  N   UNL     1      -9.410 -22.133   1.856  1.00  0.00    -0.351 N 
ATOM      3  HN  UNL     1     -10.104 -22.462   2.526  1.00  0.00     0.163 HD
HETATM    4  O   UNL     1      -7.235 -21.931   1.335  1.00  0.00    -0.267 OA
ENDROOT
BRANCH   2   5
HETATM    5  C   UNL     1      -9.850 -21.507   0.626  1.00  0.00     0.188 C 
BRANCH   5   6
HETATM    6  C   UNL     1     -11.313 -21.596   0.403  1.00  0.00     0.072 A 
HETATM    7  O   UNL     1     -11.949 -20.394   0.130  1.00  0.00    -0.311 OA
HETATM    8  C   UNL     1     -13.271 -20.697  -0.075  1.00  0.00     0.103 A 
HETATM    9  C   UNL     1     -13.489 -22.069   0.073  1.00  0.00     0.001 A 
HETATM   10  C   UNL     1     -14.294 -19.812  -0.443  1.00  0.00     0.075 A 
HETATM   11  C   UNL     1     -12.202 -22.632   0.383  1.00  0.00     0.048 A 
HETATM   12  C   UNL     1     -14.773 -22.569  -0.159  1.00  0.00     0.014 A 
HETATM   13  C   UNL     1     -15.797 -21.710  -0.527  1.00  0.00     0.002 A 
HETATM   14  C   UNL     1     -15.567 -20.345  -0.667  1.00  0.00     0.021 A 
BRANCH  10  15
HETATM   15  C   UNL     1     -14.087 -18.325  -0.582  1.00  0.00     0.212 C 
HETATM   16  O   UNL     1     -14.493 -17.554   0.379  1.00  0.00    -0.644 OA
HETATM   17  O   UNL     1     -13.530 -17.848  -1.540  1.00  0.00    -0.644 OA
ENDBRANCH  10  15
ENDBRANCH   5   6
ENDBRANCH   2   5
BRANCH   1  18
HETATM   18  C   UNL     1      -7.743 -22.917   3.430  1.00  0.00     0.094 A 
HETATM   19  C   UNL     1      -6.492 -22.932   4.076  1.00  0.00     0.128 A 
HETATM   20  N   UNL     1      -6.507 -23.594   5.226  1.00  0.00    -0.303 N 
HETATM   21  N   UNL     1      -7.830 -24.043   5.360  1.00  0.00    -0.250 N 
ATOM     22  HN  UNL     1      -5.730 -23.743   5.870  1.00  0.00     0.186 HD
HETATM   23  C   UNL     1      -8.365 -24.798   6.372  1.00  0.00     0.119 A 
HETATM   24  C   UNL     1      -8.607 -23.655   4.301  1.00  0.00     0.143 A 
HETATM   25  C   UNL     1      -9.671 -25.145   6.289  1.00  0.00     0.036 A 
HETATM   26  C   UNL     1     -10.408 -24.716   5.185  1.00  0.00     0.091 A 
HETATM   27  N   UNL     1      -9.920 -23.985   4.194  1.00  0.00    -0.350 N 
ATOM     28  HN  UNL     1     -10.492 -23.690   3.403  1.00  0.00     0.166 HD
ENDBRANCH   1  18
TORSDOF 4
ENDMDL
MODEL 8
REMARK VINA RESULT:    -8.068      3.717      8.308
REMARK INTER + INTRA:         -10.374
REMARK INTER:                  -9.819
REMARK INTRA:                  -0.555
REMARK UNBOUND:                -0.420
REMARK  4 active torsions:
REMARK  status: ('A' for Active; 'I' for Inactive)
REMARK    1  A    between atoms: C_3  and  C_8 
REMARK    2  A    between atoms: C_10  and  C_11 
REMARK       I    between atoms: C_11  and  N_12 
REMARK    3  A    between atoms: N_12  and  C_15 
REMARK    4  A    between atoms: C_15  and  C_16 
ROOT
HETATM    1  C   UNL     1     -19.761 -21.625  -1.410  1.00  0.00     0.257 C 
HETATM    2  N   UNL     1     -19.021 -20.789  -0.681  1.00  0.00    -0.351 N 
ATOM      3  HN  UNL     1     -19.259 -20.631   0.297  1.00  0.00     0.163 HD
HETATM    4  O   UNL     1     -19.532 -21.827  -2.606  1.00  0.00    -0.267 OA
ENDROOT
BRANCH   2   5
HETATM    5  C   UNL     1     -17.883 -20.101  -1.255  1.00  0.00     0.188 C 
BRANCH   5   6
HETATM    6  C   UNL     1     -16.579 -20.721  -0.916  1.00  0.00     0.072 A 
HETATM    7  O   UNL     1     -15.528 -19.835  -0.730  1.00  0.00    -0.311 OA
HETATM    8  C   UNL     1     -14.438 -20.599  -0.395  1.00  0.00     0.103 A 
HETATM    9  C   UNL     1     -14.775 -21.954  -0.377  1.00  0.00     0.001 A 
HETATM   10  C   UNL     1     -13.159 -20.140  -0.052  1.00  0.00     0.075 A 
HETATM   11  C   UNL     1     -16.171 -22.009  -0.717  1.00  0.00     0.048 A 
HETATM   12  C   UNL     1     -13.798 -22.878   0.003  1.00  0.00     0.014 A 
HETATM   13  C   UNL     1     -12.528 -22.444   0.349  1.00  0.00     0.002 A 
HETATM   14  C   UNL     1     -12.205 -21.091   0.323  1.00  0.00     0.021 A 
BRANCH  10  15
HETATM   15  C   UNL     1     -12.766 -18.685  -0.092  1.00  0.00     0.212 C 
HETATM   16  O   UNL     1     -12.062 -18.264  -1.098  1.00  0.00    -0.644 OA
HETATM   17  O   UNL     1     -13.116 -17.909   0.762  1.00  0.00    -0.644 OA
ENDBRANCH  10  15
ENDBRANCH   5   6
ENDBRANCH   2   5
BRANCH   1  18
HETATM   18  C   UNL     1     -20.903 -22.315  -0.734  1.00  0.00     0.094 A 
HETATM   19  C   UNL     1     -22.261 -22.335  -1.105  1.00  0.00     0.128 A 
HETATM   20  N   UNL     1     -23.017 -23.043  -0.276  1.00  0.00    -0.303 N 
HETATM   21  N   UNL     1     -22.125 -23.522   0.697  1.00  0.00    -0.250 N 
ATOM     22  HN  UNL     1     -24.022 -23.203  -0.332  1.00  0.00     0.186 HD
HETATM   23  C   UNL     1     -22.409 -24.292   1.795  1.00  0.00     0.119 A 
HETATM   24  C   UNL     1     -20.842 -23.109   0.455  1.00  0.00     0.143 A 
HETATM   25  C   UNL     1     -21.393 -24.623   2.625  1.00  0.00     0.036 A 
HETATM   26  C   UNL     1     -20.108 -24.172   2.322  1.00  0.00     0.091 A 
HETATM   27  N   UNL     1     -19.802 -23.429   1.268  1.00  0.00    -0.350 N 
ATOM     28  HN  UNL     1     -18.849 -23.119   1.080  1.00  0.00     0.166 HD
ENDBRANCH   1  18
TORSDOF 4
ENDMDL
MODEL 9
REMARK VINA RESULT:    -8.060      4.369      6.432
REMARK INTER + INTRA:         -10.365
REMARK INTER:                  -9.710
REMARK INTRA:                  -0.654
REMARK UNBOUND:                -0.420
REMARK  4 active torsions:
REMARK  status: ('A' for Active; 'I' for Inactive)
REMARK    1  A    between atoms: C_3  and  C_8 
REMARK    2  A    between atoms: C_10  and  C_11 
REMARK       I    between atoms: C_11  and  N_12 
REMARK    3  A    between atoms: N_12  and  C_15 
REMARK    4  A    between atoms: C_15  and  C_16 
ROOT
HETATM    1  C   UNL     1     -10.713 -22.165   2.863  1.00  0.00     0.257 C 
HETATM    2  N   UNL     1     -10.711 -22.615   1.607  1.00  0.00    -0.351 N 
ATOM      3  HN  UNL     1     -10.498 -23.595   1.427  1.00  0.00     0.163 HD
HETATM    4  O   UNL     1     -10.935 -20.980   3.131  1.00  0.00    -0.267 OA
ENDROOT
BRANCH   2   5
HETATM    5  C   UNL     1     -11.006 -21.735   0.495  1.00  0.00     0.188 C 
BRANCH   5   6
HETATM    6  C   UNL     1     -12.454 -21.617   0.197  1.00  0.00     0.072 A 
HETATM    7  O   UNL     1     -12.910 -20.329  -0.044  1.00  0.00    -0.311 OA
HETATM    8  C   UNL     1     -14.247 -20.443  -0.329  1.00  0.00     0.103 A 
HETATM    9  C   UNL     1     -14.652 -21.778  -0.260  1.00  0.00     0.001 A 
HETATM   10  C   UNL     1     -15.122 -19.414  -0.701  1.00  0.00     0.075 A 
HETATM   11  C   UNL     1     -13.469 -22.522   0.082  1.00  0.00     0.048 A 
HETATM   12  C   UNL     1     -15.976 -22.090  -0.580  1.00  0.00     0.014 A 
HETATM   13  C   UNL     1     -16.856 -21.086  -0.953  1.00  0.00     0.002 A 
HETATM   14  C   UNL     1     -16.440 -19.760  -1.013  1.00  0.00     0.021 A 
BRANCH  10  15
HETATM   15  C   UNL     1     -14.714 -17.963  -0.754  1.00  0.00     0.212 C 
HETATM   16  O   UNL     1     -13.710 -17.633  -1.508  1.00  0.00    -0.644 OA
HETATM   17  O   UNL     1     -15.312 -17.111  -0.145  1.00  0.00    -0.644 OA
ENDBRANCH  10  15
ENDBRANCH   5   6
ENDBRANCH   2   5
BRANCH   1  18
HETATM   18  C   UNL     1     -10.424 -23.144   3.955  1.00  0.00     0.094 A 
HETATM   19  C   UNL     1      -9.418 -24.127   4.009  1.00  0.00     0.128 A 
HETATM   20  N   UNL     1      -9.445 -24.838   5.130  1.00  0.00    -0.303 N 
HETATM   21  N   UNL     1     -10.518 -24.307   5.862  1.00  0.00    -0.250 N 
ATOM     22  HN  UNL     1      -8.824 -25.601   5.399  1.00  0.00     0.186 HD
HETATM   23  C   UNL     1     -10.982 -24.708   7.089  1.00  0.00     0.119 A 
HETATM   24  C   UNL     1     -11.132 -23.283   5.191  1.00  0.00     0.143 A 
HETATM   25  C   UNL     1     -12.056 -24.068   7.606  1.00  0.00     0.036 A 
HETATM   26  C   UNL     1     -12.635 -23.032   6.874  1.00  0.00     0.091 A 
HETATM   27  N   UNL     1     -12.209 -22.621   5.688  1.00  0.00    -0.350 N 
ATOM     28  HN  UNL     1     -12.659 -21.858   5.183  1.00  0.00     0.166 HD
ENDBRANCH   1  18
TORSDOF 4
ENDMDL
MODEL 10
REMARK VINA RESULT:    -8.005      4.536      8.787
REMARK INTER + INTRA:         -10.296
REMARK INTER:                  -9.461
REMARK INTRA:                  -0.835
REMARK UNBOUND:                -0.420
REMARK  4 active torsions:
REMARK  status: ('A' for Active; 'I' for Inactive)
REMARK    1  A    between atoms: C_3  and  C_8 
REMARK    2  A    between atoms: C_10  and  C_11 
REMARK       I    between atoms: C_11  and  N_12 
REMARK    3  A    between atoms: N_12  and  C_15 
REMARK    4  A    between atoms: C_15  and  C_16 
ROOT
HETATM    1  C   UNL     1     -11.417 -21.192   0.756  1.00  0.00     0.257 C 
HETATM    2  N   UNL     1     -10.432 -22.089   0.709  1.00  0.00    -0.351 N 
ATOM      3  HN  UNL     1     -10.635 -23.040   0.403  1.00  0.00     0.163 HD
HETATM    4  O   UNL     1     -11.229 -20.037   1.149  1.00  0.00    -0.267 OA
ENDROOT
BRANCH   2   5
HETATM    5  C   UNL     1      -9.079 -21.737   1.086  1.00  0.00     0.188 C 
BRANCH   5   6
HETATM    6  C   UNL     1      -8.609 -22.412   2.320  1.00  0.00     0.072 A 
HETATM    7  O   UNL     1      -9.608 -22.874   3.165  1.00  0.00    -0.311 OA
HETATM    8  C   UNL     1      -8.971 -23.487   4.214  1.00  0.00     0.103 A 
HETATM    9  C   UNL     1      -7.585 -23.413   4.057  1.00  0.00     0.001 A 
HETATM   10  C   UNL     1      -9.568 -24.161   5.287  1.00  0.00     0.075 A 
HETATM   11  C   UNL     1      -7.374 -22.711   2.819  1.00  0.00     0.048 A 
HETATM   12  C   UNL     1      -6.773 -24.039   5.006  1.00  0.00     0.014 A 
HETATM   13  C   UNL     1      -7.344 -24.713   6.074  1.00  0.00     0.002 A 
HETATM   14  C   UNL     1      -8.726 -24.776   6.219  1.00  0.00     0.021 A 
BRANCH  10  15
HETATM   15  C   UNL     1     -11.060 -24.230   5.490  1.00  0.00     0.212 C 
HETATM   16  O   UNL     1     -11.631 -23.299   6.192  1.00  0.00    -0.644 OA
HETATM   17  O   UNL     1     -11.730 -25.102   4.994  1.00  0.00    -0.644 OA
ENDBRANCH  10  15
ENDBRANCH   5   6
ENDBRANCH   2   5
BRANCH   1  18
HETATM   18  C   UNL     1     -12.780 -21.630   0.325  1.00  0.00     0.094 A 
HETATM   19  C   UNL     1     -13.289 -22.938   0.216  1.00  0.00     0.128 A 
HETATM   20  N   UNL     1     -14.547 -22.975  -0.206  1.00  0.00    -0.303 N 
HETATM   21  N   UNL     1     -14.899 -21.628  -0.386  1.00  0.00    -0.250 N 
ATOM     22  HN  UNL     1     -15.128 -23.797  -0.363  1.00  0.00     0.186 HD
HETATM   23  C   UNL     1     -16.093 -21.122  -0.834  1.00  0.00     0.119 A 
HETATM   24  C   UNL     1     -13.865 -20.787  -0.075  1.00  0.00     0.143 A 
HETATM   25  C   UNL     1     -16.212 -19.780  -0.959  1.00  0.00     0.036 A 
HETATM   26  C   UNL     1     -15.122 -18.978  -0.624  1.00  0.00     0.091 A 
HETATM   27  N   UNL     1     -13.958 -19.436  -0.187  1.00  0.00    -0.350 N 
ATOM     28  HN  UNL     1     -13.183 -18.816   0.049  1.00  0.00     0.166 HD
ENDBRANCH   1  18
TORSDOF 4
ENDMDL
MODEL 11
REMARK VINA RESULT:    -7.874      3.994      9.343
REMARK INTER + INTRA:         -10.134
REMARK INTER:                  -9.546
REMARK INTRA:                  -0.588
REMARK UNBOUND:                -0.420
REMARK  4 active torsions:
REMARK  status: ('A' for Active; 'I' for Inactive)
REMARK    1  A    between atoms: C_3  and  C_8 
REMARK    2  A    between atoms: C_10  and  C_11 
REMARK       I    between atoms: C_11  and  N_12 
REMARK    3  A    between atoms: N_12  and  C_15 
REMARK    4  A    between atoms: C_15  and  C_16 
ROOT
HETATM    1  C   UNL     1     -13.539 -22.509   0.267  1.00  0.00     0.257 C 
HETATM    2  N   UNL     1     -12.430 -22.232   0.955  1.00  0.00    -0.351 N 
ATOM      3  HN  UNL     1     -12.177 -21.260   1.126  1.00  0.00     0.163 HD
HETATM    4  O   UNL     1     -13.873 -23.669   0.007  1.00  0.00    -0.267 OA
ENDROOT
BRANCH   2   5
HETATM    5  C   UNL     1     -11.581 -23.288   1.463  1.00  0.00     0.188 C 
BRANCH   5   6
HETATM    6  C   UNL     1     -10.421 -22.795   2.246  1.00  0.00     0.072 A 
HETATM    7  O   UNL     1      -9.989 -23.633   3.264  1.00  0.00    -0.311 OA
HETATM    8  C   UNL     1      -8.903 -23.016   3.832  1.00  0.00     0.103 A 
HETATM    9  C   UNL     1      -8.645 -21.797   3.202  1.00  0.00     0.001 A 
HETATM   10  C   UNL     1      -8.091 -23.514   4.861  1.00  0.00     0.075 A 
HETATM   11  C   UNL     1      -9.643 -21.676   2.174  1.00  0.00     0.048 A 
HETATM   12  C   UNL     1      -7.534 -21.057   3.613  1.00  0.00     0.014 A 
HETATM   13  C   UNL     1      -6.717 -21.534   4.627  1.00  0.00     0.002 A 
HETATM   14  C   UNL     1      -6.988 -22.748   5.249  1.00  0.00     0.021 A 
BRANCH  10  15
HETATM   15  C   UNL     1      -8.368 -24.814   5.573  1.00  0.00     0.212 C 
HETATM   16  O   UNL     1      -8.342 -25.913   4.883  1.00  0.00    -0.644 OA
HETATM   17  O   UNL     1      -8.577 -24.856   6.760  1.00  0.00    -0.644 OA
ENDBRANCH  10  15
ENDBRANCH   5   6
ENDBRANCH   2   5
BRANCH   1  18
HETATM   18  C   UNL     1     -14.375 -21.361  -0.200  1.00  0.00     0.094 A 
HETATM   19  C   UNL     1     -13.999 -20.015  -0.375  1.00  0.00     0.128 A 
HETATM   20  N   UNL     1     -14.995 -19.248  -0.800  1.00  0.00    -0.303 N 
HETATM   21  N   UNL     1     -16.090 -20.119  -0.917  1.00  0.00    -0.250 N 
ATOM     22  HN  UNL     1     -14.971 -18.247  -0.997  1.00  0.00     0.186 HD
HETATM   23  C   UNL     1     -17.371 -19.816  -1.301  1.00  0.00     0.119 A 
HETATM   24  C   UNL     1     -15.757 -21.400  -0.568  1.00  0.00     0.143 A 
HETATM   25  C   UNL     1     -18.286 -20.812  -1.320  1.00  0.00     0.036 A 
HETATM   26  C   UNL     1     -17.883 -22.097  -0.955  1.00  0.00     0.091 A 
HETATM   27  N   UNL     1     -16.653 -22.421  -0.582  1.00  0.00    -0.350 N 
ATOM     28  HN  UNL     1     -16.397 -23.373  -0.323  1.00  0.00     0.166 HD
ENDBRANCH   1  18
TORSDOF 4
ENDMDL
MODEL 12
REMARK VINA RESULT:    -7.629      4.020      6.293
REMARK INTER + INTRA:          -9.832
REMARK INTER:                  -9.198
REMARK INTRA:                  -0.634
REMARK UNBOUND:                -0.420
REMARK  4 active torsions:
REMARK  status: ('A' for Active; 'I' for Inactive)
REMARK    1  A    between atoms: C_3  and  C_8 
REMARK    2  A    between atoms: C_10  and  C_11 
REMARK       I    between atoms: C_11  and  N_12 
REMARK    3  A    between atoms: N_12  and  C_15 
REMARK    4  A    between atoms: C_15  and  C_16 
ROOT
HETATM    1  C   UNL     1     -10.061 -20.944   2.627  1.00  0.00     0.257 C 
HETATM    2  N   UNL     1     -11.175 -20.521   2.027  1.00  0.00    -0.351 N 
ATOM      3  HN  UNL     1     -11.972 -21.151   1.951  1.00  0.00     0.163 HD
HETATM    4  O   UNL     1      -9.058 -20.231   2.718  1.00  0.00    -0.267 OA
ENDROOT
BRANCH   2   5
HETATM    5  C   UNL     1     -11.271 -19.183   1.483  1.00  0.00     0.188 C 
BRANCH   5   6
HETATM    6  C   UNL     1     -12.461 -18.974   0.624  1.00  0.00     0.072 A 
HETATM    7  O   UNL     1     -13.322 -20.057   0.522  1.00  0.00    -0.311 OA
HETATM    8  C   UNL     1     -14.359 -19.649  -0.277  1.00  0.00     0.103 A 
HETATM    9  C   UNL     1     -14.168 -18.330  -0.695  1.00  0.00     0.001 A 
HETATM   10  C   UNL     1     -15.505 -20.382  -0.615  1.00  0.00     0.075 A 
HETATM   11  C   UNL     1     -12.929 -17.912  -0.095  1.00  0.00     0.048 A 
HETATM   12  C   UNL     1     -15.160 -17.726  -1.472  1.00  0.00     0.014 A 
HETATM   13  C   UNL     1     -16.302 -18.434  -1.814  1.00  0.00     0.002 A 
HETATM   14  C   UNL     1     -16.478 -19.749  -1.394  1.00  0.00     0.021 A 
BRANCH  10  15
HETATM   15  C   UNL     1     -15.718 -21.816  -0.198  1.00  0.00     0.212 C 
HETATM   16  O   UNL     1     -14.751 -22.661  -0.382  1.00  0.00    -0.644 OA
HETATM   17  O   UNL     1     -16.743 -22.180   0.324  1.00  0.00    -0.644 OA
ENDBRANCH  10  15
ENDBRANCH   5   6
ENDBRANCH   2   5
BRANCH   1  18
HETATM   18  C   UNL     1     -10.053 -22.331   3.185  1.00  0.00     0.094 A 
HETATM   19  C   UNL     1     -11.029 -23.337   3.051  1.00  0.00     0.128 A 
HETATM   20  N   UNL     1     -10.710 -24.460   3.683  1.00  0.00    -0.303 N 
HETATM   21  N   UNL     1      -9.461 -24.195   4.267  1.00  0.00    -0.250 N 
ATOM     22  HN  UNL     1     -11.251 -25.323   3.733  1.00  0.00     0.186 HD
HETATM   23  C   UNL     1      -8.704 -25.028   5.051  1.00  0.00     0.119 A 
HETATM   24  C   UNL     1      -9.030 -22.926   3.989  1.00  0.00     0.143 A 
HETATM   25  C   UNL     1      -7.532 -24.559   5.536  1.00  0.00     0.036 A 
HETATM   26  C   UNL     1      -7.148 -23.257   5.214  1.00  0.00     0.091 A 
HETATM   27  N   UNL     1      -7.856 -22.430   4.459  1.00  0.00    -0.350 N 
ATOM     28  HN  UNL     1      -7.541 -21.484   4.246  1.00  0.00     0.166 HD
ENDBRANCH   1  18
TORSDOF 4
ENDMDL
MODEL 13
REMARK VINA RESULT:    -7.614      3.056      7.526
REMARK INTER + INTRA:          -9.814
REMARK INTER:                  -9.422
REMARK INTRA:                  -0.392
REMARK UNBOUND:                -0.420
REMARK  4 active torsions:
REMARK  status: ('A' for Active; 'I' for Inactive)
REMARK    1  A    between atoms: C_3  and  C_8 
REMARK    2  A    between atoms: C_10  and  C_11 
REMARK       I    between atoms: C_11  and  N_12 
REMARK    3  A    between atoms: N_12  and  C_15 
REMARK    4  A    between atoms: C_15  and  C_16 
ROOT
HETATM    1  C   UNL     1     -19.453 -22.475   0.872  1.00  0.00     0.257 C 
HETATM    2  N   UNL     1     -18.258 -22.763   0.354  1.00  0.00    -0.351 N 
ATOM      3  HN  UNL     1     -17.665 -23.451   0.816  1.00  0.00     0.163 HD
HETATM    4  O   UNL     1     -20.196 -21.628   0.367  1.00  0.00    -0.267 OA
ENDROOT
BRANCH   2   5
HETATM    5  C   UNL     1     -17.789 -22.117  -0.854  1.00  0.00     0.188 C 
BRANCH   5   6
HETATM    6  C   UNL     1     -16.484 -21.431  -0.695  1.00  0.00     0.072 A 
HETATM    7  O   UNL     1     -15.444 -22.227  -0.239  1.00  0.00    -0.311 OA
HETATM    8  C   UNL     1     -14.335 -21.421  -0.195  1.00  0.00     0.103 A 
HETATM    9  C   UNL     1     -14.654 -20.124  -0.604  1.00  0.00     0.001 A 
HETATM   10  C   UNL     1     -13.028 -21.799   0.145  1.00  0.00     0.075 A 
HETATM   11  C   UNL     1     -16.056 -20.156  -0.925  1.00  0.00     0.048 A 
HETATM   12  C   UNL     1     -13.629 -19.178  -0.678  1.00  0.00     0.014 A 
HETATM   13  C   UNL     1     -12.330 -19.533  -0.349  1.00  0.00     0.002 A 
HETATM   14  C   UNL     1     -12.027 -20.827   0.060  1.00  0.00     0.021 A 
BRANCH  10  15
HETATM   15  C   UNL     1     -12.667 -23.185   0.615  1.00  0.00     0.212 C 
HETATM   16  O   UNL     1     -11.604 -23.331   1.344  1.00  0.00    -0.644 OA
HETATM   17  O   UNL     1     -13.354 -24.143   0.357  1.00  0.00    -0.644 OA
ENDBRANCH  10  15
ENDBRANCH   5   6
ENDBRANCH   2   5
BRANCH   1  18
HETATM   18  C   UNL     1     -19.872 -23.205   2.106  1.00  0.00     0.094 A 
HETATM   19  C   UNL     1     -20.854 -24.205   2.244  1.00  0.00     0.128 A 
HETATM   20  N   UNL     1     -20.981 -24.642   3.491  1.00  0.00    -0.303 N 
HETATM   21  N   UNL     1     -20.040 -23.901   4.224  1.00  0.00    -0.250 N 
ATOM     22  HN  UNL     1     -21.620 -25.356   3.840  1.00  0.00     0.186 HD
HETATM   23  C   UNL     1     -19.786 -23.959   5.571  1.00  0.00     0.119 A 
HETATM   24  C   UNL     1     -19.350 -23.028   3.427  1.00  0.00     0.143 A 
HETATM   25  C   UNL     1     -18.845 -23.131   6.080  1.00  0.00     0.036 A 
HETATM   26  C   UNL     1     -18.176 -22.265   5.214  1.00  0.00     0.091 A 
HETATM   27  N   UNL     1     -18.398 -22.189   3.910  1.00  0.00    -0.350 N 
ATOM     28  HN  UNL     1     -17.887 -21.542   3.309  1.00  0.00     0.166 HD
ENDBRANCH   1  18
TORSDOF 4
ENDMDL
MODEL 14
REMARK VINA RESULT:    -7.552      4.349      6.171
REMARK INTER + INTRA:          -9.738
REMARK INTER:                  -9.096
REMARK INTRA:                  -0.642
REMARK UNBOUND:                -0.420
REMARK  4 active torsions:
REMARK  status: ('A' for Active; 'I' for Inactive)
REMARK    1  A    between atoms: C_3  and  C_8 
REMARK    2  A    between atoms: C_10  and  C_11 
REMARK       I    between atoms: C_11  and  N_12 
REMARK    3  A    between atoms: N_12  and  C_15 
REMARK    4  A    between atoms: C_15  and  C_16 
ROOT
HETATM    1  C   UNL     1     -10.643 -22.659   1.835  1.00  0.00     0.257 C 
HETATM    2  N   UNL     1     -11.348 -22.387   0.736  1.00  0.00    -0.351 N 
ATOM      3  HN  UNL     1     -11.009 -21.678   0.087  1.00  0.00     0.163 HD
HETATM    4  O   UNL     1     -11.026 -23.487   2.668  1.00  0.00    -0.267 OA
ENDROOT
BRANCH   2   5
HETATM    5  C   UNL     1     -12.586 -23.082   0.449  1.00  0.00     0.188 C 
BRANCH   5   6
HETATM    6  C   UNL     1     -13.693 -22.182   0.044  1.00  0.00     0.072 A 
HETATM    7  O   UNL     1     -13.368 -20.837  -0.041  1.00  0.00    -0.311 OA
HETATM    8  C   UNL     1     -14.506 -20.193  -0.458  1.00  0.00     0.103 A 
HETATM    9  C   UNL     1     -15.551 -21.104  -0.627  1.00  0.00     0.001 A 
HETATM   10  C   UNL     1     -14.647 -18.829  -0.746  1.00  0.00     0.075 A 
HETATM   11  C   UNL     1     -14.999 -22.390  -0.297  1.00  0.00     0.048 A 
HETATM   12  C   UNL     1     -16.775 -20.631  -1.107  1.00  0.00     0.014 A 
HETATM   13  C   UNL     1     -16.934 -19.285  -1.401  1.00  0.00     0.002 A 
HETATM   14  C   UNL     1     -15.885 -18.389  -1.224  1.00  0.00     0.021 A 
BRANCH  10  15
HETATM   15  C   UNL     1     -13.541 -17.824  -0.544  1.00  0.00     0.212 C 
HETATM   16  O   UNL     1     -12.404 -18.032  -1.135  1.00  0.00    -0.644 OA
HETATM   17  O   UNL     1     -13.699 -16.830   0.120  1.00  0.00    -0.644 OA
ENDBRANCH  10  15
ENDBRANCH   5   6
ENDBRANCH   2   5
BRANCH   1  18
HETATM   18  C   UNL     1      -9.363 -21.916   2.044  1.00  0.00     0.094 A 
HETATM   19  C   UNL     1      -8.048 -22.418   2.054  1.00  0.00     0.128 A 
HETATM   20  N   UNL     1      -7.134 -21.481   2.277  1.00  0.00    -0.303 N 
HETATM   21  N   UNL     1      -7.871 -20.294   2.421  1.00  0.00    -0.250 N 
ATOM     22  HN  UNL     1      -6.123 -21.596   2.331  1.00  0.00     0.186 HD
HETATM   23  C   UNL     1      -7.397 -19.035   2.687  1.00  0.00     0.119 A 
HETATM   24  C   UNL     1      -9.216 -20.513   2.285  1.00  0.00     0.143 A 
HETATM   25  C   UNL     1      -8.292 -18.028   2.813  1.00  0.00     0.036 A 
HETATM   26  C   UNL     1      -9.649 -18.316   2.661  1.00  0.00     0.091 A 
HETATM   27  N   UNL     1     -10.136 -19.521   2.402  1.00  0.00    -0.350 N 
ATOM     28  HN  UNL     1     -11.136 -19.692   2.298  1.00  0.00     0.166 HD
ENDBRANCH   1  18
TORSDOF 4
ENDMDL
MODEL 15
REMARK VINA RESULT:    -7.521      4.162      9.417
REMARK INTER + INTRA:          -9.700
REMARK INTER:                  -8.982
REMARK INTRA:                  -0.717
REMARK UNBOUND:                -0.420
REMARK  4 active torsions:
REMARK  status: ('A' for Active; 'I' for Inactive)
REMARK    1  A    between atoms: C_3  and  C_8 
REMARK    2  A    between atoms: C_10  and  C_11 
REMARK       I    between atoms: C_11  and  N_12 
REMARK    3  A    between atoms: N_12  and  C_15 
REMARK    4  A    between atoms: C_15  and  C_16 
ROOT
HETATM    1  C   UNL     1     -13.250 -22.213   0.427  1.00  0.00     0.257 C 
HETATM    2  N   UNL     1     -12.210 -22.305   1.258  1.00  0.00    -0.351 N 
ATOM      3  HN  UNL     1     -11.677 -21.467   1.488  1.00  0.00     0.163 HD
HETATM    4  O   UNL     1     -13.908 -23.203   0.093  1.00  0.00    -0.267 OA
ENDROOT
BRANCH   2   5
HETATM    5  C   UNL     1     -11.826 -23.574   1.840  1.00  0.00     0.188 C 
BRANCH   5   6
HETATM    6  C   UNL     1     -10.621 -23.494   2.700  1.00  0.00     0.072 A 
HETATM    7  O   UNL     1      -9.827 -22.372   2.512  1.00  0.00    -0.311 OA
HETATM    8  C   UNL     1      -8.800 -22.473   3.416  1.00  0.00     0.103 A 
HETATM    9  C   UNL     1      -8.920 -23.645   4.166  1.00  0.00     0.001 A 
HETATM   10  C   UNL     1      -7.779 -21.540   3.643  1.00  0.00     0.075 A 
HETATM   11  C   UNL     1     -10.111 -24.291   3.684  1.00  0.00     0.048 A 
HETATM   12  C   UNL     1      -7.989 -23.885   5.180  1.00  0.00     0.014 A 
HETATM   13  C   UNL     1      -6.974 -22.973   5.423  1.00  0.00     0.002 A 
HETATM   14  C   UNL     1      -6.864 -21.811   4.665  1.00  0.00     0.021 A 
BRANCH  10  15
HETATM   15  C   UNL     1      -7.615 -20.283   2.827  1.00  0.00     0.212 C 
HETATM   16  O   UNL     1      -8.202 -19.200   3.237  1.00  0.00    -0.644 OA
HETATM   17  O   UNL     1      -6.932 -20.255   1.833  1.00  0.00    -0.644 OA
ENDBRANCH  10  15
ENDBRANCH   5   6
ENDBRANCH   2   5
BRANCH   1  18
HETATM   18  C   UNL     1     -13.596 -20.861  -0.110  1.00  0.00     0.094 A 
HETATM   19  C   UNL     1     -12.766 -19.732  -0.247  1.00  0.00     0.128 A 
HETATM   20  N   UNL     1     -13.398 -18.681  -0.756  1.00  0.00    -0.303 N 
HETATM   21  N   UNL     1     -14.711 -19.126  -0.973  1.00  0.00    -0.250 N 
ATOM     22  HN  UNL     1     -13.014 -17.756  -0.948  1.00  0.00     0.186 HD
HETATM   23  C   UNL     1     -15.772 -18.413  -1.469  1.00  0.00     0.119 A 
HETATM   24  C   UNL     1     -14.871 -20.434  -0.599  1.00  0.00     0.143 A 
HETATM   25  C   UNL     1     -16.969 -19.035  -1.572  1.00  0.00     0.036 A 
HETATM   26  C   UNL     1     -17.066 -20.369  -1.176  1.00  0.00     0.091 A 
HETATM   27  N   UNL     1     -16.059 -21.085  -0.696  1.00  0.00    -0.350 N 
ATOM     28  HN  UNL     1     -16.170 -22.060  -0.417  1.00  0.00     0.166 HD
ENDBRANCH   1  18
TORSDOF 4
ENDMDL
MODEL 16
REMARK VINA RESULT:    -7.513      1.755      2.923
REMARK INTER + INTRA:          -9.689
REMARK INTER:                  -9.234
REMARK INTRA:                  -0.455
REMARK UNBOUND:                -0.420
REMARK  4 active torsions:
REMARK  status: ('A' for Active; 'I' for Inactive)
REMARK    1  A    between atoms: C_3  and  C_8 
REMARK    2  A    between atoms: C_10  and  C_11 
REMARK       I    between atoms: C_11  and  N_12 
REMARK    3  A    between atoms: N_12  and  C_15 
REMARK    4  A    between atoms: C_15  and  C_16 
ROOT
HETATM    1  C   UNL     1     -14.846 -21.456  -0.417  1.00  0.00     0.257 C 
HETATM    2  N   UNL     1     -15.815 -20.551  -0.558  1.00  0.00    -0.351 N 
ATOM      3  HN  UNL     1     -15.610 -19.567  -0.384  1.00  0.00     0.163 HD
HETATM    4  O   UNL     1     -15.050 -22.662  -0.587  1.00  0.00    -0.267 OA
ENDROOT
BRANCH   2   5
HETATM    5  C   UNL     1     -17.152 -20.939  -0.955  1.00  0.00     0.188 C 
BRANCH   5   6
HETATM    6  C   UNL     1     -17.937 -21.569   0.134  1.00  0.00     0.072 A 
HETATM    7  O   UNL     1     -18.985 -22.380  -0.277  1.00  0.00    -0.311 OA
HETATM    8  C   UNL     1     -19.551 -22.883   0.866  1.00  0.00     0.103 A 
HETATM    9  C   UNL     1     -18.891 -22.397   1.997  1.00  0.00     0.001 A 
HETATM   10  C   UNL     1     -20.605 -23.804   0.952  1.00  0.00     0.075 A 
HETATM   11  C   UNL     1     -17.845 -21.546   1.496  1.00  0.00     0.048 A 
HETATM   12  C   UNL     1     -19.298 -22.853   3.253  1.00  0.00     0.014 A 
HETATM   13  C   UNL     1     -20.336 -23.766   3.359  1.00  0.00     0.002 A 
HETATM   14  C   UNL     1     -20.988 -24.238   2.225  1.00  0.00     0.021 A 
BRANCH  10  15
HETATM   15  C   UNL     1     -21.349 -24.320  -0.253  1.00  0.00     0.212 C 
HETATM   16  O   UNL     1     -21.613 -23.490  -1.216  1.00  0.00    -0.644 OA
HETATM   17  O   UNL     1     -21.671 -25.478  -0.354  1.00  0.00    -0.644 OA
ENDBRANCH  10  15
ENDBRANCH   5   6
ENDBRANCH   2   5
BRANCH   1  18
HETATM   18  C   UNL     1     -13.487 -20.969  -0.030  1.00  0.00     0.094 A 
HETATM   19  C   UNL     1     -12.916 -19.699  -0.243  1.00  0.00     0.128 A 
HETATM   20  N   UNL     1     -11.677 -19.601   0.224  1.00  0.00    -0.303 N 
HETATM   21  N   UNL     1     -11.404 -20.863   0.776  1.00  0.00    -0.250 N 
ATOM     22  HN  UNL     1     -11.060 -18.790   0.189  1.00  0.00     0.186 HD
HETATM   23  C   UNL     1     -10.245 -21.290   1.371  1.00  0.00     0.119 A 
HETATM   24  C   UNL     1     -12.469 -21.713   0.646  1.00  0.00     0.143 A 
HETATM   25  C   UNL     1     -10.186 -22.566   1.816  1.00  0.00     0.036 A 
HETATM   26  C   UNL     1     -11.306 -23.382   1.655  1.00  0.00     0.091 A 
HETATM   27  N   UNL     1     -12.440 -22.998   1.087  1.00  0.00    -0.350 N 
ATOM     28  HN  UNL     1     -13.238 -23.625   0.989  1.00  0.00     0.166 HD
ENDBRANCH   1  18
TORSDOF 4
ENDMDL
MODEL 17
REMARK VINA RESULT:    -7.449      4.503      7.526
REMARK INTER + INTRA:          -9.610
REMARK INTER:                  -8.866
REMARK INTRA:                  -0.744
REMARK UNBOUND:                -0.420
REMARK  4 active torsions:
REMARK  status: ('A' for Active; 'I' for Inactive)
REMARK    1  A    between atoms: C_3  and  C_8 
REMARK    2  A    between atoms: C_10  and  C_11 
REMARK       I    between atoms: C_11  and  N_12 
REMARK    3  A    between atoms: N_12  and  C_15 
REMARK    4  A    between atoms: C_15  and  C_16 
ROOT
HETATM    1  C   UNL     1     -12.344 -21.670   0.275  1.00  0.00     0.257 C 
HETATM    2  N   UNL     1     -12.255 -22.525   1.295  1.00  0.00    -0.351 N 
ATOM      3  HN  UNL     1     -13.105 -22.828   1.770  1.00  0.00     0.163 HD
HETATM    4  O   UNL     1     -11.343 -21.250  -0.313  1.00  0.00    -0.267 OA
ENDROOT
BRANCH   2   5
HETATM    5  C   UNL     1     -10.974 -23.031   1.739  1.00  0.00     0.188 C 
BRANCH   5   6
HETATM    6  C   UNL     1     -10.945 -23.404   3.174  1.00  0.00     0.072 A 
HETATM    7  O   UNL     1     -11.713 -22.609   4.012  1.00  0.00    -0.311 OA
HETATM    8  C   UNL     1     -11.578 -23.137   5.272  1.00  0.00     0.103 A 
HETATM    9  C   UNL     1     -10.728 -24.245   5.251  1.00  0.00     0.001 A 
HETATM   10  C   UNL     1     -12.220 -22.707   6.441  1.00  0.00     0.075 A 
HETATM   11  C   UNL     1     -10.331 -24.400   3.877  1.00  0.00     0.048 A 
HETATM   12  C   UNL     1     -10.520 -24.947   6.441  1.00  0.00     0.014 A 
HETATM   13  C   UNL     1     -11.149 -24.540   7.608  1.00  0.00     0.002 A 
HETATM   14  C   UNL     1     -11.990 -23.432   7.614  1.00  0.00     0.021 A 
BRANCH  10  15
HETATM   15  C   UNL     1     -13.119 -21.498   6.491  1.00  0.00     0.212 C 
HETATM   16  O   UNL     1     -14.404 -21.684   6.489  1.00  0.00    -0.644 OA
HETATM   17  O   UNL     1     -12.676 -20.379   6.566  1.00  0.00    -0.644 OA
ENDBRANCH  10  15
ENDBRANCH   5   6
ENDBRANCH   2   5
BRANCH   1  18
HETATM   18  C   UNL     1     -13.707 -21.216  -0.138  1.00  0.00     0.094 A 
HETATM   19  C   UNL     1     -14.879 -21.982  -0.290  1.00  0.00     0.128 A 
HETATM   20  N   UNL     1     -15.924 -21.262  -0.679  1.00  0.00    -0.303 N 
HETATM   21  N   UNL     1     -15.431 -19.953  -0.791  1.00  0.00    -0.250 N 
ATOM     22  HN  UNL     1     -16.874 -21.588  -0.857  1.00  0.00     0.186 HD
HETATM   23  C   UNL     1     -16.110 -18.827  -1.184  1.00  0.00     0.119 A 
HETATM   24  C   UNL     1     -14.102 -19.882  -0.471  1.00  0.00     0.143 A 
HETATM   25  C   UNL     1     -15.430 -17.660  -1.247  1.00  0.00     0.036 A 
HETATM   26  C   UNL     1     -14.077 -17.654  -0.906  1.00  0.00     0.091 A 
HETATM   27  N   UNL     1     -13.396 -18.723  -0.522  1.00  0.00    -0.350 N 
ATOM     28  HN  UNL     1     -12.406 -18.678  -0.280  1.00  0.00     0.166 HD
ENDBRANCH   1  18
TORSDOF 4
ENDMDL
MODEL 18
REMARK VINA RESULT:    -7.331      1.884      2.825
REMARK INTER + INTRA:          -9.465
REMARK INTER:                  -8.934
REMARK INTRA:                  -0.531
REMARK UNBOUND:                -0.420
REMARK  4 active torsions:
REMARK  status: ('A' for Active; 'I' for Inactive)
REMARK    1  A    between atoms: C_3  and  C_8 
REMARK    2  A    between atoms: C_10  and  C_11 
REMARK       I    between atoms: C_11  and  N_12 
REMARK    3  A    between atoms: N_12  and  C_15 
REMARK    4  A    between atoms: C_15  and  C_16 
ROOT
HETATM    1  C   UNL     1     -16.347 -19.081  -1.034  1.00  0.00     0.257 C 
HETATM    2  N   UNL     1     -16.973 -20.085  -1.650  1.00  0.00    -0.351 N 
ATOM      3  HN  UNL     1     -16.432 -20.883  -1.982  1.00  0.00     0.163 HD
HETATM    4  O   UNL     1     -16.952 -18.079  -0.641  1.00  0.00    -0.267 OA
ENDROOT
BRANCH   2   5
HETATM    5  C   UNL     1     -18.406 -20.062  -1.855  1.00  0.00     0.188 C 
BRANCH   5   6
HETATM    6  C   UNL     1     -19.101 -21.265  -1.337  1.00  0.00     0.072 A 
HETATM    7  O   UNL     1     -19.078 -21.420   0.042  1.00  0.00    -0.311 OA
HETATM    8  C   UNL     1     -19.796 -22.558   0.311  1.00  0.00     0.103 A 
HETATM    9  C   UNL     1     -20.263 -23.135  -0.871  1.00  0.00     0.001 A 
HETATM   10  C   UNL     1     -20.101 -23.084   1.574  1.00  0.00     0.075 A 
HETATM   11  C   UNL     1     -19.800 -22.277  -1.928  1.00  0.00     0.048 A 
HETATM   12  C   UNL     1     -21.067 -24.275  -0.783  1.00  0.00     0.014 A 
HETATM   13  C   UNL     1     -21.383 -24.809   0.456  1.00  0.00     0.002 A 
HETATM   14  C   UNL     1     -20.907 -24.225   1.626  1.00  0.00     0.021 A 
BRANCH  10  15
HETATM   15  C   UNL     1     -19.585 -22.493   2.861  1.00  0.00     0.212 C 
HETATM   16  O   UNL     1     -18.303 -22.342   2.999  1.00  0.00    -0.644 OA
HETATM   17  O   UNL     1     -20.329 -22.132   3.739  1.00  0.00    -0.644 OA
ENDBRANCH  10  15
ENDBRANCH   5   6
ENDBRANCH   2   5
BRANCH   1  18
HETATM   18  C   UNL     1     -14.869 -19.194  -0.839  1.00  0.00     0.094 A 
HETATM   19  C   UNL     1     -13.877 -18.218  -1.053  1.00  0.00     0.128 A 
HETATM   20  N   UNL     1     -12.652 -18.654  -0.788  1.00  0.00    -0.303 N 
HETATM   21  N   UNL     1     -12.830 -19.984  -0.375  1.00  0.00    -0.250 N 
ATOM     22  HN  UNL     1     -11.776 -18.138  -0.867  1.00  0.00     0.186 HD
HETATM   23  C   UNL     1     -11.867 -20.888  -0.006  1.00  0.00     0.119 A 
HETATM   24  C   UNL     1     -14.150 -20.347  -0.389  1.00  0.00     0.143 A 
HETATM   25  C   UNL     1     -12.259 -22.137   0.336  1.00  0.00     0.036 A 
HETATM   26  C   UNL     1     -13.620 -22.443   0.302  1.00  0.00     0.091 A 
HETATM   27  N   UNL     1     -14.573 -21.591  -0.047  1.00  0.00    -0.350 N 
ATOM     28  HN  UNL     1     -15.558 -21.854  -0.058  1.00  0.00     0.166 HD
ENDBRANCH   1  18
TORSDOF 4
ENDMDL
MODEL 19
REMARK VINA RESULT:    -7.290      4.842      6.965
REMARK INTER + INTRA:          -9.414
REMARK INTER:                  -8.727
REMARK INTRA:                  -0.687
REMARK UNBOUND:                -0.420
REMARK  4 active torsions:
REMARK  status: ('A' for Active; 'I' for Inactive)
REMARK    1  A    between atoms: C_3  and  C_8 
REMARK    2  A    between atoms: C_10  and  C_11 
REMARK       I    between atoms: C_11  and  N_12 
REMARK    3  A    between atoms: N_12  and  C_15 
REMARK    4  A    between atoms: C_15  and  C_16 
ROOT
HETATM    1  C   UNL     1     -10.206 -19.887   4.335  1.00  0.00     0.257 C 
HETATM    2  N   UNL     1      -9.863 -19.903   3.046  1.00  0.00    -0.351 N 
ATOM      3  HN  UNL     1      -9.212 -20.611   2.710  1.00  0.00     0.163 HD
HETATM    4  O   UNL     1     -10.966 -19.032   4.798  1.00  0.00    -0.267 OA
ENDROOT
BRANCH   2   5
HETATM    5  C   UNL     1     -10.400 -18.931   2.116  1.00  0.00     0.188 C 
BRANCH   5   6
HETATM    6  C   UNL     1     -11.593 -19.410   1.377  1.00  0.00     0.072 A 
HETATM    7  O   UNL     1     -11.741 -20.788   1.313  1.00  0.00    -0.311 OA
HETATM    8  C   UNL     1     -12.907 -21.016   0.626  1.00  0.00     0.103 A 
HETATM    9  C   UNL     1     -13.495 -19.809   0.243  1.00  0.00     0.001 A 
HETATM   10  C   UNL     1     -13.505 -22.257   0.367  1.00  0.00     0.075 A 
HETATM   11  C   UNL     1     -12.624 -18.780   0.743  1.00  0.00     0.048 A 
HETATM   12  C   UNL     1     -14.726 -19.849  -0.419  1.00  0.00     0.014 A 
HETATM   13  C   UNL     1     -15.335 -21.066  -0.682  1.00  0.00     0.002 A 
HETATM   14  C   UNL     1     -14.736 -22.260  -0.297  1.00  0.00     0.021 A 
BRANCH  10  15
HETATM   15  C   UNL     1     -12.874 -23.572   0.747  1.00  0.00     0.212 C 
HETATM   16  O   UNL     1     -13.504 -24.667   0.449  1.00  0.00    -0.644 OA
HETATM   17  O   UNL     1     -11.796 -23.628   1.285  1.00  0.00    -0.644 OA
ENDBRANCH  10  15
ENDBRANCH   5   6
ENDBRANCH   2   5
BRANCH   1  18
HETATM   18  C   UNL     1      -9.627 -20.941   5.223  1.00  0.00     0.094 A 
HETATM   19  C   UNL     1      -8.738 -20.788   6.305  1.00  0.00     0.128 A 
HETATM   20  N   UNL     1      -8.414 -21.939   6.880  1.00  0.00    -0.303 N 
HETATM   21  N   UNL     1      -9.119 -22.910   6.151  1.00  0.00    -0.250 N 
ATOM     22  HN  UNL     1      -7.791 -22.086   7.674  1.00  0.00     0.186 HD
HETATM   23  C   UNL     1      -9.111 -24.270   6.332  1.00  0.00     0.119 A 
HETATM   24  C   UNL     1      -9.863 -22.350   5.148  1.00  0.00     0.143 A 
HETATM   25  C   UNL     1      -9.850 -25.031   5.493  1.00  0.00     0.036 A 
HETATM   26  C   UNL     1     -10.588 -24.399   4.492  1.00  0.00     0.091 A 
HETATM   27  N   UNL     1     -10.618 -23.089   4.294  1.00  0.00    -0.350 N 
ATOM     28  HN  UNL     1     -11.171 -22.665   3.550  1.00  0.00     0.166 HD
ENDBRANCH   1  18
TORSDOF 4
ENDMDL
MODEL 20
REMARK VINA RESULT:    -7.179      3.126      5.836
REMARK INTER + INTRA:          -9.277
REMARK INTER:                  -8.708
REMARK INTRA:                  -0.569
REMARK UNBOUND:                -0.420
REMARK  4 active torsions:
REMARK  status: ('A' for Active; 'I' for Inactive)
REMARK    1  A    between atoms: C_3  and  C_8 
REMARK    2  A    between atoms: C_10  and  C_11 
REMARK       I    between atoms: C_11  and  N_12 
REMARK    3  A    between atoms: N_12  and  C_15 
REMARK    4  A    between atoms: C_15  and  C_16 
ROOT
HETATM    1  C   UNL     1     -10.986 -21.898   2.392  1.00  0.00     0.257 C 
HETATM    2  N   UNL     1     -12.031 -22.581   1.922  1.00  0.00    -0.351 N 
ATOM      3  HN  UNL     1     -12.644 -23.069   2.574  1.00  0.00     0.163 HD
HETATM    4  O   UNL     1     -10.197 -21.316   1.643  1.00  0.00    -0.267 OA
ENDROOT
BRANCH   2   5
HETATM    5  C   UNL     1     -12.309 -22.642   0.502  1.00  0.00     0.188 C 
BRANCH   5   6
HETATM    6  C   UNL     1     -13.238 -21.587   0.032  1.00  0.00     0.072 A 
HETATM    7  O   UNL     1     -14.565 -21.974  -0.094  1.00  0.00    -0.311 OA
HETATM    8  C   UNL     1     -15.252 -20.859  -0.502  1.00  0.00     0.103 A 
HETATM    9  C   UNL     1     -14.385 -19.774  -0.650  1.00  0.00     0.001 A 
HETATM   10  C   UNL     1     -16.635 -20.745  -0.702  1.00  0.00     0.075 A 
HETATM   11  C   UNL     1     -13.082 -20.271  -0.296  1.00  0.00     0.048 A 
HETATM   12  C   UNL     1     -14.923 -18.534  -1.005  1.00  0.00     0.014 A 
HETATM   13  C   UNL     1     -16.288 -18.400  -1.204  1.00  0.00     0.002 A 
HETATM   14  C   UNL     1     -17.140 -19.490  -1.057  1.00  0.00     0.021 A 
BRANCH  10  15
HETATM   15  C   UNL     1     -17.585 -21.908  -0.575  1.00  0.00     0.212 C 
HETATM   16  O   UNL     1     -17.824 -22.382   0.609  1.00  0.00    -0.644 OA
HETATM   17  O   UNL     1     -18.144 -22.380  -1.534  1.00  0.00    -0.644 OA
ENDBRANCH  10  15
ENDBRANCH   5   6
ENDBRANCH   2   5
BRANCH   1  18
HETATM   18  C   UNL     1     -10.785 -21.863   3.873  1.00  0.00     0.094 A 
HETATM   19  C   UNL     1     -10.857 -20.759   4.744  1.00  0.00     0.128 A 
HETATM   20  N   UNL     1     -10.616 -21.078   6.010  1.00  0.00    -0.303 N 
HETATM   21  N   UNL     1     -10.374 -22.460   5.988  1.00  0.00    -0.250 N 
ATOM     22  HN  UNL     1     -10.609 -20.457   6.818  1.00  0.00     0.186 HD
HETATM   23  C   UNL     1     -10.054 -23.276   7.043  1.00  0.00     0.119 A 
HETATM   24  C   UNL     1     -10.469 -22.972   4.722  1.00  0.00     0.143 A 
HETATM   25  C   UNL     1      -9.834 -24.588   6.793  1.00  0.00     0.036 A 
HETATM   26  C   UNL     1      -9.948 -25.047   5.480  1.00  0.00     0.091 A 
HETATM   27  N   UNL     1     -10.257 -24.284   4.442  1.00  0.00    -0.350 N 
ATOM     28  HN  UNL     1     -10.332 -24.658   3.496  1.00  0.00     0.166 HD
ENDBRANCH   1  18
TORSDOF 4
ENDMDL
