MODEL 1
REMARK VINA RESULT:   -11.053      0.000      0.000
REMARK INTER + INTRA:         -16.037
REMARK INTER:                 -15.576
REMARK INTRA:                  -0.461
REMARK UNBOUND:                -0.461
REMARK  8 active torsions:
REMARK  status: ('A' for Active; 'I' for Inactive)
REMARK    1  A    between atoms: P_2  and  O_5 
REMARK    2  A    between atoms: O_5  and  P_6 
REMARK    3  A    between atoms: P_6  and  O_9 
REMARK    4  A    between atoms: O_9  and  C_10 
REMARK    5  A    between atoms: C_10  and  C_11 
REMARK    6  A    between atoms: C_13  and  O_14 
REMARK    7  A    between atoms: C_17  and  N_18 
REMARK    8  A    between atoms: C_26  and  N_27 
ROOT
HETATM    1  C   UNL     1       4.788  -0.988 -30.522  1.00  0.00     0.177 C 
HETATM    2  O   UNL     1       3.884  -0.079 -29.855  1.00  0.00    -0.356 OA
HETATM    3  C   UNL     1       6.160  -0.808 -29.868  1.00  0.00     0.153 C 
HETATM    4  C   UNL     1       5.849  -0.050 -28.584  1.00  0.00     0.088 C 
HETATM    5  C   UNL     1       4.596   0.730 -28.945  1.00  0.00     0.233 C 
ENDROOT
BRANCH   5   6
HETATM    6  N   UNL     1       3.721   0.984 -27.793  1.00  0.00    -0.299 N 
HETATM    7  C   UNL     1       2.523   0.395 -27.491  1.00  0.00     0.188 A 
HETATM    8  N   UNL     1       1.999   0.833 -26.369  1.00  0.00    -0.345 N 
HETATM    9  C   UNL     1       2.910   1.772 -25.911  1.00  0.00     0.147 A 
ATOM     10  HN  UNL     1       1.123   0.547 -25.934  1.00  0.00     0.167 HD
HETATM   11  C   UNL     1       3.976   1.868 -26.779  1.00  0.00     0.159 A 
HETATM   12  C   UNL     1       2.908   2.586 -24.744  1.00  0.00     0.290 A 
HETATM   13  N   UNL     1       5.072   2.635 -26.669  1.00  0.00    -0.174 N 
HETATM   14  C   UNL     1       5.073   3.368 -25.563  1.00  0.00     0.680 A 
ATOM     15  HN  UNL     1       5.822   2.653 -27.360  1.00  0.00     0.186 HD
HETATM   16  N   UNL     1       4.051   3.352 -24.650  1.00  0.00    -0.154 N 
ATOM     17  HN  UNL     1       4.144   3.957 -23.833  1.00  0.00     0.187 HD
HETATM   18  O   UNL     1       2.020   2.667 -23.895  1.00  0.00    -0.265 OA
BRANCH  14  19
HETATM   19  N   UNL     1       6.131   4.129 -25.278  1.00  0.00    -0.234 N 
ATOM     20  HN2 UNL     1       6.593   4.594 -26.059  1.00  0.00     0.174 HD
ATOM     21  HN1 UNL     1       6.417   4.252 -24.306  1.00  0.00     0.174 HD
ENDBRANCH  14  19
ENDBRANCH   5   6
BRANCH   3  22
HETATM   22  O   UNL     1       7.028  -0.029 -30.693  1.00  0.00    -0.393 OA
ATOM     23  HO  UNL     1       7.358   0.729 -30.225  1.00  0.00     0.210 HD
ENDBRANCH   3  22
BRANCH   1  24
HETATM   24  C   UNL     1       4.248  -2.390 -30.423  1.00  0.00     0.216 C 
BRANCH  24  25
HETATM   25  O   UNL     1       3.453  -2.723 -31.584  1.00  0.00    -0.287 OA
BRANCH  25  26
HETATM   26  P   UNL     1       2.003  -3.282 -31.535  1.00  0.00     0.418 P 
HETATM   27  O   UNL     1       1.698  -4.547 -30.844  1.00  0.00    -0.624 OA
HETATM   28  O   UNL     1       0.906  -2.400 -32.034  1.00  0.00    -0.624 OA
BRANCH  26  29
HETATM   29  O   UNL     1       2.391  -3.966 -32.922  1.00  0.00    -0.173 OA
BRANCH  29  30
HETATM   30  P   UNL     1       3.472  -4.997 -33.505  1.00  0.00     0.431 P 
HETATM   31  O   UNL     1       4.133  -5.611 -32.307  1.00  0.00    -0.616 OA
HETATM   32  O   UNL     1       4.561  -4.216 -34.244  1.00  0.00    -0.616 OA
HETATM   33  O   UNL     1       2.744  -5.959 -34.377  1.00  0.00    -0.616 OA
ENDBRANCH  29  30
ENDBRANCH  26  29
ENDBRANCH  25  26
ENDBRANCH  24  25
ENDBRANCH   1  24
TORSDOF 8
ENDMDL
MODEL 2
REMARK VINA RESULT:   -10.636      0.642      1.991
REMARK INTER + INTRA:         -15.450
REMARK INTER:                 -14.949
REMARK INTRA:                  -0.500
REMARK UNBOUND:                -0.461
REMARK  8 active torsions:
REMARK  status: ('A' for Active; 'I' for Inactive)
REMARK    1  A    between atoms: P_2  and  O_5 
REMARK    2  A    between atoms: O_5  and  P_6 
REMARK    3  A    between atoms: P_6  and  O_9 
REMARK    4  A    between atoms: O_9  and  C_10 
REMARK    5  A    between atoms: C_10  and  C_11 
REMARK    6  A    between atoms: C_13  and  O_14 
REMARK    7  A    between atoms: C_17  and  N_18 
REMARK    8  A    between atoms: C_26  and  N_27 
ROOT
HETATM    1  C   UNL     1       4.822  -0.903 -30.811  1.00  0.00     0.177 C 
HETATM    2  O   UNL     1       3.934  -0.002 -30.112  1.00  0.00    -0.356 OA
HETATM    3  C   UNL     1       6.174  -0.835 -30.097  1.00  0.00     0.153 C 
HETATM    4  C   UNL     1       5.848  -0.157 -28.774  1.00  0.00     0.088 C 
HETATM    5  C   UNL     1       4.646   0.705 -29.120  1.00  0.00     0.233 C 
ENDROOT
BRANCH   5   6
HETATM    6  N   UNL     1       3.739   0.917 -27.984  1.00  0.00    -0.299 N 
HETATM    7  C   UNL     1       2.540   0.307 -27.730  1.00  0.00     0.188 A 
HETATM    8  N   UNL     1       1.984   0.708 -26.610  1.00  0.00    -0.345 N 
HETATM    9  C   UNL     1       2.872   1.642 -26.102  1.00  0.00     0.147 A 
ATOM     10  HN  UNL     1       1.099   0.401 -26.206  1.00  0.00     0.167 HD
HETATM   11  C   UNL     1       3.959   1.774 -26.939  1.00  0.00     0.159 A 
HETATM   12  C   UNL     1       2.832   2.423 -24.913  1.00  0.00     0.290 A 
HETATM   13  N   UNL     1       5.043   2.550 -26.780  1.00  0.00    -0.174 N 
HETATM   14  C   UNL     1       5.008   3.251 -25.654  1.00  0.00     0.680 A 
ATOM     15  HN  UNL     1       5.810   2.595 -27.451  1.00  0.00     0.186 HD
HETATM   16  N   UNL     1       3.963   3.198 -24.768  1.00  0.00    -0.154 N 
ATOM     17  HN  UNL     1       4.028   3.780 -23.933  1.00  0.00     0.187 HD
HETATM   18  O   UNL     1       1.922   2.470 -24.085  1.00  0.00    -0.265 OA
BRANCH  14  19
HETATM   19  N   UNL     1       6.049   4.014 -25.320  1.00  0.00    -0.234 N 
ATOM     20  HN2 UNL     1       6.327   4.019 -24.339  1.00  0.00     0.174 HD
ATOM     21  HN1 UNL     1       6.549   4.530 -26.045  1.00  0.00     0.174 HD
ENDBRANCH  14  19
ENDBRANCH   5   6
BRANCH   3  22
HETATM   22  O   UNL     1       7.107  -0.041 -30.832  1.00  0.00    -0.393 OA
ATOM     23  HO  UNL     1       7.948  -0.003 -30.391  1.00  0.00     0.210 HD
ENDBRANCH   3  22
BRANCH   1  24
HETATM   24  C   UNL     1       4.216  -2.281 -30.835  1.00  0.00     0.216 C 
BRANCH  24  25
HETATM   25  O   UNL     1       3.792  -2.639 -32.170  1.00  0.00    -0.287 OA
BRANCH  25  26
HETATM   26  P   UNL     1       3.972  -4.044 -32.811  1.00  0.00     0.418 P 
HETATM   27  O   UNL     1       4.139  -4.201 -34.265  1.00  0.00    -0.624 OA
HETATM   28  O   UNL     1       4.170  -5.203 -31.889  1.00  0.00    -0.624 OA
BRANCH  26  29
HETATM   29  O   UNL     1       2.378  -4.055 -32.846  1.00  0.00    -0.173 OA
BRANCH  29  30
HETATM   30  P   UNL     1       1.144  -4.226 -31.837  1.00  0.00     0.431 P 
HETATM   31  O   UNL     1       0.550  -2.856 -31.689  1.00  0.00    -0.616 OA
HETATM   32  O   UNL     1       1.677  -4.615 -30.456  1.00  0.00    -0.616 OA
HETATM   33  O   UNL     1       0.228  -5.243 -32.421  1.00  0.00    -0.616 OA
ENDBRANCH  29  30
ENDBRANCH  26  29
ENDBRANCH  25  26
ENDBRANCH  24  25
ENDBRANCH   1  24
TORSDOF 8
ENDMDL
MODEL 3
REMARK VINA RESULT:    -8.946      4.230      8.141
REMARK INTER + INTRA:         -13.068
REMARK INTER:                 -12.141
REMARK INTRA:                  -0.927
REMARK UNBOUND:                -0.461
REMARK  8 active torsions:
REMARK  status: ('A' for Active; 'I' for Inactive)
REMARK    1  A    between atoms: P_2  and  O_5 
REMARK    2  A    between atoms: O_5  and  P_6 
REMARK    3  A    between atoms: P_6  and  O_9 
REMARK    4  A    between atoms: O_9  and  C_10 
REMARK    5  A    between atoms: C_10  and  C_11 
REMARK    6  A    between atoms: C_13  and  O_14 
REMARK    7  A    between atoms: C_17  and  N_18 
REMARK    8  A    between atoms: C_26  and  N_27 
ROOT
HETATM    1  C   UNL     1       6.048  -0.255 -28.678  1.00  0.00     0.177 C 
HETATM    2  O   UNL     1       5.202  -1.408 -28.886  1.00  0.00    -0.356 OA
HETATM    3  C   UNL     1       6.393   0.297 -30.063  1.00  0.00     0.153 C 
HETATM    4  C   UNL     1       5.385  -0.380 -30.981  1.00  0.00     0.088 C 
HETATM    5  C   UNL     1       5.099  -1.689 -30.265  1.00  0.00     0.233 C 
ENDROOT
BRANCH   5   6
HETATM    6  N   UNL     1       3.746  -2.204 -30.517  1.00  0.00    -0.299 N 
HETATM    7  C   UNL     1       2.552  -1.705 -30.072  1.00  0.00     0.188 A 
HETATM    8  N   UNL     1       1.515  -2.390 -30.497  1.00  0.00    -0.345 N 
HETATM    9  C   UNL     1       2.067  -3.404 -31.264  1.00  0.00     0.147 A 
ATOM     10  HN  UNL     1       0.529  -2.216 -30.305  1.00  0.00     0.167 HD
HETATM   11  C   UNL     1       3.440  -3.294 -31.287  1.00  0.00     0.159 A 
HETATM   12  C   UNL     1       1.458  -4.462 -31.994  1.00  0.00     0.290 A 
HETATM   13  N   UNL     1       4.326  -4.061 -31.943  1.00  0.00    -0.174 N 
HETATM   14  C   UNL     1       3.745  -5.026 -32.643  1.00  0.00     0.680 A 
ATOM     15  HN  UNL     1       5.335  -3.916 -31.907  1.00  0.00     0.186 HD
HETATM   16  N   UNL     1       2.389  -5.224 -32.669  1.00  0.00    -0.154 N 
ATOM     17  HN  UNL     1       2.039  -5.998 -33.234  1.00  0.00     0.187 HD
HETATM   18  O   UNL     1       0.259  -4.739 -32.042  1.00  0.00    -0.265 OA
BRANCH  14  19
HETATM   19  N   UNL     1       4.490  -5.827 -33.406  1.00  0.00    -0.234 N 
ATOM     20  HN2 UNL     1       4.986  -5.396 -34.186  1.00  0.00     0.174 HD
ATOM     21  HN1 UNL     1       4.570  -6.816 -33.172  1.00  0.00     0.174 HD
ENDBRANCH  14  19
ENDBRANCH   5   6
BRANCH   3  22
HETATM   22  O   UNL     1       7.720  -0.064 -30.448  1.00  0.00    -0.393 OA
ATOM     23  HO  UNL     1       7.888  -0.984 -30.281  1.00  0.00     0.210 HD
ENDBRANCH   3  22
BRANCH   1  24
HETATM   24  C   UNL     1       5.337   0.732 -27.790  1.00  0.00     0.216 C 
BRANCH  24  25
HETATM   25  O   UNL     1       4.131   0.158 -27.237  1.00  0.00    -0.287 OA
BRANCH  25  26
HETATM   26  P   UNL     1       2.784   0.916 -27.073  1.00  0.00     0.418 P 
HETATM   27  O   UNL     1       2.543   2.197 -27.760  1.00  0.00    -0.624 OA
HETATM   28  O   UNL     1       1.675   0.208 -26.364  1.00  0.00    -0.624 OA
BRANCH  26  29
HETATM   29  O   UNL     1       3.488   1.565 -25.800  1.00  0.00    -0.173 OA
BRANCH  29  30
HETATM   30  P   UNL     1       3.091   2.394 -24.485  1.00  0.00     0.431 P 
HETATM   31  O   UNL     1       3.119   1.403 -23.358  1.00  0.00    -0.616 OA
HETATM   32  O   UNL     1       1.639   2.862 -24.609  1.00  0.00    -0.616 OA
HETATM   33  O   UNL     1       4.060   3.515 -24.355  1.00  0.00    -0.616 OA
ENDBRANCH  29  30
ENDBRANCH  26  29
ENDBRANCH  25  26
ENDBRANCH  24  25
ENDBRANCH   1  24
TORSDOF 8
ENDMDL
MODEL 4
REMARK VINA RESULT:    -8.943      4.722      8.762
REMARK INTER + INTRA:         -13.064
REMARK INTER:                 -12.576
REMARK INTRA:                  -0.487
REMARK UNBOUND:                -0.461
REMARK  8 active torsions:
REMARK  status: ('A' for Active; 'I' for Inactive)
REMARK    1  A    between atoms: P_2  and  O_5 
REMARK    2  A    between atoms: O_5  and  P_6 
REMARK    3  A    between atoms: P_6  and  O_9 
REMARK    4  A    between atoms: O_9  and  C_10 
REMARK    5  A    between atoms: C_10  and  C_11 
REMARK    6  A    between atoms: C_13  and  O_14 
REMARK    7  A    between atoms: C_17  and  N_18 
REMARK    8  A    between atoms: C_26  and  N_27 
ROOT
HETATM    1  C   UNL     1       5.156  -0.986 -28.953  1.00  0.00     0.177 C 
HETATM    2  O   UNL     1       4.597  -2.238 -29.409  1.00  0.00    -0.356 OA
HETATM    3  C   UNL     1       5.290  -0.086 -30.183  1.00  0.00     0.153 C 
HETATM    4  C   UNL     1       4.427  -0.777 -31.229  1.00  0.00     0.088 C 
HETATM    5  C   UNL     1       4.495  -2.237 -30.816  1.00  0.00     0.233 C 
ENDROOT
BRANCH   5   6
HETATM    6  N   UNL     1       3.292  -2.999 -31.178  1.00  0.00    -0.299 N 
HETATM    7  C   UNL     1       1.993  -2.748 -30.830  1.00  0.00     0.188 A 
HETATM    8  N   UNL     1       1.145  -3.612 -31.339  1.00  0.00    -0.345 N 
HETATM    9  C   UNL     1       1.941  -4.486 -32.062  1.00  0.00     0.147 A 
ATOM     10  HN  UNL     1       0.132  -3.635 -31.227  1.00  0.00     0.167 HD
HETATM   11  C   UNL     1       3.265  -4.113 -31.973  1.00  0.00     0.159 A 
HETATM   12  C   UNL     1       1.608  -5.629 -32.842  1.00  0.00     0.290 A 
HETATM   13  N   UNL     1       4.331  -4.682 -32.558  1.00  0.00    -0.174 N 
HETATM   14  C   UNL     1       4.005  -5.728 -33.305  1.00  0.00     0.680 A 
ATOM     15  HN  UNL     1       5.287  -4.346 -32.441  1.00  0.00     0.186 HD
HETATM   16  N   UNL     1       2.719  -6.184 -33.441  1.00  0.00    -0.154 N 
ATOM     17  HN  UNL     1       2.572  -7.000 -34.035  1.00  0.00     0.187 HD
HETATM   18  O   UNL     1       0.493  -6.131 -32.987  1.00  0.00    -0.265 OA
BRANCH  14  19
HETATM   19  N   UNL     1       4.949  -6.356 -34.008  1.00  0.00    -0.234 N 
ATOM     20  HN2 UNL     1       5.915  -6.068 -33.850  1.00  0.00     0.174 HD
ATOM     21  HN1 UNL     1       4.688  -7.112 -34.641  1.00  0.00     0.174 HD
ENDBRANCH  14  19
ENDBRANCH   5   6
BRANCH   3  22
HETATM   22  O   UNL     1       6.644  -0.025 -30.634  1.00  0.00    -0.393 OA
ATOM     23  HO  UNL     1       7.001  -0.895 -30.768  1.00  0.00     0.210 HD
ENDBRANCH   3  22
BRANCH   1  24
HETATM   24  C   UNL     1       4.277  -0.411 -27.873  1.00  0.00     0.216 C 
BRANCH  24  25
HETATM   25  O   UNL     1       4.925   0.698 -27.211  1.00  0.00    -0.287 OA
BRANCH  25  26
HETATM   26  P   UNL     1       4.363   2.146 -27.152  1.00  0.00     0.418 P 
HETATM   27  O   UNL     1       5.175   3.257 -26.626  1.00  0.00    -0.624 OA
HETATM   28  O   UNL     1       3.056   2.407 -27.826  1.00  0.00    -0.624 OA
BRANCH  26  29
HETATM   29  O   UNL     1       3.797   1.697 -25.731  1.00  0.00    -0.173 OA
BRANCH  29  30
HETATM   30  P   UNL     1       2.937   2.304 -24.521  1.00  0.00     0.431 P 
HETATM   31  O   UNL     1       3.641   3.565 -24.116  1.00  0.00    -0.616 OA
HETATM   32  O   UNL     1       3.024   1.358 -23.321  1.00  0.00    -0.616 OA
HETATM   33  O   UNL     1       1.547   2.497 -25.017  1.00  0.00    -0.616 OA
ENDBRANCH  29  30
ENDBRANCH  26  29
ENDBRANCH  25  26
ENDBRANCH  24  25
ENDBRANCH   1  24
TORSDOF 8
ENDMDL
MODEL 5
REMARK VINA RESULT:    -8.847      7.490     10.516
REMARK INTER + INTRA:         -12.928
REMARK INTER:                 -12.023
REMARK INTRA:                  -0.905
REMARK UNBOUND:                -0.461
REMARK  8 active torsions:
REMARK  status: ('A' for Active; 'I' for Inactive)
REMARK    1  A    between atoms: P_2  and  O_5 
REMARK    2  A    between atoms: O_5  and  P_6 
REMARK    3  A    between atoms: P_6  and  O_9 
REMARK    4  A    between atoms: O_9  and  C_10 
REMARK    5  A    between atoms: C_10  and  C_11 
REMARK    6  A    between atoms: C_13  and  O_14 
REMARK    7  A    between atoms: C_17  and  N_18 
REMARK    8  A    between atoms: C_26  and  N_27 
ROOT
HETATM    1  C   UNL     1       3.231  -5.251 -33.832  1.00  0.00     0.177 C 
HETATM    2  O   UNL     1       3.527  -5.222 -35.247  1.00  0.00    -0.356 OA
HETATM    3  C   UNL     1       2.955  -6.711 -33.466  1.00  0.00     0.153 C 
HETATM    4  C   UNL     1       3.492  -7.488 -34.659  1.00  0.00     0.088 C 
HETATM    5  C   UNL     1       3.334  -6.504 -35.806  1.00  0.00     0.233 C 
ENDROOT
BRANCH   5   6
HETATM    6  N   UNL     1       4.335  -6.684 -36.866  1.00  0.00    -0.299 N 
HETATM    7  C   UNL     1       4.129  -6.998 -38.182  1.00  0.00     0.188 A 
HETATM    8  N   UNL     1       5.241  -7.064 -38.878  1.00  0.00    -0.345 N 
HETATM    9  C   UNL     1       6.237  -6.780 -37.957  1.00  0.00     0.147 A 
ATOM     10  HN  UNL     1       5.347  -7.275 -39.870  1.00  0.00     0.167 HD
HETATM   11  C   UNL     1       5.688  -6.539 -36.716  1.00  0.00     0.159 A 
HETATM   12  C   UNL     1       7.650  -6.694 -38.103  1.00  0.00     0.290 A 
HETATM   13  N   UNL     1       6.316  -6.200 -35.580  1.00  0.00    -0.174 N 
HETATM   14  C   UNL     1       7.630  -6.094 -35.735  1.00  0.00     0.680 A 
ATOM     15  HN  UNL     1       5.836  -6.040 -34.694  1.00  0.00     0.186 HD
HETATM   16  N   UNL     1       8.267  -6.330 -36.925  1.00  0.00    -0.154 N 
ATOM     17  HN  UNL     1       9.282  -6.227 -36.940  1.00  0.00     0.187 HD
HETATM   18  O   UNL     1       8.308  -6.926 -39.117  1.00  0.00    -0.265 OA
BRANCH  14  19
HETATM   19  N   UNL     1       8.384  -5.693 -34.710  1.00  0.00    -0.234 N 
ATOM     20  HN2 UNL     1       8.931  -4.842 -34.841  1.00  0.00     0.174 HD
ATOM     21  HN1 UNL     1       8.364  -6.215 -33.834  1.00  0.00     0.174 HD
ENDBRANCH  14  19
ENDBRANCH   5   6
BRANCH   3  22
HETATM   22  O   UNL     1       1.555  -6.951 -33.320  1.00  0.00    -0.393 OA
ATOM     23  HO  UNL     1       1.090  -6.152 -33.101  1.00  0.00     0.210 HD
ENDBRANCH   3  22
BRANCH   1  24
HETATM   24  C   UNL     1       4.378  -4.639 -33.071  1.00  0.00     0.216 C 
BRANCH  24  25
HETATM   25  O   UNL     1       3.929  -4.082 -31.815  1.00  0.00    -0.287 OA
BRANCH  25  26
HETATM   26  P   UNL     1       2.534  -3.437 -31.580  1.00  0.00     0.418 P 
HETATM   27  O   UNL     1       2.039  -2.356 -32.450  1.00  0.00    -0.624 OA
HETATM   28  O   UNL     1       1.636  -4.082 -30.575  1.00  0.00    -0.624 OA
BRANCH  26  29
HETATM   29  O   UNL     1       3.325  -2.472 -30.588  1.00  0.00    -0.173 OA
BRANCH  29  30
HETATM   30  P   UNL     1       4.579  -1.473 -30.611  1.00  0.00     0.431 P 
HETATM   31  O   UNL     1       4.037  -0.133 -30.208  1.00  0.00    -0.616 OA
HETATM   32  O   UNL     1       5.071  -1.321 -32.052  1.00  0.00    -0.616 OA
HETATM   33  O   UNL     1       5.610  -2.030 -29.694  1.00  0.00    -0.616 OA
ENDBRANCH  29  30
ENDBRANCH  26  29
ENDBRANCH  25  26
ENDBRANCH  24  25
ENDBRANCH   1  24
TORSDOF 8
ENDMDL
MODEL 6
REMARK VINA RESULT:    -8.626      4.369      8.891
REMARK INTER + INTRA:         -12.618
REMARK INTER:                 -11.792
REMARK INTRA:                  -0.826
REMARK UNBOUND:                -0.461
REMARK  8 active torsions:
REMARK  status: ('A' for Active; 'I' for Inactive)
REMARK    1  A    between atoms: P_2  and  O_5 
REMARK    2  A    between atoms: O_5  and  P_6 
REMARK    3  A    between atoms: P_6  and  O_9 
REMARK    4  A    between atoms: O_9  and  C_10 
REMARK    5  A    between atoms: C_10  and  C_11 
REMARK    6  A    between atoms: C_13  and  O_14 
REMARK    7  A    between atoms: C_17  and  N_18 
REMARK    8  A    between atoms: C_26  and  N_27 
ROOT
HETATM    1  C   UNL     1       3.550   1.652 -28.008  1.00  0.00     0.177 C 
HETATM    2  O   UNL     1       3.536   1.090 -29.339  1.00  0.00    -0.356 OA
HETATM    3  C   UNL     1       3.132   0.535 -27.050  1.00  0.00     0.153 C 
HETATM    4  C   UNL     1       3.271  -0.728 -27.889  1.00  0.00     0.088 C 
HETATM    5  C   UNL     1       3.028  -0.226 -29.302  1.00  0.00     0.233 C 
ENDROOT
BRANCH   5   6
HETATM    6  N   UNL     1       3.736  -1.008 -30.324  1.00  0.00    -0.299 N 
HETATM    7  C   UNL     1       5.018  -0.850 -30.776  1.00  0.00     0.188 A 
HETATM    8  N   UNL     1       5.358  -1.734 -31.686  1.00  0.00    -0.345 N 
HETATM    9  C   UNL     1       4.225  -2.517 -31.842  1.00  0.00     0.147 A 
ATOM     10  HN  UNL     1       6.252  -1.824 -32.168  1.00  0.00     0.167 HD
HETATM   11  C   UNL     1       3.222  -2.081 -31.003  1.00  0.00     0.159 A 
HETATM   12  C   UNL     1       3.970  -3.640 -32.678  1.00  0.00     0.290 A 
HETATM   13  N   UNL     1       1.994  -2.596 -30.836  1.00  0.00    -0.174 N 
HETATM   14  C   UNL     1       1.778  -3.659 -31.599  1.00  0.00     0.680 A 
ATOM     15  HN  UNL     1       1.302  -2.211 -30.192  1.00  0.00     0.186 HD
HETATM   16  N   UNL     1       2.707  -4.156 -32.475  1.00  0.00    -0.154 N 
ATOM     17  HN  UNL     1       2.444  -4.976 -33.022  1.00  0.00     0.187 HD
HETATM   18  O   UNL     1       4.726  -4.128 -33.518  1.00  0.00    -0.265 OA
BRANCH  14  19
HETATM   19  N   UNL     1       0.627  -4.325 -31.492  1.00  0.00    -0.234 N 
ATOM     20  HN2 UNL     1      -0.223  -3.830 -31.762  1.00  0.00     0.174 HD
ATOM     21  HN1 UNL     1       0.633  -5.298 -31.186  1.00  0.00     0.174 HD
ENDBRANCH  14  19
ENDBRANCH   5   6
BRANCH   3  22
HETATM   22  O   UNL     1       1.776   0.694 -26.631  1.00  0.00    -0.393 OA
ATOM     23  HO  UNL     1       1.221   0.015 -26.998  1.00  0.00     0.210 HD
ENDBRANCH   3  22
BRANCH   1  24
HETATM   24  C   UNL     1       4.916   2.220 -27.721  1.00  0.00     0.216 C 
BRANCH  24  25
HETATM   25  O   UNL     1       5.260   2.063 -26.326  1.00  0.00    -0.287 OA
BRANCH  25  26
HETATM   26  P   UNL     1       5.859   3.184 -25.430  1.00  0.00     0.418 P 
HETATM   27  O   UNL     1       6.389   2.884 -24.089  1.00  0.00    -0.624 OA
HETATM   28  O   UNL     1       6.059   4.529 -26.048  1.00  0.00    -0.624 OA
BRANCH  26  29
HETATM   29  O   UNL     1       4.352   3.381 -24.948  1.00  0.00    -0.173 OA
BRANCH  29  30
HETATM   30  P   UNL     1       3.406   2.959 -23.724  1.00  0.00     0.431 P 
HETATM   31  O   UNL     1       2.179   3.815 -23.847  1.00  0.00    -0.616 OA
HETATM   32  O   UNL     1       4.079   3.361 -22.409  1.00  0.00    -0.616 OA
HETATM   33  O   UNL     1       3.159   1.496 -23.835  1.00  0.00    -0.616 OA
ENDBRANCH  29  30
ENDBRANCH  26  29
ENDBRANCH  25  26
ENDBRANCH  24  25
ENDBRANCH   1  24
TORSDOF 8
ENDMDL
MODEL 7
REMARK VINA RESULT:    -8.427      2.972      5.486
REMARK INTER + INTRA:         -12.337
REMARK INTER:                 -11.581
REMARK INTRA:                  -0.756
REMARK UNBOUND:                -0.461
REMARK  8 active torsions:
REMARK  status: ('A' for Active; 'I' for Inactive)
REMARK    1  A    between atoms: P_2  and  O_5 
REMARK    2  A    between atoms: O_5  and  P_6 
REMARK    3  A    between atoms: P_6  and  O_9 
REMARK    4  A    between atoms: O_9  and  C_10 
REMARK    5  A    between atoms: C_10  and  C_11 
REMARK    6  A    between atoms: C_13  and  O_14 
REMARK    7  A    between atoms: C_17  and  N_18 
REMARK    8  A    between atoms: C_26  and  N_27 
ROOT
HETATM    1  C   UNL     1       2.777  -4.978 -32.618  1.00  0.00     0.177 C 
HETATM    2  O   UNL     1       3.763  -4.262 -31.840  1.00  0.00    -0.356 OA
HETATM    3  C   UNL     1       1.426  -4.317 -32.337  1.00  0.00     0.153 C 
HETATM    4  C   UNL     1       1.802  -2.994 -31.683  1.00  0.00     0.088 C 
HETATM    5  C   UNL     1       3.129  -3.311 -31.014  1.00  0.00     0.233 C 
ENDROOT
BRANCH   5   6
HETATM    6  N   UNL     1       4.018  -2.146 -30.909  1.00  0.00    -0.299 N 
HETATM    7  C   UNL     1       5.088  -1.822 -31.699  1.00  0.00     0.188 A 
HETATM    8  N   UNL     1       5.663  -0.693 -31.352  1.00  0.00    -0.345 N 
HETATM    9  C   UNL     1       4.926  -0.255 -30.263  1.00  0.00     0.147 A 
ATOM     10  HN  UNL     1       6.469  -0.243 -31.784  1.00  0.00     0.167 HD
HETATM   11  C   UNL     1       3.907  -1.140 -29.987  1.00  0.00     0.159 A 
HETATM   12  C   UNL     1       5.054   0.908 -29.453  1.00  0.00     0.290 A 
HETATM   13  N   UNL     1       2.962  -1.052 -29.037  1.00  0.00    -0.174 N 
HETATM   14  C   UNL     1       3.074   0.050 -28.307  1.00  0.00     0.680 A 
ATOM     15  HN  UNL     1       2.238  -1.755 -28.892  1.00  0.00     0.186 HD
HETATM   16  N   UNL     1       4.063   0.980 -28.496  1.00  0.00    -0.154 N 
ATOM     17  HN  UNL     1       4.066   1.792 -27.879  1.00  0.00     0.187 HD
HETATM   18  O   UNL     1       5.929   1.772 -29.524  1.00  0.00    -0.265 OA
BRANCH  14  19
HETATM   19  N   UNL     1       2.163   0.314 -27.369  1.00  0.00    -0.234 N 
ATOM     20  HN2 UNL     1       2.483   0.812 -26.538  1.00  0.00     0.174 HD
ATOM     21  HN1 UNL     1       1.190   0.051 -27.522  1.00  0.00     0.174 HD
ENDBRANCH  14  19
ENDBRANCH   5   6
BRANCH   3  22
HETATM   22  O   UNL     1       0.645  -5.100 -31.433  1.00  0.00    -0.393 OA
ATOM     23  HO  UNL     1      -0.116  -5.467 -31.866  1.00  0.00     0.210 HD
ENDBRANCH   3  22
BRANCH   1  24
HETATM   24  C   UNL     1       3.175  -4.954 -34.070  1.00  0.00     0.216 C 
BRANCH  24  25
HETATM   25  O   UNL     1       4.608  -4.833 -34.214  1.00  0.00    -0.287 OA
BRANCH  25  26
HETATM   26  P   UNL     1       5.535  -5.933 -34.804  1.00  0.00     0.418 P 
HETATM   27  O   UNL     1       7.000  -5.844 -34.674  1.00  0.00    -0.624 OA
HETATM   28  O   UNL     1       4.888  -7.173 -35.328  1.00  0.00    -0.624 OA
BRANCH  26  29
HETATM   29  O   UNL     1       5.456  -5.059 -36.135  1.00  0.00    -0.173 OA
BRANCH  29  30
HETATM   30  P   UNL     1       6.255  -4.874 -37.513  1.00  0.00     0.431 P 
HETATM   31  O   UNL     1       7.418  -3.983 -37.191  1.00  0.00    -0.616 OA
HETATM   32  O   UNL     1       5.379  -4.097 -38.499  1.00  0.00    -0.616 OA
HETATM   33  O   UNL     1       6.625  -6.231 -38.000  1.00  0.00    -0.616 OA
ENDBRANCH  29  30
ENDBRANCH  26  29
ENDBRANCH  25  26
ENDBRANCH  24  25
ENDBRANCH   1  24
TORSDOF 8
ENDMDL
MODEL 8
REMARK VINA RESULT:    -8.221      8.718     11.501
REMARK INTER + INTRA:         -12.047
REMARK INTER:                 -11.339
REMARK INTRA:                  -0.708
REMARK UNBOUND:                -0.461
REMARK  8 active torsions:
REMARK  status: ('A' for Active; 'I' for Inactive)
REMARK    1  A    between atoms: P_2  and  O_5 
REMARK    2  A    between atoms: O_5  and  P_6 
REMARK    3  A    between atoms: P_6  and  O_9 
REMARK    4  A    between atoms: O_9  and  C_10 
REMARK    5  A    between atoms: C_10  and  C_11 
REMARK    6  A    between atoms: C_13  and  O_14 
REMARK    7  A    between atoms: C_17  and  N_18 
REMARK    8  A    between atoms: C_26  and  N_27 
ROOT
HETATM    1  C   UNL     1       3.561  -6.725 -34.322  1.00  0.00     0.177 C 
HETATM    2  O   UNL     1       3.222  -7.077 -35.682  1.00  0.00    -0.356 OA
HETATM    3  C   UNL     1       4.911  -6.006 -34.374  1.00  0.00     0.153 C 
HETATM    4  C   UNL     1       5.077  -5.660 -35.847  1.00  0.00     0.088 C 
HETATM    5  C   UNL     1       4.291  -6.757 -36.545  1.00  0.00     0.233 C 
ENDROOT
BRANCH   5   6
HETATM    6  N   UNL     1       3.718  -6.332 -37.829  1.00  0.00    -0.299 N 
HETATM    7  C   UNL     1       4.240  -5.457 -38.743  1.00  0.00     0.188 A 
HETATM    8  N   UNL     1       3.483  -5.308 -39.806  1.00  0.00    -0.345 N 
HETATM    9  C   UNL     1       2.396  -6.135 -39.570  1.00  0.00     0.147 A 
ATOM     10  HN  UNL     1       3.657  -4.719 -40.620  1.00  0.00     0.167 HD
HETATM   11  C   UNL     1       2.535  -6.774 -38.357  1.00  0.00     0.159 A 
HETATM   12  C   UNL     1       1.242  -6.410 -40.355  1.00  0.00     0.290 A 
HETATM   13  N   UNL     1       1.714  -7.673 -37.792  1.00  0.00    -0.174 N 
HETATM   14  C   UNL     1       0.657  -7.944 -38.546  1.00  0.00     0.680 A 
ATOM     15  HN  UNL     1       1.885  -8.102 -36.882  1.00  0.00     0.186 HD
HETATM   16  N   UNL     1       0.425  -7.347 -39.758  1.00  0.00    -0.154 N 
ATOM     17  HN  UNL     1      -0.421  -7.619 -40.260  1.00  0.00     0.187 HD
HETATM   18  O   UNL     1       0.933  -5.895 -41.430  1.00  0.00    -0.265 OA
BRANCH  14  19
HETATM   19  N   UNL     1      -0.214  -8.874 -38.150  1.00  0.00    -0.234 N 
ATOM     20  HN2 UNL     1      -0.888  -9.203 -38.841  1.00  0.00     0.174 HD
ATOM     21  HN1 UNL     1      -0.158  -9.246 -37.202  1.00  0.00     0.174 HD
ENDBRANCH  14  19
ENDBRANCH   5   6
BRANCH   3  22
HETATM   22  O   UNL     1       5.971  -6.867 -33.954  1.00  0.00    -0.393 OA
ATOM     23  HO  UNL     1       6.064  -6.861 -33.009  1.00  0.00     0.210 HD
ENDBRANCH   3  22
BRANCH   1  24
HETATM   24  C   UNL     1       2.453  -5.894 -33.731  1.00  0.00     0.216 C 
BRANCH  24  25
HETATM   25  O   UNL     1       2.983  -4.844 -32.889  1.00  0.00    -0.287 OA
BRANCH  25  26
HETATM   26  P   UNL     1       2.121  -3.880 -32.026  1.00  0.00     0.418 P 
HETATM   27  O   UNL     1       1.772  -2.533 -32.508  1.00  0.00    -0.624 OA
HETATM   28  O   UNL     1       1.495  -4.435 -30.788  1.00  0.00    -0.624 OA
BRANCH  26  29
HETATM   29  O   UNL     1       3.521  -3.450 -31.397  1.00  0.00    -0.173 OA
BRANCH  29  30
HETATM   30  P   UNL     1       4.315  -2.112 -31.007  1.00  0.00     0.431 P 
HETATM   31  O   UNL     1       5.344  -2.531 -29.998  1.00  0.00    -0.616 OA
HETATM   32  O   UNL     1       3.364  -1.159 -30.280  1.00  0.00    -0.616 OA
HETATM   33  O   UNL     1       4.871  -1.542 -32.264  1.00  0.00    -0.616 OA
ENDBRANCH  29  30
ENDBRANCH  26  29
ENDBRANCH  25  26
ENDBRANCH  24  25
ENDBRANCH   1  24
TORSDOF 8
ENDMDL
MODEL 9
REMARK VINA RESULT:    -8.123      8.073     11.441
REMARK INTER + INTRA:         -11.908
REMARK INTER:                 -11.077
REMARK INTRA:                  -0.831
REMARK UNBOUND:                -0.461
REMARK  8 active torsions:
REMARK  status: ('A' for Active; 'I' for Inactive)
REMARK    1  A    between atoms: P_2  and  O_5 
REMARK    2  A    between atoms: O_5  and  P_6 
REMARK    3  A    between atoms: P_6  and  O_9 
REMARK    4  A    between atoms: O_9  and  C_10 
REMARK    5  A    between atoms: C_10  and  C_11 
REMARK    6  A    between atoms: C_13  and  O_14 
REMARK    7  A    between atoms: C_17  and  N_18 
REMARK    8  A    between atoms: C_26  and  N_27 
ROOT
HETATM    1  C   UNL     1       4.007  -5.218 -34.719  1.00  0.00     0.177 C 
HETATM    2  O   UNL     1       5.145  -4.967 -35.575  1.00  0.00    -0.356 OA
HETATM    3  C   UNL     1       3.514  -6.631 -35.040  1.00  0.00     0.153 C 
HETATM    4  C   UNL     1       4.669  -7.246 -35.819  1.00  0.00     0.088 C 
HETATM    5  C   UNL     1       5.317  -6.039 -36.476  1.00  0.00     0.233 C 
ENDROOT
BRANCH   5   6
HETATM    6  N   UNL     1       6.759  -6.207 -36.701  1.00  0.00    -0.299 N 
HETATM    7  C   UNL     1       7.764  -6.245 -35.773  1.00  0.00     0.188 A 
HETATM    8  N   UNL     1       8.951  -6.432 -36.304  1.00  0.00    -0.345 N 
HETATM    9  C   UNL     1       8.707  -6.515 -37.665  1.00  0.00     0.147 A 
ATOM     10  HN  UNL     1       9.847  -6.500 -35.823  1.00  0.00     0.167 HD
HETATM   11  C   UNL     1       7.359  -6.382 -37.919  1.00  0.00     0.159 A 
HETATM   12  C   UNL     1       9.589  -6.717 -38.764  1.00  0.00     0.290 A 
HETATM   13  N   UNL     1       6.725  -6.441 -39.101  1.00  0.00    -0.174 N 
HETATM   14  C   UNL     1       7.554  -6.658 -40.115  1.00  0.00     0.680 A 
ATOM     15  HN  UNL     1       5.717  -6.329 -39.209  1.00  0.00     0.186 HD
HETATM   16  N   UNL     1       8.910  -6.786 -39.962  1.00  0.00    -0.154 N 
ATOM     17  HN  UNL     1       9.463  -6.947 -40.805  1.00  0.00     0.187 HD
HETATM   18  O   UNL     1      10.817  -6.802 -38.726  1.00  0.00    -0.265 OA
BRANCH  14  19
HETATM   19  N   UNL     1       7.064  -6.813 -41.345  1.00  0.00    -0.234 N 
ATOM     20  HN2 UNL     1       6.460  -6.072 -41.702  1.00  0.00     0.174 HD
ATOM     21  HN1 UNL     1       7.330  -7.629 -41.896  1.00  0.00     0.174 HD
ENDBRANCH  14  19
ENDBRANCH   5   6
BRANCH   3  22
HETATM   22  O   UNL     1       2.342  -6.597 -35.856  1.00  0.00    -0.393 OA
ATOM     23  HO  UNL     1       1.784  -7.347 -35.687  1.00  0.00     0.210 HD
ENDBRANCH   3  22
BRANCH   1  24
HETATM   24  C   UNL     1       4.413  -5.028 -33.281  1.00  0.00     0.216 C 
BRANCH  24  25
HETATM   25  O   UNL     1       3.279  -5.177 -32.398  1.00  0.00    -0.287 OA
BRANCH  25  26
HETATM   26  P   UNL     1       2.378  -4.009 -31.908  1.00  0.00     0.418 P 
HETATM   27  O   UNL     1       2.058  -2.874 -32.790  1.00  0.00    -0.624 OA
HETATM   28  O   UNL     1       1.688  -4.173 -30.593  1.00  0.00    -0.624 OA
BRANCH  26  29
HETATM   29  O   UNL     1       3.745  -3.392 -31.370  1.00  0.00    -0.173 OA
BRANCH  29  30
HETATM   30  P   UNL     1       4.318  -1.991 -30.841  1.00  0.00     0.431 P 
HETATM   31  O   UNL     1       5.321  -2.338 -29.780  1.00  0.00    -0.616 OA
HETATM   32  O   UNL     1       3.196  -1.225 -30.137  1.00  0.00    -0.616 OA
HETATM   33  O   UNL     1       4.877  -1.266 -32.014  1.00  0.00    -0.616 OA
ENDBRANCH  29  30
ENDBRANCH  26  29
ENDBRANCH  25  26
ENDBRANCH  24  25
ENDBRANCH   1  24
TORSDOF 8
ENDMDL
