MODEL 1
REMARK VINA RESULT:    -6.695      0.000      0.000
REMARK INTER + INTRA:          -9.324
REMARK INTER:                  -9.043
REMARK INTRA:                  -0.281
REMARK UNBOUND:                -0.281
REMARK  6 active torsions:
REMARK  status: ('A' for Active; 'I' for Inactive)
REMARK    1  A    between atoms: P_1  and  O_2 
REMARK    2  A    between atoms: O_2  and  P_3 
REMARK    3  A    between atoms: P_3  and  S_9 
REMARK    4  A    between atoms: S_9  and  C_10 
REMARK    5  A    between atoms: C_10  and  C_11 
REMARK    6  A    between atoms: C_11  and  C_12 
ROOT
HETATM    1  P   UNL     1      26.147  -2.383  29.636  1.00  0.00     0.326 P 
HETATM    2  O   UNL     1      26.245  -3.458  30.683  1.00  0.00    -0.638 OA
HETATM    3  O   UNL     1      24.858  -1.640  29.349  1.00  0.00    -0.638 OA
ENDROOT
BRANCH   1   4
HETATM    4  S   UNL     1      27.516  -0.887  30.052  1.00  0.00    -0.041 SA
BRANCH   4   5
HETATM    5  C   UNL     1      26.490   0.415  29.381  1.00  0.00     0.091 C 
BRANCH   5   6
HETATM    6  C   UNL     1      27.242   1.382  28.629  1.00  0.00     0.043 C 
BRANCH   6   7
HETATM    7  C   UNL     1      27.905   2.416  29.492  1.00  0.00    -0.092 C 
HETATM    8  C   UNL     1      27.260   3.011  30.493  1.00  0.00     0.014 C 
HETATM    9  C   UNL     1      29.255   2.781  29.129  1.00  0.00     0.042 C 
ENDBRANCH   6   7
ENDBRANCH   5   6
ENDBRANCH   4   5
ENDBRANCH   1   4
BRANCH   1  10
HETATM   10  O   UNL     1      26.649  -2.838  28.244  1.00  0.00    -0.188 OA
BRANCH  10  11
HETATM   11  P   UNL     1      27.540  -4.052  27.767  1.00  0.00     0.430 P 
HETATM   12  O   UNL     1      27.455  -4.114  26.268  1.00  0.00    -0.616 OA
HETATM   13  O   UNL     1      28.987  -3.781  28.221  1.00  0.00    -0.616 OA
HETATM   14  O   UNL     1      27.011  -5.352  28.264  1.00  0.00    -0.616 OA
ENDBRANCH  10  11
ENDBRANCH   1  10
TORSDOF 6
ENDMDL
MODEL 2
REMARK VINA RESULT:    -6.582      1.289      2.193
REMARK INTER + INTRA:          -9.172
REMARK INTER:                  -8.968
REMARK INTRA:                  -0.204
REMARK UNBOUND:                -0.281
REMARK  6 active torsions:
REMARK  status: ('A' for Active; 'I' for Inactive)
REMARK    1  A    between atoms: P_1  and  O_2 
REMARK    2  A    between atoms: O_2  and  P_3 
REMARK    3  A    between atoms: P_3  and  S_9 
REMARK    4  A    between atoms: S_9  and  C_10 
REMARK    5  A    between atoms: C_10  and  C_11 
REMARK    6  A    between atoms: C_11  and  C_12 
ROOT
HETATM    1  P   UNL     1      27.666  -1.960  29.002  1.00  0.00     0.326 P 
HETATM    2  O   UNL     1      28.482  -1.342  27.900  1.00  0.00    -0.638 OA
HETATM    3  O   UNL     1      28.153  -2.029  30.435  1.00  0.00    -0.638 OA
ENDROOT
BRANCH   1   4
HETATM    4  S   UNL     1      25.839  -0.996  29.132  1.00  0.00    -0.041 SA
BRANCH   4   5
HETATM    5  C   UNL     1      26.524   0.480  29.870  1.00  0.00     0.091 C 
BRANCH   5   6
HETATM    6  C   UNL     1      26.964   1.437  28.891  1.00  0.00     0.043 C 
BRANCH   6   7
HETATM    7  C   UNL     1      27.914   2.458  29.447  1.00  0.00    -0.092 C 
HETATM    8  C   UNL     1      29.154   2.588  28.980  1.00  0.00     0.014 C 
HETATM    9  C   UNL     1      27.431   3.240  30.562  1.00  0.00     0.042 C 
ENDBRANCH   6   7
ENDBRANCH   5   6
ENDBRANCH   4   5
ENDBRANCH   1   4
BRANCH   1  10
HETATM   10  O   UNL     1      27.198  -3.399  28.683  1.00  0.00    -0.188 OA
BRANCH  10  11
HETATM   11  P   UNL     1      27.672  -4.475  27.628  1.00  0.00     0.430 P 
HETATM   12  O   UNL     1      29.174  -4.472  27.620  1.00  0.00    -0.616 OA
HETATM   13  O   UNL     1      27.130  -5.846  28.077  1.00  0.00    -0.616 OA
HETATM   14  O   UNL     1      27.252  -4.113  26.246  1.00  0.00    -0.616 OA
ENDBRANCH  10  11
ENDBRANCH   1  10
TORSDOF 6
ENDMDL
MODEL 3
REMARK VINA RESULT:    -6.544      0.442      1.229
REMARK INTER + INTRA:          -9.120
REMARK INTER:                  -8.894
REMARK INTRA:                  -0.226
REMARK UNBOUND:                -0.281
REMARK  6 active torsions:
REMARK  status: ('A' for Active; 'I' for Inactive)
REMARK    1  A    between atoms: P_1  and  O_2 
REMARK    2  A    between atoms: O_2  and  P_3 
REMARK    3  A    between atoms: P_3  and  S_9 
REMARK    4  A    between atoms: S_9  and  C_10 
REMARK    5  A    between atoms: C_10  and  C_11 
REMARK    6  A    between atoms: C_11  and  C_12 
ROOT
HETATM    1  P   UNL     1      26.156  -2.256  29.619  1.00  0.00     0.326 P 
HETATM    2  O   UNL     1      26.134  -3.334  30.666  1.00  0.00    -0.638 OA
HETATM    3  O   UNL     1      24.937  -1.421  29.283  1.00  0.00    -0.638 OA
ENDROOT
BRANCH   1   4
HETATM    4  S   UNL     1      27.612  -0.862  30.092  1.00  0.00    -0.041 SA
BRANCH   4   5
HETATM    5  C   UNL     1      27.542  -0.058  28.497  1.00  0.00     0.091 C 
BRANCH   5   6
HETATM    6  C   UNL     1      26.945   1.249  28.560  1.00  0.00     0.043 C 
BRANCH   6   7
HETATM    7  C   UNL     1      27.746   2.226  29.372  1.00  0.00    -0.092 C 
HETATM    8  C   UNL     1      27.205   2.908  30.380  1.00  0.00     0.014 C 
HETATM    9  C   UNL     1      29.112   2.437  28.953  1.00  0.00     0.042 C 
ENDBRANCH   6   7
ENDBRANCH   5   6
ENDBRANCH   4   5
ENDBRANCH   1   4
BRANCH   1  10
HETATM   10  O   UNL     1      26.678  -2.747  28.247  1.00  0.00    -0.188 OA
BRANCH  10  11
HETATM   11  P   UNL     1      27.612  -3.945  27.819  1.00  0.00     0.430 P 
HETATM   12  O   UNL     1      27.081  -5.191  28.471  1.00  0.00    -0.616 OA
HETATM   13  O   UNL     1      27.552  -4.065  26.284  1.00  0.00    -0.616 OA
HETATM   14  O   UNL     1      29.000  -3.772  28.331  1.00  0.00    -0.616 OA
ENDBRANCH  10  11
ENDBRANCH   1  10
TORSDOF 6
ENDMDL
MODEL 4
REMARK VINA RESULT:    -6.477      1.109      1.788
REMARK INTER + INTRA:          -9.030
REMARK INTER:                  -8.848
REMARK INTRA:                  -0.182
REMARK UNBOUND:                -0.281
REMARK  6 active torsions:
REMARK  status: ('A' for Active; 'I' for Inactive)
REMARK    1  A    between atoms: P_1  and  O_2 
REMARK    2  A    between atoms: O_2  and  P_3 
REMARK    3  A    between atoms: P_3  and  S_9 
REMARK    4  A    between atoms: S_9  and  C_10 
REMARK    5  A    between atoms: C_10  and  C_11 
REMARK    6  A    between atoms: C_11  and  C_12 
ROOT
HETATM    1  P   UNL     1      27.423  -1.997  28.642  1.00  0.00     0.326 P 
HETATM    2  O   UNL     1      25.964  -2.352  28.555  1.00  0.00    -0.638 OA
HETATM    3  O   UNL     1      28.160  -1.296  27.518  1.00  0.00    -0.638 OA
ENDROOT
BRANCH   1   4
HETATM    4  S   UNL     1      27.743  -0.788  30.291  1.00  0.00    -0.041 SA
BRANCH   4   5
HETATM    5  C   UNL     1      26.538   0.433  29.791  1.00  0.00     0.091 C 
BRANCH   5   6
HETATM    6  C   UNL     1      27.057   1.362  28.825  1.00  0.00     0.043 C 
BRANCH   6   7
HETATM    7  C   UNL     1      27.928   2.423  29.434  1.00  0.00    -0.092 C 
HETATM    8  C   UNL     1      29.189   2.602  29.046  1.00  0.00     0.014 C 
HETATM    9  C   UNL     1      27.343   3.189  30.511  1.00  0.00     0.042 C 
ENDBRANCH   6   7
ENDBRANCH   5   6
ENDBRANCH   4   5
ENDBRANCH   1   4
BRANCH   1  10
HETATM   10  O   UNL     1      28.324  -3.202  29.003  1.00  0.00    -0.188 OA
BRANCH  10  11
HETATM   11  P   UNL     1      28.531  -4.625  28.348  1.00  0.00     0.430 P 
HETATM   12  O   UNL     1      28.136  -4.520  26.902  1.00  0.00    -0.616 OA
HETATM   13  O   UNL     1      30.021  -4.993  28.483  1.00  0.00    -0.616 OA
HETATM   14  O   UNL     1      27.627  -5.644  28.949  1.00  0.00    -0.616 OA
ENDBRANCH  10  11
ENDBRANCH   1  10
TORSDOF 6
ENDMDL
MODEL 5
REMARK VINA RESULT:    -6.361      1.056      1.992
REMARK INTER + INTRA:          -8.873
REMARK INTER:                  -8.648
REMARK INTRA:                  -0.226
REMARK UNBOUND:                -0.281
REMARK  6 active torsions:
REMARK  status: ('A' for Active; 'I' for Inactive)
REMARK    1  A    between atoms: P_1  and  O_2 
REMARK    2  A    between atoms: O_2  and  P_3 
REMARK    3  A    between atoms: P_3  and  S_9 
REMARK    4  A    between atoms: S_9  and  C_10 
REMARK    5  A    between atoms: C_10  and  C_11 
REMARK    6  A    between atoms: C_11  and  C_12 
ROOT
HETATM    1  P   UNL     1      26.848  -2.689  29.604  1.00  0.00     0.326 P 
HETATM    2  O   UNL     1      28.331  -2.504  29.771  1.00  0.00    -0.638 OA
HETATM    3  O   UNL     1      26.019  -3.526  30.557  1.00  0.00    -0.638 OA
ENDROOT
BRANCH   1   4
HETATM    4  S   UNL     1      25.916  -0.841  29.609  1.00  0.00    -0.041 SA
BRANCH   4   5
HETATM    5  C   UNL     1      27.376   0.039  29.070  1.00  0.00     0.091 C 
BRANCH   5   6
HETATM    6  C   UNL     1      27.093   1.393  28.677  1.00  0.00     0.043 C 
BRANCH   6   7
HETATM    7  C   UNL     1      27.948   2.405  29.384  1.00  0.00    -0.092 C 
HETATM    8  C   UNL     1      29.233   2.573  29.077  1.00  0.00     0.014 C 
HETATM    9  C   UNL     1      27.318   3.132  30.462  1.00  0.00     0.042 C 
ENDBRANCH   6   7
ENDBRANCH   5   6
ENDBRANCH   4   5
ENDBRANCH   1   4
BRANCH   1  10
HETATM   10  O   UNL     1      26.451  -3.197  28.198  1.00  0.00    -0.188 OA
BRANCH  10  11
HETATM   11  P   UNL     1      26.885  -4.453  27.345  1.00  0.00     0.430 P 
HETATM   12  O   UNL     1      26.913  -5.639  28.267  1.00  0.00    -0.616 OA
HETATM   13  O   UNL     1      25.839  -4.651  26.231  1.00  0.00    -0.616 OA
HETATM   14  O   UNL     1      28.270  -4.308  26.818  1.00  0.00    -0.616 OA
ENDBRANCH  10  11
ENDBRANCH   1  10
TORSDOF 6
ENDMDL
MODEL 6
REMARK VINA RESULT:    -6.237      1.380      2.965
REMARK INTER + INTRA:          -8.706
REMARK INTER:                  -8.305
REMARK INTRA:                  -0.401
REMARK UNBOUND:                -0.281
REMARK  6 active torsions:
REMARK  status: ('A' for Active; 'I' for Inactive)
REMARK    1  A    between atoms: P_1  and  O_2 
REMARK    2  A    between atoms: O_2  and  P_3 
REMARK    3  A    between atoms: P_3  and  S_9 
REMARK    4  A    between atoms: S_9  and  C_10 
REMARK    5  A    between atoms: C_10  and  C_11 
REMARK    6  A    between atoms: C_11  and  C_12 
ROOT
HETATM    1  P   UNL     1      27.465  -2.703  29.180  1.00  0.00     0.326 P 
HETATM    2  O   UNL     1      27.605  -2.519  27.694  1.00  0.00    -0.638 OA
HETATM    3  O   UNL     1      28.356  -3.637  29.974  1.00  0.00    -0.638 OA
ENDROOT
BRANCH   1   4
HETATM    4  S   UNL     1      27.676  -0.874  30.126  1.00  0.00    -0.041 SA
BRANCH   4   5
HETATM    5  C   UNL     1      27.689   0.058  28.600  1.00  0.00     0.091 C 
BRANCH   5   6
HETATM    6  C   UNL     1      27.037   1.333  28.724  1.00  0.00     0.043 C 
BRANCH   6   7
HETATM    7  C   UNL     1      27.885   2.368  29.406  1.00  0.00    -0.092 C 
HETATM    8  C   UNL     1      29.150   2.582  29.052  1.00  0.00     0.014 C 
HETATM    9  C   UNL     1      27.273   3.064  30.515  1.00  0.00     0.042 C 
ENDBRANCH   6   7
ENDBRANCH   5   6
ENDBRANCH   4   5
ENDBRANCH   1   4
BRANCH   1  10
HETATM   10  O   UNL     1      26.028  -3.076  29.616  1.00  0.00    -0.188 OA
BRANCH  10  11
HETATM   11  P   UNL     1      24.615  -2.887  28.936  1.00  0.00     0.430 P 
HETATM   12  O   UNL     1      23.588  -3.503  29.844  1.00  0.00    -0.616 OA
HETATM   13  O   UNL     1      24.366  -1.374  28.778  1.00  0.00    -0.616 OA
HETATM   14  O   UNL     1      24.521  -3.626  27.647  1.00  0.00    -0.616 OA
ENDBRANCH  10  11
ENDBRANCH   1  10
TORSDOF 6
ENDMDL
MODEL 7
REMARK VINA RESULT:    -5.789      1.052      1.639
REMARK INTER + INTRA:          -8.101
REMARK INTER:                  -7.744
REMARK INTRA:                  -0.357
REMARK UNBOUND:                -0.281
REMARK  6 active torsions:
REMARK  status: ('A' for Active; 'I' for Inactive)
REMARK    1  A    between atoms: P_1  and  O_2 
REMARK    2  A    between atoms: O_2  and  P_3 
REMARK    3  A    between atoms: P_3  and  S_9 
REMARK    4  A    between atoms: S_9  and  C_10 
REMARK    5  A    between atoms: C_10  and  C_11 
REMARK    6  A    between atoms: C_11  and  C_12 
ROOT
HETATM    1  P   UNL     1      25.750  -2.898  29.300  1.00  0.00     0.326 P 
HETATM    2  O   UNL     1      25.842  -3.495  30.678  1.00  0.00    -0.638 OA
HETATM    3  O   UNL     1      24.677  -3.300  28.308  1.00  0.00    -0.638 OA
ENDROOT
BRANCH   1   4
HETATM    4  S   UNL     1      25.559  -0.842  29.450  1.00  0.00    -0.041 SA
BRANCH   4   5
HETATM    5  C   UNL     1      27.322  -0.555  29.520  1.00  0.00     0.091 C 
BRANCH   5   6
HETATM    6  C   UNL     1      27.675   0.516  30.411  1.00  0.00     0.043 C 
BRANCH   6   7
HETATM    7  C   UNL     1      27.614   1.869  29.764  1.00  0.00    -0.092 C 
HETATM    8  C   UNL     1      27.186   2.943  30.424  1.00  0.00     0.014 C 
HETATM    9  C   UNL     1      27.978   1.925  28.366  1.00  0.00     0.042 C 
ENDBRANCH   6   7
ENDBRANCH   5   6
ENDBRANCH   4   5
ENDBRANCH   1   4
BRANCH   1  10
HETATM   10  O   UNL     1      27.071  -2.997  28.502  1.00  0.00    -0.188 OA
BRANCH  10  11
HETATM   11  P   UNL     1      27.806  -4.195  27.782  1.00  0.00     0.430 P 
HETATM   12  O   UNL     1      27.313  -5.470  28.406  1.00  0.00    -0.616 OA
HETATM   13  O   UNL     1      27.440  -4.142  26.286  1.00  0.00    -0.616 OA
HETATM   14  O   UNL     1      29.276  -4.162  28.019  1.00  0.00    -0.616 OA
ENDBRANCH  10  11
ENDBRANCH   1  10
TORSDOF 6
ENDMDL
MODEL 8
REMARK VINA RESULT:    -5.787      1.387      2.628
REMARK INTER + INTRA:          -8.097
REMARK INTER:                  -7.778
REMARK INTRA:                  -0.319
REMARK UNBOUND:                -0.281
REMARK  6 active torsions:
REMARK  status: ('A' for Active; 'I' for Inactive)
REMARK    1  A    between atoms: P_1  and  O_2 
REMARK    2  A    between atoms: O_2  and  P_3 
REMARK    3  A    between atoms: P_3  and  S_9 
REMARK    4  A    between atoms: S_9  and  C_10 
REMARK    5  A    between atoms: C_10  and  C_11 
REMARK    6  A    between atoms: C_11  and  C_12 
ROOT
HETATM    1  P   UNL     1      26.896  -2.381  28.930  1.00  0.00     0.326 P 
HETATM    2  O   UNL     1      25.417  -2.108  28.907  1.00  0.00    -0.638 OA
HETATM    3  O   UNL     1      27.732  -2.453  27.669  1.00  0.00    -0.638 OA
ENDROOT
BRANCH   1   4
HETATM    4  S   UNL     1      27.844  -0.951  30.088  1.00  0.00    -0.041 SA
BRANCH   4   5
HETATM    5  C   UNL     1      28.333   0.045  28.687  1.00  0.00     0.091 C 
BRANCH   5   6
HETATM    6  C   UNL     1      27.526   1.226  28.537  1.00  0.00     0.043 C 
BRANCH   6   7
HETATM    7  C   UNL     1      28.026   2.390  29.342  1.00  0.00    -0.092 C 
HETATM    8  C   UNL     1      29.259   2.868  29.190  1.00  0.00     0.014 C 
HETATM    9  C   UNL     1      27.121   2.913  30.339  1.00  0.00     0.042 C 
ENDBRANCH   6   7
ENDBRANCH   5   6
ENDBRANCH   4   5
ENDBRANCH   1   4
BRANCH   1  10
HETATM   10  O   UNL     1      27.268  -3.662  29.714  1.00  0.00    -0.188 OA
BRANCH  10  11
HETATM   11  P   UNL     1      26.423  -4.899  30.215  1.00  0.00     0.430 P 
HETATM   12  O   UNL     1      25.502  -4.412  31.297  1.00  0.00    -0.616 OA
HETATM   13  O   UNL     1      25.620  -5.438  29.015  1.00  0.00    -0.616 OA
HETATM   14  O   UNL     1      27.286  -5.936  30.845  1.00  0.00    -0.616 OA
ENDBRANCH  10  11
ENDBRANCH   1  10
TORSDOF 6
ENDMDL
MODEL 9
REMARK VINA RESULT:    -5.676      1.296      2.463
REMARK INTER + INTRA:          -7.947
REMARK INTER:                  -7.670
REMARK INTRA:                  -0.278
REMARK UNBOUND:                -0.281
REMARK  6 active torsions:
REMARK  status: ('A' for Active; 'I' for Inactive)
REMARK    1  A    between atoms: P_1  and  O_2 
REMARK    2  A    between atoms: O_2  and  P_3 
REMARK    3  A    between atoms: P_3  and  S_9 
REMARK    4  A    between atoms: S_9  and  C_10 
REMARK    5  A    between atoms: C_10  and  C_11 
REMARK    6  A    between atoms: C_11  and  C_12 
ROOT
HETATM    1  P   UNL     1      26.277  -2.415  29.164  1.00  0.00     0.326 P 
HETATM    2  O   UNL     1      24.919  -1.774  29.235  1.00  0.00    -0.638 OA
HETATM    3  O   UNL     1      26.852  -2.968  27.876  1.00  0.00    -0.638 OA
ENDROOT
BRANCH   1   4
HETATM    4  S   UNL     1      27.709  -1.075  29.826  1.00  0.00    -0.041 SA
BRANCH   4   5
HETATM    5  C   UNL     1      26.641   0.348  29.657  1.00  0.00     0.091 C 
BRANCH   5   6
HETATM    6  C   UNL     1      27.187   1.351  28.785  1.00  0.00     0.043 C 
BRANCH   6   7
HETATM    7  C   UNL     1      27.923   2.435  29.518  1.00  0.00    -0.092 C 
HETATM    8  C   UNL     1      27.337   3.160  30.469  1.00  0.00     0.014 C 
HETATM    9  C   UNL     1      29.277   2.694  29.085  1.00  0.00     0.042 C 
ENDBRANCH   6   7
ENDBRANCH   5   6
ENDBRANCH   4   5
ENDBRANCH   1   4
BRANCH   1  10
HETATM   10  O   UNL     1      26.468  -3.555  30.193  1.00  0.00    -0.188 OA
BRANCH  10  11
HETATM   11  P   UNL     1      25.728  -4.931  30.423  1.00  0.00     0.430 P 
HETATM   12  O   UNL     1      26.664  -6.027  29.997  1.00  0.00    -0.616 OA
HETATM   13  O   UNL     1      25.401  -5.045  31.925  1.00  0.00    -0.616 OA
HETATM   14  O   UNL     1      24.523  -5.060  29.559  1.00  0.00    -0.616 OA
ENDBRANCH  10  11
ENDBRANCH   1  10
TORSDOF 6
ENDMDL
MODEL 10
REMARK VINA RESULT:    -5.616      3.490      4.419
REMARK INTER + INTRA:          -7.867
REMARK INTER:                  -7.489
REMARK INTRA:                  -0.377
REMARK UNBOUND:                -0.281
REMARK  6 active torsions:
REMARK  status: ('A' for Active; 'I' for Inactive)
REMARK    1  A    between atoms: P_1  and  O_2 
REMARK    2  A    between atoms: O_2  and  P_3 
REMARK    3  A    between atoms: P_3  and  S_9 
REMARK    4  A    between atoms: S_9  and  C_10 
REMARK    5  A    between atoms: C_10  and  C_11 
REMARK    6  A    between atoms: C_11  and  C_12 
ROOT
HETATM    1  P   UNL     1      27.460  -1.679  28.805  1.00  0.00     0.326 P 
HETATM    2  O   UNL     1      27.985  -0.943  27.603  1.00  0.00    -0.638 OA
HETATM    3  O   UNL     1      28.227  -1.764  30.108  1.00  0.00    -0.638 OA
ENDROOT
BRANCH   1   4
HETATM    4  S   UNL     1      25.623  -0.894  29.347  1.00  0.00    -0.041 SA
BRANCH   4   5
HETATM    5  C   UNL     1      24.904  -2.489  29.711  1.00  0.00     0.091 C 
BRANCH   5   6
HETATM    6  C   UNL     1      23.490  -2.416  29.963  1.00  0.00     0.043 C 
BRANCH   6   7
HETATM    7  C   UNL     1      22.665  -2.415  28.709  1.00  0.00    -0.092 C 
HETATM    8  C   UNL     1      22.928  -3.239  27.697  1.00  0.00     0.014 C 
HETATM    9  C   UNL     1      21.617  -1.423  28.634  1.00  0.00     0.042 C 
ENDBRANCH   6   7
ENDBRANCH   5   6
ENDBRANCH   4   5
ENDBRANCH   1   4
BRANCH   1  10
HETATM   10  O   UNL     1      27.056  -3.141  28.498  1.00  0.00    -0.188 OA
BRANCH  10  11
HETATM   11  P   UNL     1      27.766  -4.309  27.706  1.00  0.00     0.430 P 
HETATM   12  O   UNL     1      27.497  -4.094  26.243  1.00  0.00    -0.616 OA
HETATM   13  O   UNL     1      29.276  -4.229  28.002  1.00  0.00    -0.616 OA
HETATM   14  O   UNL     1      27.181  -5.636  28.042  1.00  0.00    -0.616 OA
ENDBRANCH  10  11
ENDBRANCH   1  10
TORSDOF 6
ENDMDL
MODEL 11
REMARK VINA RESULT:    -5.580      4.727      5.967
REMARK INTER + INTRA:          -7.818
REMARK INTER:                  -7.655
REMARK INTRA:                  -0.164
REMARK UNBOUND:                -0.281
REMARK  6 active torsions:
REMARK  status: ('A' for Active; 'I' for Inactive)
REMARK    1  A    between atoms: P_1  and  O_2 
REMARK    2  A    between atoms: O_2  and  P_3 
REMARK    3  A    between atoms: P_3  and  S_9 
REMARK    4  A    between atoms: S_9  and  C_10 
REMARK    5  A    between atoms: C_10  and  C_11 
REMARK    6  A    between atoms: C_11  and  C_12 
ROOT
HETATM    1  P   UNL     1      27.624  -3.545  28.041  1.00  0.00     0.326 P 
HETATM    2  O   UNL     1      28.435  -4.161  29.148  1.00  0.00    -0.638 OA
HETATM    3  O   UNL     1      27.505  -4.177  26.670  1.00  0.00    -0.638 OA
ENDROOT
BRANCH   1   4
HETATM    4  S   UNL     1      25.664  -3.316  28.667  1.00  0.00    -0.041 SA
BRANCH   4   5
HETATM    5  C   UNL     1      25.006  -4.439  27.441  1.00  0.00     0.091 C 
BRANCH   5   6
HETATM    6  C   UNL     1      23.767  -3.979  26.876  1.00  0.00     0.043 C 
BRANCH   6   7
HETATM    7  C   UNL     1      22.560  -4.629  27.487  1.00  0.00    -0.092 C 
HETATM    8  C   UNL     1      22.157  -5.843  27.119  1.00  0.00     0.014 C 
HETATM    9  C   UNL     1      21.821  -3.834  28.441  1.00  0.00     0.042 C 
ENDBRANCH   6   7
ENDBRANCH   5   6
ENDBRANCH   4   5
ENDBRANCH   1   4
BRANCH   1  10
HETATM   10  O   UNL     1      27.998  -2.071  27.758  1.00  0.00    -0.188 OA
BRANCH  10  11
HETATM   11  P   UNL     1      28.006  -0.772  28.655  1.00  0.00     0.430 P 
HETATM   12  O   UNL     1      26.717  -0.041  28.408  1.00  0.00    -0.616 OA
HETATM   13  O   UNL     1      28.109  -1.217  30.127  1.00  0.00    -0.616 OA
HETATM   14  O   UNL     1      29.094   0.165  28.258  1.00  0.00    -0.616 OA
ENDBRANCH  10  11
ENDBRANCH   1  10
TORSDOF 6
ENDMDL
MODEL 12
REMARK VINA RESULT:    -5.572      4.762      6.014
REMARK INTER + INTRA:          -7.807
REMARK INTER:                  -7.646
REMARK INTRA:                  -0.161
REMARK UNBOUND:                -0.281
REMARK  6 active torsions:
REMARK  status: ('A' for Active; 'I' for Inactive)
REMARK    1  A    between atoms: P_1  and  O_2 
REMARK    2  A    between atoms: O_2  and  P_3 
REMARK    3  A    between atoms: P_3  and  S_9 
REMARK    4  A    between atoms: S_9  and  C_10 
REMARK    5  A    between atoms: C_10  and  C_11 
REMARK    6  A    between atoms: C_11  and  C_12 
ROOT
HETATM    1  P   UNL     1      27.605  -3.666  28.024  1.00  0.00     0.326 P 
HETATM    2  O   UNL     1      28.543  -4.152  29.095  1.00  0.00    -0.638 OA
HETATM    3  O   UNL     1      27.571  -4.269  26.635  1.00  0.00    -0.638 OA
ENDROOT
BRANCH   1   4
HETATM    4  S   UNL     1      25.652  -3.824  28.694  1.00  0.00    -0.041 SA
BRANCH   4   5
HETATM    5  C   UNL     1      25.029  -4.429  27.131  1.00  0.00     0.091 C 
BRANCH   5   6
HETATM    6  C   UNL     1      23.723  -3.916  26.819  1.00  0.00     0.043 C 
BRANCH   6   7
HETATM    7  C   UNL     1      22.610  -4.743  27.394  1.00  0.00    -0.092 C 
HETATM    8  C   UNL     1      22.347  -5.970  26.948  1.00  0.00     0.014 C 
HETATM    9  C   UNL     1      21.798  -4.107  28.405  1.00  0.00     0.042 C 
ENDBRANCH   6   7
ENDBRANCH   5   6
ENDBRANCH   4   5
ENDBRANCH   1   4
BRANCH   1  10
HETATM   10  O   UNL     1      27.692  -2.141  27.782  1.00  0.00    -0.188 OA
BRANCH  10  11
HETATM   11  P   UNL     1      27.787  -0.901  28.756  1.00  0.00     0.430 P 
HETATM   12  O   UNL     1      28.008  -1.431  30.145  1.00  0.00    -0.616 OA
HETATM   13  O   UNL     1      28.980  -0.037  28.304  1.00  0.00    -0.616 OA
HETATM   14  O   UNL     1      26.509  -0.140  28.805  1.00  0.00    -0.616 OA
ENDBRANCH  10  11
ENDBRANCH   1  10
TORSDOF 6
ENDMDL
MODEL 13
REMARK VINA RESULT:    -5.560      2.083      3.159
REMARK INTER + INTRA:          -7.791
REMARK INTER:                  -7.539
REMARK INTRA:                  -0.252
REMARK UNBOUND:                -0.281
REMARK  6 active torsions:
REMARK  status: ('A' for Active; 'I' for Inactive)
REMARK    1  A    between atoms: P_1  and  O_2 
REMARK    2  A    between atoms: O_2  and  P_3 
REMARK    3  A    between atoms: P_3  and  S_9 
REMARK    4  A    between atoms: S_9  and  C_10 
REMARK    5  A    between atoms: C_10  and  C_11 
REMARK    6  A    between atoms: C_11  and  C_12 
ROOT
HETATM    1  P   UNL     1      27.689  -3.914  28.084  1.00  0.00     0.326 P 
HETATM    2  O   UNL     1      27.483  -4.214  26.625  1.00  0.00    -0.638 OA
HETATM    3  O   UNL     1      28.814  -3.032  28.584  1.00  0.00    -0.638 OA
ENDROOT
BRANCH   1   4
HETATM    4  S   UNL     1      25.978  -3.042  28.858  1.00  0.00    -0.041 SA
BRANCH   4   5
HETATM    5  C   UNL     1      26.865  -1.727  29.681  1.00  0.00     0.091 C 
BRANCH   5   6
HETATM    6  C   UNL     1      26.163  -0.473  29.639  1.00  0.00     0.043 C 
BRANCH   6   7
HETATM    7  C   UNL     1      26.939   0.616  28.956  1.00  0.00    -0.092 C 
HETATM    8  C   UNL     1      27.749   0.361  27.932  1.00  0.00     0.014 C 
HETATM    9  C   UNL     1      26.811   1.940  29.520  1.00  0.00     0.042 C 
ENDBRANCH   6   7
ENDBRANCH   5   6
ENDBRANCH   4   5
ENDBRANCH   1   4
BRANCH   1  10
HETATM   10  O   UNL     1      27.774  -5.185  28.963  1.00  0.00    -0.188 OA
BRANCH  10  11
HETATM   11  P   UNL     1      28.987  -6.007  29.549  1.00  0.00     0.430 P 
HETATM   12  O   UNL     1      30.176  -5.756  28.665  1.00  0.00    -0.616 OA
HETATM   13  O   UNL     1      29.254  -5.499  30.979  1.00  0.00    -0.616 OA
HETATM   14  O   UNL     1      28.736  -7.474  29.495  1.00  0.00    -0.616 OA
ENDBRANCH  10  11
ENDBRANCH   1  10
TORSDOF 6
ENDMDL
MODEL 14
REMARK VINA RESULT:    -5.451      4.264      5.912
REMARK INTER + INTRA:          -7.644
REMARK INTER:                  -7.322
REMARK INTRA:                  -0.323
REMARK UNBOUND:                -0.281
REMARK  6 active torsions:
REMARK  status: ('A' for Active; 'I' for Inactive)
REMARK    1  A    between atoms: P_1  and  O_2 
REMARK    2  A    between atoms: O_2  and  P_3 
REMARK    3  A    between atoms: P_3  and  S_9 
REMARK    4  A    between atoms: S_9  and  C_10 
REMARK    5  A    between atoms: C_10  and  C_11 
REMARK    6  A    between atoms: C_11  and  C_12 
ROOT
HETATM    1  P   UNL     1      27.704  -3.680  28.007  1.00  0.00     0.326 P 
HETATM    2  O   UNL     1      28.889  -4.140  28.810  1.00  0.00    -0.638 OA
HETATM    3  O   UNL     1      27.364  -4.259  26.649  1.00  0.00    -0.638 OA
ENDROOT
BRANCH   1   4
HETATM    4  S   UNL     1      25.976  -3.939  29.117  1.00  0.00    -0.041 SA
BRANCH   4   5
HETATM    5  C   UNL     1      24.889  -3.511  27.764  1.00  0.00     0.091 C 
BRANCH   5   6
HETATM    6  C   UNL     1      23.516  -3.848  28.027  1.00  0.00     0.043 C 
BRANCH   6   7
HETATM    7  C   UNL     1      22.986  -4.921  27.121  1.00  0.00    -0.092 C 
HETATM    8  C   UNL     1      21.881  -5.603  27.414  1.00  0.00     0.014 C 
HETATM    9  C   UNL     1      23.782  -5.221  25.952  1.00  0.00     0.042 C 
ENDBRANCH   6   7
ENDBRANCH   5   6
ENDBRANCH   4   5
ENDBRANCH   1   4
BRANCH   1  10
HETATM   10  O   UNL     1      27.668  -2.147  27.794  1.00  0.00    -0.188 OA
BRANCH  10  11
HETATM   11  P   UNL     1      27.807  -0.921  28.779  1.00  0.00     0.430 P 
HETATM   12  O   UNL     1      28.912  -0.045  28.261  1.00  0.00    -0.616 OA
HETATM   13  O   UNL     1      26.465  -0.164  28.781  1.00  0.00    -0.616 OA
HETATM   14  O   UNL     1      28.228  -1.353  30.140  1.00  0.00    -0.616 OA
ENDBRANCH  10  11
ENDBRANCH   1  10
TORSDOF 6
ENDMDL
MODEL 15
REMARK VINA RESULT:    -5.429      2.079      3.195
REMARK INTER + INTRA:          -7.614
REMARK INTER:                  -7.358
REMARK INTRA:                  -0.256
REMARK UNBOUND:                -0.281
REMARK  6 active torsions:
REMARK  status: ('A' for Active; 'I' for Inactive)
REMARK    1  A    between atoms: P_1  and  O_2 
REMARK    2  A    between atoms: O_2  and  P_3 
REMARK    3  A    between atoms: P_3  and  S_9 
REMARK    4  A    between atoms: S_9  and  C_10 
REMARK    5  A    between atoms: C_10  and  C_11 
REMARK    6  A    between atoms: C_11  and  C_12 
ROOT
HETATM    1  P   UNL     1      27.105  -4.253  27.905  1.00  0.00     0.326 P 
HETATM    2  O   UNL     1      27.945  -4.123  26.664  1.00  0.00    -0.638 OA
HETATM    3  O   UNL     1      26.973  -5.556  28.666  1.00  0.00    -0.638 OA
ENDROOT
BRANCH   1   4
HETATM    4  S   UNL     1      27.759  -2.898  29.327  1.00  0.00    -0.041 SA
BRANCH   4   5
HETATM    5  C   UNL     1      27.761  -1.515  28.194  1.00  0.00     0.091 C 
BRANCH   5   6
HETATM    6  C   UNL     1      28.533  -0.403  28.678  1.00  0.00     0.043 C 
BRANCH   6   7
HETATM    7  C   UNL     1      27.743   0.870  28.770  1.00  0.00    -0.092 C 
HETATM    8  C   UNL     1      26.424   0.890  28.592  1.00  0.00     0.014 C 
HETATM    9  C   UNL     1      28.503   2.079  28.991  1.00  0.00     0.042 C 
ENDBRANCH   6   7
ENDBRANCH   5   6
ENDBRANCH   4   5
ENDBRANCH   1   4
BRANCH   1  10
HETATM   10  O   UNL     1      25.649  -3.769  27.710  1.00  0.00    -0.188 OA
BRANCH  10  11
HETATM   11  P   UNL     1      24.426  -4.342  26.891  1.00  0.00     0.430 P 
HETATM   12  O   UNL     1      23.292  -3.364  27.024  1.00  0.00    -0.616 OA
HETATM   13  O   UNL     1      24.864  -4.474  25.420  1.00  0.00    -0.616 OA
HETATM   14  O   UNL     1      23.932  -5.624  27.464  1.00  0.00    -0.616 OA
ENDBRANCH  10  11
ENDBRANCH   1  10
TORSDOF 6
ENDMDL
MODEL 16
REMARK VINA RESULT:    -5.423      4.002      5.264
REMARK INTER + INTRA:          -7.607
REMARK INTER:                  -7.273
REMARK INTRA:                  -0.334
REMARK UNBOUND:                -0.281
REMARK  6 active torsions:
REMARK  status: ('A' for Active; 'I' for Inactive)
REMARK    1  A    between atoms: P_1  and  O_2 
REMARK    2  A    between atoms: O_2  and  P_3 
REMARK    3  A    between atoms: P_3  and  S_9 
REMARK    4  A    between atoms: S_9  and  C_10 
REMARK    5  A    between atoms: C_10  and  C_11 
REMARK    6  A    between atoms: C_11  and  C_12 
ROOT
HETATM    1  P   UNL     1      26.166  -1.896  29.445  1.00  0.00     0.326 P 
HETATM    2  O   UNL     1      25.842  -0.446  29.215  1.00  0.00    -0.638 OA
HETATM    3  O   UNL     1      27.176  -2.352  30.478  1.00  0.00    -0.638 OA
ENDROOT
BRANCH   1   4
HETATM    4  S   UNL     1      24.437  -2.922  29.939  1.00  0.00    -0.041 SA
BRANCH   4   5
HETATM    5  C   UNL     1      23.700  -2.714  28.324  1.00  0.00     0.091 C 
BRANCH   5   6
HETATM    6  C   UNL     1      22.505  -3.496  28.155  1.00  0.00     0.043 C 
BRANCH   6   7
HETATM    7  C   UNL     1      22.696  -4.681  27.254  1.00  0.00    -0.092 C 
HETATM    8  C   UNL     1      21.927  -5.764  27.347  1.00  0.00     0.014 C 
HETATM    9  C   UNL     1      23.806  -4.610  26.331  1.00  0.00     0.042 C 
ENDBRANCH   6   7
ENDBRANCH   5   6
ENDBRANCH   4   5
ENDBRANCH   1   4
BRANCH   1  10
HETATM   10  O   UNL     1      26.571  -2.644  28.152  1.00  0.00    -0.188 OA
BRANCH  10  11
HETATM   11  P   UNL     1      27.476  -3.909  27.880  1.00  0.00     0.430 P 
HETATM   12  O   UNL     1      27.385  -4.226  26.414  1.00  0.00    -0.616 OA
HETATM   13  O   UNL     1      28.922  -3.548  28.272  1.00  0.00    -0.616 OA
HETATM   14  O   UNL     1      26.968  -5.113  28.594  1.00  0.00    -0.616 OA
ENDBRANCH  10  11
ENDBRANCH   1  10
TORSDOF 6
ENDMDL
MODEL 17
REMARK VINA RESULT:    -5.410      3.922      5.347
REMARK INTER + INTRA:          -7.588
REMARK INTER:                  -7.214
REMARK INTRA:                  -0.374
REMARK UNBOUND:                -0.281
REMARK  6 active torsions:
REMARK  status: ('A' for Active; 'I' for Inactive)
REMARK    1  A    between atoms: P_1  and  O_2 
REMARK    2  A    between atoms: O_2  and  P_3 
REMARK    3  A    between atoms: P_3  and  S_9 
REMARK    4  A    between atoms: S_9  and  C_10 
REMARK    5  A    between atoms: C_10  and  C_11 
REMARK    6  A    between atoms: C_11  and  C_12 
ROOT
HETATM    1  P   UNL     1      27.354  -2.862  29.212  1.00  0.00     0.326 P 
HETATM    2  O   UNL     1      28.487  -3.577  29.895  1.00  0.00    -0.638 OA
HETATM    3  O   UNL     1      27.326  -2.621  27.717  1.00  0.00    -0.638 OA
ENDROOT
BRANCH   1   4
HETATM    4  S   UNL     1      25.578  -3.851  29.602  1.00  0.00    -0.041 SA
BRANCH   4   5
HETATM    5  C   UNL     1      24.638  -2.896  28.419  1.00  0.00     0.091 C 
BRANCH   5   6
HETATM    6  C   UNL     1      23.677  -2.029  29.045  1.00  0.00     0.043 C 
BRANCH   6   7
HETATM    7  C   UNL     1      22.255  -2.393  28.726  1.00  0.00    -0.092 C 
HETATM    8  C   UNL     1      21.892  -3.651  28.486  1.00  0.00     0.014 C 
HETATM    9  C   UNL     1      21.322  -1.295  28.624  1.00  0.00     0.042 C 
ENDBRANCH   6   7
ENDBRANCH   5   6
ENDBRANCH   4   5
ENDBRANCH   1   4
BRANCH   1  10
HETATM   10  O   UNL     1      27.043  -1.479  29.832  1.00  0.00    -0.188 OA
BRANCH  10  11
HETATM   11  P   UNL     1      27.435  -0.005  29.425  1.00  0.00     0.430 P 
HETATM   12  O   UNL     1      27.455   0.823  30.679  1.00  0.00    -0.616 OA
HETATM   13  O   UNL     1      28.832  -0.050  28.777  1.00  0.00    -0.616 OA
HETATM   14  O   UNL     1      26.409   0.613  28.540  1.00  0.00    -0.616 OA
ENDBRANCH  10  11
ENDBRANCH   1  10
TORSDOF 6
ENDMDL
MODEL 18
REMARK VINA RESULT:    -5.302      4.585      5.748
REMARK INTER + INTRA:          -7.443
REMARK INTER:                  -7.089
REMARK INTRA:                  -0.354
REMARK UNBOUND:                -0.281
REMARK  6 active torsions:
REMARK  status: ('A' for Active; 'I' for Inactive)
REMARK    1  A    between atoms: P_1  and  O_2 
REMARK    2  A    between atoms: O_2  and  P_3 
REMARK    3  A    between atoms: P_3  and  S_9 
REMARK    4  A    between atoms: S_9  and  C_10 
REMARK    5  A    between atoms: C_10  and  C_11 
REMARK    6  A    between atoms: C_11  and  C_12 
ROOT
HETATM    1  P   UNL     1      25.397  -2.769  29.687  1.00  0.00     0.326 P 
HETATM    2  O   UNL     1      25.459  -1.270  29.582  1.00  0.00    -0.638 OA
HETATM    3  O   UNL     1      25.890  -3.522  30.905  1.00  0.00    -0.638 OA
ENDROOT
BRANCH   1   4
HETATM    4  S   UNL     1      23.437  -3.396  29.460  1.00  0.00    -0.041 SA
BRANCH   4   5
HETATM    5  C   UNL     1      23.556  -3.551  27.684  1.00  0.00     0.091 C 
BRANCH   5   6
HETATM    6  C   UNL     1      22.827  -4.681  27.175  1.00  0.00     0.043 C 
BRANCH   6   7
HETATM    7  C   UNL     1      23.529  -5.378  26.046  1.00  0.00    -0.092 C 
HETATM    8  C   UNL     1      24.375  -4.735  25.243  1.00  0.00     0.014 C 
HETATM    9  C   UNL     1      23.181  -6.765  25.836  1.00  0.00     0.042 C 
ENDBRANCH   6   7
ENDBRANCH   5   6
ENDBRANCH   4   5
ENDBRANCH   1   4
BRANCH   1  10
HETATM   10  O   UNL     1      26.059  -3.492  28.490  1.00  0.00    -0.188 OA
BRANCH  10  11
HETATM   11  P   UNL     1      27.533  -3.506  27.924  1.00  0.00     0.430 P 
HETATM   12  O   UNL     1      27.923  -2.083  27.639  1.00  0.00    -0.616 OA
HETATM   13  O   UNL     1      28.447  -4.117  29.004  1.00  0.00    -0.616 OA
HETATM   14  O   UNL     1      27.616  -4.225  26.622  1.00  0.00    -0.616 OA
ENDBRANCH  10  11
ENDBRANCH   1  10
TORSDOF 6
ENDMDL
MODEL 19
REMARK VINA RESULT:    -5.132      3.770      5.133
REMARK INTER + INTRA:          -7.213
REMARK INTER:                  -6.919
REMARK INTRA:                  -0.294
REMARK UNBOUND:                -0.281
REMARK  6 active torsions:
REMARK  status: ('A' for Active; 'I' for Inactive)
REMARK    1  A    between atoms: P_1  and  O_2 
REMARK    2  A    between atoms: O_2  and  P_3 
REMARK    3  A    between atoms: P_3  and  S_9 
REMARK    4  A    between atoms: S_9  and  C_10 
REMARK    5  A    between atoms: C_10  and  C_11 
REMARK    6  A    between atoms: C_11  and  C_12 
ROOT
HETATM    1  P   UNL     1      27.398  -2.448  29.455  1.00  0.00     0.326 P 
HETATM    2  O   UNL     1      27.215  -1.647  28.196  1.00  0.00    -0.638 OA
HETATM    3  O   UNL     1      27.854  -1.825  30.759  1.00  0.00    -0.638 OA
ENDROOT
BRANCH   1   4
HETATM    4  S   UNL     1      25.619  -3.392  29.938  1.00  0.00    -0.041 SA
BRANCH   4   5
HETATM    5  C   UNL     1      24.740  -2.737  28.526  1.00  0.00     0.091 C 
BRANCH   5   6
HETATM    6  C   UNL     1      24.345  -3.759  27.596  1.00  0.00     0.043 C 
BRANCH   6   7
HETATM    7  C   UNL     1      22.890  -4.117  27.692  1.00  0.00    -0.092 C 
HETATM    8  C   UNL     1      22.036  -3.388  28.406  1.00  0.00     0.014 C 
HETATM    9  C   UNL     1      22.487  -5.335  27.028  1.00  0.00     0.042 C 
ENDBRANCH   6   7
ENDBRANCH   5   6
ENDBRANCH   4   5
ENDBRANCH   1   4
BRANCH   1  10
HETATM   10  O   UNL     1      28.321  -3.676  29.269  1.00  0.00    -0.188 OA
BRANCH  10  11
HETATM   11  P   UNL     1      28.463  -4.751  28.120  1.00  0.00     0.430 P 
HETATM   12  O   UNL     1      29.929  -5.004  27.914  1.00  0.00    -0.616 OA
HETATM   13  O   UNL     1      27.746  -6.034  28.584  1.00  0.00    -0.616 OA
HETATM   14  O   UNL     1      27.947  -4.239  26.821  1.00  0.00    -0.616 OA
ENDBRANCH  10  11
ENDBRANCH   1  10
TORSDOF 6
ENDMDL
MODEL 20
REMARK VINA RESULT:    -5.017      3.996      5.485
REMARK INTER + INTRA:          -7.058
REMARK INTER:                  -6.757
REMARK INTRA:                  -0.302
REMARK UNBOUND:                -0.281
REMARK  6 active torsions:
REMARK  status: ('A' for Active; 'I' for Inactive)
REMARK    1  A    between atoms: P_1  and  O_2 
REMARK    2  A    between atoms: O_2  and  P_3 
REMARK    3  A    between atoms: P_3  and  S_9 
REMARK    4  A    between atoms: S_9  and  C_10 
REMARK    5  A    between atoms: C_10  and  C_11 
REMARK    6  A    between atoms: C_11  and  C_12 
ROOT
HETATM    1  P   UNL     1      27.803  -3.618  28.020  1.00  0.00     0.326 P 
HETATM    2  O   UNL     1      27.583  -4.259  26.678  1.00  0.00    -0.638 OA
HETATM    3  O   UNL     1      28.052  -2.132  28.183  1.00  0.00    -0.638 OA
ENDROOT
BRANCH   1   4
HETATM    4  S   UNL     1      26.175  -3.996  29.242  1.00  0.00    -0.041 SA
BRANCH   4   5
HETATM    5  C   UNL     1      25.061  -2.971  28.292  1.00  0.00     0.091 C 
BRANCH   5   6
HETATM    6  C   UNL     1      23.696  -3.415  28.371  1.00  0.00     0.043 C 
BRANCH   6   7
HETATM    7  C   UNL     1      23.308  -4.336  27.250  1.00  0.00    -0.092 C 
HETATM    8  C   UNL     1      23.994  -4.380  26.110  1.00  0.00     0.014 C 
HETATM    9  C   UNL     1      22.108  -5.116  27.450  1.00  0.00     0.042 C 
ENDBRANCH   6   7
ENDBRANCH   5   6
ENDBRANCH   4   5
ENDBRANCH   1   4
BRANCH   1  10
HETATM   10  O   UNL     1      28.928  -4.291  28.842  1.00  0.00    -0.188 OA
BRANCH  10  11
HETATM   11  P   UNL     1      29.537  -5.748  28.839  1.00  0.00     0.430 P 
HETATM   12  O   UNL     1      28.419  -6.707  28.539  1.00  0.00    -0.616 OA
HETATM   13  O   UNL     1      30.615  -5.806  27.739  1.00  0.00    -0.616 OA
HETATM   14  O   UNL     1      30.059  -6.130  30.180  1.00  0.00    -0.616 OA
ENDBRANCH  10  11
ENDBRANCH   1  10
TORSDOF 6
ENDMDL
