MODEL 1
REMARK VINA RESULT:    -6.795      0.000      0.000
REMARK INTER + INTRA:         -16.309
REMARK INTER:                 -13.151
REMARK INTRA:                  -3.158
REMARK UNBOUND:                -3.158
REMARK  22 active torsions:
REMARK  status: ('A' for Active; 'I' for Inactive)
REMARK    1  A    between atoms: C_1  and  O_9 
REMARK    2  A    between atoms: C_2  and  O_47 
REMARK    3  A    between atoms: C_3  and  O_49 
REMARK    4  A    between atoms: C_4  and  O_7 
REMARK    5  A    between atoms: C_5  and  C_6 
REMARK    6  A    between atoms: C_6  and  N_11 
REMARK    7  A    between atoms: O_9  and  C_24 
REMARK    8  A    between atoms: C_15  and  N_16 
REMARK       I    between atoms: N_16  and  C_55 
REMARK    9  A    between atoms: C_19  and  N_20 
REMARK   10  A    between atoms: C_25  and  O_26 
REMARK   11  A    between atoms: C_28  and  O_29 
REMARK   12  A    between atoms: O_29  and  C_30 
REMARK   13  A    between atoms: C_31  and  O_32 
REMARK   14  A    between atoms: C_34  and  N_35 
REMARK   15  A    between atoms: C_39  and  O_40 
REMARK   16  A    between atoms: C_42  and  C_44 
REMARK   17  A    between atoms: C_44  and  O_45 
REMARK   18  A    between atoms: N_51  and  C_59 
REMARK   19  A    between atoms: C_55  and  C_57 
REMARK   20  A    between atoms: C_57  and  C_58 
REMARK   21  A    between atoms: C_57  and  O_60 
REMARK   22  A    between atoms: C_58  and  C_59 
ROOT
HETATM    1  C   UNL     1      91.887   9.041  32.904  1.00  0.00     0.118 C 
HETATM    2  C   UNL     1      91.513   9.473  34.323  1.00  0.00     0.063 C 
HETATM    3  C   UNL     1      91.649   8.287  35.295  1.00  0.00     0.217 C 
HETATM    4  C   UNL     1      93.063   7.699  35.259  1.00  0.00     0.186 C 
HETATM    5  C   UNL     1      93.395   7.255  33.826  1.00  0.00     0.180 C 
HETATM    6  C   UNL     1      93.290   8.425  32.828  1.00  0.00     0.178 C 
ENDROOT
BRANCH   4   7
HETATM    7  O   UNL     1      93.003   6.621  36.205  1.00  0.00    -0.349 OA
BRANCH   7   8
HETATM    8  C   UNL     1      94.107   6.340  36.990  1.00  0.00     0.292 C 
HETATM    9  C   UNL     1      94.087   4.844  37.267  1.00  0.00     0.204 C 
HETATM   10  C   UNL     1      92.880   4.491  38.066  1.00  0.00     0.183 C 
HETATM   11  C   UNL     1      92.863   5.220  39.374  1.00  0.00     0.180 C 
HETATM   12  C   UNL     1      92.933   6.728  39.136  1.00  0.00     0.181 C 
HETATM   13  O   UNL     1      94.074   7.076  38.285  1.00  0.00    -0.349 OA
BRANCH   9  14
HETATM   14  O   UNL     1      94.062   4.162  36.007  1.00  0.00    -0.388 OA
ATOM     15  HO  UNL     1      94.620   4.639  35.404  1.00  0.00     0.210 HD
ENDBRANCH   9  14
BRANCH  10  16
HETATM   16  O   UNL     1      92.912   3.067  38.299  1.00  0.00    -0.390 OA
ATOM     17  HO  UNL     1      92.327   2.882  39.023  1.00  0.00     0.210 HD
ENDBRANCH  10  16
BRANCH  11  18
HETATM   18  O   UNL     1      91.640   4.967  40.074  1.00  0.00    -0.390 OA
ATOM     19  HO  UNL     1      91.011   4.670  39.428  1.00  0.00     0.210 HD
ENDBRANCH  11  18
BRANCH  12  20
HETATM   20  C   UNL     1      93.098   7.465  40.428  1.00  0.00     0.264 C 
BRANCH  20  21
HETATM   21  N   UNL     1      94.506   7.488  40.787  1.00  0.00    -0.077 N 
ATOM     22  HN3 UNL     1      94.648   7.446  41.797  1.00  0.00     0.274 HD
ATOM     23  HN2 UNL     1      94.984   6.622  40.538  1.00  0.00     0.274 HD
ATOM     24  HN1 UNL     1      94.945   8.308  40.369  1.00  0.00     0.274 HD
ENDBRANCH  20  21
ENDBRANCH  12  20
ENDBRANCH   7   8
ENDBRANCH   4   7
BRANCH   3  25
HETATM   25  N   UNL     1      91.289   8.702  36.655  1.00  0.00    -0.072 N 
ATOM     26  HN3 UNL     1      92.032   9.243  37.098  1.00  0.00     0.274 HD
ATOM     27  HN2 UNL     1      90.562   9.418  36.655  1.00  0.00     0.274 HD
ATOM     28  HN1 UNL     1      91.024   7.891  37.212  1.00  0.00     0.274 HD
ENDBRANCH   3  25
BRANCH   5  29
HETATM   29  O   UNL     1      94.706   6.755  33.707  1.00  0.00    -0.390 OA
ATOM     30  HO  UNL     1      95.094   7.204  32.966  1.00  0.00     0.210 HD
ENDBRANCH   5  29
BRANCH   6  31
HETATM   31  O   UNL     1      93.526   7.898  31.530  1.00  0.00    -0.349 OA
BRANCH  31  32
HETATM   32  C   UNL     1      94.661   8.376  30.913  1.00  0.00     0.291 C 
HETATM   33  C   UNL     1      94.383   8.602  29.439  1.00  0.00     0.206 C 
HETATM   34  C   UNL     1      94.134   7.311  28.722  1.00  0.00     0.247 C 
HETATM   35  C   UNL     1      95.323   6.396  28.877  1.00  0.00     0.182 C 
HETATM   36  C   UNL     1      95.588   6.141  30.357  1.00  0.00     0.179 C 
HETATM   37  O   UNL     1      95.794   7.402  31.096  1.00  0.00    -0.349 OA
BRANCH  33  38
HETATM   38  O   UNL     1      93.242   9.472  29.306  1.00  0.00    -0.388 OA
ATOM     39  HO  UNL     1      93.237   9.878  28.446  1.00  0.00     0.210 HD
ENDBRANCH  33  38
BRANCH  34  40
HETATM   40  N   UNL     1      93.872   7.588  27.271  1.00  0.00    -0.070 N 
ATOM     41  HN3 UNL     1      92.932   7.314  26.989  1.00  0.00     0.274 HD
ATOM     42  HN2 UNL     1      93.797   8.587  27.076  1.00  0.00     0.274 HD
ATOM     43  HN1 UNL     1      94.591   7.139  26.705  1.00  0.00     0.274 HD
ENDBRANCH  34  40
BRANCH  35  44
HETATM   44  O   UNL     1      95.080   5.143  28.225  1.00  0.00    -0.391 OA
ATOM     45  HO  UNL     1      95.824   4.562  28.335  1.00  0.00     0.210 HD
ENDBRANCH  35  44
BRANCH  36  46
HETATM   46  C   UNL     1      96.809   5.285  30.552  1.00  0.00     0.198 C 
BRANCH  46  47
HETATM   47  O   UNL     1      96.403   3.997  30.946  1.00  0.00    -0.398 OA
ATOM     48  HO  UNL     1      95.453   3.964  30.953  1.00  0.00     0.209 HD
ENDBRANCH  46  47
ENDBRANCH  36  46
ENDBRANCH  31  32
ENDBRANCH   6  31
BRANCH   1  49
HETATM   49  N   UNL     1      91.795  10.234  32.052  1.00  0.00    -0.352 N 
HETATM   50  C   UNL     1      90.565  10.501  31.293  1.00  0.00     0.246 C 
HETATM   51  O   UNL     1      89.632   9.770  31.346  1.00  0.00    -0.271 OA
ATOM     52  HN  UNL     1      92.584  10.877  31.987  1.00  0.00     0.163 HD
BRANCH  50  53
HETATM   53  C   UNL     1      90.538  11.755  30.435  1.00  0.00     0.211 C 
BRANCH  53  54
HETATM   54  C   UNL     1      89.773  11.422  29.125  1.00  0.00     0.068 C 
BRANCH  54  55
HETATM   55  C   UNL     1      90.632  11.844  27.892  1.00  0.00     0.232 C 
BRANCH  55  56
HETATM   56  N   UNL     1      91.475  10.674  27.491  1.00  0.00    -0.079 N 
ATOM     57  HN3 UNL     1      92.460  10.798  27.728  1.00  0.00     0.274 HD
ATOM     58  HN2 UNL     1      91.300   9.848  28.063  1.00  0.00     0.274 HD
ATOM     59  HN1 UNL     1      91.327  10.504  26.496  1.00  0.00     0.274 HD
ENDBRANCH  55  56
ENDBRANCH  54  55
ENDBRANCH  53  54
BRANCH  53  60
HETATM   60  O   UNL     1      91.842  12.077  30.130  1.00  0.00    -0.386 OA
ATOM     61  HO  UNL     1      92.019  11.750  29.256  1.00  0.00     0.210 HD
ENDBRANCH  53  60
ENDBRANCH  50  53
ENDBRANCH   1  49
TORSDOF 22
ENDMDL
MODEL 2
REMARK VINA RESULT:    -6.781      2.722      8.180
REMARK INTER + INTRA:         -16.281
REMARK INTER:                 -13.845
REMARK INTRA:                  -2.435
REMARK UNBOUND:                -3.158
REMARK  22 active torsions:
REMARK  status: ('A' for Active; 'I' for Inactive)
REMARK    1  A    between atoms: C_1  and  O_9 
REMARK    2  A    between atoms: C_2  and  O_47 
REMARK    3  A    between atoms: C_3  and  O_49 
REMARK    4  A    between atoms: C_4  and  O_7 
REMARK    5  A    between atoms: C_5  and  C_6 
REMARK    6  A    between atoms: C_6  and  N_11 
REMARK    7  A    between atoms: O_9  and  C_24 
REMARK    8  A    between atoms: C_15  and  N_16 
REMARK       I    between atoms: N_16  and  C_55 
REMARK    9  A    between atoms: C_19  and  N_20 
REMARK   10  A    between atoms: C_25  and  O_26 
REMARK   11  A    between atoms: C_28  and  O_29 
REMARK   12  A    between atoms: O_29  and  C_30 
REMARK   13  A    between atoms: C_31  and  O_32 
REMARK   14  A    between atoms: C_34  and  N_35 
REMARK   15  A    between atoms: C_39  and  O_40 
REMARK   16  A    between atoms: C_42  and  C_44 
REMARK   17  A    between atoms: C_44  and  O_45 
REMARK   18  A    between atoms: N_51  and  C_59 
REMARK   19  A    between atoms: C_55  and  C_57 
REMARK   20  A    between atoms: C_57  and  C_58 
REMARK   21  A    between atoms: C_57  and  O_60 
REMARK   22  A    between atoms: C_58  and  C_59 
ROOT
HETATM    1  C   UNL     1      92.318   8.208  34.326  1.00  0.00     0.118 C 
HETATM    2  C   UNL     1      92.375   8.898  32.962  1.00  0.00     0.063 C 
HETATM    3  C   UNL     1      93.779   8.748  32.347  1.00  0.00     0.217 C 
HETATM    4  C   UNL     1      94.180   7.274  32.231  1.00  0.00     0.186 C 
HETATM    5  C   UNL     1      94.134   6.621  33.621  1.00  0.00     0.180 C 
HETATM    6  C   UNL     1      92.735   6.733  34.257  1.00  0.00     0.178 C 
ENDROOT
BRANCH   4   7
HETATM    7  O   UNL     1      95.493   7.327  31.653  1.00  0.00    -0.349 OA
BRANCH   7   8
HETATM    8  C   UNL     1      95.701   6.826  30.381  1.00  0.00     0.292 C 
HETATM    9  C   UNL     1      96.860   5.845  30.472  1.00  0.00     0.204 C 
HETATM   10  C   UNL     1      98.104   6.563  30.868  1.00  0.00     0.183 C 
HETATM   11  C   UNL     1      98.456   7.627  29.875  1.00  0.00     0.180 C 
HETATM   12  C   UNL     1      97.292   8.606  29.720  1.00  0.00     0.181 C 
HETATM   13  O   UNL     1      96.046   7.900  29.408  1.00  0.00    -0.349 OA
BRANCH   9  14
HETATM   14  O   UNL     1      96.526   4.857  31.456  1.00  0.00    -0.388 OA
ATOM     15  HO  UNL     1      95.983   5.272  32.115  1.00  0.00     0.210 HD
ENDBRANCH   9  14
BRANCH  10  16
HETATM   16  O   UNL     1      99.166   5.589  30.939  1.00  0.00    -0.390 OA
ATOM     17  HO  UNL     1      99.281   5.357  31.853  1.00  0.00     0.210 HD
ENDBRANCH  10  16
BRANCH  11  18
HETATM   18  O   UNL     1      99.579   8.389  30.331  1.00  0.00    -0.390 OA
ATOM     19  HO  UNL     1     100.044   8.683  29.557  1.00  0.00     0.210 HD
ENDBRANCH  11  18
BRANCH  12  20
HETATM   20  C   UNL     1      97.550   9.570  28.605  1.00  0.00     0.264 C 
BRANCH  20  21
HETATM   21  N   UNL     1      98.162   8.863  27.493  1.00  0.00    -0.077 N 
ATOM     22  HN3 UNL     1      97.772   9.144  26.594  1.00  0.00     0.274 HD
ATOM     23  HN2 UNL     1      99.126   9.156  27.331  1.00  0.00     0.274 HD
ATOM     24  HN1 UNL     1      98.084   7.858  27.652  1.00  0.00     0.274 HD
ENDBRANCH  20  21
ENDBRANCH  12  20
ENDBRANCH   7   8
ENDBRANCH   4   7
BRANCH   3  25
HETATM   25  N   UNL     1      93.833   9.411  31.040  1.00  0.00    -0.072 N 
ATOM     26  HN3 UNL     1      94.283  10.324  31.094  1.00  0.00     0.274 HD
ATOM     27  HN2 UNL     1      94.493   8.956  30.409  1.00  0.00     0.274 HD
ATOM     28  HN1 UNL     1      92.899   9.469  30.635  1.00  0.00     0.274 HD
ENDBRANCH   3  25
BRANCH   5  29
HETATM   29  O   UNL     1      94.437   5.246  33.579  1.00  0.00    -0.390 OA
ATOM     30  HO  UNL     1      95.379   5.180  33.675  1.00  0.00     0.210 HD
ENDBRANCH   5  29
BRANCH   6  31
HETATM   31  O   UNL     1      92.818   6.184  35.564  1.00  0.00    -0.349 OA
BRANCH  31  32
HETATM   32  C   UNL     1      94.080   6.206  36.117  1.00  0.00     0.291 C 
HETATM   33  C   UNL     1      94.295   4.954  36.947  1.00  0.00     0.206 C 
HETATM   34  C   UNL     1      93.405   4.933  38.151  1.00  0.00     0.247 C 
HETATM   35  C   UNL     1      93.657   6.152  39.002  1.00  0.00     0.182 C 
HETATM   36  C   UNL     1      93.413   7.414  38.181  1.00  0.00     0.179 C 
HETATM   37  O   UNL     1      94.248   7.439  36.965  1.00  0.00    -0.349 OA
BRANCH  33  38
HETATM   38  O   UNL     1      94.045   3.799  36.123  1.00  0.00    -0.388 OA
ATOM     39  HO  UNL     1      93.113   3.614  36.093  1.00  0.00     0.210 HD
ENDBRANCH  33  38
BRANCH  34  40
HETATM   40  N   UNL     1      93.661   3.682  38.938  1.00  0.00    -0.070 N 
ATOM     41  HN3 UNL     1      92.853   3.061  38.950  1.00  0.00     0.274 HD
ATOM     42  HN2 UNL     1      94.317   3.057  38.468  1.00  0.00     0.274 HD
ATOM     43  HN1 UNL     1      93.970   3.930  39.878  1.00  0.00     0.274 HD
ENDBRANCH  34  40
BRANCH  35  44
HETATM   44  O   UNL     1      92.784   6.159  40.139  1.00  0.00    -0.391 OA
ATOM     45  HO  UNL     1      93.043   5.490  40.761  1.00  0.00     0.210 HD
ENDBRANCH  35  44
BRANCH  36  46
HETATM   46  C   UNL     1      93.719   8.650  38.980  1.00  0.00     0.198 C 
BRANCH  46  47
HETATM   47  O   UNL     1      94.870   8.417  39.755  1.00  0.00    -0.398 OA
ATOM     48  HO  UNL     1      95.406   9.202  39.752  1.00  0.00     0.209 HD
ENDBRANCH  46  47
ENDBRANCH  36  46
ENDBRANCH  31  32
ENDBRANCH   6  31
BRANCH   1  49
HETATM   49  N   UNL     1      90.940   8.338  34.816  1.00  0.00    -0.352 N 
HETATM   50  C   UNL     1      90.654   9.176  35.989  1.00  0.00     0.246 C 
HETATM   51  O   UNL     1      91.516   9.756  36.563  1.00  0.00    -0.271 OA
ATOM     52  HN  UNL     1      90.182   7.847  34.343  1.00  0.00     0.163 HD
BRANCH  50  53
HETATM   53  C   UNL     1      89.206   9.268  36.440  1.00  0.00     0.211 C 
BRANCH  53  54
HETATM   54  C   UNL     1      88.488  10.311  35.541  1.00  0.00     0.068 C 
BRANCH  54  55
HETATM   55  C   UNL     1      86.944  10.202  35.738  1.00  0.00     0.232 C 
BRANCH  55  56
HETATM   56  N   UNL     1      86.568  11.029  36.928  1.00  0.00    -0.079 N 
ATOM     57  HN3 UNL     1      86.263  10.464  37.721  1.00  0.00     0.274 HD
ATOM     58  HN2 UNL     1      87.374  11.466  37.374  1.00  0.00     0.274 HD
ATOM     59  HN1 UNL     1      85.865  11.706  36.633  1.00  0.00     0.274 HD
ENDBRANCH  55  56
ENDBRANCH  54  55
ENDBRANCH  53  54
BRANCH  53  60
HETATM   60  O   UNL     1      89.206   9.715  37.743  1.00  0.00    -0.386 OA
ATOM     61  HO  UNL     1      88.653  10.486  37.780  1.00  0.00     0.210 HD
ENDBRANCH  53  60
ENDBRANCH  50  53
ENDBRANCH   1  49
TORSDOF 22
ENDMDL
MODEL 3
REMARK VINA RESULT:    -6.767      2.489      3.027
REMARK INTER + INTRA:         -16.255
REMARK INTER:                 -13.369
REMARK INTRA:                  -2.886
REMARK UNBOUND:                -3.158
REMARK  22 active torsions:
REMARK  status: ('A' for Active; 'I' for Inactive)
REMARK    1  A    between atoms: C_1  and  O_9 
REMARK    2  A    between atoms: C_2  and  O_47 
REMARK    3  A    between atoms: C_3  and  O_49 
REMARK    4  A    between atoms: C_4  and  O_7 
REMARK    5  A    between atoms: C_5  and  C_6 
REMARK    6  A    between atoms: C_6  and  N_11 
REMARK    7  A    between atoms: O_9  and  C_24 
REMARK    8  A    between atoms: C_15  and  N_16 
REMARK       I    between atoms: N_16  and  C_55 
REMARK    9  A    between atoms: C_19  and  N_20 
REMARK   10  A    between atoms: C_25  and  O_26 
REMARK   11  A    between atoms: C_28  and  O_29 
REMARK   12  A    between atoms: O_29  and  C_30 
REMARK   13  A    between atoms: C_31  and  O_32 
REMARK   14  A    between atoms: C_34  and  N_35 
REMARK   15  A    between atoms: C_39  and  O_40 
REMARK   16  A    between atoms: C_42  and  C_44 
REMARK   17  A    between atoms: C_44  and  O_45 
REMARK   18  A    between atoms: N_51  and  C_59 
REMARK   19  A    between atoms: C_55  and  C_57 
REMARK   20  A    between atoms: C_57  and  C_58 
REMARK   21  A    between atoms: C_57  and  O_60 
REMARK   22  A    between atoms: C_58  and  C_59 
ROOT
HETATM    1  C   UNL     1      92.428   7.709  30.606  1.00  0.00     0.118 C 
HETATM    2  C   UNL     1      91.314   7.973  31.621  1.00  0.00     0.063 C 
HETATM    3  C   UNL     1      91.570   7.177  32.914  1.00  0.00     0.217 C 
HETATM    4  C   UNL     1      92.941   7.512  33.510  1.00  0.00     0.186 C 
HETATM    5  C   UNL     1      94.035   7.212  32.474  1.00  0.00     0.180 C 
HETATM    6  C   UNL     1      93.822   8.010  31.173  1.00  0.00     0.178 C 
ENDROOT
BRANCH   4   7
HETATM    7  O   UNL     1      93.007   6.689  34.684  1.00  0.00    -0.349 OA
BRANCH   7   8
HETATM    8  C   UNL     1      92.790   7.255  35.928  1.00  0.00     0.292 C 
HETATM    9  C   UNL     1      94.005   6.930  36.784  1.00  0.00     0.204 C 
HETATM   10  C   UNL     1      94.106   5.457  36.984  1.00  0.00     0.183 C 
HETATM   11  C   UNL     1      92.886   4.917  37.663  1.00  0.00     0.180 C 
HETATM   12  C   UNL     1      91.637   5.268  36.855  1.00  0.00     0.181 C 
HETATM   13  O   UNL     1      91.570   6.707  36.585  1.00  0.00    -0.349 OA
BRANCH   9  14
HETATM   14  O   UNL     1      95.169   7.416  36.101  1.00  0.00    -0.388 OA
ATOM     15  HO  UNL     1      95.538   8.122  36.619  1.00  0.00     0.210 HD
ENDBRANCH   9  14
BRANCH  10  16
HETATM   16  O   UNL     1      95.271   5.207  37.799  1.00  0.00    -0.390 OA
ATOM     17  HO  UNL     1      95.974   5.753  37.468  1.00  0.00     0.210 HD
ENDBRANCH  10  16
BRANCH  11  18
HETATM   18  O   UNL     1      92.942   3.488  37.736  1.00  0.00    -0.390 OA
ATOM     19  HO  UNL     1      92.865   3.164  36.846  1.00  0.00     0.210 HD
ENDBRANCH  11  18
BRANCH  12  20
HETATM   20  C   UNL     1      90.395   4.897  37.602  1.00  0.00     0.264 C 
BRANCH  20  21
HETATM   21  N   UNL     1      90.635   5.038  39.028  1.00  0.00    -0.077 N 
ATOM     22  HN3 UNL     1      89.964   4.511  39.588  1.00  0.00     0.274 HD
ATOM     23  HN2 UNL     1      91.483   4.555  39.328  1.00  0.00     0.274 HD
ATOM     24  HN1 UNL     1      90.647   6.029  39.270  1.00  0.00     0.274 HD
ENDBRANCH  20  21
ENDBRANCH  12  20
ENDBRANCH   7   8
ENDBRANCH   4   7
BRANCH   3  25
HETATM   25  N   UNL     1      90.500   7.430  33.885  1.00  0.00    -0.072 N 
ATOM     26  HN3 UNL     1      90.821   8.004  34.664  1.00  0.00     0.274 HD
ATOM     27  HN2 UNL     1      89.791   8.063  33.514  1.00  0.00     0.274 HD
ATOM     28  HN1 UNL     1      90.096   6.549  34.201  1.00  0.00     0.274 HD
ENDBRANCH   3  25
BRANCH   5  29
HETATM   29  O   UNL     1      95.321   7.553  32.936  1.00  0.00    -0.390 OA
ATOM     30  HO  UNL     1      95.247   8.424  33.307  1.00  0.00     0.210 HD
ENDBRANCH   5  29
BRANCH   6  31
HETATM   31  O   UNL     1      94.825   7.600  30.255  1.00  0.00    -0.349 OA
BRANCH  31  32
HETATM   32  C   UNL     1      95.759   8.568  29.953  1.00  0.00     0.291 C 
HETATM   33  C   UNL     1      95.939   8.651  28.449  1.00  0.00     0.206 C 
HETATM   34  C   UNL     1      96.563   7.406  27.900  1.00  0.00     0.247 C 
HETATM   35  C   UNL     1      97.899   7.164  28.557  1.00  0.00     0.182 C 
HETATM   36  C   UNL     1      97.719   7.049  30.067  1.00  0.00     0.179 C 
HETATM   37  O   UNL     1      97.066   8.247  30.628  1.00  0.00    -0.349 OA
BRANCH  33  38
HETATM   38  O   UNL     1      94.655   8.876  27.836  1.00  0.00    -0.388 OA
ATOM     39  HO  UNL     1      94.127   8.087  27.883  1.00  0.00     0.210 HD
ENDBRANCH  33  38
BRANCH  34  40
HETATM   40  N   UNL     1      96.726   7.542  26.415  1.00  0.00    -0.070 N 
ATOM     41  HN3 UNL     1      97.652   7.256  26.101  1.00  0.00     0.274 HD
ATOM     42  HN2 UNL     1      96.179   6.850  25.902  1.00  0.00     0.274 HD
ATOM     43  HN1 UNL     1      96.501   8.496  26.135  1.00  0.00     0.274 HD
ENDBRANCH  34  40
BRANCH  35  44
HETATM   44  O   UNL     1      98.488   5.953  28.064  1.00  0.00    -0.391 OA
ATOM     45  HO  UNL     1      98.429   5.266  28.718  1.00  0.00     0.210 HD
ENDBRANCH  35  44
BRANCH  36  46
HETATM   46  C   UNL     1      99.041   6.874  30.761  1.00  0.00     0.198 C 
BRANCH  46  47
HETATM   47  O   UNL     1     100.066   7.317  29.905  1.00  0.00    -0.398 OA
ATOM     48  HO  UNL     1     100.545   8.015  30.337  1.00  0.00     0.209 HD
ENDBRANCH  46  47
ENDBRANCH  36  46
ENDBRANCH  31  32
ENDBRANCH   6  31
BRANCH   1  49
HETATM   49  N   UNL     1      92.150   8.546  29.433  1.00  0.00    -0.352 N 
HETATM   50  C   UNL     1      91.420   7.985  28.287  1.00  0.00     0.246 C 
HETATM   51  O   UNL     1      91.047   6.858  28.280  1.00  0.00    -0.271 OA
ATOM     52  HN  UNL     1      92.462   9.516  29.413  1.00  0.00     0.163 HD
BRANCH  50  53
HETATM   53  C   UNL     1      91.164   8.908  27.108  1.00  0.00     0.211 C 
BRANCH  53  54
HETATM   54  C   UNL     1      90.491  10.199  27.646  1.00  0.00     0.068 C 
BRANCH  54  55
HETATM   55  C   UNL     1      89.055   9.869  28.161  1.00  0.00     0.232 C 
BRANCH  55  56
HETATM   56  N   UNL     1      88.096  10.094  27.034  1.00  0.00    -0.079 N 
ATOM     57  HN3 UNL     1      88.444  10.762  26.346  1.00  0.00     0.274 HD
ATOM     58  HN2 UNL     1      88.020   9.287  26.415  1.00  0.00     0.274 HD
ATOM     59  HN1 UNL     1      87.198  10.371  27.433  1.00  0.00     0.274 HD
ENDBRANCH  55  56
ENDBRANCH  54  55
ENDBRANCH  53  54
BRANCH  53  60
HETATM   60  O   UNL     1      90.292   8.262  26.258  1.00  0.00    -0.386 OA
ATOM     61  HO  UNL     1      90.314   8.720  25.426  1.00  0.00     0.210 HD
ENDBRANCH  53  60
ENDBRANCH  50  53
ENDBRANCH   1  49
TORSDOF 22
ENDMDL
MODEL 4
REMARK VINA RESULT:    -6.681      2.877      7.956
REMARK INTER + INTRA:         -16.088
REMARK INTER:                 -12.998
REMARK INTRA:                  -3.090
REMARK UNBOUND:                -3.158
REMARK  22 active torsions:
REMARK  status: ('A' for Active; 'I' for Inactive)
REMARK    1  A    between atoms: C_1  and  O_9 
REMARK    2  A    between atoms: C_2  and  O_47 
REMARK    3  A    between atoms: C_3  and  O_49 
REMARK    4  A    between atoms: C_4  and  O_7 
REMARK    5  A    between atoms: C_5  and  C_6 
REMARK    6  A    between atoms: C_6  and  N_11 
REMARK    7  A    between atoms: O_9  and  C_24 
REMARK    8  A    between atoms: C_15  and  N_16 
REMARK       I    between atoms: N_16  and  C_55 
REMARK    9  A    between atoms: C_19  and  N_20 
REMARK   10  A    between atoms: C_25  and  O_26 
REMARK   11  A    between atoms: C_28  and  O_29 
REMARK   12  A    between atoms: O_29  and  C_30 
REMARK   13  A    between atoms: C_31  and  O_32 
REMARK   14  A    between atoms: C_34  and  N_35 
REMARK   15  A    between atoms: C_39  and  O_40 
REMARK   16  A    between atoms: C_42  and  C_44 
REMARK   17  A    between atoms: C_44  and  O_45 
REMARK   18  A    between atoms: N_51  and  C_59 
REMARK   19  A    between atoms: C_55  and  C_57 
REMARK   20  A    between atoms: C_57  and  C_58 
REMARK   21  A    between atoms: C_57  and  O_60 
REMARK   22  A    between atoms: C_58  and  C_59 
ROOT
HETATM    1  C   UNL     1      91.980   8.714  33.424  1.00  0.00     0.118 C 
HETATM    2  C   UNL     1      92.314   9.551  32.189  1.00  0.00     0.063 C 
HETATM    3  C   UNL     1      93.771   9.307  31.756  1.00  0.00     0.217 C 
HETATM    4  C   UNL     1      94.031   7.820  31.494  1.00  0.00     0.186 C 
HETATM    5  C   UNL     1      93.709   7.014  32.762  1.00  0.00     0.180 C 
HETATM    6  C   UNL     1      92.249   7.218  33.211  1.00  0.00     0.178 C 
ENDROOT
BRANCH   4   7
HETATM    7  O   UNL     1      95.415   7.783  31.115  1.00  0.00    -0.349 OA
BRANCH   7   8
HETATM    8  C   UNL     1      95.768   7.300  29.867  1.00  0.00     0.292 C 
HETATM    9  C   UNL     1      96.792   6.196  30.090  1.00  0.00     0.204 C 
HETATM   10  C   UNL     1      98.025   6.763  30.705  1.00  0.00     0.183 C 
HETATM   11  C   UNL     1      98.636   7.812  29.829  1.00  0.00     0.180 C 
HETATM   12  C   UNL     1      97.618   8.915  29.542  1.00  0.00     0.181 C 
HETATM   13  O   UNL     1      96.371   8.358  29.010  1.00  0.00    -0.349 OA
BRANCH   9  14
HETATM   14  O   UNL     1      96.207   5.221  30.964  1.00  0.00    -0.388 OA
ATOM     15  HO  UNL     1      96.905   4.834  31.479  1.00  0.00     0.210 HD
ENDBRANCH   9  14
BRANCH  10  16
HETATM   16  O   UNL     1      98.957   5.678  30.893  1.00  0.00    -0.390 OA
ATOM     17  HO  UNL     1      98.523   5.016  31.419  1.00  0.00     0.210 HD
ENDBRANCH  10  16
BRANCH  11  18
HETATM   18  O   UNL     1      99.745   8.433  30.487  1.00  0.00    -0.390 OA
ATOM     19  HO  UNL     1      99.764   8.093  31.373  1.00  0.00     0.210 HD
ENDBRANCH  11  18
BRANCH  12  20
HETATM   20  C   UNL     1      98.146   9.879  28.526  1.00  0.00     0.264 C 
BRANCH  20  21
HETATM   21  N   UNL     1      98.254   9.207  27.242  1.00  0.00    -0.077 N 
ATOM     22  HN3 UNL     1      99.180   8.807  27.091  1.00  0.00     0.274 HD
ATOM     23  HN2 UNL     1      97.715   8.341  27.211  1.00  0.00     0.274 HD
ATOM     24  HN1 UNL     1      97.987   9.856  26.501  1.00  0.00     0.274 HD
ENDBRANCH  20  21
ENDBRANCH  12  20
ENDBRANCH   7   8
ENDBRANCH   4   7
BRANCH   3  25
HETATM   25  N   UNL     1      94.091  10.111  30.572  1.00  0.00    -0.072 N 
ATOM     26  HN3 UNL     1      94.605   9.575  29.874  1.00  0.00     0.274 HD
ATOM     27  HN2 UNL     1      93.260  10.321  30.018  1.00  0.00     0.274 HD
ATOM     28  HN1 UNL     1      94.589  10.958  30.846  1.00  0.00     0.274 HD
ENDBRANCH   3  25
BRANCH   5  29
HETATM   29  O   UNL     1      93.871   5.628  32.574  1.00  0.00    -0.390 OA
ATOM     30  HO  UNL     1      94.807   5.469  32.571  1.00  0.00     0.210 HD
ENDBRANCH   5  29
BRANCH   6  31
HETATM   31  O   UNL     1      92.076   6.509  34.429  1.00  0.00    -0.349 OA
BRANCH  31  32
HETATM   32  C   UNL     1      92.910   6.910  35.450  1.00  0.00     0.291 C 
HETATM   33  C   UNL     1      93.440   5.692  36.184  1.00  0.00     0.206 C 
HETATM   34  C   UNL     1      92.348   4.970  36.911  1.00  0.00     0.247 C 
HETATM   35  C   UNL     1      91.678   5.900  37.892  1.00  0.00     0.182 C 
HETATM   36  C   UNL     1      91.117   7.111  37.155  1.00  0.00     0.179 C 
HETATM   37  O   UNL     1      92.166   7.817  36.395  1.00  0.00    -0.349 OA
BRANCH  33  38
HETATM   38  O   UNL     1      94.071   4.811  35.234  1.00  0.00    -0.388 OA
ATOM     39  HO  UNL     1      94.204   3.954  35.621  1.00  0.00     0.210 HD
ENDBRANCH  33  38
BRANCH  34  40
HETATM   40  N   UNL     1      92.923   3.783  37.624  1.00  0.00    -0.070 N 
ATOM     41  HN3 UNL     1      92.215   3.262  38.140  1.00  0.00     0.274 HD
ATOM     42  HN2 UNL     1      93.204   3.044  36.978  1.00  0.00     0.274 HD
ATOM     43  HN1 UNL     1      93.691   4.085  38.222  1.00  0.00     0.274 HD
ENDBRANCH  34  40
BRANCH  35  44
HETATM   44  O   UNL     1      90.606   5.228  38.568  1.00  0.00    -0.391 OA
ATOM     45  HO  UNL     1      90.934   4.474  39.043  1.00  0.00     0.210 HD
ENDBRANCH  35  44
BRANCH  36  46
HETATM   46  C   UNL     1      90.499   8.093  38.112  1.00  0.00     0.198 C 
BRANCH  46  47
HETATM   47  O   UNL     1      91.049   9.366  37.876  1.00  0.00    -0.398 OA
ATOM     48  HO  UNL     1      90.950   9.576  36.954  1.00  0.00     0.209 HD
ENDBRANCH  46  47
ENDBRANCH  36  46
ENDBRANCH  31  32
ENDBRANCH   6  31
BRANCH   1  49
HETATM   49  N   UNL     1      90.564   8.950  33.735  1.00  0.00    -0.352 N 
HETATM   50  C   UNL     1      90.187  10.012  34.678  1.00  0.00     0.246 C 
HETATM   51  O   UNL     1      91.004  10.693  35.206  1.00  0.00    -0.271 OA
ATOM     52  HN  UNL     1      89.843   8.377  33.297  1.00  0.00     0.163 HD
BRANCH  50  53
HETATM   53  C   UNL     1      88.705  10.204  34.951  1.00  0.00     0.211 C 
BRANCH  53  54
HETATM   54  C   UNL     1      88.266  11.543  34.298  1.00  0.00     0.068 C 
BRANCH  54  55
HETATM   55  C   UNL     1      86.806  11.886  34.731  1.00  0.00     0.232 C 
BRANCH  55  56
HETATM   56  N   UNL     1      86.875  12.870  35.857  1.00  0.00    -0.079 N 
ATOM     57  HN3 UNL     1      86.335  13.716  35.675  1.00  0.00     0.274 HD
ATOM     58  HN2 UNL     1      86.367  12.558  36.684  1.00  0.00     0.274 HD
ATOM     59  HN1 UNL     1      87.859  13.064  36.047  1.00  0.00     0.274 HD
ENDBRANCH  55  56
ENDBRANCH  54  55
ENDBRANCH  53  54
BRANCH  53  60
HETATM   60  O   UNL     1      88.543  10.290  36.317  1.00  0.00    -0.386 OA
ATOM     61  HO  UNL     1      88.748  11.182  36.572  1.00  0.00     0.210 HD
ENDBRANCH  53  60
ENDBRANCH  50  53
ENDBRANCH   1  49
TORSDOF 22
ENDMDL
MODEL 5
REMARK VINA RESULT:    -6.646      1.804      1.978
REMARK INTER + INTRA:         -16.020
REMARK INTER:                 -13.547
REMARK INTRA:                  -2.473
REMARK UNBOUND:                -3.158
REMARK  22 active torsions:
REMARK  status: ('A' for Active; 'I' for Inactive)
REMARK    1  A    between atoms: C_1  and  O_9 
REMARK    2  A    between atoms: C_2  and  O_47 
REMARK    3  A    between atoms: C_3  and  O_49 
REMARK    4  A    between atoms: C_4  and  O_7 
REMARK    5  A    between atoms: C_5  and  C_6 
REMARK    6  A    between atoms: C_6  and  N_11 
REMARK    7  A    between atoms: O_9  and  C_24 
REMARK    8  A    between atoms: C_15  and  N_16 
REMARK       I    between atoms: N_16  and  C_55 
REMARK    9  A    between atoms: C_19  and  N_20 
REMARK   10  A    between atoms: C_25  and  O_26 
REMARK   11  A    between atoms: C_28  and  O_29 
REMARK   12  A    between atoms: O_29  and  C_30 
REMARK   13  A    between atoms: C_31  and  O_32 
REMARK   14  A    between atoms: C_34  and  N_35 
REMARK   15  A    between atoms: C_39  and  O_40 
REMARK   16  A    between atoms: C_42  and  C_44 
REMARK   17  A    between atoms: C_44  and  O_45 
REMARK   18  A    between atoms: N_51  and  C_59 
REMARK   19  A    between atoms: C_55  and  C_57 
REMARK   20  A    between atoms: C_57  and  C_58 
REMARK   21  A    between atoms: C_57  and  O_60 
REMARK   22  A    between atoms: C_58  and  C_59 
ROOT
HETATM    1  C   UNL     1      92.362   8.784  31.450  1.00  0.00     0.118 C 
HETATM    2  C   UNL     1      91.552   9.150  32.695  1.00  0.00     0.063 C 
HETATM    3  C   UNL     1      91.733   8.076  33.783  1.00  0.00     0.217 C 
HETATM    4  C   UNL     1      93.212   7.881  34.132  1.00  0.00     0.186 C 
HETATM    5  C   UNL     1      93.988   7.491  32.864  1.00  0.00     0.180 C 
HETATM    6  C   UNL     1      93.847   8.557  31.760  1.00  0.00     0.178 C 
ENDROOT
BRANCH   4   7
HETATM    7  O   UNL     1      93.188   6.859  35.139  1.00  0.00    -0.349 OA
BRANCH   7   8
HETATM    8  C   UNL     1      94.272   6.710  35.987  1.00  0.00     0.292 C 
HETATM    9  C   UNL     1      94.262   5.269  36.474  1.00  0.00     0.204 C 
HETATM   10  C   UNL     1      93.035   5.014  37.282  1.00  0.00     0.183 C 
HETATM   11  C   UNL     1      92.971   5.921  38.471  1.00  0.00     0.180 C 
HETATM   12  C   UNL     1      93.029   7.381  38.022  1.00  0.00     0.181 C 
HETATM   13  O   UNL     1      94.190   7.623  37.161  1.00  0.00    -0.349 OA
BRANCH   9  14
HETATM   14  O   UNL     1      94.282   4.413  35.324  1.00  0.00    -0.388 OA
ATOM     15  HO  UNL     1      95.032   4.655  34.793  1.00  0.00     0.210 HD
ENDBRANCH   9  14
BRANCH  10  16
HETATM   16  O   UNL     1      93.078   3.639  37.716  1.00  0.00    -0.390 OA
ATOM     17  HO  UNL     1      92.788   3.100  36.990  1.00  0.00     0.210 HD
ENDBRANCH  10  16
BRANCH  11  18
HETATM   18  O   UNL     1      91.731   5.751  39.166  1.00  0.00    -0.390 OA
ATOM     19  HO  UNL     1      91.039   5.926  38.539  1.00  0.00     0.210 HD
ENDBRANCH  11  18
BRANCH  12  20
HETATM   20  C   UNL     1      93.147   8.297  39.199  1.00  0.00     0.264 C 
BRANCH  20  21
HETATM   21  N   UNL     1      94.552   8.547  39.471  1.00  0.00    -0.077 N 
ATOM     22  HN3 UNL     1      95.109   8.597  38.618  1.00  0.00     0.274 HD
ATOM     23  HN2 UNL     1      94.719   9.496  39.808  1.00  0.00     0.274 HD
ATOM     24  HN1 UNL     1      94.899   7.839  40.119  1.00  0.00     0.274 HD
ENDBRANCH  20  21
ENDBRANCH  12  20
ENDBRANCH   7   8
ENDBRANCH   4   7
BRANCH   3  25
HETATM   25  N   UNL     1      90.955   8.427  34.976  1.00  0.00    -0.072 N 
ATOM     26  HN3 UNL     1      91.354   8.024  35.824  1.00  0.00     0.274 HD
ATOM     27  HN2 UNL     1      91.053   9.413  35.219  1.00  0.00     0.274 HD
ATOM     28  HN1 UNL     1      89.979   8.161  34.851  1.00  0.00     0.274 HD
ENDBRANCH   3  25
BRANCH   5  29
HETATM   29  O   UNL     1      95.369   7.352  33.101  1.00  0.00    -0.390 OA
ATOM     30  HO  UNL     1      95.686   6.727  32.460  1.00  0.00     0.210 HD
ENDBRANCH   5  29
BRANCH   6  31
HETATM   31  O   UNL     1      94.521   8.068  30.610  1.00  0.00    -0.349 OA
BRANCH  31  32
HETATM   32  C   UNL     1      95.405   8.957  30.039  1.00  0.00     0.291 C 
HETATM   33  C   UNL     1      95.445   8.744  28.537  1.00  0.00     0.206 C 
HETATM   34  C   UNL     1      96.038   7.414  28.186  1.00  0.00     0.247 C 
HETATM   35  C   UNL     1      97.433   7.307  28.749  1.00  0.00     0.182 C 
HETATM   36  C   UNL     1      97.394   7.490  30.263  1.00  0.00     0.179 C 
HETATM   37  O   UNL     1      96.774   8.775  30.637  1.00  0.00    -0.349 OA
BRANCH  33  38
HETATM   38  O   UNL     1      94.105   8.843  28.015  1.00  0.00    -0.388 OA
ATOM     39  HO  UNL     1      93.730   9.688  28.234  1.00  0.00     0.210 HD
ENDBRANCH  33  38
BRANCH  34  40
HETATM   40  N   UNL     1      96.061   7.256  26.695  1.00  0.00    -0.070 N 
ATOM     41  HN3 UNL     1      95.595   6.402  26.390  1.00  0.00     0.274 HD
ATOM     42  HN2 UNL     1      95.453   7.928  26.226  1.00  0.00     0.274 HD
ATOM     43  HN1 UNL     1      97.024   7.310  26.363  1.00  0.00     0.274 HD
ENDBRANCH  34  40
BRANCH  35  44
HETATM   44  O   UNL     1      97.996   6.022  28.450  1.00  0.00    -0.391 OA
ATOM     45  HO  UNL     1      97.396   5.512  27.919  1.00  0.00     0.210 HD
ENDBRANCH  35  44
BRANCH  36  46
HETATM   46  C   UNL     1      98.778   7.455  30.850  1.00  0.00     0.198 C 
BRANCH  46  47
HETATM   47  O   UNL     1      99.684   7.984  29.913  1.00  0.00    -0.398 OA
ATOM     48  HO  UNL     1      99.456   7.661  29.049  1.00  0.00     0.209 HD
ENDBRANCH  46  47
ENDBRANCH  36  46
ENDBRANCH  31  32
ENDBRANCH   6  31
BRANCH   1  49
HETATM   49  N   UNL     1      92.191   9.880  30.488  1.00  0.00    -0.352 N 
HETATM   50  C   UNL     1      91.155   9.791  29.450  1.00  0.00     0.246 C 
HETATM   51  O   UNL     1      90.444   8.845  29.361  1.00  0.00    -0.271 OA
ATOM     52  HN  UNL     1      92.792  10.703  30.540  1.00  0.00     0.163 HD
BRANCH  50  53
HETATM   53  C   UNL     1      91.032  10.963  28.489  1.00  0.00     0.211 C 
BRANCH  53  54
HETATM   54  C   UNL     1      89.536  11.107  28.099  1.00  0.00     0.068 C 
BRANCH  54  55
HETATM   55  C   UNL     1      88.818  12.057  29.108  1.00  0.00     0.232 C 
BRANCH  55  56
HETATM   56  N   UNL     1      89.108  13.468  28.703  1.00  0.00    -0.079 N 
ATOM     57  HN3 UNL     1      88.264  14.000  28.492  1.00  0.00     0.274 HD
ATOM     58  HN2 UNL     1      89.439  14.040  29.480  1.00  0.00     0.274 HD
ATOM     59  HN1 UNL     1      89.765  13.445  27.923  1.00  0.00     0.274 HD
ENDBRANCH  55  56
ENDBRANCH  54  55
ENDBRANCH  53  54
BRANCH  53  60
HETATM   60  O   UNL     1      91.767  10.656  27.366  1.00  0.00    -0.386 OA
ATOM     61  HO  UNL     1      91.319  11.036  26.620  1.00  0.00     0.210 HD
ENDBRANCH  53  60
ENDBRANCH  50  53
ENDBRANCH   1  49
TORSDOF 22
ENDMDL
MODEL 6
REMARK VINA RESULT:    -6.563      2.595      3.483
REMARK INTER + INTRA:         -15.860
REMARK INTER:                 -12.954
REMARK INTRA:                  -2.905
REMARK UNBOUND:                -3.158
REMARK  22 active torsions:
REMARK  status: ('A' for Active; 'I' for Inactive)
REMARK    1  A    between atoms: C_1  and  O_9 
REMARK    2  A    between atoms: C_2  and  O_47 
REMARK    3  A    between atoms: C_3  and  O_49 
REMARK    4  A    between atoms: C_4  and  O_7 
REMARK    5  A    between atoms: C_5  and  C_6 
REMARK    6  A    between atoms: C_6  and  N_11 
REMARK    7  A    between atoms: O_9  and  C_24 
REMARK    8  A    between atoms: C_15  and  N_16 
REMARK       I    between atoms: N_16  and  C_55 
REMARK    9  A    between atoms: C_19  and  N_20 
REMARK   10  A    between atoms: C_25  and  O_26 
REMARK   11  A    between atoms: C_28  and  O_29 
REMARK   12  A    between atoms: O_29  and  C_30 
REMARK   13  A    between atoms: C_31  and  O_32 
REMARK   14  A    between atoms: C_34  and  N_35 
REMARK   15  A    between atoms: C_39  and  O_40 
REMARK   16  A    between atoms: C_42  and  C_44 
REMARK   17  A    between atoms: C_44  and  O_45 
REMARK   18  A    between atoms: N_51  and  C_59 
REMARK   19  A    between atoms: C_55  and  C_57 
REMARK   20  A    between atoms: C_57  and  C_58 
REMARK   21  A    between atoms: C_57  and  O_60 
REMARK   22  A    between atoms: C_58  and  C_59 
ROOT
HETATM    1  C   UNL     1      93.055   7.898  30.816  1.00  0.00     0.118 C 
HETATM    2  C   UNL     1      91.764   7.645  31.598  1.00  0.00     0.063 C 
HETATM    3  C   UNL     1      92.062   6.830  32.870  1.00  0.00     0.217 C 
HETATM    4  C   UNL     1      93.104   7.531  33.748  1.00  0.00     0.186 C 
HETATM    5  C   UNL     1      94.392   7.746  32.939  1.00  0.00     0.180 C 
HETATM    6  C   UNL     1      94.134   8.579  31.668  1.00  0.00     0.178 C 
ENDROOT
BRANCH   4   7
HETATM    7  O   UNL     1      93.257   6.641  34.864  1.00  0.00    -0.349 OA
BRANCH   7   8
HETATM    8  C   UNL     1      92.890   7.063  36.129  1.00  0.00     0.292 C 
HETATM    9  C   UNL     1      94.021   6.681  37.072  1.00  0.00     0.204 C 
HETATM   10  C   UNL     1      94.158   5.198  37.127  1.00  0.00     0.183 C 
HETATM   11  C   UNL     1      92.896   4.555  37.610  1.00  0.00     0.180 C 
HETATM   12  C   UNL     1      91.725   4.956  36.715  1.00  0.00     0.181 C 
HETATM   13  O   UNL     1      91.631   6.414  36.590  1.00  0.00    -0.349 OA
BRANCH   9  14
HETATM   14  O   UNL     1      95.229   7.270  36.573  1.00  0.00    -0.388 OA
ATOM     15  HO  UNL     1      94.990   7.936  35.939  1.00  0.00     0.210 HD
ENDBRANCH   9  14
BRANCH  10  16
HETATM   16  O   UNL     1      95.241   4.894  38.031  1.00  0.00    -0.390 OA
ATOM     17  HO  UNL     1      95.020   4.088  38.481  1.00  0.00     0.210 HD
ENDBRANCH  10  16
BRANCH  11  18
HETATM   18  O   UNL     1      93.000   3.129  37.539  1.00  0.00    -0.390 OA
ATOM     19  HO  UNL     1      92.116   2.793  37.449  1.00  0.00     0.210 HD
ENDBRANCH  11  18
BRANCH  12  20
HETATM   20  C   UNL     1      90.427   4.472  37.281  1.00  0.00     0.264 C 
BRANCH  20  21
HETATM   21  N   UNL     1      90.093   3.192  36.681  1.00  0.00    -0.077 N 
ATOM     22  HN3 UNL     1      89.237   3.236  36.126  1.00  0.00     0.274 HD
ATOM     23  HN2 UNL     1      90.737   2.935  35.932  1.00  0.00     0.274 HD
ATOM     24  HN1 UNL     1      90.044   2.482  37.411  1.00  0.00     0.274 HD
ENDBRANCH  20  21
ENDBRANCH  12  20
ENDBRANCH   7   8
ENDBRANCH   4   7
BRANCH   3  25
HETATM   25  N   UNL     1      90.824   6.587  33.618  1.00  0.00    -0.072 N 
ATOM     26  HN3 UNL     1      90.310   5.785  33.253  1.00  0.00     0.274 HD
ATOM     27  HN2 UNL     1      91.009   6.233  34.557  1.00  0.00     0.274 HD
ATOM     28  HN1 UNL     1      90.251   7.431  33.635  1.00  0.00     0.274 HD
ENDBRANCH   3  25
BRANCH   5  29
HETATM   29  O   UNL     1      95.376   8.440  33.669  1.00  0.00    -0.390 OA
ATOM     30  HO  UNL     1      95.763   9.063  33.065  1.00  0.00     0.210 HD
ENDBRANCH   5  29
BRANCH   6  31
HETATM   31  O   UNL     1      95.357   8.647  30.950  1.00  0.00    -0.349 OA
BRANCH  31  32
HETATM   32  C   UNL     1      95.983   7.433  30.765  1.00  0.00     0.291 C 
HETATM   33  C   UNL     1      97.488   7.627  30.788  1.00  0.00     0.206 C 
HETATM   34  C   UNL     1      97.957   8.424  29.611  1.00  0.00     0.247 C 
HETATM   35  C   UNL     1      97.555   7.739  28.329  1.00  0.00     0.182 C 
HETATM   36  C   UNL     1      96.040   7.570  28.288  1.00  0.00     0.179 C 
HETATM   37  O   UNL     1      95.546   6.823  29.460  1.00  0.00    -0.349 OA
BRANCH  33  38
HETATM   38  O   UNL     1      97.856   8.287  32.015  1.00  0.00    -0.388 OA
ATOM     39  HO  UNL     1      98.579   8.885  31.861  1.00  0.00     0.210 HD
ENDBRANCH  33  38
BRANCH  34  40
HETATM   40  N   UNL     1      99.448   8.581  29.677  1.00  0.00    -0.070 N 
ATOM     41  HN3 UNL     1      99.729   9.346  30.289  1.00  0.00     0.274 HD
ATOM     42  HN2 UNL     1      99.894   7.817  30.186  1.00  0.00     0.274 HD
ATOM     43  HN1 UNL     1      99.820   8.685  28.733  1.00  0.00     0.274 HD
ENDBRANCH  34  40
BRANCH  35  44
HETATM   44  O   UNL     1      97.969   8.515  27.196  1.00  0.00    -0.391 OA
ATOM     45  HO  UNL     1      98.896   8.389  27.028  1.00  0.00     0.210 HD
ENDBRANCH  35  44
BRANCH  36  46
HETATM   46  C   UNL     1      95.609   6.830  27.052  1.00  0.00     0.198 C 
BRANCH  46  47
HETATM   47  O   UNL     1      95.086   5.580  27.429  1.00  0.00    -0.398 OA
ATOM     48  HO  UNL     1      95.784   5.055  27.803  1.00  0.00     0.209 HD
ENDBRANCH  46  47
ENDBRANCH  36  46
ENDBRANCH  31  32
ENDBRANCH   6  31
BRANCH   1  49
HETATM   49  N   UNL     1      92.701   8.730  29.659  1.00  0.00    -0.352 N 
HETATM   50  C   UNL     1      92.405   8.100  28.365  1.00  0.00     0.246 C 
HETATM   51  O   UNL     1      92.447   6.922  28.224  1.00  0.00    -0.271 OA
ATOM     52  HN  UNL     1      92.662   9.744  29.753  1.00  0.00     0.163 HD
BRANCH  50  53
HETATM   53  C   UNL     1      92.043   9.020  27.211  1.00  0.00     0.211 C 
BRANCH  53  54
HETATM   54  C   UNL     1      90.502   9.206  27.211  1.00  0.00     0.068 C 
BRANCH  54  55
HETATM   55  C   UNL     1      90.143  10.625  27.754  1.00  0.00     0.232 C 
BRANCH  55  56
HETATM   56  N   UNL     1      91.401  11.434  27.805  1.00  0.00    -0.079 N 
ATOM     57  HN3 UNL     1      91.992  11.195  28.602  1.00  0.00     0.274 HD
ATOM     58  HN2 UNL     1      92.059  11.185  27.067  1.00  0.00     0.274 HD
ATOM     59  HN1 UNL     1      91.143  12.421  27.787  1.00  0.00     0.274 HD
ENDBRANCH  55  56
ENDBRANCH  54  55
ENDBRANCH  53  54
BRANCH  53  60
HETATM   60  O   UNL     1      92.425   8.392  26.046  1.00  0.00    -0.386 OA
ATOM     61  HO  UNL     1      93.352   8.557  25.924  1.00  0.00     0.210 HD
ENDBRANCH  53  60
ENDBRANCH  50  53
ENDBRANCH   1  49
TORSDOF 22
ENDMDL
MODEL 7
REMARK VINA RESULT:    -6.465      2.683      7.805
REMARK INTER + INTRA:         -15.670
REMARK INTER:                 -12.429
REMARK INTRA:                  -3.241
REMARK UNBOUND:                -3.158
REMARK  22 active torsions:
REMARK  status: ('A' for Active; 'I' for Inactive)
REMARK    1  A    between atoms: C_1  and  O_9 
REMARK    2  A    between atoms: C_2  and  O_47 
REMARK    3  A    between atoms: C_3  and  O_49 
REMARK    4  A    between atoms: C_4  and  O_7 
REMARK    5  A    between atoms: C_5  and  C_6 
REMARK    6  A    between atoms: C_6  and  N_11 
REMARK    7  A    between atoms: O_9  and  C_24 
REMARK    8  A    between atoms: C_15  and  N_16 
REMARK       I    between atoms: N_16  and  C_55 
REMARK    9  A    between atoms: C_19  and  N_20 
REMARK   10  A    between atoms: C_25  and  O_26 
REMARK   11  A    between atoms: C_28  and  O_29 
REMARK   12  A    between atoms: O_29  and  C_30 
REMARK   13  A    between atoms: C_31  and  O_32 
REMARK   14  A    between atoms: C_34  and  N_35 
REMARK   15  A    between atoms: C_39  and  O_40 
REMARK   16  A    between atoms: C_42  and  C_44 
REMARK   17  A    between atoms: C_44  and  O_45 
REMARK   18  A    between atoms: N_51  and  C_59 
REMARK   19  A    between atoms: C_55  and  C_57 
REMARK   20  A    between atoms: C_57  and  C_58 
REMARK   21  A    between atoms: C_57  and  O_60 
REMARK   22  A    between atoms: C_58  and  C_59 
ROOT
HETATM    1  C   UNL     1      91.368   8.524  31.307  1.00  0.00     0.118 C 
HETATM    2  C   UNL     1      91.423   8.966  29.843  1.00  0.00     0.063 C 
HETATM    3  C   UNL     1      92.853   8.814  29.294  1.00  0.00     0.217 C 
HETATM    4  C   UNL     1      93.359   7.377  29.449  1.00  0.00     0.186 C 
HETATM    5  C   UNL     1      93.313   6.977  30.932  1.00  0.00     0.180 C 
HETATM    6  C   UNL     1      91.889   7.095  31.509  1.00  0.00     0.178 C 
ENDROOT
BRANCH   4   7
HETATM    7  O   UNL     1      94.684   7.425  28.899  1.00  0.00    -0.349 OA
BRANCH   7   8
HETATM    8  C   UNL     1      95.696   8.048  29.608  1.00  0.00     0.292 C 
HETATM    9  C   UNL     1      96.603   8.724  28.590  1.00  0.00     0.204 C 
HETATM   10  C   UNL     1      97.244   7.698  27.721  1.00  0.00     0.183 C 
HETATM   11  C   UNL     1      98.063   6.739  28.528  1.00  0.00     0.180 C 
HETATM   12  C   UNL     1      97.195   6.076  29.596  1.00  0.00     0.181 C 
HETATM   13  O   UNL     1      96.496   7.078  30.406  1.00  0.00    -0.349 OA
BRANCH   9  14
HETATM   14  O   UNL     1      95.797   9.607  27.799  1.00  0.00    -0.388 OA
ATOM     15  HO  UNL     1      95.473   9.118  27.052  1.00  0.00     0.210 HD
ENDBRANCH   9  14
BRANCH  10  16
HETATM   16  O   UNL     1      98.089   8.391  26.779  1.00  0.00    -0.390 OA
ATOM     17  HO  UNL     1      98.384   9.192  27.195  1.00  0.00     0.210 HD
ENDBRANCH  10  16
BRANCH  11  18
HETATM   18  O   UNL     1      98.571   5.689  27.698  1.00  0.00    -0.390 OA
ATOM     19  HO  UNL     1      99.514   5.792  27.670  1.00  0.00     0.210 HD
ENDBRANCH  11  18
BRANCH  12  20
HETATM   20  C   UNL     1      98.027   5.251  30.527  1.00  0.00     0.264 C 
BRANCH  20  21
HETATM   21  N   UNL     1      97.167   4.327  31.245  1.00  0.00    -0.077 N 
ATOM     22  HN3 UNL     1      97.470   4.185  32.209  1.00  0.00     0.274 HD
ATOM     23  HN2 UNL     1      96.248   4.725  31.440  1.00  0.00     0.274 HD
ATOM     24  HN1 UNL     1      97.107   3.451  30.725  1.00  0.00     0.274 HD
ENDBRANCH  20  21
ENDBRANCH  12  20
ENDBRANCH   7   8
ENDBRANCH   4   7
BRANCH   3  25
HETATM   25  N   UNL     1      92.905   9.239  27.891  1.00  0.00    -0.072 N 
ATOM     26  HN3 UNL     1      93.812   9.636  27.646  1.00  0.00     0.274 HD
ATOM     27  HN2 UNL     1      92.911   8.445  27.251  1.00  0.00     0.274 HD
ATOM     28  HN1 UNL     1      92.140   9.883  27.689  1.00  0.00     0.274 HD
ENDBRANCH   3  25
BRANCH   5  29
HETATM   29  O   UNL     1      93.711   5.643  31.142  1.00  0.00    -0.390 OA
ATOM     30  HO  UNL     1      92.920   5.160  31.347  1.00  0.00     0.210 HD
ENDBRANCH   5  29
BRANCH   6  31
HETATM   31  O   UNL     1      91.966   6.792  32.895  1.00  0.00    -0.349 OA
BRANCH  31  32
HETATM   32  C   UNL     1      92.897   7.530  33.593  1.00  0.00     0.291 C 
HETATM   33  C   UNL     1      93.594   6.642  34.607  1.00  0.00     0.206 C 
HETATM   34  C   UNL     1      92.654   6.191  35.681  1.00  0.00     0.247 C 
HETATM   35  C   UNL     1      92.059   7.387  36.382  1.00  0.00     0.182 C 
HETATM   36  C   UNL     1      91.330   8.267  35.371  1.00  0.00     0.179 C 
HETATM   37  O   UNL     1      92.225   8.690  34.277  1.00  0.00    -0.349 OA
BRANCH  33  38
HETATM   38  O   UNL     1      94.153   5.502  33.925  1.00  0.00    -0.388 OA
ATOM     39  HO  UNL     1      93.458   4.926  33.627  1.00  0.00     0.210 HD
ENDBRANCH  33  38
BRANCH  34  40
HETATM   40  N   UNL     1      93.392   5.326  36.659  1.00  0.00    -0.070 N 
ATOM     41  HN3 UNL     1      92.788   4.987  37.407  1.00  0.00     0.274 HD
ATOM     42  HN2 UNL     1      93.648   4.422  36.259  1.00  0.00     0.274 HD
ATOM     43  HN1 UNL     1      94.202   5.832  37.017  1.00  0.00     0.274 HD
ENDBRANCH  34  40
BRANCH  35  44
HETATM   44  O   UNL     1      91.129   6.966  37.389  1.00  0.00    -0.391 OA
ATOM     45  HO  UNL     1      91.141   6.020  37.477  1.00  0.00     0.210 HD
ENDBRANCH  35  44
BRANCH  36  46
HETATM   46  C   UNL     1      90.780   9.504  36.024  1.00  0.00     0.198 C 
BRANCH  46  47
HETATM   47  O   UNL     1      91.539   9.788  37.174  1.00  0.00    -0.398 OA
ATOM     48  HO  UNL     1      91.167   9.318  37.911  1.00  0.00     0.209 HD
ENDBRANCH  46  47
ENDBRANCH  36  46
ENDBRANCH  31  32
ENDBRANCH   6  31
BRANCH   1  49
HETATM   49  N   UNL     1      89.969   8.635  31.738  1.00  0.00    -0.352 N 
HETATM   50  C   UNL     1      89.494   9.868  32.381  1.00  0.00     0.246 C 
HETATM   51  O   UNL     1      90.220  10.789  32.570  1.00  0.00    -0.271 OA
ATOM     52  HN  UNL     1      89.326   7.857  31.590  1.00  0.00     0.163 HD
BRANCH  50  53
HETATM   53  C   UNL     1      88.034   9.916  32.800  1.00  0.00     0.211 C 
BRANCH  53  54
HETATM   54  C   UNL     1      87.482  11.324  32.449  1.00  0.00     0.068 C 
BRANCH  54  55
HETATM   55  C   UNL     1      87.158  12.104  33.762  1.00  0.00     0.232 C 
BRANCH  55  56
HETATM   56  N   UNL     1      88.419  12.756  34.237  1.00  0.00    -0.079 N 
ATOM     57  HN3 UNL     1      89.166  12.086  34.417  1.00  0.00     0.274 HD
ATOM     58  HN2 UNL     1      88.886  13.289  33.504  1.00  0.00     0.274 HD
ATOM     59  HN1 UNL     1      88.193  13.324  35.054  1.00  0.00     0.274 HD
ENDBRANCH  55  56
ENDBRANCH  54  55
ENDBRANCH  53  54
BRANCH  53  60
HETATM   60  O   UNL     1      87.989   9.737  34.165  1.00  0.00    -0.386 OA
ATOM     61  HO  UNL     1      88.337   8.874  34.351  1.00  0.00     0.210 HD
ENDBRANCH  53  60
ENDBRANCH  50  53
ENDBRANCH   1  49
TORSDOF 22
ENDMDL
MODEL 8
REMARK VINA RESULT:    -6.462      2.229      2.506
REMARK INTER + INTRA:         -15.664
REMARK INTER:                 -13.457
REMARK INTRA:                  -2.207
REMARK UNBOUND:                -3.158
REMARK  22 active torsions:
REMARK  status: ('A' for Active; 'I' for Inactive)
REMARK    1  A    between atoms: C_1  and  O_9 
REMARK    2  A    between atoms: C_2  and  O_47 
REMARK    3  A    between atoms: C_3  and  O_49 
REMARK    4  A    between atoms: C_4  and  O_7 
REMARK    5  A    between atoms: C_5  and  C_6 
REMARK    6  A    between atoms: C_6  and  N_11 
REMARK    7  A    between atoms: O_9  and  C_24 
REMARK    8  A    between atoms: C_15  and  N_16 
REMARK       I    between atoms: N_16  and  C_55 
REMARK    9  A    between atoms: C_19  and  N_20 
REMARK   10  A    between atoms: C_25  and  O_26 
REMARK   11  A    between atoms: C_28  and  O_29 
REMARK   12  A    between atoms: O_29  and  C_30 
REMARK   13  A    between atoms: C_31  and  O_32 
REMARK   14  A    between atoms: C_34  and  N_35 
REMARK   15  A    between atoms: C_39  and  O_40 
REMARK   16  A    between atoms: C_42  and  C_44 
REMARK   17  A    between atoms: C_44  and  O_45 
REMARK   18  A    between atoms: N_51  and  C_59 
REMARK   19  A    between atoms: C_55  and  C_57 
REMARK   20  A    between atoms: C_57  and  C_58 
REMARK   21  A    between atoms: C_57  and  O_60 
REMARK   22  A    between atoms: C_58  and  C_59 
ROOT
HETATM    1  C   UNL     1      92.596   7.617  31.481  1.00  0.00     0.118 C 
HETATM    2  C   UNL     1      91.454   7.930  32.450  1.00  0.00     0.063 C 
HETATM    3  C   UNL     1      91.638   7.146  33.763  1.00  0.00     0.217 C 
HETATM    4  C   UNL     1      92.996   7.446  34.404  1.00  0.00     0.186 C 
HETATM    5  C   UNL     1      94.117   7.096  33.413  1.00  0.00     0.180 C 
HETATM    6  C   UNL     1      93.977   7.882  32.095  1.00  0.00     0.178 C 
ENDROOT
BRANCH   4   7
HETATM    7  O   UNL     1      92.993   6.638  35.591  1.00  0.00    -0.349 OA
BRANCH   7   8
HETATM    8  C   UNL     1      94.140   6.549  36.360  1.00  0.00     0.292 C 
HETATM    9  C   UNL     1      94.200   5.132  36.908  1.00  0.00     0.204 C 
HETATM   10  C   UNL     1      93.044   4.889  37.817  1.00  0.00     0.183 C 
HETATM   11  C   UNL     1      93.048   5.847  38.967  1.00  0.00     0.180 C 
HETATM   12  C   UNL     1      93.038   7.286  38.452  1.00  0.00     0.181 C 
HETATM   13  O   UNL     1      94.126   7.512  37.496  1.00  0.00    -0.349 OA
BRANCH   9  14
HETATM   14  O   UNL     1      94.155   4.226  35.798  1.00  0.00    -0.388 OA
ATOM     15  HO  UNL     1      94.876   4.439  35.217  1.00  0.00     0.210 HD
ENDBRANCH   9  14
BRANCH  10  16
HETATM   16  O   UNL     1      93.152   3.536  38.306  1.00  0.00    -0.390 OA
ATOM     17  HO  UNL     1      93.667   3.559  39.103  1.00  0.00     0.210 HD
ENDBRANCH  10  16
BRANCH  11  18
HETATM   18  O   UNL     1      91.867   5.684  39.760  1.00  0.00    -0.390 OA
ATOM     19  HO  UNL     1      92.145   5.327  40.596  1.00  0.00     0.210 HD
ENDBRANCH  11  18
BRANCH  12  20
HETATM   20  C   UNL     1      93.222   8.257  39.576  1.00  0.00     0.264 C 
BRANCH  20  21
HETATM   21  N   UNL     1      94.105   7.674  40.571  1.00  0.00    -0.077 N 
ATOM     22  HN3 UNL     1      93.593   7.174  41.297  1.00  0.00     0.274 HD
ATOM     23  HN2 UNL     1      94.639   6.887  40.202  1.00  0.00     0.274 HD
ATOM     24  HN1 UNL     1      94.706   8.404  40.954  1.00  0.00     0.274 HD
ENDBRANCH  20  21
ENDBRANCH  12  20
ENDBRANCH   7   8
ENDBRANCH   4   7
BRANCH   3  25
HETATM   25  N   UNL     1      90.542   7.447  34.690  1.00  0.00    -0.072 N 
ATOM     26  HN3 UNL     1      90.693   7.027  35.607  1.00  0.00     0.274 HD
ATOM     27  HN2 UNL     1      90.539   8.427  34.972  1.00  0.00     0.274 HD
ATOM     28  HN1 UNL     1      89.650   7.165  34.285  1.00  0.00     0.274 HD
ENDBRANCH   3  25
BRANCH   5  29
HETATM   29  O   UNL     1      95.395   7.403  33.918  1.00  0.00    -0.390 OA
ATOM     30  HO  UNL     1      95.431   7.030  34.791  1.00  0.00     0.210 HD
ENDBRANCH   5  29
BRANCH   6  31
HETATM   31  O   UNL     1      94.999   7.428  31.219  1.00  0.00    -0.349 OA
BRANCH  31  32
HETATM   32  C   UNL     1      96.146   8.190  31.230  1.00  0.00     0.291 C 
HETATM   33  C   UNL     1      96.259   8.960  29.928  1.00  0.00     0.206 C 
HETATM   34  C   UNL     1      96.481   8.043  28.765  1.00  0.00     0.247 C 
HETATM   35  C   UNL     1      97.732   7.228  28.980  1.00  0.00     0.182 C 
HETATM   36  C   UNL     1      97.610   6.429  30.273  1.00  0.00     0.179 C 
HETATM   37  O   UNL     1      97.349   7.306  31.430  1.00  0.00    -0.349 OA
BRANCH  33  38
HETATM   38  O   UNL     1      95.056   9.728  29.732  1.00  0.00    -0.388 OA
ATOM     39  HO  UNL     1      95.266  10.651  29.647  1.00  0.00     0.210 HD
ENDBRANCH  33  38
BRANCH  34  40
HETATM   40  N   UNL     1      96.592   8.851  27.506  1.00  0.00    -0.070 N 
ATOM     41  HN3 UNL     1      97.202   8.411  26.817  1.00  0.00     0.274 HD
ATOM     42  HN2 UNL     1      95.729   8.841  26.963  1.00  0.00     0.274 HD
ATOM     43  HN1 UNL     1      96.892   9.799  27.737  1.00  0.00     0.274 HD
ENDBRANCH  34  40
BRANCH  35  44
HETATM   44  O   UNL     1      97.933   6.321  27.888  1.00  0.00    -0.391 OA
ATOM     45  HO  UNL     1      98.614   5.692  28.100  1.00  0.00     0.210 HD
ENDBRANCH  35  44
BRANCH  36  46
HETATM   46  C   UNL     1      98.869   5.655  30.554  1.00  0.00     0.198 C 
BRANCH  46  47
HETATM   47  O   UNL     1      99.966   6.368  30.039  1.00  0.00    -0.398 OA
ATOM     48  HO  UNL     1     100.725   5.796  30.025  1.00  0.00     0.209 HD
ENDBRANCH  46  47
ENDBRANCH  36  46
ENDBRANCH  31  32
ENDBRANCH   6  31
BRANCH   1  49
HETATM   49  N   UNL     1      92.387   8.445  30.288  1.00  0.00    -0.352 N 
HETATM   50  C   UNL     1      92.494   7.846  28.950  1.00  0.00     0.246 C 
HETATM   51  O   UNL     1      92.752   6.697  28.803  1.00  0.00    -0.271 OA
ATOM     52  HN  UNL     1      92.168   9.436  30.386  1.00  0.00     0.163 HD
BRANCH  50  53
HETATM   53  C   UNL     1      92.264   8.761  27.759  1.00  0.00     0.211 C 
BRANCH  53  54
HETATM   54  C   UNL     1      91.808   7.883  26.562  1.00  0.00     0.068 C 
BRANCH  54  55
HETATM   55  C   UNL     1      90.257   7.707  26.598  1.00  0.00     0.232 C 
BRANCH  55  56
HETATM   56  N   UNL     1      89.832   7.079  25.308  1.00  0.00    -0.079 N 
ATOM     57  HN3 UNL     1      89.305   6.216  25.444  1.00  0.00     0.274 HD
ATOM     58  HN2 UNL     1      89.102   7.610  24.833  1.00  0.00     0.274 HD
ATOM     59  HN1 UNL     1      90.663   6.947  24.731  1.00  0.00     0.274 HD
ENDBRANCH  55  56
ENDBRANCH  54  55
ENDBRANCH  53  54
BRANCH  53  60
HETATM   60  O   UNL     1      93.468   9.355  27.453  1.00  0.00    -0.386 OA
ATOM     61  HO  UNL     1      93.397   9.709  26.575  1.00  0.00     0.210 HD
ENDBRANCH  53  60
ENDBRANCH  50  53
ENDBRANCH   1  49
TORSDOF 22
ENDMDL
MODEL 9
REMARK VINA RESULT:    -6.371      2.400      5.446
REMARK INTER + INTRA:         -15.488
REMARK INTER:                 -12.584
REMARK INTRA:                  -2.903
REMARK UNBOUND:                -3.158
REMARK  22 active torsions:
REMARK  status: ('A' for Active; 'I' for Inactive)
REMARK    1  A    between atoms: C_1  and  O_9 
REMARK    2  A    between atoms: C_2  and  O_47 
REMARK    3  A    between atoms: C_3  and  O_49 
REMARK    4  A    between atoms: C_4  and  O_7 
REMARK    5  A    between atoms: C_5  and  C_6 
REMARK    6  A    between atoms: C_6  and  N_11 
REMARK    7  A    between atoms: O_9  and  C_24 
REMARK    8  A    between atoms: C_15  and  N_16 
REMARK       I    between atoms: N_16  and  C_55 
REMARK    9  A    between atoms: C_19  and  N_20 
REMARK   10  A    between atoms: C_25  and  O_26 
REMARK   11  A    between atoms: C_28  and  O_29 
REMARK   12  A    between atoms: O_29  and  C_30 
REMARK   13  A    between atoms: C_31  and  O_32 
REMARK   14  A    between atoms: C_34  and  N_35 
REMARK   15  A    between atoms: C_39  and  O_40 
REMARK   16  A    between atoms: C_42  and  C_44 
REMARK   17  A    between atoms: C_44  and  O_45 
REMARK   18  A    between atoms: N_51  and  C_59 
REMARK   19  A    between atoms: C_55  and  C_57 
REMARK   20  A    between atoms: C_57  and  C_58 
REMARK   21  A    between atoms: C_57  and  O_60 
REMARK   22  A    between atoms: C_58  and  C_59 
ROOT
HETATM    1  C   UNL     1      94.338   7.516  31.713  1.00  0.00     0.118 C 
HETATM    2  C   UNL     1      94.731   6.655  32.915  1.00  0.00     0.063 C 
HETATM    3  C   UNL     1      94.123   7.232  34.206  1.00  0.00     0.217 C 
HETATM    4  C   UNL     1      92.599   7.354  34.097  1.00  0.00     0.186 C 
HETATM    5  C   UNL     1      92.243   8.244  32.896  1.00  0.00     0.180 C 
HETATM    6  C   UNL     1      92.818   7.682  31.581  1.00  0.00     0.178 C 
ENDROOT
BRANCH   4   7
HETATM    7  O   UNL     1      92.214   7.904  35.366  1.00  0.00    -0.349 OA
BRANCH   7   8
HETATM    8  C   UNL     1      91.596   7.094  36.302  1.00  0.00     0.292 C 
HETATM    9  C   UNL     1      90.404   7.869  36.844  1.00  0.00     0.204 C 
HETATM   10  C   UNL     1      90.875   9.088  37.561  1.00  0.00     0.183 C 
HETATM   11  C   UNL     1      91.773   8.732  38.704  1.00  0.00     0.180 C 
HETATM   12  C   UNL     1      92.959   7.908  38.204  1.00  0.00     0.181 C 
HETATM   13  O   UNL     1      92.507   6.749  37.429  1.00  0.00    -0.349 OA
BRANCH   9  14
HETATM   14  O   UNL     1      89.576   8.238  35.734  1.00  0.00    -0.388 OA
ATOM     15  HO  UNL     1      89.883   7.765  34.970  1.00  0.00     0.210 HD
ENDBRANCH   9  14
BRANCH  10  16
HETATM   16  O   UNL     1      89.708   9.781  38.052  1.00  0.00    -0.390 OA
ATOM     17  HO  UNL     1      89.998  10.394  38.717  1.00  0.00     0.210 HD
ENDBRANCH  10  16
BRANCH  11  18
HETATM   18  O   UNL     1      92.314   9.913  39.305  1.00  0.00    -0.390 OA
ATOM     19  HO  UNL     1      93.062  10.171  38.779  1.00  0.00     0.210 HD
ENDBRANCH  11  18
BRANCH  12  20
HETATM   20  C   UNL     1      93.771   7.390  39.349  1.00  0.00     0.264 C 
BRANCH  20  21
HETATM   21  N   UNL     1      94.840   8.330  39.639  1.00  0.00    -0.077 N 
ATOM     22  HN3 UNL     1      94.696   9.233  39.187  1.00  0.00     0.274 HD
ATOM     23  HN2 UNL     1      94.823   8.649  40.608  1.00  0.00     0.274 HD
ATOM     24  HN1 UNL     1      95.735   7.909  39.385  1.00  0.00     0.274 HD
ENDBRANCH  20  21
ENDBRANCH  12  20
ENDBRANCH   7   8
ENDBRANCH   4   7
BRANCH   3  25
HETATM   25  N   UNL     1      94.502   6.407  35.358  1.00  0.00    -0.072 N 
ATOM     26  HN3 UNL     1      95.294   6.801  35.865  1.00  0.00     0.274 HD
ATOM     27  HN2 UNL     1      93.808   6.453  36.104  1.00  0.00     0.274 HD
ATOM     28  HN1 UNL     1      94.678   5.447  35.061  1.00  0.00     0.274 HD
ENDBRANCH   3  25
BRANCH   5  29
HETATM   29  O   UNL     1      90.853   8.352  32.701  1.00  0.00    -0.390 OA
ATOM     30  HO  UNL     1      90.547   8.997  33.327  1.00  0.00     0.210 HD
ENDBRANCH   5  29
BRANCH   6  31
HETATM   31  O   UNL     1      92.513   8.613  30.553  1.00  0.00    -0.349 OA
BRANCH  31  32
HETATM   32  C   UNL     1      91.522   8.208  29.686  1.00  0.00     0.291 C 
HETATM   33  C   UNL     1      92.009   8.343  28.256  1.00  0.00     0.206 C 
HETATM   34  C   UNL     1      92.215   9.777  27.877  1.00  0.00     0.247 C 
HETATM   35  C   UNL     1      90.929  10.546  28.047  1.00  0.00     0.182 C 
HETATM   36  C   UNL     1      90.451  10.439  29.491  1.00  0.00     0.179 C 
HETATM   37  O   UNL     1      90.281   9.033  29.903  1.00  0.00    -0.349 OA
BRANCH  33  38
HETATM   38  O   UNL     1      93.241   7.608  28.110  1.00  0.00    -0.388 OA
ATOM     39  HO  UNL     1      93.973   8.209  28.034  1.00  0.00     0.210 HD
ENDBRANCH  33  38
BRANCH  34  40
HETATM   40  N   UNL     1      92.689   9.855  26.456  1.00  0.00    -0.070 N 
ATOM     41  HN3 UNL     1      93.632   9.484  26.343  1.00  0.00     0.274 HD
ATOM     42  HN2 UNL     1      92.201   9.196  25.850  1.00  0.00     0.274 HD
ATOM     43  HN1 UNL     1      92.610  10.816  26.124  1.00  0.00     0.274 HD
ENDBRANCH  34  40
BRANCH  35  44
HETATM   44  O   UNL     1      91.126  11.929  27.722  1.00  0.00    -0.391 OA
ATOM     45  HO  UNL     1      90.804  12.113  26.847  1.00  0.00     0.210 HD
ENDBRANCH  35  44
BRANCH  36  46
HETATM   46  C   UNL     1      89.134  11.140  29.681  1.00  0.00     0.198 C 
BRANCH  46  47
HETATM   47  O   UNL     1      88.477  11.218  28.440  1.00  0.00    -0.398 OA
ATOM     48  HO  UNL     1      88.541  10.376  28.005  1.00  0.00     0.209 HD
ENDBRANCH  46  47
ENDBRANCH  36  46
ENDBRANCH  31  32
ENDBRANCH   6  31
BRANCH   1  49
HETATM   49  N   UNL     1      94.898   6.871  30.519  1.00  0.00    -0.352 N 
HETATM   50  C   UNL     1      96.228   7.259  30.030  1.00  0.00     0.246 C 
HETATM   51  O   UNL     1      96.871   8.094  30.576  1.00  0.00    -0.271 OA
ATOM     52  HN  UNL     1      94.364   6.153  30.030  1.00  0.00     0.163 HD
BRANCH  50  53
HETATM   53  C   UNL     1      96.747   6.548  28.791  1.00  0.00     0.211 C 
BRANCH  53  54
HETATM   54  C   UNL     1      97.350   7.619  27.842  1.00  0.00     0.068 C 
BRANCH  54  55
HETATM   55  C   UNL     1      97.517   7.018  26.410  1.00  0.00     0.232 C 
BRANCH  55  56
HETATM   56  N   UNL     1      98.538   5.925  26.483  1.00  0.00    -0.079 N 
ATOM     57  HN3 UNL     1      99.128   5.881  25.652  1.00  0.00     0.274 HD
ATOM     58  HN2 UNL     1      99.272   6.117  27.163  1.00  0.00     0.274 HD
ATOM     59  HN1 UNL     1      98.049   5.049  26.666  1.00  0.00     0.274 HD
ENDBRANCH  55  56
ENDBRANCH  54  55
ENDBRANCH  53  54
BRANCH  53  60
HETATM   60  O   UNL     1      95.670   5.950  28.175  1.00  0.00    -0.386 OA
ATOM     61  HO  UNL     1      95.993   5.181  27.721  1.00  0.00     0.210 HD
ENDBRANCH  53  60
ENDBRANCH  50  53
ENDBRANCH   1  49
TORSDOF 22
ENDMDL
MODEL 10
REMARK VINA RESULT:    -6.332      5.230      7.551
REMARK INTER + INTRA:         -15.413
REMARK INTER:                 -13.265
REMARK INTRA:                  -2.148
REMARK UNBOUND:                -3.158
REMARK  22 active torsions:
REMARK  status: ('A' for Active; 'I' for Inactive)
REMARK    1  A    between atoms: C_1  and  O_9 
REMARK    2  A    between atoms: C_2  and  O_47 
REMARK    3  A    between atoms: C_3  and  O_49 
REMARK    4  A    between atoms: C_4  and  O_7 
REMARK    5  A    between atoms: C_5  and  C_6 
REMARK    6  A    between atoms: C_6  and  N_11 
REMARK    7  A    between atoms: O_9  and  C_24 
REMARK    8  A    between atoms: C_15  and  N_16 
REMARK       I    between atoms: N_16  and  C_55 
REMARK    9  A    between atoms: C_19  and  N_20 
REMARK   10  A    between atoms: C_25  and  O_26 
REMARK   11  A    between atoms: C_28  and  O_29 
REMARK   12  A    between atoms: O_29  and  C_30 
REMARK   13  A    between atoms: C_31  and  O_32 
REMARK   14  A    between atoms: C_34  and  N_35 
REMARK   15  A    between atoms: C_39  and  O_40 
REMARK   16  A    between atoms: C_42  and  C_44 
REMARK   17  A    between atoms: C_44  and  O_45 
REMARK   18  A    between atoms: N_51  and  C_59 
REMARK   19  A    between atoms: C_55  and  C_57 
REMARK   20  A    between atoms: C_57  and  C_58 
REMARK   21  A    between atoms: C_57  and  O_60 
REMARK   22  A    between atoms: C_58  and  C_59 
ROOT
HETATM    1  C   UNL     1      91.835  10.141  30.466  1.00  0.00     0.118 C 
HETATM    2  C   UNL     1      93.211  10.503  31.028  1.00  0.00     0.063 C 
HETATM    3  C   UNL     1      94.139   9.274  30.998  1.00  0.00     0.217 C 
HETATM    4  C   UNL     1      94.261   8.704  29.581  1.00  0.00     0.186 C 
HETATM    5  C   UNL     1      92.865   8.330  29.060  1.00  0.00     0.180 C 
HETATM    6  C   UNL     1      91.915   9.544  29.054  1.00  0.00     0.178 C 
ENDROOT
BRANCH   4   7
HETATM    7  O   UNL     1      95.142   7.583  29.745  1.00  0.00    -0.349 OA
BRANCH   7   8
HETATM    8  C   UNL     1      96.005   7.237  28.720  1.00  0.00     0.292 C 
HETATM    9  C   UNL     1      96.834   6.061  29.213  1.00  0.00     0.204 C 
HETATM   10  C   UNL     1      97.674   6.481  30.370  1.00  0.00     0.183 C 
HETATM   11  C   UNL     1      98.602   7.594  29.991  1.00  0.00     0.180 C 
HETATM   12  C   UNL     1      97.805   8.777  29.443  1.00  0.00     0.181 C 
HETATM   13  O   UNL     1      96.916   8.358  28.356  1.00  0.00    -0.349 OA
BRANCH   9  14
HETATM   14  O   UNL     1      95.932   5.020  29.610  1.00  0.00    -0.388 OA
ATOM     15  HO  UNL     1      95.855   5.044  30.556  1.00  0.00     0.210 HD
ENDBRANCH   9  14
BRANCH  10  16
HETATM   16  O   UNL     1      98.436   5.331  30.795  1.00  0.00    -0.390 OA
ATOM     17  HO  UNL     1      97.879   4.568  30.700  1.00  0.00     0.210 HD
ENDBRANCH  10  16
BRANCH  11  18
HETATM   18  O   UNL     1      99.311   8.069  31.140  1.00  0.00    -0.390 OA
ATOM     19  HO  UNL     1     100.135   8.424  30.827  1.00  0.00     0.210 HD
ENDBRANCH  11  18
BRANCH  12  20
HETATM   20  C   UNL     1      98.718   9.827  28.893  1.00  0.00     0.264 C 
BRANCH  20  21
HETATM   21  N   UNL     1      98.504   9.945  27.462  1.00  0.00    -0.077 N 
ATOM     22  HN3 UNL     1      99.132   9.346  26.925  1.00  0.00     0.274 HD
ATOM     23  HN2 UNL     1      97.620   9.528  27.167  1.00  0.00     0.274 HD
ATOM     24  HN1 UNL     1      98.579  10.925  27.190  1.00  0.00     0.274 HD
ENDBRANCH  20  21
ENDBRANCH  12  20
ENDBRANCH   7   8
ENDBRANCH   4   7
BRANCH   3  25
HETATM   25  N   UNL     1      95.458   9.621  31.538  1.00  0.00    -0.072 N 
ATOM     26  HN3 UNL     1      96.096   9.941  30.810  1.00  0.00     0.274 HD
ATOM     27  HN2 UNL     1      95.428  10.474  32.097  1.00  0.00     0.274 HD
ATOM     28  HN1 UNL     1      95.841   8.836  32.063  1.00  0.00     0.274 HD
ENDBRANCH   3  25
BRANCH   5  29
HETATM   29  O   UNL     1      92.896   7.852  27.736  1.00  0.00    -0.390 OA
ATOM     30  HO  UNL     1      92.035   7.490  27.565  1.00  0.00     0.210 HD
ENDBRANCH   5  29
BRANCH   6  31
HETATM   31  O   UNL     1      90.637   9.081  28.644  1.00  0.00    -0.349 OA
BRANCH  31  32
HETATM   32  C   UNL     1      90.269   9.462  27.371  1.00  0.00     0.291 C 
HETATM   33  C   UNL     1      88.927  10.167  27.418  1.00  0.00     0.206 C 
HETATM   34  C   UNL     1      87.828   9.231  27.816  1.00  0.00     0.247 C 
HETATM   35  C   UNL     1      87.758   8.076  26.849  1.00  0.00     0.182 C 
HETATM   36  C   UNL     1      89.096   7.345  26.821  1.00  0.00     0.179 C 
HETATM   37  O   UNL     1      90.203   8.255  26.473  1.00  0.00    -0.349 OA
BRANCH  33  38
HETATM   38  O   UNL     1      89.007  11.264  28.350  1.00  0.00    -0.388 OA
ATOM     39  HO  UNL     1      88.706  10.987  29.208  1.00  0.00     0.210 HD
ENDBRANCH  33  38
BRANCH  34  40
HETATM   40  N   UNL     1      86.524   9.974  27.840  1.00  0.00    -0.070 N 
ATOM     41  HN3 UNL     1      86.115  10.065  26.911  1.00  0.00     0.274 HD
ATOM     42  HN2 UNL     1      85.778   9.430  28.274  1.00  0.00     0.274 HD
ATOM     43  HN1 UNL     1      86.657  10.877  28.293  1.00  0.00     0.274 HD
ENDBRANCH  34  40
BRANCH  35  44
HETATM   44  O   UNL     1      86.732   7.154  27.242  1.00  0.00    -0.391 OA
ATOM     45  HO  UNL     1      85.976   7.623  27.577  1.00  0.00     0.210 HD
ENDBRANCH  35  44
BRANCH  36  46
HETATM   46  C   UNL     1      89.084   6.225  25.817  1.00  0.00     0.198 C 
BRANCH  46  47
HETATM   47  O   UNL     1      89.521   6.723  24.576  1.00  0.00    -0.398 OA
ATOM     48  HO  UNL     1      89.191   7.608  24.466  1.00  0.00     0.209 HD
ENDBRANCH  46  47
ENDBRANCH  36  46
ENDBRANCH  31  32
ENDBRANCH   6  31
BRANCH   1  49
HETATM   49  N   UNL     1      91.033  11.371  30.467  1.00  0.00    -0.352 N 
HETATM   50  C   UNL     1      90.130  11.658  31.590  1.00  0.00     0.246 C 
HETATM   51  O   UNL     1      90.025  10.912  32.508  1.00  0.00    -0.271 OA
ATOM     52  HN  UNL     1      91.103  12.027  29.689  1.00  0.00     0.163 HD
BRANCH  50  53
HETATM   53  C   UNL     1      89.332  12.949  31.528  1.00  0.00     0.211 C 
BRANCH  53  54
HETATM   54  C   UNL     1      89.059  13.414  32.984  1.00  0.00     0.068 C 
BRANCH  54  55
HETATM   55  C   UNL     1      89.934  14.665  33.310  1.00  0.00     0.232 C 
BRANCH  55  56
HETATM   56  N   UNL     1      91.172  14.195  34.008  1.00  0.00    -0.079 N 
ATOM     57  HN3 UNL     1      91.021  13.345  34.550  1.00  0.00     0.274 HD
ATOM     58  HN2 UNL     1      91.870  13.824  33.364  1.00  0.00     0.274 HD
ATOM     59  HN1 UNL     1      91.528  14.966  34.574  1.00  0.00     0.274 HD
ENDBRANCH  55  56
ENDBRANCH  54  55
ENDBRANCH  53  54
BRANCH  53  60
HETATM   60  O   UNL     1      88.134  12.666  30.909  1.00  0.00    -0.386 OA
ATOM     61  HO  UNL     1      88.127  11.738  30.712  1.00  0.00     0.210 HD
ENDBRANCH  53  60
ENDBRANCH  50  53
ENDBRANCH   1  49
TORSDOF 22
ENDMDL
MODEL 11
REMARK VINA RESULT:    -6.322      2.695      7.750
REMARK INTER + INTRA:         -15.394
REMARK INTER:                 -12.228
REMARK INTRA:                  -3.166
REMARK UNBOUND:                -3.158
REMARK  22 active torsions:
REMARK  status: ('A' for Active; 'I' for Inactive)
REMARK    1  A    between atoms: C_1  and  O_9 
REMARK    2  A    between atoms: C_2  and  O_47 
REMARK    3  A    between atoms: C_3  and  O_49 
REMARK    4  A    between atoms: C_4  and  O_7 
REMARK    5  A    between atoms: C_5  and  C_6 
REMARK    6  A    between atoms: C_6  and  N_11 
REMARK    7  A    between atoms: O_9  and  C_24 
REMARK    8  A    between atoms: C_15  and  N_16 
REMARK       I    between atoms: N_16  and  C_55 
REMARK    9  A    between atoms: C_19  and  N_20 
REMARK   10  A    between atoms: C_25  and  O_26 
REMARK   11  A    between atoms: C_28  and  O_29 
REMARK   12  A    between atoms: O_29  and  C_30 
REMARK   13  A    between atoms: C_31  and  O_32 
REMARK   14  A    between atoms: C_34  and  N_35 
REMARK   15  A    between atoms: C_39  and  O_40 
REMARK   16  A    between atoms: C_42  and  C_44 
REMARK   17  A    between atoms: C_44  and  O_45 
REMARK   18  A    between atoms: N_51  and  C_59 
REMARK   19  A    between atoms: C_55  and  C_57 
REMARK   20  A    between atoms: C_57  and  C_58 
REMARK   21  A    between atoms: C_57  and  O_60 
REMARK   22  A    between atoms: C_58  and  C_59 
ROOT
HETATM    1  C   UNL     1      91.499  10.024  30.323  1.00  0.00     0.118 C 
HETATM    2  C   UNL     1      91.954   9.717  28.896  1.00  0.00     0.063 C 
HETATM    3  C   UNL     1      93.361   9.092  28.906  1.00  0.00     0.217 C 
HETATM    4  C   UNL     1      93.403   7.832  29.776  1.00  0.00     0.186 C 
HETATM    5  C   UNL     1      92.965   8.183  31.206  1.00  0.00     0.180 C 
HETATM    6  C   UNL     1      91.548   8.790  31.234  1.00  0.00     0.178 C 
ENDROOT
BRANCH   4   7
HETATM    7  O   UNL     1      94.768   7.398  29.673  1.00  0.00    -0.349 OA
BRANCH   7   8
HETATM    8  C   UNL     1      95.059   6.204  29.037  1.00  0.00     0.292 C 
HETATM    9  C   UNL     1      95.944   5.401  29.978  1.00  0.00     0.204 C 
HETATM   10  C   UNL     1      97.237   6.112  30.190  1.00  0.00     0.183 C 
HETATM   11  C   UNL     1      97.967   6.306  28.897  1.00  0.00     0.180 C 
HETATM   12  C   UNL     1      97.087   7.068  27.907  1.00  0.00     0.181 C 
HETATM   13  O   UNL     1      95.782   6.419  27.752  1.00  0.00    -0.349 OA
BRANCH   9  14
HETATM   14  O   UNL     1      95.249   5.259  31.224  1.00  0.00    -0.388 OA
ATOM     15  HO  UNL     1      94.323   5.392  31.059  1.00  0.00     0.210 HD
ENDBRANCH   9  14
BRANCH  10  16
HETATM   16  O   UNL     1      98.033   5.309  31.087  1.00  0.00    -0.390 OA
ATOM     17  HO  UNL     1      97.547   4.514  31.267  1.00  0.00     0.210 HD
ENDBRANCH  10  16
BRANCH  11  18
HETATM   18  O   UNL     1      99.143   7.097  29.099  1.00  0.00    -0.390 OA
ATOM     19  HO  UNL     1      99.883   6.559  28.844  1.00  0.00     0.210 HD
ENDBRANCH  11  18
BRANCH  12  20
HETATM   20  C   UNL     1      97.724   7.117  26.554  1.00  0.00     0.264 C 
BRANCH  20  21
HETATM   21  N   UNL     1      98.597   5.966  26.395  1.00  0.00    -0.077 N 
ATOM     22  HN3 UNL     1      98.229   5.134  26.857  1.00  0.00     0.274 HD
ATOM     23  HN2 UNL     1      98.599   5.610  25.438  1.00  0.00     0.274 HD
ATOM     24  HN1 UNL     1      99.533   6.207  26.721  1.00  0.00     0.274 HD
ENDBRANCH  20  21
ENDBRANCH  12  20
ENDBRANCH   7   8
ENDBRANCH   4   7
BRANCH   3  25
HETATM   25  N   UNL     1      93.797   8.800  27.537  1.00  0.00    -0.072 N 
ATOM     26  HN3 UNL     1      94.746   9.128  27.360  1.00  0.00     0.274 HD
ATOM     27  HN2 UNL     1      93.953   7.802  27.391  1.00  0.00     0.274 HD
ATOM     28  HN1 UNL     1      93.131   9.182  26.866  1.00  0.00     0.274 HD
ENDBRANCH   3  25
BRANCH   5  29
HETATM   29  O   UNL     1      92.924   7.055  32.048  1.00  0.00    -0.390 OA
ATOM     30  HO  UNL     1      93.209   7.353  32.903  1.00  0.00     0.210 HD
ENDBRANCH   5  29
BRANCH   6  31
HETATM   31  O   UNL     1      91.273   9.160  32.577  1.00  0.00    -0.349 OA
BRANCH  31  32
HETATM   32  C   UNL     1      90.356   8.355  33.218  1.00  0.00     0.291 C 
HETATM   33  C   UNL     1      89.299   9.216  33.884  1.00  0.00     0.206 C 
HETATM   34  C   UNL     1      89.875  10.023  35.007  1.00  0.00     0.247 C 
HETATM   35  C   UNL     1      90.502   9.110  36.031  1.00  0.00     0.182 C 
HETATM   36  C   UNL     1      91.586   8.263  35.372  1.00  0.00     0.179 C 
HETATM   37  O   UNL     1      91.053   7.490  34.234  1.00  0.00    -0.349 OA
BRANCH  33  38
HETATM   38  O   UNL     1      88.714  10.087  32.896  1.00  0.00    -0.388 OA
ATOM     39  HO  UNL     1      89.301  10.182  32.155  1.00  0.00     0.210 HD
ENDBRANCH  33  38
BRANCH  34  40
HETATM   40  N   UNL     1      88.791  10.848  35.635  1.00  0.00    -0.070 N 
ATOM     41  HN3 UNL     1      88.989  11.066  36.611  1.00  0.00     0.274 HD
ATOM     42  HN2 UNL     1      88.774  11.802  35.274  1.00  0.00     0.274 HD
ATOM     43  HN1 UNL     1      87.895  10.376  35.519  1.00  0.00     0.274 HD
ENDBRANCH  34  40
BRANCH  35  44
HETATM   44  O   UNL     1      91.088   9.875  37.092  1.00  0.00    -0.391 OA
ATOM     45  HO  UNL     1      91.980  10.120  36.872  1.00  0.00     0.210 HD
ENDBRANCH  35  44
BRANCH  36  46
HETATM   46  C   UNL     1      92.188   7.293  36.350  1.00  0.00     0.198 C 
BRANCH  46  47
HETATM   47  O   UNL     1      91.222   6.966  37.320  1.00  0.00    -0.398 OA
ATOM     48  HO  UNL     1      91.318   6.050  37.552  1.00  0.00     0.209 HD
ENDBRANCH  46  47
ENDBRANCH  36  46
ENDBRANCH  31  32
ENDBRANCH   6  31
BRANCH   1  49
HETATM   49  N   UNL     1      90.133  10.554  30.236  1.00  0.00    -0.352 N 
HETATM   50  C   UNL     1      89.910  12.005  30.169  1.00  0.00     0.246 C 
HETATM   51  O   UNL     1      90.815  12.773  30.189  1.00  0.00    -0.271 OA
ATOM     52  HN  UNL     1      89.338   9.915  30.221  1.00  0.00     0.163 HD
BRANCH  50  53
HETATM   53  C   UNL     1      88.471  12.484  30.077  1.00  0.00     0.211 C 
BRANCH  53  54
HETATM   54  C   UNL     1      88.295  13.665  31.068  1.00  0.00     0.068 C 
BRANCH  54  55
HETATM   55  C   UNL     1      87.863  14.947  30.289  1.00  0.00     0.232 C 
BRANCH  55  56
HETATM   56  N   UNL     1      87.611  14.560  28.865  1.00  0.00    -0.079 N 
ATOM     57  HN3 UNL     1      87.725  13.560  28.701  1.00  0.00     0.274 HD
ATOM     58  HN2 UNL     1      86.627  14.630  28.606  1.00  0.00     0.274 HD
ATOM     59  HN1 UNL     1      88.216  15.128  28.271  1.00  0.00     0.274 HD
ENDBRANCH  55  56
ENDBRANCH  54  55
ENDBRANCH  53  54
BRANCH  53  60
HETATM   60  O   UNL     1      87.662  11.439  30.467  1.00  0.00    -0.386 OA
ATOM     61  HO  UNL     1      87.195  11.138  29.697  1.00  0.00     0.210 HD
ENDBRANCH  53  60
ENDBRANCH  50  53
ENDBRANCH   1  49
TORSDOF 22
ENDMDL
MODEL 12
REMARK VINA RESULT:    -6.305      5.529      8.269
REMARK INTER + INTRA:         -15.360
REMARK INTER:                 -12.187
REMARK INTRA:                  -3.173
REMARK UNBOUND:                -3.158
REMARK  22 active torsions:
REMARK  status: ('A' for Active; 'I' for Inactive)
REMARK    1  A    between atoms: C_1  and  O_9 
REMARK    2  A    between atoms: C_2  and  O_47 
REMARK    3  A    between atoms: C_3  and  O_49 
REMARK    4  A    between atoms: C_4  and  O_7 
REMARK    5  A    between atoms: C_5  and  C_6 
REMARK    6  A    between atoms: C_6  and  N_11 
REMARK    7  A    between atoms: O_9  and  C_24 
REMARK    8  A    between atoms: C_15  and  N_16 
REMARK       I    between atoms: N_16  and  C_55 
REMARK    9  A    between atoms: C_19  and  N_20 
REMARK   10  A    between atoms: C_25  and  O_26 
REMARK   11  A    between atoms: C_28  and  O_29 
REMARK   12  A    between atoms: O_29  and  C_30 
REMARK   13  A    between atoms: C_31  and  O_32 
REMARK   14  A    between atoms: C_34  and  N_35 
REMARK   15  A    between atoms: C_39  and  O_40 
REMARK   16  A    between atoms: C_42  and  C_44 
REMARK   17  A    between atoms: C_44  and  O_45 
REMARK   18  A    between atoms: N_51  and  C_59 
REMARK   19  A    between atoms: C_55  and  C_57 
REMARK   20  A    between atoms: C_57  and  C_58 
REMARK   21  A    between atoms: C_57  and  O_60 
REMARK   22  A    between atoms: C_58  and  C_59 
ROOT
HETATM    1  C   UNL     1      91.044   6.332  29.172  1.00  0.00     0.118 C 
HETATM    2  C   UNL     1      89.704   6.914  28.718  1.00  0.00     0.063 C 
HETATM    3  C   UNL     1      89.453   8.271  29.400  1.00  0.00     0.217 C 
HETATM    4  C   UNL     1      90.596   9.253  29.122  1.00  0.00     0.186 C 
HETATM    5  C   UNL     1      91.920   8.646  29.612  1.00  0.00     0.180 C 
HETATM    6  C   UNL     1      92.214   7.295  28.932  1.00  0.00     0.178 C 
ENDROOT
BRANCH   4   7
HETATM    7  O   UNL     1      90.200  10.439  29.827  1.00  0.00    -0.349 OA
BRANCH   7   8
HETATM    8  C   UNL     1      90.074  11.632  29.139  1.00  0.00     0.292 C 
HETATM    9  C   UNL     1      90.813  12.691  29.944  1.00  0.00     0.204 C 
HETATM   10  C   UNL     1      90.153  12.876  31.267  1.00  0.00     0.183 C 
HETATM   11  C   UNL     1      88.728  13.306  31.107  1.00  0.00     0.180 C 
HETATM   12  C   UNL     1      87.964  12.289  30.259  1.00  0.00     0.181 C 
HETATM   13  O   UNL     1      88.650  12.041  28.987  1.00  0.00    -0.349 OA
BRANCH   9  14
HETATM   14  O   UNL     1      92.164  12.246  30.124  1.00  0.00    -0.388 OA
ATOM     15  HO  UNL     1      92.490  12.622  30.933  1.00  0.00     0.210 HD
ENDBRANCH   9  14
BRANCH  10  16
HETATM   16  O   UNL     1      90.891  13.886  31.985  1.00  0.00    -0.390 OA
ATOM     17  HO  UNL     1      91.546  14.237  31.393  1.00  0.00     0.210 HD
ENDBRANCH  10  16
BRANCH  11  18
HETATM   18  O   UNL     1      88.073  13.359  32.378  1.00  0.00    -0.390 OA
ATOM     19  HO  UNL     1      88.631  13.868  32.954  1.00  0.00     0.210 HD
ENDBRANCH  11  18
BRANCH  12  20
HETATM   20  C   UNL     1      86.590  12.785  29.936  1.00  0.00     0.264 C 
BRANCH  20  21
HETATM   21  N   UNL     1      86.671  14.172  29.512  1.00  0.00    -0.077 N 
ATOM     22  HN3 UNL     1      87.628  14.526  29.524  1.00  0.00     0.274 HD
ATOM     23  HN2 UNL     1      86.489  14.284  28.514  1.00  0.00     0.274 HD
ATOM     24  HN1 UNL     1      86.044  14.736  30.086  1.00  0.00     0.274 HD
ENDBRANCH  20  21
ENDBRANCH  12  20
ENDBRANCH   7   8
ENDBRANCH   4   7
BRANCH   3  25
HETATM   25  N   UNL     1      88.168   8.827  28.965  1.00  0.00    -0.072 N 
ATOM     26  HN3 UNL     1      88.247   9.320  28.075  1.00  0.00     0.274 HD
ATOM     27  HN2 UNL     1      87.515   8.098  28.675  1.00  0.00     0.274 HD
ATOM     28  HN1 UNL     1      87.775   9.421  29.695  1.00  0.00     0.274 HD
ENDBRANCH   3  25
BRANCH   5  29
HETATM   29  O   UNL     1      93.025   9.473  29.335  1.00  0.00    -0.390 OA
ATOM     30  HO  UNL     1      93.080  10.092  30.053  1.00  0.00     0.210 HD
ENDBRANCH   5  29
BRANCH   6  31
HETATM   31  O   UNL     1      93.403   6.778  29.512  1.00  0.00    -0.349 OA
BRANCH  31  32
HETATM   32  C   UNL     1      94.361   6.383  28.604  1.00  0.00     0.291 C 
HETATM   33  C   UNL     1      95.164   5.231  29.179  1.00  0.00     0.206 C 
HETATM   34  C   UNL     1      95.981   5.664  30.357  1.00  0.00     0.247 C 
HETATM   35  C   UNL     1      96.914   6.780  29.957  1.00  0.00     0.182 C 
HETATM   36  C   UNL     1      96.109   7.953  29.407  1.00  0.00     0.179 C 
HETATM   37  O   UNL     1      95.262   7.543  28.270  1.00  0.00    -0.349 OA
BRANCH  33  38
HETATM   38  O   UNL     1      94.260   4.176  29.563  1.00  0.00    -0.388 OA
ATOM     39  HO  UNL     1      94.093   3.603  28.823  1.00  0.00     0.210 HD
ENDBRANCH  33  38
BRANCH  34  40
HETATM   40  N   UNL     1      96.759   4.494  30.882  1.00  0.00    -0.070 N 
ATOM     41  HN3 UNL     1      96.885   3.767  30.178  1.00  0.00     0.274 HD
ATOM     42  HN2 UNL     1      97.742   4.721  31.033  1.00  0.00     0.274 HD
ATOM     43  HN1 UNL     1      96.311   4.140  31.726  1.00  0.00     0.274 HD
ENDBRANCH  34  40
BRANCH  35  44
HETATM   44  O   UNL     1      97.675   7.227  31.087  1.00  0.00    -0.391 OA
ATOM     45  HO  UNL     1      98.447   6.685  31.203  1.00  0.00     0.210 HD
ENDBRANCH  35  44
BRANCH  36  46
HETATM   46  C   UNL     1      97.012   9.059  28.935  1.00  0.00     0.198 C 
BRANCH  46  47
HETATM   47  O   UNL     1      98.180   8.492  28.392  1.00  0.00    -0.398 OA
ATOM     48  HO  UNL     1      98.863   8.506  29.052  1.00  0.00     0.209 HD
ENDBRANCH  46  47
ENDBRANCH  36  46
ENDBRANCH  31  32
ENDBRANCH   6  31
BRANCH   1  49
HETATM   49  N   UNL     1      91.241   5.078  28.435  1.00  0.00    -0.352 N 
HETATM   50  C   UNL     1      90.742   3.813  28.992  1.00  0.00     0.246 C 
HETATM   51  O   UNL     1      90.180   3.773  30.038  1.00  0.00    -0.271 OA
ATOM     52  HN  UNL     1      91.724   5.084  27.537  1.00  0.00     0.163 HD
BRANCH  50  53
HETATM   53  C   UNL     1      90.978   2.553  28.176  1.00  0.00     0.211 C 
BRANCH  53  54
HETATM   54  C   UNL     1      92.319   1.924  28.641  1.00  0.00     0.068 C 
BRANCH  54  55
HETATM   55  C   UNL     1      93.059   1.297  27.418  1.00  0.00     0.232 C 
BRANCH  55  56
HETATM   56  N   UNL     1      94.089   2.276  26.949  1.00  0.00    -0.079 N 
ATOM     57  HN3 UNL     1      94.993   2.147  27.404  1.00  0.00     0.274 HD
ATOM     58  HN2 UNL     1      94.392   2.101  25.991  1.00  0.00     0.274 HD
ATOM     59  HN1 UNL     1      93.714   3.216  27.078  1.00  0.00     0.274 HD
ENDBRANCH  55  56
ENDBRANCH  54  55
ENDBRANCH  53  54
BRANCH  53  60
HETATM   60  O   UNL     1      91.087   2.930  26.855  1.00  0.00    -0.386 OA
ATOM     61  HO  UNL     1      91.624   3.713  26.826  1.00  0.00     0.210 HD
ENDBRANCH  53  60
ENDBRANCH  50  53
ENDBRANCH   1  49
TORSDOF 22
ENDMDL
MODEL 13
REMARK VINA RESULT:    -6.268      2.812      8.824
REMARK INTER + INTRA:         -15.289
REMARK INTER:                 -13.211
REMARK INTRA:                  -2.078
REMARK UNBOUND:                -3.158
REMARK  22 active torsions:
REMARK  status: ('A' for Active; 'I' for Inactive)
REMARK    1  A    between atoms: C_1  and  O_9 
REMARK    2  A    between atoms: C_2  and  O_47 
REMARK    3  A    between atoms: C_3  and  O_49 
REMARK    4  A    between atoms: C_4  and  O_7 
REMARK    5  A    between atoms: C_5  and  C_6 
REMARK    6  A    between atoms: C_6  and  N_11 
REMARK    7  A    between atoms: O_9  and  C_24 
REMARK    8  A    between atoms: C_15  and  N_16 
REMARK       I    between atoms: N_16  and  C_55 
REMARK    9  A    between atoms: C_19  and  N_20 
REMARK   10  A    between atoms: C_25  and  O_26 
REMARK   11  A    between atoms: C_28  and  O_29 
REMARK   12  A    between atoms: O_29  and  C_30 
REMARK   13  A    between atoms: C_31  and  O_32 
REMARK   14  A    between atoms: C_34  and  N_35 
REMARK   15  A    between atoms: C_39  and  O_40 
REMARK   16  A    between atoms: C_42  and  C_44 
REMARK   17  A    between atoms: C_44  and  O_45 
REMARK   18  A    between atoms: N_51  and  C_59 
REMARK   19  A    between atoms: C_55  and  C_57 
REMARK   20  A    between atoms: C_57  and  C_58 
REMARK   21  A    between atoms: C_57  and  O_60 
REMARK   22  A    between atoms: C_58  and  C_59 
ROOT
HETATM    1  C   UNL     1      93.502   6.652  33.086  1.00  0.00     0.118 C 
HETATM    2  C   UNL     1      94.591   5.615  32.807  1.00  0.00     0.063 C 
HETATM    3  C   UNL     1      95.313   5.943  31.487  1.00  0.00     0.217 C 
HETATM    4  C   UNL     1      95.900   7.358  31.510  1.00  0.00     0.186 C 
HETATM    5  C   UNL     1      94.776   8.372  31.769  1.00  0.00     0.180 C 
HETATM    6  C   UNL     1      94.045   8.087  33.096  1.00  0.00     0.178 C 
ENDROOT
BRANCH   4   7
HETATM    7  O   UNL     1      96.518   7.487  30.221  1.00  0.00    -0.349 OA
BRANCH   7   8
HETATM    8  C   UNL     1      97.790   8.023  30.124  1.00  0.00     0.292 C 
HETATM    9  C   UNL     1      97.888   8.695  28.763  1.00  0.00     0.204 C 
HETATM   10  C   UNL     1      97.757   7.677  27.682  1.00  0.00     0.183 C 
HETATM   11  C   UNL     1      98.833   6.640  27.782  1.00  0.00     0.180 C 
HETATM   12  C   UNL     1      98.797   5.976  29.157  1.00  0.00     0.181 C 
HETATM   13  O   UNL     1      98.845   6.976  30.228  1.00  0.00    -0.349 OA
BRANCH   9  14
HETATM   14  O   UNL     1      96.827   9.655  28.667  1.00  0.00    -0.388 OA
ATOM     15  HO  UNL     1      97.216  10.522  28.671  1.00  0.00     0.210 HD
ENDBRANCH   9  14
BRANCH  10  16
HETATM   16  O   UNL     1      97.857   8.368  26.419  1.00  0.00    -0.390 OA
ATOM     17  HO  UNL     1      98.744   8.254  26.100  1.00  0.00     0.210 HD
ENDBRANCH  10  16
BRANCH  11  18
HETATM   18  O   UNL     1      98.622   5.604  26.817  1.00  0.00    -0.390 OA
ATOM     19  HO  UNL     1      99.032   4.820  27.162  1.00  0.00     0.210 HD
ENDBRANCH  11  18
BRANCH  12  20
HETATM   20  C   UNL     1      99.971   5.067  29.343  1.00  0.00     0.264 C 
BRANCH  20  21
HETATM   21  N   UNL     1     101.016   5.439  28.405  1.00  0.00    -0.077 N 
ATOM     22  HN3 UNL     1     101.459   6.325  28.649  1.00  0.00     0.274 HD
ATOM     23  HN2 UNL     1     101.839   4.840  28.484  1.00  0.00     0.274 HD
ATOM     24  HN1 UNL     1     100.632   5.447  27.460  1.00  0.00     0.274 HD
ENDBRANCH  20  21
ENDBRANCH  12  20
ENDBRANCH   7   8
ENDBRANCH   4   7
BRANCH   3  25
HETATM   25  N   UNL     1      96.356   4.947  31.219  1.00  0.00    -0.072 N 
ATOM     26  HN3 UNL     1      96.887   5.168  30.377  1.00  0.00     0.274 HD
ATOM     27  HN2 UNL     1      97.118   5.001  31.895  1.00  0.00     0.274 HD
ATOM     28  HN1 UNL     1      95.950   4.013  31.178  1.00  0.00     0.274 HD
ENDBRANCH   3  25
BRANCH   5  29
HETATM   29  O   UNL     1      95.254   9.693  31.861  1.00  0.00    -0.390 OA
ATOM     30  HO  UNL     1      96.071   9.646  32.343  1.00  0.00     0.210 HD
ENDBRANCH   5  29
BRANCH   6  31
HETATM   31  O   UNL     1      92.977   9.017  33.200  1.00  0.00    -0.349 OA
BRANCH  31  32
HETATM   32  C   UNL     1      91.860   8.694  32.459  1.00  0.00     0.291 C 
HETATM   33  C   UNL     1      91.327   9.937  31.771  1.00  0.00     0.206 C 
HETATM   34  C   UNL     1      90.795  10.927  32.761  1.00  0.00     0.247 C 
HETATM   35  C   UNL     1      89.700  10.297  33.584  1.00  0.00     0.182 C 
HETATM   36  C   UNL     1      90.239   9.064  34.302  1.00  0.00     0.179 C 
HETATM   37  O   UNL     1      90.809   8.090  33.352  1.00  0.00    -0.349 OA
BRANCH  33  38
HETATM   38  O   UNL     1      92.385  10.531  30.994  1.00  0.00    -0.388 OA
ATOM     39  HO  UNL     1      92.192  10.456  30.066  1.00  0.00     0.210 HD
ENDBRANCH  33  38
BRANCH  34  40
HETATM   40  N   UNL     1      90.275  12.131  32.031  1.00  0.00    -0.070 N 
ATOM     41  HN3 UNL     1      90.798  12.319  31.176  1.00  0.00     0.274 HD
ATOM     42  HN2 UNL     1      89.362  11.962  31.608  1.00  0.00     0.274 HD
ATOM     43  HN1 UNL     1      90.266  12.932  32.662  1.00  0.00     0.274 HD
ENDBRANCH  34  40
BRANCH  35  44
HETATM   44  O   UNL     1      89.208  11.226  34.559  1.00  0.00    -0.391 OA
ATOM     45  HO  UNL     1      88.777  10.765  35.269  1.00  0.00     0.210 HD
ENDBRANCH  35  44
BRANCH  36  46
HETATM   46  C   UNL     1      89.155   8.371  35.081  1.00  0.00     0.198 C 
BRANCH  46  47
HETATM   47  O   UNL     1      89.750   7.480  35.993  1.00  0.00    -0.398 OA
ATOM     48  HO  UNL     1      89.692   6.599  35.644  1.00  0.00     0.209 HD
ENDBRANCH  46  47
ENDBRANCH  36  46
ENDBRANCH  31  32
ENDBRANCH   6  31
BRANCH   1  49
HETATM   49  N   UNL     1      92.907   6.312  34.384  1.00  0.00    -0.352 N 
HETATM   50  C   UNL     1      93.640   6.596  35.626  1.00  0.00     0.246 C 
HETATM   51  O   UNL     1      94.717   7.095  35.610  1.00  0.00    -0.271 OA
ATOM     52  HN  UNL     1      91.984   5.879  34.425  1.00  0.00     0.163 HD
BRANCH  50  53
HETATM   53  C   UNL     1      92.964   6.220  36.934  1.00  0.00     0.211 C 
BRANCH  53  54
HETATM   54  C   UNL     1      93.967   5.378  37.768  1.00  0.00     0.068 C 
BRANCH  54  55
HETATM   55  C   UNL     1      94.292   6.118  39.104  1.00  0.00     0.232 C 
BRANCH  55  56
HETATM   56  N   UNL     1      94.800   7.484  38.765  1.00  0.00    -0.079 N 
ATOM     57  HN3 UNL     1      95.083   8.015  39.589  1.00  0.00     0.274 HD
ATOM     58  HN2 UNL     1      95.706   7.463  38.298  1.00  0.00     0.274 HD
ATOM     59  HN1 UNL     1      94.084   7.961  38.216  1.00  0.00     0.274 HD
ENDBRANCH  55  56
ENDBRANCH  54  55
ENDBRANCH  53  54
BRANCH  53  60
HETATM   60  O   UNL     1      91.868   5.445  36.625  1.00  0.00    -0.386 OA
ATOM     61  HO  UNL     1      91.114   5.836  37.050  1.00  0.00     0.210 HD
ENDBRANCH  53  60
ENDBRANCH  50  53
ENDBRANCH   1  49
TORSDOF 22
ENDMDL
MODEL 14
REMARK VINA RESULT:    -6.266      2.606      7.642
REMARK INTER + INTRA:         -15.285
REMARK INTER:                 -12.494
REMARK INTRA:                  -2.790
REMARK UNBOUND:                -3.158
REMARK  22 active torsions:
REMARK  status: ('A' for Active; 'I' for Inactive)
REMARK    1  A    between atoms: C_1  and  O_9 
REMARK    2  A    between atoms: C_2  and  O_47 
REMARK    3  A    between atoms: C_3  and  O_49 
REMARK    4  A    between atoms: C_4  and  O_7 
REMARK    5  A    between atoms: C_5  and  C_6 
REMARK    6  A    between atoms: C_6  and  N_11 
REMARK    7  A    between atoms: O_9  and  C_24 
REMARK    8  A    between atoms: C_15  and  N_16 
REMARK       I    between atoms: N_16  and  C_55 
REMARK    9  A    between atoms: C_19  and  N_20 
REMARK   10  A    between atoms: C_25  and  O_26 
REMARK   11  A    between atoms: C_28  and  O_29 
REMARK   12  A    between atoms: O_29  and  C_30 
REMARK   13  A    between atoms: C_31  and  O_32 
REMARK   14  A    between atoms: C_34  and  N_35 
REMARK   15  A    between atoms: C_39  and  O_40 
REMARK   16  A    between atoms: C_42  and  C_44 
REMARK   17  A    between atoms: C_44  and  O_45 
REMARK   18  A    between atoms: N_51  and  C_59 
REMARK   19  A    between atoms: C_55  and  C_57 
REMARK   20  A    between atoms: C_57  and  C_58 
REMARK   21  A    between atoms: C_57  and  O_60 
REMARK   22  A    between atoms: C_58  and  C_59 
ROOT
HETATM    1  C   UNL     1      91.231   9.689  30.127  1.00  0.00     0.118 C 
HETATM    2  C   UNL     1      91.491   9.407  28.646  1.00  0.00     0.063 C 
HETATM    3  C   UNL     1      92.949   8.961  28.435  1.00  0.00     0.217 C 
HETATM    4  C   UNL     1      93.285   7.735  29.291  1.00  0.00     0.186 C 
HETATM    5  C   UNL     1      93.036   8.063  30.771  1.00  0.00     0.180 C 
HETATM    6  C   UNL     1      91.577   8.492  31.022  1.00  0.00     0.178 C 
ENDROOT
BRANCH   4   7
HETATM    7  O   UNL     1      94.660   7.471  28.974  1.00  0.00    -0.349 OA
BRANCH   7   8
HETATM    8  C   UNL     1      95.660   8.088  29.705  1.00  0.00     0.292 C 
HETATM    9  C   UNL     1      96.610   8.729  28.705  1.00  0.00     0.204 C 
HETATM   10  C   UNL     1      97.260   7.677  27.874  1.00  0.00     0.183 C 
HETATM   11  C   UNL     1      98.036   6.718  28.723  1.00  0.00     0.180 C 
HETATM   12  C   UNL     1      97.122   6.089  29.774  1.00  0.00     0.181 C 
HETATM   13  O   UNL     1      96.417   7.118  30.545  1.00  0.00    -0.349 OA
BRANCH   9  14
HETATM   14  O   UNL     1      95.846   9.613  27.874  1.00  0.00    -0.388 OA
ATOM     15  HO  UNL     1      95.057   9.849  28.346  1.00  0.00     0.210 HD
ENDBRANCH   9  14
BRANCH  10  16
HETATM   16  O   UNL     1      98.147   8.339  26.948  1.00  0.00    -0.390 OA
ATOM     17  HO  UNL     1      97.651   9.025  26.518  1.00  0.00     0.210 HD
ENDBRANCH  10  16
BRANCH  11  18
HETATM   18  O   UNL     1      98.550   5.644  27.927  1.00  0.00    -0.390 OA
ATOM     19  HO  UNL     1      98.575   4.876  28.485  1.00  0.00     0.210 HD
ENDBRANCH  11  18
BRANCH  12  20
HETATM   20  C   UNL     1      97.909   5.266  30.745  1.00  0.00     0.264 C 
BRANCH  20  21
HETATM   21  N   UNL     1      97.067   4.201  31.261  1.00  0.00    -0.077 N 
ATOM     22  HN3 UNL     1      96.077   4.371  31.086  1.00  0.00     0.274 HD
ATOM     23  HN2 UNL     1      97.162   3.338  30.725  1.00  0.00     0.274 HD
ATOM     24  HN1 UNL     1      97.267   4.066  32.252  1.00  0.00     0.274 HD
ENDBRANCH  20  21
ENDBRANCH  12  20
ENDBRANCH   7   8
ENDBRANCH   4   7
BRANCH   3  25
HETATM   25  N   UNL     1      93.197   8.692  27.015  1.00  0.00    -0.072 N 
ATOM     26  HN3 UNL     1      92.826   7.787  26.728  1.00  0.00     0.274 HD
ATOM     27  HN2 UNL     1      92.628   9.285  26.410  1.00  0.00     0.274 HD
ATOM     28  HN1 UNL     1      94.191   8.780  26.808  1.00  0.00     0.274 HD
ENDBRANCH   3  25
BRANCH   5  29
HETATM   29  O   UNL     1      93.270   6.958  31.613  1.00  0.00    -0.390 OA
ATOM     30  HO  UNL     1      94.145   6.650  31.408  1.00  0.00     0.210 HD
ENDBRANCH   5  29
BRANCH   6  31
HETATM   31  O   UNL     1      91.472   8.855  32.391  1.00  0.00    -0.349 OA
BRANCH  31  32
HETATM   32  C   UNL     1      90.651   8.041  33.141  1.00  0.00     0.291 C 
HETATM   33  C   UNL     1      89.673   8.891  33.930  1.00  0.00     0.206 C 
HETATM   34  C   UNL     1      90.372   9.708  34.973  1.00  0.00     0.247 C 
HETATM   35  C   UNL     1      91.131   8.805  35.913  1.00  0.00     0.182 C 
HETATM   36  C   UNL     1      92.137   7.971  35.128  1.00  0.00     0.179 C 
HETATM   37  O   UNL     1      91.479   7.188  34.065  1.00  0.00    -0.349 OA
BRANCH  33  38
HETATM   38  O   UNL     1      88.960   9.751  33.021  1.00  0.00    -0.388 OA
ATOM     39  HO  UNL     1      88.611  10.503  33.486  1.00  0.00     0.210 HD
ENDBRANCH  33  38
BRANCH  34  40
HETATM   40  N   UNL     1      89.363  10.522  35.728  1.00  0.00    -0.070 N 
ATOM     41  HN3 UNL     1      88.753  11.052  35.107  1.00  0.00     0.274 HD
ATOM     42  HN2 UNL     1      88.651   9.940  36.170  1.00  0.00     0.274 HD
ATOM     43  HN1 UNL     1      89.844  11.120  36.399  1.00  0.00     0.274 HD
ENDBRANCH  34  40
BRANCH  35  44
HETATM   44  O   UNL     1      91.834   9.581  36.894  1.00  0.00    -0.391 OA
ATOM     45  HO  UNL     1      91.229  10.129  37.380  1.00  0.00     0.210 HD
ENDBRANCH  35  44
BRANCH  36  46
HETATM   46  C   UNL     1      92.867   7.011  36.026  1.00  0.00     0.198 C 
BRANCH  46  47
HETATM   47  O   UNL     1      92.033   6.678  37.109  1.00  0.00    -0.398 OA
ATOM     48  HO  UNL     1      91.901   5.737  37.117  1.00  0.00     0.209 HD
ENDBRANCH  46  47
ENDBRANCH  36  46
ENDBRANCH  31  32
ENDBRANCH   6  31
BRANCH   1  49
HETATM   49  N   UNL     1      89.813  10.044  30.256  1.00  0.00    -0.352 N 
HETATM   50  C   UNL     1      89.373  11.421  29.992  1.00  0.00     0.246 C 
HETATM   51  O   UNL     1      90.143  12.269  29.678  1.00  0.00    -0.271 OA
ATOM     52  HN  UNL     1      89.132   9.335  30.528  1.00  0.00     0.163 HD
BRANCH  50  53
HETATM   53  C   UNL     1      87.891  11.718  30.142  1.00  0.00     0.211 C 
BRANCH  53  54
HETATM   54  C   UNL     1      87.746  13.128  30.776  1.00  0.00     0.068 C 
BRANCH  54  55
HETATM   55  C   UNL     1      87.061  14.095  29.760  1.00  0.00     0.232 C 
BRANCH  55  56
HETATM   56  N   UNL     1      88.082  14.493  28.740  1.00  0.00    -0.079 N 
ATOM     57  HN3 UNL     1      87.887  15.403  28.321  1.00  0.00     0.274 HD
ATOM     58  HN2 UNL     1      88.984  14.724  29.155  1.00  0.00     0.274 HD
ATOM     59  HN1 UNL     1      88.145  13.746  28.048  1.00  0.00     0.274 HD
ENDBRANCH  55  56
ENDBRANCH  54  55
ENDBRANCH  53  54
BRANCH  53  60
HETATM   60  O   UNL     1      87.364  10.778  31.000  1.00  0.00    -0.386 OA
ATOM     61  HO  UNL     1      87.324   9.954  30.529  1.00  0.00     0.210 HD
ENDBRANCH  53  60
ENDBRANCH  50  53
ENDBRANCH   1  49
TORSDOF 22
ENDMDL
MODEL 15
REMARK VINA RESULT:    -6.234      2.622      8.468
REMARK INTER + INTRA:         -15.222
REMARK INTER:                 -12.190
REMARK INTRA:                  -3.033
REMARK UNBOUND:                -3.158
REMARK  22 active torsions:
REMARK  status: ('A' for Active; 'I' for Inactive)
REMARK    1  A    between atoms: C_1  and  O_9 
REMARK    2  A    between atoms: C_2  and  O_47 
REMARK    3  A    between atoms: C_3  and  O_49 
REMARK    4  A    between atoms: C_4  and  O_7 
REMARK    5  A    between atoms: C_5  and  C_6 
REMARK    6  A    between atoms: C_6  and  N_11 
REMARK    7  A    between atoms: O_9  and  C_24 
REMARK    8  A    between atoms: C_15  and  N_16 
REMARK       I    between atoms: N_16  and  C_55 
REMARK    9  A    between atoms: C_19  and  N_20 
REMARK   10  A    between atoms: C_25  and  O_26 
REMARK   11  A    between atoms: C_28  and  O_29 
REMARK   12  A    between atoms: O_29  and  C_30 
REMARK   13  A    between atoms: C_31  and  O_32 
REMARK   14  A    between atoms: C_34  and  N_35 
REMARK   15  A    between atoms: C_39  and  O_40 
REMARK   16  A    between atoms: C_42  and  C_44 
REMARK   17  A    between atoms: C_44  and  O_45 
REMARK   18  A    between atoms: N_51  and  C_59 
REMARK   19  A    between atoms: C_55  and  C_57 
REMARK   20  A    between atoms: C_57  and  C_58 
REMARK   21  A    between atoms: C_57  and  O_60 
REMARK   22  A    between atoms: C_58  and  C_59 
ROOT
HETATM    1  C   UNL     1      91.622   8.203  35.215  1.00  0.00     0.118 C 
HETATM    2  C   UNL     1      91.288   8.972  33.936  1.00  0.00     0.063 C 
HETATM    3  C   UNL     1      92.505   8.993  32.993  1.00  0.00     0.217 C 
HETATM    4  C   UNL     1      92.981   7.574  32.667  1.00  0.00     0.186 C 
HETATM    5  C   UNL     1      93.330   6.841  33.972  1.00  0.00     0.180 C 
HETATM    6  C   UNL     1      92.126   6.782  34.932  1.00  0.00     0.178 C 
ENDROOT
BRANCH   4   7
HETATM    7  O   UNL     1      94.104   7.787  31.799  1.00  0.00    -0.349 OA
BRANCH   7   8
HETATM    8  C   UNL     1      95.373   7.903  32.338  1.00  0.00     0.292 C 
HETATM    9  C   UNL     1      96.094   8.986  31.551  1.00  0.00     0.204 C 
HETATM   10  C   UNL     1      96.259   8.559  30.133  1.00  0.00     0.183 C 
HETATM   11  C   UNL     1      97.049   7.291  30.036  1.00  0.00     0.180 C 
HETATM   12  C   UNL     1      96.379   6.191  30.857  1.00  0.00     0.181 C 
HETATM   13  O   UNL     1      96.141   6.630  32.235  1.00  0.00    -0.349 OA
BRANCH   9  14
HETATM   14  O   UNL     1      95.305  10.181  31.619  1.00  0.00    -0.388 OA
ATOM     15  HO  UNL     1      95.260  10.450  32.529  1.00  0.00     0.210 HD
ENDBRANCH   9  14
BRANCH  10  16
HETATM   16  O   UNL     1      96.946   9.620  29.436  1.00  0.00    -0.390 OA
ATOM     17  HO  UNL     1      97.876   9.511  29.595  1.00  0.00     0.210 HD
ENDBRANCH  10  16
BRANCH  11  18
HETATM   18  O   UNL     1      97.092   6.829  28.682  1.00  0.00    -0.390 OA
ATOM     19  HO  UNL     1      97.977   6.520  28.525  1.00  0.00     0.210 HD
ENDBRANCH  11  18
BRANCH  12  20
HETATM   20  C   UNL     1      97.243   4.970  30.921  1.00  0.00     0.264 C 
BRANCH  20  21
HETATM   21  N   UNL     1      98.604   5.330  30.566  1.00  0.00    -0.077 N 
ATOM     22  HN3 UNL     1      98.713   6.332  30.410  1.00  0.00     0.274 HD
ATOM     23  HN2 UNL     1      99.248   5.236  31.353  1.00  0.00     0.274 HD
ATOM     24  HN1 UNL     1      98.897   4.779  29.759  1.00  0.00     0.274 HD
ENDBRANCH  20  21
ENDBRANCH  12  20
ENDBRANCH   7   8
ENDBRANCH   4   7
BRANCH   3  25
HETATM   25  N   UNL     1      92.184   9.732  31.767  1.00  0.00    -0.072 N 
ATOM     26  HN3 UNL     1      92.295  10.739  31.889  1.00  0.00     0.274 HD
ATOM     27  HN2 UNL     1      92.886   9.591  31.041  1.00  0.00     0.274 HD
ATOM     28  HN1 UNL     1      91.248   9.489  31.444  1.00  0.00     0.274 HD
ENDBRANCH   3  25
BRANCH   5  29
HETATM   29  O   UNL     1      93.721   5.507  33.751  1.00  0.00    -0.390 OA
ATOM     30  HO  UNL     1      93.490   5.030  34.539  1.00  0.00     0.210 HD
ENDBRANCH   5  29
BRANCH   6  31
HETATM   31  O   UNL     1      92.571   6.169  36.133  1.00  0.00    -0.349 OA
BRANCH  31  32
HETATM   32  C   UNL     1      93.855   6.503  36.507  1.00  0.00     0.291 C 
HETATM   33  C   UNL     1      94.494   5.334  37.233  1.00  0.00     0.206 C 
HETATM   34  C   UNL     1      93.824   5.070  38.546  1.00  0.00     0.247 C 
HETATM   35  C   UNL     1      93.888   6.301  39.415  1.00  0.00     0.182 C 
HETATM   36  C   UNL     1      93.219   7.471  38.702  1.00  0.00     0.179 C 
HETATM   37  O   UNL     1      93.834   7.725  37.385  1.00  0.00    -0.349 OA
BRANCH  33  38
HETATM   38  O   UNL     1      94.420   4.165  36.394  1.00  0.00    -0.388 OA
ATOM     39  HO  UNL     1      94.773   4.357  35.532  1.00  0.00     0.210 HD
ENDBRANCH  33  38
BRANCH  34  40
HETATM   40  N   UNL     1      94.496   3.913  39.225  1.00  0.00    -0.070 N 
ATOM     41  HN3 UNL     1      95.478   4.102  39.428  1.00  0.00     0.274 HD
ATOM     42  HN2 UNL     1      94.172   3.787  40.184  1.00  0.00     0.274 HD
ATOM     43  HN1 UNL     1      94.374   3.072  38.663  1.00  0.00     0.274 HD
ENDBRANCH  34  40
BRANCH  35  44
HETATM   44  O   UNL     1      93.217   6.070  40.661  1.00  0.00    -0.391 OA
ATOM     45  HO  UNL     1      92.423   6.590  40.712  1.00  0.00     0.210 HD
ENDBRANCH  35  44
BRANCH  36  46
HETATM   46  C   UNL     1      93.323   8.733  39.513  1.00  0.00     0.198 C 
BRANCH  46  47
HETATM   47  O   UNL     1      93.595   9.809  38.647  1.00  0.00    -0.398 OA
ATOM     48  HO  UNL     1      94.017  10.502  39.142  1.00  0.00     0.209 HD
ENDBRANCH  46  47
ENDBRANCH  36  46
ENDBRANCH  31  32
ENDBRANCH   6  31
BRANCH   1  49
HETATM   49  N   UNL     1      90.401   8.171  36.030  1.00  0.00    -0.352 N 
HETATM   50  C   UNL     1      90.221   9.140  37.121  1.00  0.00     0.246 C 
HETATM   51  O   UNL     1      91.047   9.956  37.369  1.00  0.00    -0.271 OA
ATOM     52  HN  UNL     1      89.679   7.478  35.839  1.00  0.00     0.163 HD
BRANCH  50  53
HETATM   53  C   UNL     1      88.933   9.052  37.922  1.00  0.00     0.211 C 
BRANCH  53  54
HETATM   54  C   UNL     1      89.286   9.246  39.421  1.00  0.00     0.068 C 
BRANCH  54  55
HETATM   55  C   UNL     1      89.555   7.858  40.083  1.00  0.00     0.232 C 
BRANCH  55  56
HETATM   56  N   UNL     1      88.278   7.387  40.706  1.00  0.00    -0.079 N 
ATOM     57  HN3 UNL     1      87.758   6.748  40.105  1.00  0.00     0.274 HD
ATOM     58  HN2 UNL     1      88.433   6.747  41.485  1.00  0.00     0.274 HD
ATOM     59  HN1 UNL     1      87.735   8.208  40.973  1.00  0.00     0.274 HD
ENDBRANCH  55  56
ENDBRANCH  54  55
ENDBRANCH  53  54
BRANCH  53  60
HETATM   60  O   UNL     1      88.416   7.788  37.737  1.00  0.00    -0.386 OA
ATOM     61  HO  UNL     1      89.009   7.174  38.154  1.00  0.00     0.210 HD
ENDBRANCH  53  60
ENDBRANCH  50  53
ENDBRANCH   1  49
TORSDOF 22
ENDMDL
MODEL 16
REMARK VINA RESULT:    -6.199      2.616      7.649
REMARK INTER + INTRA:         -15.155
REMARK INTER:                 -12.180
REMARK INTRA:                  -2.975
REMARK UNBOUND:                -3.158
REMARK  22 active torsions:
REMARK  status: ('A' for Active; 'I' for Inactive)
REMARK    1  A    between atoms: C_1  and  O_9 
REMARK    2  A    between atoms: C_2  and  O_47 
REMARK    3  A    between atoms: C_3  and  O_49 
REMARK    4  A    between atoms: C_4  and  O_7 
REMARK    5  A    between atoms: C_5  and  C_6 
REMARK    6  A    between atoms: C_6  and  N_11 
REMARK    7  A    between atoms: O_9  and  C_24 
REMARK    8  A    between atoms: C_15  and  N_16 
REMARK       I    between atoms: N_16  and  C_55 
REMARK    9  A    between atoms: C_19  and  N_20 
REMARK   10  A    between atoms: C_25  and  O_26 
REMARK   11  A    between atoms: C_28  and  O_29 
REMARK   12  A    between atoms: O_29  and  C_30 
REMARK   13  A    between atoms: C_31  and  O_32 
REMARK   14  A    between atoms: C_34  and  N_35 
REMARK   15  A    between atoms: C_39  and  O_40 
REMARK   16  A    between atoms: C_42  and  C_44 
REMARK   17  A    between atoms: C_44  and  O_45 
REMARK   18  A    between atoms: N_51  and  C_59 
REMARK   19  A    between atoms: C_55  and  C_57 
REMARK   20  A    between atoms: C_57  and  C_58 
REMARK   21  A    between atoms: C_57  and  O_60 
REMARK   22  A    between atoms: C_58  and  C_59 
ROOT
HETATM    1  C   UNL     1      91.616   9.076  32.767  1.00  0.00     0.118 C 
HETATM    2  C   UNL     1      91.406   8.880  31.265  1.00  0.00     0.063 C 
HETATM    3  C   UNL     1      92.752   8.601  30.570  1.00  0.00     0.217 C 
HETATM    4  C   UNL     1      93.454   7.387  31.187  1.00  0.00     0.186 C 
HETATM    5  C   UNL     1      93.670   7.630  32.688  1.00  0.00     0.180 C 
HETATM    6  C   UNL     1      92.339   7.890  33.420  1.00  0.00     0.178 C 
ENDROOT
BRANCH   4   7
HETATM    7  O   UNL     1      94.671   7.284  30.431  1.00  0.00    -0.349 OA
BRANCH   7   8
HETATM    8  C   UNL     1      95.826   7.872  30.914  1.00  0.00     0.292 C 
HETATM    9  C   UNL     1      96.375   8.754  29.802  1.00  0.00     0.204 C 
HETATM   10  C   UNL     1      96.765   7.915  28.634  1.00  0.00     0.183 C 
HETATM   11  C   UNL     1      97.813   6.914  29.011  1.00  0.00     0.180 C 
HETATM   12  C   UNL     1      97.315   6.040  30.162  1.00  0.00     0.181 C 
HETATM   13  O   UNL     1      96.854   6.860  31.286  1.00  0.00    -0.349 OA
BRANCH   9  14
HETATM   14  O   UNL     1      95.347   9.679  29.424  1.00  0.00    -0.388 OA
ATOM     15  HO  UNL     1      94.517   9.335  29.731  1.00  0.00     0.210 HD
ENDBRANCH   9  14
BRANCH  10  16
HETATM   16  O   UNL     1      97.277   8.798  27.614  1.00  0.00    -0.390 OA
ATOM     17  HO  UNL     1      96.777   8.641  26.823  1.00  0.00     0.210 HD
ENDBRANCH  10  16
BRANCH  11  18
HETATM   18  O   UNL     1      98.087   6.035  27.914  1.00  0.00    -0.390 OA
ATOM     19  HO  UNL     1      97.636   5.219  28.097  1.00  0.00     0.210 HD
ENDBRANCH  11  18
BRANCH  12  20
HETATM   20  C   UNL     1      98.408   5.155  30.674  1.00  0.00     0.264 C 
BRANCH  20  21
HETATM   21  N   UNL     1      99.678   5.851  30.560  1.00  0.00    -0.077 N 
ATOM     22  HN3 UNL     1      99.611   6.688  29.981  1.00  0.00     0.274 HD
ATOM     23  HN2 UNL     1      99.953   6.301  31.434  1.00  0.00     0.274 HD
ATOM     24  HN1 UNL     1     100.386   5.201  30.219  1.00  0.00     0.274 HD
ENDBRANCH  20  21
ENDBRANCH  12  20
ENDBRANCH   7   8
ENDBRANCH   4   7
BRANCH   3  25
HETATM   25  N   UNL     1      92.549   8.414  29.130  1.00  0.00    -0.072 N 
ATOM     26  HN3 UNL     1      91.722   7.852  28.931  1.00  0.00     0.274 HD
ATOM     27  HN2 UNL     1      92.258   9.277  28.670  1.00  0.00     0.274 HD
ATOM     28  HN1 UNL     1      93.388   8.021  28.704  1.00  0.00     0.274 HD
ENDBRANCH   3  25
BRANCH   5  29
HETATM   29  O   UNL     1      94.261   6.527  33.332  1.00  0.00    -0.390 OA
ATOM     30  HO  UNL     1      93.559   5.907  33.494  1.00  0.00     0.210 HD
ENDBRANCH   5  29
BRANCH   6  31
HETATM   31  O   UNL     1      92.650   8.189  34.773  1.00  0.00    -0.349 OA
BRANCH  31  32
HETATM   32  C   UNL     1      91.903   7.496  35.701  1.00  0.00     0.291 C 
HETATM   33  C   UNL     1      91.637   8.381  36.904  1.00  0.00     0.206 C 
HETATM   34  C   UNL     1      92.897   8.685  37.653  1.00  0.00     0.247 C 
HETATM   35  C   UNL     1      93.553   7.404  38.104  1.00  0.00     0.182 C 
HETATM   36  C   UNL     1      93.851   6.524  36.894  1.00  0.00     0.179 C 
HETATM   37  O   UNL     1      92.630   6.244  36.114  1.00  0.00    -0.349 OA
BRANCH  33  38
HETATM   38  O   UNL     1      91.016   9.603  36.459  1.00  0.00    -0.388 OA
ATOM     39  HO  UNL     1      91.319   9.824  35.585  1.00  0.00     0.210 HD
ENDBRANCH  33  38
BRANCH  34  40
HETATM   40  N   UNL     1      92.579   9.554  38.834  1.00  0.00    -0.070 N 
ATOM     41  HN3 UNL     1      93.417   9.949  39.260  1.00  0.00     0.274 HD
ATOM     42  HN2 UNL     1      92.130  10.428  38.560  1.00  0.00     0.274 HD
ATOM     43  HN1 UNL     1      92.019   9.026  39.503  1.00  0.00     0.274 HD
ENDBRANCH  34  40
BRANCH  35  44
HETATM   44  O   UNL     1      94.780   7.683  38.790  1.00  0.00    -0.391 OA
ATOM     45  HO  UNL     1      95.461   7.919  38.170  1.00  0.00     0.210 HD
ENDBRANCH  35  44
BRANCH  36  46
HETATM   46  C   UNL     1      94.445   5.207  37.312  1.00  0.00     0.198 C 
BRANCH  46  47
HETATM   47  O   UNL     1      94.118   4.235  36.350  1.00  0.00    -0.398 OA
ATOM     48  HO  UNL     1      93.187   4.286  36.166  1.00  0.00     0.209 HD
ENDBRANCH  46  47
ENDBRANCH  36  46
ENDBRANCH  31  32
ENDBRANCH   6  31
BRANCH   1  49
HETATM   49  N   UNL     1      90.289   9.272  33.366  1.00  0.00    -0.352 N 
HETATM   50  C   UNL     1      89.729  10.625  33.483  1.00  0.00     0.246 C 
HETATM   51  O   UNL     1      90.327  11.580  33.108  1.00  0.00    -0.271 OA
ATOM     52  HN  UNL     1      89.757   8.469  33.699  1.00  0.00     0.163 HD
BRANCH  50  53
HETATM   53  C   UNL     1      88.351  10.755  34.109  1.00  0.00     0.211 C 
BRANCH  53  54
HETATM   54  C   UNL     1      87.547  11.799  33.288  1.00  0.00     0.068 C 
BRANCH  54  55
HETATM   55  C   UNL     1      87.343  13.093  34.138  1.00  0.00     0.232 C 
BRANCH  55  56
HETATM   56  N   UNL     1      88.528  13.981  33.921  1.00  0.00    -0.079 N 
ATOM     57  HN3 UNL     1      89.166  13.989  34.717  1.00  0.00     0.274 HD
ATOM     58  HN2 UNL     1      89.177  13.610  33.228  1.00  0.00     0.274 HD
ATOM     59  HN1 UNL     1      88.185  14.912  33.682  1.00  0.00     0.274 HD
ENDBRANCH  55  56
ENDBRANCH  54  55
ENDBRANCH  53  54
BRANCH  53  60
HETATM   60  O   UNL     1      88.522  11.221  35.394  1.00  0.00    -0.386 OA
ATOM     61  HO  UNL     1      89.165  11.919  35.361  1.00  0.00     0.210 HD
ENDBRANCH  53  60
ENDBRANCH  50  53
ENDBRANCH   1  49
TORSDOF 22
ENDMDL
MODEL 17
REMARK VINA RESULT:    -6.116      4.533      7.467
REMARK INTER + INTRA:         -14.995
REMARK INTER:                 -13.465
REMARK INTRA:                  -1.530
REMARK UNBOUND:                -3.158
REMARK  22 active torsions:
REMARK  status: ('A' for Active; 'I' for Inactive)
REMARK    1  A    between atoms: C_1  and  O_9 
REMARK    2  A    between atoms: C_2  and  O_47 
REMARK    3  A    between atoms: C_3  and  O_49 
REMARK    4  A    between atoms: C_4  and  O_7 
REMARK    5  A    between atoms: C_5  and  C_6 
REMARK    6  A    between atoms: C_6  and  N_11 
REMARK    7  A    between atoms: O_9  and  C_24 
REMARK    8  A    between atoms: C_15  and  N_16 
REMARK       I    between atoms: N_16  and  C_55 
REMARK    9  A    between atoms: C_19  and  N_20 
REMARK   10  A    between atoms: C_25  and  O_26 
REMARK   11  A    between atoms: C_28  and  O_29 
REMARK   12  A    between atoms: O_29  and  C_30 
REMARK   13  A    between atoms: C_31  and  O_32 
REMARK   14  A    between atoms: C_34  and  N_35 
REMARK   15  A    between atoms: C_39  and  O_40 
REMARK   16  A    between atoms: C_42  and  C_44 
REMARK   17  A    between atoms: C_44  and  O_45 
REMARK   18  A    between atoms: N_51  and  C_59 
REMARK   19  A    between atoms: C_55  and  C_57 
REMARK   20  A    between atoms: C_57  and  C_58 
REMARK   21  A    between atoms: C_57  and  O_60 
REMARK   22  A    between atoms: C_58  and  C_59 
ROOT
HETATM    1  C   UNL     1      92.327   9.297  31.662  1.00  0.00     0.118 C 
HETATM    2  C   UNL     1      93.657   9.373  32.414  1.00  0.00     0.063 C 
HETATM    3  C   UNL     1      94.544   8.167  32.052  1.00  0.00     0.217 C 
HETATM    4  C   UNL     1      94.777   8.082  30.540  1.00  0.00     0.186 C 
HETATM    5  C   UNL     1      93.423   7.983  29.820  1.00  0.00     0.180 C 
HETATM    6  C   UNL     1      92.517   9.187  30.143  1.00  0.00     0.178 C 
ENDROOT
BRANCH   4   7
HETATM    7  O   UNL     1      95.603   6.918  30.392  1.00  0.00    -0.349 OA
BRANCH   7   8
HETATM    8  C   UNL     1      96.249   6.688  29.190  1.00  0.00     0.292 C 
HETATM    9  C   UNL     1      97.467   5.828  29.496  1.00  0.00     0.204 C 
HETATM   10  C   UNL     1      98.414   6.580  30.366  1.00  0.00     0.183 C 
HETATM   11  C   UNL     1      98.875   7.841  29.704  1.00  0.00     0.180 C 
HETATM   12  C   UNL     1      97.673   8.710  29.336  1.00  0.00     0.181 C 
HETATM   13  O   UNL     1      96.697   7.955  28.546  1.00  0.00    -0.349 OA
BRANCH   9  14
HETATM   14  O   UNL     1      97.013   4.644  30.166  1.00  0.00    -0.388 OA
ATOM     15  HO  UNL     1      97.036   4.811  31.101  1.00  0.00     0.210 HD
ENDBRANCH   9  14
BRANCH  10  16
HETATM   16  O   UNL     1      99.544   5.720  30.623  1.00  0.00    -0.390 OA
ATOM     17  HO  UNL     1      99.209   4.847  30.786  1.00  0.00     0.210 HD
ENDBRANCH  10  16
BRANCH  11  18
HETATM   18  O   UNL     1      99.684   8.612  30.598  1.00  0.00    -0.390 OA
ATOM     19  HO  UNL     1      99.697   8.147  31.427  1.00  0.00     0.210 HD
ENDBRANCH  11  18
BRANCH  12  20
HETATM   20  C   UNL     1      98.096   9.888  28.515  1.00  0.00     0.264 C 
BRANCH  20  21
HETATM   21  N   UNL     1      98.441   9.438  27.178  1.00  0.00    -0.077 N 
ATOM     22  HN3 UNL     1      98.574   8.428  27.131  1.00  0.00     0.274 HD
ATOM     23  HN2 UNL     1      97.656   9.510  26.530  1.00  0.00     0.274 HD
ATOM     24  HN1 UNL     1      99.260   9.952  26.852  1.00  0.00     0.274 HD
ENDBRANCH  20  21
ENDBRANCH  12  20
ENDBRANCH   7   8
ENDBRANCH   4   7
BRANCH   3  25
HETATM   25  N   UNL     1      95.819   8.240  32.774  1.00  0.00    -0.072 N 
ATOM     26  HN3 UNL     1      96.304   7.344  32.783  1.00  0.00     0.274 HD
ATOM     27  HN2 UNL     1      96.516   8.784  32.265  1.00  0.00     0.274 HD
ATOM     28  HN1 UNL     1      95.669   8.601  33.717  1.00  0.00     0.274 HD
ENDBRANCH   3  25
BRANCH   5  29
HETATM   29  O   UNL     1      93.559   7.960  28.419  1.00  0.00    -0.390 OA
ATOM     30  HO  UNL     1      93.451   8.857  28.128  1.00  0.00     0.210 HD
ENDBRANCH   5  29
BRANCH   6  31
HETATM   31  O   UNL     1      91.267   8.960  29.508  1.00  0.00    -0.349 OA
BRANCH  31  32
HETATM   32  C   UNL     1      91.188   9.424  28.213  1.00  0.00     0.291 C 
HETATM   33  C   UNL     1      90.676  10.852  28.213  1.00  0.00     0.206 C 
HETATM   34  C   UNL     1      89.255  10.926  28.679  1.00  0.00     0.247 C 
HETATM   35  C   UNL     1      88.376  10.075  27.798  1.00  0.00     0.182 C 
HETATM   36  C   UNL     1      88.869   8.632  27.818  1.00  0.00     0.179 C 
HETATM   37  O   UNL     1      90.281   8.535  27.403  1.00  0.00    -0.349 OA
BRANCH  33  38
HETATM   38  O   UNL     1      91.521  11.652  29.063  1.00  0.00    -0.388 OA
ATOM     39  HO  UNL     1      92.356  11.811  28.639  1.00  0.00     0.210 HD
ENDBRANCH  33  38
BRANCH  34  40
HETATM   40  N   UNL     1      88.796  12.354  28.654  1.00  0.00    -0.070 N 
ATOM     41  HN3 UNL     1      87.790  12.434  28.504  1.00  0.00     0.274 HD
ATOM     42  HN2 UNL     1      88.839  12.790  29.576  1.00  0.00     0.274 HD
ATOM     43  HN1 UNL     1      89.332  12.871  27.957  1.00  0.00     0.274 HD
ENDBRANCH  34  40
BRANCH  35  44
HETATM   44  O   UNL     1      87.019  10.111  28.259  1.00  0.00    -0.391 OA
ATOM     45  HO  UNL     1      86.985   9.988  29.200  1.00  0.00     0.210 HD
ENDBRANCH  35  44
BRANCH  36  46
HETATM   46  C   UNL     1      88.055   7.766  26.897  1.00  0.00     0.198 C 
BRANCH  46  47
HETATM   47  O   UNL     1      87.306   8.593  26.040  1.00  0.00    -0.398 OA
ATOM     48  HO  UNL     1      86.568   8.947  26.523  1.00  0.00     0.209 HD
ENDBRANCH  46  47
ENDBRANCH  36  46
ENDBRANCH  31  32
ENDBRANCH   6  31
BRANCH   1  49
HETATM   49  N   UNL     1      91.568  10.505  32.007  1.00  0.00    -0.352 N 
HETATM   50  C   UNL     1      90.156  10.398  32.399  1.00  0.00     0.246 C 
HETATM   51  O   UNL     1      89.601   9.349  32.441  1.00  0.00    -0.271 OA
ATOM     52  HN  UNL     1      92.021  11.418  31.976  1.00  0.00     0.163 HD
BRANCH  50  53
HETATM   53  C   UNL     1      89.431  11.687  32.746  1.00  0.00     0.211 C 
BRANCH  53  54
HETATM   54  C   UNL     1      90.178  12.858  32.051  1.00  0.00     0.068 C 
BRANCH  54  55
HETATM   55  C   UNL     1      90.027  14.158  32.903  1.00  0.00     0.232 C 
BRANCH  55  56
HETATM   56  N   UNL     1      91.144  14.192  33.899  1.00  0.00    -0.079 N 
ATOM     57  HN3 UNL     1      91.863  14.875  33.661  1.00  0.00     0.274 HD
ATOM     58  HN2 UNL     1      90.862  14.594  34.792  1.00  0.00     0.274 HD
ATOM     59  HN1 UNL     1      91.514  13.245  33.992  1.00  0.00     0.274 HD
ENDBRANCH  55  56
ENDBRANCH  54  55
ENDBRANCH  53  54
BRANCH  53  60
HETATM   60  O   UNL     1      89.504  11.849  34.112  1.00  0.00    -0.386 OA
ATOM     61  HO  UNL     1      88.828  11.306  34.499  1.00  0.00     0.210 HD
ENDBRANCH  53  60
ENDBRANCH  50  53
ENDBRANCH   1  49
TORSDOF 22
ENDMDL
MODEL 18
REMARK VINA RESULT:    -6.082      5.267      8.007
REMARK INTER + INTRA:         -14.928
REMARK INTER:                 -12.397
REMARK INTRA:                  -2.532
REMARK UNBOUND:                -3.158
REMARK  22 active torsions:
REMARK  status: ('A' for Active; 'I' for Inactive)
REMARK    1  A    between atoms: C_1  and  O_9 
REMARK    2  A    between atoms: C_2  and  O_47 
REMARK    3  A    between atoms: C_3  and  O_49 
REMARK    4  A    between atoms: C_4  and  O_7 
REMARK    5  A    between atoms: C_5  and  C_6 
REMARK    6  A    between atoms: C_6  and  N_11 
REMARK    7  A    between atoms: O_9  and  C_24 
REMARK    8  A    between atoms: C_15  and  N_16 
REMARK       I    between atoms: N_16  and  C_55 
REMARK    9  A    between atoms: C_19  and  N_20 
REMARK   10  A    between atoms: C_25  and  O_26 
REMARK   11  A    between atoms: C_28  and  O_29 
REMARK   12  A    between atoms: O_29  and  C_30 
REMARK   13  A    between atoms: C_31  and  O_32 
REMARK   14  A    between atoms: C_34  and  N_35 
REMARK   15  A    between atoms: C_39  and  O_40 
REMARK   16  A    between atoms: C_42  and  C_44 
REMARK   17  A    between atoms: C_44  and  O_45 
REMARK   18  A    between atoms: N_51  and  C_59 
REMARK   19  A    between atoms: C_55  and  C_57 
REMARK   20  A    between atoms: C_57  and  C_58 
REMARK   21  A    between atoms: C_57  and  O_60 
REMARK   22  A    between atoms: C_58  and  C_59 
ROOT
HETATM    1  C   UNL     1      92.140   6.135  29.377  1.00  0.00     0.118 C 
HETATM    2  C   UNL     1      90.641   6.272  29.652  1.00  0.00     0.063 C 
HETATM    3  C   UNL     1      90.328   7.671  30.213  1.00  0.00     0.217 C 
HETATM    4  C   UNL     1      90.812   8.772  29.265  1.00  0.00     0.186 C 
HETATM    5  C   UNL     1      92.323   8.617  29.032  1.00  0.00     0.180 C 
HETATM    6  C   UNL     1      92.670   7.234  28.448  1.00  0.00     0.178 C 
ENDROOT
BRANCH   4   7
HETATM    7  O   UNL     1      90.447   9.984  29.942  1.00  0.00    -0.349 OA
BRANCH   7   8
HETATM    8  C   UNL     1      90.123  11.108  29.203  1.00  0.00     0.292 C 
HETATM    9  C   UNL     1      90.748  12.302  29.909  1.00  0.00     0.204 C 
HETATM   10  C   UNL     1      90.137  12.472  31.258  1.00  0.00     0.183 C 
HETATM   11  C   UNL     1      88.660  12.696  31.159  1.00  0.00     0.180 C 
HETATM   12  C   UNL     1      88.002  11.538  30.409  1.00  0.00     0.181 C 
HETATM   13  O   UNL     1      88.650  11.311  29.114  1.00  0.00    -0.349 OA
BRANCH   9  14
HETATM   14  O   UNL     1      92.155  12.054  30.033  1.00  0.00    -0.388 OA
ATOM     15  HO  UNL     1      92.579  12.375  29.245  1.00  0.00     0.210 HD
ENDBRANCH   9  14
BRANCH  10  16
HETATM   16  O   UNL     1      90.765  13.613  31.879  1.00  0.00    -0.390 OA
ATOM     17  HO  UNL     1      90.932  14.254  31.199  1.00  0.00     0.210 HD
ENDBRANCH  10  16
BRANCH  11  18
HETATM   18  O   UNL     1      88.069  12.733  32.462  1.00  0.00    -0.390 OA
ATOM     19  HO  UNL     1      87.693  13.599  32.569  1.00  0.00     0.210 HD
ENDBRANCH  11  18
BRANCH  12  20
HETATM   20  C   UNL     1      86.558  11.825  30.142  1.00  0.00     0.264 C 
BRANCH  20  21
HETATM   21  N   UNL     1      85.752  11.250  31.205  1.00  0.00    -0.077 N 
ATOM     22  HN3 UNL     1      85.749  10.230  31.181  1.00  0.00     0.274 HD
ATOM     23  HN2 UNL     1      86.180  11.371  32.124  1.00  0.00     0.274 HD
ATOM     24  HN1 UNL     1      84.811  11.641  31.162  1.00  0.00     0.274 HD
ENDBRANCH  20  21
ENDBRANCH  12  20
ENDBRANCH   7   8
ENDBRANCH   4   7
BRANCH   3  25
HETATM   25  N   UNL     1      88.891   7.802  30.477  1.00  0.00    -0.072 N 
ATOM     26  HN3 UNL     1      88.705   8.361  31.310  1.00  0.00     0.274 HD
ATOM     27  HN2 UNL     1      88.429   8.398  29.790  1.00  0.00     0.274 HD
ATOM     28  HN1 UNL     1      88.458   6.880  30.534  1.00  0.00     0.274 HD
ENDBRANCH   3  25
BRANCH   5  29
HETATM   29  O   UNL     1      92.826   9.565  28.120  1.00  0.00    -0.390 OA
ATOM     30  HO  UNL     1      92.172  10.251  28.063  1.00  0.00     0.210 HD
ENDBRANCH   5  29
BRANCH   6  31
HETATM   31  O   UNL     1      94.085   7.157  28.353  1.00  0.00    -0.349 OA
BRANCH  31  32
HETATM   32  C   UNL     1      94.765   7.900  29.292  1.00  0.00     0.291 C 
HETATM   33  C   UNL     1      95.940   8.600  28.635  1.00  0.00     0.206 C 
HETATM   34  C   UNL     1      96.975   7.621  28.174  1.00  0.00     0.247 C 
HETATM   35  C   UNL     1      97.465   6.799  29.340  1.00  0.00     0.182 C 
HETATM   36  C   UNL     1      96.291   6.069  29.985  1.00  0.00     0.179 C 
HETATM   37  O   UNL     1      95.237   7.009  30.410  1.00  0.00    -0.349 OA
BRANCH  33  38
HETATM   38  O   UNL     1      95.459   9.376  27.520  1.00  0.00    -0.388 OA
ATOM     39  HO  UNL     1      94.512   9.319  27.466  1.00  0.00     0.210 HD
ENDBRANCH  33  38
BRANCH  34  40
HETATM   40  N   UNL     1      98.115   8.362  27.540  1.00  0.00    -0.070 N 
ATOM     41  HN3 UNL     1      97.843   9.292  27.223  1.00  0.00     0.274 HD
ATOM     42  HN2 UNL     1      98.821   8.642  28.222  1.00  0.00     0.274 HD
ATOM     43  HN1 UNL     1      98.509   7.798  26.787  1.00  0.00     0.274 HD
ENDBRANCH  34  40
BRANCH  35  44
HETATM   44  O   UNL     1      98.430   5.833  28.902  1.00  0.00    -0.391 OA
ATOM     45  HO  UNL     1      98.119   4.951  29.073  1.00  0.00     0.210 HD
ENDBRANCH  35  44
BRANCH  36  46
HETATM   46  C   UNL     1      96.732   5.290  31.193  1.00  0.00     0.198 C 
BRANCH  46  47
HETATM   47  O   UNL     1      96.679   3.917  30.894  1.00  0.00    -0.398 OA
ATOM     48  HO  UNL     1      96.975   3.426  31.651  1.00  0.00     0.209 HD
ENDBRANCH  46  47
ENDBRANCH  36  46
ENDBRANCH  31  32
ENDBRANCH   6  31
BRANCH   1  49
HETATM   49  N   UNL     1      92.349   4.807  28.787  1.00  0.00    -0.352 N 
HETATM   50  C   UNL     1      93.160   3.807  29.497  1.00  0.00     0.246 C 
HETATM   51  O   UNL     1      93.661   4.046  30.546  1.00  0.00    -0.271 OA
ATOM     52  HN  UNL     1      91.932   4.577  27.885  1.00  0.00     0.163 HD
BRANCH  50  53
HETATM   53  C   UNL     1      93.333   2.453  28.830  1.00  0.00     0.211 C 
BRANCH  53  54
HETATM   54  C   UNL     1      91.938   1.977  28.343  1.00  0.00     0.068 C 
BRANCH  54  55
HETATM   55  C   UNL     1      91.613   0.581  28.961  1.00  0.00     0.232 C 
BRANCH  55  56
HETATM   56  N   UNL     1      92.215  -0.469  28.079  1.00  0.00    -0.079 N 
ATOM     57  HN3 UNL     1      91.519  -1.105  27.691  1.00  0.00     0.274 HD
ATOM     58  HN2 UNL     1      92.562  -0.091  27.198  1.00  0.00     0.274 HD
ATOM     59  HN1 UNL     1      92.938  -0.953  28.613  1.00  0.00     0.274 HD
ENDBRANCH  55  56
ENDBRANCH  54  55
ENDBRANCH  53  54
BRANCH  53  60
HETATM   60  O   UNL     1      93.803   1.579  29.785  1.00  0.00    -0.386 OA
ATOM     61  HO  UNL     1      93.546   0.703  29.522  1.00  0.00     0.210 HD
ENDBRANCH  53  60
ENDBRANCH  50  53
ENDBRANCH   1  49
TORSDOF 22
ENDMDL
MODEL 19
REMARK VINA RESULT:    -6.071      2.703      8.552
REMARK INTER + INTRA:         -14.908
REMARK INTER:                 -13.339
REMARK INTRA:                  -1.569
REMARK UNBOUND:                -3.158
REMARK  22 active torsions:
REMARK  status: ('A' for Active; 'I' for Inactive)
REMARK    1  A    between atoms: C_1  and  O_9 
REMARK    2  A    between atoms: C_2  and  O_47 
REMARK    3  A    between atoms: C_3  and  O_49 
REMARK    4  A    between atoms: C_4  and  O_7 
REMARK    5  A    between atoms: C_5  and  C_6 
REMARK    6  A    between atoms: C_6  and  N_11 
REMARK    7  A    between atoms: O_9  and  C_24 
REMARK    8  A    between atoms: C_15  and  N_16 
REMARK       I    between atoms: N_16  and  C_55 
REMARK    9  A    between atoms: C_19  and  N_20 
REMARK   10  A    between atoms: C_25  and  O_26 
REMARK   11  A    between atoms: C_28  and  O_29 
REMARK   12  A    between atoms: O_29  and  C_30 
REMARK   13  A    between atoms: C_31  and  O_32 
REMARK   14  A    between atoms: C_34  and  N_35 
REMARK   15  A    between atoms: C_39  and  O_40 
REMARK   16  A    between atoms: C_42  and  C_44 
REMARK   17  A    between atoms: C_44  and  O_45 
REMARK   18  A    between atoms: N_51  and  C_59 
REMARK   19  A    between atoms: C_55  and  C_57 
REMARK   20  A    between atoms: C_57  and  C_58 
REMARK   21  A    between atoms: C_57  and  O_60 
REMARK   22  A    between atoms: C_58  and  C_59 
ROOT
HETATM    1  C   UNL     1      92.689   6.512  31.207  1.00  0.00     0.118 C 
HETATM    2  C   UNL     1      93.947   5.641  31.211  1.00  0.00     0.063 C 
HETATM    3  C   UNL     1      94.575   5.604  29.806  1.00  0.00     0.217 C 
HETATM    4  C   UNL     1      94.889   7.015  29.299  1.00  0.00     0.186 C 
HETATM    5  C   UNL     1      93.601   7.851  29.285  1.00  0.00     0.180 C 
HETATM    6  C   UNL     1      92.957   7.929  30.684  1.00  0.00     0.178 C 
ENDROOT
BRANCH   4   7
HETATM    7  O   UNL     1      95.452   6.787  27.998  1.00  0.00    -0.349 OA
BRANCH   7   8
HETATM    8  C   UNL     1      96.294   7.735  27.443  1.00  0.00     0.292 C 
HETATM    9  C   UNL     1      97.378   6.980  26.688  1.00  0.00     0.204 C 
HETATM   10  C   UNL     1      98.193   6.174  27.640  1.00  0.00     0.183 C 
HETATM   11  C   UNL     1      98.845   7.045  28.669  1.00  0.00     0.180 C 
HETATM   12  C   UNL     1      97.788   7.858  29.415  1.00  0.00     0.181 C 
HETATM   13  O   UNL     1      96.929   8.593  28.482  1.00  0.00    -0.349 OA
BRANCH   9  14
HETATM   14  O   UNL     1      96.736   6.121  25.736  1.00  0.00    -0.388 OA
ATOM     15  HO  UNL     1      95.856   5.945  26.048  1.00  0.00     0.210 HD
ENDBRANCH   9  14
BRANCH  10  16
HETATM   16  O   UNL     1      99.200   5.483  26.873  1.00  0.00    -0.390 OA
ATOM     17  HO  UNL     1      99.486   6.068  26.182  1.00  0.00     0.210 HD
ENDBRANCH  10  16
BRANCH  11  18
HETATM   18  O   UNL     1      99.521   6.248  29.647  1.00  0.00    -0.390 OA
ATOM     19  HO  UNL     1      98.880   6.029  30.313  1.00  0.00     0.210 HD
ENDBRANCH  11  18
BRANCH  12  20
HETATM   20  C   UNL     1      98.427   8.863  30.320  1.00  0.00     0.264 C 
BRANCH  20  21
HETATM   21  N   UNL     1      99.689   9.292  29.742  1.00  0.00    -0.077 N 
ATOM     22  HN3 UNL     1     100.409   8.571  29.806  1.00  0.00     0.274 HD
ATOM     23  HN2 UNL     1      99.645   9.362  28.725  1.00  0.00     0.274 HD
ATOM     24  HN1 UNL     1      99.978  10.167  30.180  1.00  0.00     0.274 HD
ENDBRANCH  20  21
ENDBRANCH  12  20
ENDBRANCH   7   8
ENDBRANCH   4   7
BRANCH   3  25
HETATM   25  N   UNL     1      95.780   4.768  29.811  1.00  0.00    -0.072 N 
ATOM     26  HN3 UNL     1      95.760   4.066  29.071  1.00  0.00     0.274 HD
ATOM     27  HN2 UNL     1      96.604   5.285  29.505  1.00  0.00     0.274 HD
ATOM     28  HN1 UNL     1      95.913   4.347  30.730  1.00  0.00     0.274 HD
ENDBRANCH   3  25
BRANCH   5  29
HETATM   29  O   UNL     1      93.828   9.182  28.884  1.00  0.00    -0.390 OA
ATOM     30  HO  UNL     1      94.359   9.577  29.565  1.00  0.00     0.210 HD
ENDBRANCH   5  29
BRANCH   6  31
HETATM   31  O   UNL     1      91.737   8.643  30.550  1.00  0.00    -0.349 OA
BRANCH  31  32
HETATM   32  C   UNL     1      91.791   9.958  30.958  1.00  0.00     0.291 C 
HETATM   33  C   UNL     1      90.568  10.283  31.794  1.00  0.00     0.206 C 
HETATM   34  C   UNL     1      89.315  10.242  30.975  1.00  0.00     0.247 C 
HETATM   35  C   UNL     1      89.416  11.215  29.827  1.00  0.00     0.182 C 
HETATM   36  C   UNL     1      90.627  10.872  28.966  1.00  0.00     0.179 C 
HETATM   37  O   UNL     1      91.871  10.865  29.759  1.00  0.00    -0.349 OA
BRANCH  33  38
HETATM   38  O   UNL     1      90.481   9.342  32.883  1.00  0.00    -0.388 OA
ATOM     39  HO  UNL     1      89.672   8.847  32.824  1.00  0.00     0.210 HD
ENDBRANCH  33  38
BRANCH  34  40
HETATM   40  N   UNL     1      88.139  10.577  31.844  1.00  0.00    -0.070 N 
ATOM     41  HN3 UNL     1      88.316  10.373  32.828  1.00  0.00     0.274 HD
ATOM     42  HN2 UNL     1      87.995  11.583  31.928  1.00  0.00     0.274 HD
ATOM     43  HN1 UNL     1      87.311  10.096  31.494  1.00  0.00     0.274 HD
ENDBRANCH  34  40
BRANCH  35  44
HETATM   44  O   UNL     1      88.235  11.156  29.015  1.00  0.00    -0.391 OA
ATOM     45  HO  UNL     1      88.431  10.760  28.174  1.00  0.00     0.210 HD
ENDBRANCH  35  44
BRANCH  36  46
HETATM   46  C   UNL     1      90.797  11.864  27.848  1.00  0.00     0.198 C 
BRANCH  46  47
HETATM   47  O   UNL     1      91.480  12.991  28.339  1.00  0.00    -0.398 OA
ATOM     48  HO  UNL     1      91.679  12.852  29.258  1.00  0.00     0.209 HD
ENDBRANCH  46  47
ENDBRANCH  36  46
ENDBRANCH  31  32
ENDBRANCH   6  31
BRANCH   1  49
HETATM   49  N   UNL     1      92.188   6.551  32.586  1.00  0.00    -0.352 N 
HETATM   50  C   UNL     1      93.043   7.068  33.664  1.00  0.00     0.246 C 
HETATM   51  O   UNL     1      94.145   7.457  33.450  1.00  0.00    -0.271 OA
ATOM     52  HN  UNL     1      91.247   6.220  32.797  1.00  0.00     0.163 HD
BRANCH  50  53
HETATM   53  C   UNL     1      92.461   7.083  35.067  1.00  0.00     0.211 C 
BRANCH  53  54
HETATM   54  C   UNL     1      93.618   6.827  36.070  1.00  0.00     0.068 C 
BRANCH  54  55
HETATM   55  C   UNL     1      93.238   5.651  37.023  1.00  0.00     0.232 C 
BRANCH  55  56
HETATM   56  N   UNL     1      93.961   4.425  36.558  1.00  0.00    -0.079 N 
ATOM     57  HN3 UNL     1      94.643   4.623  35.825  1.00  0.00     0.274 HD
ATOM     58  HN2 UNL     1      94.611   4.063  37.255  1.00  0.00     0.274 HD
ATOM     59  HN1 UNL     1      93.264   3.737  36.272  1.00  0.00     0.274 HD
ENDBRANCH  55  56
ENDBRANCH  54  55
ENDBRANCH  53  54
BRANCH  53  60
HETATM   60  O   UNL     1      91.552   6.050  35.149  1.00  0.00    -0.386 OA
ATOM     61  HO  UNL     1      91.899   5.413  35.762  1.00  0.00     0.210 HD
ENDBRANCH  53  60
ENDBRANCH  50  53
ENDBRANCH   1  49
TORSDOF 22
ENDMDL
MODEL 20
REMARK VINA RESULT:    -6.010      3.516      7.417
REMARK INTER + INTRA:         -14.789
REMARK INTER:                 -12.573
REMARK INTRA:                  -2.216
REMARK UNBOUND:                -3.158
REMARK  22 active torsions:
REMARK  status: ('A' for Active; 'I' for Inactive)
REMARK    1  A    between atoms: C_1  and  O_9 
REMARK    2  A    between atoms: C_2  and  O_47 
REMARK    3  A    between atoms: C_3  and  O_49 
REMARK    4  A    between atoms: C_4  and  O_7 
REMARK    5  A    between atoms: C_5  and  C_6 
REMARK    6  A    between atoms: C_6  and  N_11 
REMARK    7  A    between atoms: O_9  and  C_24 
REMARK    8  A    between atoms: C_15  and  N_16 
REMARK       I    between atoms: N_16  and  C_55 
REMARK    9  A    between atoms: C_19  and  N_20 
REMARK   10  A    between atoms: C_25  and  O_26 
REMARK   11  A    between atoms: C_28  and  O_29 
REMARK   12  A    between atoms: O_29  and  C_30 
REMARK   13  A    between atoms: C_31  and  O_32 
REMARK   14  A    between atoms: C_34  and  N_35 
REMARK   15  A    between atoms: C_39  and  O_40 
REMARK   16  A    between atoms: C_42  and  C_44 
REMARK   17  A    between atoms: C_44  and  O_45 
REMARK   18  A    between atoms: N_51  and  C_59 
REMARK   19  A    between atoms: C_55  and  C_57 
REMARK   20  A    between atoms: C_57  and  C_58 
REMARK   21  A    between atoms: C_57  and  O_60 
REMARK   22  A    between atoms: C_58  and  C_59 
ROOT
HETATM    1  C   UNL     1      91.591   7.797  32.359  1.00  0.00     0.118 C 
HETATM    2  C   UNL     1      92.349   6.719  33.136  1.00  0.00     0.063 C 
HETATM    3  C   UNL     1      93.683   6.397  32.439  1.00  0.00     0.217 C 
HETATM    4  C   UNL     1      94.541   7.655  32.272  1.00  0.00     0.186 C 
HETATM    5  C   UNL     1      93.758   8.704  31.468  1.00  0.00     0.180 C 
HETATM    6  C   UNL     1      92.425   9.068  32.151  1.00  0.00     0.178 C 
ENDROOT
BRANCH   4   7
HETATM    7  O   UNL     1      95.721   7.173  31.611  1.00  0.00    -0.349 OA
BRANCH   7   8
HETATM    8  C   UNL     1      95.657   6.816  30.276  1.00  0.00     0.292 C 
HETATM    9  C   UNL     1      96.665   5.696  30.066  1.00  0.00     0.204 C 
HETATM   10  C   UNL     1      98.044   6.199  30.320  1.00  0.00     0.183 C 
HETATM   11  C   UNL     1      98.388   7.329  29.400  1.00  0.00     0.180 C 
HETATM   12  C   UNL     1      97.366   8.456  29.548  1.00  0.00     0.181 C 
HETATM   13  O   UNL     1      95.999   7.955  29.377  1.00  0.00    -0.349 OA
BRANCH   9  14
HETATM   14  O   UNL     1      96.347   4.640  30.981  1.00  0.00    -0.388 OA
ATOM     15  HO  UNL     1      96.253   5.021  31.846  1.00  0.00     0.210 HD
ENDBRANCH   9  14
BRANCH  10  16
HETATM   16  O   UNL     1      98.954   5.100  30.107  1.00  0.00    -0.390 OA
ATOM     17  HO  UNL     1      98.477   4.417  29.651  1.00  0.00     0.210 HD
ENDBRANCH  10  16
BRANCH  11  18
HETATM   18  O   UNL     1      99.664   7.882  29.738  1.00  0.00    -0.390 OA
ATOM     19  HO  UNL     1     100.321   7.289  29.391  1.00  0.00     0.210 HD
ENDBRANCH  11  18
BRANCH  12  20
HETATM   20  C   UNL     1      97.585   9.515  28.514  1.00  0.00     0.264 C 
BRANCH  20  21
HETATM   21  N   UNL     1      98.085   8.899  27.297  1.00  0.00    -0.077 N 
ATOM     22  HN3 UNL     1      97.911   9.473  26.472  1.00  0.00     0.274 HD
ATOM     23  HN2 UNL     1      99.104   8.893  27.256  1.00  0.00     0.274 HD
ATOM     24  HN1 UNL     1      97.687   7.963  27.207  1.00  0.00     0.274 HD
ENDBRANCH  20  21
ENDBRANCH  12  20
ENDBRANCH   7   8
ENDBRANCH   4   7
BRANCH   3  25
HETATM   25  N   UNL     1      94.408   5.363  33.184  1.00  0.00    -0.072 N 
ATOM     26  HN3 UNL     1      93.788   4.623  33.511  1.00  0.00     0.274 HD
ATOM     27  HN2 UNL     1      95.004   4.801  32.576  1.00  0.00     0.274 HD
ATOM     28  HN1 UNL     1      94.936   5.784  33.949  1.00  0.00     0.274 HD
ENDBRANCH   3  25
BRANCH   5  29
HETATM   29  O   UNL     1      94.467   9.913  31.326  1.00  0.00    -0.390 OA
ATOM     30  HO  UNL     1      95.126   9.756  30.659  1.00  0.00     0.210 HD
ENDBRANCH   5  29
BRANCH   6  31
HETATM   31  O   UNL     1      91.741   9.969  31.293  1.00  0.00    -0.349 OA
BRANCH  31  32
HETATM   32  C   UNL     1      90.996   9.367  30.302  1.00  0.00     0.291 C 
HETATM   33  C   UNL     1      91.401   9.923  28.950  1.00  0.00     0.206 C 
HETATM   34  C   UNL     1      91.027  11.367  28.815  1.00  0.00     0.247 C 
HETATM   35  C   UNL     1      89.540  11.536  29.006  1.00  0.00     0.182 C 
HETATM   36  C   UNL     1      89.133  11.006  30.377  1.00  0.00     0.179 C 
HETATM   37  O   UNL     1      89.529   9.595  30.552  1.00  0.00    -0.349 OA
BRANCH  33  38
HETATM   38  O   UNL     1      92.823   9.760  28.784  1.00  0.00    -0.388 OA
ATOM     39  HO  UNL     1      93.052   9.806  27.863  1.00  0.00     0.210 HD
ENDBRANCH  33  38
BRANCH  34  40
HETATM   40  N   UNL     1      91.441  11.865  27.462  1.00  0.00    -0.070 N 
ATOM     41  HN3 UNL     1      91.848  11.127  26.887  1.00  0.00     0.274 HD
ATOM     42  HN2 UNL     1      90.640  12.085  26.870  1.00  0.00     0.274 HD
ATOM     43  HN1 UNL     1      92.070  12.660  27.571  1.00  0.00     0.274 HD
ENDBRANCH  34  40
BRANCH  35  44
HETATM   44  O   UNL     1      89.177  12.920  28.915  1.00  0.00    -0.391 OA
ATOM     45  HO  UNL     1      88.702  13.190  29.692  1.00  0.00     0.210 HD
ENDBRANCH  35  44
BRANCH  36  46
HETATM   46  C   UNL     1      87.645  11.098  30.576  1.00  0.00     0.198 C 
BRANCH  46  47
HETATM   47  O   UNL     1      87.029  11.263  29.323  1.00  0.00    -0.398 OA
ATOM     48  HO  UNL     1      87.660  11.631  28.716  1.00  0.00     0.209 HD
ENDBRANCH  46  47
ENDBRANCH  36  46
ENDBRANCH  31  32
ENDBRANCH   6  31
BRANCH   1  49
HETATM   49  N   UNL     1      90.368   8.094  33.116  1.00  0.00    -0.352 N 
HETATM   50  C   UNL     1      90.460   8.723  34.441  1.00  0.00     0.246 C 
HETATM   51  O   UNL     1      91.508   8.998  34.927  1.00  0.00    -0.271 OA
ATOM     52  HN  UNL     1      89.456   7.864  32.723  1.00  0.00     0.163 HD
BRANCH  50  53
HETATM   53  C   UNL     1      89.156   9.005  35.168  1.00  0.00     0.211 C 
BRANCH  53  54
HETATM   54  C   UNL     1      89.053  10.538  35.390  1.00  0.00     0.068 C 
BRANCH  54  55
HETATM   55  C   UNL     1      89.171  11.278  34.021  1.00  0.00     0.232 C 
BRANCH  55  56
HETATM   56  N   UNL     1      90.538  11.881  33.936  1.00  0.00    -0.079 N 
ATOM     57  HN3 UNL     1      91.259  11.283  34.339  1.00  0.00     0.274 HD
ATOM     58  HN2 UNL     1      90.899  11.906  32.982  1.00  0.00     0.274 HD
ATOM     59  HN1 UNL     1      90.505  12.804  34.369  1.00  0.00     0.274 HD
ENDBRANCH  55  56
ENDBRANCH  54  55
ENDBRANCH  53  54
BRANCH  53  60
HETATM   60  O   UNL     1      89.217   8.372  36.390  1.00  0.00    -0.386 OA
ATOM     61  HO  UNL     1      88.509   7.741  36.419  1.00  0.00     0.210 HD
ENDBRANCH  53  60
ENDBRANCH  50  53
ENDBRANCH   1  49
TORSDOF 22
ENDMDL
