MODEL 1
REMARK VINA RESULT:    -5.567      0.000      0.000
REMARK INTER + INTRA:          -5.911
REMARK INTER:                  -5.893
REMARK INTRA:                  -0.019
REMARK UNBOUND:                -0.019
REMARK  1 active torsions:
REMARK  status: ('A' for Active; 'I' for Inactive)
REMARK    1  A    between atoms: C_1  and  C_4 
ROOT
HETATM    1  C   UNL     1      -8.229   0.751   8.662  1.00  0.00     0.040 A 
HETATM    2  C   UNL     1      -8.997   0.654   7.512  1.00  0.00     0.018 A 
HETATM    3  C   UNL     1      -8.989   1.687   6.593  1.00  0.00     0.001 A 
HETATM    4  C   UNL     1      -8.190   2.792   6.811  1.00  0.00     0.000 A 
HETATM    5  C   UNL     1      -7.409   2.880   7.917  1.00  0.00     0.001 A 
HETATM    6  C   UNL     1      -7.436   1.882   8.863  1.00  0.00     0.018 A 
ENDROOT
BRANCH   1   7
HETATM    7  C   UNL     1      -8.222  -0.372   9.678  1.00  0.00     0.209 C 
HETATM    8  O   UNL     1      -7.516  -1.353   9.481  1.00  0.00    -0.644 OA
HETATM    9  O   UNL     1      -8.951  -0.220  10.700  1.00  0.00    -0.644 OA
ENDBRANCH   1   7
TORSDOF 1
ENDMDL
MODEL 2
REMARK VINA RESULT:    -5.562      0.143      1.600
REMARK INTER + INTRA:          -5.906
REMARK INTER:                  -5.887
REMARK INTRA:                  -0.019
REMARK UNBOUND:                -0.019
REMARK  1 active torsions:
REMARK  status: ('A' for Active; 'I' for Inactive)
REMARK    1  A    between atoms: C_1  and  C_4 
ROOT
HETATM    1  C   UNL     1      -8.206   0.662   8.737  1.00  0.00     0.040 A 
HETATM    2  C   UNL     1      -7.417   1.794   8.882  1.00  0.00     0.018 A 
HETATM    3  C   UNL     1      -7.443   2.776   7.908  1.00  0.00     0.001 A 
HETATM    4  C   UNL     1      -8.277   2.638   6.817  1.00  0.00     0.000 A 
HETATM    5  C   UNL     1      -9.077   1.550   6.684  1.00  0.00     0.001 A 
HETATM    6  C   UNL     1      -9.034   0.544   7.621  1.00  0.00     0.018 A 
ENDROOT
BRANCH   1   7
HETATM    7  C   UNL     1      -8.194  -0.422   9.794  1.00  0.00     0.209 C 
HETATM    8  O   UNL     1      -7.494  -1.413   9.628  1.00  0.00    -0.644 OA
HETATM    9  O   UNL     1      -8.914  -0.229  10.816  1.00  0.00    -0.644 OA
ENDBRANCH   1   7
TORSDOF 1
ENDMDL
MODEL 3
REMARK VINA RESULT:    -5.536      2.704      3.494
REMARK INTER + INTRA:          -5.878
REMARK INTER:                  -5.849
REMARK INTRA:                  -0.030
REMARK UNBOUND:                -0.019
REMARK  1 active torsions:
REMARK  status: ('A' for Active; 'I' for Inactive)
REMARK    1  A    between atoms: C_1  and  C_4 
ROOT
HETATM    1  C   UNL     1      -9.816   2.789   8.631  1.00  0.00     0.040 A 
HETATM    2  C   UNL     1      -8.913   2.106   9.432  1.00  0.00     0.018 A 
HETATM    3  C   UNL     1      -7.562   2.160   9.140  1.00  0.00     0.001 A 
HETATM    4  C   UNL     1      -7.120   2.920   8.076  1.00  0.00     0.000 A 
HETATM    5  C   UNL     1      -7.994   3.618   7.307  1.00  0.00     0.001 A 
HETATM    6  C   UNL     1      -9.345   3.543   7.556  1.00  0.00     0.018 A 
ENDROOT
BRANCH   1   7
HETATM    7  C   UNL     1     -11.298   2.745   8.937  1.00  0.00     0.209 C 
HETATM    8  O   UNL     1     -12.098   3.092   8.076  1.00  0.00    -0.644 OA
HETATM    9  O   UNL     1     -11.632   2.330  10.084  1.00  0.00    -0.644 OA
ENDBRANCH   1   7
TORSDOF 1
ENDMDL
MODEL 4
REMARK VINA RESULT:    -5.534      2.715      3.439
REMARK INTER + INTRA:          -5.876
REMARK INTER:                  -5.846
REMARK INTRA:                  -0.030
REMARK UNBOUND:                -0.019
REMARK  1 active torsions:
REMARK  status: ('A' for Active; 'I' for Inactive)
REMARK    1  A    between atoms: C_1  and  C_4 
ROOT
HETATM    1  C   UNL     1      -9.809   2.828   8.625  1.00  0.00     0.040 A 
HETATM    2  C   UNL     1      -9.358   3.553   7.533  1.00  0.00     0.018 A 
HETATM    3  C   UNL     1      -8.003   3.617   7.265  1.00  0.00     0.001 A 
HETATM    4  C   UNL     1      -7.112   2.932   8.067  1.00  0.00     0.000 A 
HETATM    5  C   UNL     1      -7.548   2.193   9.119  1.00  0.00     0.001 A 
HETATM    6  C   UNL     1      -8.888   2.152   9.426  1.00  0.00     0.018 A 
ENDROOT
BRANCH   1   7
HETATM    7  C   UNL     1     -11.289   2.743   8.932  1.00  0.00     0.209 C 
HETATM    8  O   UNL     1     -11.652   2.321  10.023  1.00  0.00    -0.644 OA
HETATM    9  O   UNL     1     -12.082   3.136   8.029  1.00  0.00    -0.644 OA
ENDBRANCH   1   7
TORSDOF 1
ENDMDL
MODEL 5
REMARK VINA RESULT:    -5.467      1.696      2.096
REMARK INTER + INTRA:          -5.805
REMARK INTER:                  -5.787
REMARK INTRA:                  -0.019
REMARK UNBOUND:                -0.019
REMARK  1 active torsions:
REMARK  status: ('A' for Active; 'I' for Inactive)
REMARK    1  A    between atoms: C_1  and  C_4 
ROOT
HETATM    1  C   UNL     1      -9.395   0.500   8.415  1.00  0.00     0.040 A 
HETATM    2  C   UNL     1      -9.297   0.964   7.112  1.00  0.00     0.018 A 
HETATM    3  C   UNL     1      -9.986   2.103   6.737  1.00  0.00     0.001 A 
HETATM    4  C   UNL     1     -10.737   2.788   7.670  1.00  0.00     0.000 A 
HETATM    5  C   UNL     1     -10.811   2.360   8.956  1.00  0.00     0.001 A 
HETATM    6  C   UNL     1     -10.168   1.206   9.337  1.00  0.00     0.018 A 
ENDROOT
BRANCH   1   7
HETATM    7  C   UNL     1      -8.645  -0.743   8.845  1.00  0.00     0.209 C 
HETATM    8  O   UNL     1      -9.110  -1.845   8.579  1.00  0.00    -0.644 OA
HETATM    9  O   UNL     1      -7.552  -0.567   9.456  1.00  0.00    -0.644 OA
ENDBRANCH   1   7
TORSDOF 1
ENDMDL
MODEL 6
REMARK VINA RESULT:    -5.453      1.780      2.372
REMARK INTER + INTRA:          -5.790
REMARK INTER:                  -5.771
REMARK INTRA:                  -0.019
REMARK UNBOUND:                -0.019
REMARK  1 active torsions:
REMARK  status: ('A' for Active; 'I' for Inactive)
REMARK    1  A    between atoms: C_1  and  C_4 
ROOT
HETATM    1  C   UNL     1      -9.427   0.512   8.520  1.00  0.00     0.040 A 
HETATM    2  C   UNL     1     -10.158   1.167   9.499  1.00  0.00     0.018 A 
HETATM    3  C   UNL     1     -10.843   2.326   9.182  1.00  0.00     0.001 A 
HETATM    4  C   UNL     1     -10.823   2.803   7.887  1.00  0.00     0.000 A 
HETATM    5  C   UNL     1     -10.137   2.149   6.915  1.00  0.00     0.001 A 
HETATM    6  C   UNL     1      -9.415   1.019   7.220  1.00  0.00     0.018 A 
ENDROOT
BRANCH   1   7
HETATM    7  C   UNL     1      -8.673  -0.760   8.847  1.00  0.00     0.209 C 
HETATM    8  O   UNL     1      -9.153  -1.840   8.525  1.00  0.00    -0.644 OA
HETATM    9  O   UNL     1      -7.561  -0.628   9.434  1.00  0.00    -0.644 OA
ENDBRANCH   1   7
TORSDOF 1
ENDMDL
MODEL 7
REMARK VINA RESULT:    -5.399      2.744      3.585
REMARK INTER + INTRA:          -5.733
REMARK INTER:                  -5.702
REMARK INTRA:                  -0.031
REMARK UNBOUND:                -0.019
REMARK  1 active torsions:
REMARK  status: ('A' for Active; 'I' for Inactive)
REMARK    1  A    between atoms: C_1  and  C_4 
ROOT
HETATM    1  C   UNL     1      -8.350   2.272   7.993  1.00  0.00     0.040 A 
HETATM    2  C   UNL     1      -8.782   1.585   6.869  1.00  0.00     0.018 A 
HETATM    3  C   UNL     1      -9.132   0.251   6.974  1.00  0.00     0.001 A 
HETATM    4  C   UNL     1      -9.081  -0.377   8.201  1.00  0.00     0.000 A 
HETATM    5  C   UNL     1      -8.691   0.296   9.313  1.00  0.00     0.001 A 
HETATM    6  C   UNL     1      -8.299   1.611   9.222  1.00  0.00     0.018 A 
ENDROOT
BRANCH   1   7
HETATM    7  C   UNL     1      -7.966   3.733   7.900  1.00  0.00     0.209 C 
HETATM    8  O   UNL     1      -8.204   4.350   6.869  1.00  0.00    -0.644 OA
HETATM    9  O   UNL     1      -7.423   4.246   8.920  1.00  0.00    -0.644 OA
ENDBRANCH   1   7
TORSDOF 1
ENDMDL
MODEL 8
REMARK VINA RESULT:    -5.294      2.888      4.122
REMARK INTER + INTRA:          -5.622
REMARK INTER:                  -5.592
REMARK INTRA:                  -0.030
REMARK UNBOUND:                -0.019
REMARK  1 active torsions:
REMARK  status: ('A' for Active; 'I' for Inactive)
REMARK    1  A    between atoms: C_1  and  C_4 
ROOT
HETATM    1  C   UNL     1      -9.951   1.317   8.601  1.00  0.00     0.040 A 
HETATM    2  C   UNL     1      -9.184   0.163   8.593  1.00  0.00     0.018 A 
HETATM    3  C   UNL     1      -8.969  -0.525   9.774  1.00  0.00     0.001 A 
HETATM    4  C   UNL     1      -9.546  -0.076  10.944  1.00  0.00     0.000 A 
HETATM    5  C   UNL     1     -10.326   1.035  10.955  1.00  0.00     0.001 A 
HETATM    6  C   UNL     1     -10.517   1.755   9.799  1.00  0.00     0.018 A 
ENDROOT
BRANCH   1   7
HETATM    7  C   UNL     1     -10.201   2.082   7.318  1.00  0.00     0.209 C 
HETATM    8  O   UNL     1     -10.699   3.199   7.374  1.00  0.00    -0.644 OA
HETATM    9  O   UNL     1      -9.861   1.513   6.241  1.00  0.00    -0.644 OA
ENDBRANCH   1   7
TORSDOF 1
ENDMDL
MODEL 9
REMARK VINA RESULT:    -5.283      2.141      2.704
REMARK INTER + INTRA:          -5.611
REMARK INTER:                  -5.590
REMARK INTRA:                  -0.021
REMARK UNBOUND:                -0.019
REMARK  1 active torsions:
REMARK  status: ('A' for Active; 'I' for Inactive)
REMARK    1  A    between atoms: C_1  and  C_4 
ROOT
HETATM    1  C   UNL     1      -9.828   2.155   8.668  1.00  0.00     0.040 A 
HETATM    2  C   UNL     1      -9.797   0.999   7.903  1.00  0.00     0.018 A 
HETATM    3  C   UNL     1      -9.059   0.971   6.734  1.00  0.00     0.001 A 
HETATM    4  C   UNL     1      -8.332   2.081   6.355  1.00  0.00     0.000 A 
HETATM    5  C   UNL     1      -8.329   3.206   7.115  1.00  0.00     0.001 A 
HETATM    6  C   UNL     1      -9.091   3.267   8.259  1.00  0.00     0.018 A 
ENDROOT
BRANCH   1   7
HETATM    7  C   UNL     1     -10.627   2.204   9.953  1.00  0.00     0.209 C 
HETATM    8  O   UNL     1     -11.552   3.001  10.053  1.00  0.00    -0.644 OA
HETATM    9  O   UNL     1     -10.294   1.392  10.863  1.00  0.00    -0.644 OA
ENDBRANCH   1   7
TORSDOF 1
ENDMDL
MODEL 10
REMARK VINA RESULT:    -5.281      2.654      3.863
REMARK INTER + INTRA:          -5.608
REMARK INTER:                  -5.587
REMARK INTRA:                  -0.021
REMARK UNBOUND:                -0.019
REMARK  1 active torsions:
REMARK  status: ('A' for Active; 'I' for Inactive)
REMARK    1  A    between atoms: C_1  and  C_4 
ROOT
HETATM    1  C   UNL     1      -8.546   1.919   8.196  1.00  0.00     0.040 A 
HETATM    2  C   UNL     1      -8.542   1.487   9.514  1.00  0.00     0.018 A 
HETATM    3  C   UNL     1      -8.944   0.198   9.813  1.00  0.00     0.001 A 
HETATM    4  C   UNL     1      -9.313  -0.659   8.797  1.00  0.00     0.000 A 
HETATM    5  C   UNL     1      -9.287  -0.255   7.501  1.00  0.00     0.001 A 
HETATM    6  C   UNL     1      -8.931   1.036   7.187  1.00  0.00     0.018 A 
ENDROOT
BRANCH   1   7
HETATM    7  C   UNL     1      -8.106   3.325   7.848  1.00  0.00     0.209 C 
HETATM    8  O   UNL     1      -8.898   4.083   7.301  1.00  0.00    -0.644 OA
HETATM    9  O   UNL     1      -6.924   3.648   8.163  1.00  0.00    -0.644 OA
ENDBRANCH   1   7
TORSDOF 1
ENDMDL
MODEL 11
REMARK VINA RESULT:    -5.270      3.327      4.356
REMARK INTER + INTRA:          -5.596
REMARK INTER:                  -5.575
REMARK INTRA:                  -0.022
REMARK UNBOUND:                -0.019
REMARK  1 active torsions:
REMARK  status: ('A' for Active; 'I' for Inactive)
REMARK    1  A    between atoms: C_1  and  C_4 
ROOT
HETATM    1  C   UNL     1     -10.470   1.896   8.732  1.00  0.00     0.040 A 
HETATM    2  C   UNL     1     -10.656   1.869  10.105  1.00  0.00     0.018 A 
HETATM    3  C   UNL     1     -10.133   0.825  10.847  1.00  0.00     0.001 A 
HETATM    4  C   UNL     1      -9.402  -0.163  10.219  1.00  0.00     0.000 A 
HETATM    5  C   UNL     1      -9.187  -0.127   8.880  1.00  0.00     0.001 A 
HETATM    6  C   UNL     1      -9.735   0.881   8.120  1.00  0.00     0.018 A 
ENDROOT
BRANCH   1   7
HETATM    7  C   UNL     1     -11.032   3.033   7.904  1.00  0.00     0.209 C 
HETATM    8  O   UNL     1     -10.267   3.741   7.261  1.00  0.00    -0.644 OA
HETATM    9  O   UNL     1     -12.288   3.179   7.914  1.00  0.00    -0.644 OA
ENDBRANCH   1   7
TORSDOF 1
ENDMDL
MODEL 12
REMARK VINA RESULT:    -5.263      3.025      3.808
REMARK INTER + INTRA:          -5.589
REMARK INTER:                  -5.560
REMARK INTRA:                  -0.029
REMARK UNBOUND:                -0.019
REMARK  1 active torsions:
REMARK  status: ('A' for Active; 'I' for Inactive)
REMARK    1  A    between atoms: C_1  and  C_4 
ROOT
HETATM    1  C   UNL     1     -10.453   1.665   8.825  1.00  0.00     0.040 A 
HETATM    2  C   UNL     1      -9.938   1.410   7.564  1.00  0.00     0.018 A 
HETATM    3  C   UNL     1      -9.014   0.395   7.394  1.00  0.00     0.001 A 
HETATM    4  C   UNL     1      -8.639  -0.378   8.473  1.00  0.00     0.000 A 
HETATM    5  C   UNL     1      -9.163  -0.158   9.705  1.00  0.00     0.001 A 
HETATM    6  C   UNL     1     -10.051   0.875   9.902  1.00  0.00     0.018 A 
ENDROOT
BRANCH   1   7
HETATM    7  C   UNL     1     -11.468   2.770   9.031  1.00  0.00     0.209 C 
HETATM    8  O   UNL     1     -12.093   3.196   8.068  1.00  0.00    -0.644 OA
HETATM    9  O   UNL     1     -11.624   3.189  10.214  1.00  0.00    -0.644 OA
ENDBRANCH   1   7
TORSDOF 1
ENDMDL
MODEL 13
REMARK VINA RESULT:    -5.253      2.649      3.170
REMARK INTER + INTRA:          -5.578
REMARK INTER:                  -5.556
REMARK INTRA:                  -0.022
REMARK UNBOUND:                -0.019
REMARK  1 active torsions:
REMARK  status: ('A' for Active; 'I' for Inactive)
REMARK    1  A    between atoms: C_1  and  C_4 
ROOT
HETATM    1  C   UNL     1      -8.811   2.350   8.623  1.00  0.00     0.040 A 
HETATM    2  C   UNL     1      -9.637   2.359   9.736  1.00  0.00     0.018 A 
HETATM    3  C   UNL     1     -10.982   2.647   9.590  1.00  0.00     0.001 A 
HETATM    4  C   UNL     1     -11.498   2.889   8.333  1.00  0.00     0.000 A 
HETATM    5  C   UNL     1     -10.704   2.849   7.234  1.00  0.00     0.001 A 
HETATM    6  C   UNL     1      -9.356   2.606   7.364  1.00  0.00     0.018 A 
ENDROOT
BRANCH   1   7
HETATM    7  C   UNL     1      -7.337   2.034   8.763  1.00  0.00     0.209 C 
HETATM    8  O   UNL     1      -6.998   0.971   9.266  1.00  0.00    -0.644 OA
HETATM    9  O   UNL     1      -6.525   2.901   8.329  1.00  0.00    -0.644 OA
ENDBRANCH   1   7
TORSDOF 1
ENDMDL
MODEL 14
REMARK VINA RESULT:    -5.107      2.846      3.769
REMARK INTER + INTRA:          -5.424
REMARK INTER:                  -5.401
REMARK INTRA:                  -0.024
REMARK UNBOUND:                -0.019
REMARK  1 active torsions:
REMARK  status: ('A' for Active; 'I' for Inactive)
REMARK    1  A    between atoms: C_1  and  C_4 
ROOT
HETATM    1  C   UNL     1      -9.655   1.228   8.576  1.00  0.00     0.040 A 
HETATM    2  C   UNL     1     -10.485   2.284   8.920  1.00  0.00     0.018 A 
HETATM    3  C   UNL     1     -11.017   2.350  10.196  1.00  0.00     0.001 A 
HETATM    4  C   UNL     1     -10.689   1.384  11.126  1.00  0.00     0.000 A 
HETATM    5  C   UNL     1      -9.850   0.366  10.807  1.00  0.00     0.001 A 
HETATM    6  C   UNL     1      -9.346   0.260   9.532  1.00  0.00     0.018 A 
ENDROOT
BRANCH   1   7
HETATM    7  C   UNL     1      -9.061   1.141   7.186  1.00  0.00     0.209 C 
HETATM    8  O   UNL     1      -8.538   2.133   6.695  1.00  0.00    -0.644 OA
HETATM    9  O   UNL     1      -9.129   0.019   6.607  1.00  0.00    -0.644 OA
ENDBRANCH   1   7
TORSDOF 1
ENDMDL
MODEL 15
REMARK VINA RESULT:    -4.904      3.005      3.929
REMARK INTER + INTRA:          -5.209
REMARK INTER:                  -5.180
REMARK INTRA:                  -0.029
REMARK UNBOUND:                -0.019
REMARK  1 active torsions:
REMARK  status: ('A' for Active; 'I' for Inactive)
REMARK    1  A    between atoms: C_1  and  C_4 
ROOT
HETATM    1  C   UNL     1      -8.581   2.411   8.954  1.00  0.00     0.040 A 
HETATM    2  C   UNL     1      -8.236   1.224   9.580  1.00  0.00     0.018 A 
HETATM    3  C   UNL     1      -9.146   0.601  10.416  1.00  0.00     0.001 A 
HETATM    4  C   UNL     1     -10.401   1.147  10.591  1.00  0.00     0.000 A 
HETATM    5  C   UNL     1     -10.758   2.291   9.956  1.00  0.00     0.001 A 
HETATM    6  C   UNL     1      -9.853   2.947   9.155  1.00  0.00     0.018 A 
ENDROOT
BRANCH   1   7
HETATM    7  C   UNL     1      -7.600   3.106   8.033  1.00  0.00     0.209 C 
HETATM    8  O   UNL     1      -8.023   3.861   7.166  1.00  0.00    -0.644 OA
HETATM    9  O   UNL     1      -6.372   2.872   8.227  1.00  0.00    -0.644 OA
ENDBRANCH   1   7
TORSDOF 1
ENDMDL
MODEL 16
REMARK VINA RESULT:    -4.879      2.597      3.327
REMARK INTER + INTRA:          -5.183
REMARK INTER:                  -5.156
REMARK INTRA:                  -0.027
REMARK UNBOUND:                -0.019
REMARK  1 active torsions:
REMARK  status: ('A' for Active; 'I' for Inactive)
REMARK    1  A    between atoms: C_1  and  C_4 
ROOT
HETATM    1  C   UNL     1     -10.488   1.279  10.191  1.00  0.00     0.040 A 
HETATM    2  C   UNL     1     -10.921   2.241   9.292  1.00  0.00     0.018 A 
HETATM    3  C   UNL     1     -10.406   2.260   8.008  1.00  0.00     0.001 A 
HETATM    4  C   UNL     1      -9.492   1.302   7.622  1.00  0.00     0.000 A 
HETATM    5  C   UNL     1      -9.087   0.336   8.486  1.00  0.00     0.001 A 
HETATM    6  C   UNL     1      -9.556   0.326   9.779  1.00  0.00     0.018 A 
ENDROOT
BRANCH   1   7
HETATM    7  C   UNL     1     -11.042   1.241  11.600  1.00  0.00     0.209 C 
HETATM    8  O   UNL     1     -12.211   1.550  11.792  1.00  0.00    -0.644 OA
HETATM    9  O   UNL     1     -10.251   0.869  12.514  1.00  0.00    -0.644 OA
ENDBRANCH   1   7
TORSDOF 1
ENDMDL
MODEL 17
REMARK VINA RESULT:    -4.528      2.814      3.779
REMARK INTER + INTRA:          -4.812
REMARK INTER:                  -4.790
REMARK INTRA:                  -0.021
REMARK UNBOUND:                -0.019
REMARK  1 active torsions:
REMARK  status: ('A' for Active; 'I' for Inactive)
REMARK    1  A    between atoms: C_1  and  C_4 
ROOT
HETATM    1  C   UNL     1      -9.367   1.140   9.780  1.00  0.00     0.040 A 
HETATM    2  C   UNL     1      -9.490   0.351  10.913  1.00  0.00     0.018 A 
HETATM    3  C   UNL     1     -10.499   0.611  11.822  1.00  0.00     0.001 A 
HETATM    4  C   UNL     1     -11.397   1.630  11.578  1.00  0.00     0.000 A 
HETATM    5  C   UNL     1     -11.304   2.386  10.455  1.00  0.00     0.001 A 
HETATM    6  C   UNL     1     -10.282   2.170   9.560  1.00  0.00     0.018 A 
ENDROOT
BRANCH   1   7
HETATM    7  C   UNL     1      -8.270   0.870   8.771  1.00  0.00     0.209 C 
HETATM    8  O   UNL     1      -7.100   0.949   9.123  1.00  0.00    -0.644 OA
HETATM    9  O   UNL     1      -8.636   0.557   7.602  1.00  0.00    -0.644 OA
ENDBRANCH   1   7
TORSDOF 1
ENDMDL
MODEL 18
REMARK VINA RESULT:    -4.504      9.666     10.494
REMARK INTER + INTRA:          -4.786
REMARK INTER:                  -4.765
REMARK INTRA:                  -0.022
REMARK UNBOUND:                -0.019
REMARK  1 active torsions:
REMARK  status: ('A' for Active; 'I' for Inactive)
REMARK    1  A    between atoms: C_1  and  C_4 
ROOT
HETATM    1  C   UNL     1       1.292   1.257   6.334  1.00  0.00     0.040 A 
HETATM    2  C   UNL     1       2.568   0.887   6.731  1.00  0.00     0.018 A 
HETATM    3  C   UNL     1       2.954  -0.438   6.645  1.00  0.00     0.001 A 
HETATM    4  C   UNL     1       2.080  -1.376   6.133  1.00  0.00     0.000 A 
HETATM    5  C   UNL     1       0.842  -1.016   5.711  1.00  0.00     0.001 A 
HETATM    6  C   UNL     1       0.424   0.289   5.827  1.00  0.00     0.018 A 
ENDROOT
BRANCH   1   7
HETATM    7  C   UNL     1       0.852   2.704   6.417  1.00  0.00     0.209 C 
HETATM    8  O   UNL     1       0.850   3.267   7.504  1.00  0.00    -0.644 OA
HETATM    9  O   UNL     1       0.519   3.261   5.332  1.00  0.00    -0.644 OA
ENDBRANCH   1   7
TORSDOF 1
ENDMDL
MODEL 19
REMARK VINA RESULT:    -4.461      7.961      8.995
REMARK INTER + INTRA:          -4.741
REMARK INTER:                  -4.722
REMARK INTRA:                  -0.019
REMARK UNBOUND:                -0.019
REMARK  1 active torsions:
REMARK  status: ('A' for Active; 'I' for Inactive)
REMARK    1  A    between atoms: C_1  and  C_4 
ROOT
HETATM    1  C   UNL     1     -11.830  -7.058   8.871  1.00  0.00     0.040 A 
HETATM    2  C   UNL     1     -11.986  -5.732   9.243  1.00  0.00     0.018 A 
HETATM    3  C   UNL     1     -12.919  -4.944   8.593  1.00  0.00     0.001 A 
HETATM    4  C   UNL     1     -13.710  -5.492   7.604  1.00  0.00     0.000 A 
HETATM    5  C   UNL     1     -13.587  -6.799   7.258  1.00  0.00     0.001 A 
HETATM    6  C   UNL     1     -12.636  -7.587   7.863  1.00  0.00     0.018 A 
ENDROOT
BRANCH   1   7
HETATM    7  C   UNL     1     -10.816  -7.937   9.573  1.00  0.00     0.209 C 
HETATM    8  O   UNL     1      -9.633  -7.848   9.269  1.00  0.00    -0.644 OA
HETATM    9  O   UNL     1     -11.259  -8.721  10.462  1.00  0.00    -0.644 OA
ENDBRANCH   1   7
TORSDOF 1
ENDMDL
MODEL 20
REMARK VINA RESULT:    -4.434      8.023      9.240
REMARK INTER + INTRA:          -4.711
REMARK INTER:                  -4.684
REMARK INTRA:                  -0.027
REMARK UNBOUND:                -0.019
REMARK  1 active torsions:
REMARK  status: ('A' for Active; 'I' for Inactive)
REMARK    1  A    between atoms: C_1  and  C_4 
ROOT
HETATM    1  C   UNL     1     -12.760  -6.210   7.762  1.00  0.00     0.040 A 
HETATM    2  C   UNL     1     -13.862  -5.391   7.954  1.00  0.00     0.018 A 
HETATM    3  C   UNL     1     -15.105  -5.798   7.502  1.00  0.00     0.001 A 
HETATM    4  C   UNL     1     -15.245  -7.029   6.894  1.00  0.00     0.000 A 
HETATM    5  C   UNL     1     -14.177  -7.851   6.732  1.00  0.00     0.001 A 
HETATM    6  C   UNL     1     -12.926  -7.447   7.137  1.00  0.00     0.018 A 
ENDROOT
BRANCH   1   7
HETATM    7  C   UNL     1     -11.393  -5.785   8.253  1.00  0.00     0.209 C 
HETATM    8  O   UNL     1     -11.092  -4.598   8.233  1.00  0.00    -0.644 OA
HETATM    9  O   UNL     1     -10.630  -6.699   8.678  1.00  0.00    -0.644 OA
ENDBRANCH   1   7
TORSDOF 1
ENDMDL
