REMARK  6 active torsions:
REMARK  status: ('A' for Active; 'I' for Inactive)
REMARK    1  A    between atoms: C_5  and  N_25 
REMARK    2  A    between atoms: C_8  and  C_9 
REMARK    3  A    between atoms: C_9  and  C_10 
REMARK       I    between atoms: C_10  and  N_19 
REMARK    4  A    between atoms: C_11  and  N_20 
REMARK    5  A    between atoms: C_15  and  C_16 
REMARK       I    between atoms: C_15  and  N_25 
REMARK    6  A    between atoms: C_16  and  O_28 
ROOT
HETATM    1  C   UNL     1     -24.955  25.584 -23.696  1.00  0.00     0.151 C 
HETATM    2  C   UNL     1     -23.493  25.587 -24.080  1.00  0.00     0.145 C 
HETATM    3  C   UNL     1     -25.413  23.951 -25.441  1.00  0.00     0.086 C 
HETATM    4  C   UNL     1     -23.945  23.957 -25.798  1.00  0.00     0.169 C 
HETATM    5  C   UNL     1     -26.422  23.687 -23.195  1.00  0.00     0.227 C 
HETATM    6  N   UNL     1     -25.598  24.399 -24.118  1.00  0.00    -0.329 N 
HETATM    7  N   UNL     1     -23.490  25.339 -25.536  1.00  0.00    -0.360 N 
HETATM    8  O   UNL     1     -26.965  22.701 -23.538  1.00  0.00    -0.273 OA
ENDROOT
BRANCH   5   9
HETATM    9  C   UNL     1     -26.536  24.283 -21.795  1.00  0.00     0.141 C 
BRANCH   9  10
HETATM   10  C   UNL     1     -27.380  23.370 -20.929  1.00  0.00    -0.049 A 
HETATM   11  C   UNL     1     -28.677  23.742 -20.645  1.00  0.00     0.010 A 
HETATM   12  C   UNL     1     -29.482  22.935 -19.863  1.00  0.00     0.030 A 
HETATM   13  C   UNL     1     -28.959  21.745 -19.371  1.00  0.00     0.034 A 
HETATM   14  C   UNL     1     -27.663  21.365 -19.672  1.00  0.00     0.030 A 
HETATM   15  C   UNL     1     -26.864  22.183 -20.452  1.00  0.00     0.010 A 
BRANCH  13  16
HETATM   16  N   UNL     1     -29.745  20.834 -18.572  1.00  0.00    -0.325 N 
HETATM   17  C   UNL     1     -30.723  21.203 -17.584  1.00  0.00     0.245 C 
HETATM   18  O   UNL     1     -30.963  22.339 -17.351  1.00  0.00    -0.271 OA
ATOM     19  HN  UNL     1     -29.592  19.837 -18.722  1.00  0.00     0.169 HD
BRANCH  17  20
HETATM   20  C   UNL     1     -31.414  20.039 -16.876  1.00  0.00     0.267 C 
BRANCH  20  21
HETATM   21  O   UNL     1     -30.885  18.857 -17.424  1.00  0.00    -0.392 OA
ATOM     22  HO  UNL     1     -31.315  18.133 -16.984  1.00  0.00     0.210 HD
ENDBRANCH  20  21
ENDBRANCH  17  20
ENDBRANCH  13  16
ENDBRANCH   9  10
ENDBRANCH   5   9
BRANCH   7  23
HETATM   23  C   UNL     1     -22.477  25.879 -26.363  1.00  0.00     0.118 A 
HETATM   24  N   UNL     1     -22.514  25.527 -27.607  1.00  0.00    -0.284 N 
HETATM   25  N   UNL     1     -21.578  26.002 -28.412  1.00  0.00    -0.288 N 
ATOM     26  HN  UNL     1     -23.242  24.903 -27.956  1.00  0.00     0.188 HD
HETATM   27  C   UNL     1     -20.670  26.808 -27.968  1.00  0.00     0.118 A 
ATOM     28  HN  UNL     1     -21.573  25.729 -29.395  1.00  0.00     0.188 HD
HETATM   29 CL   UNL     1     -19.483  27.386 -29.128  1.00  0.00    -0.063 Cl
HETATM   30  C   UNL     1     -20.566  27.242 -26.654  1.00  0.00     0.047 A 
HETATM   31  C   UNL     1     -21.545  26.739 -25.783  1.00  0.00     0.053 A 
ENDBRANCH   7  23
TORSDOF 6
