MODEL 1
REMARK VINA RESULT:   -11.064      0.000      0.000
REMARK INTER + INTRA:         -16.427
REMARK INTER:                 -15.591
REMARK INTRA:                  -0.836
REMARK UNBOUND:                -0.836
REMARK  8 active torsions:
REMARK  status: ('A' for Active; 'I' for Inactive)
REMARK    1  A    between atoms: C_1  and  C_6 
REMARK    2  A    between atoms: C_2  and  O_22 
REMARK    3  A    between atoms: C_3  and  O_24 
REMARK    4  A    between atoms: C_7  and  C_11 
REMARK    5  A    between atoms: C_13  and  C_16 
REMARK    6  A    between atoms: C_16  and  C_18 
REMARK    7  A    between atoms: C_18  and  C_19 
REMARK    8  A    between atoms: C_19  and  C_20 
ROOT
HETATM    1  C   UNL     1     -59.927 -57.078  36.199  1.00  0.00     0.075 A 
HETATM    2  C   UNL     1     -62.058 -58.129  35.604  1.00  0.00     0.075 A 
HETATM    3  C   UNL     1     -61.363 -57.029  36.224  1.00  0.00     0.017 A 
HETATM    4  C   UNL     1     -59.946 -59.259  35.017  1.00  0.00    -0.053 A 
HETATM    5  C   UNL     1     -59.246 -58.173  35.610  1.00  0.00     0.044 A 
HETATM    6  C   UNL     1     -61.367 -59.227  35.021  1.00  0.00     0.044 A 
ENDROOT
BRANCH   3   7
HETATM    7  C   UNL     1     -62.062 -55.827  36.873  1.00  0.00     0.055 C 
HETATM    8  C   UNL     1     -63.123 -55.126  35.980  1.00  0.00     0.026 C 
HETATM    9  C   UNL     1     -63.862 -54.062  36.837  1.00  0.00     0.014 C 
HETATM   10  C   UNL     1     -64.627 -54.716  38.033  1.00  0.00     0.034 C 
HETATM   11  C   UNL     1     -63.797 -55.776  38.794  1.00  0.00    -0.087 C 
HETATM   12  C   UNL     1     -62.638 -56.315  38.211  1.00  0.00    -0.014 C 
HETATM   13  C   UNL     1     -64.487 -56.394  40.046  1.00  0.00     0.043 C 
BRANCH   8  14
HETATM   14  C   UNL     1     -62.503 -54.456  34.743  1.00  0.00    -0.088 C 
HETATM   15  C   UNL     1     -62.742 -54.989  33.530  1.00  0.00     0.014 C 
HETATM   16  C   UNL     1     -61.621 -53.220  34.866  1.00  0.00     0.043 C 
ENDBRANCH   8  14
ENDBRANCH   3   7
BRANCH   2  17
HETATM   17  O   UNL     1     -63.441 -58.096  35.620  1.00  0.00    -0.360 OA
ATOM     18  HO  UNL     1     -63.854 -57.412  36.134  1.00  0.00     0.217 HD
ENDBRANCH   2  17
BRANCH   1  19
HETATM   19  O   UNL     1     -59.247 -56.006  36.784  1.00  0.00    -0.360 OA
ATOM     20  HO  UNL     1     -58.316 -55.938  36.606  1.00  0.00     0.217 HD
ENDBRANCH   1  19
BRANCH   4  21
HETATM   21  C   UNL     1     -59.162 -60.463  34.385  1.00  0.00     0.039 C 
BRANCH  21  22
HETATM   22  C   UNL     1     -57.827 -60.068  33.703  1.00  0.00     0.005 C 
BRANCH  22  23
HETATM   23  C   UNL     1     -57.487 -60.897  32.445  1.00  0.00    -0.000 C 
BRANCH  23  24
HETATM   24  C   UNL     1     -57.112 -60.101  31.165  1.00  0.00    -0.005 C 
HETATM   25  C   UNL     1     -57.480 -58.605  31.297  1.00  0.00     0.005 C 
ENDBRANCH  23  24
ENDBRANCH  22  23
ENDBRANCH  21  22
ENDBRANCH   4  21
TORSDOF 8
ENDMDL
MODEL 2
REMARK VINA RESULT:   -10.870      0.115      1.753
REMARK INTER + INTRA:         -16.154
REMARK INTER:                 -15.618
REMARK INTRA:                  -0.536
REMARK UNBOUND:                -0.836
REMARK  8 active torsions:
REMARK  status: ('A' for Active; 'I' for Inactive)
REMARK    1  A    between atoms: C_1  and  C_6 
REMARK    2  A    between atoms: C_2  and  O_22 
REMARK    3  A    between atoms: C_3  and  O_24 
REMARK    4  A    between atoms: C_7  and  C_11 
REMARK    5  A    between atoms: C_13  and  C_16 
REMARK    6  A    between atoms: C_16  and  C_18 
REMARK    7  A    between atoms: C_18  and  C_19 
REMARK    8  A    between atoms: C_19  and  C_20 
ROOT
HETATM    1  C   UNL     1     -61.973 -57.980  35.616  1.00  0.00     0.075 A 
HETATM    2  C   UNL     1     -59.800 -57.073  36.289  1.00  0.00     0.075 A 
HETATM    3  C   UNL     1     -61.234 -56.927  36.256  1.00  0.00     0.017 A 
HETATM    4  C   UNL     1     -59.890 -59.207  35.058  1.00  0.00    -0.053 A 
HETATM    5  C   UNL     1     -61.307 -59.087  35.031  1.00  0.00     0.044 A 
HETATM    6  C   UNL     1     -59.139 -58.182  35.695  1.00  0.00     0.044 A 
ENDROOT
BRANCH   3   7
HETATM    7  C   UNL     1     -61.992 -55.746  36.875  1.00  0.00     0.055 C 
HETATM    8  C   UNL     1     -63.069 -55.105  35.955  1.00  0.00     0.026 C 
HETATM    9  C   UNL     1     -63.864 -54.060  36.784  1.00  0.00     0.014 C 
HETATM   10  C   UNL     1     -64.617 -54.724  37.981  1.00  0.00     0.034 C 
HETATM   11  C   UNL     1     -63.754 -55.735  38.772  1.00  0.00    -0.087 C 
HETATM   12  C   UNL     1     -62.565 -56.235  38.213  1.00  0.00    -0.014 C 
HETATM   13  C   UNL     1     -64.435 -56.361  40.025  1.00  0.00     0.043 C 
BRANCH   8  14
HETATM   14  C   UNL     1     -62.460 -54.430  34.716  1.00  0.00    -0.088 C 
HETATM   15  C   UNL     1     -62.694 -54.971  33.505  1.00  0.00     0.014 C 
HETATM   16  C   UNL     1     -61.596 -53.182  34.833  1.00  0.00     0.043 C 
ENDBRANCH   8  14
ENDBRANCH   3   7
BRANCH   2  17
HETATM   17  O   UNL     1     -59.075 -56.067  36.902  1.00  0.00    -0.360 OA
ATOM     18  HO  UNL     1     -59.236 -55.176  36.615  1.00  0.00     0.217 HD
ENDBRANCH   2  17
BRANCH   1  19
HETATM   19  O   UNL     1     -63.365 -57.854  35.595  1.00  0.00    -0.360 OA
ATOM     20  HO  UNL     1     -63.718 -57.028  35.285  1.00  0.00     0.217 HD
ENDBRANCH   1  19
BRANCH   4  21
HETATM   21  C   UNL     1     -59.183 -60.438  34.389  1.00  0.00     0.039 C 
BRANCH  21  22
HETATM   22  C   UNL     1     -57.821 -60.109  33.726  1.00  0.00     0.005 C 
BRANCH  22  23
HETATM   23  C   UNL     1     -57.513 -60.938  32.459  1.00  0.00    -0.000 C 
BRANCH  23  24
HETATM   24  C   UNL     1     -57.111 -60.143  31.187  1.00  0.00    -0.005 C 
HETATM   25  C   UNL     1     -57.485 -58.648  31.307  1.00  0.00     0.005 C 
ENDBRANCH  23  24
ENDBRANCH  22  23
ENDBRANCH  21  22
ENDBRANCH   4  21
TORSDOF 8
ENDMDL
MODEL 3
REMARK VINA RESULT:    -8.119      1.044      1.759
REMARK INTER + INTRA:         -12.277
REMARK INTER:                 -11.781
REMARK INTRA:                  -0.496
REMARK UNBOUND:                -0.836
REMARK  8 active torsions:
REMARK  status: ('A' for Active; 'I' for Inactive)
REMARK    1  A    between atoms: C_1  and  C_6 
REMARK    2  A    between atoms: C_2  and  O_22 
REMARK    3  A    between atoms: C_3  and  O_24 
REMARK    4  A    between atoms: C_7  and  C_11 
REMARK    5  A    between atoms: C_13  and  C_16 
REMARK    6  A    between atoms: C_16  and  C_18 
REMARK    7  A    between atoms: C_18  and  C_19 
REMARK    8  A    between atoms: C_19  and  C_20 
ROOT
HETATM    1  C   UNL     1     -59.756 -56.012  36.346  1.00  0.00     0.075 A 
HETATM    2  C   UNL     1     -61.542 -57.666  36.081  1.00  0.00     0.075 A 
HETATM    3  C   UNL     1     -61.139 -56.356  36.527  1.00  0.00     0.017 A 
HETATM    4  C   UNL     1     -59.254 -58.231  35.356  1.00  0.00    -0.053 A 
HETATM    5  C   UNL     1     -58.844 -56.936  35.776  1.00  0.00     0.044 A 
HETATM    6  C   UNL     1     -60.620 -58.589  35.516  1.00  0.00     0.044 A 
ENDROOT
BRANCH   3   7
HETATM    7  C   UNL     1     -62.093 -55.329  37.149  1.00  0.00     0.055 C 
HETATM    8  C   UNL     1     -63.240 -54.851  36.216  1.00  0.00     0.026 C 
HETATM    9  C   UNL     1     -64.213 -53.968  37.045  1.00  0.00     0.014 C 
HETATM   10  C   UNL     1     -64.873 -54.775  38.210  1.00  0.00     0.034 C 
HETATM   11  C   UNL     1     -63.872 -55.650  39.002  1.00  0.00    -0.087 C 
HETATM   12  C   UNL     1     -62.607 -55.936  38.464  1.00  0.00    -0.014 C 
HETATM   13  C   UNL     1     -64.469 -56.407  40.226  1.00  0.00     0.043 C 
BRANCH   8  14
HETATM   14  C   UNL     1     -62.724 -54.057  35.005  1.00  0.00    -0.088 C 
HETATM   15  C   UNL     1     -62.029 -52.925  35.223  1.00  0.00     0.014 C 
HETATM   16  C   UNL     1     -62.995 -54.517  33.579  1.00  0.00     0.043 C 
ENDBRANCH   8  14
ENDBRANCH   3   7
BRANCH   2  17
HETATM   17  O   UNL     1     -62.871 -58.012  36.249  1.00  0.00    -0.360 OA
ATOM     18  HO  UNL     1     -63.117 -58.907  36.049  1.00  0.00     0.217 HD
ENDBRANCH   2  17
BRANCH   1  19
HETATM   19  O   UNL     1     -59.360 -54.737  36.761  1.00  0.00    -0.360 OA
ATOM     20  HO  UNL     1     -58.466 -54.643  37.069  1.00  0.00     0.217 HD
ENDBRANCH   1  19
BRANCH   4  21
HETATM   21  C   UNL     1     -58.217 -59.236  34.741  1.00  0.00     0.039 C 
BRANCH  21  22
HETATM   22  C   UNL     1     -58.628 -59.816  33.364  1.00  0.00     0.005 C 
BRANCH  22  23
HETATM   23  C   UNL     1     -58.021 -61.201  33.051  1.00  0.00    -0.000 C 
BRANCH  23  24
HETATM   24  C   UNL     1     -58.691 -62.426  33.731  1.00  0.00    -0.005 C 
HETATM   25  C   UNL     1     -59.638 -61.996  34.874  1.00  0.00     0.005 C 
ENDBRANCH  23  24
ENDBRANCH  22  23
ENDBRANCH  21  22
ENDBRANCH   4  21
TORSDOF 8
ENDMDL
