MODEL 1
REMARK VINA RESULT:    -6.333      0.000      0.000
REMARK INTER + INTRA:          -7.683
REMARK INTER:                  -7.628
REMARK INTRA:                  -0.055
REMARK UNBOUND:                -0.055
REMARK  6 active torsions:
REMARK  status: ('A' for Active; 'I' for Inactive)
REMARK    1  A    between atoms: C_1  and  O_9 
REMARK    2  A    between atoms: C_2  and  O_11 
REMARK    3  A    between atoms: C_3  and  O_13 
REMARK    4  A    between atoms: C_4  and  C_5 
REMARK    5  A    between atoms: C_5  and  O_16 
REMARK    6  A    between atoms: C_6  and  O_7 
ROOT
HETATM    1  C   UNL     1      54.609  21.825  14.673  1.00  0.00     0.204 C 
HETATM    2  C   UNL     1      55.831  21.914  13.770  1.00  0.00     0.183 C 
HETATM    3  C   UNL     1      57.076  21.779  14.651  1.00  0.00     0.180 C 
HETATM    4  C   UNL     1      57.050  20.417  15.344  1.00  0.00     0.179 C 
HETATM    5  C   UNL     1      54.633  20.465  15.362  1.00  0.00     0.288 C 
HETATM    6  O   UNL     1      55.857  20.344  16.136  1.00  0.00    -0.349 OA
ENDROOT
BRANCH   4   7
HETATM    7  C   UNL     1      58.214  20.214  16.316  1.00  0.00     0.198 C 
BRANCH   7   8
HETATM    8  O   UNL     1      57.831  20.713  17.598  1.00  0.00    -0.398 OA
ATOM      9  HO  UNL     1      56.893  20.865  17.596  1.00  0.00     0.209 HD
ENDBRANCH   7   8
ENDBRANCH   4   7
BRANCH   3  10
HETATM   10  O   UNL     1      58.260  21.974  13.887  1.00  0.00    -0.390 OA
ATOM     11  HO  UNL     1      58.251  22.823  13.460  1.00  0.00     0.210 HD
ENDBRANCH   3  10
BRANCH   5  12
HETATM   12  O   UNL     1      53.472  20.341  16.193  1.00  0.00    -0.369 OA
ATOM     13  HO  UNL     1      53.426  21.092  16.774  1.00  0.00     0.212 HD
ENDBRANCH   5  12
BRANCH   2  14
HETATM   14  O   UNL     1      55.851  23.140  13.069  1.00  0.00    -0.390 OA
ATOM     15  HO  UNL     1      56.734  23.362  12.800  1.00  0.00     0.210 HD
ENDBRANCH   2  14
BRANCH   1  16
HETATM   16  O   UNL     1      53.367  21.995  13.993  1.00  0.00    -0.388 OA
ATOM     17  HO  UNL     1      52.696  22.423  14.512  1.00  0.00     0.210 HD
ENDBRANCH   1  16
TORSDOF 6
ENDMDL
MODEL 2
REMARK VINA RESULT:    -5.546      2.164      3.703
REMARK INTER + INTRA:          -6.736
REMARK INTER:                  -6.625
REMARK INTRA:                  -0.111
REMARK UNBOUND:                -0.055
REMARK  6 active torsions:
REMARK  status: ('A' for Active; 'I' for Inactive)
REMARK    1  A    between atoms: C_1  and  O_9 
REMARK    2  A    between atoms: C_2  and  O_11 
REMARK    3  A    between atoms: C_3  and  O_13 
REMARK    4  A    between atoms: C_4  and  C_5 
REMARK    5  A    between atoms: C_5  and  O_16 
REMARK    6  A    between atoms: C_6  and  O_7 
ROOT
HETATM    1  C   UNL     1      54.509  22.652  13.927  1.00  0.00     0.204 C 
HETATM    2  C   UNL     1      54.100  22.201  15.322  1.00  0.00     0.183 C 
HETATM    3  C   UNL     1      53.951  20.676  15.297  1.00  0.00     0.180 C 
HETATM    4  C   UNL     1      55.297  20.052  14.930  1.00  0.00     0.179 C 
HETATM    5  C   UNL     1      55.840  21.990  13.592  1.00  0.00     0.288 C 
HETATM    6  O   UNL     1      55.680  20.547  13.640  1.00  0.00    -0.349 OA
ENDROOT
BRANCH   4   7
HETATM    7  C   UNL     1      55.238  18.528  14.796  1.00  0.00     0.198 C 
BRANCH   7   8
HETATM    8  O   UNL     1      54.136  18.187  13.953  1.00  0.00    -0.398 OA
ATOM      9  HO  UNL     1      54.451  18.109  13.060  1.00  0.00     0.209 HD
ENDBRANCH   7   8
ENDBRANCH   4   7
BRANCH   3  10
HETATM   10  O   UNL     1      53.453  20.196  16.539  1.00  0.00    -0.390 OA
ATOM     11  HO  UNL     1      53.726  19.298  16.688  1.00  0.00     0.210 HD
ENDBRANCH   3  10
BRANCH   5  12
HETATM   12  O   UNL     1      56.266  22.427  12.295  1.00  0.00    -0.369 OA
ATOM     13  HO  UNL     1      56.453  21.666  11.758  1.00  0.00     0.212 HD
ENDBRANCH   5  12
BRANCH   2  14
HETATM   14  O   UNL     1      52.887  22.809  15.714  1.00  0.00    -0.390 OA
ATOM     15  HO  UNL     1      52.198  22.162  15.810  1.00  0.00     0.210 HD
ENDBRANCH   2  14
BRANCH   1  16
HETATM   16  O   UNL     1      54.627  24.066  13.784  1.00  0.00    -0.388 OA
ATOM     17  HO  UNL     1      54.154  24.564  14.439  1.00  0.00     0.210 HD
ENDBRANCH   1  16
TORSDOF 6
ENDMDL
MODEL 3
REMARK VINA RESULT:    -5.009      1.060      3.459
REMARK INTER + INTRA:          -6.089
REMARK INTER:                  -6.022
REMARK INTRA:                  -0.067
REMARK UNBOUND:                -0.055
REMARK  6 active torsions:
REMARK  status: ('A' for Active; 'I' for Inactive)
REMARK    1  A    between atoms: C_1  and  O_9 
REMARK    2  A    between atoms: C_2  and  O_11 
REMARK    3  A    between atoms: C_3  and  O_13 
REMARK    4  A    between atoms: C_4  and  C_5 
REMARK    5  A    between atoms: C_5  and  O_16 
REMARK    6  A    between atoms: C_6  and  O_7 
ROOT
HETATM    1  C   UNL     1      57.366  21.462  14.109  1.00  0.00     0.204 C 
HETATM    2  C   UNL     1      56.074  22.251  13.949  1.00  0.00     0.183 C 
HETATM    3  C   UNL     1      54.906  21.303  14.240  1.00  0.00     0.180 C 
HETATM    4  C   UNL     1      55.024  20.796  15.678  1.00  0.00     0.179 C 
HETATM    5  C   UNL     1      57.432  20.956  15.546  1.00  0.00     0.288 C 
HETATM    6  O   UNL     1      56.277  20.114  15.808  1.00  0.00    -0.349 OA
ENDROOT
BRANCH   4   7
HETATM    7  C   UNL     1      53.946  19.773  16.045  1.00  0.00     0.198 C 
BRANCH   7   8
HETATM    8  O   UNL     1      54.155  18.593  15.269  1.00  0.00    -0.398 OA
ATOM      9  HO  UNL     1      53.499  18.562  14.582  1.00  0.00     0.209 HD
ENDBRANCH   7   8
ENDBRANCH   4   7
BRANCH   3  10
HETATM   10  O   UNL     1      53.661  21.942  13.992  1.00  0.00    -0.390 OA
ATOM     11  HO  UNL     1      53.715  22.502  13.225  1.00  0.00     0.210 HD
ENDBRANCH   3  10
BRANCH   5  12
HETATM   12  O   UNL     1      58.658  20.239  15.733  1.00  0.00    -0.369 OA
ATOM     13  HO  UNL     1      58.715  19.954  16.638  1.00  0.00     0.212 HD
ENDBRANCH   5  12
BRANCH   2  14
HETATM   14  O   UNL     1      55.966  22.783  12.646  1.00  0.00    -0.390 OA
ATOM     15  HO  UNL     1      55.537  22.167  12.062  1.00  0.00     0.210 HD
ENDBRANCH   2  14
BRANCH   1  16
HETATM   16  O   UNL     1      58.545  22.206  13.809  1.00  0.00    -0.388 OA
ATOM     17  HO  UNL     1      59.290  21.671  13.564  1.00  0.00     0.210 HD
ENDBRANCH   1  16
TORSDOF 6
ENDMDL
MODEL 4
REMARK VINA RESULT:    -4.829      1.363      4.821
REMARK INTER + INTRA:          -5.872
REMARK INTER:                  -5.821
REMARK INTRA:                  -0.051
REMARK UNBOUND:                -0.055
REMARK  6 active torsions:
REMARK  status: ('A' for Active; 'I' for Inactive)
REMARK    1  A    between atoms: C_1  and  O_9 
REMARK    2  A    between atoms: C_2  and  O_11 
REMARK    3  A    between atoms: C_3  and  O_13 
REMARK    4  A    between atoms: C_4  and  C_5 
REMARK    5  A    between atoms: C_5  and  O_16 
REMARK    6  A    between atoms: C_6  and  O_7 
ROOT
HETATM    1  C   UNL     1      59.156  21.474  15.753  1.00  0.00     0.204 C 
HETATM    2  C   UNL     1      58.026  20.583  16.249  1.00  0.00     0.183 C 
HETATM    3  C   UNL     1      56.702  21.225  15.822  1.00  0.00     0.180 C 
HETATM    4  C   UNL     1      56.658  21.307  14.296  1.00  0.00     0.179 C 
HETATM    5  C   UNL     1      59.063  21.549  14.233  1.00  0.00     0.288 C 
HETATM    6  O   UNL     1      57.771  22.100  13.862  1.00  0.00    -0.349 OA
ENDROOT
BRANCH   4   7
HETATM    7  C   UNL     1      55.406  22.011  13.767  1.00  0.00     0.198 C 
BRANCH   7   8
HETATM    8  O   UNL     1      55.788  23.278  13.231  1.00  0.00    -0.398 OA
ATOM      9  HO  UNL     1      55.429  23.962  13.785  1.00  0.00     0.209 HD
ENDBRANCH   7   8
ENDBRANCH   4   7
BRANCH   3  10
HETATM   10  O   UNL     1      55.596  20.508  16.357  1.00  0.00    -0.390 OA
ATOM     11  HO  UNL     1      54.776  20.922  16.115  1.00  0.00     0.210 HD
ENDBRANCH   3  10
BRANCH   5  12
HETATM   12  O   UNL     1      60.139  22.355  13.738  1.00  0.00    -0.369 OA
ATOM     13  HO  UNL     1      60.421  22.012  12.897  1.00  0.00     0.212 HD
ENDBRANCH   5  12
BRANCH   2  14
HETATM   14  O   UNL     1      58.076  20.440  17.653  1.00  0.00    -0.390 OA
ATOM     15  HO  UNL     1      58.059  21.287  18.081  1.00  0.00     0.210 HD
ENDBRANCH   2  14
BRANCH   1  16
HETATM   16  O   UNL     1      60.458  21.030  16.131  1.00  0.00    -0.388 OA
ATOM     17  HO  UNL     1      61.166  21.496  15.704  1.00  0.00     0.210 HD
ENDBRANCH   1  16
TORSDOF 6
ENDMDL
MODEL 5
REMARK VINA RESULT:    -4.787      1.385      2.950
REMARK INTER + INTRA:          -5.821
REMARK INTER:                  -5.575
REMARK INTRA:                  -0.247
REMARK UNBOUND:                -0.055
REMARK  6 active torsions:
REMARK  status: ('A' for Active; 'I' for Inactive)
REMARK    1  A    between atoms: C_1  and  O_9 
REMARK    2  A    between atoms: C_2  and  O_11 
REMARK    3  A    between atoms: C_3  and  O_13 
REMARK    4  A    between atoms: C_4  and  C_5 
REMARK    5  A    between atoms: C_5  and  O_16 
REMARK    6  A    between atoms: C_6  and  O_7 
ROOT
HETATM    1  C   UNL     1      55.410  20.675  14.386  1.00  0.00     0.204 C 
HETATM    2  C   UNL     1      55.659  20.889  15.872  1.00  0.00     0.183 C 
HETATM    3  C   UNL     1      57.123  20.539  16.157  1.00  0.00     0.180 C 
HETATM    4  C   UNL     1      58.024  21.472  15.346  1.00  0.00     0.179 C 
HETATM    5  C   UNL     1      56.342  21.604  13.615  1.00  0.00     0.288 C 
HETATM    6  O   UNL     1      57.718  21.289  13.958  1.00  0.00    -0.349 OA
ENDROOT
BRANCH   4   7
HETATM    7  C   UNL     1      59.513  21.151  15.497  1.00  0.00     0.198 C 
BRANCH   7   8
HETATM    8  O   UNL     1      59.980  21.720  16.721  1.00  0.00    -0.398 OA
ATOM      9  HO  UNL     1      60.865  22.037  16.589  1.00  0.00     0.209 HD
ENDBRANCH   7   8
ENDBRANCH   4   7
BRANCH   3  10
HETATM   10  O   UNL     1      57.396  20.601  17.551  1.00  0.00    -0.390 OA
ATOM     11  HO  UNL     1      58.235  21.015  17.713  1.00  0.00     0.210 HD
ENDBRANCH   3  10
BRANCH   5  12
HETATM   12  O   UNL     1      56.102  21.447  12.211  1.00  0.00    -0.369 OA
ATOM     13  HO  UNL     1      56.464  22.196  11.750  1.00  0.00     0.212 HD
ENDBRANCH   5  12
BRANCH   2  14
HETATM   14  O   UNL     1      54.798  20.084  16.648  1.00  0.00    -0.390 OA
ATOM     15  HO  UNL     1      53.906  20.130  16.325  1.00  0.00     0.210 HD
ENDBRANCH   2  14
BRANCH   1  16
HETATM   16  O   UNL     1      54.062  20.907  13.981  1.00  0.00    -0.388 OA
ATOM     17  HO  UNL     1      53.412  20.550  14.575  1.00  0.00     0.210 HD
ENDBRANCH   1  16
TORSDOF 6
ENDMDL
MODEL 6
REMARK VINA RESULT:    -4.749      1.417      3.694
REMARK INTER + INTRA:          -5.776
REMARK INTER:                  -5.526
REMARK INTRA:                  -0.250
REMARK UNBOUND:                -0.055
REMARK  6 active torsions:
REMARK  status: ('A' for Active; 'I' for Inactive)
REMARK    1  A    between atoms: C_1  and  O_9 
REMARK    2  A    between atoms: C_2  and  O_11 
REMARK    3  A    between atoms: C_3  and  O_13 
REMARK    4  A    between atoms: C_4  and  C_5 
REMARK    5  A    between atoms: C_5  and  O_16 
REMARK    6  A    between atoms: C_6  and  O_7 
ROOT
HETATM    1  C   UNL     1      58.418  20.990  15.618  1.00  0.00     0.204 C 
HETATM    2  C   UNL     1      57.888  21.805  14.446  1.00  0.00     0.183 C 
HETATM    3  C   UNL     1      56.578  21.162  13.982  1.00  0.00     0.180 C 
HETATM    4  C   UNL     1      55.570  21.202  15.133  1.00  0.00     0.179 C 
HETATM    5  C   UNL     1      57.377  21.036  16.730  1.00  0.00     0.288 C 
HETATM    6  O   UNL     1      56.129  20.479  16.237  1.00  0.00    -0.349 OA
ENDROOT
BRANCH   4   7
HETATM    7  C   UNL     1      54.248  20.507  14.798  1.00  0.00     0.198 C 
BRANCH   7   8
HETATM    8  O   UNL     1      54.462  19.625  13.696  1.00  0.00    -0.398 OA
ATOM      9  HO  UNL     1      54.852  20.118  12.984  1.00  0.00     0.209 HD
ENDBRANCH   7   8
ENDBRANCH   4   7
BRANCH   3  10
HETATM   10  O   UNL     1      56.087  21.801  12.811  1.00  0.00    -0.390 OA
ATOM     11  HO  UNL     1      55.715  22.650  13.020  1.00  0.00     0.210 HD
ENDBRANCH   3  10
BRANCH   5  12
HETATM   12  O   UNL     1      57.868  20.304  17.860  1.00  0.00    -0.369 OA
ATOM     13  HO  UNL     1      57.142  19.850  18.274  1.00  0.00     0.212 HD
ENDBRANCH   5  12
BRANCH   2  14
HETATM   14  O   UNL     1      58.824  21.836  13.389  1.00  0.00    -0.390 OA
ATOM     15  HO  UNL     1      58.851  22.695  12.985  1.00  0.00     0.210 HD
ENDBRANCH   2  14
BRANCH   1  16
HETATM   16  O   UNL     1      59.675  21.440  16.120  1.00  0.00    -0.388 OA
ATOM     17  HO  UNL     1      59.806  21.271  17.046  1.00  0.00     0.210 HD
ENDBRANCH   1  16
TORSDOF 6
ENDMDL
MODEL 7
REMARK VINA RESULT:    -4.492      9.187     10.834
REMARK INTER + INTRA:          -5.467
REMARK INTER:                  -5.213
REMARK INTRA:                  -0.253
REMARK UNBOUND:                -0.055
REMARK  6 active torsions:
REMARK  status: ('A' for Active; 'I' for Inactive)
REMARK    1  A    between atoms: C_1  and  O_9 
REMARK    2  A    between atoms: C_2  and  O_11 
REMARK    3  A    between atoms: C_3  and  O_13 
REMARK    4  A    between atoms: C_4  and  C_5 
REMARK    5  A    between atoms: C_5  and  O_16 
REMARK    6  A    between atoms: C_6  and  O_7 
ROOT
HETATM    1  C   UNL     1      62.265  17.872   9.268  1.00  0.00     0.204 C 
HETATM    2  C   UNL     1      63.033  16.953   8.329  1.00  0.00     0.183 C 
HETATM    3  C   UNL     1      62.117  16.615   7.150  1.00  0.00     0.180 C 
HETATM    4  C   UNL     1      61.753  17.908   6.418  1.00  0.00     0.179 C 
HETATM    5  C   UNL     1      61.902  19.135   8.495  1.00  0.00     0.288 C 
HETATM    6  O   UNL     1      61.088  18.773   7.347  1.00  0.00    -0.349 OA
ENDROOT
BRANCH   4   7
HETATM    7  C   UNL     1      60.769  17.690   5.265  1.00  0.00     0.198 C 
BRANCH   7   8
HETATM    8  O   UNL     1      59.976  16.538   5.554  1.00  0.00    -0.398 OA
ATOM      9  HO  UNL     1      59.091  16.694   5.247  1.00  0.00     0.209 HD
ENDBRANCH   7   8
ENDBRANCH   4   7
BRANCH   3  10
HETATM   10  O   UNL     1      62.728  15.661   6.291  1.00  0.00    -0.390 OA
ATOM     11  HO  UNL     1      63.357  15.131   6.767  1.00  0.00     0.210 HD
ENDBRANCH   3  10
BRANCH   5  12
HETATM   12  O   UNL     1      61.207  20.034   9.368  1.00  0.00    -0.369 OA
ATOM     13  HO  UNL     1      60.311  19.734   9.472  1.00  0.00     0.212 HD
ENDBRANCH   5  12
BRANCH   2  14
HETATM   14  O   UNL     1      63.436  15.775   8.996  1.00  0.00    -0.390 OA
ATOM     15  HO  UNL     1      63.506  15.048   8.388  1.00  0.00     0.210 HD
ENDBRANCH   2  14
BRANCH   1  16
HETATM   16  O   UNL     1      62.978  18.225  10.452  1.00  0.00    -0.388 OA
ATOM     17  HO  UNL     1      63.657  18.876  10.317  1.00  0.00     0.210 HD
ENDBRANCH   1  16
TORSDOF 6
ENDMDL
MODEL 8
REMARK VINA RESULT:    -4.466     10.695     11.910
REMARK INTER + INTRA:          -5.434
REMARK INTER:                  -5.383
REMARK INTRA:                  -0.051
REMARK UNBOUND:                -0.055
REMARK  6 active torsions:
REMARK  status: ('A' for Active; 'I' for Inactive)
REMARK    1  A    between atoms: C_1  and  O_9 
REMARK    2  A    between atoms: C_2  and  O_11 
REMARK    3  A    between atoms: C_3  and  O_13 
REMARK    4  A    between atoms: C_4  and  C_5 
REMARK    5  A    between atoms: C_5  and  O_16 
REMARK    6  A    between atoms: C_6  and  O_7 
ROOT
HETATM    1  C   UNL     1      59.868  28.410   7.864  1.00  0.00     0.204 C 
HETATM    2  C   UNL     1      60.902  28.952   8.841  1.00  0.00     0.183 C 
HETATM    3  C   UNL     1      62.209  28.187   8.612  1.00  0.00     0.180 C 
HETATM    4  C   UNL     1      62.682  28.428   7.178  1.00  0.00     0.179 C 
HETATM    5  C   UNL     1      60.387  28.648   6.451  1.00  0.00     0.288 C 
HETATM    6  O   UNL     1      61.658  27.963   6.289  1.00  0.00    -0.349 OA
ENDROOT
BRANCH   4   7
HETATM    7  C   UNL     1      63.943  27.638   6.820  1.00  0.00     0.198 C 
BRANCH   7   8
HETATM    8  O   UNL     1      63.572  26.542   5.982  1.00  0.00    -0.398 OA
ATOM      9  HO  UNL     1      64.361  26.161   5.614  1.00  0.00     0.209 HD
ENDBRANCH   7   8
ENDBRANCH   4   7
BRANCH   3  10
HETATM   10  O   UNL     1      63.188  28.559   9.574  1.00  0.00    -0.390 OA
ATOM     11  HO  UNL     1      62.918  28.302  10.448  1.00  0.00     0.210 HD
ENDBRANCH   3  10
BRANCH   5  12
HETATM   12  O   UNL     1      59.414  28.178   5.510  1.00  0.00    -0.369 OA
ATOM     13  HO  UNL     1      58.698  27.770   5.983  1.00  0.00     0.212 HD
ENDBRANCH   5  12
BRANCH   2  14
HETATM   14  O   UNL     1      60.466  28.798  10.175  1.00  0.00    -0.390 OA
ATOM     15  HO  UNL     1      61.067  28.252  10.668  1.00  0.00     0.210 HD
ENDBRANCH   2  14
BRANCH   1  16
HETATM   16  O   UNL     1      58.573  28.993   8.003  1.00  0.00    -0.388 OA
ATOM     17  HO  UNL     1      57.859  28.370   7.943  1.00  0.00     0.210 HD
ENDBRANCH   1  16
TORSDOF 6
ENDMDL
MODEL 9
REMARK VINA RESULT:    -4.303      2.282      5.001
REMARK INTER + INTRA:          -5.238
REMARK INTER:                  -5.048
REMARK INTRA:                  -0.190
REMARK UNBOUND:                -0.055
REMARK  6 active torsions:
REMARK  status: ('A' for Active; 'I' for Inactive)
REMARK    1  A    between atoms: C_1  and  O_9 
REMARK    2  A    between atoms: C_2  and  O_11 
REMARK    3  A    between atoms: C_3  and  O_13 
REMARK    4  A    between atoms: C_4  and  C_5 
REMARK    5  A    between atoms: C_5  and  O_16 
REMARK    6  A    between atoms: C_6  and  O_7 
ROOT
HETATM    1  C   UNL     1      60.782  20.662  16.670  1.00  0.00     0.204 C 
HETATM    2  C   UNL     1      60.348  21.626  15.575  1.00  0.00     0.183 C 
HETATM    3  C   UNL     1      58.975  21.173  15.068  1.00  0.00     0.180 C 
HETATM    4  C   UNL     1      57.977  21.228  16.225  1.00  0.00     0.179 C 
HETATM    5  C   UNL     1      59.750  20.729  17.790  1.00  0.00     0.288 C 
HETATM    6  O   UNL     1      58.448  20.358  17.261  1.00  0.00    -0.349 OA
ENDROOT
BRANCH   4   7
HETATM    7  C   UNL     1      56.586  20.716  15.844  1.00  0.00     0.198 C 
BRANCH   7   8
HETATM    8  O   UNL     1      55.767  21.833  15.497  1.00  0.00    -0.398 OA
ATOM      9  HO  UNL     1      54.911  21.717  15.893  1.00  0.00     0.209 HD
ENDBRANCH   7   8
ENDBRANCH   4   7
BRANCH   3  10
HETATM   10  O   UNL     1      58.561  21.959  13.958  1.00  0.00    -0.390 OA
ATOM     11  HO  UNL     1      57.722  22.372  14.131  1.00  0.00     0.210 HD
ENDBRANCH   3  10
BRANCH   5  12
HETATM   12  O   UNL     1      60.154  19.855  18.851  1.00  0.00    -0.369 OA
ATOM     13  HO  UNL     1      59.944  20.263  19.684  1.00  0.00     0.212 HD
ENDBRANCH   5  12
BRANCH   2  14
HETATM   14  O   UNL     1      61.284  21.641  14.517  1.00  0.00    -0.390 OA
ATOM     15  HO  UNL     1      60.967  22.164  13.790  1.00  0.00     0.210 HD
ENDBRANCH   2  14
BRANCH   1  16
HETATM   16  O   UNL     1      62.080  20.925  17.199  1.00  0.00    -0.388 OA
ATOM     17  HO  UNL     1      62.582  20.145  17.404  1.00  0.00     0.210 HD
ENDBRANCH   1  16
TORSDOF 6
ENDMDL
MODEL 10
REMARK VINA RESULT:    -4.250      2.049      5.204
REMARK INTER + INTRA:          -5.174
REMARK INTER:                  -5.124
REMARK INTRA:                  -0.051
REMARK UNBOUND:                -0.055
REMARK  6 active torsions:
REMARK  status: ('A' for Active; 'I' for Inactive)
REMARK    1  A    between atoms: C_1  and  O_9 
REMARK    2  A    between atoms: C_2  and  O_11 
REMARK    3  A    between atoms: C_3  and  O_13 
REMARK    4  A    between atoms: C_4  and  C_5 
REMARK    5  A    between atoms: C_5  and  O_16 
REMARK    6  A    between atoms: C_6  and  O_7 
ROOT
HETATM    1  C   UNL     1      60.381  21.805  15.560  1.00  0.00     0.204 C 
HETATM    2  C   UNL     1      59.766  20.912  16.628  1.00  0.00     0.183 C 
HETATM    3  C   UNL     1      58.265  21.209  16.680  1.00  0.00     0.180 C 
HETATM    4  C   UNL     1      57.646  20.882  15.320  1.00  0.00     0.179 C 
HETATM    5  C   UNL     1      59.722  21.465  14.228  1.00  0.00     0.288 C 
HETATM    6  O   UNL     1      58.291  21.696  14.331  1.00  0.00    -0.349 OA
ENDROOT
BRANCH   4   7
HETATM    7  C   UNL     1      56.156  21.223  15.239  1.00  0.00     0.198 C 
BRANCH   7   8
HETATM    8  O   UNL     1      55.989  22.334  14.357  1.00  0.00    -0.398 OA
ATOM      9  HO  UNL     1      55.161  22.238  13.902  1.00  0.00     0.209 HD
ENDBRANCH   7   8
ENDBRANCH   4   7
BRANCH   3  10
HETATM   10  O   UNL     1      57.644  20.495  17.741  1.00  0.00    -0.390 OA
ATOM     11  HO  UNL     1      56.936  21.002  18.121  1.00  0.00     0.210 HD
ENDBRANCH   3  10
BRANCH   5  12
HETATM   12  O   UNL     1      60.310  22.269  13.197  1.00  0.00    -0.369 OA
ATOM     13  HO  UNL     1      61.099  21.843  12.884  1.00  0.00     0.212 HD
ENDBRANCH   5  12
BRANCH   2  14
HETATM   14  O   UNL     1      60.361  21.148  17.886  1.00  0.00    -0.390 OA
ATOM     15  HO  UNL     1      61.220  20.746  17.937  1.00  0.00     0.210 HD
ENDBRANCH   2  14
BRANCH   1  16
HETATM   16  O   UNL     1      61.797  21.680  15.439  1.00  0.00    -0.388 OA
ATOM     17  HO  UNL     1      62.143  20.855  15.760  1.00  0.00     0.210 HD
ENDBRANCH   1  16
TORSDOF 6
ENDMDL
MODEL 11
REMARK VINA RESULT:    -4.195      1.842      3.778
REMARK INTER + INTRA:          -5.108
REMARK INTER:                  -5.076
REMARK INTRA:                  -0.032
REMARK UNBOUND:                -0.055
REMARK  6 active torsions:
REMARK  status: ('A' for Active; 'I' for Inactive)
REMARK    1  A    between atoms: C_1  and  O_9 
REMARK    2  A    between atoms: C_2  and  O_11 
REMARK    3  A    between atoms: C_3  and  O_13 
REMARK    4  A    between atoms: C_4  and  C_5 
REMARK    5  A    between atoms: C_5  and  O_16 
REMARK    6  A    between atoms: C_6  and  O_7 
ROOT
HETATM    1  C   UNL     1      56.775  20.714  15.519  1.00  0.00     0.204 C 
HETATM    2  C   UNL     1      57.861  21.175  16.480  1.00  0.00     0.183 C 
HETATM    3  C   UNL     1      59.215  20.963  15.795  1.00  0.00     0.180 C 
HETATM    4  C   UNL     1      59.264  21.809  14.521  1.00  0.00     0.179 C 
HETATM    5  C   UNL     1      56.874  21.564  14.257  1.00  0.00     0.288 C 
HETATM    6  O   UNL     1      58.191  21.391  13.668  1.00  0.00    -0.349 OA
ENDROOT
BRANCH   4   7
HETATM    7  C   UNL     1      60.549  21.607  13.714  1.00  0.00     0.198 C 
BRANCH   7   8
HETATM    8  O   UNL     1      60.707  22.714  12.826  1.00  0.00    -0.398 OA
ATOM      9  HO  UNL     1      59.904  23.221  12.826  1.00  0.00     0.209 HD
ENDBRANCH   7   8
ENDBRANCH   4   7
BRANCH   3  10
HETATM   10  O   UNL     1      60.284  21.261  16.683  1.00  0.00    -0.390 OA
ATOM     11  HO  UNL     1      60.032  21.094  17.584  1.00  0.00     0.210 HD
ENDBRANCH   3  10
BRANCH   5  12
HETATM   12  O   UNL     1      55.837  21.173  13.348  1.00  0.00    -0.369 OA
ATOM     13  HO  UNL     1      56.154  21.272  12.457  1.00  0.00     0.212 HD
ENDBRANCH   5  12
BRANCH   2  14
HETATM   14  O   UNL     1      57.803  20.451  17.691  1.00  0.00    -0.390 OA
ATOM     15  HO  UNL     1      58.417  20.801  18.326  1.00  0.00     0.210 HD
ENDBRANCH   2  14
BRANCH   1  16
HETATM   16  O   UNL     1      55.453  20.796  16.049  1.00  0.00    -0.388 OA
ATOM     17  HO  UNL     1      55.120  19.974  16.389  1.00  0.00     0.210 HD
ENDBRANCH   1  16
TORSDOF 6
ENDMDL
MODEL 12
REMARK VINA RESULT:    -4.055      1.981      3.057
REMARK INTER + INTRA:          -4.939
REMARK INTER:                  -4.905
REMARK INTRA:                  -0.034
REMARK UNBOUND:                -0.055
REMARK  6 active torsions:
REMARK  status: ('A' for Active; 'I' for Inactive)
REMARK    1  A    between atoms: C_1  and  O_9 
REMARK    2  A    between atoms: C_2  and  O_11 
REMARK    3  A    between atoms: C_3  and  O_13 
REMARK    4  A    between atoms: C_4  and  C_5 
REMARK    5  A    between atoms: C_5  and  O_16 
REMARK    6  A    between atoms: C_6  and  O_7 
ROOT
HETATM    1  C   UNL     1      57.678  21.550  14.901  1.00  0.00     0.204 C 
HETATM    2  C   UNL     1      59.129  21.285  14.525  1.00  0.00     0.183 C 
HETATM    3  C   UNL     1      59.954  21.283  15.816  1.00  0.00     0.180 C 
HETATM    4  C   UNL     1      59.448  20.164  16.727  1.00  0.00     0.179 C 
HETATM    5  C   UNL     1      57.221  20.427  15.826  1.00  0.00     0.288 C 
HETATM    6  O   UNL     1      58.064  20.412  17.008  1.00  0.00    -0.349 OA
ENDROOT
BRANCH   4   7
HETATM    7  C   UNL     1      60.155  20.128  18.084  1.00  0.00     0.198 C 
BRANCH   7   8
HETATM    8  O   UNL     1      59.717  18.969  18.795  1.00  0.00    -0.398 OA
ATOM      9  HO  UNL     1      59.400  18.330  18.168  1.00  0.00     0.209 HD
ENDBRANCH   7   8
ENDBRANCH   4   7
BRANCH   3  10
HETATM   10  O   UNL     1      61.341  21.161  15.529  1.00  0.00    -0.390 OA
ATOM     11  HO  UNL     1      61.826  21.895  15.890  1.00  0.00     0.210 HD
ENDBRANCH   3  10
BRANCH   5  12
HETATM   12  O   UNL     1      55.844  20.634  16.166  1.00  0.00    -0.369 OA
ATOM     13  HO  UNL     1      55.644  21.561  16.101  1.00  0.00     0.212 HD
ENDBRANCH   5  12
BRANCH   2  14
HETATM   14  O   UNL     1      59.607  22.272  13.635  1.00  0.00    -0.390 OA
ATOM     15  HO  UNL     1      60.556  22.282  13.618  1.00  0.00     0.210 HD
ENDBRANCH   2  14
BRANCH   1  16
HETATM   16  O   UNL     1      56.793  21.639  13.785  1.00  0.00    -0.388 OA
ATOM     17  HO  UNL     1      57.233  21.673  12.943  1.00  0.00     0.210 HD
ENDBRANCH   1  16
TORSDOF 6
ENDMDL
MODEL 13
REMARK VINA RESULT:    -4.028     10.762     11.756
REMARK INTER + INTRA:          -4.907
REMARK INTER:                  -4.652
REMARK INTRA:                  -0.254
REMARK UNBOUND:                -0.055
REMARK  6 active torsions:
REMARK  status: ('A' for Active; 'I' for Inactive)
REMARK    1  A    between atoms: C_1  and  O_9 
REMARK    2  A    between atoms: C_2  and  O_11 
REMARK    3  A    between atoms: C_3  and  O_13 
REMARK    4  A    between atoms: C_4  and  C_5 
REMARK    5  A    between atoms: C_5  and  O_16 
REMARK    6  A    between atoms: C_6  and  O_7 
ROOT
HETATM    1  C   UNL     1      60.196  28.855   6.696  1.00  0.00     0.204 C 
HETATM    2  C   UNL     1      61.663  28.630   7.034  1.00  0.00     0.183 C 
HETATM    3  C   UNL     1      61.986  29.450   8.286  1.00  0.00     0.180 C 
HETATM    4  C   UNL     1      61.112  28.959   9.441  1.00  0.00     0.179 C 
HETATM    5  C   UNL     1      59.363  28.375   7.879  1.00  0.00     0.288 C 
HETATM    6  O   UNL     1      59.740  29.127   9.063  1.00  0.00    -0.349 OA
ENDROOT
BRANCH   4   7
HETATM    7  C   UNL     1      61.299  29.771  10.725  1.00  0.00     0.198 C 
BRANCH   7   8
HETATM    8  O   UNL     1      61.735  31.085  10.374  1.00  0.00    -0.398 OA
ATOM      9  HO  UNL     1      61.839  31.593  11.170  1.00  0.00     0.209 HD
ENDBRANCH   7   8
ENDBRANCH   4   7
BRANCH   3  10
HETATM   10  O   UNL     1      63.373  29.383   8.591  1.00  0.00    -0.390 OA
ATOM     11  HO  UNL     1      63.569  28.608   9.104  1.00  0.00     0.210 HD
ENDBRANCH   3  10
BRANCH   5  12
HETATM   12  O   UNL     1      57.973  28.543   7.571  1.00  0.00    -0.369 OA
ATOM     13  HO  UNL     1      57.816  29.449   7.333  1.00  0.00     0.212 HD
ENDBRANCH   5  12
BRANCH   2  14
HETATM   14  O   UNL     1      62.493  29.020   5.960  1.00  0.00    -0.390 OA
ATOM     15  HO  UNL     1      62.658  29.955   5.981  1.00  0.00     0.210 HD
ENDBRANCH   2  14
BRANCH   1  16
HETATM   16  O   UNL     1      59.763  28.195   5.507  1.00  0.00    -0.388 OA
ATOM     17  HO  UNL     1      58.822  28.206   5.377  1.00  0.00     0.210 HD
ENDBRANCH   1  16
TORSDOF 6
ENDMDL
MODEL 14
REMARK VINA RESULT:    -4.008      3.191      5.611
REMARK INTER + INTRA:          -4.883
REMARK INTER:                  -4.640
REMARK INTRA:                  -0.244
REMARK UNBOUND:                -0.055
REMARK  6 active torsions:
REMARK  status: ('A' for Active; 'I' for Inactive)
REMARK    1  A    between atoms: C_1  and  O_9 
REMARK    2  A    between atoms: C_2  and  O_11 
REMARK    3  A    between atoms: C_3  and  O_13 
REMARK    4  A    between atoms: C_4  and  C_5 
REMARK    5  A    between atoms: C_5  and  O_16 
REMARK    6  A    between atoms: C_6  and  O_7 
ROOT
HETATM    1  C   UNL     1      60.063  20.306  17.647  1.00  0.00     0.204 C 
HETATM    2  C   UNL     1      58.796  20.279  16.804  1.00  0.00     0.183 C 
HETATM    3  C   UNL     1      59.013  21.205  15.603  1.00  0.00     0.180 C 
HETATM    4  C   UNL     1      60.190  20.682  14.778  1.00  0.00     0.179 C 
HETATM    5  C   UNL     1      61.212  19.800  16.783  1.00  0.00     0.288 C 
HETATM    6  O   UNL     1      61.349  20.662  15.621  1.00  0.00    -0.349 OA
ENDROOT
BRANCH   4   7
HETATM    7  C   UNL     1      60.544  21.586  13.595  1.00  0.00     0.198 C 
BRANCH   7   8
HETATM    8  O   UNL     1      59.942  22.864  13.801  1.00  0.00    -0.398 OA
ATOM      9  HO  UNL     1      60.601  23.535  13.670  1.00  0.00     0.209 HD
ENDBRANCH   7   8
ENDBRANCH   4   7
BRANCH   3  10
HETATM   10  O   UNL     1      57.824  21.324  14.833  1.00  0.00    -0.390 OA
ATOM     11  HO  UNL     1      57.413  20.476  14.713  1.00  0.00     0.210 HD
ENDBRANCH   3  10
BRANCH   5  12
HETATM   12  O   UNL     1      62.412  19.781  17.566  1.00  0.00    -0.369 OA
ATOM     13  HO  UNL     1      62.767  20.662  17.612  1.00  0.00     0.212 HD
ENDBRANCH   5  12
BRANCH   2  14
HETATM   14  O   UNL     1      57.679  20.702  17.558  1.00  0.00    -0.390 OA
ATOM     15  HO  UNL     1      57.690  21.644  17.682  1.00  0.00     0.210 HD
ENDBRANCH   2  14
BRANCH   1  16
HETATM   16  O   UNL     1      59.984  19.529  18.841  1.00  0.00    -0.388 OA
ATOM     17  HO  UNL     1      59.698  20.018  19.604  1.00  0.00     0.210 HD
ENDBRANCH   1  16
TORSDOF 6
ENDMDL
MODEL 15
REMARK VINA RESULT:    -3.979     10.445     12.534
REMARK INTER + INTRA:          -4.848
REMARK INTER:                  -4.624
REMARK INTRA:                  -0.224
REMARK UNBOUND:                -0.055
REMARK  6 active torsions:
REMARK  status: ('A' for Active; 'I' for Inactive)
REMARK    1  A    between atoms: C_1  and  O_9 
REMARK    2  A    between atoms: C_2  and  O_11 
REMARK    3  A    between atoms: C_3  and  O_13 
REMARK    4  A    between atoms: C_4  and  C_5 
REMARK    5  A    between atoms: C_5  and  O_16 
REMARK    6  A    between atoms: C_6  and  O_7 
ROOT
HETATM    1  C   UNL     1      60.793  29.332   9.354  1.00  0.00     0.204 C 
HETATM    2  C   UNL     1      60.103  28.411   8.358  1.00  0.00     0.183 C 
HETATM    3  C   UNL     1      60.263  29.025   6.964  1.00  0.00     0.180 C 
HETATM    4  C   UNL     1      61.753  29.117   6.630  1.00  0.00     0.179 C 
HETATM    5  C   UNL     1      62.267  29.415   8.973  1.00  0.00     0.288 C 
HETATM    6  O   UNL     1      62.380  29.939   7.623  1.00  0.00    -0.349 OA
ENDROOT
BRANCH   4   7
HETATM    7  C   UNL     1      62.027  29.795   5.285  1.00  0.00     0.198 C 
BRANCH   7   8
HETATM    8  O   UNL     1      60.816  30.391   4.820  1.00  0.00    -0.398 OA
ATOM      9  HO  UNL     1      60.946  30.685   3.926  1.00  0.00     0.209 HD
ENDBRANCH   7   8
ENDBRANCH   4   7
BRANCH   3  10
HETATM   10  O   UNL     1      59.538  28.278   5.995  1.00  0.00    -0.390 OA
ATOM     11  HO  UNL     1      59.954  28.335   5.143  1.00  0.00     0.210 HD
ENDBRANCH   3  10
BRANCH   5  12
HETATM   12  O   UNL     1      62.948  30.250   9.919  1.00  0.00    -0.369 OA
ATOM     13  HO  UNL     1      63.860  29.987   9.962  1.00  0.00     0.212 HD
ENDBRANCH   5  12
BRANCH   2  14
HETATM   14  O   UNL     1      58.736  28.258   8.676  1.00  0.00    -0.390 OA
ATOM     15  HO  UNL     1      58.623  28.042   9.594  1.00  0.00     0.210 HD
ENDBRANCH   2  14
BRANCH   1  16
HETATM   16  O   UNL     1      60.673  28.915  10.713  1.00  0.00    -0.388 OA
ATOM     17  HO  UNL     1      61.057  29.518  11.339  1.00  0.00     0.210 HD
ENDBRANCH   1  16
TORSDOF 6
ENDMDL
MODEL 16
REMARK VINA RESULT:    -3.922      3.026      4.807
REMARK INTER + INTRA:          -4.779
REMARK INTER:                  -4.524
REMARK INTRA:                  -0.255
REMARK UNBOUND:                -0.055
REMARK  6 active torsions:
REMARK  status: ('A' for Active; 'I' for Inactive)
REMARK    1  A    between atoms: C_1  and  O_9 
REMARK    2  A    between atoms: C_2  and  O_11 
REMARK    3  A    between atoms: C_3  and  O_13 
REMARK    4  A    between atoms: C_4  and  C_5 
REMARK    5  A    between atoms: C_5  and  O_16 
REMARK    6  A    between atoms: C_6  and  O_7 
ROOT
HETATM    1  C   UNL     1      58.773  21.236  16.907  1.00  0.00     0.204 C 
HETATM    2  C   UNL     1      58.741  21.012  15.401  1.00  0.00     0.183 C 
HETATM    3  C   UNL     1      59.979  21.686  14.802  1.00  0.00     0.180 C 
HETATM    4  C   UNL     1      61.233  21.038  15.391  1.00  0.00     0.179 C 
HETATM    5  C   UNL     1      60.046  20.597  17.450  1.00  0.00     0.288 C 
HETATM    6  O   UNL     1      61.197  21.214  16.813  1.00  0.00    -0.349 OA
ENDROOT
BRANCH   4   7
HETATM    7  C   UNL     1      62.530  21.697  14.917  1.00  0.00     0.198 C 
BRANCH   7   8
HETATM    8  O   UNL     1      62.245  23.044  14.537  1.00  0.00    -0.398 OA
ATOM      9  HO  UNL     1      62.714  23.630  15.120  1.00  0.00     0.209 HD
ENDBRANCH   7   8
ENDBRANCH   4   7
BRANCH   3  10
HETATM   10  O   UNL     1      59.953  21.621  13.382  1.00  0.00    -0.390 OA
ATOM     11  HO  UNL     1      60.832  21.681  13.024  1.00  0.00     0.210 HD
ENDBRANCH   3  10
BRANCH   5  12
HETATM   12  O   UNL     1      60.082  20.763  18.873  1.00  0.00    -0.369 OA
ATOM     13  HO  UNL     1      59.498  21.473  19.117  1.00  0.00     0.212 HD
ENDBRANCH   5  12
BRANCH   2  14
HETATM   14  O   UNL     1      57.564  21.549  14.836  1.00  0.00    -0.390 OA
ATOM     15  HO  UNL     1      56.799  21.063  15.122  1.00  0.00     0.210 HD
ENDBRANCH   2  14
BRANCH   1  16
HETATM   16  O   UNL     1      57.641  20.710  17.598  1.00  0.00    -0.388 OA
ATOM     17  HO  UNL     1      56.936  20.425  17.028  1.00  0.00     0.210 HD
ENDBRANCH   1  16
TORSDOF 6
ENDMDL
MODEL 17
REMARK VINA RESULT:    -3.908      2.506      4.484
REMARK INTER + INTRA:          -4.762
REMARK INTER:                  -4.508
REMARK INTRA:                  -0.254
REMARK UNBOUND:                -0.055
REMARK  6 active torsions:
REMARK  status: ('A' for Active; 'I' for Inactive)
REMARK    1  A    between atoms: C_1  and  O_9 
REMARK    2  A    between atoms: C_2  and  O_11 
REMARK    3  A    between atoms: C_3  and  O_13 
REMARK    4  A    between atoms: C_4  and  C_5 
REMARK    5  A    between atoms: C_5  and  O_16 
REMARK    6  A    between atoms: C_6  and  O_7 
ROOT
HETATM    1  C   UNL     1      58.308  21.193  14.602  1.00  0.00     0.204 C 
HETATM    2  C   UNL     1      58.110  21.125  16.109  1.00  0.00     0.183 C 
HETATM    3  C   UNL     1      59.052  20.048  16.658  1.00  0.00     0.180 C 
HETATM    4  C   UNL     1      60.495  20.447  16.347  1.00  0.00     0.179 C 
HETATM    5  C   UNL     1      59.761  21.569  14.336  1.00  0.00     0.288 C 
HETATM    6  O   UNL     1      60.628  20.563  14.925  1.00  0.00    -0.349 OA
ENDROOT
BRANCH   4   7
HETATM    7  C   UNL     1      61.517  19.393  16.783  1.00  0.00     0.198 C 
BRANCH   7   8
HETATM    8  O   UNL     1      60.860  18.127  16.863  1.00  0.00    -0.398 OA
ATOM      9  HO  UNL     1      60.783  17.883  17.777  1.00  0.00     0.209 HD
ENDBRANCH   7   8
ENDBRANCH   4   7
BRANCH   3  10
HETATM   10  O   UNL     1      58.834  19.845  18.048  1.00  0.00    -0.390 OA
ATOM     11  HO  UNL     1      58.382  20.588  18.431  1.00  0.00     0.210 HD
ENDBRANCH   3  10
BRANCH   5  12
HETATM   12  O   UNL     1      59.966  21.675  12.922  1.00  0.00    -0.369 OA
ATOM     13  HO  UNL     1      60.367  20.873  12.606  1.00  0.00     0.212 HD
ENDBRANCH   5  12
BRANCH   2  14
HETATM   14  O   UNL     1      56.769  20.817  16.428  1.00  0.00    -0.390 OA
ATOM     15  HO  UNL     1      56.607  19.884  16.351  1.00  0.00     0.210 HD
ENDBRANCH   2  14
BRANCH   1  16
HETATM   16  O   UNL     1      57.446  22.119  13.942  1.00  0.00    -0.388 OA
ATOM     17  HO  UNL     1      57.420  22.979  14.344  1.00  0.00     0.210 HD
ENDBRANCH   1  16
TORSDOF 6
ENDMDL
MODEL 18
REMARK VINA RESULT:    -3.852     10.696     12.724
REMARK INTER + INTRA:          -4.695
REMARK INTER:                  -4.478
REMARK INTRA:                  -0.217
REMARK UNBOUND:                -0.055
REMARK  6 active torsions:
REMARK  status: ('A' for Active; 'I' for Inactive)
REMARK    1  A    between atoms: C_1  and  O_9 
REMARK    2  A    between atoms: C_2  and  O_11 
REMARK    3  A    between atoms: C_3  and  O_13 
REMARK    4  A    between atoms: C_4  and  C_5 
REMARK    5  A    between atoms: C_5  and  O_16 
REMARK    6  A    between atoms: C_6  and  O_7 
ROOT
HETATM    1  C   UNL     1      62.722  29.839   7.865  1.00  0.00     0.204 C 
HETATM    2  C   UNL     1      61.913  29.781   6.577  1.00  0.00     0.183 C 
HETATM    3  C   UNL     1      60.744  28.817   6.800  1.00  0.00     0.180 C 
HETATM    4  C   UNL     1      59.868  29.354   7.933  1.00  0.00     0.179 C 
HETATM    5  C   UNL     1      61.808  30.354   8.970  1.00  0.00     0.288 C 
HETATM    6  O   UNL     1      60.677  29.453   9.112  1.00  0.00    -0.349 OA
ENDROOT
BRANCH   4   7
HETATM    7  C   UNL     1      58.711  28.418   8.293  1.00  0.00     0.198 C 
BRANCH   7   8
HETATM    8  O   UNL     1      57.804  28.370   7.191  1.00  0.00    -0.398 OA
ATOM      9  HO  UNL     1      57.708  27.466   6.916  1.00  0.00     0.209 HD
ENDBRANCH   7   8
ENDBRANCH   4   7
BRANCH   3  10
HETATM   10  O   UNL     1      60.012  28.622   5.597  1.00  0.00    -0.390 OA
ATOM     11  HO  UNL     1      59.335  27.966   5.717  1.00  0.00     0.210 HD
ENDBRANCH   3  10
BRANCH   5  12
HETATM   12  O   UNL     1      62.557  30.452  10.189  1.00  0.00    -0.369 OA
ATOM     13  HO  UNL     1      61.960  30.385  10.925  1.00  0.00     0.212 HD
ENDBRANCH   5  12
BRANCH   2  14
HETATM   14  O   UNL     1      62.713  29.345   5.498  1.00  0.00    -0.390 OA
ATOM     15  HO  UNL     1      63.633  29.340   5.737  1.00  0.00     0.210 HD
ENDBRANCH   2  14
BRANCH   1  16
HETATM   16  O   UNL     1      63.887  30.658   7.786  1.00  0.00    -0.388 OA
ATOM     17  HO  UNL     1      64.604  30.369   8.338  1.00  0.00     0.210 HD
ENDBRANCH   1  16
TORSDOF 6
ENDMDL
MODEL 19
REMARK VINA RESULT:    -3.850      3.082      5.120
REMARK INTER + INTRA:          -4.693
REMARK INTER:                  -4.473
REMARK INTRA:                  -0.220
REMARK UNBOUND:                -0.055
REMARK  6 active torsions:
REMARK  status: ('A' for Active; 'I' for Inactive)
REMARK    1  A    between atoms: C_1  and  O_9 
REMARK    2  A    between atoms: C_2  and  O_11 
REMARK    3  A    between atoms: C_3  and  O_13 
REMARK    4  A    between atoms: C_4  and  C_5 
REMARK    5  A    between atoms: C_5  and  O_16 
REMARK    6  A    between atoms: C_6  and  O_7 
ROOT
HETATM    1  C   UNL     1      59.868  21.367  14.654  1.00  0.00     0.204 C 
HETATM    2  C   UNL     1      58.790  21.542  15.714  1.00  0.00     0.183 C 
HETATM    3  C   UNL     1      59.027  20.490  16.802  1.00  0.00     0.180 C 
HETATM    4  C   UNL     1      60.404  20.722  17.426  1.00  0.00     0.179 C 
HETATM    5  C   UNL     1      61.221  21.583  15.321  1.00  0.00     0.288 C 
HETATM    6  O   UNL     1      61.387  20.612  16.388  1.00  0.00    -0.349 OA
ENDROOT
BRANCH   4   7
HETATM    7  C   UNL     1      60.775  19.669  18.473  1.00  0.00     0.198 C 
BRANCH   7   8
HETATM    8  O   UNL     1      60.354  20.134  19.756  1.00  0.00    -0.398 OA
ATOM      9  HO  UNL     1      60.822  19.647  20.424  1.00  0.00     0.209 HD
ENDBRANCH   7   8
ENDBRANCH   4   7
BRANCH   3  10
HETATM   10  O   UNL     1      57.984  20.516  17.768  1.00  0.00    -0.390 OA
ATOM     11  HO  UNL     1      58.195  21.113  18.476  1.00  0.00     0.210 HD
ENDBRANCH   3  10
BRANCH   5  12
HETATM   12  O   UNL     1      62.254  21.459  14.334  1.00  0.00    -0.369 OA
ATOM     13  HO  UNL     1      62.460  22.321  13.992  1.00  0.00     0.212 HD
ENDBRANCH   5  12
BRANCH   2  14
HETATM   14  O   UNL     1      57.502  21.392  15.154  1.00  0.00    -0.390 OA
ATOM     15  HO  UNL     1      57.005  20.730  15.620  1.00  0.00     0.210 HD
ENDBRANCH   2  14
BRANCH   1  16
HETATM   16  O   UNL     1      59.737  22.248  13.539  1.00  0.00    -0.388 OA
ATOM     17  HO  UNL     1      60.469  22.219  12.934  1.00  0.00     0.210 HD
ENDBRANCH   1  16
TORSDOF 6
ENDMDL
MODEL 20
REMARK VINA RESULT:    -3.832     10.218     12.188
REMARK INTER + INTRA:          -4.672
REMARK INTER:                  -4.616
REMARK INTRA:                  -0.055
REMARK UNBOUND:                -0.055
REMARK  6 active torsions:
REMARK  status: ('A' for Active; 'I' for Inactive)
REMARK    1  A    between atoms: C_1  and  O_9 
REMARK    2  A    between atoms: C_2  and  O_11 
REMARK    3  A    between atoms: C_3  and  O_13 
REMARK    4  A    between atoms: C_4  and  C_5 
REMARK    5  A    between atoms: C_5  and  O_16 
REMARK    6  A    between atoms: C_6  and  O_7 
ROOT
HETATM    1  C   UNL     1      60.887  27.982   9.154  1.00  0.00     0.204 C 
HETATM    2  C   UNL     1      62.231  28.694   9.105  1.00  0.00     0.183 C 
HETATM    3  C   UNL     1      62.444  29.196   7.674  1.00  0.00     0.180 C 
HETATM    4  C   UNL     1      61.329  30.182   7.322  1.00  0.00     0.179 C 
HETATM    5  C   UNL     1      59.808  28.991   8.775  1.00  0.00     0.288 C 
HETATM    6  O   UNL     1      60.076  29.496   7.440  1.00  0.00    -0.349 OA
ENDROOT
BRANCH   4   7
HETATM    7  C   UNL     1      61.403  30.683   5.878  1.00  0.00     0.198 C 
BRANCH   7   8
HETATM    8  O   UNL     1      60.684  29.774   5.043  1.00  0.00    -0.398 OA
ATOM      9  HO  UNL     1      60.448  29.011   5.557  1.00  0.00     0.209 HD
ENDBRANCH   7   8
ENDBRANCH   4   7
BRANCH   3  10
HETATM   10  O   UNL     1      63.738  29.767   7.524  1.00  0.00    -0.390 OA
ATOM     11  HO  UNL     1      64.012  30.196   8.326  1.00  0.00     0.210 HD
ENDBRANCH   3  10
BRANCH   5  12
HETATM   12  O   UNL     1      58.526  28.355   8.849  1.00  0.00    -0.369 OA
ATOM     13  HO  UNL     1      58.228  28.157   7.968  1.00  0.00     0.212 HD
ENDBRANCH   5  12
BRANCH   2  14
HETATM   14  O   UNL     1      63.276  27.822   9.484  1.00  0.00    -0.390 OA
ATOM     15  HO  UNL     1      63.300  27.056   8.922  1.00  0.00     0.210 HD
ENDBRANCH   2  14
BRANCH   1  16
HETATM   16  O   UNL     1      60.578  27.405  10.422  1.00  0.00    -0.388 OA
ATOM     17  HO  UNL     1      60.530  26.456  10.415  1.00  0.00     0.210 HD
ENDBRANCH   1  16
TORSDOF 6
ENDMDL
