REMARK  15 active torsions:
REMARK  status: ('A' for Active; 'I' for Inactive)
REMARK    1  A    between atoms: C_1  and  O_47 
REMARK    2  A    between atoms: C_7  and  O_49 
REMARK    3  A    between atoms: C_8  and  O_51 
REMARK    4  A    between atoms: C_9  and  O_54 
REMARK    5  A    between atoms: C_12  and  O_56 
REMARK    6  A    between atoms: C_14  and  O_57 
REMARK    7  A    between atoms: C_20  and  C_37 
REMARK    8  A    between atoms: C_21  and  O_58 
REMARK    9  A    between atoms: C_23  and  O_60 
REMARK   10  A    between atoms: C_25  and  C_26 
REMARK   11  A    between atoms: C_26  and  C_27 
REMARK   12  A    between atoms: C_27  and  C_28 
REMARK   13  A    between atoms: C_30  and  O_62 
REMARK   14  A    between atoms: C_31  and  O_63 
REMARK   15  A    between atoms: C_37  and  C_38 
ROOT
HETATM    1  C   UNL     1     -30.274 -15.731 -23.454  1.00  0.00     0.280 C 
HETATM    2  C   UNL     1     -29.016 -16.292 -24.051  1.00  0.00     0.141 C 
HETATM    3  C   UNL     1     -28.035 -16.642 -22.926  1.00  0.00     0.030 C 
HETATM    4  C   UNL     1     -27.462 -15.391 -22.249  1.00  0.00     0.004 C 
HETATM    5  C   UNL     1     -26.824 -14.442 -23.270  1.00  0.00     0.020 C 
HETATM    6  C   UNL     1     -27.831 -14.070 -24.368  1.00  0.00     0.125 C 
HETATM    7  C   UNL     1     -28.355 -15.553 -26.255  1.00  0.00     0.174 C 
HETATM    8  C   UNL     1     -27.764 -14.707 -27.183  1.00  0.00     0.157 C 
HETATM    9  C   UNL     1     -28.564 -13.630 -27.905  1.00  0.00     0.220 C 
HETATM   10  C   UNL     1     -30.016 -14.059 -28.143  1.00  0.00     0.054 C 
HETATM   11  C   UNL     1     -30.887 -12.841 -28.471  1.00  0.00     0.044 C 
HETATM   12  C   UNL     1     -30.625 -11.698 -27.481  1.00  0.00     0.153 C 
HETATM   13  C   UNL     1     -29.138 -11.351 -27.492  1.00  0.00     0.183 C 
HETATM   14  C   UNL     1     -28.720 -10.227 -26.527  1.00  0.00     0.152 C 
HETATM   15  C   UNL     1     -29.331 -10.382 -25.137  1.00  0.00     0.039 C 
HETATM   16  C   UNL     1     -28.780  -9.418 -24.076  1.00  0.00    -0.016 C 
HETATM   17  C   UNL     1     -29.511  -8.071 -24.154  1.00  0.00     0.008 C 
HETATM   18  C   UNL     1     -30.844  -8.161 -23.459  1.00  0.00    -0.018 C 
HETATM   19  C   UNL     1     -32.053  -8.369 -24.263  1.00  0.00     0.011 C 
HETATM   20  C   UNL     1     -33.407  -8.504 -23.621  1.00  0.00     0.015 C 
HETATM   21  C   UNL     1     -33.663  -9.964 -23.410  1.00  0.00     0.124 C 
HETATM   22  C   UNL     1     -33.257 -10.674 -22.130  1.00  0.00     0.064 C 
HETATM   23  C   UNL     1     -33.260 -12.199 -22.271  1.00  0.00     0.127 C 
HETATM   24  C   UNL     1     -31.968 -12.756 -22.895  1.00  0.00     0.044 C 
HETATM   25  C   UNL     1     -31.994 -14.265 -23.161  1.00  0.00     0.159 C 
HETATM   26  C   UNL     1     -30.148 -15.129 -29.236  1.00  0.00     0.016 C 
HETATM   27  C   UNL     1     -27.264  -9.218 -24.224  1.00  0.00     0.010 C 
HETATM   28  C   UNL     1     -30.914  -8.014 -21.964  1.00  0.00     0.010 C 
HETATM   29  C   UNL     1     -30.738 -12.439 -22.039  1.00  0.00     0.015 C 
HETATM   30  N   UNL     1     -28.406 -15.295 -24.940  1.00  0.00    -0.350 N 
HETATM   31  O   UNL     1     -30.760 -14.602 -23.791  1.00  0.00    -0.349 OA
HETATM   32  O   UNL     1     -28.458 -12.508 -27.060  1.00  0.00    -0.339 OA
ENDROOT
BRANCH  25  33
HETATM   33  C   UNL     1     -33.142 -14.593 -24.085  1.00  0.00    -0.058 C 
HETATM   34  C   UNL     1     -33.113 -14.095 -25.512  1.00  0.00     0.046 C 
BRANCH  33  35
HETATM   35  C   UNL     1     -34.256 -15.370 -23.562  1.00  0.00    -0.017 C 
BRANCH  35  36
HETATM   36  C   UNL     1     -35.486 -15.685 -24.362  1.00  0.00     0.011 C 
HETATM   37  C   UNL     1     -36.561 -14.619 -24.082  1.00  0.00     0.011 C 
HETATM   38  C   UNL     1     -37.883 -14.996 -24.777  1.00  0.00     0.035 C 
HETATM   39  C   UNL     1     -38.348 -16.397 -24.386  1.00  0.00     0.147 C 
HETATM   40  C   UNL     1     -37.258 -17.436 -24.661  1.00  0.00     0.150 C 
HETATM   41  C   UNL     1     -35.977 -17.064 -23.925  1.00  0.00     0.043 C 
BRANCH  39  42
HETATM   42  O   UNL     1     -39.504 -16.747 -25.131  1.00  0.00    -0.393 OA
ATOM     43  HO  UNL     1     -40.180 -16.102 -24.960  1.00  0.00     0.210 HD
ENDBRANCH  39  42
BRANCH  40  44
HETATM   44  O   UNL     1     -37.715 -18.691 -24.216  1.00  0.00    -0.388 OA
HETATM   45  C   UNL     1     -37.006 -19.792 -24.765  1.00  0.00     0.202 C 
ENDBRANCH  40  44
ENDBRANCH  35  36
ENDBRANCH  33  35
ENDBRANCH  25  33
BRANCH   1  46
HETATM   46  O   UNL     1     -30.901 -16.522 -22.521  1.00  0.00    -0.369 OA
ATOM     47  HO  UNL     1     -30.539 -17.364 -22.270  1.00  0.00     0.212 HD
ENDBRANCH   1  46
BRANCH  23  48
HETATM   48  O   UNL     1     -33.423 -12.733 -20.976  1.00  0.00    -0.395 OA
ATOM     49  HO  UNL     1     -33.425 -13.679 -21.063  1.00  0.00     0.210 HD
ENDBRANCH  23  48
BRANCH  21  50
HETATM   50  O   UNL     1     -34.265 -10.655 -24.454  1.00  0.00    -0.395 OA
ATOM     51  HO  UNL     1     -34.519 -10.211 -25.255  1.00  0.00     0.210 HD
ENDBRANCH  21  50
BRANCH   7  52
HETATM   52  O   UNL     1     -28.920 -16.719 -26.729  1.00  0.00    -0.344 OA
ATOM     53  HO  UNL     1     -28.884 -16.902 -27.661  1.00  0.00     0.219 HD
ENDBRANCH   7  52
BRANCH  20  54
HETATM   54  C   UNL     1     -34.442  -7.961 -24.603  1.00  0.00     0.007 C 
BRANCH  54  55
HETATM   55  C   UNL     1     -34.104  -6.522 -24.940  1.00  0.00    -0.004 C 
HETATM   56  C   UNL     1     -34.979  -5.463 -24.445  1.00  0.00     0.005 C 
ENDBRANCH  54  55
ENDBRANCH  20  54
BRANCH   8  57
HETATM   57  O   UNL     1     -26.406 -14.819 -27.463  1.00  0.00    -0.356 OA
ATOM     58  HO  UNL     1     -26.001 -14.240 -28.098  1.00  0.00     0.217 HD
ENDBRANCH   8  57
BRANCH   9  59
HETATM   59  O   UNL     1     -27.937 -13.342 -29.171  1.00  0.00    -0.360 OA
ATOM     60  HO  UNL     1     -28.436 -12.670 -29.621  1.00  0.00     0.213 HD
ENDBRANCH   9  59
BRANCH  12  61
HETATM   61  O   UNL     1     -31.413 -10.570 -27.834  1.00  0.00    -0.388 OA
HETATM   62  C   UNL     1     -32.714 -10.671 -27.282  1.00  0.00     0.202 C 
ENDBRANCH  12  61
BRANCH  14  63
HETATM   63  O   UNL     1     -29.021  -8.957 -27.056  1.00  0.00    -0.388 OA
HETATM   64  C   UNL     1     -28.021  -8.498 -27.946  1.00  0.00     0.202 C 
ENDBRANCH  14  63
TORSDOF 15
