REMARK  5 active torsions:
REMARK  status: ('A' for Active; 'I' for Inactive)
REMARK    1  A    between atoms: C_3  and  N_4 
REMARK    2  A    between atoms: C_17  and  C_19 
REMARK    3  A    between atoms: C_19  and  O_20 
REMARK    4  A    between atoms: C_19  and  C_22 
REMARK    5  A    between atoms: C_22  and  O_24 
ROOT
HETATM    1  N   UNL     1       8.771   0.756  35.393  1.00  0.00    -0.175 N 
ATOM      2  HN  UNL     1       9.241   0.561  36.277  1.00  0.00     0.186 HD
HETATM    3  C   UNL     1       8.989  -0.043  34.326  1.00  0.00     0.680 A 
HETATM    4  N   UNL     1       8.359   0.189  33.150  1.00  0.00    -0.154 N 
ATOM      5  HN  UNL     1       8.526  -0.432  32.358  1.00  0.00     0.187 HD
HETATM    6  C   UNL     1       7.510   1.235  33.011  1.00  0.00     0.289 A 
HETATM    7  O   UNL     1       6.919   1.460  31.923  1.00  0.00    -0.265 OA
HETATM    8  C   UNL     1       7.297   2.066  34.096  1.00  0.00     0.142 A 
HETATM    9  C   UNL     1       7.939   1.805  35.296  1.00  0.00     0.149 A 
HETATM   10  N   UNL     1       6.461   3.122  34.009  1.00  0.00    -0.374 N 
ATOM     11  HN  UNL     1       5.717   3.162  33.313  1.00  0.00     0.160 HD
HETATM   12  N   UNL     1       7.745   2.597  36.387  1.00  0.00    -0.372 N 
ATOM     13  HN  UNL     1       8.292   2.418  37.229  1.00  0.00     0.161 HD
HETATM   14  C   UNL     1       6.680   4.203  34.965  1.00  0.00     0.131 C 
HETATM   15  C   UNL     1       6.785   3.688  36.392  1.00  0.00     0.149 C 
ENDROOT
BRANCH  14  16
HETATM   16  C   UNL     1       5.584   5.253  34.882  1.00  0.00     0.170 C 
BRANCH  16  17
HETATM   17  O   UNL     1       4.312   4.629  35.069  1.00  0.00    -0.391 OA
ATOM     18  HO  UNL     1       3.627   5.285  35.017  1.00  0.00     0.210 HD
ENDBRANCH  16  17
BRANCH  16  19
HETATM   19  C   UNL     1       5.793   6.351  35.919  1.00  0.00     0.145 C 
HETATM   20  C   UNL     1       4.792   7.460  35.642  1.00  0.00     0.042 C 
BRANCH  19  21
HETATM   21  O   UNL     1       7.138   6.861  35.819  1.00  0.00    -0.393 OA
ATOM     22  HO  UNL     1       7.268   7.545  36.465  1.00  0.00     0.210 HD
ENDBRANCH  19  21
ENDBRANCH  16  19
ENDBRANCH  14  16
BRANCH   3  23
HETATM   23  N   UNL     1       9.832  -1.093  34.463  1.00  0.00    -0.234 N 
ATOM     24  HN2 UNL     1      10.307  -1.268  35.349  1.00  0.00     0.174 HD
ATOM     25  HN1 UNL     1       9.997  -1.696  33.657  1.00  0.00     0.174 HD
ENDBRANCH   3  23
TORSDOF 5
