REMARK  8 active torsions:
REMARK  status: ('A' for Active; 'I' for Inactive)
REMARK    1  A    between atoms: C_1  and  N_18 
REMARK    2  A    between atoms: C_5  and  C_6 
REMARK    3  A    between atoms: C_7  and  O_21 
REMARK    4  A    between atoms: C_10  and  S_26 
REMARK    5  A    between atoms: C_11  and  C_12 
REMARK    6  A    between atoms: C_12  and  C_13 
REMARK    7  A    between atoms: C_13  and  C_14 
REMARK    8  A    between atoms: N_18  and  S_26 
ROOT
HETATM    1  O   UNL     1      -1.512   8.947  18.180  1.00  0.00    -0.200 OA
HETATM    2  O   UNL     1      -3.175   7.512  17.125  1.00  0.00    -0.200 OA
HETATM    3  S   UNL     1      -1.787   7.966  17.179  1.00  0.00     0.263 S 
ENDROOT
BRANCH   3   4
HETATM    4  C   UNL     1      -1.259   8.521  15.664  1.00  0.00     0.081 A 
HETATM    5  C   UNL     1      -0.970   9.843  15.339  1.00  0.00     0.046 A 
HETATM    6  C   UNL     1      -0.532  10.268  14.101  1.00  0.00     0.075 A 
HETATM    7  C   UNL     1      -0.361   9.303  13.160  1.00  0.00     0.082 A 
HETATM    8  C   UNL     1      -0.590   7.981  13.366  1.00  0.00     0.039 A 
HETATM    9  C   UNL     1      -1.027   7.614  14.619  1.00  0.00     0.028 A 
BRANCH   6  10
HETATM   10  C   UNL     1      -0.199  11.719  13.794  1.00  0.00     0.212 C 
HETATM   11  O   UNL     1       0.286  11.981  12.663  1.00  0.00    -0.644 OA
HETATM   12  O   UNL     1      -0.355  12.610  14.709  1.00  0.00    -0.644 OA
ENDBRANCH   6  10
BRANCH   7  13
HETATM   13  O   UNL     1       0.090   9.680  11.889  1.00  0.00    -0.360 OA
ATOM     14  HO  UNL     1       0.210   9.005  11.231  1.00  0.00     0.217 HD
ENDBRANCH   7  13
ENDBRANCH   3   4
BRANCH   3  15
HETATM   15  N   UNL     1      -0.932   6.667  17.506  1.00  0.00    -0.281 N 
ATOM     16  HN  UNL     1      -1.467   5.807  17.624  1.00  0.00     0.179 HD
BRANCH  15  17
HETATM   17  C   UNL     1       0.441   6.541  17.653  1.00  0.00     0.042 A 
HETATM   18  C   UNL     1       1.119   5.426  17.223  1.00  0.00     0.030 A 
HETATM   19  C   UNL     1       2.487   5.269  17.431  1.00  0.00     0.009 A 
HETATM   20  C   UNL     1       3.249   6.231  18.051  1.00  0.00    -0.058 A 
HETATM   21  C   UNL     1       2.575   7.372  18.495  1.00  0.00     0.009 A 
HETATM   22  C   UNL     1       1.193   7.518  18.279  1.00  0.00     0.030 A 
BRANCH  20  23
HETATM   23  C   UNL     1       4.710   6.024  18.280  1.00  0.00     0.038 C 
BRANCH  23  24
HETATM   24  C   UNL     1       5.079   5.836  19.742  1.00  0.00     0.004 C 
BRANCH  24  25
HETATM   25  C   UNL     1       4.236   4.830  20.578  1.00  0.00    -0.004 C 
HETATM   26  C   UNL     1       4.386   5.017  22.157  1.00  0.00     0.005 C 
ENDBRANCH  24  25
ENDBRANCH  23  24
ENDBRANCH  20  23
ENDBRANCH  15  17
ENDBRANCH   3  15
TORSDOF 8
