MODEL 1
REMARK VINA RESULT:    -7.193      0.000      0.000
REMARK INTER + INTRA:         -10.276
REMARK INTER:                  -9.926
REMARK INTRA:                  -0.349
REMARK UNBOUND:                -0.349
REMARK  8 active torsions:
REMARK  status: ('A' for Active; 'I' for Inactive)
REMARK    1  A    between atoms: C_1  and  O_2 
REMARK    2  A    between atoms: C_4  and  O_5 
REMARK    3  A    between atoms: C_7  and  N_12 
REMARK    4  A    between atoms: C_9  and  C_10 
REMARK    5  A    between atoms: C_10  and  O_11 
REMARK    6  A    between atoms: O_11  and  P_21 
REMARK       I    between atoms: N_12  and  C_14 
REMARK    7  A    between atoms: C_14  and  C_16 
REMARK    8  A    between atoms: C_16  and  N_17 
ROOT
HETATM    1  C   UNL     1     -31.676  21.170  35.290  1.00  0.00     0.182 C 
HETATM    2  C   UNL     1     -30.753  20.693  34.159  1.00  0.00     0.198 C 
HETATM    3  C   UNL     1     -30.174  19.413  34.788  1.00  0.00     0.255 C 
HETATM    4  O   UNL     1     -31.256  18.836  35.548  1.00  0.00    -0.354 OA
HETATM    5  C   UNL     1     -32.140  19.882  35.975  1.00  0.00     0.180 C 
ENDROOT
BRANCH   3   6
HETATM    6  N   UNL     1     -29.701  18.481  33.814  1.00  0.00    -0.331 N 
HETATM    7  C   UNL     1     -28.549  17.824  33.967  1.00  0.00     0.245 C 
HETATM    8  O   UNL     1     -27.880  17.843  34.999  1.00  0.00    -0.272 OA
ATOM      9  HN  UNL     1     -30.259  18.313  32.977  1.00  0.00     0.165 HD
BRANCH   7  10
HETATM   10  C   UNL     1     -28.148  17.034  32.740  1.00  0.00     0.332 C 
BRANCH  10  11
HETATM   11  N   UNL     1     -27.105  17.694  31.982  1.00  0.00    -0.071 N 
ATOM     12  HN3 UNL     1     -26.633  17.040  31.358  1.00  0.00     0.274 HD
ATOM     13  HN2 UNL     1     -27.499  18.326  31.286  1.00  0.00     0.274 HD
ATOM     14  HN1 UNL     1     -26.439  18.176  32.585  1.00  0.00     0.274 HD
ENDBRANCH  10  11
ENDBRANCH   7  10
ENDBRANCH   3   6
BRANCH   2  15
HETATM   15  O   UNL     1     -29.789  21.654  33.790  1.00  0.00    -0.389 OA
ATOM     16  HO  UNL     1     -30.082  22.546  33.929  1.00  0.00     0.210 HD
ENDBRANCH   2  15
BRANCH   5  17
HETATM   17  C   UNL     1     -33.558  19.510  35.597  1.00  0.00     0.217 C 
BRANCH  17  18
HETATM   18  O   UNL     1     -34.462  20.425  36.207  1.00  0.00    -0.280 OA
BRANCH  18  19
HETATM   19  P   UNL     1     -35.962  20.504  35.650  1.00  0.00     0.422 P 
HETATM   20  O   UNL     1     -36.345  19.052  35.470  1.00  0.00    -0.617 OA
HETATM   21  O   UNL     1     -35.892  21.301  34.365  1.00  0.00    -0.617 OA
HETATM   22  O   UNL     1     -36.721  21.244  36.748  1.00  0.00    -0.617 OA
ENDBRANCH  18  19
ENDBRANCH  17  18
ENDBRANCH   5  17
BRANCH   1  23
HETATM   23  O   UNL     1     -30.902  21.957  36.187  1.00  0.00    -0.390 OA
ATOM     24  HO  UNL     1     -31.344  22.036  37.023  1.00  0.00     0.210 HD
ENDBRANCH   1  23
TORSDOF 8
ENDMDL
MODEL 2
REMARK VINA RESULT:    -7.147      0.086      1.030
REMARK INTER + INTRA:         -10.213
REMARK INTER:                  -9.859
REMARK INTRA:                  -0.353
REMARK UNBOUND:                -0.349
REMARK  8 active torsions:
REMARK  status: ('A' for Active; 'I' for Inactive)
REMARK    1  A    between atoms: C_1  and  O_2 
REMARK    2  A    between atoms: C_4  and  O_5 
REMARK    3  A    between atoms: C_7  and  N_12 
REMARK    4  A    between atoms: C_9  and  C_10 
REMARK    5  A    between atoms: C_10  and  O_11 
REMARK    6  A    between atoms: O_11  and  P_21 
REMARK       I    between atoms: N_12  and  C_14 
REMARK    7  A    between atoms: C_14  and  C_16 
REMARK    8  A    between atoms: C_16  and  N_17 
ROOT
HETATM    1  C   UNL     1     -31.628  21.168  35.294  1.00  0.00     0.182 C 
HETATM    2  C   UNL     1     -30.717  20.675  34.160  1.00  0.00     0.198 C 
HETATM    3  C   UNL     1     -30.172  19.376  34.780  1.00  0.00     0.255 C 
HETATM    4  O   UNL     1     -31.268  18.822  35.536  1.00  0.00    -0.354 OA
HETATM    5  C   UNL     1     -32.125  19.887  35.970  1.00  0.00     0.180 C 
ENDROOT
BRANCH   3   6
HETATM    6  N   UNL     1     -29.723  18.439  33.799  1.00  0.00    -0.331 N 
HETATM    7  C   UNL     1     -28.583  17.759  33.943  1.00  0.00     0.245 C 
HETATM    8  O   UNL     1     -27.908  17.760  34.972  1.00  0.00    -0.272 OA
ATOM      9  HN  UNL     1     -30.289  18.286  32.964  1.00  0.00     0.165 HD
BRANCH   7  10
HETATM   10  C   UNL     1     -28.206  16.966  32.710  1.00  0.00     0.332 C 
BRANCH  10  11
HETATM   11  N   UNL     1     -27.098  17.564  31.994  1.00  0.00    -0.071 N 
ATOM     12  HN3 UNL     1     -27.220  18.572  31.903  1.00  0.00     0.274 HD
ATOM     13  HN2 UNL     1     -26.247  17.554  32.557  1.00  0.00     0.274 HD
ATOM     14  HN1 UNL     1     -26.947  17.126  31.086  1.00  0.00     0.274 HD
ENDBRANCH  10  11
ENDBRANCH   7  10
ENDBRANCH   3   6
BRANCH   2  15
HETATM   15  O   UNL     1     -29.729  21.613  33.798  1.00  0.00    -0.389 OA
ATOM     16  HO  UNL     1     -29.058  21.247  33.234  1.00  0.00     0.210 HD
ENDBRANCH   2  15
BRANCH   5  17
HETATM   17  C   UNL     1     -33.552  19.555  35.590  1.00  0.00     0.217 C 
BRANCH  17  18
HETATM   18  O   UNL     1     -34.418  20.572  36.081  1.00  0.00    -0.280 OA
BRANCH  18  19
HETATM   19  P   UNL     1     -35.961  20.536  35.653  1.00  0.00     0.422 P 
HETATM   20  O   UNL     1     -35.969  21.248  34.318  1.00  0.00    -0.617 OA
HETATM   21  O   UNL     1     -36.719  21.250  36.752  1.00  0.00    -0.617 OA
HETATM   22  O   UNL     1     -36.291  19.048  35.597  1.00  0.00    -0.617 OA
ENDBRANCH  18  19
ENDBRANCH  17  18
ENDBRANCH   5  17
BRANCH   1  23
HETATM   23  O   UNL     1     -30.833  21.928  36.196  1.00  0.00    -0.390 OA
ATOM     24  HO  UNL     1     -29.920  21.674  36.127  1.00  0.00     0.210 HD
ENDBRANCH   1  23
TORSDOF 8
ENDMDL
MODEL 3
REMARK VINA RESULT:    -6.224      1.184      1.647
REMARK INTER + INTRA:          -8.939
REMARK INTER:                  -8.570
REMARK INTRA:                  -0.369
REMARK UNBOUND:                -0.349
REMARK  8 active torsions:
REMARK  status: ('A' for Active; 'I' for Inactive)
REMARK    1  A    between atoms: C_1  and  O_2 
REMARK    2  A    between atoms: C_4  and  O_5 
REMARK    3  A    between atoms: C_7  and  N_12 
REMARK    4  A    between atoms: C_9  and  C_10 
REMARK    5  A    between atoms: C_10  and  O_11 
REMARK    6  A    between atoms: O_11  and  P_21 
REMARK       I    between atoms: N_12  and  C_14 
REMARK    7  A    between atoms: C_14  and  C_16 
REMARK    8  A    between atoms: C_16  and  N_17 
ROOT
HETATM    1  C   UNL     1     -31.510  21.215  35.354  1.00  0.00     0.182 C 
HETATM    2  C   UNL     1     -30.650  20.775  34.161  1.00  0.00     0.198 C 
HETATM    3  C   UNL     1     -30.098  19.438  34.688  1.00  0.00     0.255 C 
HETATM    4  O   UNL     1     -31.173  18.856  35.454  1.00  0.00    -0.354 OA
HETATM    5  C   UNL     1     -31.998  19.905  35.979  1.00  0.00     0.180 C 
ENDROOT
BRANCH   3   6
HETATM    6  N   UNL     1     -29.699  18.551  33.642  1.00  0.00    -0.331 N 
HETATM    7  C   UNL     1     -28.569  17.843  33.709  1.00  0.00     0.245 C 
HETATM    8  O   UNL     1     -27.862  17.774  34.713  1.00  0.00    -0.272 OA
ATOM      9  HN  UNL     1     -30.295  18.455  32.819  1.00  0.00     0.165 HD
BRANCH   7  10
HETATM   10  C   UNL     1     -28.247  17.116  32.421  1.00  0.00     0.332 C 
BRANCH  10  11
HETATM   11  N   UNL     1     -26.958  17.501  31.885  1.00  0.00    -0.071 N 
ATOM     12  HN3 UNL     1     -26.513  18.211  32.467  1.00  0.00     0.274 HD
ATOM     13  HN2 UNL     1     -26.274  16.752  31.992  1.00  0.00     0.274 HD
ATOM     14  HN1 UNL     1     -27.022  17.807  30.914  1.00  0.00     0.274 HD
ENDBRANCH  10  11
ENDBRANCH   7  10
ENDBRANCH   3   6
BRANCH   2  15
HETATM   15  O   UNL     1     -29.664  21.720  33.813  1.00  0.00    -0.389 OA
ATOM     16  HO  UNL     1     -29.067  21.915  34.526  1.00  0.00     0.210 HD
ENDBRANCH   2  15
BRANCH   5  17
HETATM   17  C   UNL     1     -33.443  19.610  35.636  1.00  0.00     0.217 C 
BRANCH  17  18
HETATM   18  O   UNL     1     -34.267  19.943  36.748  1.00  0.00    -0.280 OA
BRANCH  18  19
HETATM   19  P   UNL     1     -35.287  18.840  37.303  1.00  0.00     0.422 P 
HETATM   20  O   UNL     1     -35.655  19.364  38.674  1.00  0.00    -0.617 OA
HETATM   21  O   UNL     1     -34.525  17.532  37.314  1.00  0.00    -0.617 OA
HETATM   22  O   UNL     1     -36.420  18.841  36.282  1.00  0.00    -0.617 OA
ENDBRANCH  18  19
ENDBRANCH  17  18
ENDBRANCH   5  17
BRANCH   1  23
HETATM   23  O   UNL     1     -30.672  21.915  36.265  1.00  0.00    -0.390 OA
ATOM     24  HO  UNL     1     -31.197  22.395  36.895  1.00  0.00     0.210 HD
ENDBRANCH   1  23
TORSDOF 8
ENDMDL
MODEL 4
REMARK VINA RESULT:    -6.222      2.278      2.973
REMARK INTER + INTRA:          -8.936
REMARK INTER:                  -8.735
REMARK INTRA:                  -0.201
REMARK UNBOUND:                -0.349
REMARK  8 active torsions:
REMARK  status: ('A' for Active; 'I' for Inactive)
REMARK    1  A    between atoms: C_1  and  O_2 
REMARK    2  A    between atoms: C_4  and  O_5 
REMARK    3  A    between atoms: C_7  and  N_12 
REMARK    4  A    between atoms: C_9  and  C_10 
REMARK    5  A    between atoms: C_10  and  O_11 
REMARK    6  A    between atoms: O_11  and  P_21 
REMARK       I    between atoms: N_12  and  C_14 
REMARK    7  A    between atoms: C_14  and  C_16 
REMARK    8  A    between atoms: C_16  and  N_17 
ROOT
HETATM    1  C   UNL     1     -31.809  20.065  34.310  1.00  0.00     0.182 C 
HETATM    2  C   UNL     1     -30.541  19.265  34.645  1.00  0.00     0.198 C 
HETATM    3  C   UNL     1     -30.144  19.913  35.984  1.00  0.00     0.255 C 
HETATM    4  O   UNL     1     -31.389  20.200  36.654  1.00  0.00    -0.354 OA
HETATM    5  C   UNL     1     -32.413  20.414  35.673  1.00  0.00     0.180 C 
ENDROOT
BRANCH   3   6
HETATM    6  N   UNL     1     -29.331  19.061  36.792  1.00  0.00    -0.331 N 
HETATM    7  C   UNL     1     -28.812  19.473  37.951  1.00  0.00     0.245 C 
HETATM    8  O   UNL     1     -29.100  20.541  38.491  1.00  0.00    -0.272 OA
ATOM      9  HN  UNL     1     -29.141  18.110  36.475  1.00  0.00     0.165 HD
BRANCH   7  10
HETATM   10  C   UNL     1     -27.836  18.483  38.550  1.00  0.00     0.332 C 
BRANCH  10  11
HETATM   11  N   UNL     1     -26.625  18.367  37.764  1.00  0.00    -0.071 N 
ATOM     12  HN3 UNL     1     -25.918  17.820  38.254  1.00  0.00     0.274 HD
ATOM     13  HN2 UNL     1     -26.767  17.761  36.956  1.00  0.00     0.274 HD
ATOM     14  HN1 UNL     1     -26.260  19.277  37.484  1.00  0.00     0.274 HD
ENDBRANCH  10  11
ENDBRANCH   7  10
ENDBRANCH   3   6
BRANCH   2  15
HETATM   15  O   UNL     1     -29.557  19.345  33.639  1.00  0.00    -0.389 OA
ATOM     16  HO  UNL     1     -28.688  19.519  33.983  1.00  0.00     0.210 HD
ENDBRANCH   2  15
BRANCH   5  17
HETATM   17  C   UNL     1     -33.605  19.546  36.012  1.00  0.00     0.217 C 
BRANCH  17  18
HETATM   18  O   UNL     1     -34.645  20.361  36.542  1.00  0.00    -0.280 OA
BRANCH  18  19
HETATM   19  P   UNL     1     -35.965  20.586  35.663  1.00  0.00     0.422 P 
HETATM   20  O   UNL     1     -36.966  21.118  36.666  1.00  0.00    -0.617 OA
HETATM   21  O   UNL     1     -36.317  19.235  35.079  1.00  0.00    -0.617 OA
HETATM   22  O   UNL     1     -35.526  21.581  34.593  1.00  0.00    -0.617 OA
ENDBRANCH  18  19
ENDBRANCH  17  18
ENDBRANCH   5  17
BRANCH   1  23
HETATM   23  O   UNL     1     -31.415  21.248  33.626  1.00  0.00    -0.390 OA
ATOM     24  HO  UNL     1     -31.095  21.895  34.243  1.00  0.00     0.210 HD
ENDBRANCH   1  23
TORSDOF 8
ENDMDL
MODEL 5
REMARK VINA RESULT:    -6.144      1.804      2.138
REMARK INTER + INTRA:          -8.828
REMARK INTER:                  -8.344
REMARK INTRA:                  -0.484
REMARK UNBOUND:                -0.349
REMARK  8 active torsions:
REMARK  status: ('A' for Active; 'I' for Inactive)
REMARK    1  A    between atoms: C_1  and  O_2 
REMARK    2  A    between atoms: C_4  and  O_5 
REMARK    3  A    between atoms: C_7  and  N_12 
REMARK    4  A    between atoms: C_9  and  C_10 
REMARK    5  A    between atoms: C_10  and  O_11 
REMARK    6  A    between atoms: O_11  and  P_21 
REMARK       I    between atoms: N_12  and  C_14 
REMARK    7  A    between atoms: C_14  and  C_16 
REMARK    8  A    between atoms: C_16  and  N_17 
ROOT
HETATM    1  C   UNL     1     -31.704  20.147  37.316  1.00  0.00     0.182 C 
HETATM    2  C   UNL     1     -30.306  19.924  36.720  1.00  0.00     0.198 C 
HETATM    3  C   UNL     1     -30.441  18.477  36.214  1.00  0.00     0.255 C 
HETATM    4  O   UNL     1     -31.797  18.364  35.733  1.00  0.00    -0.354 OA
HETATM    5  C   UNL     1     -32.629  19.282  36.454  1.00  0.00     0.180 C 
ENDROOT
BRANCH   3   6
HETATM    6  N   UNL     1     -29.517  18.165  35.170  1.00  0.00    -0.331 N 
HETATM    7  C   UNL     1     -28.254  17.819  35.425  1.00  0.00     0.245 C 
HETATM    8  O   UNL     1     -27.819  17.594  36.554  1.00  0.00    -0.272 OA
ATOM      9  HN  UNL     1     -29.832  18.209  34.200  1.00  0.00     0.165 HD
BRANCH   7  10
HETATM   10  C   UNL     1     -27.403  17.714  34.178  1.00  0.00     0.332 C 
BRANCH  10  11
HETATM   11  N   UNL     1     -26.165  17.002  34.420  1.00  0.00    -0.071 N 
ATOM     12  HN3 UNL     1     -25.972  16.925  35.418  1.00  0.00     0.274 HD
ATOM     13  HN2 UNL     1     -26.260  16.011  34.197  1.00  0.00     0.274 HD
ATOM     14  HN1 UNL     1     -25.379  17.420  33.923  1.00  0.00     0.274 HD
ENDBRANCH  10  11
ENDBRANCH   7  10
ENDBRANCH   3   6
BRANCH   2  15
HETATM   15  O   UNL     1     -29.269  20.125  37.654  1.00  0.00    -0.389 OA
ATOM     16  HO  UNL     1     -28.488  20.503  37.267  1.00  0.00     0.210 HD
ENDBRANCH   2  15
BRANCH   5  17
HETATM   17  C   UNL     1     -33.424  20.106  35.463  1.00  0.00     0.217 C 
BRANCH  17  18
HETATM   18  O   UNL     1     -34.490  20.760  36.144  1.00  0.00    -0.280 OA
BRANCH  18  19
HETATM   19  P   UNL     1     -35.989  20.512  35.637  1.00  0.00     0.422 P 
HETATM   20  O   UNL     1     -35.989  21.103  34.245  1.00  0.00    -0.617 OA
HETATM   21  O   UNL     1     -36.889  21.224  36.624  1.00  0.00    -0.617 OA
HETATM   22  O   UNL     1     -36.149  18.996  35.699  1.00  0.00    -0.617 OA
ENDBRANCH  18  19
ENDBRANCH  17  18
ENDBRANCH   5  17
BRANCH   1  23
HETATM   23  O   UNL     1     -31.690  19.673  38.657  1.00  0.00    -0.390 OA
ATOM     24  HO  UNL     1     -31.457  18.752  38.679  1.00  0.00     0.210 HD
ENDBRANCH   1  23
TORSDOF 8
ENDMDL
MODEL 6
REMARK VINA RESULT:    -6.055      1.918      2.123
REMARK INTER + INTRA:          -8.706
REMARK INTER:                  -8.476
REMARK INTRA:                  -0.230
REMARK UNBOUND:                -0.349
REMARK  8 active torsions:
REMARK  status: ('A' for Active; 'I' for Inactive)
REMARK    1  A    between atoms: C_1  and  O_2 
REMARK    2  A    between atoms: C_4  and  O_5 
REMARK    3  A    between atoms: C_7  and  N_12 
REMARK    4  A    between atoms: C_9  and  C_10 
REMARK    5  A    between atoms: C_10  and  O_11 
REMARK    6  A    between atoms: O_11  and  P_21 
REMARK       I    between atoms: N_12  and  C_14 
REMARK    7  A    between atoms: C_14  and  C_16 
REMARK    8  A    between atoms: C_16  and  N_17 
ROOT
HETATM    1  C   UNL     1     -32.318  20.587  35.296  1.00  0.00     0.182 C 
HETATM    2  C   UNL     1     -31.049  20.059  34.610  1.00  0.00     0.198 C 
HETATM    3  C   UNL     1     -30.191  19.704  35.838  1.00  0.00     0.255 C 
HETATM    4  O   UNL     1     -31.119  19.198  36.820  1.00  0.00    -0.354 OA
HETATM    5  C   UNL     1     -32.405  19.795  36.603  1.00  0.00     0.180 C 
ENDROOT
BRANCH   3   6
HETATM    6  N   UNL     1     -29.191  18.725  35.552  1.00  0.00    -0.331 N 
HETATM    7  C   UNL     1     -28.317  18.318  36.476  1.00  0.00     0.245 C 
HETATM    8  O   UNL     1     -28.384  18.624  37.666  1.00  0.00    -0.272 OA
ATOM      9  HN  UNL     1     -29.141  18.326  34.614  1.00  0.00     0.165 HD
BRANCH   7  10
HETATM   10  C   UNL     1     -27.234  17.423  35.915  1.00  0.00     0.332 C 
BRANCH  10  11
HETATM   11  N   UNL     1     -25.912  17.830  36.344  1.00  0.00    -0.071 N 
ATOM     12  HN3 UNL     1     -25.627  18.697  35.889  1.00  0.00     0.274 HD
ATOM     13  HN2 UNL     1     -25.922  18.152  37.312  1.00  0.00     0.274 HD
ATOM     14  HN1 UNL     1     -25.219  17.095  36.206  1.00  0.00     0.274 HD
ENDBRANCH  10  11
ENDBRANCH   7  10
ENDBRANCH   3   6
BRANCH   2  15
HETATM   15  O   UNL     1     -30.462  20.997  33.736  1.00  0.00    -0.389 OA
ATOM     16  HO  UNL     1     -30.345  21.852  34.133  1.00  0.00     0.210 HD
ENDBRANCH   2  15
BRANCH   5  17
HETATM   17  C   UNL     1     -33.449  18.700  36.541  1.00  0.00     0.217 C 
BRANCH  17  18
HETATM   18  O   UNL     1     -34.436  19.046  35.574  1.00  0.00    -0.280 OA
BRANCH  18  19
HETATM   19  P   UNL     1     -35.978  19.000  36.004  1.00  0.00     0.422 P 
HETATM   20  O   UNL     1     -35.924  18.550  37.448  1.00  0.00    -0.617 OA
HETATM   21  O   UNL     1     -36.648  18.021  35.063  1.00  0.00    -0.617 OA
HETATM   22  O   UNL     1     -36.461  20.431  35.789  1.00  0.00    -0.617 OA
ENDBRANCH  18  19
ENDBRANCH  17  18
ENDBRANCH   5  17
BRANCH   1  23
HETATM   23  O   UNL     1     -32.127  21.970  35.567  1.00  0.00    -0.390 OA
ATOM     24  HO  UNL     1     -32.547  22.208  36.385  1.00  0.00     0.210 HD
ENDBRANCH   1  23
TORSDOF 8
ENDMDL
MODEL 7
REMARK VINA RESULT:    -5.831      1.910      2.294
REMARK INTER + INTRA:          -8.396
REMARK INTER:                  -8.009
REMARK INTRA:                  -0.387
REMARK UNBOUND:                -0.349
REMARK  8 active torsions:
REMARK  status: ('A' for Active; 'I' for Inactive)
REMARK    1  A    between atoms: C_1  and  O_2 
REMARK    2  A    between atoms: C_4  and  O_5 
REMARK    3  A    between atoms: C_7  and  N_12 
REMARK    4  A    between atoms: C_9  and  C_10 
REMARK    5  A    between atoms: C_10  and  O_11 
REMARK    6  A    between atoms: O_11  and  P_21 
REMARK       I    between atoms: N_12  and  C_14 
REMARK    7  A    between atoms: C_14  and  C_16 
REMARK    8  A    between atoms: C_16  and  N_17 
ROOT
HETATM    1  C   UNL     1     -31.989  21.075  35.397  1.00  0.00     0.182 C 
HETATM    2  C   UNL     1     -30.835  20.549  34.530  1.00  0.00     0.198 C 
HETATM    3  C   UNL     1     -30.213  19.514  35.486  1.00  0.00     0.255 C 
HETATM    4  O   UNL     1     -31.326  18.925  36.190  1.00  0.00    -0.354 OA
HETATM    5  C   UNL     1     -32.394  19.879  36.262  1.00  0.00     0.180 C 
ENDROOT
BRANCH   3   6
HETATM    6  N   UNL     1     -29.469  18.505  34.803  1.00  0.00    -0.331 N 
HETATM    7  C   UNL     1     -28.364  17.967  35.325  1.00  0.00     0.245 C 
HETATM    8  O   UNL     1     -27.979  18.173  36.475  1.00  0.00    -0.272 OA
ATOM      9  HN  UNL     1     -29.790  18.186  33.888  1.00  0.00     0.165 HD
BRANCH   7  10
HETATM   10  C   UNL     1     -27.633  17.059  34.361  1.00  0.00     0.332 C 
BRANCH  10  11
HETATM   11  N   UNL     1     -26.199  17.089  34.563  1.00  0.00    -0.071 N 
ATOM     12  HN3 UNL     1     -25.965  17.432  35.494  1.00  0.00     0.274 HD
ATOM     13  HN2 UNL     1     -25.816  16.147  34.637  1.00  0.00     0.274 HD
ATOM     14  HN1 UNL     1     -25.721  17.627  33.840  1.00  0.00     0.274 HD
ENDBRANCH  10  11
ENDBRANCH   7  10
ENDBRANCH   3   6
BRANCH   2  15
HETATM   15  O   UNL     1     -29.953  21.564  34.110  1.00  0.00    -0.389 OA
ATOM     16  HO  UNL     1     -29.042  21.364  34.293  1.00  0.00     0.210 HD
ENDBRANCH   2  15
BRANCH   5  17
HETATM   17  C   UNL     1     -33.670  19.225  35.775  1.00  0.00     0.217 C 
BRANCH  17  18
HETATM   18  O   UNL     1     -33.763  17.912  36.318  1.00  0.00    -0.280 OA
BRANCH  18  19
HETATM   19  P   UNL     1     -35.216  17.280  36.547  1.00  0.00     0.422 P 
HETATM   20  O   UNL     1     -35.954  17.631  35.273  1.00  0.00    -0.617 OA
HETATM   21  O   UNL     1     -35.768  17.935  37.795  1.00  0.00    -0.617 OA
HETATM   22  O   UNL     1     -34.941  15.793  36.748  1.00  0.00    -0.617 OA
ENDBRANCH  18  19
ENDBRANCH  17  18
ENDBRANCH   5  17
BRANCH   1  23
HETATM   23  O   UNL     1     -31.482  22.126  36.211  1.00  0.00    -0.390 OA
ATOM     24  HO  UNL     1     -30.550  22.012  36.356  1.00  0.00     0.210 HD
ENDBRANCH   1  23
TORSDOF 8
ENDMDL
MODEL 8
REMARK VINA RESULT:    -5.733      2.742      4.576
REMARK INTER + INTRA:          -8.261
REMARK INTER:                  -7.392
REMARK INTRA:                  -0.868
REMARK UNBOUND:                -0.349
REMARK  8 active torsions:
REMARK  status: ('A' for Active; 'I' for Inactive)
REMARK    1  A    between atoms: C_1  and  O_2 
REMARK    2  A    between atoms: C_4  and  O_5 
REMARK    3  A    between atoms: C_7  and  N_12 
REMARK    4  A    between atoms: C_9  and  C_10 
REMARK    5  A    between atoms: C_10  and  O_11 
REMARK    6  A    between atoms: O_11  and  P_21 
REMARK       I    between atoms: N_12  and  C_14 
REMARK    7  A    between atoms: C_14  and  C_16 
REMARK    8  A    between atoms: C_16  and  N_17 
ROOT
HETATM    1  C   UNL     1     -35.952  19.772  36.183  1.00  0.00     0.182 C 
HETATM    2  C   UNL     1     -34.809  19.648  35.165  1.00  0.00     0.198 C 
HETATM    3  C   UNL     1     -33.637  20.215  35.985  1.00  0.00     0.255 C 
HETATM    4  O   UNL     1     -33.865  19.769  37.338  1.00  0.00    -0.354 OA
HETATM    5  C   UNL     1     -35.273  19.594  37.544  1.00  0.00     0.180 C 
ENDROOT
BRANCH   3   6
HETATM    6  N   UNL     1     -32.364  19.761  35.522  1.00  0.00    -0.331 N 
HETATM    7  C   UNL     1     -31.856  20.157  34.353  1.00  0.00     0.245 C 
HETATM    8  O   UNL     1     -32.351  21.040  33.654  1.00  0.00    -0.272 OA
ATOM      9  HN  UNL     1     -31.827  19.115  36.101  1.00  0.00     0.165 HD
BRANCH   7  10
HETATM   10  C   UNL     1     -30.592  19.416  33.973  1.00  0.00     0.332 C 
BRANCH  10  11
HETATM   11  N   UNL     1     -29.571  20.305  33.462  1.00  0.00    -0.071 N 
ATOM     12  HN3 UNL     1     -29.254  20.012  32.538  1.00  0.00     0.274 HD
ATOM     13  HN2 UNL     1     -29.962  21.215  33.217  1.00  0.00     0.274 HD
ATOM     14  HN1 UNL     1     -28.787  20.402  34.107  1.00  0.00     0.274 HD
ENDBRANCH  10  11
ENDBRANCH   7  10
ENDBRANCH   3   6
BRANCH   2  15
HETATM   15  O   UNL     1     -35.067  20.332  33.960  1.00  0.00    -0.389 OA
ATOM     16  HO  UNL     1     -34.287  20.466  33.434  1.00  0.00     0.210 HD
ENDBRANCH   2  15
BRANCH   5  17
HETATM   17  C   UNL     1     -35.516  18.220  38.130  1.00  0.00     0.217 C 
BRANCH  17  18
HETATM   18  O   UNL     1     -34.280  17.518  38.212  1.00  0.00    -0.280 OA
BRANCH  18  19
HETATM   19  P   UNL     1     -34.006  16.327  37.177  1.00  0.00     0.422 P 
HETATM   20  O   UNL     1     -35.284  16.267  36.368  1.00  0.00    -0.617 OA
HETATM   21  O   UNL     1     -33.732  15.096  38.015  1.00  0.00    -0.617 OA
HETATM   22  O   UNL     1     -32.772  16.788  36.407  1.00  0.00    -0.617 OA
ENDBRANCH  18  19
ENDBRANCH  17  18
ENDBRANCH   5  17
BRANCH   1  23
HETATM   23  O   UNL     1     -36.501  21.079  36.071  1.00  0.00    -0.390 OA
ATOM     24  HO  UNL     1     -36.726  21.418  36.929  1.00  0.00     0.210 HD
ENDBRANCH   1  23
TORSDOF 8
ENDMDL
MODEL 9
REMARK VINA RESULT:    -5.702      3.151      4.853
REMARK INTER + INTRA:          -8.219
REMARK INTER:                  -7.823
REMARK INTRA:                  -0.395
REMARK UNBOUND:                -0.349
REMARK  8 active torsions:
REMARK  status: ('A' for Active; 'I' for Inactive)
REMARK    1  A    between atoms: C_1  and  O_2 
REMARK    2  A    between atoms: C_4  and  O_5 
REMARK    3  A    between atoms: C_7  and  N_12 
REMARK    4  A    between atoms: C_9  and  C_10 
REMARK    5  A    between atoms: C_10  and  O_11 
REMARK    6  A    between atoms: O_11  and  P_21 
REMARK       I    between atoms: N_12  and  C_14 
REMARK    7  A    between atoms: C_14  and  C_16 
REMARK    8  A    between atoms: C_16  and  N_17 
ROOT
HETATM    1  C   UNL     1     -36.188  19.867  36.073  1.00  0.00     0.182 C 
HETATM    2  C   UNL     1     -35.300  20.055  34.833  1.00  0.00     0.198 C 
HETATM    3  C   UNL     1     -33.944  20.348  35.500  1.00  0.00     0.255 C 
HETATM    4  O   UNL     1     -33.907  19.516  36.677  1.00  0.00    -0.354 OA
HETATM    5  C   UNL     1     -35.247  19.288  37.133  1.00  0.00     0.180 C 
ENDROOT
BRANCH   3   6
HETATM    6  N   UNL     1     -32.833  20.054  34.650  1.00  0.00    -0.331 N 
HETATM    7  C   UNL     1     -31.636  20.616  34.834  1.00  0.00     0.245 C 
HETATM    8  O   UNL     1     -31.343  21.303  35.811  1.00  0.00    -0.272 OA
ATOM      9  HN  UNL     1     -32.958  19.396  33.881  1.00  0.00     0.165 HD
BRANCH   7  10
HETATM   10  C   UNL     1     -30.660  20.312  33.717  1.00  0.00     0.332 C 
BRANCH  10  11
HETATM   11  N   UNL     1     -29.722  21.394  33.502  1.00  0.00    -0.071 N 
ATOM     12  HN3 UNL     1     -29.173  21.244  32.656  1.00  0.00     0.274 HD
ATOM     13  HN2 UNL     1     -30.204  22.252  33.232  1.00  0.00     0.274 HD
ATOM     14  HN1 UNL     1     -29.121  21.547  34.311  1.00  0.00     0.274 HD
ENDBRANCH  10  11
ENDBRANCH   7  10
ENDBRANCH   3   6
BRANCH   2  15
HETATM   15  O   UNL     1     -35.762  21.071  33.972  1.00  0.00    -0.389 OA
ATOM     16  HO  UNL     1     -36.423  20.767  33.360  1.00  0.00     0.210 HD
ENDBRANCH   2  15
BRANCH   5  17
HETATM   17  C   UNL     1     -35.452  17.801  37.329  1.00  0.00     0.217 C 
BRANCH  17  18
HETATM   18  O   UNL     1     -34.582  17.338  38.357  1.00  0.00    -0.280 OA
BRANCH  18  19
HETATM   19  P   UNL     1     -35.200  17.029  39.802  1.00  0.00     0.422 P 
HETATM   20  O   UNL     1     -34.868  18.273  40.596  1.00  0.00    -0.617 OA
HETATM   21  O   UNL     1     -34.518  15.769  40.290  1.00  0.00    -0.617 OA
HETATM   22  O   UNL     1     -36.685  16.812  39.526  1.00  0.00    -0.617 OA
ENDBRANCH  18  19
ENDBRANCH  17  18
ENDBRANCH   5  17
BRANCH   1  23
HETATM   23  O   UNL     1     -36.658  21.148  36.475  1.00  0.00    -0.390 OA
ATOM     24  HO  UNL     1     -36.072  21.528  37.119  1.00  0.00     0.210 HD
ENDBRANCH   1  23
TORSDOF 8
ENDMDL
MODEL 10
REMARK VINA RESULT:    -5.620      2.498      3.230
REMARK INTER + INTRA:          -8.105
REMARK INTER:                  -7.634
REMARK INTRA:                  -0.472
REMARK UNBOUND:                -0.349
REMARK  8 active torsions:
REMARK  status: ('A' for Active; 'I' for Inactive)
REMARK    1  A    between atoms: C_1  and  O_2 
REMARK    2  A    between atoms: C_4  and  O_5 
REMARK    3  A    between atoms: C_7  and  N_12 
REMARK    4  A    between atoms: C_9  and  C_10 
REMARK    5  A    between atoms: C_10  and  O_11 
REMARK    6  A    between atoms: O_11  and  P_21 
REMARK       I    between atoms: N_12  and  C_14 
REMARK    7  A    between atoms: C_14  and  C_16 
REMARK    8  A    between atoms: C_16  and  N_17 
ROOT
HETATM    1  C   UNL     1     -31.423  19.903  34.472  1.00  0.00     0.182 C 
HETATM    2  C   UNL     1     -30.690  18.958  35.436  1.00  0.00     0.198 C 
HETATM    3  C   UNL     1     -30.092  19.972  36.426  1.00  0.00     0.255 C 
HETATM    4  O   UNL     1     -31.084  21.011  36.557  1.00  0.00    -0.354 OA
HETATM    5  C   UNL     1     -31.848  21.086  35.346  1.00  0.00     0.180 C 
ENDROOT
BRANCH   3   6
HETATM    6  N   UNL     1     -29.804  19.399  37.703  1.00  0.00    -0.331 N 
HETATM    7  C   UNL     1     -28.744  18.612  37.900  1.00  0.00     0.245 C 
HETATM    8  O   UNL     1     -27.857  18.434  37.066  1.00  0.00    -0.272 OA
ATOM      9  HN  UNL     1     -30.427  19.596  38.486  1.00  0.00     0.165 HD
BRANCH   7  10
HETATM   10  C   UNL     1     -28.731  17.965  39.268  1.00  0.00     0.332 C 
BRANCH  10  11
HETATM   11  N   UNL     1     -28.843  16.523  39.191  1.00  0.00    -0.071 N 
ATOM     12  HN3 UNL     1     -29.748  16.205  39.538  1.00  0.00     0.274 HD
ATOM     13  HN2 UNL     1     -28.922  16.211  38.224  1.00  0.00     0.274 HD
ATOM     14  HN1 UNL     1     -28.077  16.052  39.672  1.00  0.00     0.274 HD
ENDBRANCH  10  11
ENDBRANCH   7  10
ENDBRANCH   3   6
BRANCH   2  15
HETATM   15  O   UNL     1     -29.742  18.138  34.791  1.00  0.00    -0.389 OA
ATOM     16  HO  UNL     1     -30.107  17.650  34.062  1.00  0.00     0.210 HD
ENDBRANCH   2  15
BRANCH   5  17
HETATM   17  C   UNL     1     -33.321  21.042  35.692  1.00  0.00     0.217 C 
BRANCH  17  18
HETATM   18  O   UNL     1     -34.046  20.494  34.597  1.00  0.00    -0.280 OA
BRANCH  18  19
HETATM   19  P   UNL     1     -35.623  20.268  34.759  1.00  0.00     0.422 P 
HETATM   20  O   UNL     1     -35.723  18.837  35.240  1.00  0.00    -0.617 OA
HETATM   21  O   UNL     1     -36.226  20.516  33.392  1.00  0.00    -0.617 OA
HETATM   22  O   UNL     1     -36.042  21.325  35.775  1.00  0.00    -0.617 OA
ENDBRANCH  18  19
ENDBRANCH  17  18
ENDBRANCH   5  17
BRANCH   1  23
HETATM   23  O   UNL     1     -30.494  20.327  33.482  1.00  0.00    -0.390 OA
ATOM     24  HO  UNL     1     -29.640  19.946  33.646  1.00  0.00     0.210 HD
ENDBRANCH   1  23
TORSDOF 8
ENDMDL
MODEL 11
REMARK VINA RESULT:    -5.558      3.664      4.654
REMARK INTER + INTRA:          -8.020
REMARK INTER:                  -7.390
REMARK INTRA:                  -0.630
REMARK UNBOUND:                -0.349
REMARK  8 active torsions:
REMARK  status: ('A' for Active; 'I' for Inactive)
REMARK    1  A    between atoms: C_1  and  O_2 
REMARK    2  A    between atoms: C_4  and  O_5 
REMARK    3  A    between atoms: C_7  and  N_12 
REMARK    4  A    between atoms: C_9  and  C_10 
REMARK    5  A    between atoms: C_10  and  O_11 
REMARK    6  A    between atoms: O_11  and  P_21 
REMARK       I    between atoms: N_12  and  C_14 
REMARK    7  A    between atoms: C_14  and  C_16 
REMARK    8  A    between atoms: C_16  and  N_17 
ROOT
HETATM    1  C   UNL     1     -35.534  18.397  37.887  1.00  0.00     0.182 C 
HETATM    2  C   UNL     1     -34.171  19.072  38.100  1.00  0.00     0.198 C 
HETATM    3  C   UNL     1     -33.223  17.914  37.739  1.00  0.00     0.255 C 
HETATM    4  O   UNL     1     -33.869  17.214  36.656  1.00  0.00    -0.354 OA
HETATM    5  C   UNL     1     -35.288  17.382  36.767  1.00  0.00     0.180 C 
ENDROOT
BRANCH   3   6
HETATM    6  N   UNL     1     -31.928  18.362  37.337  1.00  0.00    -0.331 N 
HETATM    7  C   UNL     1     -30.978  18.665  38.226  1.00  0.00     0.245 C 
HETATM    8  O   UNL     1     -31.074  18.449  39.433  1.00  0.00    -0.272 OA
ATOM      9  HN  UNL     1     -31.722  18.455  36.342  1.00  0.00     0.165 HD
BRANCH   7  10
HETATM   10  C   UNL     1     -29.754  19.293  37.595  1.00  0.00     0.332 C 
BRANCH  10  11
HETATM   11  N   UNL     1     -30.068  20.525  36.902  1.00  0.00    -0.071 N 
ATOM     12  HN3 UNL     1     -30.982  20.883  37.180  1.00  0.00     0.274 HD
ATOM     13  HN2 UNL     1     -29.486  21.294  37.233  1.00  0.00     0.274 HD
ATOM     14  HN1 UNL     1     -30.005  20.422  35.889  1.00  0.00     0.274 HD
ENDBRANCH  10  11
ENDBRANCH   7  10
ENDBRANCH   3   6
BRANCH   2  15
HETATM   15  O   UNL     1     -34.005  19.582  39.403  1.00  0.00    -0.389 OA
ATOM     16  HO  UNL     1     -33.455  19.034  39.949  1.00  0.00     0.210 HD
ENDBRANCH   2  15
BRANCH   5  17
HETATM   17  C   UNL     1     -35.831  17.855  35.435  1.00  0.00     0.217 C 
BRANCH  17  18
HETATM   18  O   UNL     1     -36.466  19.118  35.608  1.00  0.00    -0.280 OA
BRANCH  18  19
HETATM   19  P   UNL     1     -35.816  20.404  34.908  1.00  0.00     0.422 P 
HETATM   20  O   UNL     1     -36.088  21.515  35.898  1.00  0.00    -0.617 OA
HETATM   21  O   UNL     1     -36.521  20.559  33.577  1.00  0.00    -0.617 OA
HETATM   22  O   UNL     1     -34.347  20.027  34.743  1.00  0.00    -0.617 OA
ENDBRANCH  18  19
ENDBRANCH  17  18
ENDBRANCH   5  17
BRANCH   1  23
HETATM   23  O   UNL     1     -35.886  17.728  39.092  1.00  0.00    -0.390 OA
ATOM     24  HO  UNL     1     -36.684  17.228  38.971  1.00  0.00     0.210 HD
ENDBRANCH   1  23
TORSDOF 8
ENDMDL
MODEL 12
REMARK VINA RESULT:    -5.466      3.798      4.773
REMARK INTER + INTRA:          -7.892
REMARK INTER:                  -7.489
REMARK INTRA:                  -0.403
REMARK UNBOUND:                -0.349
REMARK  8 active torsions:
REMARK  status: ('A' for Active; 'I' for Inactive)
REMARK    1  A    between atoms: C_1  and  O_2 
REMARK    2  A    between atoms: C_4  and  O_5 
REMARK    3  A    between atoms: C_7  and  N_12 
REMARK    4  A    between atoms: C_9  and  C_10 
REMARK    5  A    between atoms: C_10  and  O_11 
REMARK    6  A    between atoms: O_11  and  P_21 
REMARK       I    between atoms: N_12  and  C_14 
REMARK    7  A    between atoms: C_14  and  C_16 
REMARK    8  A    between atoms: C_16  and  N_17 
ROOT
HETATM    1  C   UNL     1     -29.404  18.208  35.802  1.00  0.00     0.182 C 
HETATM    2  C   UNL     1     -28.577  17.762  37.017  1.00  0.00     0.198 C 
HETATM    3  C   UNL     1     -28.338  19.116  37.709  1.00  0.00     0.255 C 
HETATM    4  O   UNL     1     -29.552  19.869  37.509  1.00  0.00    -0.354 OA
HETATM    5  C   UNL     1     -30.181  19.431  36.297  1.00  0.00     0.180 C 
ENDROOT
BRANCH   3   6
HETATM    6  N   UNL     1     -28.060  18.986  39.104  1.00  0.00    -0.331 N 
HETATM    7  C   UNL     1     -26.831  19.150  39.598  1.00  0.00     0.245 C 
HETATM    8  O   UNL     1     -25.877  19.566  38.941  1.00  0.00    -0.272 OA
ATOM      9  HN  UNL     1     -28.823  18.759  39.742  1.00  0.00     0.165 HD
BRANCH   7  10
HETATM   10  C   UNL     1     -26.726  18.785  41.063  1.00  0.00     0.332 C 
BRANCH  10  11
HETATM   11  N   UNL     1     -26.980  17.378  41.294  1.00  0.00    -0.071 N 
ATOM     12  HN3 UNL     1     -27.495  17.234  42.163  1.00  0.00     0.274 HD
ATOM     13  HN2 UNL     1     -27.669  17.015  40.636  1.00  0.00     0.274 HD
ATOM     14  HN1 UNL     1     -26.123  16.825  41.277  1.00  0.00     0.274 HD
ENDBRANCH  10  11
ENDBRANCH   7  10
ENDBRANCH   3   6
BRANCH   2  15
HETATM   15  O   UNL     1     -27.402  17.069  36.661  1.00  0.00    -0.389 OA
ATOM     16  HO  UNL     1     -27.452  16.670  35.801  1.00  0.00     0.210 HD
ENDBRANCH   2  15
BRANCH   5  17
HETATM   17  C   UNL     1     -31.632  19.110  36.586  1.00  0.00     0.217 C 
BRANCH  17  18
HETATM   18  O   UNL     1     -32.404  19.319  35.409  1.00  0.00    -0.280 OA
BRANCH  18  19
HETATM   19  P   UNL     1     -33.524  20.464  35.422  1.00  0.00     0.422 P 
HETATM   20  O   UNL     1     -34.315  20.165  36.676  1.00  0.00    -0.617 OA
HETATM   21  O   UNL     1     -34.303  20.305  34.133  1.00  0.00    -0.617 OA
HETATM   22  O   UNL     1     -32.721  21.761  35.455  1.00  0.00    -0.617 OA
ENDBRANCH  18  19
ENDBRANCH  17  18
ENDBRANCH   5  17
BRANCH   1  23
HETATM   23  O   UNL     1     -28.500  18.581  34.769  1.00  0.00    -0.390 OA
ATOM     24  HO  UNL     1     -28.969  18.993  34.053  1.00  0.00     0.210 HD
ENDBRANCH   1  23
TORSDOF 8
ENDMDL
MODEL 13
REMARK VINA RESULT:    -5.456      3.166      5.712
REMARK INTER + INTRA:          -7.878
REMARK INTER:                  -6.651
REMARK INTRA:                  -1.227
REMARK UNBOUND:                -0.349
REMARK  8 active torsions:
REMARK  status: ('A' for Active; 'I' for Inactive)
REMARK    1  A    between atoms: C_1  and  O_2 
REMARK    2  A    between atoms: C_4  and  O_5 
REMARK    3  A    between atoms: C_7  and  N_12 
REMARK    4  A    between atoms: C_9  and  C_10 
REMARK    5  A    between atoms: C_10  and  O_11 
REMARK    6  A    between atoms: O_11  and  P_21 
REMARK       I    between atoms: N_12  and  C_14 
REMARK    7  A    between atoms: C_14  and  C_16 
REMARK    8  A    between atoms: C_16  and  N_17 
ROOT
HETATM    1  C   UNL     1     -30.156  20.821  35.615  1.00  0.00     0.182 C 
HETATM    2  C   UNL     1     -31.614  21.018  36.055  1.00  0.00     0.198 C 
HETATM    3  C   UNL     1     -32.294  19.858  35.305  1.00  0.00     0.255 C 
HETATM    4  O   UNL     1     -31.345  18.772  35.336  1.00  0.00    -0.354 OA
HETATM    5  C   UNL     1     -30.018  19.310  35.410  1.00  0.00     0.180 C 
ENDROOT
BRANCH   3   6
HETATM    6  N   UNL     1     -33.527  19.457  35.904  1.00  0.00    -0.331 N 
HETATM    7  C   UNL     1     -34.671  20.102  35.665  1.00  0.00     0.245 C 
HETATM    8  O   UNL     1     -34.798  20.982  34.815  1.00  0.00    -0.272 OA
ATOM      9  HN  UNL     1     -33.534  18.654  36.534  1.00  0.00     0.165 HD
BRANCH   7  10
HETATM   10  C   UNL     1     -35.813  19.630  36.540  1.00  0.00     0.332 C 
BRANCH  10  11
HETATM   11  N   UNL     1     -35.343  18.971  37.741  1.00  0.00    -0.071 N 
ATOM     12  HN3 UNL     1     -34.347  18.760  37.681  1.00  0.00     0.274 HD
ATOM     13  HN2 UNL     1     -35.324  19.615  38.532  1.00  0.00     0.274 HD
ATOM     14  HN1 UNL     1     -35.885  18.135  37.957  1.00  0.00     0.274 HD
ENDBRANCH  10  11
ENDBRANCH   7  10
ENDBRANCH   3   6
BRANCH   2  15
HETATM   15  O   UNL     1     -32.118  22.296  35.741  1.00  0.00    -0.389 OA
ATOM     16  HO  UNL     1     -32.451  22.356  34.853  1.00  0.00     0.210 HD
ENDBRANCH   2  15
BRANCH   5  17
HETATM   17  C   UNL     1     -29.281  18.642  36.551  1.00  0.00     0.217 C 
BRANCH  17  18
HETATM   18  O   UNL     1     -30.181  17.800  37.264  1.00  0.00    -0.280 OA
BRANCH  18  19
HETATM   19  P   UNL     1     -30.679  18.266  38.714  1.00  0.00     0.422 P 
HETATM   20  O   UNL     1     -29.880  19.525  38.969  1.00  0.00    -0.617 OA
HETATM   21  O   UNL     1     -30.367  17.120  39.653  1.00  0.00    -0.617 OA
HETATM   22  O   UNL     1     -32.180  18.474  38.536  1.00  0.00    -0.617 OA
ENDBRANCH  18  19
ENDBRANCH  17  18
ENDBRANCH   5  17
BRANCH   1  23
HETATM   23  O   UNL     1     -29.973  21.506  34.382  1.00  0.00    -0.390 OA
ATOM     24  HO  UNL     1     -30.401  21.037  33.676  1.00  0.00     0.210 HD
ENDBRANCH   1  23
TORSDOF 8
ENDMDL
MODEL 14
REMARK VINA RESULT:    -5.448      3.370      5.463
REMARK INTER + INTRA:          -7.868
REMARK INTER:                  -6.976
REMARK INTRA:                  -0.891
REMARK UNBOUND:                -0.349
REMARK  8 active torsions:
REMARK  status: ('A' for Active; 'I' for Inactive)
REMARK    1  A    between atoms: C_1  and  O_2 
REMARK    2  A    between atoms: C_4  and  O_5 
REMARK    3  A    between atoms: C_7  and  N_12 
REMARK    4  A    between atoms: C_9  and  C_10 
REMARK    5  A    between atoms: C_10  and  O_11 
REMARK    6  A    between atoms: O_11  and  P_21 
REMARK       I    between atoms: N_12  and  C_14 
REMARK    7  A    between atoms: C_14  and  C_16 
REMARK    8  A    between atoms: C_16  and  N_17 
ROOT
HETATM    1  C   UNL     1     -31.588  19.280  37.645  1.00  0.00     0.182 C 
HETATM    2  C   UNL     1     -31.028  18.228  36.677  1.00  0.00     0.198 C 
HETATM    3  C   UNL     1     -30.319  19.135  35.654  1.00  0.00     0.255 C 
HETATM    4  O   UNL     1     -29.770  20.224  36.424  1.00  0.00    -0.354 OA
HETATM    5  C   UNL     1     -30.576  20.428  37.592  1.00  0.00     0.180 C 
ENDROOT
BRANCH   3   6
HETATM    6  N   UNL     1     -29.282  18.460  34.939  1.00  0.00    -0.331 N 
HETATM    7  C   UNL     1     -29.426  18.097  33.663  1.00  0.00     0.245 C 
HETATM    8  O   UNL     1     -30.376  18.433  32.957  1.00  0.00    -0.272 OA
ATOM      9  HN  UNL     1     -28.406  18.249  35.419  1.00  0.00     0.165 HD
BRANCH   7  10
HETATM   10  C   UNL     1     -28.287  17.236  33.159  1.00  0.00     0.332 C 
BRANCH  10  11
HETATM   11  N   UNL     1     -27.200  18.029  32.623  1.00  0.00    -0.071 N 
ATOM     12  HN3 UNL     1     -27.308  18.175  31.620  1.00  0.00     0.274 HD
ATOM     13  HN2 UNL     1     -27.261  18.998  32.935  1.00  0.00     0.274 HD
ATOM     14  HN1 UNL     1     -26.288  17.627  32.842  1.00  0.00     0.274 HD
ENDBRANCH  10  11
ENDBRANCH   7  10
ENDBRANCH   3   6
BRANCH   2  15
HETATM   15  O   UNL     1     -32.024  17.394  36.130  1.00  0.00    -0.389 OA
ATOM     16  HO  UNL     1     -31.671  16.620  35.708  1.00  0.00     0.210 HD
ENDBRANCH   2  15
BRANCH   5  17
HETATM   17  C   UNL     1     -29.677  20.455  38.810  1.00  0.00     0.217 C 
BRANCH  17  18
HETATM   18  O   UNL     1     -28.325  20.276  38.400  1.00  0.00    -0.280 OA
BRANCH  18  19
HETATM   19  P   UNL     1     -27.561  18.941  38.847  1.00  0.00     0.422 P 
HETATM   20  O   UNL     1     -27.533  18.114  37.580  1.00  0.00    -0.617 OA
HETATM   21  O   UNL     1     -28.381  18.344  39.971  1.00  0.00    -0.617 OA
HETATM   22  O   UNL     1     -26.201  19.440  39.326  1.00  0.00    -0.617 OA
ENDBRANCH  18  19
ENDBRANCH  17  18
ENDBRANCH   5  17
BRANCH   1  23
HETATM   23  O   UNL     1     -32.849  19.709  37.146  1.00  0.00    -0.390 OA
ATOM     24  HO  UNL     1     -33.393  18.959  36.934  1.00  0.00     0.210 HD
ENDBRANCH   1  23
TORSDOF 8
ENDMDL
MODEL 15
REMARK VINA RESULT:    -5.383      2.120      2.802
REMARK INTER + INTRA:          -7.777
REMARK INTER:                  -7.008
REMARK INTRA:                  -0.769
REMARK UNBOUND:                -0.349
REMARK  8 active torsions:
REMARK  status: ('A' for Active; 'I' for Inactive)
REMARK    1  A    between atoms: C_1  and  O_2 
REMARK    2  A    between atoms: C_4  and  O_5 
REMARK    3  A    between atoms: C_7  and  N_12 
REMARK    4  A    between atoms: C_9  and  C_10 
REMARK    5  A    between atoms: C_10  and  O_11 
REMARK    6  A    between atoms: O_11  and  P_21 
REMARK       I    between atoms: N_12  and  C_14 
REMARK    7  A    between atoms: C_14  and  C_16 
REMARK    8  A    between atoms: C_16  and  N_17 
ROOT
HETATM    1  C   UNL     1     -32.862  19.396  38.424  1.00  0.00     0.182 C 
HETATM    2  C   UNL     1     -31.688  19.687  37.477  1.00  0.00     0.198 C 
HETATM    3  C   UNL     1     -31.672  18.394  36.642  1.00  0.00     0.255 C 
HETATM    4  O   UNL     1     -33.056  18.023  36.483  1.00  0.00    -0.354 OA
HETATM    5  C   UNL     1     -33.806  18.513  37.603  1.00  0.00     0.180 C 
ENDROOT
BRANCH   3   6
HETATM    6  N   UNL     1     -31.055  18.567  35.365  1.00  0.00    -0.331 N 
HETATM    7  C   UNL     1     -29.731  18.511  35.207  1.00  0.00     0.245 C 
HETATM    8  O   UNL     1     -28.948  18.167  36.092  1.00  0.00    -0.272 OA
ATOM      9  HN  UNL     1     -31.644  18.737  34.549  1.00  0.00     0.165 HD
BRANCH   7  10
HETATM   10  C   UNL     1     -29.281  18.904  33.816  1.00  0.00     0.332 C 
BRANCH  10  11
HETATM   11  N   UNL     1     -29.959  18.141  32.788  1.00  0.00    -0.071 N 
ATOM     12  HN3 UNL     1     -29.508  17.238  32.641  1.00  0.00     0.274 HD
ATOM     13  HN2 UNL     1     -30.870  17.816  33.111  1.00  0.00     0.274 HD
ATOM     14  HN1 UNL     1     -30.039  18.660  31.914  1.00  0.00     0.274 HD
ENDBRANCH  10  11
ENDBRANCH   7  10
ENDBRANCH   3   6
BRANCH   2  15
HETATM   15  O   UNL     1     -30.485  19.961  38.158  1.00  0.00    -0.389 OA
ATOM     16  HO  UNL     1     -30.024  20.716  37.810  1.00  0.00     0.210 HD
ENDBRANCH   2  15
BRANCH   5  17
HETATM   17  C   UNL     1     -35.008  19.278  37.092  1.00  0.00     0.217 C 
BRANCH  17  18
HETATM   18  O   UNL     1     -34.993  19.281  35.668  1.00  0.00    -0.280 OA
BRANCH  18  19
HETATM   19  P   UNL     1     -35.031  20.689  34.905  1.00  0.00     0.422 P 
HETATM   20  O   UNL     1     -36.489  21.085  34.975  1.00  0.00    -0.617 OA
HETATM   21  O   UNL     1     -34.517  20.422  33.506  1.00  0.00    -0.617 OA
HETATM   22  O   UNL     1     -34.080  21.568  35.712  1.00  0.00    -0.617 OA
ENDBRANCH  18  19
ENDBRANCH  17  18
ENDBRANCH   5  17
BRANCH   1  23
HETATM   23  O   UNL     1     -32.357  18.676  39.541  1.00  0.00    -0.390 OA
ATOM     24  HO  UNL     1     -33.071  18.370  40.088  1.00  0.00     0.210 HD
ENDBRANCH   1  23
TORSDOF 8
ENDMDL
MODEL 16
REMARK VINA RESULT:    -5.301      2.626      3.859
REMARK INTER + INTRA:          -7.664
REMARK INTER:                  -7.583
REMARK INTRA:                  -0.082
REMARK UNBOUND:                -0.349
REMARK  8 active torsions:
REMARK  status: ('A' for Active; 'I' for Inactive)
REMARK    1  A    between atoms: C_1  and  O_2 
REMARK    2  A    between atoms: C_4  and  O_5 
REMARK    3  A    between atoms: C_7  and  N_12 
REMARK    4  A    between atoms: C_9  and  C_10 
REMARK    5  A    between atoms: C_10  and  O_11 
REMARK    6  A    between atoms: O_11  and  P_21 
REMARK       I    between atoms: N_12  and  C_14 
REMARK    7  A    between atoms: C_14  and  C_16 
REMARK    8  A    between atoms: C_16  and  N_17 
ROOT
HETATM    1  C   UNL     1     -32.134  21.118  35.860  1.00  0.00     0.182 C 
HETATM    2  C   UNL     1     -32.215  20.169  34.656  1.00  0.00     0.198 C 
HETATM    3  C   UNL     1     -30.892  20.503  33.943  1.00  0.00     0.255 C 
HETATM    4  O   UNL     1     -29.940  20.752  34.998  1.00  0.00    -0.354 OA
HETATM    5  C   UNL     1     -30.636  21.238  36.154  1.00  0.00     0.180 C 
ENDROOT
BRANCH   3   6
HETATM    6  N   UNL     1     -30.433  19.446  33.100  1.00  0.00    -0.331 N 
HETATM    7  C   UNL     1     -30.022  18.276  33.596  1.00  0.00     0.245 C 
HETATM    8  O   UNL     1     -30.139  17.952  34.777  1.00  0.00    -0.272 OA
ATOM      9  HN  UNL     1     -30.417  19.588  32.090  1.00  0.00     0.165 HD
BRANCH   7  10
HETATM   10  C   UNL     1     -29.405  17.372  32.550  1.00  0.00     0.332 C 
BRANCH  10  11
HETATM   11  N   UNL     1     -30.086  17.468  31.275  1.00  0.00    -0.071 N 
ATOM     12  HN3 UNL     1     -29.590  18.090  30.637  1.00  0.00     0.274 HD
ATOM     13  HN2 UNL     1     -30.007  16.598  30.748  1.00  0.00     0.274 HD
ATOM     14  HN1 UNL     1     -31.061  17.748  31.381  1.00  0.00     0.274 HD
ENDBRANCH  10  11
ENDBRANCH   7  10
ENDBRANCH   3   6
BRANCH   2  15
HETATM   15  O   UNL     1     -33.370  20.367  33.873  1.00  0.00    -0.389 OA
ATOM     16  HO  UNL     1     -33.750  21.230  33.984  1.00  0.00     0.210 HD
ENDBRANCH   2  15
BRANCH   5  17
HETATM   17  C   UNL     1     -30.221  20.418  37.357  1.00  0.00     0.217 C 
BRANCH  17  18
HETATM   18  O   UNL     1     -31.356  19.729  37.871  1.00  0.00    -0.280 OA
BRANCH  18  19
HETATM   19  P   UNL     1     -31.123  18.367  38.681  1.00  0.00     0.422 P 
HETATM   20  O   UNL     1     -30.965  18.834  40.111  1.00  0.00    -0.617 OA
HETATM   21  O   UNL     1     -29.884  17.731  38.086  1.00  0.00    -0.617 OA
HETATM   22  O   UNL     1     -32.382  17.553  38.398  1.00  0.00    -0.617 OA
ENDBRANCH  18  19
ENDBRANCH  17  18
ENDBRANCH   5  17
BRANCH   1  23
HETATM   23  O   UNL     1     -32.663  22.378  35.463  1.00  0.00    -0.390 OA
ATOM     24  HO  UNL     1     -32.603  22.478  34.520  1.00  0.00     0.210 HD
ENDBRANCH   1  23
TORSDOF 8
ENDMDL
MODEL 17
REMARK VINA RESULT:    -5.284      3.385      4.174
REMARK INTER + INTRA:          -7.641
REMARK INTER:                  -7.086
REMARK INTRA:                  -0.555
REMARK UNBOUND:                -0.349
REMARK  8 active torsions:
REMARK  status: ('A' for Active; 'I' for Inactive)
REMARK    1  A    between atoms: C_1  and  O_2 
REMARK    2  A    between atoms: C_4  and  O_5 
REMARK    3  A    between atoms: C_7  and  N_12 
REMARK    4  A    between atoms: C_9  and  C_10 
REMARK    5  A    between atoms: C_10  and  O_11 
REMARK    6  A    between atoms: O_11  and  P_21 
REMARK       I    between atoms: N_12  and  C_14 
REMARK    7  A    between atoms: C_14  and  C_16 
REMARK    8  A    between atoms: C_16  and  N_17 
ROOT
HETATM    1  C   UNL     1     -33.537  18.937  38.145  1.00  0.00     0.182 C 
HETATM    2  C   UNL     1     -32.175  19.252  38.781  1.00  0.00     0.198 C 
HETATM    3  C   UNL     1     -31.260  18.323  37.964  1.00  0.00     0.255 C 
HETATM    4  O   UNL     1     -31.799  18.333  36.626  1.00  0.00    -0.354 OA
HETATM    5  C   UNL     1     -33.208  18.590  36.690  1.00  0.00     0.180 C 
ENDROOT
BRANCH   3   6
HETATM    6  N   UNL     1     -29.898  18.755  37.953  1.00  0.00    -0.331 N 
HETATM    7  C   UNL     1     -29.064  18.487  38.960  1.00  0.00     0.245 C 
HETATM    8  O   UNL     1     -29.337  17.736  39.895  1.00  0.00    -0.272 OA
ATOM      9  HN  UNL     1     -29.553  19.284  37.152  1.00  0.00     0.165 HD
BRANCH   7  10
HETATM   10  C   UNL     1     -27.731  19.193  38.831  1.00  0.00     0.332 C 
BRANCH  10  11
HETATM   11  N   UNL     1     -26.772  18.414  38.075  1.00  0.00    -0.071 N 
ATOM     12  HN3 UNL     1     -27.113  17.467  37.912  1.00  0.00     0.274 HD
ATOM     13  HN2 UNL     1     -26.717  18.735  37.108  1.00  0.00     0.274 HD
ATOM     14  HN1 UNL     1     -25.853  18.406  38.515  1.00  0.00     0.274 HD
ENDBRANCH  10  11
ENDBRANCH   7  10
ENDBRANCH   3   6
BRANCH   2  15
HETATM   15  O   UNL     1     -32.151  19.026  40.172  1.00  0.00    -0.389 OA
ATOM     16  HO  UNL     1     -31.890  18.141  40.400  1.00  0.00     0.210 HD
ENDBRANCH   2  15
BRANCH   5  17
HETATM   17  C   UNL     1     -33.544  19.721  35.741  1.00  0.00     0.217 C 
BRANCH  17  18
HETATM   18  O   UNL     1     -34.551  20.541  36.324  1.00  0.00    -0.280 OA
BRANCH  18  19
HETATM   19  P   UNL     1     -35.982  20.621  35.610  1.00  0.00     0.422 P 
HETATM   20  O   UNL     1     -36.887  21.153  36.700  1.00  0.00    -0.617 OA
HETATM   21  O   UNL     1     -36.304  19.213  35.157  1.00  0.00    -0.617 OA
HETATM   22  O   UNL     1     -35.753  21.568  34.436  1.00  0.00    -0.617 OA
ENDBRANCH  18  19
ENDBRANCH  17  18
ENDBRANCH   5  17
BRANCH   1  23
HETATM   23  O   UNL     1     -34.083  17.806  38.812  1.00  0.00    -0.390 OA
ATOM     24  HO  UNL     1     -34.434  18.059  39.658  1.00  0.00     0.210 HD
ENDBRANCH   1  23
TORSDOF 8
ENDMDL
MODEL 18
REMARK VINA RESULT:    -5.150      3.465      6.137
REMARK INTER + INTRA:          -7.456
REMARK INTER:                  -6.495
REMARK INTRA:                  -0.961
REMARK UNBOUND:                -0.349
REMARK  8 active torsions:
REMARK  status: ('A' for Active; 'I' for Inactive)
REMARK    1  A    between atoms: C_1  and  O_2 
REMARK    2  A    between atoms: C_4  and  O_5 
REMARK    3  A    between atoms: C_7  and  N_12 
REMARK    4  A    between atoms: C_9  and  C_10 
REMARK    5  A    between atoms: C_10  and  O_11 
REMARK    6  A    between atoms: O_11  and  P_21 
REMARK       I    between atoms: N_12  and  C_14 
REMARK    7  A    between atoms: C_14  and  C_16 
REMARK    8  A    between atoms: C_16  and  N_17 
ROOT
HETATM    1  C   UNL     1     -32.233  20.686  34.732  1.00  0.00     0.182 C 
HETATM    2  C   UNL     1     -33.253  20.568  35.874  1.00  0.00     0.198 C 
HETATM    3  C   UNL     1     -33.340  19.038  36.019  1.00  0.00     0.255 C 
HETATM    4  O   UNL     1     -32.003  18.554  35.776  1.00  0.00    -0.354 OA
HETATM    5  C   UNL     1     -31.324  19.466  34.903  1.00  0.00     0.180 C 
ENDROOT
BRANCH   3   6
HETATM    6  N   UNL     1     -33.789  18.627  37.311  1.00  0.00    -0.331 N 
HETATM    7  C   UNL     1     -35.063  18.305  37.546  1.00  0.00     0.245 C 
HETATM    8  O   UNL     1     -35.915  18.189  36.666  1.00  0.00    -0.272 OA
ATOM      9  HN  UNL     1     -33.117  18.578  38.077  1.00  0.00     0.165 HD
BRANCH   7  10
HETATM   10  C   UNL     1     -35.358  18.081  39.013  1.00  0.00     0.332 C 
BRANCH  10  11
HETATM   11  N   UNL     1     -35.544  19.326  39.729  1.00  0.00    -0.071 N 
ATOM     12  HN3 UNL     1     -36.212  19.217  40.492  1.00  0.00     0.274 HD
ATOM     13  HN2 UNL     1     -34.715  19.566  40.273  1.00  0.00     0.274 HD
ATOM     14  HN1 UNL     1     -35.813  20.089  39.108  1.00  0.00     0.274 HD
ENDBRANCH  10  11
ENDBRANCH   7  10
ENDBRANCH   3   6
BRANCH   2  15
HETATM   15  O   UNL     1     -34.480  21.200  35.587  1.00  0.00    -0.389 OA
ATOM     16  HO  UNL     1     -34.935  21.500  36.365  1.00  0.00     0.210 HD
ENDBRANCH   2  15
BRANCH   5  17
HETATM   17  C   UNL     1     -29.988  19.829  35.517  1.00  0.00     0.217 C 
BRANCH  17  18
HETATM   18  O   UNL     1     -29.920  19.306  36.839  1.00  0.00    -0.280 OA
BRANCH  18  19
HETATM   19  P   UNL     1     -29.959  20.329  38.071  1.00  0.00     0.422 P 
HETATM   20  O   UNL     1     -28.753  19.932  38.893  1.00  0.00    -0.617 OA
HETATM   21  O   UNL     1     -31.290  20.108  38.758  1.00  0.00    -0.617 OA
HETATM   22  O   UNL     1     -29.871  21.701  37.410  1.00  0.00    -0.617 OA
ENDBRANCH  18  19
ENDBRANCH  17  18
ENDBRANCH   5  17
BRANCH   1  23
HETATM   23  O   UNL     1     -32.941  20.606  33.501  1.00  0.00    -0.390 OA
ATOM     24  HO  UNL     1     -33.238  19.717  33.347  1.00  0.00     0.210 HD
ENDBRANCH   1  23
TORSDOF 8
ENDMDL
MODEL 19
REMARK VINA RESULT:    -5.139      2.934      3.821
REMARK INTER + INTRA:          -7.441
REMARK INTER:                  -6.969
REMARK INTRA:                  -0.472
REMARK UNBOUND:                -0.349
REMARK  8 active torsions:
REMARK  status: ('A' for Active; 'I' for Inactive)
REMARK    1  A    between atoms: C_1  and  O_2 
REMARK    2  A    between atoms: C_4  and  O_5 
REMARK    3  A    between atoms: C_7  and  N_12 
REMARK    4  A    between atoms: C_9  and  C_10 
REMARK    5  A    between atoms: C_10  and  O_11 
REMARK    6  A    between atoms: O_11  and  P_21 
REMARK       I    between atoms: N_12  and  C_14 
REMARK    7  A    between atoms: C_14  and  C_16 
REMARK    8  A    between atoms: C_16  and  N_17 
ROOT
HETATM    1  C   UNL     1     -30.837  20.517  35.764  1.00  0.00     0.182 C 
HETATM    2  C   UNL     1     -30.320  19.173  36.297  1.00  0.00     0.198 C 
HETATM    3  C   UNL     1     -31.099  19.075  37.621  1.00  0.00     0.255 C 
HETATM    4  O   UNL     1     -32.396  19.645  37.345  1.00  0.00    -0.354 OA
HETATM    5  C   UNL     1     -32.269  20.615  36.297  1.00  0.00     0.180 C 
ENDROOT
BRANCH   3   6
HETATM    6  N   UNL     1     -31.237  17.732  38.086  1.00  0.00    -0.331 N 
HETATM    7  C   UNL     1     -30.420  17.216  39.007  1.00  0.00     0.245 C 
HETATM    8  O   UNL     1     -29.591  17.874  39.634  1.00  0.00    -0.272 OA
ATOM      9  HN  UNL     1     -31.982  17.149  37.703  1.00  0.00     0.165 HD
BRANCH   7  10
HETATM   10  C   UNL     1     -30.623  15.731  39.216  1.00  0.00     0.332 C 
BRANCH  10  11
HETATM   11  N   UNL     1     -31.975  15.316  38.904  1.00  0.00    -0.071 N 
ATOM     12  HN3 UNL     1     -32.160  14.373  39.244  1.00  0.00     0.274 HD
ATOM     13  HN2 UNL     1     -32.657  15.827  39.465  1.00  0.00     0.274 HD
ATOM     14  HN1 UNL     1     -32.181  15.396  37.908  1.00  0.00     0.274 HD
ENDBRANCH  10  11
ENDBRANCH   7  10
ENDBRANCH   3   6
BRANCH   2  15
HETATM   15  O   UNL     1     -28.918  19.138  36.438  1.00  0.00    -0.389 OA
ATOM     16  HO  UNL     1     -28.637  18.782  37.272  1.00  0.00     0.210 HD
ENDBRANCH   2  15
BRANCH   5  17
HETATM   17  C   UNL     1     -33.300  20.318  35.228  1.00  0.00     0.217 C 
BRANCH  17  18
HETATM   18  O   UNL     1     -34.445  21.138  35.438  1.00  0.00    -0.280 OA
BRANCH  18  19
HETATM   19  P   UNL     1     -35.894  20.461  35.369  1.00  0.00     0.422 P 
HETATM   20  O   UNL     1     -36.653  21.147  36.484  1.00  0.00    -0.617 OA
HETATM   21  O   UNL     1     -35.675  18.977  35.576  1.00  0.00    -0.617 OA
HETATM   22  O   UNL     1     -36.382  20.782  33.959  1.00  0.00    -0.617 OA
ENDBRANCH  18  19
ENDBRANCH  17  18
ENDBRANCH   5  17
BRANCH   1  23
HETATM   23  O   UNL     1     -30.031  21.549  36.319  1.00  0.00    -0.390 OA
ATOM     24  HO  UNL     1     -29.177  21.561  35.903  1.00  0.00     0.210 HD
ENDBRANCH   1  23
TORSDOF 8
ENDMDL
