REMARK  15 active torsions:
REMARK  status: ('A' for Active; 'I' for Inactive)
REMARK    1  A    between atoms: P_1  and  O_28 
REMARK    2  A    between atoms: P_1  and  O_4 
REMARK    3  A    between atoms: O_4  and  C_5 
REMARK    4  A    between atoms: C_5  and  C_6 
REMARK    5  A    between atoms: C_8  and  O_9 
REMARK    6  A    between atoms: C_11  and  O_12 
REMARK    7  A    between atoms: C_14  and  N_15 
REMARK    8  A    between atoms: O_28  and  P_29 
REMARK    9  A    between atoms: P_29  and  O_32 
REMARK   10  A    between atoms: O_32  and  C_33 
REMARK   11  A    between atoms: C_33  and  C_34 
REMARK   12  A    between atoms: C_36  and  O_37 
REMARK   13  A    between atoms: C_39  and  O_40 
REMARK   14  A    between atoms: C_42  and  N_43 
REMARK   15  A    between atoms: C_45  and  C_46 
ROOT
HETATM    1  P   UNL     1      32.609  -6.398 -37.910  1.00  0.00     0.417 P 
HETATM    2  O   UNL     1      32.767  -7.804 -37.384  1.00  0.00    -0.624 OA
HETATM    3  O   UNL     1      33.544  -5.916 -38.980  1.00  0.00    -0.624 OA
ENDROOT
BRANCH   1   4
HETATM    4  O   UNL     1      31.084  -6.343 -38.396  1.00  0.00    -0.180 OA
BRANCH   4   5
HETATM    5  P   UNL     1      30.319  -5.326 -39.404  1.00  0.00     0.417 P 
HETATM    6  O   UNL     1      30.347  -5.843 -40.801  1.00  0.00    -0.624 OA
HETATM    7  O   UNL     1      30.706  -3.917 -39.141  1.00  0.00    -0.624 OA
BRANCH   5   8
HETATM    8  O   UNL     1      28.812  -5.610 -38.882  1.00  0.00    -0.287 OA
BRANCH   8   9
HETATM    9  C   UNL     1      28.488  -5.196 -37.538  1.00  0.00     0.216 C 
BRANCH   9  10
HETATM   10  C   UNL     1      27.110  -5.786 -37.177  1.00  0.00     0.180 C 
HETATM   11  O   UNL     1      26.097  -5.163 -37.869  1.00  0.00    -0.354 OA
HETATM   12  C   UNL     1      25.235  -6.305 -38.495  1.00  0.00     0.251 C 
HETATM   13  C   UNL     1      26.184  -7.298 -38.704  1.00  0.00     0.198 C 
HETATM   14  C   UNL     1      27.027  -7.322 -37.408  1.00  0.00     0.182 C 
BRANCH  12  15
HETATM   15  N   UNL     1      24.636  -5.673 -39.646  1.00  0.00    -0.382 N 
HETATM   16  C   UNL     1      25.430  -5.354 -40.777  1.00  0.00     0.120 C 
HETATM   17  C   UNL     1      24.828  -4.569 -41.851  1.00  0.00     0.024 C 
HETATM   18  C   UNL     1      23.346  -4.395 -41.933  1.00  0.00     0.043 C 
HETATM   19  C   UNL     1      22.684  -4.468 -40.569  1.00  0.00     0.002 C 
HETATM   20  C   UNL     1      23.302  -5.228 -39.493  1.00  0.00     0.159 C 
BRANCH  19  21
HETATM   21  C   UNL     1      21.314  -3.911 -40.412  1.00  0.00     0.258 C 
HETATM   22  O   UNL     1      20.682  -3.611 -41.398  1.00  0.00    -0.272 OA
HETATM   23  N   UNL     1      20.862  -3.711 -39.084  1.00  0.00    -0.058 NA
ENDBRANCH  19  21
ENDBRANCH  12  15
BRANCH  13  24
HETATM   24  O   UNL     1      25.563  -8.577 -38.945  1.00  0.00    -0.389 OA
ATOM     25  HO  UNL     1      26.212  -9.256 -39.088  1.00  0.00     0.210 HD
ENDBRANCH  13  24
BRANCH  14  26
HETATM   26  O   UNL     1      26.257  -7.990 -36.413  1.00  0.00    -0.390 OA
ATOM     27  HO  UNL     1      26.206  -8.928 -36.554  1.00  0.00     0.210 HD
ENDBRANCH  14  26
ENDBRANCH   9  10
ENDBRANCH   8   9
ENDBRANCH   5   8
ENDBRANCH   4   5
ENDBRANCH   1   4
BRANCH   1  28
HETATM   28  O   UNL     1      32.712  -5.359 -36.694  1.00  0.00    -0.287 OA
BRANCH  28  29
HETATM   29  C   UNL     1      32.261  -5.753 -35.416  1.00  0.00     0.216 C 
BRANCH  29  30
HETATM   30  C   UNL     1      33.227  -5.122 -34.354  1.00  0.00     0.180 C 
HETATM   31  O   UNL     1      32.741  -5.446 -33.119  1.00  0.00    -0.353 OA
HETATM   32  C   UNL     1      33.973  -5.661 -32.243  1.00  0.00     0.262 C 
HETATM   33  C   UNL     1      34.878  -6.334 -33.075  1.00  0.00     0.198 C 
HETATM   34  C   UNL     1      34.693  -5.646 -34.461  1.00  0.00     0.182 C 
BRANCH  32  35
HETATM   35  N   UNL     1      33.507  -6.422 -31.072  1.00  0.00    -0.297 N 
HETATM   36  C   UNL     1      33.225  -7.749 -31.079  1.00  0.00     0.188 A 
HETATM   37  N   UNL     1      32.876  -8.122 -29.814  1.00  0.00    -0.346 N 
HETATM   38  C   UNL     1      32.924  -7.002 -29.071  1.00  0.00     0.119 A 
ATOM     39  HN  UNL     1      32.629  -9.059 -29.496  1.00  0.00     0.167 HD
HETATM   40  C   UNL     1      33.298  -5.951 -29.833  1.00  0.00     0.142 A 
HETATM   41  C   UNL     1      32.642  -6.749 -27.749  1.00  0.00     0.148 A 
HETATM   42  N   UNL     1      33.420  -4.705 -29.403  1.00  0.00    -0.336 N 
HETATM   43  C   UNL     1      33.119  -4.493 -28.080  1.00  0.00     0.183 A 
ATOM     44  HN  UNL     1      33.720  -3.948 -30.017  1.00  0.00     0.168 HD
HETATM   45  N   UNL     1      32.750  -5.541 -27.296  1.00  0.00    -0.339 N 
ATOM     46  HN  UNL     1      32.550  -5.368 -26.311  1.00  0.00     0.167 HD
HETATM   47  N   UNL     1      32.217  -7.673 -26.736  1.00  0.00    -0.080 NA
ENDBRANCH  32  35
BRANCH  33  48
HETATM   48  O   UNL     1      36.262  -6.263 -32.598  1.00  0.00    -0.388 OA
ATOM     49  HO  UNL     1      36.375  -6.682 -31.753  1.00  0.00     0.210 HD
ENDBRANCH  33  48
BRANCH  34  50
HETATM   50  O   UNL     1      35.590  -4.622 -34.703  1.00  0.00    -0.390 OA
ATOM     51  HO  UNL     1      36.482  -4.941 -34.768  1.00  0.00     0.210 HD
ENDBRANCH  34  50
ENDBRANCH  29  30
ENDBRANCH  28  29
ENDBRANCH   1  28
TORSDOF 15
