MODEL 1
REMARK VINA RESULT:   -11.465      0.000      0.000
REMARK INTER + INTRA:         -14.451
REMARK INTER:                 -13.811
REMARK INTRA:                  -0.640
REMARK UNBOUND:                -0.640
REMARK  4 active torsions:
REMARK  status: ('A' for Active; 'I' for Inactive)
REMARK    1  A    between atoms: C_1  and  C_7 
REMARK    2  A    between atoms: C_4  and  O_20 
REMARK    3  A    between atoms: C_5  and  S_18 
REMARK       I    between atoms: C_7  and  N_8 
REMARK    4  A    between atoms: S_18  and  C_19 
ROOT
HETATM    1  C   UNL     1     -34.338 -11.219 -25.225  1.00  0.00     0.034 A 
HETATM    2  C   UNL     1     -35.547 -11.231 -24.542  1.00  0.00     0.020 A 
HETATM    3  C   UNL     1     -35.642 -11.821 -23.281  1.00  0.00     0.039 A 
HETATM    4  C   UNL     1     -34.479 -12.376 -22.730  1.00  0.00     0.082 A 
HETATM    5  C   UNL     1     -33.293 -12.349 -23.413  1.00  0.00     0.039 A 
HETATM    6  C   UNL     1     -33.176 -11.764 -24.661  1.00  0.00     0.038 A 
ENDROOT
BRANCH   1   7
HETATM    7  C   UNL     1     -34.278 -10.548 -26.603  1.00  0.00     0.261 C 
HETATM    8  O   UNL     1     -34.603 -11.064 -27.619  1.00  0.00    -0.267 OA
HETATM    9  N   UNL     1     -33.808  -9.188 -26.601  1.00  0.00    -0.298 N 
HETATM   10  C   UNL     1     -33.663  -8.347 -27.629  1.00  0.00     0.111 C 
HETATM   11  C   UNL     1     -33.441  -8.473 -25.548  1.00  0.00     0.107 C 
HETATM   12  C   UNL     1     -33.576  -6.841 -27.276  1.00  0.00    -0.012 A 
HETATM   13  C   UNL     1     -33.419  -6.937 -25.723  1.00  0.00    -0.027 A 
HETATM   14  C   UNL     1     -33.566  -5.478 -27.806  1.00  0.00     0.013 A 
HETATM   15  C   UNL     1     -33.273  -5.500 -24.953  1.00  0.00     0.068 A 
HETATM   16  C   UNL     1     -33.324  -4.400 -25.824  1.00  0.00    -0.022 A 
HETATM   17  C   UNL     1     -33.460  -4.438 -27.105  1.00  0.00    -0.003 A 
ENDBRANCH   1   7
BRANCH   5  18
HETATM   18  S   UNL     1     -31.875 -13.123 -22.564  1.00  0.00    -0.088 SA
BRANCH  18  19
HETATM   19  C   UNL     1     -30.506 -13.355 -23.706  1.00  0.00     0.006 A 
HETATM   20  C   UNL     1     -30.397 -14.596 -24.320  1.00  0.00     0.026 A 
HETATM   21  C   UNL     1     -29.334 -14.796 -25.189  1.00  0.00    -0.055 A 
HETATM   22  C   UNL     1     -29.153 -16.144 -25.897  1.00  0.00     0.049 C 
HETATM   23  C   UNL     1     -28.426 -13.779 -25.421  1.00  0.00    -0.056 A 
HETATM   24  C   UNL     1     -28.548 -12.538 -24.797  1.00  0.00     0.009 A 
HETATM   25  C   UNL     1     -27.262 -14.039 -26.391  1.00  0.00     0.049 C 
HETATM   26  C   UNL     1     -29.610 -12.323 -23.923  1.00  0.00     0.019 A 
ENDBRANCH  18  19
ENDBRANCH   5  18
BRANCH   4  27
HETATM   27  O   UNL     1     -34.476 -12.976 -21.481  1.00  0.00    -0.359 OA
ATOM     28  HO  UNL     1     -34.716 -12.498 -20.696  1.00  0.00     0.217 HD
ENDBRANCH   4  27
TORSDOF 4
ENDMDL
MODEL 2
REMARK VINA RESULT:   -11.032      0.442      1.280
REMARK INTER + INTRA:         -13.929
REMARK INTER:                 -13.328
REMARK INTRA:                  -0.602
REMARK UNBOUND:                -0.640
REMARK  4 active torsions:
REMARK  status: ('A' for Active; 'I' for Inactive)
REMARK    1  A    between atoms: C_1  and  C_7 
REMARK    2  A    between atoms: C_4  and  O_20 
REMARK    3  A    between atoms: C_5  and  S_18 
REMARK       I    between atoms: C_7  and  N_8 
REMARK    4  A    between atoms: S_18  and  C_19 
ROOT
HETATM    1  C   UNL     1     -34.361 -11.202 -25.260  1.00  0.00     0.034 A 
HETATM    2  C   UNL     1     -35.597 -11.319 -24.638  1.00  0.00     0.020 A 
HETATM    3  C   UNL     1     -35.703 -11.914 -23.381  1.00  0.00     0.039 A 
HETATM    4  C   UNL     1     -34.526 -12.366 -22.770  1.00  0.00     0.082 A 
HETATM    5  C   UNL     1     -33.314 -12.237 -23.393  1.00  0.00     0.039 A 
HETATM    6  C   UNL     1     -33.186 -11.644 -24.637  1.00  0.00     0.038 A 
ENDROOT
BRANCH   1   7
HETATM    7  C   UNL     1     -34.291 -10.530 -26.637  1.00  0.00     0.261 C 
HETATM    8  O   UNL     1     -34.604 -11.045 -27.656  1.00  0.00    -0.267 OA
HETATM    9  N   UNL     1     -33.825  -9.168 -26.629  1.00  0.00    -0.298 N 
HETATM   10  C   UNL     1     -33.674  -8.325 -27.654  1.00  0.00     0.111 C 
HETATM   11  C   UNL     1     -33.471  -8.453 -25.571  1.00  0.00     0.107 C 
HETATM   12  C   UNL     1     -33.595  -6.819 -27.300  1.00  0.00    -0.012 A 
HETATM   13  C   UNL     1     -33.453  -6.916 -25.745  1.00  0.00    -0.027 A 
HETATM   14  C   UNL     1     -33.586  -5.456 -27.828  1.00  0.00     0.013 A 
HETATM   15  C   UNL     1     -33.319  -5.480 -24.972  1.00  0.00     0.068 A 
HETATM   16  C   UNL     1     -33.366  -4.379 -25.842  1.00  0.00    -0.022 A 
HETATM   17  C   UNL     1     -33.489  -4.416 -27.124  1.00  0.00    -0.003 A 
ENDBRANCH   1   7
BRANCH   5  18
HETATM   18  S   UNL     1     -31.879 -12.884 -22.471  1.00  0.00    -0.088 SA
BRANCH  18  19
HETATM   19  C   UNL     1     -30.644 -13.538 -23.603  1.00  0.00     0.006 A 
HETATM   20  C   UNL     1     -29.518 -12.758 -23.830  1.00  0.00     0.026 A 
HETATM   21  C   UNL     1     -28.566 -13.241 -24.717  1.00  0.00    -0.055 A 
HETATM   22  C   UNL     1     -27.300 -12.430 -25.016  1.00  0.00     0.049 C 
HETATM   23  C   UNL     1     -28.754 -14.462 -25.341  1.00  0.00    -0.056 A 
HETATM   24  C   UNL     1     -29.891 -15.233 -25.103  1.00  0.00     0.009 A 
HETATM   25  C   UNL     1     -27.677 -14.963 -26.316  1.00  0.00     0.049 C 
HETATM   26  C   UNL     1     -30.854 -14.761 -24.216  1.00  0.00     0.019 A 
ENDBRANCH  18  19
ENDBRANCH   5  18
BRANCH   4  27
HETATM   27  O   UNL     1     -34.533 -12.962 -21.520  1.00  0.00    -0.359 OA
ATOM     28  HO  UNL     1     -33.851 -12.793 -20.880  1.00  0.00     0.217 HD
ENDBRANCH   4  27
TORSDOF 4
ENDMDL
MODEL 3
REMARK VINA RESULT:   -10.422      0.653      0.653
REMARK INTER + INTRA:         -13.194
REMARK INTER:                 -12.658
REMARK INTRA:                  -0.536
REMARK UNBOUND:                -0.640
REMARK  4 active torsions:
REMARK  status: ('A' for Active; 'I' for Inactive)
REMARK    1  A    between atoms: C_1  and  C_7 
REMARK    2  A    between atoms: C_4  and  O_20 
REMARK    3  A    between atoms: C_5  and  S_18 
REMARK       I    between atoms: C_7  and  N_8 
REMARK    4  A    between atoms: S_18  and  C_19 
ROOT
HETATM    1  C   UNL     1     -34.436 -11.107 -25.197  1.00  0.00     0.034 A 
HETATM    2  C   UNL     1     -35.664 -11.058 -24.550  1.00  0.00     0.020 A 
HETATM    3  C   UNL     1     -35.819 -11.616 -23.281  1.00  0.00     0.039 A 
HETATM    4  C   UNL     1     -34.695 -12.204 -22.685  1.00  0.00     0.082 A 
HETATM    5  C   UNL     1     -33.490 -12.239 -23.332  1.00  0.00     0.039 A 
HETATM    6  C   UNL     1     -33.314 -11.686 -24.588  1.00  0.00     0.038 A 
ENDROOT
BRANCH   1   7
HETATM    7  C   UNL     1     -34.310 -10.470 -26.585  1.00  0.00     0.261 C 
HETATM    8  O   UNL     1     -34.820 -10.888 -27.569  1.00  0.00    -0.267 OA
HETATM    9  N   UNL     1     -33.522  -9.266 -26.636  1.00  0.00    -0.298 N 
HETATM   10  C   UNL     1     -33.248  -8.485 -27.684  1.00  0.00     0.111 C 
HETATM   11  C   UNL     1     -32.920  -8.664 -25.621  1.00  0.00     0.107 C 
HETATM   12  C   UNL     1     -32.771  -7.046 -27.362  1.00  0.00    -0.012 A 
HETATM   13  C   UNL     1     -32.536  -7.180 -25.821  1.00  0.00    -0.027 A 
HETATM   14  C   UNL     1     -32.466  -5.726 -27.911  1.00  0.00     0.013 A 
HETATM   15  C   UNL     1     -31.991  -5.824 -25.084  1.00  0.00     0.068 A 
HETATM   16  C   UNL     1     -31.831  -4.743 -25.967  1.00  0.00    -0.022 A 
HETATM   17  C   UNL     1     -32.060  -4.745 -27.235  1.00  0.00    -0.003 A 
ENDBRANCH   1   7
BRANCH   5  18
HETATM   18  S   UNL     1     -32.130 -13.049 -22.425  1.00  0.00    -0.088 SA
BRANCH  18  19
HETATM   19  C   UNL     1     -30.687 -13.230 -23.483  1.00  0.00     0.006 A 
HETATM   20  C   UNL     1     -30.464 -14.483 -24.041  1.00  0.00     0.026 A 
HETATM   21  C   UNL     1     -29.344 -14.642 -24.844  1.00  0.00    -0.055 A 
HETATM   22  C   UNL     1     -29.037 -15.999 -25.488  1.00  0.00     0.049 C 
HETATM   23  C   UNL     1     -28.491 -13.576 -25.066  1.00  0.00    -0.056 A 
HETATM   24  C   UNL     1     -28.728 -12.324 -24.499  1.00  0.00     0.009 A 
HETATM   25  C   UNL     1     -27.261 -13.792 -25.962  1.00  0.00     0.049 C 
HETATM   26  C   UNL     1     -29.848 -12.149 -23.692  1.00  0.00     0.019 A 
ENDBRANCH  18  19
ENDBRANCH   5  18
BRANCH   4  27
HETATM   27  O   UNL     1     -34.753 -12.776 -21.424  1.00  0.00    -0.359 OA
ATOM     28  HO  UNL     1     -34.243 -13.546 -21.199  1.00  0.00     0.217 HD
ENDBRANCH   4  27
TORSDOF 4
ENDMDL
MODEL 4
REMARK VINA RESULT:   -10.091      3.375      5.101
REMARK INTER + INTRA:         -12.795
REMARK INTER:                 -11.981
REMARK INTRA:                  -0.814
REMARK UNBOUND:                -0.640
REMARK  4 active torsions:
REMARK  status: ('A' for Active; 'I' for Inactive)
REMARK    1  A    between atoms: C_1  and  C_7 
REMARK    2  A    between atoms: C_4  and  O_20 
REMARK    3  A    between atoms: C_5  and  S_18 
REMARK       I    between atoms: C_7  and  N_8 
REMARK    4  A    between atoms: S_18  and  C_19 
ROOT
HETATM    1  C   UNL     1     -28.796  -8.251 -24.081  1.00  0.00     0.034 A 
HETATM    2  C   UNL     1     -28.974  -7.920 -22.745  1.00  0.00     0.020 A 
HETATM    3  C   UNL     1     -28.290  -8.613 -21.746  1.00  0.00     0.039 A 
HETATM    4  C   UNL     1     -27.414  -9.633 -22.141  1.00  0.00     0.082 A 
HETATM    5  C   UNL     1     -27.244  -9.943 -23.463  1.00  0.00     0.039 A 
HETATM    6  C   UNL     1     -27.907  -9.263 -24.470  1.00  0.00     0.038 A 
ENDROOT
BRANCH   1   7
HETATM    7  C   UNL     1     -29.559  -7.453 -25.145  1.00  0.00     0.261 C 
HETATM    8  O   UNL     1     -29.129  -6.510 -25.719  1.00  0.00    -0.267 OA
HETATM    9  N   UNL     1     -30.879  -7.941 -25.446  1.00  0.00    -0.298 N 
HETATM   10  C   UNL     1     -31.768  -7.474 -26.327  1.00  0.00     0.111 C 
HETATM   11  C   UNL     1     -31.480  -8.995 -24.913  1.00  0.00     0.107 C 
HETATM   12  C   UNL     1     -32.894  -8.450 -26.750  1.00  0.00    -0.012 A 
HETATM   13  C   UNL     1     -32.672  -9.588 -25.700  1.00  0.00    -0.027 A 
HETATM   14  C   UNL     1     -34.005  -8.681 -27.671  1.00  0.00     0.013 A 
HETATM   15  C   UNL     1     -33.716 -10.843 -25.809  1.00  0.00     0.068 A 
HETATM   16  C   UNL     1     -34.648 -10.697 -26.849  1.00  0.00    -0.022 A 
HETATM   17  C   UNL     1     -34.739  -9.704 -27.666  1.00  0.00    -0.003 A 
ENDBRANCH   1   7
BRANCH   5  18
HETATM   18  S   UNL     1     -26.076 -11.301 -23.812  1.00  0.00    -0.088 SA
BRANCH  18  19
HETATM   19  C   UNL     1     -26.958 -12.759 -24.387  1.00  0.00     0.006 A 
HETATM   20  C   UNL     1     -28.319 -12.823 -24.117  1.00  0.00     0.026 A 
HETATM   21  C   UNL     1     -29.008 -13.951 -24.538  1.00  0.00    -0.055 A 
HETATM   22  C   UNL     1     -30.511 -14.088 -24.270  1.00  0.00     0.049 C 
HETATM   23  C   UNL     1     -28.342 -14.965 -25.203  1.00  0.00    -0.056 A 
HETATM   24  C   UNL     1     -26.975 -14.887 -25.466  1.00  0.00     0.009 A 
HETATM   25  C   UNL     1     -29.141 -16.198 -25.653  1.00  0.00     0.049 C 
HETATM   26  C   UNL     1     -26.270 -13.761 -25.050  1.00  0.00     0.019 A 
ENDBRANCH  18  19
ENDBRANCH   5  18
BRANCH   4  27
HETATM   27  O   UNL     1     -26.688 -10.370 -21.221  1.00  0.00    -0.359 OA
ATOM     28  HO  UNL     1     -26.173  -9.953 -20.539  1.00  0.00     0.217 HD
ENDBRANCH   4  27
TORSDOF 4
ENDMDL
MODEL 5
REMARK VINA RESULT:   -10.061      2.556      6.471
REMARK INTER + INTRA:         -12.759
REMARK INTER:                 -11.881
REMARK INTRA:                  -0.879
REMARK UNBOUND:                -0.640
REMARK  4 active torsions:
REMARK  status: ('A' for Active; 'I' for Inactive)
REMARK    1  A    between atoms: C_1  and  C_7 
REMARK    2  A    between atoms: C_4  and  O_20 
REMARK    3  A    between atoms: C_5  and  S_18 
REMARK       I    between atoms: C_7  and  N_8 
REMARK    4  A    between atoms: S_18  and  C_19 
ROOT
HETATM    1  C   UNL     1     -32.100 -13.137 -23.557  1.00  0.00     0.034 A 
HETATM    2  C   UNL     1     -32.587 -13.520 -22.314  1.00  0.00     0.020 A 
HETATM    3  C   UNL     1     -33.863 -13.133 -21.903  1.00  0.00     0.039 A 
HETATM    4  C   UNL     1     -34.631 -12.367 -22.791  1.00  0.00     0.082 A 
HETATM    5  C   UNL     1     -34.139 -12.003 -24.015  1.00  0.00     0.039 A 
HETATM    6  C   UNL     1     -32.880 -12.382 -24.445  1.00  0.00     0.038 A 
ENDROOT
BRANCH   1   7
HETATM    7  C   UNL     1     -30.698 -13.597 -23.971  1.00  0.00     0.261 C 
HETATM    8  O   UNL     1     -30.450 -14.640 -24.475  1.00  0.00    -0.267 OA
HETATM    9  N   UNL     1     -29.646 -12.645 -23.728  1.00  0.00    -0.298 N 
HETATM   10  C   UNL     1     -28.340 -12.748 -23.993  1.00  0.00     0.111 C 
HETATM   11  C   UNL     1     -29.771 -11.434 -23.204  1.00  0.00     0.107 C 
HETATM   12  C   UNL     1     -27.543 -11.421 -24.042  1.00  0.00    -0.012 A 
HETATM   13  C   UNL     1     -28.615 -10.441 -23.462  1.00  0.00    -0.027 A 
HETATM   14  C   UNL     1     -26.266 -10.795 -24.381  1.00  0.00     0.013 A 
HETATM   15  C   UNL     1     -28.130  -8.883 -23.333  1.00  0.00     0.068 A 
HETATM   16  C   UNL     1     -26.815  -8.676 -23.781  1.00  0.00    -0.022 A 
HETATM   17  C   UNL     1     -26.012  -9.569 -24.248  1.00  0.00    -0.003 A 
ENDBRANCH   1   7
BRANCH   5  18
HETATM   18  S   UNL     1     -35.259 -10.998 -25.048  1.00  0.00    -0.088 SA
BRANCH  18  19
HETATM   19  C   UNL     1     -34.338  -9.721 -25.918  1.00  0.00     0.006 A 
HETATM   20  C   UNL     1     -33.681  -8.775 -25.141  1.00  0.00     0.026 A 
HETATM   21  C   UNL     1     -32.982  -7.773 -25.798  1.00  0.00    -0.055 A 
HETATM   22  C   UNL     1     -32.237  -6.695 -25.003  1.00  0.00     0.049 C 
HETATM   23  C   UNL     1     -32.956  -7.736 -27.181  1.00  0.00    -0.056 A 
HETATM   24  C   UNL     1     -33.621  -8.693 -27.947  1.00  0.00     0.009 A 
HETATM   25  C   UNL     1     -32.171  -6.610 -27.872  1.00  0.00     0.049 C 
HETATM   26  C   UNL     1     -34.326  -9.705 -27.302  1.00  0.00     0.019 A 
ENDBRANCH  18  19
ENDBRANCH   5  18
BRANCH   4  27
HETATM   27  O   UNL     1     -35.910 -11.943 -22.472  1.00  0.00    -0.359 OA
ATOM     28  HO  UNL     1     -36.312 -11.195 -22.899  1.00  0.00     0.217 HD
ENDBRANCH   4  27
TORSDOF 4
ENDMDL
MODEL 6
REMARK VINA RESULT:   -10.052      3.329      4.716
REMARK INTER + INTRA:         -12.748
REMARK INTER:                 -12.492
REMARK INTRA:                  -0.256
REMARK UNBOUND:                -0.640
REMARK  4 active torsions:
REMARK  status: ('A' for Active; 'I' for Inactive)
REMARK    1  A    between atoms: C_1  and  C_7 
REMARK    2  A    between atoms: C_4  and  O_20 
REMARK    3  A    between atoms: C_5  and  S_18 
REMARK       I    between atoms: C_7  and  N_8 
REMARK    4  A    between atoms: S_18  and  C_19 
ROOT
HETATM    1  C   UNL     1     -32.054  -8.622 -24.854  1.00  0.00     0.034 A 
HETATM    2  C   UNL     1     -33.276  -8.656 -25.512  1.00  0.00     0.020 A 
HETATM    3  C   UNL     1     -34.057  -9.812 -25.494  1.00  0.00     0.039 A 
HETATM    4  C   UNL     1     -33.574 -10.916 -24.778  1.00  0.00     0.082 A 
HETATM    5  C   UNL     1     -32.371 -10.863 -24.129  1.00  0.00     0.039 A 
HETATM    6  C   UNL     1     -31.584  -9.726 -24.128  1.00  0.00     0.038 A 
ENDROOT
BRANCH   1   7
HETATM    7  C   UNL     1     -31.235  -7.326 -24.890  1.00  0.00     0.261 C 
HETATM    8  O   UNL     1     -31.697  -6.235 -24.874  1.00  0.00    -0.267 OA
HETATM    9  N   UNL     1     -29.807  -7.506 -24.925  1.00  0.00    -0.298 N 
HETATM   10  C   UNL     1     -28.844  -6.580 -24.944  1.00  0.00     0.111 C 
HETATM   11  C   UNL     1     -29.148  -8.655 -24.916  1.00  0.00     0.107 C 
HETATM   12  C   UNL     1     -27.429  -7.054 -24.526  1.00  0.00    -0.012 A 
HETATM   13  C   UNL     1     -27.661  -8.601 -24.497  1.00  0.00    -0.027 A 
HETATM   14  C   UNL     1     -26.068  -6.636 -24.195  1.00  0.00     0.013 A 
HETATM   15  C   UNL     1     -26.345  -9.489 -24.100  1.00  0.00     0.068 A 
HETATM   16  C   UNL     1     -25.210  -8.707 -23.836  1.00  0.00    -0.022 A 
HETATM   17  C   UNL     1     -25.132  -7.421 -23.889  1.00  0.00    -0.003 A 
ENDBRANCH   1   7
BRANCH   5  18
HETATM   18  S   UNL     1     -31.880 -12.387 -23.252  1.00  0.00    -0.088 SA
BRANCH  18  19
HETATM   19  C   UNL     1     -30.330 -13.020 -23.908  1.00  0.00     0.006 A 
HETATM   20  C   UNL     1     -30.343 -14.307 -24.430  1.00  0.00     0.026 A 
HETATM   21  C   UNL     1     -29.149 -14.816 -24.922  1.00  0.00    -0.055 A 
HETATM   22  C   UNL     1     -29.092 -16.231 -25.510  1.00  0.00     0.049 C 
HETATM   23  C   UNL     1     -27.998 -14.049 -24.883  1.00  0.00    -0.056 A 
HETATM   24  C   UNL     1     -28.001 -12.759 -24.354  1.00  0.00     0.009 A 
HETATM   25  C   UNL     1     -26.696 -14.649 -25.438  1.00  0.00     0.049 C 
HETATM   26  C   UNL     1     -29.191 -12.235 -23.858  1.00  0.00     0.019 A 
ENDBRANCH  18  19
ENDBRANCH   5  18
BRANCH   4  27
HETATM   27  O   UNL     1     -34.285 -12.102 -24.698  1.00  0.00    -0.359 OA
ATOM     28  HO  UNL     1     -35.229 -12.115 -24.597  1.00  0.00     0.217 HD
ENDBRANCH   4  27
TORSDOF 4
ENDMDL
MODEL 7
REMARK VINA RESULT:   -10.045      3.464      5.699
REMARK INTER + INTRA:         -12.740
REMARK INTER:                 -12.083
REMARK INTRA:                  -0.656
REMARK UNBOUND:                -0.640
REMARK  4 active torsions:
REMARK  status: ('A' for Active; 'I' for Inactive)
REMARK    1  A    between atoms: C_1  and  C_7 
REMARK    2  A    between atoms: C_4  and  O_20 
REMARK    3  A    between atoms: C_5  and  S_18 
REMARK       I    between atoms: C_7  and  N_8 
REMARK    4  A    between atoms: S_18  and  C_19 
ROOT
HETATM    1  C   UNL     1     -28.869  -8.486 -25.039  1.00  0.00     0.034 A 
HETATM    2  C   UNL     1     -28.313  -7.329 -24.512  1.00  0.00     0.020 A 
HETATM    3  C   UNL     1     -27.128  -7.384 -23.777  1.00  0.00     0.039 A 
HETATM    4  C   UNL     1     -26.520  -8.636 -23.611  1.00  0.00     0.082 A 
HETATM    5  C   UNL     1     -27.078  -9.766 -24.143  1.00  0.00     0.039 A 
HETATM    6  C   UNL     1     -28.248  -9.733 -24.881  1.00  0.00     0.038 A 
ENDROOT
BRANCH   1   7
HETATM    7  C   UNL     1     -30.166  -8.375 -25.851  1.00  0.00     0.261 C 
HETATM    8  O   UNL     1     -30.265  -7.818 -26.891  1.00  0.00    -0.267 OA
HETATM    9  N   UNL     1     -31.308  -9.032 -25.271  1.00  0.00    -0.298 N 
HETATM   10  C   UNL     1     -32.554  -9.124 -25.743  1.00  0.00     0.111 C 
HETATM   11  C   UNL     1     -31.343  -9.716 -24.137  1.00  0.00     0.107 C 
HETATM   12  C   UNL     1     -33.433 -10.251 -25.145  1.00  0.00    -0.012 A 
HETATM   13  C   UNL     1     -32.524 -10.698 -23.953  1.00  0.00    -0.027 A 
HETATM   14  C   UNL     1     -34.695 -10.982 -25.255  1.00  0.00     0.013 A 
HETATM   15  C   UNL     1     -33.135 -11.905 -23.032  1.00  0.00     0.068 A 
HETATM   16  C   UNL     1     -34.388 -12.357 -23.475  1.00  0.00    -0.022 A 
HETATM   17  C   UNL     1     -35.053 -11.912 -24.485  1.00  0.00    -0.003 A 
ENDBRANCH   1   7
BRANCH   5  18
HETATM   18  S   UNL     1     -26.169 -11.317 -23.830  1.00  0.00    -0.088 SA
BRANCH  18  19
HETATM   19  C   UNL     1     -27.079 -12.725 -24.483  1.00  0.00     0.006 A 
HETATM   20  C   UNL     1     -28.409 -12.850 -24.102  1.00  0.00     0.026 A 
HETATM   21  C   UNL     1     -29.118 -13.942 -24.583  1.00  0.00    -0.055 A 
HETATM   22  C   UNL     1     -30.588 -14.143 -24.199  1.00  0.00     0.049 C 
HETATM   23  C   UNL     1     -28.500 -14.861 -25.412  1.00  0.00    -0.056 A 
HETATM   24  C   UNL     1     -27.164 -14.721 -25.786  1.00  0.00     0.009 A 
HETATM   25  C   UNL     1     -29.319 -16.056 -25.924  1.00  0.00     0.049 C 
HETATM   26  C   UNL     1     -26.440 -13.631 -25.312  1.00  0.00     0.019 A 
ENDBRANCH  18  19
ENDBRANCH   5  18
BRANCH   4  27
HETATM   27  O   UNL     1     -25.339  -8.786 -22.903  1.00  0.00    -0.359 OA
ATOM     28  HO  UNL     1     -24.743  -8.059 -22.762  1.00  0.00     0.217 HD
ENDBRANCH   4  27
TORSDOF 4
ENDMDL
MODEL 8
REMARK VINA RESULT:    -9.892      1.298      1.891
REMARK INTER + INTRA:         -12.555
REMARK INTER:                 -12.045
REMARK INTRA:                  -0.510
REMARK UNBOUND:                -0.640
REMARK  4 active torsions:
REMARK  status: ('A' for Active; 'I' for Inactive)
REMARK    1  A    between atoms: C_1  and  C_7 
REMARK    2  A    between atoms: C_4  and  O_20 
REMARK    3  A    between atoms: C_5  and  S_18 
REMARK       I    between atoms: C_7  and  N_8 
REMARK    4  A    between atoms: S_18  and  C_19 
ROOT
HETATM    1  C   UNL     1     -34.271 -11.187 -25.370  1.00  0.00     0.034 A 
HETATM    2  C   UNL     1     -35.344 -11.315 -24.498  1.00  0.00     0.020 A 
HETATM    3  C   UNL     1     -35.207 -12.025 -23.305  1.00  0.00     0.039 A 
HETATM    4  C   UNL     1     -33.954 -12.582 -23.017  1.00  0.00     0.082 A 
HETATM    5  C   UNL     1     -32.904 -12.441 -23.883  1.00  0.00     0.039 A 
HETATM    6  C   UNL     1     -33.016 -11.735 -25.067  1.00  0.00     0.038 A 
ENDROOT
BRANCH   1   7
HETATM    7  C   UNL     1     -34.465 -10.386 -26.663  1.00  0.00     0.261 C 
HETATM    8  O   UNL     1     -35.045 -10.778 -27.619  1.00  0.00    -0.267 OA
HETATM    9  N   UNL     1     -33.901  -9.062 -26.652  1.00  0.00    -0.298 N 
HETATM   10  C   UNL     1     -33.922  -8.132 -27.611  1.00  0.00     0.111 C 
HETATM   11  C   UNL     1     -33.256  -8.478 -25.653  1.00  0.00     0.107 C 
HETATM   12  C   UNL     1     -33.642  -6.677 -27.161  1.00  0.00    -0.012 A 
HETATM   13  C   UNL     1     -33.154  -6.936 -25.698  1.00  0.00    -0.027 A 
HETATM   14  C   UNL     1     -33.643  -5.270 -27.562  1.00  0.00     0.013 A 
HETATM   15  C   UNL     1     -32.730  -5.594 -24.862  1.00  0.00     0.068 A 
HETATM   16  C   UNL     1     -32.886  -4.411 -25.602  1.00  0.00    -0.022 A 
HETATM   17  C   UNL     1     -33.304  -4.313 -26.817  1.00  0.00    -0.003 A 
ENDBRANCH   1   7
BRANCH   5  18
HETATM   18  S   UNL     1     -31.343 -13.232 -23.367  1.00  0.00    -0.088 SA
BRANCH  18  19
HETATM   19  C   UNL     1     -29.950 -12.133 -23.663  1.00  0.00     0.006 A 
HETATM   20  C   UNL     1     -28.733 -12.724 -23.975  1.00  0.00     0.026 A 
HETATM   21  C   UNL     1     -27.645 -11.889 -24.187  1.00  0.00    -0.055 A 
HETATM   22  C   UNL     1     -26.271 -12.475 -24.531  1.00  0.00     0.049 C 
HETATM   23  C   UNL     1     -27.792 -10.517 -24.085  1.00  0.00    -0.056 A 
HETATM   24  C   UNL     1     -29.022  -9.938 -23.771  1.00  0.00     0.009 A 
HETATM   25  C   UNL     1     -26.564  -9.626 -24.328  1.00  0.00     0.049 C 
HETATM   26  C   UNL     1     -30.122 -10.764 -23.557  1.00  0.00     0.019 A 
ENDBRANCH  18  19
ENDBRANCH   5  18
BRANCH   4  27
HETATM   27  O   UNL     1     -33.722 -13.297 -21.853  1.00  0.00    -0.359 OA
ATOM     28  HO  UNL     1     -32.975 -13.116 -21.294  1.00  0.00     0.217 HD
ENDBRANCH   4  27
TORSDOF 4
ENDMDL
MODEL 9
REMARK VINA RESULT:    -9.760      4.079      8.462
REMARK INTER + INTRA:         -12.396
REMARK INTER:                 -11.702
REMARK INTRA:                  -0.694
REMARK UNBOUND:                -0.640
REMARK  4 active torsions:
REMARK  status: ('A' for Active; 'I' for Inactive)
REMARK    1  A    between atoms: C_1  and  C_7 
REMARK    2  A    between atoms: C_4  and  O_20 
REMARK    3  A    between atoms: C_5  and  S_18 
REMARK       I    between atoms: C_7  and  N_8 
REMARK    4  A    between atoms: S_18  and  C_19 
ROOT
HETATM    1  C   UNL     1     -27.370  -9.489 -22.917  1.00  0.00     0.034 A 
HETATM    2  C   UNL     1     -27.651  -9.602 -21.562  1.00  0.00     0.020 A 
HETATM    3  C   UNL     1     -28.495  -8.684 -20.936  1.00  0.00     0.039 A 
HETATM    4  C   UNL     1     -29.054  -7.668 -21.723  1.00  0.00     0.082 A 
HETATM    5  C   UNL     1     -28.772  -7.575 -23.059  1.00  0.00     0.039 A 
HETATM    6  C   UNL     1     -27.944  -8.479 -23.701  1.00  0.00     0.038 A 
ENDROOT
BRANCH   1   7
HETATM    7  C   UNL     1     -26.447 -10.528 -23.565  1.00  0.00     0.261 C 
HETATM    8  O   UNL     1     -25.264 -10.474 -23.565  1.00  0.00    -0.267 OA
HETATM    9  N   UNL     1     -27.119 -11.640 -24.185  1.00  0.00    -0.298 N 
HETATM   10  C   UNL     1     -26.593 -12.699 -24.808  1.00  0.00     0.111 C 
HETATM   11  C   UNL     1     -28.425 -11.853 -24.238  1.00  0.00     0.107 C 
HETATM   12  C   UNL     1     -27.519 -13.931 -24.966  1.00  0.00    -0.012 A 
HETATM   13  C   UNL     1     -28.883 -13.301 -24.533  1.00  0.00    -0.027 A 
HETATM   14  C   UNL     1     -27.595 -15.339 -25.355  1.00  0.00     0.013 A 
HETATM   15  C   UNL     1     -30.163 -14.319 -24.584  1.00  0.00     0.068 A 
HETATM   16  C   UNL     1     -29.821 -15.615 -25.005  1.00  0.00    -0.022 A 
HETATM   17  C   UNL     1     -28.648 -16.030 -25.340  1.00  0.00    -0.003 A 
ENDBRANCH   1   7
BRANCH   5  18
HETATM   18  S   UNL     1     -29.572  -6.191 -23.940  1.00  0.00    -0.088 SA
BRANCH  18  19
HETATM   19  C   UNL     1     -30.781  -6.810 -25.119  1.00  0.00     0.006 A 
HETATM   20  C   UNL     1     -30.320  -7.126 -26.391  1.00  0.00     0.026 A 
HETATM   21  C   UNL     1     -31.245  -7.585 -27.317  1.00  0.00    -0.055 A 
HETATM   22  C   UNL     1     -30.805  -7.949 -28.740  1.00  0.00     0.049 C 
HETATM   23  C   UNL     1     -32.577  -7.716 -26.963  1.00  0.00    -0.056 A 
HETATM   24  C   UNL     1     -33.024  -7.394 -25.682  1.00  0.00     0.009 A 
HETATM   25  C   UNL     1     -33.570  -8.229 -28.017  1.00  0.00     0.049 C 
HETATM   26  C   UNL     1     -32.107  -6.932 -24.742  1.00  0.00     0.019 A 
ENDBRANCH  18  19
ENDBRANCH   5  18
BRANCH   4  27
HETATM   27  O   UNL     1     -29.909  -6.717 -21.189  1.00  0.00    -0.359 OA
ATOM     28  HO  UNL     1     -29.697  -5.791 -21.199  1.00  0.00     0.217 HD
ENDBRANCH   4  27
TORSDOF 4
ENDMDL
MODEL 10
REMARK VINA RESULT:    -9.663      4.271      8.207
REMARK INTER + INTRA:         -12.279
REMARK INTER:                 -11.892
REMARK INTRA:                  -0.387
REMARK UNBOUND:                -0.640
REMARK  4 active torsions:
REMARK  status: ('A' for Active; 'I' for Inactive)
REMARK    1  A    between atoms: C_1  and  C_7 
REMARK    2  A    between atoms: C_4  and  O_20 
REMARK    3  A    between atoms: C_5  and  S_18 
REMARK       I    between atoms: C_7  and  N_8 
REMARK    4  A    between atoms: S_18  and  C_19 
ROOT
HETATM    1  C   UNL     1     -26.218 -10.749 -24.179  1.00  0.00     0.034 A 
HETATM    2  C   UNL     1     -25.017 -10.369 -23.595  1.00  0.00     0.020 A 
HETATM    3  C   UNL     1     -24.766  -9.029 -23.299  1.00  0.00     0.039 A 
HETATM    4  C   UNL     1     -25.770  -8.096 -23.593  1.00  0.00     0.082 A 
HETATM    5  C   UNL     1     -26.951  -8.488 -24.162  1.00  0.00     0.039 A 
HETATM    6  C   UNL     1     -27.223  -9.812 -24.457  1.00  0.00     0.038 A 
ENDROOT
BRANCH   1   7
HETATM    7  C   UNL     1     -26.454 -12.235 -24.475  1.00  0.00     0.261 C 
HETATM    8  O   UNL     1     -25.597 -13.040 -24.615  1.00  0.00    -0.267 OA
HETATM    9  N   UNL     1     -27.836 -12.630 -24.556  1.00  0.00    -0.298 N 
HETATM   10  C   UNL     1     -28.353 -13.841 -24.781  1.00  0.00     0.111 C 
HETATM   11  C   UNL     1     -28.898 -11.854 -24.392  1.00  0.00     0.107 C 
HETATM   12  C   UNL     1     -29.831 -14.045 -24.367  1.00  0.00    -0.012 A 
HETATM   13  C   UNL     1     -30.234 -12.563 -24.069  1.00  0.00    -0.027 A 
HETATM   14  C   UNL     1     -30.909 -15.016 -24.184  1.00  0.00     0.013 A 
HETATM   15  C   UNL     1     -31.787 -12.349 -23.601  1.00  0.00     0.068 A 
HETATM   16  C   UNL     1     -32.513 -13.549 -23.533  1.00  0.00    -0.022 A 
HETATM   17  C   UNL     1     -32.074 -14.730 -23.803  1.00  0.00    -0.003 A 
ENDBRANCH   1   7
BRANCH   5  18
HETATM   18  S   UNL     1     -28.150  -7.152 -24.492  1.00  0.00    -0.088 SA
BRANCH  18  19
HETATM   19  C   UNL     1     -29.773  -7.836 -24.853  1.00  0.00     0.006 A 
HETATM   20  C   UNL     1     -30.180  -7.833 -26.181  1.00  0.00     0.026 A 
HETATM   21  C   UNL     1     -31.438  -8.340 -26.472  1.00  0.00    -0.055 A 
HETATM   22  C   UNL     1     -31.952  -8.363 -27.917  1.00  0.00     0.049 C 
HETATM   23  C   UNL     1     -32.243  -8.827 -25.458  1.00  0.00    -0.056 A 
HETATM   24  C   UNL     1     -31.821  -8.824 -24.129  1.00  0.00     0.009 A 
HETATM   25  C   UNL     1     -33.630  -9.381 -25.821  1.00  0.00     0.049 C 
HETATM   26  C   UNL     1     -30.560  -8.319 -23.821  1.00  0.00     0.019 A 
ENDBRANCH  18  19
ENDBRANCH   5  18
BRANCH   4  27
HETATM   27  O   UNL     1     -25.613  -6.746 -23.328  1.00  0.00    -0.359 OA
ATOM     28  HO  UNL     1     -24.870  -6.253 -23.657  1.00  0.00     0.217 HD
ENDBRANCH   4  27
TORSDOF 4
ENDMDL
MODEL 11
REMARK VINA RESULT:    -9.637      2.734      6.334
REMARK INTER + INTRA:         -12.248
REMARK INTER:                 -11.482
REMARK INTRA:                  -0.766
REMARK UNBOUND:                -0.640
REMARK  4 active torsions:
REMARK  status: ('A' for Active; 'I' for Inactive)
REMARK    1  A    between atoms: C_1  and  C_7 
REMARK    2  A    between atoms: C_4  and  O_20 
REMARK    3  A    between atoms: C_5  and  S_18 
REMARK       I    between atoms: C_7  and  N_8 
REMARK    4  A    between atoms: S_18  and  C_19 
ROOT
HETATM    1  C   UNL     1     -31.940 -12.804 -23.597  1.00  0.00     0.034 A 
HETATM    2  C   UNL     1     -32.609 -13.355 -22.513  1.00  0.00     0.020 A 
HETATM    3  C   UNL     1     -33.934 -13.008 -22.247  1.00  0.00     0.039 A 
HETATM    4  C   UNL     1     -34.560 -12.105 -23.118  1.00  0.00     0.082 A 
HETATM    5  C   UNL     1     -33.888 -11.576 -24.186  1.00  0.00     0.039 A 
HETATM    6  C   UNL     1     -32.577 -11.913 -24.472  1.00  0.00     0.038 A 
ENDROOT
BRANCH   1   7
HETATM    7  C   UNL     1     -30.488 -13.225 -23.857  1.00  0.00     0.261 C 
HETATM    8  O   UNL     1     -30.151 -14.308 -24.201  1.00  0.00    -0.267 OA
HETATM    9  N   UNL     1     -29.509 -12.187 -23.676  1.00  0.00    -0.298 N 
HETATM   10  C   UNL     1     -28.184 -12.242 -23.842  1.00  0.00     0.111 C 
HETATM   11  C   UNL     1     -29.735 -10.929 -23.326  1.00  0.00     0.107 C 
HETATM   12  C   UNL     1     -27.457 -10.886 -24.017  1.00  0.00    -0.012 A 
HETATM   13  C   UNL     1     -28.618  -9.907 -23.640  1.00  0.00    -0.027 A 
HETATM   14  C   UNL     1     -26.194 -10.230 -24.354  1.00  0.00     0.013 A 
HETATM   15  C   UNL     1     -28.227  -8.319 -23.689  1.00  0.00     0.068 A 
HETATM   16  C   UNL     1     -26.897  -8.090 -24.077  1.00  0.00    -0.022 A 
HETATM   17  C   UNL     1     -26.016  -8.984 -24.370  1.00  0.00    -0.003 A 
ENDBRANCH   1   7
BRANCH   5  18
HETATM   18  S   UNL     1     -34.840 -10.409 -25.218  1.00  0.00    -0.088 SA
BRANCH  18  19
HETATM   19  C   UNL     1     -33.801  -9.036 -25.738  1.00  0.00     0.006 A 
HETATM   20  C   UNL     1     -33.532  -8.926 -27.096  1.00  0.00     0.026 A 
HETATM   21  C   UNL     1     -32.716  -7.882 -27.509  1.00  0.00    -0.055 A 
HETATM   22  C   UNL     1     -32.375  -7.704 -28.993  1.00  0.00     0.049 C 
HETATM   23  C   UNL     1     -32.200  -6.994 -26.582  1.00  0.00    -0.056 A 
HETATM   24  C   UNL     1     -32.479  -7.118 -25.222  1.00  0.00     0.009 A 
HETATM   25  C   UNL     1     -31.301  -5.851 -27.080  1.00  0.00     0.049 C 
HETATM   26  C   UNL     1     -33.297  -8.160 -24.792  1.00  0.00     0.019 A 
ENDBRANCH  18  19
ENDBRANCH   5  18
BRANCH   4  27
HETATM   27  O   UNL     1     -35.874 -11.708 -22.938  1.00  0.00    -0.359 OA
ATOM     28  HO  UNL     1     -36.521 -12.280 -22.541  1.00  0.00     0.217 HD
ENDBRANCH   4  27
TORSDOF 4
ENDMDL
MODEL 12
REMARK VINA RESULT:    -9.623      3.737      6.606
REMARK INTER + INTRA:         -12.231
REMARK INTER:                 -12.273
REMARK INTRA:                   0.042
REMARK UNBOUND:                -0.640
REMARK  4 active torsions:
REMARK  status: ('A' for Active; 'I' for Inactive)
REMARK    1  A    between atoms: C_1  and  C_7 
REMARK    2  A    between atoms: C_4  and  O_20 
REMARK    3  A    between atoms: C_5  and  S_18 
REMARK       I    between atoms: C_7  and  N_8 
REMARK    4  A    between atoms: S_18  and  C_19 
ROOT
HETATM    1  C   UNL     1     -28.158 -13.186 -24.341  1.00  0.00     0.034 A 
HETATM    2  C   UNL     1     -28.284 -14.479 -24.832  1.00  0.00     0.020 A 
HETATM    3  C   UNL     1     -29.526 -15.113 -24.847  1.00  0.00     0.039 A 
HETATM    4  C   UNL     1     -30.632 -14.396 -24.370  1.00  0.00     0.082 A 
HETATM    5  C   UNL     1     -30.492 -13.120 -23.895  1.00  0.00     0.039 A 
HETATM    6  C   UNL     1     -29.271 -12.470 -23.878  1.00  0.00     0.038 A 
ENDROOT
BRANCH   1   7
HETATM    7  C   UNL     1     -26.775 -12.525 -24.356  1.00  0.00     0.261 C 
HETATM    8  O   UNL     1     -25.753 -13.100 -24.529  1.00  0.00    -0.267 OA
HETATM    9  N   UNL     1     -26.777 -11.099 -24.163  1.00  0.00    -0.298 N 
HETATM   10  C   UNL     1     -25.745 -10.251 -24.143  1.00  0.00     0.111 C 
HETATM   11  C   UNL     1     -27.834 -10.319 -23.990  1.00  0.00     0.107 C 
HETATM   12  C   UNL     1     -26.079  -8.756 -24.370  1.00  0.00    -0.012 A 
HETATM   13  C   UNL     1     -27.639  -8.810 -24.264  1.00  0.00    -0.027 A 
HETATM   14  C   UNL     1     -25.532  -7.421 -24.607  1.00  0.00     0.013 A 
HETATM   15  C   UNL     1     -28.395  -7.369 -24.438  1.00  0.00     0.068 A 
HETATM   16  C   UNL     1     -27.507  -6.305 -24.667  1.00  0.00    -0.022 A 
HETATM   17  C   UNL     1     -26.222  -6.376 -24.738  1.00  0.00    -0.003 A 
ENDBRANCH   1   7
BRANCH   5  18
HETATM   18  S   UNL     1     -32.025 -12.327 -23.301  1.00  0.00    -0.088 SA
BRANCH  18  19
HETATM   19  C   UNL     1     -32.458 -10.929 -24.348  1.00  0.00     0.006 A 
HETATM   20  C   UNL     1     -33.399 -11.152 -25.344  1.00  0.00     0.026 A 
HETATM   21  C   UNL     1     -33.729 -10.088 -26.171  1.00  0.00    -0.055 A 
HETATM   22  C   UNL     1     -34.758 -10.266 -27.293  1.00  0.00     0.049 C 
HETATM   23  C   UNL     1     -33.126  -8.856 -25.991  1.00  0.00    -0.056 A 
HETATM   24  C   UNL     1     -32.182  -8.647 -24.986  1.00  0.00     0.009 A 
HETATM   25  C   UNL     1     -33.518  -7.702 -26.927  1.00  0.00     0.049 C 
HETATM   26  C   UNL     1     -31.842  -9.706 -24.148  1.00  0.00     0.019 A 
ENDBRANCH  18  19
ENDBRANCH   5  18
BRANCH   4  27
HETATM   27  O   UNL     1     -31.905 -14.941 -24.353  1.00  0.00    -0.359 OA
ATOM     28  HO  UNL     1     -32.134 -15.696 -24.883  1.00  0.00     0.217 HD
ENDBRANCH   4  27
TORSDOF 4
ENDMDL
MODEL 13
REMARK VINA RESULT:    -9.547      2.175      2.654
REMARK INTER + INTRA:         -12.140
REMARK INTER:                 -11.709
REMARK INTRA:                  -0.431
REMARK UNBOUND:                -0.640
REMARK  4 active torsions:
REMARK  status: ('A' for Active; 'I' for Inactive)
REMARK    1  A    between atoms: C_1  and  C_7 
REMARK    2  A    between atoms: C_4  and  O_20 
REMARK    3  A    between atoms: C_5  and  S_18 
REMARK       I    between atoms: C_7  and  N_8 
REMARK    4  A    between atoms: S_18  and  C_19 
ROOT
HETATM    1  C   UNL     1     -33.896 -10.650 -25.397  1.00  0.00     0.034 A 
HETATM    2  C   UNL     1     -35.180 -10.542 -24.881  1.00  0.00     0.020 A 
HETATM    3  C   UNL     1     -35.590 -11.356 -23.825  1.00  0.00     0.039 A 
HETATM    4  C   UNL     1     -34.659 -12.263 -23.300  1.00  0.00     0.082 A 
HETATM    5  C   UNL     1     -33.395 -12.353 -23.816  1.00  0.00     0.039 A 
HETATM    6  C   UNL     1     -32.966 -11.550 -24.858  1.00  0.00     0.038 A 
ENDROOT
BRANCH   1   7
HETATM    7  C   UNL     1     -33.486  -9.726 -26.550  1.00  0.00     0.261 C 
HETATM    8  O   UNL     1     -34.146  -9.510 -27.510  1.00  0.00    -0.267 OA
HETATM    9  N   UNL     1     -32.207  -9.083 -26.393  1.00  0.00    -0.298 N 
HETATM   10  C   UNL     1     -31.593  -8.221 -27.209  1.00  0.00     0.111 C 
HETATM   11  C   UNL     1     -31.376  -9.201 -25.368  1.00  0.00     0.107 C 
HETATM   12  C   UNL     1     -30.466  -7.365 -26.580  1.00  0.00    -0.012 A 
HETATM   13  C   UNL     1     -30.312  -8.092 -25.204  1.00  0.00    -0.027 A 
HETATM   14  C   UNL     1     -29.555  -6.239 -26.779  1.00  0.00     0.013 A 
HETATM   15  C   UNL     1     -29.161  -7.471 -24.219  1.00  0.00     0.068 A 
HETATM   16  C   UNL     1     -28.498  -6.365 -24.774  1.00  0.00    -0.022 A 
HETATM   17  C   UNL     1     -28.711  -5.842 -25.933  1.00  0.00    -0.003 A 
ENDBRANCH   1   7
BRANCH   5  18
HETATM   18  S   UNL     1     -32.308 -13.589 -23.028  1.00  0.00    -0.088 SA
BRANCH  18  19
HETATM   19  C   UNL     1     -30.676 -13.567 -23.785  1.00  0.00     0.006 A 
HETATM   20  C   UNL     1     -29.933 -12.401 -23.651  1.00  0.00     0.026 A 
HETATM   21  C   UNL     1     -28.680 -12.362 -24.246  1.00  0.00    -0.055 A 
HETATM   22  C   UNL     1     -27.808 -11.106 -24.141  1.00  0.00     0.049 C 
HETATM   23  C   UNL     1     -28.208 -13.460 -24.944  1.00  0.00    -0.056 A 
HETATM   24  C   UNL     1     -28.966 -14.623 -25.070  1.00  0.00     0.009 A 
HETATM   25  C   UNL     1     -26.815 -13.378 -25.589  1.00  0.00     0.049 C 
HETATM   26  C   UNL     1     -30.225 -14.677 -24.477  1.00  0.00     0.019 A 
ENDBRANCH  18  19
ENDBRANCH   5  18
BRANCH   4  27
HETATM   27  O   UNL     1     -34.974 -13.105 -22.247  1.00  0.00    -0.359 OA
ATOM     28  HO  UNL     1     -34.352 -13.296 -21.554  1.00  0.00     0.217 HD
ENDBRANCH   4  27
TORSDOF 4
ENDMDL
MODEL 14
REMARK VINA RESULT:    -9.476      3.824      5.359
REMARK INTER + INTRA:         -12.055
REMARK INTER:                 -11.881
REMARK INTRA:                  -0.174
REMARK UNBOUND:                -0.640
REMARK  4 active torsions:
REMARK  status: ('A' for Active; 'I' for Inactive)
REMARK    1  A    between atoms: C_1  and  C_7 
REMARK    2  A    between atoms: C_4  and  O_20 
REMARK    3  A    between atoms: C_5  and  S_18 
REMARK       I    between atoms: C_7  and  N_8 
REMARK    4  A    between atoms: S_18  and  C_19 
ROOT
HETATM    1  C   UNL     1     -28.812  -8.468 -24.366  1.00  0.00     0.034 A 
HETATM    2  C   UNL     1     -28.033  -7.323 -24.460  1.00  0.00     0.020 A 
HETATM    3  C   UNL     1     -26.644  -7.400 -24.358  1.00  0.00     0.039 A 
HETATM    4  C   UNL     1     -26.072  -8.666 -24.178  1.00  0.00     0.082 A 
HETATM    5  C   UNL     1     -26.853  -9.787 -24.094  1.00  0.00     0.039 A 
HETATM    6  C   UNL     1     -28.231  -9.734 -24.200  1.00  0.00     0.038 A 
ENDROOT
BRANCH   1   7
HETATM    7  C   UNL     1     -30.334  -8.336 -24.497  1.00  0.00     0.261 C 
HETATM    8  O   UNL     1     -31.094  -8.368 -23.589  1.00  0.00    -0.267 OA
HETATM    9  N   UNL     1     -30.817  -8.140 -25.838  1.00  0.00    -0.298 N 
HETATM   10  C   UNL     1     -32.073  -7.977 -26.263  1.00  0.00     0.111 C 
HETATM   11  C   UNL     1     -30.091  -8.053 -26.942  1.00  0.00     0.107 C 
HETATM   12  C   UNL     1     -32.246  -7.344 -27.666  1.00  0.00    -0.012 A 
HETATM   13  C   UNL     1     -30.765  -7.393 -28.168  1.00  0.00    -0.027 A 
HETATM   14  C   UNL     1     -33.195  -6.782 -28.627  1.00  0.00     0.013 A 
HETATM   15  C   UNL     1     -30.526  -6.808 -29.678  1.00  0.00     0.068 A 
HETATM   16  C   UNL     1     -31.705  -6.340 -30.281  1.00  0.00    -0.022 A 
HETATM   17  C   UNL     1     -32.887  -6.347 -29.767  1.00  0.00    -0.003 A 
ENDBRANCH   1   7
BRANCH   5  18
HETATM   18  S   UNL     1     -25.955 -11.357 -23.850  1.00  0.00    -0.088 SA
BRANCH  18  19
HETATM   19  C   UNL     1     -26.918 -12.739 -24.484  1.00  0.00     0.006 A 
HETATM   20  C   UNL     1     -28.249 -12.812 -24.096  1.00  0.00     0.026 A 
HETATM   21  C   UNL     1     -28.999 -13.883 -24.562  1.00  0.00    -0.055 A 
HETATM   22  C   UNL     1     -30.474 -14.028 -24.171  1.00  0.00     0.049 C 
HETATM   23  C   UNL     1     -28.418 -14.833 -25.383  1.00  0.00    -0.056 A 
HETATM   24  C   UNL     1     -27.079 -14.746 -25.763  1.00  0.00     0.009 A 
HETATM   25  C   UNL     1     -29.281 -16.004 -25.878  1.00  0.00     0.049 C 
HETATM   26  C   UNL     1     -26.315 -13.677 -25.304  1.00  0.00     0.019 A 
ENDBRANCH  18  19
ENDBRANCH   5  18
BRANCH   4  27
HETATM   27  O   UNL     1     -24.701  -8.841 -24.074  1.00  0.00    -0.359 OA
ATOM     28  HO  UNL     1     -24.268  -8.914 -23.232  1.00  0.00     0.217 HD
ENDBRANCH   4  27
TORSDOF 4
ENDMDL
MODEL 15
REMARK VINA RESULT:    -9.351      3.225      5.125
REMARK INTER + INTRA:         -11.904
REMARK INTER:                 -11.487
REMARK INTRA:                  -0.418
REMARK UNBOUND:                -0.640
REMARK  4 active torsions:
REMARK  status: ('A' for Active; 'I' for Inactive)
REMARK    1  A    between atoms: C_1  and  C_7 
REMARK    2  A    between atoms: C_4  and  O_20 
REMARK    3  A    between atoms: C_5  and  S_18 
REMARK       I    between atoms: C_7  and  N_8 
REMARK    4  A    between atoms: S_18  and  C_19 
ROOT
HETATM    1  C   UNL     1     -30.800 -12.981 -23.867  1.00  0.00     0.034 A 
HETATM    2  C   UNL     1     -31.066 -14.278 -24.286  1.00  0.00     0.020 A 
HETATM    3  C   UNL     1     -30.039 -15.093 -24.764  1.00  0.00     0.039 A 
HETATM    4  C   UNL     1     -28.742 -14.563 -24.787  1.00  0.00     0.082 A 
HETATM    5  C   UNL     1     -28.495 -13.285 -24.364  1.00  0.00     0.039 A 
HETATM    6  C   UNL     1     -29.497 -12.464 -23.880  1.00  0.00     0.038 A 
ENDROOT
BRANCH   1   7
HETATM    7  C   UNL     1     -31.958 -12.127 -23.337  1.00  0.00     0.261 C 
HETATM    8  O   UNL     1     -32.497 -12.292 -22.295  1.00  0.00    -0.267 OA
HETATM    9  N   UNL     1     -32.365 -11.048 -24.198  1.00  0.00    -0.298 N 
HETATM   10  C   UNL     1     -33.320 -10.134 -24.007  1.00  0.00     0.111 C 
HETATM   11  C   UNL     1     -31.840 -10.722 -25.371  1.00  0.00     0.107 C 
HETATM   12  C   UNL     1     -33.227  -8.852 -24.871  1.00  0.00    -0.012 A 
HETATM   13  C   UNL     1     -32.116  -9.289 -25.882  1.00  0.00    -0.027 A 
HETATM   14  C   UNL     1     -33.755  -7.506 -25.092  1.00  0.00     0.013 A 
HETATM   15  C   UNL     1     -31.731  -8.171 -27.013  1.00  0.00     0.068 A 
HETATM   16  C   UNL     1     -32.463  -6.980 -26.883  1.00  0.00    -0.022 A 
HETATM   17  C   UNL     1     -33.365  -6.724 -25.998  1.00  0.00    -0.003 A 
ENDBRANCH   1   7
BRANCH   5  18
HETATM   18  S   UNL     1     -26.756 -12.743 -24.466  1.00  0.00    -0.088 SA
BRANCH  18  19
HETATM   19  C   UNL     1     -26.642 -10.955 -24.298  1.00  0.00     0.006 A 
HETATM   20  C   UNL     1     -27.792 -10.221 -24.556  1.00  0.00     0.026 A 
HETATM   21  C   UNL     1     -27.714  -8.840 -24.449  1.00  0.00    -0.055 A 
HETATM   22  C   UNL     1     -28.945  -7.969 -24.724  1.00  0.00     0.049 C 
HETATM   23  C   UNL     1     -26.520  -8.237 -24.096  1.00  0.00    -0.056 A 
HETATM   24  C   UNL     1     -25.373  -8.988 -23.839  1.00  0.00     0.009 A 
HETATM   25  C   UNL     1     -26.474  -6.705 -23.987  1.00  0.00     0.049 C 
HETATM   26  C   UNL     1     -25.437 -10.374 -23.942  1.00  0.00     0.019 A 
ENDBRANCH  18  19
ENDBRANCH   5  18
BRANCH   4  27
HETATM   27  O   UNL     1     -27.659 -15.300 -25.238  1.00  0.00    -0.359 OA
ATOM     28  HO  UNL     1     -27.478 -15.409 -26.164  1.00  0.00     0.217 HD
ENDBRANCH   4  27
TORSDOF 4
ENDMDL
MODEL 16
REMARK VINA RESULT:    -9.315      3.157      4.250
REMARK INTER + INTRA:         -11.860
REMARK INTER:                 -11.342
REMARK INTRA:                  -0.519
REMARK UNBOUND:                -0.640
REMARK  4 active torsions:
REMARK  status: ('A' for Active; 'I' for Inactive)
REMARK    1  A    between atoms: C_1  and  C_7 
REMARK    2  A    between atoms: C_4  and  O_20 
REMARK    3  A    between atoms: C_5  and  S_18 
REMARK       I    between atoms: C_7  and  N_8 
REMARK    4  A    between atoms: S_18  and  C_19 
ROOT
HETATM    1  C   UNL     1     -31.387  -8.306 -24.779  1.00  0.00     0.034 A 
HETATM    2  C   UNL     1     -31.320  -7.071 -24.148  1.00  0.00     0.020 A 
HETATM    3  C   UNL     1     -30.374  -6.835 -23.150  1.00  0.00     0.039 A 
HETATM    4  C   UNL     1     -29.493  -7.876 -22.827  1.00  0.00     0.082 A 
HETATM    5  C   UNL     1     -29.567  -9.086 -23.463  1.00  0.00     0.039 A 
HETATM    6  C   UNL     1     -30.492  -9.337 -24.460  1.00  0.00     0.038 A 
ENDROOT
BRANCH   1   7
HETATM    7  C   UNL     1     -32.434  -8.514 -25.879  1.00  0.00     0.261 C 
HETATM    8  O   UNL     1     -33.535  -8.911 -25.696  1.00  0.00    -0.267 OA
HETATM    9  N   UNL     1     -32.003  -8.166 -27.207  1.00  0.00    -0.298 N 
HETATM   10  C   UNL     1     -32.686  -8.221 -28.354  1.00  0.00     0.111 C 
HETATM   11  C   UNL     1     -30.821  -7.684 -27.561  1.00  0.00     0.107 C 
HETATM   12  C   UNL     1     -32.131  -7.373 -29.525  1.00  0.00    -0.012 A 
HETATM   13  C   UNL     1     -30.744  -6.965 -28.928  1.00  0.00    -0.027 A 
HETATM   14  C   UNL     1     -32.385  -6.866 -30.873  1.00  0.00     0.013 A 
HETATM   15  C   UNL     1     -29.813  -6.042 -29.908  1.00  0.00     0.068 A 
HETATM   16  C   UNL     1     -30.425  -5.753 -31.139  1.00  0.00    -0.022 A 
HETATM   17  C   UNL     1     -31.589  -6.145 -31.530  1.00  0.00    -0.003 A 
ENDBRANCH   1   7
BRANCH   5  18
HETATM   18  S   UNL     1     -28.356 -10.338 -22.920  1.00  0.00    -0.088 SA
BRANCH  18  19
HETATM   19  C   UNL     1     -28.677 -11.915 -23.723  1.00  0.00     0.006 A 
HETATM   20  C   UNL     1     -29.916 -12.500 -23.495  1.00  0.00     0.026 A 
HETATM   21  C   UNL     1     -30.171 -13.726 -24.092  1.00  0.00    -0.055 A 
HETATM   22  C   UNL     1     -31.517 -14.429 -23.879  1.00  0.00     0.049 C 
HETATM   23  C   UNL     1     -29.208 -14.328 -24.883  1.00  0.00    -0.056 A 
HETATM   24  C   UNL     1     -27.969 -13.728 -25.102  1.00  0.00     0.009 A 
HETATM   25  C   UNL     1     -29.529 -15.685 -25.527  1.00  0.00     0.049 C 
HETATM   26  C   UNL     1     -27.699 -12.497 -24.510  1.00  0.00     0.019 A 
ENDBRANCH  18  19
ENDBRANCH   5  18
BRANCH   4  27
HETATM   27  O   UNL     1     -28.517  -7.732 -21.855  1.00  0.00    -0.359 OA
ATOM     28  HO  UNL     1     -28.223  -6.877 -21.562  1.00  0.00     0.217 HD
ENDBRANCH   4  27
TORSDOF 4
ENDMDL
MODEL 17
REMARK VINA RESULT:    -9.282      3.237      6.720
REMARK INTER + INTRA:         -11.821
REMARK INTER:                 -11.428
REMARK INTRA:                  -0.393
REMARK UNBOUND:                -0.640
REMARK  4 active torsions:
REMARK  status: ('A' for Active; 'I' for Inactive)
REMARK    1  A    between atoms: C_1  and  C_7 
REMARK    2  A    between atoms: C_4  and  O_20 
REMARK    3  A    between atoms: C_5  and  S_18 
REMARK       I    between atoms: C_7  and  N_8 
REMARK    4  A    between atoms: S_18  and  C_19 
ROOT
HETATM    1  C   UNL     1     -32.582 -10.302 -24.290  1.00  0.00     0.034 A 
HETATM    2  C   UNL     1     -33.593  -9.600 -24.932  1.00  0.00     0.020 A 
HETATM    3  C   UNL     1     -33.522  -8.212 -25.055  1.00  0.00     0.039 A 
HETATM    4  C   UNL     1     -32.396  -7.565 -24.528  1.00  0.00     0.082 A 
HETATM    5  C   UNL     1     -31.405  -8.273 -23.904  1.00  0.00     0.039 A 
HETATM    6  C   UNL     1     -31.452  -9.650 -23.777  1.00  0.00     0.038 A 
ENDROOT
BRANCH   1   7
HETATM    7  C   UNL     1     -32.696 -11.828 -24.190  1.00  0.00     0.261 C 
HETATM    8  O   UNL     1     -33.717 -12.427 -24.135  1.00  0.00    -0.267 OA
HETATM    9  N   UNL     1     -31.443 -12.536 -24.189  1.00  0.00    -0.298 N 
HETATM   10  C   UNL     1     -31.220 -13.852 -24.130  1.00  0.00     0.111 C 
HETATM   11  C   UNL     1     -30.230 -12.010 -24.276  1.00  0.00     0.107 C 
HETATM   12  C   UNL     1     -29.824 -14.334 -24.598  1.00  0.00    -0.012 A 
HETATM   13  C   UNL     1     -29.090 -12.958 -24.714  1.00  0.00    -0.027 A 
HETATM   14  C   UNL     1     -28.997 -15.494 -24.925  1.00  0.00     0.013 A 
HETATM   15  C   UNL     1     -27.525 -13.047 -25.184  1.00  0.00     0.068 A 
HETATM   16  C   UNL     1     -27.093 -14.362 -25.420  1.00  0.00    -0.022 A 
HETATM   17  C   UNL     1     -27.794 -15.436 -25.292  1.00  0.00    -0.003 A 
ENDBRANCH   1   7
BRANCH   5  18
HETATM   18  S   UNL     1     -30.012  -7.284 -23.264  1.00  0.00    -0.088 SA
BRANCH  18  19
HETATM   19  C   UNL     1     -28.472  -8.203 -23.397  1.00  0.00     0.006 A 
HETATM   20  C   UNL     1     -28.157  -9.065 -22.354  1.00  0.00     0.026 A 
HETATM   21  C   UNL     1     -26.963  -9.766 -22.434  1.00  0.00    -0.055 A 
HETATM   22  C   UNL     1     -26.552 -10.731 -21.317  1.00  0.00     0.049 C 
HETATM   23  C   UNL     1     -26.129  -9.596 -23.525  1.00  0.00    -0.056 A 
HETATM   24  C   UNL     1     -26.459  -8.727 -24.565  1.00  0.00     0.009 A 
HETATM   25  C   UNL     1     -24.815 -10.391 -23.577  1.00  0.00     0.049 C 
HETATM   26  C   UNL     1     -27.654  -8.017 -24.498  1.00  0.00     0.019 A 
ENDBRANCH  18  19
ENDBRANCH   5  18
BRANCH   4  27
HETATM   27  O   UNL     1     -32.237  -6.192 -24.610  1.00  0.00    -0.359 OA
ATOM     28  HO  UNL     1     -32.665  -5.677 -25.285  1.00  0.00     0.217 HD
ENDBRANCH   4  27
TORSDOF 4
ENDMDL
MODEL 18
REMARK VINA RESULT:    -9.137      2.774      3.456
REMARK INTER + INTRA:         -11.646
REMARK INTER:                 -11.369
REMARK INTRA:                  -0.277
REMARK UNBOUND:                -0.640
REMARK  4 active torsions:
REMARK  status: ('A' for Active; 'I' for Inactive)
REMARK    1  A    between atoms: C_1  and  C_7 
REMARK    2  A    between atoms: C_4  and  O_20 
REMARK    3  A    between atoms: C_5  and  S_18 
REMARK       I    between atoms: C_7  and  N_8 
REMARK    4  A    between atoms: S_18  and  C_19 
ROOT
HETATM    1  C   UNL     1     -32.612  -9.949 -25.250  1.00  0.00     0.034 A 
HETATM    2  C   UNL     1     -33.969  -9.718 -25.069  1.00  0.00     0.020 A 
HETATM    3  C   UNL     1     -34.760 -10.641 -24.385  1.00  0.00     0.039 A 
HETATM    4  C   UNL     1     -34.134 -11.789 -23.878  1.00  0.00     0.082 A 
HETATM    5  C   UNL     1     -32.794 -11.999 -24.059  1.00  0.00     0.039 A 
HETATM    6  C   UNL     1     -31.991 -11.093 -24.728  1.00  0.00     0.038 A 
ENDROOT
BRANCH   1   7
HETATM    7  C   UNL     1     -31.780  -8.900 -25.997  1.00  0.00     0.261 C 
HETATM    8  O   UNL     1     -31.876  -8.661 -27.153  1.00  0.00    -0.267 OA
HETATM    9  N   UNL     1     -30.847  -8.167 -25.182  1.00  0.00    -0.298 N 
HETATM   10  C   UNL     1     -30.006  -7.191 -25.538  1.00  0.00     0.111 C 
HETATM   11  C   UNL     1     -30.650  -8.300 -23.879  1.00  0.00     0.107 C 
HETATM   12  C   UNL     1     -29.468  -6.298 -24.393  1.00  0.00    -0.012 A 
HETATM   13  C   UNL     1     -29.957  -7.122 -23.156  1.00  0.00    -0.027 A 
HETATM   14  C   UNL     1     -28.721  -5.086 -24.059  1.00  0.00     0.013 A 
HETATM   15  C   UNL     1     -29.553  -6.491 -21.701  1.00  0.00     0.068 A 
HETATM   16  C   UNL     1     -28.833  -5.290 -21.801  1.00  0.00    -0.022 A 
HETATM   17  C   UNL     1     -28.482  -4.691 -22.887  1.00  0.00    -0.003 A 
ENDBRANCH   1   7
BRANCH   5  18
HETATM   18  S   UNL     1     -32.135 -13.544 -23.348  1.00  0.00    -0.088 SA
BRANCH  18  19
HETATM   19  C   UNL     1     -30.511 -13.911 -24.031  1.00  0.00     0.006 A 
HETATM   20  C   UNL     1     -29.534 -12.934 -23.898  1.00  0.00     0.026 A 
HETATM   21  C   UNL     1     -28.282 -13.195 -24.438  1.00  0.00    -0.055 A 
HETATM   22  C   UNL     1     -27.158 -12.158 -24.330  1.00  0.00     0.049 C 
HETATM   23  C   UNL     1     -28.040 -14.395 -25.082  1.00  0.00    -0.056 A 
HETATM   24  C   UNL     1     -29.033 -15.366 -25.208  1.00  0.00     0.009 A 
HETATM   25  C   UNL     1     -26.641 -14.646 -25.666  1.00  0.00     0.049 C 
HETATM   26  C   UNL     1     -30.293 -15.119 -24.671  1.00  0.00     0.019 A 
ENDBRANCH  18  19
ENDBRANCH   5  18
BRANCH   4  27
HETATM   27  O   UNL     1     -34.837 -12.756 -23.180  1.00  0.00    -0.359 OA
ATOM     28  HO  UNL     1     -35.473 -12.529 -22.511  1.00  0.00     0.217 HD
ENDBRANCH   4  27
TORSDOF 4
ENDMDL
MODEL 19
REMARK VINA RESULT:    -8.913      2.309      7.775
REMARK INTER + INTRA:         -11.377
REMARK INTER:                 -10.812
REMARK INTRA:                  -0.565
REMARK UNBOUND:                -0.640
REMARK  4 active torsions:
REMARK  status: ('A' for Active; 'I' for Inactive)
REMARK    1  A    between atoms: C_1  and  C_7 
REMARK    2  A    between atoms: C_4  and  O_20 
REMARK    3  A    between atoms: C_5  and  S_18 
REMARK       I    between atoms: C_7  and  N_8 
REMARK    4  A    between atoms: S_18  and  C_19 
ROOT
HETATM    1  C   UNL     1     -30.864 -11.580 -23.462  1.00  0.00     0.034 A 
HETATM    2  C   UNL     1     -31.141 -12.818 -22.899  1.00  0.00     0.020 A 
HETATM    3  C   UNL     1     -32.428 -13.353 -22.963  1.00  0.00     0.039 A 
HETATM    4  C   UNL     1     -33.413 -12.610 -23.627  1.00  0.00     0.082 A 
HETATM    5  C   UNL     1     -33.122 -11.394 -24.184  1.00  0.00     0.039 A 
HETATM    6  C   UNL     1     -31.852 -10.848 -24.137  1.00  0.00     0.038 A 
ENDROOT
BRANCH   1   7
HETATM    7  C   UNL     1     -29.433 -11.037 -23.378  1.00  0.00     0.261 C 
HETATM    8  O   UNL     1     -29.072 -10.200 -22.621  1.00  0.00    -0.267 OA
HETATM    9  N   UNL     1     -28.497 -11.637 -24.292  1.00  0.00    -0.298 N 
HETATM   10  C   UNL     1     -27.192 -11.390 -24.442  1.00  0.00     0.111 C 
HETATM   11  C   UNL     1     -28.744 -12.599 -25.169  1.00  0.00     0.107 C 
HETATM   12  C   UNL     1     -26.366 -12.483 -25.165  1.00  0.00    -0.012 A 
HETATM   13  C   UNL     1     -27.524 -13.388 -25.699  1.00  0.00    -0.027 A 
HETATM   14  C   UNL     1     -25.023 -12.939 -25.522  1.00  0.00     0.013 A 
HETATM   15  C   UNL     1     -27.042 -14.691 -26.564  1.00  0.00     0.068 A 
HETATM   16  C   UNL     1     -25.646 -14.791 -26.678  1.00  0.00    -0.022 A 
HETATM   17  C   UNL     1     -24.774 -13.978 -26.189  1.00  0.00    -0.003 A 
ENDBRANCH   1   7
BRANCH   5  18
HETATM   18  S   UNL     1     -34.515 -10.548 -25.004  1.00  0.00    -0.088 SA
BRANCH  18  19
HETATM   19  C   UNL     1     -33.925  -9.146 -25.965  1.00  0.00     0.006 A 
HETATM   20  C   UNL     1     -33.675  -7.967 -25.275  1.00  0.00     0.026 A 
HETATM   21  C   UNL     1     -33.238  -6.872 -26.007  1.00  0.00    -0.055 A 
HETATM   22  C   UNL     1     -32.947  -5.538 -25.310  1.00  0.00     0.049 C 
HETATM   23  C   UNL     1     -33.064  -6.975 -27.375  1.00  0.00    -0.056 A 
HETATM   24  C   UNL     1     -33.319  -8.167 -28.054  1.00  0.00     0.009 A 
HETATM   25  C   UNL     1     -32.577  -5.740 -28.150  1.00  0.00     0.049 C 
HETATM   26  C   UNL     1     -33.758  -9.274 -27.333  1.00  0.00     0.019 A 
ENDBRANCH  18  19
ENDBRANCH   5  18
BRANCH   4  27
HETATM   27  O   UNL     1     -34.716 -13.065 -23.747  1.00  0.00    -0.359 OA
ATOM     28  HO  UNL     1     -35.442 -12.471 -23.897  1.00  0.00     0.217 HD
ENDBRANCH   4  27
TORSDOF 4
ENDMDL
MODEL 20
REMARK VINA RESULT:    -8.850      1.950      2.961
REMARK INTER + INTRA:         -11.300
REMARK INTER:                 -10.815
REMARK INTRA:                  -0.485
REMARK UNBOUND:                -0.640
REMARK  4 active torsions:
REMARK  status: ('A' for Active; 'I' for Inactive)
REMARK    1  A    between atoms: C_1  and  C_7 
REMARK    2  A    between atoms: C_4  and  O_20 
REMARK    3  A    between atoms: C_5  and  S_18 
REMARK       I    between atoms: C_7  and  N_8 
REMARK    4  A    between atoms: S_18  and  C_19 
ROOT
HETATM    1  C   UNL     1     -32.284  -9.039 -26.616  1.00  0.00     0.034 A 
HETATM    2  C   UNL     1     -33.608  -9.167 -27.012  1.00  0.00     0.020 A 
HETATM    3  C   UNL     1     -34.461 -10.055 -26.356  1.00  0.00     0.039 A 
HETATM    4  C   UNL     1     -33.939 -10.790 -25.283  1.00  0.00     0.082 A 
HETATM    5  C   UNL     1     -32.632 -10.648 -24.901  1.00  0.00     0.039 A 
HETATM    6  C   UNL     1     -31.772  -9.768 -25.533  1.00  0.00     0.038 A 
ENDROOT
BRANCH   1   7
HETATM    7  C   UNL     1     -31.387  -8.042 -27.359  1.00  0.00     0.261 C 
HETATM    8  O   UNL     1     -30.588  -8.335 -28.183  1.00  0.00    -0.267 OA
HETATM    9  N   UNL     1     -31.587  -6.661 -27.006  1.00  0.00    -0.298 N 
HETATM   10  C   UNL     1     -30.977  -5.573 -27.486  1.00  0.00     0.111 C 
HETATM   11  C   UNL     1     -32.458  -6.179 -26.132  1.00  0.00     0.107 C 
HETATM   12  C   UNL     1     -31.701  -4.223 -27.259  1.00  0.00    -0.012 A 
HETATM   13  C   UNL     1     -32.810  -4.678 -26.255  1.00  0.00    -0.027 A 
HETATM   14  C   UNL     1     -31.724  -2.798 -27.586  1.00  0.00     0.013 A 
HETATM   15  C   UNL     1     -33.810  -3.488 -25.742  1.00  0.00     0.068 A 
HETATM   16  C   UNL     1     -33.511  -2.236 -26.303  1.00  0.00    -0.022 A 
HETATM   17  C   UNL     1     -32.561  -1.973 -27.134  1.00  0.00    -0.003 A 
ENDBRANCH   1   7
BRANCH   5  18
HETATM   18  S   UNL     1     -32.104 -11.683 -23.494  1.00  0.00    -0.088 SA
BRANCH  18  19
HETATM   19  C   UNL     1     -30.816 -12.830 -24.003  1.00  0.00     0.006 A 
HETATM   20  C   UNL     1     -29.541 -12.309 -24.184  1.00  0.00     0.026 A 
HETATM   21  C   UNL     1     -28.541 -13.178 -24.596  1.00  0.00    -0.055 A 
HETATM   22  C   UNL     1     -27.112 -12.669 -24.818  1.00  0.00     0.049 C 
HETATM   23  C   UNL     1     -28.827 -14.514 -24.813  1.00  0.00    -0.056 A 
HETATM   24  C   UNL     1     -30.113 -15.022 -24.627  1.00  0.00     0.009 A 
HETATM   25  C   UNL     1     -27.692 -15.445 -25.268  1.00  0.00     0.049 C 
HETATM   26  C   UNL     1     -31.126 -14.162 -24.214  1.00  0.00     0.019 A 
ENDBRANCH  18  19
ENDBRANCH   5  18
BRANCH   4  27
HETATM   27  O   UNL     1     -34.712 -11.690 -24.568  1.00  0.00    -0.359 OA
ATOM     28  HO  UNL     1     -35.146 -12.423 -24.988  1.00  0.00     0.217 HD
ENDBRANCH   4  27
TORSDOF 4
ENDMDL
