REMARK  2 active torsions:
REMARK  status: ('A' for Active; 'I' for Inactive)
REMARK    1  A    between atoms: C_1  and  O_3 
REMARK    2  A    between atoms: C_1  and  C_4 
ROOT
HETATM    1  C   UNL     1       0.309   0.384   0.481  1.00  0.00     0.037 A 
HETATM    2  C   UNL     1       1.522   0.977   0.083  1.00  0.00     0.018 A 
HETATM    3  C   UNL     1       2.189   0.524  -1.060  1.00  0.00     0.001 A 
HETATM    4  C   UNL     1       1.654  -0.521  -1.816  1.00  0.00     0.000 A 
HETATM    5  C   UNL     1       0.451  -1.117  -1.430  1.00  0.00     0.001 A 
HETATM    6  C   UNL     1      -0.220  -0.669  -0.288  1.00  0.00     0.018 A 
ENDROOT
BRANCH   1   7
HETATM    7  C   UNL     1      -0.401   0.857   1.690  1.00  0.00     0.176 C 
HETATM    8  O   UNL     1       0.071   1.800   2.381  1.00  0.00    -0.646 OA
BRANCH   7   9
HETATM    9  O   UNL     1      -1.601   0.264   2.076  1.00  0.00    -0.773 OA
HETATM   10  H   UNL     1      -2.095   0.580   2.901  1.00  0.00     0.167 HD
ENDBRANCH   7   9
ENDBRANCH   1   7
TORSDOF 2
