REMARK  6 active torsions:
REMARK  status: ('A' for Active; 'I' for Inactive)
REMARK    1  A    between atoms: N_1  and  C_32 
REMARK    2  A    between atoms: N_1  and  C_33 
REMARK    3  A    between atoms: C_6  and  C_9 
REMARK    4  A    between atoms: C_7  and  C_8 
REMARK       I    between atoms: C_8  and  N_28 
REMARK    5  A    between atoms: C_12  and  C_17 
REMARK       I    between atoms: C_17  and  N_21 
REMARK    6  A    between atoms: N_21  and  C_23 
ROOT
HETATM    1  N   UNL     1     -30.282   4.277 -22.050  1.00  0.00    -0.347 N 
ATOM      2  HN  UNL     1     -29.598   3.638 -21.644  1.00  0.00     0.166 HD
HETATM    3  C   UNL     1     -31.990   5.906 -21.834  1.00  0.00     0.119 A 
HETATM    4  C   UNL     1     -31.092   5.004 -21.269  1.00  0.00     0.054 A 
HETATM    5  C   UNL     1     -30.393   4.410 -23.376  1.00  0.00     0.145 A 
HETATM    6  N   UNL     1     -32.120   6.048 -23.162  1.00  0.00    -0.348 N 
ATOM      7  HN  UNL     1     -32.789   6.707 -23.560  1.00  0.00     0.167 HD
HETATM    8  C   UNL     1     -31.336   5.289 -23.950  1.00  0.00     0.138 A 
ENDROOT
BRANCH   4   9
HETATM    9  C   UNL     1     -31.040   4.770 -19.820  1.00  0.00    -0.032 C 
HETATM   10  C   UNL     1     -31.615   5.639 -18.940  1.00  0.00    -0.017 C 
HETATM   11  C   UNL     1     -31.512   5.509 -17.447  1.00  0.00     0.030 C 
HETATM   12  C   UNL     1     -31.063   4.110 -17.035  1.00  0.00     0.029 C 
HETATM   13  C   UNL     1     -29.888   3.642 -17.881  1.00  0.00     0.089 C 
HETATM   14  C   UNL     1     -30.311   3.532 -19.346  1.00  0.00     0.065 C 
BRANCH  13  15
HETATM   15  N   UNL     1     -29.412   2.343 -17.416  1.00  0.00    -0.352 N 
HETATM   16  C   UNL     1     -28.476   2.223 -16.466  1.00  0.00     0.252 C 
HETATM   17  O   UNL     1     -27.998   3.198 -15.891  1.00  0.00    -0.268 OA
ATOM     18  HN  UNL     1     -29.806   1.498 -17.829  1.00  0.00     0.163 HD
BRANCH  16  19
HETATM   19  C   UNL     1     -28.053   0.835 -16.118  1.00  0.00     0.032 A 
HETATM   20  C   UNL     1     -27.987  -0.167 -17.085  1.00  0.00     0.017 A 
HETATM   21  C   UNL     1     -27.663  -1.464 -16.725  1.00  0.00     0.001 A 
HETATM   22  C   UNL     1     -27.407  -1.778 -15.408  1.00  0.00     0.000 A 
HETATM   23  C   UNL     1     -27.452  -0.789 -14.446  1.00  0.00     0.001 A 
HETATM   24  C   UNL     1     -27.764   0.513 -14.796  1.00  0.00     0.017 A 
ENDBRANCH  16  19
ENDBRANCH  13  15
ENDBRANCH   4   9
BRANCH   5  25
HETATM   25  C   UNL     1     -29.449   3.554 -24.192  1.00  0.00     0.269 C 
HETATM   26  N   UNL     1     -28.682   2.703 -23.502  1.00  0.00    -0.365 N 
ATOM     27  HN2 UNL     1     -28.702   2.644 -22.484  1.00  0.00     0.159 HD
ATOM     28  HN1 UNL     1     -28.046   2.126 -24.052  1.00  0.00     0.159 HD
HETATM   29  O   UNL     1     -29.424   3.626 -25.442  1.00  0.00    -0.266 OA
ENDBRANCH   5  25
BRANCH   8  30
HETATM   30  N   UNL     1     -31.533   5.369 -25.334  1.00  0.00    -0.338 N 
ATOM     31  HN  UNL     1     -30.960   4.749 -25.906  1.00  0.00     0.167 HD
BRANCH  30  32
HETATM   32  C   UNL     1     -32.424   6.200 -26.028  1.00  0.00     0.068 A 
HETATM   33  C   UNL     1     -33.358   7.099 -25.608  1.00  0.00     0.140 A 
HETATM   34  N   UNL     1     -33.836   7.692 -26.707  1.00  0.00    -0.306 N 
HETATM   35  N   UNL     1     -33.249   7.207 -27.852  1.00  0.00    -0.308 N 
HETATM   36  C   UNL     1     -34.866   8.719 -26.787  1.00  0.00     0.177 C 
HETATM   37  C   UNL     1     -32.395   6.290 -27.424  1.00  0.00     0.138 A 
ATOM     38  HN  UNL     1     -33.431   7.490 -28.815  1.00  0.00     0.186 HD
ENDBRANCH  30  32
ENDBRANCH   8  30
TORSDOF 6
