REMARK  6 active torsions:
REMARK  status: ('A' for Active; 'I' for Inactive)
REMARK       I    between atoms: C_5  and  N_6 
REMARK    1  A    between atoms: C_5  and  C_8 
REMARK    2  A    between atoms: C_8  and  N_9 
REMARK    3  A    between atoms: C_17  and  C_18 
REMARK    4  A    between atoms: C_18  and  C_19 
REMARK    5  A    between atoms: C_19  and  C_20 
REMARK    6  A    between atoms: C_20  and  O_21 
ROOT
HETATM    1  C   UNL     1      -0.646   2.414  -3.363  1.00  0.00     0.001 A 
HETATM    2  C   UNL     1      -0.122   2.414  -2.066  1.00  0.00     0.019 A 
HETATM    3  C   UNL     1       0.111   1.286   0.114  1.00  0.00     0.261 A 
HETATM    4  N   UNL     1      -0.175   0.214   0.930  1.00  0.00    -0.294 N 
HETATM    5  O   UNL     1       0.830   2.234   0.540  1.00  0.00    -0.267 OA
HETATM    6  C   UNL     1      -0.389   1.338  -1.197  1.00  0.00     0.059 A 
HETATM    7  C   UNL     1      -1.435   1.347  -3.802  1.00  0.00     0.002 A 
HETATM    8  C   UNL     1      -1.704   0.276  -2.946  1.00  0.00     0.030 A 
HETATM    9  C   UNL     1      -1.182   0.271  -1.647  1.00  0.00     0.049 A 
HETATM   10  N   UNL     1      -1.442  -0.765  -0.818  1.00  0.00    -0.345 N 
ATOM     11  HN  UNL     1      -2.020  -1.534  -1.158  1.00  0.00     0.167 HD
HETATM   12  C   UNL     1      -0.960  -0.819   0.453  1.00  0.00     0.087 A 
ENDROOT
BRANCH   4  13
HETATM   13  C   UNL     1       0.399   0.196   2.295  1.00  0.00     0.236 C 
BRANCH  13  14
HETATM   14  C   UNL     1       1.874  -0.093   2.258  1.00  0.00     0.235 C 
HETATM   15  O   UNL     1       2.652   0.591   2.978  1.00  0.00    -0.272 OA
HETATM   16  N   UNL     1       2.395  -1.155   1.447  1.00  0.00    -0.364 N 
HETATM   17  C   UNL     1       3.820  -1.458   1.405  1.00  0.00     0.149 C 
HETATM   18  H   UNL     1       1.748  -1.724   0.858  1.00  0.00     0.161 HD
ENDBRANCH  13  14
ENDBRANCH   4  13
BRANCH  12  19
HETATM   19  C   UNL     1      -1.322  -2.018   1.314  1.00  0.00     0.087 C 
BRANCH  19  20
HETATM   20  C   UNL     1      -2.097  -3.127   0.581  1.00  0.00     0.117 C 
BRANCH  20  21
HETATM   21  C   UNL     1      -3.506  -2.718   0.270  1.00  0.00     0.139 C 
HETATM   22  O   UNL     1      -4.339  -2.565   1.203  1.00  0.00    -0.650 OA
BRANCH  21  23
HETATM   23  O   UNL     1      -3.893  -2.503  -1.049  1.00  0.00    -0.776 OA
HETATM   24  H   UNL     1      -4.839  -2.220  -1.274  1.00  0.00     0.167 HD
ENDBRANCH  21  23
ENDBRANCH  20  21
ENDBRANCH  19  20
ENDBRANCH  12  19
TORSDOF 6
