REMARK  4 active torsions:
REMARK  status: ('A' for Active; 'I' for Inactive)
REMARK    1  A    between atoms: O_3  and  C_25 
REMARK    2  A    between atoms: O_5  and  C_6 
REMARK    3  A    between atoms: C_8  and  O_9 
REMARK    4  A    between atoms: C_22  and  O_23 
ROOT
HETATM    1  C   UNL     1      -8.791 -11.955  14.595  1.00  0.00    -0.002 A 
HETATM    2  C   UNL     1      -7.860  -9.828  15.322  1.00  0.00     0.011 A 
HETATM    3  C   UNL     1      -5.115 -11.122   9.193  1.00  0.00     0.102 C 
HETATM    4  C   UNL     1      -5.444 -11.382  10.499  1.00  0.00     0.053 C 
HETATM    5  C   UNL     1      -6.035 -10.884   8.171  1.00  0.00     0.102 C 
HETATM    6  C   UNL     1      -7.450 -11.032   8.455  1.00  0.00     0.047 C 
HETATM    7  C   UNL     1      -7.755 -11.358   9.743  1.00  0.00    -0.042 C 
HETATM    8  C   UNL     1      -9.248 -11.554  10.038  1.00  0.00     0.054 C 
HETATM    9  C   UNL     1      -9.568 -11.718  11.544  1.00  0.00     0.100 C 
HETATM   10  N   UNL     1      -8.553 -12.669  12.200  1.00  0.00    -0.281 NA
HETATM   11  C   UNL     1      -8.775 -13.087  13.588  1.00  0.00     0.137 C 
HETATM   12  C   UNL     1      -7.330 -11.852  12.165  1.00  0.00     0.003 C 
HETATM   13  C   UNL     1      -6.850 -11.588  10.807  1.00  0.00    -0.009 C 
HETATM   14  C   UNL     1      -7.091 -10.709  13.105  1.00  0.00     0.091 C 
HETATM   15  C   UNL     1      -7.902 -10.859  14.363  1.00  0.00    -0.043 A 
HETATM   16  C   UNL     1      -8.605  -9.880  16.483  1.00  0.00     0.040 A 
HETATM   17  C   UNL     1      -9.434 -11.002  16.710  1.00  0.00     0.102 A 
HETATM   18  C   UNL     1      -9.457 -12.067  15.744  1.00  0.00     0.109 A 
ENDROOT
BRANCH   3  19
HETATM   19  O   UNL     1      -3.792 -10.826   8.876  1.00  0.00    -0.353 OA
HETATM   20  C   UNL     1      -2.817 -11.430   9.687  1.00  0.00     0.210 C 
ENDBRANCH   3  19
BRANCH   5  21
HETATM   21  O   UNL     1      -5.590 -10.583   6.901  1.00  0.00    -0.353 OA
HETATM   22  C   UNL     1      -6.419 -10.928   5.774  1.00  0.00     0.210 C 
ENDBRANCH   5  21
BRANCH  18  23
HETATM   23  O   UNL     1     -10.245 -13.190  15.956  1.00  0.00    -0.352 OA
HETATM   24  C   UNL     1     -11.658 -13.052  15.952  1.00  0.00     0.210 C 
ENDBRANCH  18  23
BRANCH  17  25
HETATM   25  O   UNL     1     -10.251 -11.129  17.847  1.00  0.00    -0.353 OA
HETATM   26  C   UNL     1      -9.985 -10.317  19.045  1.00  0.00     0.210 C 
ENDBRANCH  17  25
TORSDOF 4
