REMARK  4 active torsions:
REMARK  status: ('A' for Active; 'I' for Inactive)
REMARK    1  A    between atoms: O_1  and  C_2 
REMARK    2  A    between atoms: C_3  and  O_4 
REMARK    3  A    between atoms: C_8  and  C_9 
REMARK    4  A    between atoms: C_9  and  O_10 
ROOT
HETATM    1  C   UNL     1       0.417  -0.441  -0.735  1.00  0.00     0.156 C 
HETATM    2  C   UNL     1      -0.913  -1.185  -0.983  1.00  0.00     0.175 C 
HETATM    3  C   UNL     1      -2.115  -0.271  -0.681  1.00  0.00     0.303 C 
HETATM    4  N   UNL     1      -2.058   0.245   0.692  1.00  0.00     0.086 N 
HETATM    5  C   UNL     1      -0.831   1.022   0.914  1.00  0.00     0.278 C 
HETATM    6  C   UNL     1       0.434   0.162   0.687  1.00  0.00     0.069 C 
HETATM    7  H   UNL     1      -2.079  -0.559   1.362  1.00  0.00     0.315 HD
ENDROOT
BRANCH   6   8
HETATM    8  C   UNL     1       1.706   0.999   0.913  1.00  0.00     0.173 C 
BRANCH   8   9
HETATM    9  O   UNL     1       1.762   1.443   2.241  1.00  0.00    -0.400 OA
HETATM   10  H   UNL     1       2.589   1.987   2.316  1.00  0.00     0.209 HD
ENDBRANCH   8   9
ENDBRANCH   6   8
BRANCH   1  11
HETATM   11  O   UNL     1       1.489  -1.338  -0.876  1.00  0.00    -0.392 OA
HETATM   12  H   UNL     1       1.664  -1.428  -1.849  1.00  0.00     0.210 HD
ENDBRANCH   1  11
BRANCH   2  13
HETATM   13  O   UNL     1      -0.982  -1.670  -2.301  1.00  0.00    -0.391 OA
HETATM   14  H   UNL     1      -0.936  -0.889  -2.912  1.00  0.00     0.210 HD
ENDBRANCH   2  13
TORSDOF 4
