MODEL 1
REMARK VINA RESULT:    -7.169      0.000      0.000
REMARK INTER + INTRA:          -9.469
REMARK INTER:                  -9.055
REMARK INTRA:                  -0.414
REMARK UNBOUND:                -0.414
REMARK  6 active torsions:
REMARK  status: ('A' for Active; 'I' for Inactive)
REMARK    1  A    between atoms: S_2  and  C_3 
REMARK    2  A    between atoms: C_3  and  C_4 
REMARK    3  A    between atoms: C_6  and  O_7 
REMARK    4  A    between atoms: C_9  and  O_10 
REMARK    5  A    between atoms: C_12  and  N_13 
REMARK    6  A    between atoms: C_18  and  N_19 
ROOT
HETATM    1  N   UNL     1      81.939 -12.779   3.830  1.00  0.00    -0.297 N 
HETATM    2  C   UNL     1      81.513 -13.022   5.099  1.00  0.00     0.188 A 
HETATM    3  N   UNL     1      80.462 -12.323   5.427  1.00  0.00    -0.346 N 
ATOM      4  HN  UNL     1      79.962 -12.332   6.316  1.00  0.00     0.167 HD
HETATM    5  C   UNL     1      80.176 -11.570   4.313  1.00  0.00     0.122 A 
HETATM    6  C   UNL     1      79.175 -10.612   4.028  1.00  0.00     0.131 A 
HETATM    7  N   UNL     1      79.180 -10.036   2.824  1.00  0.00    -0.337 N 
ATOM      8  HN  UNL     1      78.474  -9.349   2.563  1.00  0.00     0.168 HD
HETATM    9  C   UNL     1      80.143 -10.392   1.976  1.00  0.00     0.183 A 
HETATM   10  N   UNL     1      81.118 -11.274   2.120  1.00  0.00    -0.336 N 
ATOM     11  HN  UNL     1      81.802 -11.497   1.396  1.00  0.00     0.168 HD
HETATM   12  C   UNL     1      81.094 -11.833   3.317  1.00  0.00     0.142 A 
ENDROOT
BRANCH   1  13
HETATM   13  C   UNL     1      83.080 -13.368   3.173  1.00  0.00     0.262 C 
HETATM   14  C   UNL     1      84.369 -13.075   3.946  1.00  0.00     0.198 C 
HETATM   15  C   UNL     1      85.276 -14.245   3.508  1.00  0.00     0.180 C 
HETATM   16  C   UNL     1      84.314 -15.328   2.993  1.00  0.00     0.165 C 
HETATM   17  O   UNL     1      83.014 -14.765   3.211  1.00  0.00    -0.355 OA
BRANCH  14  18
HETATM   18  O   UNL     1      84.903 -11.798   3.726  1.00  0.00    -0.388 OA
ATOM     19  HO  UNL     1      85.422 -11.458   4.445  1.00  0.00     0.210 HD
ENDBRANCH  14  18
BRANCH  15  20
HETATM   20  O   UNL     1      86.153 -13.814   2.496  1.00  0.00    -0.390 OA
ATOM     21  HO  UNL     1      86.680 -14.545   2.195  1.00  0.00     0.210 HD
ENDBRANCH  15  20
BRANCH  16  22
HETATM   22  C   UNL     1      84.560 -16.641   3.759  1.00  0.00     0.108 C 
BRANCH  22  23
HETATM   23  S   UNL     1      85.574 -17.872   2.880  1.00  0.00    -0.171 SA
HETATM   24  C   UNL     1      85.259 -19.403   3.838  1.00  0.00     0.089 C 
ENDBRANCH  22  23
ENDBRANCH  16  22
ENDBRANCH   1  13
BRANCH   6  25
HETATM   25  N   UNL     1      78.231 -10.259   4.901  1.00  0.00    -0.383 N 
ATOM     26  HN2 UNL     1      77.919 -10.863   5.661  1.00  0.00     0.157 HD
ATOM     27  HN1 UNL     1      77.798  -9.341   4.808  1.00  0.00     0.157 HD
ENDBRANCH   6  25
TORSDOF 6
ENDMDL
MODEL 2
REMARK VINA RESULT:    -6.868      1.255      1.341
REMARK INTER + INTRA:          -9.089
REMARK INTER:                  -8.677
REMARK INTRA:                  -0.412
REMARK UNBOUND:                -0.414
REMARK  6 active torsions:
REMARK  status: ('A' for Active; 'I' for Inactive)
REMARK    1  A    between atoms: S_2  and  C_3 
REMARK    2  A    between atoms: C_3  and  C_4 
REMARK    3  A    between atoms: C_6  and  O_7 
REMARK    4  A    between atoms: C_9  and  O_10 
REMARK    5  A    between atoms: C_12  and  N_13 
REMARK    6  A    between atoms: C_18  and  N_19 
ROOT
HETATM    1  N   UNL     1      82.952 -12.938   3.490  1.00  0.00    -0.297 N 
HETATM    2  C   UNL     1      82.730 -12.586   4.785  1.00  0.00     0.188 A 
HETATM    3  N   UNL     1      81.765 -11.720   4.921  1.00  0.00    -0.346 N 
ATOM      4  HN  UNL     1      81.414 -11.310   5.787  1.00  0.00     0.167 HD
HETATM    5  C   UNL     1      81.321 -11.482   3.641  1.00  0.00     0.122 A 
HETATM    6  C   UNL     1      80.311 -10.644   3.112  1.00  0.00     0.131 A 
HETATM    7  N   UNL     1      80.136 -10.630   1.788  1.00  0.00    -0.337 N 
ATOM      8  HN  UNL     1      79.414 -10.054   1.357  1.00  0.00     0.168 HD
HETATM    9  C   UNL     1      80.940 -11.395   1.054  1.00  0.00     0.183 A 
HETATM   10  N   UNL     1      81.903 -12.221   1.429  1.00  0.00    -0.336 N 
ATOM     11  HN  UNL     1      82.455 -12.788   0.785  1.00  0.00     0.168 HD
HETATM   12  C   UNL     1      82.059 -12.221   2.740  1.00  0.00     0.142 A 
ENDROOT
BRANCH   1  13
HETATM   13  C   UNL     1      83.957 -13.849   3.001  1.00  0.00     0.262 C 
HETATM   14  C   UNL     1      85.292 -13.629   3.718  1.00  0.00     0.198 C 
HETATM   15  C   UNL     1      85.966 -15.010   3.565  1.00  0.00     0.180 C 
HETATM   16  C   UNL     1      84.817 -15.989   3.278  1.00  0.00     0.165 C 
HETATM   17  O   UNL     1      83.643 -15.170   3.342  1.00  0.00    -0.355 OA
BRANCH  14  18
HETATM   18  O   UNL     1      86.041 -12.548   3.235  1.00  0.00    -0.388 OA
ATOM     19  HO  UNL     1      86.750 -12.274   3.805  1.00  0.00     0.210 HD
ENDBRANCH  14  18
BRANCH  15  20
HETATM   20  O   UNL     1      86.887 -14.974   2.502  1.00  0.00    -0.390 OA
ATOM     21  HO  UNL     1      86.550 -14.424   1.804  1.00  0.00     0.210 HD
ENDBRANCH  15  20
BRANCH  16  22
HETATM   22  C   UNL     1      84.839 -17.126   4.317  1.00  0.00     0.108 C 
BRANCH  22  23
HETATM   23  S   UNL     1      85.297 -18.763   3.664  1.00  0.00    -0.171 SA
HETATM   24  C   UNL     1      86.281 -18.336   2.177  1.00  0.00     0.089 C 
ENDBRANCH  22  23
ENDBRANCH  16  22
ENDBRANCH   1  13
BRANCH   6  25
HETATM   25  N   UNL     1      79.530  -9.873   3.869  1.00  0.00    -0.383 N 
ATOM     26  HN2 UNL     1      78.692  -9.411   3.518  1.00  0.00     0.157 HD
ATOM     27  HN1 UNL     1      79.780  -9.735   4.848  1.00  0.00     0.157 HD
ENDBRANCH   6  25
TORSDOF 6
ENDMDL
MODEL 3
REMARK VINA RESULT:    -6.708      4.369      6.024
REMARK INTER + INTRA:          -8.887
REMARK INTER:                  -8.118
REMARK INTRA:                  -0.769
REMARK UNBOUND:                -0.414
REMARK  6 active torsions:
REMARK  status: ('A' for Active; 'I' for Inactive)
REMARK    1  A    between atoms: S_2  and  C_3 
REMARK    2  A    between atoms: C_3  and  C_4 
REMARK    3  A    between atoms: C_6  and  O_7 
REMARK    4  A    between atoms: C_9  and  O_10 
REMARK    5  A    between atoms: C_12  and  N_13 
REMARK    6  A    between atoms: C_18  and  N_19 
ROOT
HETATM    1  N   UNL     1      85.097 -16.491   2.953  1.00  0.00    -0.297 N 
HETATM    2  C   UNL     1      83.948 -16.021   2.398  1.00  0.00     0.188 A 
HETATM    3  N   UNL     1      83.778 -14.742   2.585  1.00  0.00    -0.346 N 
ATOM      4  HN  UNL     1      83.000 -14.164   2.265  1.00  0.00     0.167 HD
HETATM    5  C   UNL     1      84.876 -14.340   3.308  1.00  0.00     0.122 A 
HETATM    6  C   UNL     1      85.281 -13.090   3.832  1.00  0.00     0.131 A 
HETATM    7  N   UNL     1      86.425 -13.037   4.519  1.00  0.00    -0.337 N 
ATOM      8  HN  UNL     1      86.769 -12.159   4.906  1.00  0.00     0.168 HD
HETATM    9  C   UNL     1      87.099 -14.173   4.680  1.00  0.00     0.183 A 
HETATM   10  N   UNL     1      86.832 -15.390   4.234  1.00  0.00    -0.336 N 
ATOM     11  HN  UNL     1      87.428 -16.202   4.392  1.00  0.00     0.168 HD
HETATM   12  C   UNL     1      85.698 -15.420   3.557  1.00  0.00     0.142 A 
ENDROOT
BRANCH   1  13
HETATM   13  C   UNL     1      85.566 -17.855   2.946  1.00  0.00     0.262 C 
HETATM   14  C   UNL     1      86.574 -18.082   1.815  1.00  0.00     0.198 C 
HETATM   15  C   UNL     1      87.388 -19.279   2.351  1.00  0.00     0.180 C 
HETATM   16  C   UNL     1      87.152 -19.280   3.869  1.00  0.00     0.165 C 
HETATM   17  O   UNL     1      86.326 -18.130   4.089  1.00  0.00    -0.355 OA
BRANCH  14  18
HETATM   18  O   UNL     1      85.998 -18.276   0.552  1.00  0.00    -0.388 OA
ATOM     19  HO  UNL     1      85.080 -18.038   0.496  1.00  0.00     0.210 HD
ENDBRANCH  14  18
BRANCH  15  20
HETATM   20  O   UNL     1      86.928 -20.470   1.760  1.00  0.00    -0.390 OA
ATOM     21  HO  UNL     1      87.526 -21.180   1.960  1.00  0.00     0.210 HD
ENDBRANCH  15  20
BRANCH  16  22
HETATM   22  C   UNL     1      88.506 -19.221   4.601  1.00  0.00     0.108 C 
BRANCH  22  23
HETATM   23  S   UNL     1      89.638 -17.914   4.030  1.00  0.00    -0.171 SA
HETATM   24  C   UNL     1      91.000 -18.875   3.267  1.00  0.00     0.089 C 
ENDBRANCH  22  23
ENDBRANCH  16  22
ENDBRANCH   1  13
BRANCH   6  25
HETATM   25  N   UNL     1      84.579 -11.968   3.671  1.00  0.00    -0.383 N 
ATOM     26  HN2 UNL     1      83.697 -11.929   3.161  1.00  0.00     0.157 HD
ATOM     27  HN1 UNL     1      84.937 -11.105   4.078  1.00  0.00     0.157 HD
ENDBRANCH   6  25
TORSDOF 6
ENDMDL
MODEL 4
REMARK VINA RESULT:    -6.642      4.841      8.026
REMARK INTER + INTRA:          -8.804
REMARK INTER:                  -8.328
REMARK INTRA:                  -0.476
REMARK UNBOUND:                -0.414
REMARK  6 active torsions:
REMARK  status: ('A' for Active; 'I' for Inactive)
REMARK    1  A    between atoms: S_2  and  C_3 
REMARK    2  A    between atoms: C_3  and  C_4 
REMARK    3  A    between atoms: C_6  and  O_7 
REMARK    4  A    between atoms: C_9  and  O_10 
REMARK    5  A    between atoms: C_12  and  N_13 
REMARK    6  A    between atoms: C_18  and  N_19 
ROOT
HETATM    1  N   UNL     1      86.293 -17.036   3.378  1.00  0.00    -0.297 N 
HETATM    2  C   UNL     1      85.837 -17.349   2.136  1.00  0.00     0.188 A 
HETATM    3  N   UNL     1      85.901 -18.625   1.876  1.00  0.00    -0.346 N 
ATOM      4  HN  UNL     1      85.618 -19.100   1.019  1.00  0.00     0.167 HD
HETATM    5  C   UNL     1      86.432 -19.191   3.011  1.00  0.00     0.122 A 
HETATM    6  C   UNL     1      86.758 -20.523   3.362  1.00  0.00     0.131 A 
HETATM    7  N   UNL     1      87.286 -20.743   4.568  1.00  0.00    -0.337 N 
ATOM      8  HN  UNL     1      87.527 -21.685   4.876  1.00  0.00     0.168 HD
HETATM    9  C   UNL     1      87.487 -19.688   5.354  1.00  0.00     0.183 A 
HETATM   10  N   UNL     1      87.216 -18.410   5.146  1.00  0.00    -0.336 N 
ATOM     11  HN  UNL     1      87.387 -17.669   5.825  1.00  0.00     0.168 HD
HETATM   12  C   UNL     1      86.694 -18.213   3.948  1.00  0.00     0.142 A 
ENDROOT
BRANCH   1  13
HETATM   13  C   UNL     1      86.379 -15.719   3.962  1.00  0.00     0.262 C 
HETATM   14  C   UNL     1      86.713 -14.670   2.898  1.00  0.00     0.198 C 
HETATM   15  C   UNL     1      86.137 -13.383   3.529  1.00  0.00     0.180 C 
HETATM   16  C   UNL     1      85.112 -13.868   4.566  1.00  0.00     0.165 C 
HETATM   17  O   UNL     1      85.128 -15.294   4.425  1.00  0.00    -0.355 OA
BRANCH  14  18
HETATM   18  O   UNL     1      88.069 -14.602   2.552  1.00  0.00    -0.388 OA
ATOM     19  HO  UNL     1      88.571 -13.962   3.044  1.00  0.00     0.210 HD
ENDBRANCH  14  18
BRANCH  15  20
HETATM   20  O   UNL     1      87.171 -12.647   4.135  1.00  0.00    -0.390 OA
ATOM     21  HO  UNL     1      86.902 -12.371   5.003  1.00  0.00     0.210 HD
ENDBRANCH  15  20
BRANCH  16  22
HETATM   22  C   UNL     1      83.741 -13.231   4.272  1.00  0.00     0.108 C 
BRANCH  22  23
HETATM   23  S   UNL     1      82.850 -13.934   2.848  1.00  0.00    -0.171 SA
HETATM   24  C   UNL     1      82.093 -12.450   2.081  1.00  0.00     0.089 C 
ENDBRANCH  22  23
ENDBRANCH  16  22
ENDBRANCH   1  13
BRANCH   6  25
HETATM   25  N   UNL     1      86.563 -21.561   2.549  1.00  0.00    -0.383 N 
ATOM     26  HN2 UNL     1      86.821 -21.556   1.563  1.00  0.00     0.157 HD
ATOM     27  HN1 UNL     1      86.135 -22.405   2.929  1.00  0.00     0.157 HD
ENDBRANCH   6  25
TORSDOF 6
ENDMDL
MODEL 5
REMARK VINA RESULT:    -6.569      3.802      6.804
REMARK INTER + INTRA:          -8.711
REMARK INTER:                  -8.261
REMARK INTRA:                  -0.450
REMARK UNBOUND:                -0.414
REMARK  6 active torsions:
REMARK  status: ('A' for Active; 'I' for Inactive)
REMARK    1  A    between atoms: S_2  and  C_3 
REMARK    2  A    between atoms: C_3  and  C_4 
REMARK    3  A    between atoms: C_6  and  O_7 
REMARK    4  A    between atoms: C_9  and  O_10 
REMARK    5  A    between atoms: C_12  and  N_13 
REMARK    6  A    between atoms: C_18  and  N_19 
ROOT
HETATM    1  N   UNL     1      83.793 -14.043   2.875  1.00  0.00    -0.297 N 
HETATM    2  C   UNL     1      83.224 -15.233   2.543  1.00  0.00     0.188 A 
HETATM    3  N   UNL     1      84.100 -16.175   2.333  1.00  0.00    -0.346 N 
ATOM      4  HN  UNL     1      83.920 -17.146   2.076  1.00  0.00     0.167 HD
HETATM    5  C   UNL     1      85.321 -15.576   2.536  1.00  0.00     0.122 A 
HETATM    6  C   UNL     1      86.652 -16.049   2.456  1.00  0.00     0.131 A 
HETATM    7  N   UNL     1      87.641 -15.187   2.704  1.00  0.00    -0.337 N 
ATOM      8  HN  UNL     1      88.617 -15.479   2.673  1.00  0.00     0.168 HD
HETATM    9  C   UNL     1      87.305 -13.932   2.993  1.00  0.00     0.183 A 
HETATM   10  N   UNL     1      86.109 -13.378   3.108  1.00  0.00    -0.336 N 
ATOM     11  HN  UNL     1      85.951 -12.401   3.358  1.00  0.00     0.168 HD
HETATM   12  C   UNL     1      85.146 -14.246   2.860  1.00  0.00     0.142 A 
ENDROOT
BRANCH   1  13
HETATM   13  C   UNL     1      83.108 -12.803   3.146  1.00  0.00     0.262 C 
HETATM   14  C   UNL     1      81.825 -12.693   2.318  1.00  0.00     0.198 C 
HETATM   15  C   UNL     1      80.976 -11.726   3.172  1.00  0.00     0.180 C 
HETATM   16  C   UNL     1      81.583 -11.796   4.582  1.00  0.00     0.165 C 
HETATM   17  O   UNL     1      82.625 -12.773   4.459  1.00  0.00    -0.355 OA
BRANCH  14  18
HETATM   18  O   UNL     1      82.021 -12.292   0.989  1.00  0.00    -0.388 OA
ATOM     19  HO  UNL     1      82.637 -11.576   0.880  1.00  0.00     0.210 HD
ENDBRANCH  14  18
BRANCH  15  20
HETATM   20  O   UNL     1      81.060 -10.426   2.642  1.00  0.00    -0.390 OA
ATOM     21  HO  UNL     1      81.119 -10.468   1.695  1.00  0.00     0.210 HD
ENDBRANCH  15  20
BRANCH  16  22
HETATM   22  C   UNL     1      80.488 -12.179   5.595  1.00  0.00     0.108 C 
BRANCH  22  23
HETATM   23  S   UNL     1      79.658 -10.775   6.404  1.00  0.00    -0.171 SA
HETATM   24  C   UNL     1      78.209 -10.491   5.317  1.00  0.00     0.089 C 
ENDBRANCH  22  23
ENDBRANCH  16  22
ENDBRANCH   1  13
BRANCH   6  25
HETATM   25  N   UNL     1      86.963 -17.308   2.147  1.00  0.00    -0.383 N 
ATOM     26  HN2 UNL     1      87.631 -17.556   1.418  1.00  0.00     0.157 HD
ATOM     27  HN1 UNL     1      86.513 -18.063   2.663  1.00  0.00     0.157 HD
ENDBRANCH   6  25
TORSDOF 6
ENDMDL
MODEL 6
REMARK VINA RESULT:    -6.485      6.232      8.353
REMARK INTER + INTRA:          -8.605
REMARK INTER:                  -7.804
REMARK INTRA:                  -0.802
REMARK UNBOUND:                -0.414
REMARK  6 active torsions:
REMARK  status: ('A' for Active; 'I' for Inactive)
REMARK    1  A    between atoms: S_2  and  C_3 
REMARK    2  A    between atoms: C_3  and  C_4 
REMARK    3  A    between atoms: C_6  and  O_7 
REMARK    4  A    between atoms: C_9  and  O_10 
REMARK    5  A    between atoms: C_12  and  N_13 
REMARK    6  A    between atoms: C_18  and  N_19 
ROOT
HETATM    1  N   UNL     1      86.181 -19.017   3.940  1.00  0.00    -0.297 N 
HETATM    2  C   UNL     1      84.858 -18.734   3.803  1.00  0.00     0.188 A 
HETATM    3  N   UNL     1      84.638 -17.527   3.361  1.00  0.00    -0.346 N 
ATOM      4  HN  UNL     1      83.736 -17.087   3.176  1.00  0.00     0.167 HD
HETATM    5  C   UNL     1      85.887 -16.977   3.197  1.00  0.00     0.122 A 
HETATM    6  C   UNL     1      86.331 -15.707   2.760  1.00  0.00     0.131 A 
HETATM    7  N   UNL     1      87.646 -15.477   2.728  1.00  0.00    -0.337 N 
ATOM      8  HN  UNL     1      88.019 -14.584   2.408  1.00  0.00     0.168 HD
HETATM    9  C   UNL     1      88.451 -16.459   3.128  1.00  0.00     0.183 A 
HETATM   10  N   UNL     1      88.160 -17.681   3.543  1.00  0.00    -0.336 N 
ATOM     11  HN  UNL     1      88.857 -18.377   3.810  1.00  0.00     0.168 HD
HETATM   12  C   UNL     1      86.856 -17.887   3.567  1.00  0.00     0.142 A 
ENDROOT
BRANCH   1  13
HETATM   13  C   UNL     1      86.756 -20.248   4.425  1.00  0.00     0.262 C 
HETATM   14  C   UNL     1      87.262 -21.111   3.265  1.00  0.00     0.198 C 
HETATM   15  C   UNL     1      88.347 -21.966   3.954  1.00  0.00     0.180 C 
HETATM   16  C   UNL     1      88.723 -21.191   5.226  1.00  0.00     0.165 C 
HETATM   17  O   UNL     1      87.927 -20.001   5.152  1.00  0.00    -0.355 OA
BRANCH  14  18
HETATM   18  O   UNL     1      86.264 -21.840   2.605  1.00  0.00    -0.388 OA
ATOM     19  HO  UNL     1      85.951 -21.443   1.801  1.00  0.00     0.210 HD
ENDBRANCH  14  18
BRANCH  15  20
HETATM   20  O   UNL     1      87.826 -23.236   4.263  1.00  0.00    -0.390 OA
ATOM     21  HO  UNL     1      88.497 -23.897   4.143  1.00  0.00     0.210 HD
ENDBRANCH  15  20
BRANCH  16  22
HETATM   22  C   UNL     1      90.240 -20.924   5.237  1.00  0.00     0.108 C 
BRANCH  22  23
HETATM   23  S   UNL     1      91.071 -21.118   3.628  1.00  0.00    -0.171 SA
HETATM   24  C   UNL     1      91.572 -19.400   3.230  1.00  0.00     0.089 C 
ENDBRANCH  22  23
ENDBRANCH  16  22
ENDBRANCH   1  13
BRANCH   6  25
HETATM   25  N   UNL     1      85.502 -14.734   2.380  1.00  0.00    -0.383 N 
ATOM     26  HN2 UNL     1      85.219 -14.587   1.412  1.00  0.00     0.157 HD
ATOM     27  HN1 UNL     1      85.132 -14.103   3.091  1.00  0.00     0.157 HD
ENDBRANCH   6  25
TORSDOF 6
ENDMDL
MODEL 7
REMARK VINA RESULT:    -6.409      4.095      5.752
REMARK INTER + INTRA:          -8.510
REMARK INTER:                  -7.874
REMARK INTRA:                  -0.636
REMARK UNBOUND:                -0.414
REMARK  6 active torsions:
REMARK  status: ('A' for Active; 'I' for Inactive)
REMARK    1  A    between atoms: S_2  and  C_3 
REMARK    2  A    between atoms: C_3  and  C_4 
REMARK    3  A    between atoms: C_6  and  O_7 
REMARK    4  A    between atoms: C_9  and  O_10 
REMARK    5  A    between atoms: C_12  and  N_13 
REMARK    6  A    between atoms: C_18  and  N_19 
ROOT
HETATM    1  N   UNL     1      85.659 -16.504   4.416  1.00  0.00    -0.297 N 
HETATM    2  C   UNL     1      86.521 -15.699   5.093  1.00  0.00     0.188 A 
HETATM    3  N   UNL     1      86.271 -14.430   4.927  1.00  0.00    -0.346 N 
ATOM      4  HN  UNL     1      86.774 -13.639   5.330  1.00  0.00     0.167 HD
HETATM    5  C   UNL     1      85.182 -14.391   4.089  1.00  0.00     0.122 A 
HETATM    6  C   UNL     1      84.438 -13.327   3.526  1.00  0.00     0.131 A 
HETATM    7  N   UNL     1      83.418 -13.632   2.718  1.00  0.00    -0.337 N 
ATOM      8  HN  UNL     1      82.841 -12.905   2.297  1.00  0.00     0.168 HD
HETATM    9  C   UNL     1      83.184 -14.922   2.484  1.00  0.00     0.183 A 
HETATM   10  N   UNL     1      83.795 -15.996   2.956  1.00  0.00    -0.336 N 
ATOM     11  HN  UNL     1      83.525 -16.954   2.733  1.00  0.00     0.168 HD
HETATM   12  C   UNL     1      84.799 -15.673   3.752  1.00  0.00     0.142 A 
ENDROOT
BRANCH   1  13
HETATM   13  C   UNL     1      85.675 -17.946   4.372  1.00  0.00     0.262 C 
HETATM   14  C   UNL     1      86.170 -18.446   3.011  1.00  0.00     0.198 C 
HETATM   15  C   UNL     1      86.715 -19.846   3.366  1.00  0.00     0.180 C 
HETATM   16  C   UNL     1      86.970 -19.806   4.881  1.00  0.00     0.165 C 
HETATM   17  O   UNL     1      86.633 -18.463   5.251  1.00  0.00    -0.355 OA
BRANCH  14  18
HETATM   18  O   UNL     1      85.202 -18.428   1.997  1.00  0.00    -0.388 OA
ATOM     19  HO  UNL     1      84.326 -18.207   2.292  1.00  0.00     0.210 HD
ENDBRANCH  14  18
BRANCH  15  20
HETATM   20  O   UNL     1      85.763 -20.826   3.032  1.00  0.00    -0.390 OA
ATOM     21  HO  UNL     1      86.127 -21.421   2.387  1.00  0.00     0.210 HD
ENDBRANCH  15  20
BRANCH  16  22
HETATM   22  C   UNL     1      88.437 -20.180   5.167  1.00  0.00     0.108 C 
BRANCH  22  23
HETATM   23  S   UNL     1      89.607 -19.801   3.824  1.00  0.00    -0.171 SA
HETATM   24  C   UNL     1      89.969 -18.025   4.102  1.00  0.00     0.089 C 
ENDBRANCH  22  23
ENDBRANCH  16  22
ENDBRANCH   1  13
BRANCH   6  25
HETATM   25  N   UNL     1      84.704 -12.043   3.762  1.00  0.00    -0.383 N 
ATOM     26  HN2 UNL     1      85.029 -11.696   4.664  1.00  0.00     0.157 HD
ATOM     27  HN1 UNL     1      84.578 -11.371   3.006  1.00  0.00     0.157 HD
ENDBRANCH   6  25
TORSDOF 6
ENDMDL
MODEL 8
REMARK VINA RESULT:    -6.374      2.585      3.988
REMARK INTER + INTRA:          -8.465
REMARK INTER:                  -7.848
REMARK INTRA:                  -0.617
REMARK UNBOUND:                -0.414
REMARK  6 active torsions:
REMARK  status: ('A' for Active; 'I' for Inactive)
REMARK    1  A    between atoms: S_2  and  C_3 
REMARK    2  A    between atoms: C_3  and  C_4 
REMARK    3  A    between atoms: C_6  and  O_7 
REMARK    4  A    between atoms: C_9  and  O_10 
REMARK    5  A    between atoms: C_12  and  N_13 
REMARK    6  A    between atoms: C_18  and  N_19 
ROOT
HETATM    1  N   UNL     1      79.670 -11.332   4.765  1.00  0.00    -0.297 N 
HETATM    2  C   UNL     1      78.486 -10.664   4.815  1.00  0.00     0.188 A 
HETATM    3  N   UNL     1      78.232 -10.165   5.993  1.00  0.00    -0.346 N 
ATOM      4  HN  UNL     1      77.413  -9.626   6.276  1.00  0.00     0.167 HD
HETATM    5  C   UNL     1      79.308 -10.524   6.770  1.00  0.00     0.122 A 
HETATM    6  C   UNL     1      79.632 -10.302   8.128  1.00  0.00     0.131 A 
HETATM    7  N   UNL     1      80.777 -10.809   8.593  1.00  0.00    -0.337 N 
ATOM      8  HN  UNL     1      81.064 -10.667   9.560  1.00  0.00     0.168 HD
HETATM    9  C   UNL     1      81.528 -11.509   7.745  1.00  0.00     0.183 A 
HETATM   10  N   UNL     1      81.339 -11.773   6.463  1.00  0.00    -0.336 N 
ATOM     11  HN  UNL     1      81.991 -12.305   5.885  1.00  0.00     0.168 HD
HETATM   12  C   UNL     1      80.203 -11.262   6.023  1.00  0.00     0.142 A 
ENDROOT
BRANCH   1  13
HETATM   13  C   UNL     1      80.230 -12.015   3.625  1.00  0.00     0.262 C 
HETATM   14  C   UNL     1      81.198 -11.105   2.863  1.00  0.00     0.198 C 
HETATM   15  C   UNL     1      82.117 -12.132   2.165  1.00  0.00     0.180 C 
HETATM   16  C   UNL     1      81.950 -13.432   2.968  1.00  0.00     0.165 C 
HETATM   17  O   UNL     1      81.058 -13.068   4.029  1.00  0.00    -0.355 OA
BRANCH  14  18
HETATM   18  O   UNL     1      80.580 -10.186   2.005  1.00  0.00    -0.388 OA
ATOM     19  HO  UNL     1      79.819 -10.524   1.546  1.00  0.00     0.210 HD
ENDBRANCH  14  18
BRANCH  15  20
HETATM   20  O   UNL     1      81.712 -12.301   0.828  1.00  0.00    -0.390 OA
ATOM     21  HO  UNL     1      82.413 -12.701   0.328  1.00  0.00     0.210 HD
ENDBRANCH  15  20
BRANCH  16  22
HETATM   22  C   UNL     1      83.330 -13.916   3.454  1.00  0.00     0.108 C 
BRANCH  22  23
HETATM   23  S   UNL     1      83.928 -15.451   2.680  1.00  0.00    -0.171 SA
HETATM   24  C   UNL     1      85.744 -15.324   2.898  1.00  0.00     0.089 C 
ENDBRANCH  22  23
ENDBRANCH  16  22
ENDBRANCH   1  13
BRANCH   6  25
HETATM   25  N   UNL     1      78.853  -9.612   8.962  1.00  0.00    -0.383 N 
ATOM     26  HN2 UNL     1      79.127  -9.376   9.916  1.00  0.00     0.157 HD
ATOM     27  HN1 UNL     1      77.938  -9.304   8.635  1.00  0.00     0.157 HD
ENDBRANCH   6  25
TORSDOF 6
ENDMDL
MODEL 9
REMARK VINA RESULT:    -6.318      4.390      6.112
REMARK INTER + INTRA:          -8.394
REMARK INTER:                  -7.759
REMARK INTRA:                  -0.635
REMARK UNBOUND:                -0.414
REMARK  6 active torsions:
REMARK  status: ('A' for Active; 'I' for Inactive)
REMARK    1  A    between atoms: S_2  and  C_3 
REMARK    2  A    between atoms: C_3  and  C_4 
REMARK    3  A    between atoms: C_6  and  O_7 
REMARK    4  A    between atoms: C_9  and  O_10 
REMARK    5  A    between atoms: C_12  and  N_13 
REMARK    6  A    between atoms: C_18  and  N_19 
ROOT
HETATM    1  N   UNL     1      85.914 -16.773   4.327  1.00  0.00    -0.297 N 
HETATM    2  C   UNL     1      86.808 -15.990   4.988  1.00  0.00     0.188 A 
HETATM    3  N   UNL     1      86.582 -14.715   4.834  1.00  0.00    -0.346 N 
ATOM      4  HN  UNL     1      87.110 -13.937   5.230  1.00  0.00     0.167 HD
HETATM    5  C   UNL     1      85.476 -14.648   4.020  1.00  0.00     0.122 A 
HETATM    6  C   UNL     1      84.742 -13.566   3.478  1.00  0.00     0.131 A 
HETATM    7  N   UNL     1      83.699 -13.846   2.692  1.00  0.00    -0.337 N 
ATOM      8  HN  UNL     1      83.129 -13.104   2.287  1.00  0.00     0.168 HD
HETATM    9  C   UNL     1      83.432 -15.128   2.457  1.00  0.00     0.183 A 
HETATM   10  N   UNL     1      84.031 -16.217   2.910  1.00  0.00    -0.336 N 
ATOM     11  HN  UNL     1      83.736 -17.168   2.688  1.00  0.00     0.168 HD
HETATM   12  C   UNL     1      85.058 -15.920   3.685  1.00  0.00     0.142 A 
ENDROOT
BRANCH   1  13
HETATM   13  C   UNL     1      85.899 -18.214   4.274  1.00  0.00     0.262 C 
HETATM   14  C   UNL     1      86.539 -18.722   2.979  1.00  0.00     0.198 C 
HETATM   15  C   UNL     1      87.003 -20.137   3.387  1.00  0.00     0.180 C 
HETATM   16  C   UNL     1      87.076 -20.110   4.922  1.00  0.00     0.165 C 
HETATM   17  O   UNL     1      86.732 -18.760   5.258  1.00  0.00    -0.355 OA
BRANCH  14  18
HETATM   18  O   UNL     1      85.700 -18.675   1.858  1.00  0.00    -0.388 OA
ATOM     19  HO  UNL     1      84.781 -18.535   2.058  1.00  0.00     0.210 HD
ENDBRANCH  14  18
BRANCH  15  20
HETATM   20  O   UNL     1      86.072 -21.091   2.935  1.00  0.00    -0.390 OA
ATOM     21  HO  UNL     1      85.713 -21.565   3.676  1.00  0.00     0.210 HD
ENDBRANCH  15  20
BRANCH  16  22
HETATM   22  C   UNL     1      88.489 -20.523   5.377  1.00  0.00     0.108 C 
BRANCH  22  23
HETATM   23  S   UNL     1      89.674 -20.838   4.031  1.00  0.00    -0.171 SA
HETATM   24  C   UNL     1      89.654 -22.668   3.906  1.00  0.00     0.089 C 
ENDBRANCH  22  23
ENDBRANCH  16  22
ENDBRANCH   1  13
BRANCH   6  25
HETATM   25  N   UNL     1      85.041 -12.289   3.715  1.00  0.00    -0.383 N 
ATOM     26  HN2 UNL     1      84.352 -11.538   3.682  1.00  0.00     0.157 HD
ATOM     27  HN1 UNL     1      86.005 -12.046   3.941  1.00  0.00     0.157 HD
ENDBRANCH   6  25
TORSDOF 6
ENDMDL
MODEL 10
REMARK VINA RESULT:    -6.303      3.435      4.968
REMARK INTER + INTRA:          -8.376
REMARK INTER:                  -7.552
REMARK INTRA:                  -0.823
REMARK UNBOUND:                -0.414
REMARK  6 active torsions:
REMARK  status: ('A' for Active; 'I' for Inactive)
REMARK    1  A    between atoms: S_2  and  C_3 
REMARK    2  A    between atoms: C_3  and  C_4 
REMARK    3  A    between atoms: C_6  and  O_7 
REMARK    4  A    between atoms: C_9  and  O_10 
REMARK    5  A    between atoms: C_12  and  N_13 
REMARK    6  A    between atoms: C_18  and  N_19 
ROOT
HETATM    1  N   UNL     1      84.382 -14.484   3.799  1.00  0.00    -0.297 N 
HETATM    2  C   UNL     1      83.761 -13.375   3.314  1.00  0.00     0.188 A 
HETATM    3  N   UNL     1      83.993 -12.309   4.027  1.00  0.00    -0.346 N 
ATOM      4  HN  UNL     1      83.642 -11.364   3.865  1.00  0.00     0.167 HD
HETATM    5  C   UNL     1      84.812 -12.734   5.046  1.00  0.00     0.122 A 
HETATM    6  C   UNL     1      85.405 -12.072   6.146  1.00  0.00     0.131 A 
HETATM    7  N   UNL     1      86.156 -12.793   6.983  1.00  0.00    -0.337 N 
ATOM      8  HN  UNL     1      86.617 -12.362   7.784  1.00  0.00     0.168 HD
HETATM    9  C   UNL     1      86.280 -14.094   6.733  1.00  0.00     0.183 A 
HETATM   10  N   UNL     1      85.790 -14.818   5.740  1.00  0.00    -0.336 N 
ATOM     11  HN  UNL     1      85.961 -15.817   5.620  1.00  0.00     0.168 HD
HETATM   12  C   UNL     1      85.052 -14.088   4.924  1.00  0.00     0.142 A 
ENDROOT
BRANCH   1  13
HETATM   13  C   UNL     1      84.312 -15.820   3.260  1.00  0.00     0.262 C 
HETATM   14  C   UNL     1      85.550 -16.134   2.414  1.00  0.00     0.198 C 
HETATM   15  C   UNL     1      85.606 -17.676   2.494  1.00  0.00     0.180 C 
HETATM   16  C   UNL     1      84.783 -18.044   3.738  1.00  0.00     0.165 C 
HETATM   17  O   UNL     1      84.391 -16.776   4.278  1.00  0.00    -0.355 OA
BRANCH  14  18
HETATM   18  O   UNL     1      85.515 -15.611   1.114  1.00  0.00    -0.388 OA
ATOM     19  HO  UNL     1      85.603 -16.259   0.425  1.00  0.00     0.210 HD
ENDBRANCH  14  18
BRANCH  15  20
HETATM   20  O   UNL     1      85.051 -18.233   1.328  1.00  0.00    -0.390 OA
ATOM     21  HO  UNL     1      84.963 -17.562   0.662  1.00  0.00     0.210 HD
ENDBRANCH  15  20
BRANCH  16  22
HETATM   22  C   UNL     1      85.647 -18.887   4.696  1.00  0.00     0.108 C 
BRANCH  22  23
HETATM   23  S   UNL     1      87.236 -18.135   5.169  1.00  0.00    -0.171 SA
HETATM   24  C   UNL     1      87.079 -17.988   6.990  1.00  0.00     0.089 C 
ENDBRANCH  22  23
ENDBRANCH  16  22
ENDBRANCH   1  13
BRANCH   6  25
HETATM   25  N   UNL     1      85.251 -10.770   6.386  1.00  0.00    -0.383 N 
ATOM     26  HN2 UNL     1      85.812 -10.048   5.934  1.00  0.00     0.157 HD
ATOM     27  HN1 UNL     1      84.538 -10.477   7.053  1.00  0.00     0.157 HD
ENDBRANCH   6  25
TORSDOF 6
ENDMDL
MODEL 11
REMARK VINA RESULT:    -6.286      5.468      8.186
REMARK INTER + INTRA:          -8.353
REMARK INTER:                  -7.664
REMARK INTRA:                  -0.689
REMARK UNBOUND:                -0.414
REMARK  6 active torsions:
REMARK  status: ('A' for Active; 'I' for Inactive)
REMARK    1  A    between atoms: S_2  and  C_3 
REMARK    2  A    between atoms: C_3  and  C_4 
REMARK    3  A    between atoms: C_6  and  O_7 
REMARK    4  A    between atoms: C_9  and  O_10 
REMARK    5  A    between atoms: C_12  and  N_13 
REMARK    6  A    between atoms: C_18  and  N_19 
ROOT
HETATM    1  N   UNL     1      86.290 -17.432   2.859  1.00  0.00    -0.297 N 
HETATM    2  C   UNL     1      86.463 -18.246   1.783  1.00  0.00     0.188 A 
HETATM    3  N   UNL     1      86.807 -19.460   2.113  1.00  0.00    -0.346 N 
ATOM      4  HN  UNL     1      86.991 -20.245   1.488  1.00  0.00     0.167 HD
HETATM    5  C   UNL     1      86.868 -19.450   3.486  1.00  0.00     0.122 A 
HETATM    6  C   UNL     1      87.190 -20.441   4.444  1.00  0.00     0.131 A 
HETATM    7  N   UNL     1      87.170 -20.097   5.734  1.00  0.00    -0.337 N 
ATOM      8  HN  UNL     1      87.381 -20.776   6.465  1.00  0.00     0.168 HD
HETATM    9  C   UNL     1      86.864 -18.836   6.030  1.00  0.00     0.183 A 
HETATM   10  N   UNL     1      86.537 -17.832   5.234  1.00  0.00    -0.336 N 
ATOM     11  HN  UNL     1      86.295 -16.896   5.560  1.00  0.00     0.168 HD
HETATM   12  C   UNL     1      86.562 -18.192   3.963  1.00  0.00     0.142 A 
ENDROOT
BRANCH   1  13
HETATM   13  C   UNL     1      85.933 -16.034   2.837  1.00  0.00     0.262 C 
HETATM   14  C   UNL     1      84.439 -15.846   3.115  1.00  0.00     0.198 C 
HETATM   15  C   UNL     1      84.399 -14.408   3.677  1.00  0.00     0.180 C 
HETATM   16  C   UNL     1      85.832 -14.122   4.152  1.00  0.00     0.165 C 
HETATM   17  O   UNL     1      86.529 -15.349   3.902  1.00  0.00    -0.355 OA
BRANCH  14  18
HETATM   18  O   UNL     1      83.608 -16.072   2.009  1.00  0.00    -0.388 OA
ATOM     19  HO  UNL     1      83.821 -16.851   1.509  1.00  0.00     0.210 HD
ENDBRANCH  14  18
BRANCH  15  20
HETATM   20  O   UNL     1      84.007 -13.513   2.664  1.00  0.00    -0.390 OA
ATOM     21  HO  UNL     1      83.503 -12.802   3.042  1.00  0.00     0.210 HD
ENDBRANCH  15  20
BRANCH  16  22
HETATM   22  C   UNL     1      85.809 -13.712   5.637  1.00  0.00     0.108 C 
BRANCH  22  23
HETATM   23  S   UNL     1      84.858 -12.204   6.009  1.00  0.00    -0.171 SA
HETATM   24  C   UNL     1      84.083 -12.612   7.620  1.00  0.00     0.089 C 
ENDBRANCH  22  23
ENDBRANCH  16  22
ENDBRANCH   1  13
BRANCH   6  25
HETATM   25  N   UNL     1      87.510 -21.693   4.120  1.00  0.00    -0.383 N 
ATOM     26  HN2 UNL     1      87.242 -22.129   3.238  1.00  0.00     0.157 HD
ATOM     27  HN1 UNL     1      88.049 -22.247   4.785  1.00  0.00     0.157 HD
ENDBRANCH   6  25
TORSDOF 6
ENDMDL
MODEL 12
REMARK VINA RESULT:    -6.282      2.260      3.247
REMARK INTER + INTRA:          -8.349
REMARK INTER:                  -7.818
REMARK INTRA:                  -0.531
REMARK UNBOUND:                -0.414
REMARK  6 active torsions:
REMARK  status: ('A' for Active; 'I' for Inactive)
REMARK    1  A    between atoms: S_2  and  C_3 
REMARK    2  A    between atoms: C_3  and  C_4 
REMARK    3  A    between atoms: C_6  and  O_7 
REMARK    4  A    between atoms: C_9  and  O_10 
REMARK    5  A    between atoms: C_12  and  N_13 
REMARK    6  A    between atoms: C_18  and  N_19 
ROOT
HETATM    1  N   UNL     1      80.176 -12.171   5.252  1.00  0.00    -0.297 N 
HETATM    2  C   UNL     1      80.707 -12.478   6.466  1.00  0.00     0.188 A 
HETATM    3  N   UNL     1      80.072 -11.917   7.457  1.00  0.00    -0.346 N 
ATOM      4  HN  UNL     1      80.278 -11.997   8.453  1.00  0.00     0.167 HD
HETATM    5  C   UNL     1      79.064 -11.192   6.866  1.00  0.00     0.122 A 
HETATM    6  C   UNL     1      78.043 -10.361   7.385  1.00  0.00     0.131 A 
HETATM    7  N   UNL     1      77.210  -9.775   6.521  1.00  0.00    -0.337 N 
ATOM      8  HN  UNL     1      76.449  -9.178   6.843  1.00  0.00     0.168 HD
HETATM    9  C   UNL     1      77.410 -10.001   5.225  1.00  0.00     0.183 A 
HETATM   10  N   UNL     1      78.312 -10.760   4.624  1.00  0.00    -0.336 N 
ATOM     11  HN  UNL     1      78.372 -10.889   3.613  1.00  0.00     0.168 HD
HETATM   12  C   UNL     1      79.125 -11.330   5.495  1.00  0.00     0.142 A 
ENDROOT
BRANCH   1  13
HETATM   13  C   UNL     1      80.654 -12.608   3.963  1.00  0.00     0.262 C 
HETATM   14  C   UNL     1      81.498 -11.519   3.294  1.00  0.00     0.198 C 
HETATM   15  C   UNL     1      82.392 -12.347   2.345  1.00  0.00     0.180 C 
HETATM   16  C   UNL     1      82.369 -13.774   2.914  1.00  0.00     0.165 C 
HETATM   17  O   UNL     1      81.569 -13.659   4.098  1.00  0.00    -0.355 OA
BRANCH  14  18
HETATM   18  O   UNL     1      80.754 -10.506   2.672  1.00  0.00    -0.388 OA
ATOM     19  HO  UNL     1      80.257 -10.791   1.914  1.00  0.00     0.210 HD
ENDBRANCH  14  18
BRANCH  15  20
HETATM   20  O   UNL     1      81.866 -12.306   1.041  1.00  0.00    -0.390 OA
ATOM     21  HO  UNL     1      82.281 -11.608   0.549  1.00  0.00     0.210 HD
ENDBRANCH  15  20
BRANCH  16  22
HETATM   22  C   UNL     1      83.811 -14.244   3.182  1.00  0.00     0.108 C 
BRANCH  22  23
HETATM   23  S   UNL     1      84.255 -15.842   2.431  1.00  0.00    -0.171 SA
HETATM   24  C   UNL     1      84.666 -16.868   3.894  1.00  0.00     0.089 C 
ENDBRANCH  22  23
ENDBRANCH  16  22
ENDBRANCH   1  13
BRANCH   6  25
HETATM   25  N   UNL     1      77.875 -10.137   8.688  1.00  0.00    -0.383 N 
ATOM     26  HN2 UNL     1      78.635 -10.182   9.366  1.00  0.00     0.157 HD
ATOM     27  HN1 UNL     1      76.941  -9.908   9.028  1.00  0.00     0.157 HD
ENDBRANCH   6  25
TORSDOF 6
ENDMDL
MODEL 13
REMARK VINA RESULT:    -6.215      2.890      4.139
REMARK INTER + INTRA:          -8.265
REMARK INTER:                  -7.840
REMARK INTRA:                  -0.424
REMARK UNBOUND:                -0.414
REMARK  6 active torsions:
REMARK  status: ('A' for Active; 'I' for Inactive)
REMARK    1  A    between atoms: S_2  and  C_3 
REMARK    2  A    between atoms: C_3  and  C_4 
REMARK    3  A    between atoms: C_6  and  O_7 
REMARK    4  A    between atoms: C_9  and  O_10 
REMARK    5  A    between atoms: C_12  and  N_13 
REMARK    6  A    between atoms: C_18  and  N_19 
ROOT
HETATM    1  N   UNL     1      80.458 -11.622   4.324  1.00  0.00    -0.297 N 
HETATM    2  C   UNL     1      79.831 -10.904   3.354  1.00  0.00     0.188 A 
HETATM    3  N   UNL     1      78.756 -10.302   3.780  1.00  0.00    -0.346 N 
ATOM      4  HN  UNL     1      78.122  -9.708   3.244  1.00  0.00     0.167 HD
HETATM    5  C   UNL     1      78.663 -10.641   5.109  1.00  0.00     0.122 A 
HETATM    6  C   UNL     1      77.727 -10.323   6.121  1.00  0.00     0.131 A 
HETATM    7  N   UNL     1      77.918 -10.838   7.338  1.00  0.00    -0.337 N 
ATOM      8  HN  UNL     1      77.282 -10.630   8.107  1.00  0.00     0.168 HD
HETATM    9  C   UNL     1      78.971 -11.634   7.510  1.00  0.00     0.183 A 
HETATM   10  N   UNL     1      79.914 -11.993   6.654  1.00  0.00    -0.336 N 
ATOM     11  HN  UNL     1      80.702 -12.596   6.889  1.00  0.00     0.168 HD
HETATM   12  C   UNL     1      79.707 -11.473   5.458  1.00  0.00     0.142 A 
ENDROOT
BRANCH   1  13
HETATM   13  C   UNL     1      81.652 -12.417   4.177  1.00  0.00     0.262 C 
HETATM   14  C   UNL     1      82.654 -11.733   3.242  1.00  0.00     0.198 C 
HETATM   15  C   UNL     1      83.994 -12.339   3.715  1.00  0.00     0.180 C 
HETATM   16  C   UNL     1      83.722 -12.858   5.135  1.00  0.00     0.165 C 
HETATM   17  O   UNL     1      82.360 -12.487   5.382  1.00  0.00    -0.355 OA
BRANCH  14  18
HETATM   18  O   UNL     1      82.381 -11.895   1.877  1.00  0.00    -0.388 OA
ATOM     19  HO  UNL     1      82.108 -11.100   1.433  1.00  0.00     0.210 HD
ENDBRANCH  14  18
BRANCH  15  20
HETATM   20  O   UNL     1      84.375 -13.382   2.851  1.00  0.00    -0.390 OA
ATOM     21  HO  UNL     1      84.773 -13.022   2.068  1.00  0.00     0.210 HD
ENDBRANCH  15  20
BRANCH  16  22
HETATM   22  C   UNL     1      84.727 -12.223   6.116  1.00  0.00     0.108 C 
BRANCH  22  23
HETATM   23  S   UNL     1      84.463 -12.637   7.869  1.00  0.00    -0.171 SA
HETATM   24  C   UNL     1      83.436 -11.237   8.457  1.00  0.00     0.089 C 
ENDBRANCH  22  23
ENDBRANCH  16  22
ENDBRANCH   1  13
BRANCH   6  25
HETATM   25  N   UNL     1      76.670  -9.537   5.918  1.00  0.00    -0.383 N 
ATOM     26  HN2 UNL     1      76.012  -9.671   5.151  1.00  0.00     0.157 HD
ATOM     27  HN1 UNL     1      76.507  -8.762   6.561  1.00  0.00     0.157 HD
ENDBRANCH   6  25
TORSDOF 6
ENDMDL
MODEL 14
REMARK VINA RESULT:    -6.102      1.040      2.105
REMARK INTER + INTRA:          -8.122
REMARK INTER:                  -7.759
REMARK INTRA:                  -0.363
REMARK UNBOUND:                -0.414
REMARK  6 active torsions:
REMARK  status: ('A' for Active; 'I' for Inactive)
REMARK    1  A    between atoms: S_2  and  C_3 
REMARK    2  A    between atoms: C_3  and  C_4 
REMARK    3  A    between atoms: C_6  and  O_7 
REMARK    4  A    between atoms: C_9  and  O_10 
REMARK    5  A    between atoms: C_12  and  N_13 
REMARK    6  A    between atoms: C_18  and  N_19 
ROOT
HETATM    1  N   UNL     1      82.418 -12.715   3.139  1.00  0.00    -0.297 N 
HETATM    2  C   UNL     1      81.686 -12.000   2.243  1.00  0.00     0.188 A 
HETATM    3  N   UNL     1      80.661 -11.403   2.783  1.00  0.00    -0.346 N 
ATOM      4  HN  UNL     1      79.970 -10.812   2.320  1.00  0.00     0.167 HD
HETATM    5  C   UNL     1      80.714 -11.743   4.114  1.00  0.00     0.122 A 
HETATM    6  C   UNL     1      79.892 -11.430   5.222  1.00  0.00     0.131 A 
HETATM    7  N   UNL     1      80.216 -11.945   6.411  1.00  0.00    -0.337 N 
ATOM      8  HN  UNL     1      79.666 -11.740   7.244  1.00  0.00     0.168 HD
HETATM    9  C   UNL     1      81.285 -12.736   6.467  1.00  0.00     0.183 A 
HETATM   10  N   UNL     1      82.131 -13.090   5.514  1.00  0.00    -0.336 N 
ATOM     11  HN  UNL     1      82.943 -13.690   5.661  1.00  0.00     0.168 HD
HETATM   12  C   UNL     1      81.793 -12.571   4.348  1.00  0.00     0.142 A 
ENDROOT
BRANCH   1  13
HETATM   13  C   UNL     1      83.592 -13.505   2.862  1.00  0.00     0.262 C 
HETATM   14  C   UNL     1      84.727 -13.159   3.831  1.00  0.00     0.198 C 
HETATM   15  C   UNL     1      85.563 -14.456   3.819  1.00  0.00     0.180 C 
HETATM   16  C   UNL     1      84.607 -15.547   3.311  1.00  0.00     0.165 C 
HETATM   17  O   UNL     1      83.362 -14.858   3.137  1.00  0.00    -0.355 OA
BRANCH  14  18
HETATM   18  O   UNL     1      85.436 -11.995   3.505  1.00  0.00    -0.388 OA
ATOM     19  HO  UNL     1      86.380 -12.099   3.488  1.00  0.00     0.210 HD
ENDBRANCH  14  18
BRANCH  15  20
HETATM   20  O   UNL     1      86.667 -14.302   2.960  1.00  0.00    -0.390 OA
ATOM     21  HO  UNL     1      86.368 -14.057   2.093  1.00  0.00     0.210 HD
ENDBRANCH  15  20
BRANCH  16  22
HETATM   22  C   UNL     1      84.545 -16.695   4.336  1.00  0.00     0.108 C 
BRANCH  22  23
HETATM   23  S   UNL     1      85.981 -17.814   4.333  1.00  0.00    -0.171 SA
HETATM   24  C   UNL     1      85.225 -19.428   3.899  1.00  0.00     0.089 C 
ENDBRANCH  22  23
ENDBRANCH  16  22
ENDBRANCH   1  13
BRANCH   6  25
HETATM   25  N   UNL     1      78.815 -10.649   5.136  1.00  0.00    -0.383 N 
ATOM     26  HN2 UNL     1      78.782  -9.700   5.508  1.00  0.00     0.157 HD
ATOM     27  HN1 UNL     1      77.981 -11.014   4.678  1.00  0.00     0.157 HD
ENDBRANCH   6  25
TORSDOF 6
ENDMDL
MODEL 15
REMARK VINA RESULT:    -6.091      6.558      8.975
REMARK INTER + INTRA:          -8.108
REMARK INTER:                  -7.520
REMARK INTRA:                  -0.588
REMARK UNBOUND:                -0.414
REMARK  6 active torsions:
REMARK  status: ('A' for Active; 'I' for Inactive)
REMARK    1  A    between atoms: S_2  and  C_3 
REMARK    2  A    between atoms: C_3  and  C_4 
REMARK    3  A    between atoms: C_6  and  O_7 
REMARK    4  A    between atoms: C_9  and  O_10 
REMARK    5  A    between atoms: C_12  and  N_13 
REMARK    6  A    between atoms: C_18  and  N_19 
ROOT
HETATM    1  N   UNL     1      87.909 -19.093   3.494  1.00  0.00    -0.297 N 
HETATM    2  C   UNL     1      88.672 -18.481   2.549  1.00  0.00     0.188 A 
HETATM    3  N   UNL     1      88.159 -17.358   2.129  1.00  0.00    -0.346 N 
ATOM      4  HN  UNL     1      88.543 -16.722   1.430  1.00  0.00     0.167 HD
HETATM    5  C   UNL     1      86.987 -17.218   2.835  1.00  0.00     0.122 A 
HETATM    6  C   UNL     1      85.975 -16.230   2.835  1.00  0.00     0.131 A 
HETATM    7  N   UNL     1      84.931 -16.401   3.650  1.00  0.00    -0.337 N 
ATOM      8  HN  UNL     1      84.180 -15.712   3.699  1.00  0.00     0.168 HD
HETATM    9  C   UNL     1      84.905 -17.504   4.394  1.00  0.00     0.183 A 
HETATM   10  N   UNL     1      85.787 -18.485   4.489  1.00  0.00    -0.336 N 
ATOM     11  HN  UNL     1      85.689 -19.286   5.112  1.00  0.00     0.168 HD
HETATM   12  C   UNL     1      86.812 -18.297   3.677  1.00  0.00     0.142 A 
ENDROOT
BRANCH   1  13
HETATM   13  C   UNL     1      88.181 -20.353   4.142  1.00  0.00     0.262 C 
HETATM   14  C   UNL     1      87.488 -21.506   3.410  1.00  0.00     0.198 C 
HETATM   15  C   UNL     1      88.372 -22.709   3.805  1.00  0.00     0.180 C 
HETATM   16  C   UNL     1      89.711 -22.098   4.245  1.00  0.00     0.165 C 
HETATM   17  O   UNL     1      89.534 -20.692   4.031  1.00  0.00    -0.355 OA
BRANCH  14  18
HETATM   18  O   UNL     1      86.126 -21.649   3.708  1.00  0.00    -0.388 OA
ATOM     19  HO  UNL     1      85.873 -21.329   4.566  1.00  0.00     0.210 HD
ENDBRANCH  14  18
BRANCH  15  20
HETATM   20  O   UNL     1      87.763 -23.422   4.855  1.00  0.00    -0.390 OA
ATOM     21  HO  UNL     1      87.928 -22.980   5.679  1.00  0.00     0.210 HD
ENDBRANCH  15  20
BRANCH  16  22
HETATM   22  C   UNL     1      90.855 -22.714   3.417  1.00  0.00     0.108 C 
BRANCH  22  23
HETATM   23  S   UNL     1      92.320 -21.653   3.213  1.00  0.00    -0.171 SA
HETATM   24  C   UNL     1      92.930 -21.484   4.934  1.00  0.00     0.089 C 
ENDBRANCH  22  23
ENDBRANCH  16  22
ENDBRANCH   1  13
BRANCH   6  25
HETATM   25  N   UNL     1      86.015 -15.142   2.067  1.00  0.00    -0.383 N 
ATOM     26  HN2 UNL     1      86.702 -15.006   1.325  1.00  0.00     0.157 HD
ATOM     27  HN1 UNL     1      85.328 -14.406   2.225  1.00  0.00     0.157 HD
ENDBRANCH   6  25
TORSDOF 6
ENDMDL
MODEL 16
REMARK VINA RESULT:    -6.074      4.350      7.591
REMARK INTER + INTRA:          -8.087
REMARK INTER:                  -7.449
REMARK INTRA:                  -0.638
REMARK UNBOUND:                -0.414
REMARK  6 active torsions:
REMARK  status: ('A' for Active; 'I' for Inactive)
REMARK    1  A    between atoms: S_2  and  C_3 
REMARK    2  A    between atoms: C_3  and  C_4 
REMARK    3  A    between atoms: C_6  and  O_7 
REMARK    4  A    between atoms: C_9  and  O_10 
REMARK    5  A    between atoms: C_12  and  N_13 
REMARK    6  A    between atoms: C_18  and  N_19 
ROOT
HETATM    1  N   UNL     1      85.968 -15.751   4.037  1.00  0.00    -0.297 N 
HETATM    2  C   UNL     1      86.281 -15.864   5.356  1.00  0.00     0.188 A 
HETATM    3  N   UNL     1      87.001 -16.919   5.620  1.00  0.00    -0.346 N 
ATOM      4  HN  UNL     1      87.358 -17.216   6.528  1.00  0.00     0.167 HD
HETATM    5  C   UNL     1      87.173 -17.543   4.407  1.00  0.00     0.122 A 
HETATM    6  C   UNL     1      87.843 -18.727   4.020  1.00  0.00     0.131 A 
HETATM    7  N   UNL     1      87.810 -19.075   2.730  1.00  0.00    -0.337 N 
ATOM      8  HN  UNL     1      88.288 -19.911   2.396  1.00  0.00     0.168 HD
HETATM    9  C   UNL     1      87.130 -18.289   1.899  1.00  0.00     0.183 A 
HETATM   10  N   UNL     1      86.479 -17.162   2.137  1.00  0.00    -0.336 N 
ATOM     11  HN  UNL     1      86.001 -16.613   1.421  1.00  0.00     0.168 HD
HETATM   12  C   UNL     1      86.524 -16.836   3.416  1.00  0.00     0.142 A 
ENDROOT
BRANCH   1  13
HETATM   13  C   UNL     1      85.170 -14.718   3.423  1.00  0.00     0.262 C 
HETATM   14  C   UNL     1      83.735 -15.201   3.189  1.00  0.00     0.198 C 
HETATM   15  C   UNL     1      82.952 -13.870   3.169  1.00  0.00     0.180 C 
HETATM   16  C   UNL     1      83.857 -12.860   3.890  1.00  0.00     0.165 C 
HETATM   17  O   UNL     1      84.988 -13.640   4.296  1.00  0.00    -0.355 OA
BRANCH  14  18
HETATM   18  O   UNL     1      83.569 -16.002   2.052  1.00  0.00    -0.388 OA
ATOM     19  HO  UNL     1      83.321 -16.901   2.235  1.00  0.00     0.210 HD
ENDBRANCH  14  18
BRANCH  15  20
HETATM   20  O   UNL     1      82.708 -13.482   1.839  1.00  0.00    -0.390 OA
ATOM     21  HO  UNL     1      82.962 -12.575   1.717  1.00  0.00     0.210 HD
ENDBRANCH  15  20
BRANCH  16  22
HETATM   22  C   UNL     1      83.086 -12.225   5.064  1.00  0.00     0.108 C 
BRANCH  22  23
HETATM   23  S   UNL     1      81.296 -12.557   5.084  1.00  0.00    -0.171 SA
HETATM   24  C   UNL     1      80.616 -11.125   4.163  1.00  0.00     0.089 C 
ENDBRANCH  22  23
ENDBRANCH  16  22
ENDBRANCH   1  13
BRANCH   6  25
HETATM   25  N   UNL     1      88.503 -19.507   4.875  1.00  0.00    -0.383 N 
ATOM     26  HN2 UNL     1      88.487 -20.526   4.831  1.00  0.00     0.157 HD
ATOM     27  HN1 UNL     1      89.053 -19.068   5.613  1.00  0.00     0.157 HD
ENDBRANCH   6  25
TORSDOF 6
ENDMDL
MODEL 17
REMARK VINA RESULT:    -6.030      4.985      7.232
REMARK INTER + INTRA:          -8.031
REMARK INTER:                  -7.529
REMARK INTRA:                  -0.502
REMARK UNBOUND:                -0.414
REMARK  6 active torsions:
REMARK  status: ('A' for Active; 'I' for Inactive)
REMARK    1  A    between atoms: S_2  and  C_3 
REMARK    2  A    between atoms: C_3  and  C_4 
REMARK    3  A    between atoms: C_6  and  O_7 
REMARK    4  A    between atoms: C_9  and  O_10 
REMARK    5  A    between atoms: C_12  and  N_13 
REMARK    6  A    between atoms: C_18  and  N_19 
ROOT
HETATM    1  N   UNL     1      80.787 -11.317   5.428  1.00  0.00    -0.297 N 
HETATM    2  C   UNL     1      81.491 -12.318   6.023  1.00  0.00     0.188 A 
HETATM    3  N   UNL     1      82.144 -13.058   5.171  1.00  0.00    -0.346 N 
ATOM      4  HN  UNL     1      82.739 -13.861   5.374  1.00  0.00     0.167 HD
HETATM    5  C   UNL     1      81.855 -12.520   3.939  1.00  0.00     0.122 A 
HETATM    6  C   UNL     1      82.240 -12.865   2.623  1.00  0.00     0.131 A 
HETATM    7  N   UNL     1      81.761 -12.130   1.615  1.00  0.00    -0.337 N 
ATOM      8  HN  UNL     1      82.018 -12.328   0.648  1.00  0.00     0.168 HD
HETATM    9  C   UNL     1      80.937 -11.131   1.920  1.00  0.00     0.183 A 
HETATM   10  N   UNL     1      80.517 -10.707   3.100  1.00  0.00    -0.336 N 
ATOM     11  HN  UNL     1      79.896  -9.908   3.235  1.00  0.00     0.168 HD
HETATM   12  C   UNL     1      81.001 -11.445   4.082  1.00  0.00     0.142 A 
ENDROOT
BRANCH   1  13
HETATM   13  C   UNL     1      79.947 -10.344   6.081  1.00  0.00     0.262 C 
HETATM   14  C   UNL     1      78.466 -10.662   5.860  1.00  0.00     0.198 C 
HETATM   15  C   UNL     1      77.808  -9.982   7.080  1.00  0.00     0.180 C 
HETATM   16  C   UNL     1      78.939  -9.819   8.107  1.00  0.00     0.165 C 
HETATM   17  O   UNL     1      80.071 -10.428   7.472  1.00  0.00    -0.355 OA
BRANCH  14  18
HETATM   18  O   UNL     1      77.962 -10.259   4.616  1.00  0.00    -0.388 OA
ATOM     19  HO  UNL     1      78.230  -9.388   4.345  1.00  0.00     0.210 HD
ENDBRANCH  14  18
BRANCH  15  20
HETATM   20  O   UNL     1      77.277  -8.736   6.701  1.00  0.00    -0.390 OA
ATOM     21  HO  UNL     1      76.328  -8.783   6.686  1.00  0.00     0.210 HD
ENDBRANCH  15  20
BRANCH  16  22
HETATM   22  C   UNL     1      78.533 -10.493   9.432  1.00  0.00     0.108 C 
BRANCH  22  23
HETATM   23  S   UNL     1      76.899 -10.014  10.075  1.00  0.00    -0.171 SA
HETATM   24  C   UNL     1      76.598 -11.273  11.374  1.00  0.00     0.089 C 
ENDBRANCH  22  23
ENDBRANCH  16  22
ENDBRANCH   1  13
BRANCH   6  25
HETATM   25  N   UNL     1      83.053 -13.883   2.342  1.00  0.00    -0.383 N 
ATOM     26  HN2 UNL     1      84.065 -13.785   2.262  1.00  0.00     0.157 HD
ATOM     27  HN1 UNL     1      82.648 -14.808   2.199  1.00  0.00     0.157 HD
ENDBRANCH   6  25
TORSDOF 6
ENDMDL
MODEL 18
REMARK VINA RESULT:    -6.018      5.100      7.235
REMARK INTER + INTRA:          -8.015
REMARK INTER:                  -7.318
REMARK INTRA:                  -0.697
REMARK UNBOUND:                -0.414
REMARK  6 active torsions:
REMARK  status: ('A' for Active; 'I' for Inactive)
REMARK    1  A    between atoms: S_2  and  C_3 
REMARK    2  A    between atoms: C_3  and  C_4 
REMARK    3  A    between atoms: C_6  and  O_7 
REMARK    4  A    between atoms: C_9  and  O_10 
REMARK    5  A    between atoms: C_12  and  N_13 
REMARK    6  A    between atoms: C_18  and  N_19 
ROOT
HETATM    1  N   UNL     1      80.222 -11.916   5.816  1.00  0.00    -0.297 N 
HETATM    2  C   UNL     1      80.861 -13.083   5.533  1.00  0.00     0.188 A 
HETATM    3  N   UNL     1      81.259 -13.160   4.294  1.00  0.00    -0.346 N 
ATOM      4  HN  UNL     1      81.758 -13.930   3.848  1.00  0.00     0.167 HD
HETATM    5  C   UNL     1      80.859 -11.977   3.720  1.00  0.00     0.122 A 
HETATM    6  C   UNL     1      80.978 -11.452   2.411  1.00  0.00     0.131 A 
HETATM    7  N   UNL     1      80.456 -10.247   2.167  1.00  0.00    -0.337 N 
ATOM      8  HN  UNL     1      80.526  -9.817   1.245  1.00  0.00     0.168 HD
HETATM    9  C   UNL     1      79.842  -9.628   3.173  1.00  0.00     0.183 A 
HETATM   10  N   UNL     1      79.678 -10.006   4.430  1.00  0.00    -0.336 N 
ATOM     11  HN  UNL     1      79.206  -9.446   5.141  1.00  0.00     0.168 HD
HETATM   12  C   UNL     1      80.200 -11.199   4.650  1.00  0.00     0.142 A 
ENDROOT
BRANCH   1  13
HETATM   13  C   UNL     1      79.644 -11.530   7.079  1.00  0.00     0.262 C 
HETATM   14  C   UNL     1      80.578 -10.589   7.845  1.00  0.00     0.198 C 
HETATM   15  C   UNL     1      79.588  -9.824   8.749  1.00  0.00     0.180 C 
HETATM   16  C   UNL     1      78.217  -9.992   8.077  1.00  0.00     0.165 C 
HETATM   17  O   UNL     1      78.506 -10.737   6.888  1.00  0.00    -0.355 OA
BRANCH  14  18
HETATM   18  O   UNL     1      81.624 -11.230   8.522  1.00  0.00    -0.388 OA
ATOM     19  HO  UNL     1      82.157 -11.799   7.978  1.00  0.00     0.210 HD
ENDBRANCH  14  18
BRANCH  15  20
HETATM   20  O   UNL     1      79.597 -10.380  10.042  1.00  0.00    -0.390 OA
ATOM     21  HO  UNL     1      79.786 -11.310   9.989  1.00  0.00     0.210 HD
ENDBRANCH  15  20
BRANCH  16  22
HETATM   22  C   UNL     1      77.602  -8.605   7.807  1.00  0.00     0.108 C 
BRANCH  22  23
HETATM   23  S   UNL     1      75.783  -8.544   7.846  1.00  0.00    -0.171 SA
HETATM   24  C   UNL     1      75.339  -8.805   6.086  1.00  0.00     0.089 C 
ENDBRANCH  22  23
ENDBRANCH  16  22
ENDBRANCH   1  13
BRANCH   6  25
HETATM   25  N   UNL     1      81.583 -12.100   1.416  1.00  0.00    -0.383 N 
ATOM     26  HN2 UNL     1      82.119 -12.957   1.551  1.00  0.00     0.157 HD
ATOM     27  HN1 UNL     1      81.509 -11.723   0.471  1.00  0.00     0.157 HD
ENDBRANCH   6  25
TORSDOF 6
ENDMDL
MODEL 19
REMARK VINA RESULT:    -6.005      5.159      7.333
REMARK INTER + INTRA:          -7.999
REMARK INTER:                  -7.195
REMARK INTRA:                  -0.804
REMARK UNBOUND:                -0.414
REMARK  6 active torsions:
REMARK  status: ('A' for Active; 'I' for Inactive)
REMARK    1  A    between atoms: S_2  and  C_3 
REMARK    2  A    between atoms: C_3  and  C_4 
REMARK    3  A    between atoms: C_6  and  O_7 
REMARK    4  A    between atoms: C_9  and  O_10 
REMARK    5  A    between atoms: C_12  and  N_13 
REMARK    6  A    between atoms: C_18  and  N_19 
ROOT
HETATM    1  N   UNL     1      86.624 -18.121   2.668  1.00  0.00    -0.297 N 
HETATM    2  C   UNL     1      86.063 -17.822   1.466  1.00  0.00     0.188 A 
HETATM    3  N   UNL     1      85.396 -16.702   1.478  1.00  0.00    -0.346 N 
ATOM      4  HN  UNL     1      84.893 -16.270   0.703  1.00  0.00     0.167 HD
HETATM    5  C   UNL     1      85.519 -16.231   2.764  1.00  0.00     0.122 A 
HETATM    6  C   UNL     1      85.024 -15.079   3.419  1.00  0.00     0.131 A 
HETATM    7  N   UNL     1      85.318 -14.917   4.712  1.00  0.00    -0.337 N 
ATOM      8  HN  UNL     1      84.998 -14.098   5.228  1.00  0.00     0.168 HD
HETATM    9  C   UNL     1      86.045 -15.864   5.301  1.00  0.00     0.183 A 
HETATM   10  N   UNL     1      86.569 -16.968   4.797  1.00  0.00    -0.336 N 
ATOM     11  HN  UNL     1      87.137 -17.628   5.329  1.00  0.00     0.168 HD
HETATM   12  C   UNL     1      86.268 -17.110   3.519  1.00  0.00     0.142 A 
ENDROOT
BRANCH   1  13
HETATM   13  C   UNL     1      87.401 -19.292   2.994  1.00  0.00     0.262 C 
HETATM   14  C   UNL     1      88.890 -18.950   3.095  1.00  0.00     0.198 C 
HETATM   15  C   UNL     1      89.409 -20.063   4.031  1.00  0.00     0.180 C 
HETATM   16  C   UNL     1      88.165 -20.580   4.770  1.00  0.00     0.165 C 
HETATM   17  O   UNL     1      87.106 -19.746   4.285  1.00  0.00    -0.355 OA
BRANCH  14  18
HETATM   18  O   UNL     1      89.551 -18.858   1.862  1.00  0.00    -0.388 OA
ATOM     19  HO  UNL     1      90.386 -18.405   1.895  1.00  0.00     0.210 HD
ENDBRANCH  14  18
BRANCH  15  20
HETATM   20  O   UNL     1      90.012 -21.081   3.269  1.00  0.00    -0.390 OA
ATOM     21  HO  UNL     1      90.862 -20.790   2.960  1.00  0.00     0.210 HD
ENDBRANCH  15  20
BRANCH  16  22
HETATM   22  C   UNL     1      88.391 -20.477   6.291  1.00  0.00     0.108 C 
BRANCH  22  23
HETATM   23  S   UNL     1      88.873 -18.827   6.891  1.00  0.00    -0.171 SA
HETATM   24  C   UNL     1      87.495 -18.398   8.023  1.00  0.00     0.089 C 
ENDBRANCH  22  23
ENDBRANCH  16  22
ENDBRANCH   1  13
BRANCH   6  25
HETATM   25  N   UNL     1      84.283 -14.153   2.811  1.00  0.00    -0.383 N 
ATOM     26  HN2 UNL     1      83.336 -13.914   3.103  1.00  0.00     0.157 HD
ATOM     27  HN1 UNL     1      84.679 -13.657   2.013  1.00  0.00     0.157 HD
ENDBRANCH   6  25
TORSDOF 6
ENDMDL
MODEL 20
REMARK VINA RESULT:    -6.000      2.999      4.679
REMARK INTER + INTRA:          -7.993
REMARK INTER:                  -7.374
REMARK INTRA:                  -0.619
REMARK UNBOUND:                -0.414
REMARK  6 active torsions:
REMARK  status: ('A' for Active; 'I' for Inactive)
REMARK    1  A    between atoms: S_2  and  C_3 
REMARK    2  A    between atoms: C_3  and  C_4 
REMARK    3  A    between atoms: C_6  and  O_7 
REMARK    4  A    between atoms: C_9  and  O_10 
REMARK    5  A    between atoms: C_12  and  N_13 
REMARK    6  A    between atoms: C_18  and  N_19 
ROOT
HETATM    1  N   UNL     1      85.137 -15.409   3.456  1.00  0.00    -0.297 N 
HETATM    2  C   UNL     1      84.418 -15.615   2.319  1.00  0.00     0.188 A 
HETATM    3  N   UNL     1      83.508 -14.703   2.120  1.00  0.00    -0.346 N 
ATOM      4  HN  UNL     1      82.851 -14.640   1.343  1.00  0.00     0.167 HD
HETATM    5  C   UNL     1      83.628 -13.844   3.187  1.00  0.00     0.122 A 
HETATM    6  C   UNL     1      82.933 -12.670   3.561  1.00  0.00     0.131 A 
HETATM    7  N   UNL     1      83.293 -12.061   4.694  1.00  0.00    -0.337 N 
ATOM      8  HN  UNL     1      82.834 -11.205   5.003  1.00  0.00     0.168 HD
HETATM    9  C   UNL     1      84.272 -12.615   5.406  1.00  0.00     0.183 A 
HETATM   10  N   UNL     1      84.998 -13.692   5.157  1.00  0.00    -0.336 N 
ATOM     11  HN  UNL     1      85.750 -14.029   5.759  1.00  0.00     0.168 HD
HETATM   12  C   UNL     1      84.628 -14.278   4.033  1.00  0.00     0.142 A 
ENDROOT
BRANCH   1  13
HETATM   13  C   UNL     1      86.195 -16.242   3.972  1.00  0.00     0.262 C 
HETATM   14  C   UNL     1      85.641 -17.301   4.930  1.00  0.00     0.198 C 
HETATM   15  C   UNL     1      86.716 -18.405   4.841  1.00  0.00     0.180 C 
HETATM   16  C   UNL     1      87.455 -18.141   3.520  1.00  0.00     0.165 C 
HETATM   17  O   UNL     1      86.762 -17.020   2.956  1.00  0.00    -0.355 OA
BRANCH  14  18
HETATM   18  O   UNL     1      85.379 -16.833   6.226  1.00  0.00    -0.388 OA
ATOM     19  HO  UNL     1      84.458 -16.811   6.458  1.00  0.00     0.210 HD
ENDBRANCH  14  18
BRANCH  15  20
HETATM   20  O   UNL     1      87.587 -18.312   5.943  1.00  0.00    -0.390 OA
ATOM     21  HO  UNL     1      87.449 -17.486   6.391  1.00  0.00     0.210 HD
ENDBRANCH  15  20
BRANCH  16  22
HETATM   22  C   UNL     1      87.408 -19.406   2.642  1.00  0.00     0.108 C 
BRANCH  22  23
HETATM   23  S   UNL     1      86.716 -20.884   3.451  1.00  0.00    -0.171 SA
HETATM   24  C   UNL     1      88.218 -21.859   3.846  1.00  0.00     0.089 C 
ENDBRANCH  22  23
ENDBRANCH  16  22
ENDBRANCH   1  13
BRANCH   6  25
HETATM   25  N   UNL     1      81.943 -12.145   2.840  1.00  0.00    -0.383 N 
ATOM     26  HN2 UNL     1      81.999 -12.005   1.831  1.00  0.00     0.157 HD
ATOM     27  HN1 UNL     1      81.085 -11.867   3.316  1.00  0.00     0.157 HD
ENDBRANCH   6  25
TORSDOF 6
ENDMDL
