REMARK  4 active torsions:
REMARK  status: ('A' for Active; 'I' for Inactive)
REMARK    1  A    between atoms: C_6  and  C_19 
REMARK    2  A    between atoms: C_7  and  C_26 
REMARK       I    between atoms: C_7  and  N_24 
REMARK    3  A    between atoms: C_13  and  C_14 
REMARK    4  A    between atoms: C_30  and  C_31 
ROOT
HETATM    1  C   UNL     1       4.477  11.616  -4.515  1.00  0.00     0.005 A 
HETATM    2  C   UNL     1       4.087  10.925  -5.691  1.00  0.00     0.033 A 
HETATM    3  C   UNL     1       2.734  11.028  -6.160  1.00  0.00     0.075 A 
HETATM    4  C   UNL     1       1.793  11.812  -5.426  1.00  0.00     0.060 A 
HETATM    5  C   UNL     1       2.194  12.457  -4.215  1.00  0.00     0.131 A 
HETATM    6  C   UNL     1       0.512  11.701  -6.179  1.00  0.00     0.077 A 
HETATM    7  C   UNL     1       2.504   9.714  -8.246  1.00  0.00     0.279 C 
HETATM    8  F   UNL     1       1.324  13.220  -3.535  1.00  0.00    -0.205 F 
HETATM    9  C   UNL     1       3.524  12.342  -3.768  1.00  0.00     0.043 A 
HETATM   10  N   UNL     1       0.743  10.989  -7.237  1.00  0.00    -0.289 N 
ATOM     11  HN  UNL     1       0.050  10.800  -7.962  1.00  0.00     0.188 HD
HETATM   12  N   UNL     1       2.033  10.520  -7.264  1.00  0.00    -0.218 N 
HETATM   13  O   UNL     1       3.652   9.293  -8.229  1.00  0.00    -0.265 OA
ENDROOT
BRANCH   7  14
HETATM   14  C   UNL     1       1.563   9.271  -9.334  1.00  0.00     0.070 A 
HETATM   15  C   UNL     1       0.504   8.333  -9.002  1.00  0.00     0.050 A 
HETATM   16 CL   UNL     1       0.368   7.733  -7.382  1.00  0.00    -0.083 Cl
HETATM   17  C   UNL     1      -0.413   7.924  -9.978  1.00  0.00     0.025 A 
HETATM   18  C   UNL     1      -0.314   8.408 -11.314  1.00  0.00     0.003 A 
HETATM   19  C   UNL     1       0.685   9.361 -11.660  1.00  0.00     0.017 A 
HETATM   20  C   UNL     1       1.618   9.831 -10.665  1.00  0.00     0.065 A 
BRANCH  20  21
HETATM   21  C   UNL     1       2.650  10.918 -11.033  1.00  0.00     0.418 C 
HETATM   22  F   UNL     1       3.854  10.356 -11.218  1.00  0.00    -0.166 F 
HETATM   23  F   UNL     1       2.739  11.851 -10.022  1.00  0.00    -0.166 F 
HETATM   24  F   UNL     1       2.253  11.564 -12.174  1.00  0.00    -0.166 F 
ENDBRANCH  20  21
ENDBRANCH   7  14
BRANCH   6  25
HETATM   25  C   UNL     1      -0.785  12.292  -5.857  1.00  0.00     0.032 A 
HETATM   26  C   UNL     1      -1.952  11.440  -5.804  1.00  0.00     0.018 A 
HETATM   27  C   UNL     1      -3.189  12.008  -5.552  1.00  0.00     0.019 A 
HETATM   28  C   UNL     1      -3.291  13.432  -5.359  1.00  0.00     0.043 A 
HETATM   29  C   UNL     1      -2.124  14.250  -5.426  1.00  0.00     0.061 A 
HETATM   30  C   UNL     1      -0.912  13.698  -5.677  1.00  0.00     0.130 A 
HETATM   31  F   UNL     1       0.183  14.494  -5.757  1.00  0.00    -0.205 F 
BRANCH  28  32
HETATM   32  C   UNL     1      -4.564  14.050  -5.099  1.00  0.00     0.209 C 
HETATM   33  O   UNL     1      -5.580  13.382  -5.006  1.00  0.00    -0.644 OA
HETATM   34  O   UNL     1      -4.641  15.383  -5.031  1.00  0.00    -0.644 OA
ENDBRANCH  28  32
ENDBRANCH   6  25
TORSDOF 4
