MODEL 1
REMARK VINA RESULT:    -7.072      0.000      0.000
REMARK INTER + INTRA:         -10.514
REMARK INTER:                 -10.172
REMARK INTRA:                  -0.342
REMARK UNBOUND:                -0.342
REMARK  10 active torsions:
REMARK  status: ('A' for Active; 'I' for Inactive)
REMARK    1  A    between atoms: C_1  and  C_2 
REMARK    2  A    between atoms: C_2  and  O_9 
REMARK    3  A    between atoms: C_2  and  C_3 
REMARK    4  A    between atoms: C_3  and  C_4 
REMARK    5  A    between atoms: C_3  and  O_11 
REMARK    6  A    between atoms: C_4  and  O_13 
REMARK    7  A    between atoms: C_4  and  C_5 
REMARK    8  A    between atoms: C_5  and  O_15 
REMARK    9  A    between atoms: C_5  and  C_6 
REMARK   10  A    between atoms: C_6  and  O_17 
ROOT
HETATM    1  C   UNL     1     -20.129   3.979  -4.024  1.00  0.00     0.188 C 
ENDROOT
BRANCH   1   2
HETATM    2  C   UNL     1     -20.190   5.438  -3.554  1.00  0.00     0.180 C 
BRANCH   2   3
HETATM    3  O   UNL     1     -20.696   6.291  -4.573  1.00  0.00    -0.390 OA
ATOM      4  HO  UNL     1     -21.138   7.058  -4.228  1.00  0.00     0.210 HD
ENDBRANCH   2   3
BRANCH   2   5
HETATM    5  C   UNL     1     -18.815   5.865  -3.052  1.00  0.00     0.173 C 
BRANCH   5   6
HETATM    6  O   UNL     1     -18.917   6.712  -1.905  1.00  0.00    -0.391 OA
ATOM      7  HO  UNL     1     -18.142   6.652  -1.359  1.00  0.00     0.210 HD
ENDBRANCH   5   6
BRANCH   5   8
HETATM    8  C   UNL     1     -18.152   6.709  -4.130  1.00  0.00     0.198 C 
BRANCH   8   9
HETATM    9  O   UNL     1     -18.272   8.049  -3.691  1.00  0.00    -0.398 OA
ATOM     10  HO  UNL     1     -18.682   8.001  -2.835  1.00  0.00     0.209 HD
ENDBRANCH   8   9
ENDBRANCH   5   8
ENDBRANCH   2   5
ENDBRANCH   1   2
BRANCH   1  11
HETATM   11  O   UNL     1     -19.701   3.870  -5.354  1.00  0.00    -0.390 OA
ATOM     12  HO  UNL     1     -18.878   4.319  -5.504  1.00  0.00     0.210 HD
ENDBRANCH   1  11
BRANCH   1  13
HETATM   13  C   UNL     1     -21.580   3.490  -4.022  1.00  0.00     0.250 C 
BRANCH  13  14
HETATM   14  O   UNL     1     -21.764   2.430  -4.952  1.00  0.00    -0.382 OA
ATOM     15  HO  UNL     1     -21.098   2.452  -5.630  1.00  0.00     0.210 HD
ENDBRANCH  13  14
BRANCH  13  16
HETATM   16  C   UNL     1     -22.093   2.886  -2.723  1.00  0.00     0.205 C 
HETATM   17  O   UNL     1     -22.522   3.656  -1.805  1.00  0.00    -0.646 OA
HETATM   18  O   UNL     1     -22.084   1.645  -2.570  1.00  0.00    -0.646 OA
ENDBRANCH  13  16
ENDBRANCH   1  13
TORSDOF 10
ENDMDL
MODEL 2
REMARK VINA RESULT:    -6.187      1.082      5.073
REMARK INTER + INTRA:          -9.241
REMARK INTER:                  -8.730
REMARK INTRA:                  -0.512
REMARK UNBOUND:                -0.342
REMARK  10 active torsions:
REMARK  status: ('A' for Active; 'I' for Inactive)
REMARK    1  A    between atoms: C_1  and  C_2 
REMARK    2  A    between atoms: C_2  and  O_9 
REMARK    3  A    between atoms: C_2  and  C_3 
REMARK    4  A    between atoms: C_3  and  C_4 
REMARK    5  A    between atoms: C_3  and  O_11 
REMARK    6  A    between atoms: C_4  and  O_13 
REMARK    7  A    between atoms: C_4  and  C_5 
REMARK    8  A    between atoms: C_5  and  O_15 
REMARK    9  A    between atoms: C_5  and  C_6 
REMARK   10  A    between atoms: C_6  and  O_17 
ROOT
HETATM    1  C   UNL     1     -19.682   5.401  -3.339  1.00  0.00     0.188 C 
ENDROOT
BRANCH   1   2
HETATM    2  C   UNL     1     -21.131   4.916  -3.478  1.00  0.00     0.180 C 
BRANCH   2   3
HETATM    3  O   UNL     1     -21.935   5.372  -2.398  1.00  0.00    -0.390 OA
ATOM      4  HO  UNL     1     -22.742   4.878  -2.304  1.00  0.00     0.210 HD
ENDBRANCH   2   3
BRANCH   2   5
HETATM    5  C   UNL     1     -21.143   3.398  -3.626  1.00  0.00     0.173 C 
BRANCH   5   6
HETATM    6  O   UNL     1     -21.643   3.002  -4.906  1.00  0.00    -0.391 OA
ATOM      7  HO  UNL     1     -21.713   2.057  -4.974  1.00  0.00     0.210 HD
ENDBRANCH   5   6
BRANCH   5   8
HETATM    8  C   UNL     1     -22.117   2.824  -2.608  1.00  0.00     0.198 C 
BRANCH   8   9
HETATM    9  O   UNL     1     -22.051   1.420  -2.769  1.00  0.00    -0.398 OA
ATOM     10  HO  UNL     1     -21.126   1.206  -2.762  1.00  0.00     0.209 HD
ENDBRANCH   8   9
ENDBRANCH   5   8
ENDBRANCH   2   5
ENDBRANCH   1   2
BRANCH   1  11
HETATM   11  O   UNL     1     -19.510   6.245  -2.234  1.00  0.00    -0.390 OA
ATOM     12  HO  UNL     1     -19.194   5.777  -1.470  1.00  0.00     0.210 HD
ENDBRANCH   1  11
BRANCH   1  13
HETATM   13  C   UNL     1     -19.428   6.279  -4.567  1.00  0.00     0.250 C 
BRANCH  13  14
HETATM   14  O   UNL     1     -20.594   7.009  -4.924  1.00  0.00    -0.382 OA
ATOM     15  HO  UNL     1     -21.338   6.744  -4.394  1.00  0.00     0.210 HD
ENDBRANCH  13  14
BRANCH  13  16
HETATM   16  C   UNL     1     -18.383   7.375  -4.415  1.00  0.00     0.205 C 
HETATM   17  O   UNL     1     -18.731   8.591  -4.554  1.00  0.00    -0.646 OA
HETATM   18  O   UNL     1     -17.196   7.070  -4.161  1.00  0.00    -0.646 OA
ENDBRANCH  13  16
ENDBRANCH   1  13
TORSDOF 10
ENDMDL
MODEL 3
REMARK VINA RESULT:    -5.940      1.511      4.128
REMARK INTER + INTRA:          -8.886
REMARK INTER:                  -8.299
REMARK INTRA:                  -0.588
REMARK UNBOUND:                -0.342
REMARK  10 active torsions:
REMARK  status: ('A' for Active; 'I' for Inactive)
REMARK    1  A    between atoms: C_1  and  C_2 
REMARK    2  A    between atoms: C_2  and  O_9 
REMARK    3  A    between atoms: C_2  and  C_3 
REMARK    4  A    between atoms: C_3  and  C_4 
REMARK    5  A    between atoms: C_3  and  O_11 
REMARK    6  A    between atoms: C_4  and  O_13 
REMARK    7  A    between atoms: C_4  and  C_5 
REMARK    8  A    between atoms: C_5  and  O_15 
REMARK    9  A    between atoms: C_5  and  C_6 
REMARK   10  A    between atoms: C_6  and  O_17 
ROOT
HETATM    1  C   UNL     1     -21.495   3.522  -4.199  1.00  0.00     0.188 C 
ENDROOT
BRANCH   1   2
HETATM    2  C   UNL     1     -21.860   3.424  -2.712  1.00  0.00     0.180 C 
BRANCH   2   3
HETATM    3  O   UNL     1     -22.396   2.146  -2.392  1.00  0.00    -0.390 OA
ATOM      4  HO  UNL     1     -23.277   2.193  -2.040  1.00  0.00     0.210 HD
ENDBRANCH   2   3
BRANCH   2   5
HETATM    5  C   UNL     1     -22.799   4.569  -2.346  1.00  0.00     0.173 C 
BRANCH   5   6
HETATM    6  O   UNL     1     -22.890   5.528  -3.401  1.00  0.00    -0.391 OA
ATOM      7  HO  UNL     1     -23.188   5.129  -4.209  1.00  0.00     0.210 HD
ENDBRANCH   5   6
BRANCH   5   8
HETATM    8  C   UNL     1     -22.206   5.315  -1.160  1.00  0.00     0.198 C 
BRANCH   8   9
HETATM    9  O   UNL     1     -23.128   5.139  -0.101  1.00  0.00    -0.398 OA
ATOM     10  HO  UNL     1     -22.985   4.256   0.218  1.00  0.00     0.209 HD
ENDBRANCH   8   9
ENDBRANCH   5   8
ENDBRANCH   2   5
ENDBRANCH   1   2
BRANCH   1  11
HETATM   11  O   UNL     1     -21.726   2.319  -4.880  1.00  0.00    -0.390 OA
ATOM     12  HO  UNL     1     -22.099   1.653  -4.316  1.00  0.00     0.210 HD
ENDBRANCH   1  11
BRANCH   1  13
HETATM   13  C   UNL     1     -19.979   3.726  -4.234  1.00  0.00     0.250 C 
BRANCH  13  14
HETATM   14  O   UNL     1     -19.467   3.533  -5.546  1.00  0.00    -0.382 OA
ATOM     15  HO  UNL     1     -19.373   4.363  -6.001  1.00  0.00     0.210 HD
ENDBRANCH  13  14
BRANCH  13  16
HETATM   16  C   UNL     1     -19.470   5.115  -3.878  1.00  0.00     0.205 C 
HETATM   17  O   UNL     1     -18.462   5.232  -3.110  1.00  0.00    -0.646 OA
HETATM   18  O   UNL     1     -20.048   6.124  -4.339  1.00  0.00    -0.646 OA
ENDBRANCH  13  16
ENDBRANCH   1  13
TORSDOF 10
ENDMDL
MODEL 4
REMARK VINA RESULT:    -5.884      1.404      2.028
REMARK INTER + INTRA:          -8.805
REMARK INTER:                  -8.464
REMARK INTRA:                  -0.341
REMARK UNBOUND:                -0.342
REMARK  10 active torsions:
REMARK  status: ('A' for Active; 'I' for Inactive)
REMARK    1  A    between atoms: C_1  and  C_2 
REMARK    2  A    between atoms: C_2  and  O_9 
REMARK    3  A    between atoms: C_2  and  C_3 
REMARK    4  A    between atoms: C_3  and  C_4 
REMARK    5  A    between atoms: C_3  and  O_11 
REMARK    6  A    between atoms: C_4  and  O_13 
REMARK    7  A    between atoms: C_4  and  C_5 
REMARK    8  A    between atoms: C_5  and  O_15 
REMARK    9  A    between atoms: C_5  and  C_6 
REMARK   10  A    between atoms: C_6  and  O_17 
ROOT
HETATM    1  C   UNL     1     -19.878   3.206  -4.280  1.00  0.00     0.188 C 
ENDROOT
BRANCH   1   2
HETATM    2  C   UNL     1     -19.365   4.651  -4.225  1.00  0.00     0.180 C 
BRANCH   2   3
HETATM    3  O   UNL     1     -18.197   4.757  -3.421  1.00  0.00    -0.390 OA
ATOM      4  HO  UNL     1     -18.073   5.628  -3.063  1.00  0.00     0.210 HD
ENDBRANCH   2   3
BRANCH   2   5
HETATM    5  C   UNL     1     -20.490   5.569  -3.759  1.00  0.00     0.173 C 
BRANCH   5   6
HETATM    6  O   UNL     1     -20.589   6.734  -4.580  1.00  0.00    -0.391 OA
ATOM      7  HO  UNL     1     -21.306   6.664  -5.199  1.00  0.00     0.210 HD
ENDBRANCH   5   6
BRANCH   5   8
HETATM    8  C   UNL     1     -20.151   6.074  -2.364  1.00  0.00     0.198 C 
BRANCH   8   9
HETATM    9  O   UNL     1     -21.344   5.953  -1.615  1.00  0.00    -0.398 OA
ATOM     10  HO  UNL     1     -21.091   5.545  -0.796  1.00  0.00     0.209 HD
ENDBRANCH   8   9
ENDBRANCH   5   8
ENDBRANCH   2   5
ENDBRANCH   1   2
BRANCH   1  11
HETATM   11  O   UNL     1     -19.660   2.614  -5.531  1.00  0.00    -0.390 OA
ATOM     12  HO  UNL     1     -18.806   2.203  -5.590  1.00  0.00     0.210 HD
ENDBRANCH   1  11
BRANCH   1  13
HETATM   13  C   UNL     1     -21.398   3.308  -4.135  1.00  0.00     0.250 C 
BRANCH  13  14
HETATM   14  O   UNL     1     -22.059   2.603  -5.178  1.00  0.00    -0.382 OA
ATOM     15  HO  UNL     1     -21.448   2.064  -5.667  1.00  0.00     0.210 HD
ENDBRANCH  13  14
BRANCH  13  16
HETATM   16  C   UNL     1     -22.005   2.694  -2.882  1.00  0.00     0.205 C 
HETATM   17  O   UNL     1     -22.470   3.459  -1.976  1.00  0.00    -0.646 OA
HETATM   18  O   UNL     1     -22.040   1.450  -2.754  1.00  0.00    -0.646 OA
ENDBRANCH  13  16
ENDBRANCH   1  13
TORSDOF 10
ENDMDL
MODEL 5
REMARK VINA RESULT:    -5.874      2.171      3.604
REMARK INTER + INTRA:          -8.792
REMARK INTER:                  -8.112
REMARK INTRA:                  -0.680
REMARK UNBOUND:                -0.342
REMARK  10 active torsions:
REMARK  status: ('A' for Active; 'I' for Inactive)
REMARK    1  A    between atoms: C_1  and  C_2 
REMARK    2  A    between atoms: C_2  and  O_9 
REMARK    3  A    between atoms: C_2  and  C_3 
REMARK    4  A    between atoms: C_3  and  C_4 
REMARK    5  A    between atoms: C_3  and  O_11 
REMARK    6  A    between atoms: C_4  and  O_13 
REMARK    7  A    between atoms: C_4  and  C_5 
REMARK    8  A    between atoms: C_5  and  O_15 
REMARK    9  A    between atoms: C_5  and  C_6 
REMARK   10  A    between atoms: C_6  and  O_17 
ROOT
HETATM    1  C   UNL     1     -21.576   3.384  -2.611  1.00  0.00     0.188 C 
ENDROOT
BRANCH   1   2
HETATM    2  C   UNL     1     -21.138   3.341  -4.081  1.00  0.00     0.180 C 
BRANCH   2   3
HETATM    3  O   UNL     1     -21.771   2.276  -4.779  1.00  0.00    -0.390 OA
ATOM      4  HO  UNL     1     -21.299   1.455  -4.706  1.00  0.00     0.210 HD
ENDBRANCH   2   3
BRANCH   2   5
HETATM    5  C   UNL     1     -19.616   3.275  -4.152  1.00  0.00     0.173 C 
BRANCH   5   6
HETATM    6  O   UNL     1     -19.013   4.399  -3.507  1.00  0.00    -0.391 OA
ATOM      7  HO  UNL     1     -19.539   5.183  -3.611  1.00  0.00     0.210 HD
ENDBRANCH   5   6
BRANCH   5   8
HETATM    8  C   UNL     1     -19.199   3.365  -5.612  1.00  0.00     0.198 C 
BRANCH   8   9
HETATM    9  O   UNL     1     -19.019   2.029  -6.039  1.00  0.00    -0.398 OA
ATOM     10  HO  UNL     1     -18.570   2.086  -6.874  1.00  0.00     0.209 HD
ENDBRANCH   8   9
ENDBRANCH   5   8
ENDBRANCH   2   5
ENDBRANCH   1   2
BRANCH   1  11
HETATM   11  O   UNL     1     -22.785   2.708  -2.400  1.00  0.00    -0.390 OA
ATOM     12  HO  UNL     1     -23.537   3.224  -2.667  1.00  0.00     0.210 HD
ENDBRANCH   1  11
BRANCH   1  13
HETATM   13  C   UNL     1     -21.876   4.856  -2.319  1.00  0.00     0.250 C 
BRANCH  13  14
HETATM   14  O   UNL     1     -22.078   5.586  -3.522  1.00  0.00    -0.382 OA
ATOM     15  HO  UNL     1     -23.002   5.636  -3.740  1.00  0.00     0.210 HD
ENDBRANCH  13  14
BRANCH  13  16
HETATM   16  C   UNL     1     -23.146   5.150  -1.534  1.00  0.00     0.205 C 
HETATM   17  O   UNL     1     -24.183   5.551  -2.154  1.00  0.00    -0.646 OA
HETATM   18  O   UNL     1     -23.158   4.998  -0.293  1.00  0.00    -0.646 OA
ENDBRANCH  13  16
ENDBRANCH   1  13
TORSDOF 10
ENDMDL
MODEL 6
REMARK VINA RESULT:    -5.816      0.928      4.945
REMARK INTER + INTRA:          -8.708
REMARK INTER:                  -8.455
REMARK INTRA:                  -0.252
REMARK UNBOUND:                -0.342
REMARK  10 active torsions:
REMARK  status: ('A' for Active; 'I' for Inactive)
REMARK    1  A    between atoms: C_1  and  C_2 
REMARK    2  A    between atoms: C_2  and  O_9 
REMARK    3  A    between atoms: C_2  and  C_3 
REMARK    4  A    between atoms: C_3  and  C_4 
REMARK    5  A    between atoms: C_3  and  O_11 
REMARK    6  A    between atoms: C_4  and  O_13 
REMARK    7  A    between atoms: C_4  and  C_5 
REMARK    8  A    between atoms: C_5  and  O_15 
REMARK    9  A    between atoms: C_5  and  C_6 
REMARK   10  A    between atoms: C_6  and  O_17 
ROOT
HETATM    1  C   UNL     1     -20.299   5.465  -3.595  1.00  0.00     0.188 C 
ENDROOT
BRANCH   1   2
HETATM    2  C   UNL     1     -19.756   4.120  -4.093  1.00  0.00     0.180 C 
BRANCH   2   3
HETATM    3  O   UNL     1     -19.279   4.217  -5.430  1.00  0.00    -0.390 OA
ATOM      4  HO  UNL     1     -19.230   5.113  -5.740  1.00  0.00     0.210 HD
ENDBRANCH   2   3
BRANCH   2   5
HETATM    5  C   UNL     1     -20.827   3.048  -3.923  1.00  0.00     0.173 C 
BRANCH   5   6
HETATM    6  O   UNL     1     -21.693   2.989  -5.059  1.00  0.00    -0.391 OA
ATOM      7  HO  UNL     1     -22.414   3.601  -4.978  1.00  0.00     0.210 HD
ENDBRANCH   5   6
BRANCH   5   8
HETATM    8  C   UNL     1     -21.713   3.437  -2.749  1.00  0.00     0.198 C 
BRANCH   8   9
HETATM    9  O   UNL     1     -22.435   2.267  -2.415  1.00  0.00    -0.398 OA
ATOM     10  HO  UNL     1     -21.781   1.590  -2.292  1.00  0.00     0.209 HD
ENDBRANCH   8   9
ENDBRANCH   5   8
ENDBRANCH   2   5
ENDBRANCH   1   2
BRANCH   1  11
HETATM   11  O   UNL     1     -20.883   6.215  -4.625  1.00  0.00    -0.390 OA
ATOM     12  HO  UNL     1     -21.481   6.874  -4.294  1.00  0.00     0.210 HD
ENDBRANCH   1  11
BRANCH   1  13
HETATM   13  C   UNL     1     -19.068   6.263  -3.157  1.00  0.00     0.250 C 
BRANCH  13  14
HETATM   14  O   UNL     1     -17.984   5.399  -2.842  1.00  0.00    -0.382 OA
ATOM     15  HO  UNL     1     -17.719   5.499  -1.934  1.00  0.00     0.210 HD
ENDBRANCH  13  14
BRANCH  13  16
HETATM   16  C   UNL     1     -18.459   7.198  -4.191  1.00  0.00     0.205 C 
HETATM   17  O   UNL     1     -17.194   7.247  -4.319  1.00  0.00    -0.646 OA
HETATM   18  O   UNL     1     -19.205   7.908  -4.901  1.00  0.00    -0.646 OA
ENDBRANCH  13  16
ENDBRANCH   1  13
TORSDOF 10
ENDMDL
MODEL 7
REMARK VINA RESULT:    -5.807      2.379      4.232
REMARK INTER + INTRA:          -8.695
REMARK INTER:                  -8.127
REMARK INTRA:                  -0.568
REMARK UNBOUND:                -0.342
REMARK  10 active torsions:
REMARK  status: ('A' for Active; 'I' for Inactive)
REMARK    1  A    between atoms: C_1  and  C_2 
REMARK    2  A    between atoms: C_2  and  O_9 
REMARK    3  A    between atoms: C_2  and  C_3 
REMARK    4  A    between atoms: C_3  and  C_4 
REMARK    5  A    between atoms: C_3  and  O_11 
REMARK    6  A    between atoms: C_4  and  O_13 
REMARK    7  A    between atoms: C_4  and  C_5 
REMARK    8  A    between atoms: C_5  and  O_15 
REMARK    9  A    between atoms: C_5  and  C_6 
REMARK   10  A    between atoms: C_6  and  O_17 
ROOT
HETATM    1  C   UNL     1     -22.656   4.659  -2.496  1.00  0.00     0.188 C 
ENDROOT
BRANCH   1   2
HETATM    2  C   UNL     1     -21.261   4.556  -3.126  1.00  0.00     0.180 C 
BRANCH   2   3
HETATM    3  O   UNL     1     -20.926   5.739  -3.839  1.00  0.00    -0.390 OA
ATOM      4  HO  UNL     1     -20.391   6.338  -3.330  1.00  0.00     0.210 HD
ENDBRANCH   2   3
BRANCH   2   5
HETATM    5  C   UNL     1     -21.189   3.302  -3.991  1.00  0.00     0.173 C 
BRANCH   5   6
HETATM    6  O   UNL     1     -21.653   2.150  -3.283  1.00  0.00    -0.391 OA
ATOM      7  HO  UNL     1     -22.521   1.893  -3.569  1.00  0.00     0.210 HD
ENDBRANCH   5   6
BRANCH   5   8
HETATM    8  C   UNL     1     -19.729   3.026  -4.316  1.00  0.00     0.198 C 
BRANCH   8   9
HETATM    9  O   UNL     1     -19.718   2.567  -5.654  1.00  0.00    -0.398 OA
ATOM     10  HO  UNL     1     -20.125   3.258  -6.164  1.00  0.00     0.209 HD
ENDBRANCH   8   9
ENDBRANCH   5   8
ENDBRANCH   2   5
ENDBRANCH   1   2
BRANCH   1  11
HETATM   11  O   UNL     1     -23.457   5.613  -3.137  1.00  0.00    -0.390 OA
ATOM     12  HO  UNL     1     -22.962   6.143  -3.751  1.00  0.00     0.210 HD
ENDBRANCH   1  11
BRANCH   1  13
HETATM   13  C   UNL     1     -22.425   5.204  -1.084  1.00  0.00     0.250 C 
BRANCH  13  14
HETATM   14  O   UNL     1     -21.547   6.322  -1.104  1.00  0.00    -0.382 OA
ATOM     15  HO  UNL     1     -20.639   6.044  -1.060  1.00  0.00     0.210 HD
ENDBRANCH  13  14
BRANCH  13  16
HETATM   16  C   UNL     1     -23.644   5.752  -0.357  1.00  0.00     0.205 C 
HETATM   17  O   UNL     1     -24.037   5.188   0.714  1.00  0.00    -0.646 OA
HETATM   18  O   UNL     1     -24.249   6.745  -0.820  1.00  0.00    -0.646 OA
ENDBRANCH  13  16
ENDBRANCH   1  13
TORSDOF 10
ENDMDL
MODEL 8
REMARK VINA RESULT:    -5.750      2.688      4.603
REMARK INTER + INTRA:          -8.613
REMARK INTER:                  -8.192
REMARK INTRA:                  -0.422
REMARK UNBOUND:                -0.342
REMARK  10 active torsions:
REMARK  status: ('A' for Active; 'I' for Inactive)
REMARK    1  A    between atoms: C_1  and  C_2 
REMARK    2  A    between atoms: C_2  and  O_9 
REMARK    3  A    between atoms: C_2  and  C_3 
REMARK    4  A    between atoms: C_3  and  C_4 
REMARK    5  A    between atoms: C_3  and  O_11 
REMARK    6  A    between atoms: C_4  and  O_13 
REMARK    7  A    between atoms: C_4  and  C_5 
REMARK    8  A    between atoms: C_5  and  O_15 
REMARK    9  A    between atoms: C_5  and  C_6 
REMARK   10  A    between atoms: C_6  and  O_17 
ROOT
HETATM    1  C   UNL     1     -21.974   4.760  -1.927  1.00  0.00     0.188 C 
ENDROOT
BRANCH   1   2
HETATM    2  C   UNL     1     -23.462   5.124  -2.021  1.00  0.00     0.180 C 
BRANCH   2   3
HETATM    3  O   UNL     1     -23.750   5.818  -3.228  1.00  0.00    -0.390 OA
ATOM      4  HO  UNL     1     -23.746   6.762  -3.120  1.00  0.00     0.210 HD
ENDBRANCH   2   3
BRANCH   2   5
HETATM    5  C   UNL     1     -23.871   5.904  -0.776  1.00  0.00     0.173 C 
BRANCH   5   6
HETATM    6  O   UNL     1     -23.132   5.480   0.372  1.00  0.00    -0.391 OA
ATOM      7  HO  UNL     1     -22.941   6.209   0.951  1.00  0.00     0.210 HD
ENDBRANCH   5   6
BRANCH   5   8
HETATM    8  C   UNL     1     -25.327   5.589  -0.468  1.00  0.00     0.198 C 
BRANCH   8   9
HETATM    9  O   UNL     1     -25.300   4.724   0.651  1.00  0.00    -0.398 OA
ATOM     10  HO  UNL     1     -25.773   3.946   0.383  1.00  0.00     0.209 HD
ENDBRANCH   8   9
ENDBRANCH   5   8
ENDBRANCH   2   5
ENDBRANCH   1   2
BRANCH   1  11
HETATM   11  O   UNL     1     -21.177   5.869  -1.619  1.00  0.00    -0.390 OA
ATOM     12  HO  UNL     1     -21.557   6.682  -1.929  1.00  0.00     0.210 HD
ENDBRANCH   1  11
BRANCH   1  13
HETATM   13  C   UNL     1     -21.567   4.346  -3.344  1.00  0.00     0.250 C 
BRANCH  13  14
HETATM   14  O   UNL     1     -20.155   4.385  -3.502  1.00  0.00    -0.382 OA
ATOM     15  HO  UNL     1     -19.718   4.426  -2.659  1.00  0.00     0.210 HD
ENDBRANCH  13  14
BRANCH  13  16
HETATM   16  C   UNL     1     -21.909   2.923  -3.762  1.00  0.00     0.205 C 
HETATM   17  O   UNL     1     -21.973   2.012  -2.876  1.00  0.00    -0.646 OA
HETATM   18  O   UNL     1     -22.120   2.664  -4.967  1.00  0.00    -0.646 OA
ENDBRANCH  13  16
ENDBRANCH   1  13
TORSDOF 10
ENDMDL
MODEL 9
REMARK VINA RESULT:    -5.745      1.068      2.037
REMARK INTER + INTRA:          -8.606
REMARK INTER:                  -8.537
REMARK INTRA:                  -0.068
REMARK UNBOUND:                -0.342
REMARK  10 active torsions:
REMARK  status: ('A' for Active; 'I' for Inactive)
REMARK    1  A    between atoms: C_1  and  C_2 
REMARK    2  A    between atoms: C_2  and  O_9 
REMARK    3  A    between atoms: C_2  and  C_3 
REMARK    4  A    between atoms: C_3  and  C_4 
REMARK    5  A    between atoms: C_3  and  O_11 
REMARK    6  A    between atoms: C_4  and  O_13 
REMARK    7  A    between atoms: C_4  and  C_5 
REMARK    8  A    between atoms: C_5  and  O_15 
REMARK    9  A    between atoms: C_5  and  C_6 
REMARK   10  A    between atoms: C_6  and  O_17 
ROOT
HETATM    1  C   UNL     1     -20.343   5.091  -3.699  1.00  0.00     0.188 C 
ENDROOT
BRANCH   1   2
HETATM    2  C   UNL     1     -19.406   5.728  -2.664  1.00  0.00     0.180 C 
BRANCH   2   3
HETATM    3  O   UNL     1     -20.130   6.513  -1.725  1.00  0.00    -0.390 OA
ATOM      4  HO  UNL     1     -21.071   6.435  -1.826  1.00  0.00     0.210 HD
ENDBRANCH   2   3
BRANCH   2   5
HETATM    5  C   UNL     1     -18.320   6.519  -3.385  1.00  0.00     0.173 C 
BRANCH   5   6
HETATM    6  O   UNL     1     -18.198   7.842  -2.856  1.00  0.00    -0.391 OA
ATOM      7  HO  UNL     1     -18.952   8.375  -3.078  1.00  0.00     0.210 HD
ENDBRANCH   5   6
BRANCH   5   8
HETATM    8  C   UNL     1     -18.736   6.693  -4.838  1.00  0.00     0.198 C 
BRANCH   8   9
HETATM    9  O   UNL     1     -19.207   8.022  -4.942  1.00  0.00    -0.398 OA
ATOM     10  HO  UNL     1     -18.449   8.574  -4.795  1.00  0.00     0.209 HD
ENDBRANCH   8   9
ENDBRANCH   5   8
ENDBRANCH   2   5
ENDBRANCH   1   2
BRANCH   1  11
HETATM   11  O   UNL     1     -21.254   6.015  -4.228  1.00  0.00    -0.390 OA
ATOM     12  HO  UNL     1     -21.590   6.607  -3.566  1.00  0.00     0.210 HD
ENDBRANCH   1  11
BRANCH   1  13
HETATM   13  C   UNL     1     -21.190   4.085  -2.916  1.00  0.00     0.250 C 
BRANCH  13  14
HETATM   14  O   UNL     1     -22.356   4.703  -2.385  1.00  0.00    -0.382 OA
ATOM     15  HO  UNL     1     -22.375   5.630  -2.591  1.00  0.00     0.210 HD
ENDBRANCH  13  14
BRANCH  13  16
HETATM   16  C   UNL     1     -21.762   2.917  -3.705  1.00  0.00     0.205 C 
HETATM   17  O   UNL     1     -22.103   1.857  -3.090  1.00  0.00    -0.646 OA
HETATM   18  O   UNL     1     -21.888   3.008  -4.946  1.00  0.00    -0.646 OA
ENDBRANCH  13  16
ENDBRANCH   1  13
TORSDOF 10
ENDMDL
MODEL 10
REMARK VINA RESULT:    -5.675      1.208      2.335
REMARK INTER + INTRA:          -8.505
REMARK INTER:                  -7.803
REMARK INTRA:                  -0.703
REMARK UNBOUND:                -0.342
REMARK  10 active torsions:
REMARK  status: ('A' for Active; 'I' for Inactive)
REMARK    1  A    between atoms: C_1  and  C_2 
REMARK    2  A    between atoms: C_2  and  O_9 
REMARK    3  A    between atoms: C_2  and  C_3 
REMARK    4  A    between atoms: C_3  and  C_4 
REMARK    5  A    between atoms: C_3  and  O_11 
REMARK    6  A    between atoms: C_4  and  O_13 
REMARK    7  A    between atoms: C_4  and  C_5 
REMARK    8  A    between atoms: C_5  and  O_15 
REMARK    9  A    between atoms: C_5  and  C_6 
REMARK   10  A    between atoms: C_6  and  O_17 
ROOT
HETATM    1  C   UNL     1     -20.385   5.175  -4.590  1.00  0.00     0.188 C 
ENDROOT
BRANCH   1   2
HETATM    2  C   UNL     1     -18.910   5.295  -4.184  1.00  0.00     0.180 C 
BRANCH   2   3
HETATM    3  O   UNL     1     -18.544   4.281  -3.256  1.00  0.00    -0.390 OA
ATOM      4  HO  UNL     1     -18.601   3.407  -3.624  1.00  0.00     0.210 HD
ENDBRANCH   2   3
BRANCH   2   5
HETATM    5  C   UNL     1     -18.644   6.702  -3.659  1.00  0.00     0.173 C 
BRANCH   5   6
HETATM    6  O   UNL     1     -17.390   7.206  -4.127  1.00  0.00    -0.391 OA
ATOM      7  HO  UNL     1     -17.419   7.400  -5.057  1.00  0.00     0.210 HD
ENDBRANCH   5   6
BRANCH   5   8
HETATM    8  C   UNL     1     -18.521   6.635  -2.144  1.00  0.00     0.198 C 
BRANCH   8   9
HETATM    9  O   UNL     1     -19.847   6.676  -1.654  1.00  0.00    -0.398 OA
ATOM     10  HO  UNL     1     -20.181   5.791  -1.746  1.00  0.00     0.209 HD
ENDBRANCH   8   9
ENDBRANCH   5   8
ENDBRANCH   2   5
ENDBRANCH   1   2
BRANCH   1  11
HETATM   11  O   UNL     1     -21.044   6.412  -4.564  1.00  0.00    -0.390 OA
ATOM     12  HO  UNL     1     -20.456   7.127  -4.350  1.00  0.00     0.210 HD
ENDBRANCH   1  11
BRANCH   1  13
HETATM   13  C   UNL     1     -21.043   4.339  -3.489  1.00  0.00     0.250 C 
BRANCH  13  14
HETATM   14  O   UNL     1     -22.122   5.044  -2.888  1.00  0.00    -0.382 OA
ATOM     15  HO  UNL     1     -22.007   5.983  -2.975  1.00  0.00     0.210 HD
ENDBRANCH  13  14
BRANCH  13  16
HETATM   16  C   UNL     1     -21.697   3.036  -3.923  1.00  0.00     0.205 C 
HETATM   17  O   UNL     1     -21.881   2.115  -3.064  1.00  0.00    -0.646 OA
HETATM   18  O   UNL     1     -22.042   2.882  -5.116  1.00  0.00    -0.646 OA
ENDBRANCH  13  16
ENDBRANCH   1  13
TORSDOF 10
ENDMDL
MODEL 11
REMARK VINA RESULT:    -5.517      9.693     11.821
REMARK INTER + INTRA:          -8.279
REMARK INTER:                  -7.604
REMARK INTRA:                  -0.674
REMARK UNBOUND:                -0.342
REMARK  10 active torsions:
REMARK  status: ('A' for Active; 'I' for Inactive)
REMARK    1  A    between atoms: C_1  and  C_2 
REMARK    2  A    between atoms: C_2  and  O_9 
REMARK    3  A    between atoms: C_2  and  C_3 
REMARK    4  A    between atoms: C_3  and  C_4 
REMARK    5  A    between atoms: C_3  and  O_11 
REMARK    6  A    between atoms: C_4  and  O_13 
REMARK    7  A    between atoms: C_4  and  C_5 
REMARK    8  A    between atoms: C_5  and  O_15 
REMARK    9  A    between atoms: C_5  and  C_6 
REMARK   10  A    between atoms: C_6  and  O_17 
ROOT
HETATM    1  C   UNL     1     -16.058   0.255 -12.900  1.00  0.00     0.188 C 
ENDROOT
BRANCH   1   2
HETATM    2  C   UNL     1     -16.838  -1.028 -12.583  1.00  0.00     0.180 C 
BRANCH   2   3
HETATM    3  O   UNL     1     -15.968  -2.073 -12.166  1.00  0.00    -0.390 OA
ATOM      4  HO  UNL     1     -16.419  -2.899 -12.036  1.00  0.00     0.210 HD
ENDBRANCH   2   3
BRANCH   2   5
HETATM    5  C   UNL     1     -17.690  -1.412 -13.788  1.00  0.00     0.173 C 
BRANCH   5   6
HETATM    6  O   UNL     1     -18.232  -0.257 -14.434  1.00  0.00    -0.391 OA
ATOM      7  HO  UNL     1     -18.411   0.438 -13.811  1.00  0.00     0.210 HD
ENDBRANCH   5   6
BRANCH   5   8
HETATM    8  C   UNL     1     -18.889  -2.208 -13.294  1.00  0.00     0.198 C 
BRANCH   8   9
HETATM    9  O   UNL     1     -19.341  -2.947 -14.412  1.00  0.00    -0.398 OA
ATOM     10  HO  UNL     1     -19.407  -2.319 -15.122  1.00  0.00     0.209 HD
ENDBRANCH   8   9
ENDBRANCH   5   8
ENDBRANCH   2   5
ENDBRANCH   1   2
BRANCH   1  11
HETATM   11  O   UNL     1     -14.672   0.065 -12.822  1.00  0.00    -0.390 OA
ATOM     12  HO  UNL     1     -14.392  -0.179 -11.948  1.00  0.00     0.210 HD
ENDBRANCH   1  11
BRANCH   1  13
HETATM   13  C   UNL     1     -16.401   1.229 -11.770  1.00  0.00     0.250 C 
BRANCH  13  14
HETATM   14  O   UNL     1     -16.670   0.533 -10.560  1.00  0.00    -0.382 OA
ATOM     15  HO  UNL     1     -17.589   0.298 -10.499  1.00  0.00     0.210 HD
ENDBRANCH  13  14
BRANCH  13  16
HETATM   16  C   UNL     1     -15.308   2.204 -11.357  1.00  0.00     0.205 C 
HETATM   17  O   UNL     1     -15.075   3.223 -12.083  1.00  0.00    -0.646 OA
HETATM   18  O   UNL     1     -14.650   1.994 -10.313  1.00  0.00    -0.646 OA
ENDBRANCH  13  16
ENDBRANCH   1  13
TORSDOF 10
ENDMDL
MODEL 12
REMARK VINA RESULT:    -5.492     11.726     13.853
REMARK INTER + INTRA:          -8.242
REMARK INTER:                  -7.588
REMARK INTRA:                  -0.653
REMARK UNBOUND:                -0.342
REMARK  10 active torsions:
REMARK  status: ('A' for Active; 'I' for Inactive)
REMARK    1  A    between atoms: C_1  and  C_2 
REMARK    2  A    between atoms: C_2  and  O_9 
REMARK    3  A    between atoms: C_2  and  C_3 
REMARK    4  A    between atoms: C_3  and  C_4 
REMARK    5  A    between atoms: C_3  and  O_11 
REMARK    6  A    between atoms: C_4  and  O_13 
REMARK    7  A    between atoms: C_4  and  C_5 
REMARK    8  A    between atoms: C_5  and  O_15 
REMARK    9  A    between atoms: C_5  and  C_6 
REMARK   10  A    between atoms: C_6  and  O_17 
ROOT
HETATM    1  C   UNL     1     -18.588  -2.639 -13.706  1.00  0.00     0.188 C 
ENDROOT
BRANCH   1   2
HETATM    2  C   UNL     1     -19.314  -2.894 -15.033  1.00  0.00     0.180 C 
BRANCH   2   3
HETATM    3  O   UNL     1     -20.079  -1.763 -15.431  1.00  0.00    -0.390 OA
ATOM      4  HO  UNL     1     -20.971  -1.985 -15.670  1.00  0.00     0.210 HD
ENDBRANCH   2   3
BRANCH   2   5
HETATM    5  C   UNL     1     -20.152  -4.163 -14.916  1.00  0.00     0.173 C 
BRANCH   5   6
HETATM    6  O   UNL     1     -19.824  -4.898 -13.734  1.00  0.00    -0.391 OA
ATOM      7  HO  UNL     1     -19.057  -5.442 -13.865  1.00  0.00     0.210 HD
ENDBRANCH   5   6
BRANCH   5   8
HETATM    8  C   UNL     1     -19.803  -5.078 -16.080  1.00  0.00     0.198 C 
BRANCH   8   9
HETATM    9  O   UNL     1     -19.821  -6.390 -15.551  1.00  0.00    -0.398 OA
ATOM     10  HO  UNL     1     -18.935  -6.718 -15.652  1.00  0.00     0.209 HD
ENDBRANCH   8   9
ENDBRANCH   5   8
ENDBRANCH   2   5
ENDBRANCH   1   2
BRANCH   1  11
HETATM   11  O   UNL     1     -19.443  -2.113 -12.728  1.00  0.00    -0.390 OA
ATOM     12  HO  UNL     1     -19.089  -2.211 -11.852  1.00  0.00     0.210 HD
ENDBRANCH   1  11
BRANCH   1  13
HETATM   13  C   UNL     1     -17.576  -1.530 -14.003  1.00  0.00     0.250 C 
BRANCH  13  14
HETATM   14  O   UNL     1     -18.220  -0.267 -14.117  1.00  0.00    -0.382 OA
ATOM     15  HO  UNL     1     -19.036  -0.343 -14.599  1.00  0.00     0.210 HD
ENDBRANCH  13  14
BRANCH  13  16
HETATM   16  C   UNL     1     -16.520  -1.270 -12.939  1.00  0.00     0.205 C 
HETATM   17  O   UNL     1     -16.198  -2.205 -12.139  1.00  0.00    -0.646 OA
HETATM   18  O   UNL     1     -15.983  -0.143 -12.860  1.00  0.00    -0.646 OA
ENDBRANCH  13  16
ENDBRANCH   1  13
TORSDOF 10
ENDMDL
MODEL 13
REMARK VINA RESULT:    -5.356      2.615      4.501
REMARK INTER + INTRA:          -8.046
REMARK INTER:                  -7.430
REMARK INTRA:                  -0.616
REMARK UNBOUND:                -0.342
REMARK  10 active torsions:
REMARK  status: ('A' for Active; 'I' for Inactive)
REMARK    1  A    between atoms: C_1  and  C_2 
REMARK    2  A    between atoms: C_2  and  O_9 
REMARK    3  A    between atoms: C_2  and  C_3 
REMARK    4  A    between atoms: C_3  and  C_4 
REMARK    5  A    between atoms: C_3  and  O_11 
REMARK    6  A    between atoms: C_4  and  O_13 
REMARK    7  A    between atoms: C_4  and  C_5 
REMARK    8  A    between atoms: C_5  and  O_15 
REMARK    9  A    between atoms: C_5  and  C_6 
REMARK   10  A    between atoms: C_6  and  O_17 
ROOT
HETATM    1  C   UNL     1     -22.499   5.709  -1.799  1.00  0.00     0.188 C 
ENDROOT
BRANCH   1   2
HETATM    2  C   UNL     1     -22.276   4.446  -2.641  1.00  0.00     0.180 C 
BRANCH   2   3
HETATM    3  O   UNL     1     -22.382   3.270  -1.850  1.00  0.00    -0.390 OA
ATOM      4  HO  UNL     1     -21.607   3.108  -1.323  1.00  0.00     0.210 HD
ENDBRANCH   2   3
BRANCH   2   5
HETATM    5  C   UNL     1     -20.939   4.553  -3.368  1.00  0.00     0.173 C 
BRANCH   5   6
HETATM    6  O   UNL     1     -20.931   5.647  -4.288  1.00  0.00    -0.391 OA
ATOM      7  HO  UNL     1     -20.045   5.934  -4.479  1.00  0.00     0.210 HD
ENDBRANCH   5   6
BRANCH   5   8
HETATM    8  C   UNL     1     -20.750   3.302  -4.213  1.00  0.00     0.198 C 
BRANCH   8   9
HETATM    9  O   UNL     1     -21.977   3.112  -4.889  1.00  0.00    -0.398 OA
ATOM     10  HO  UNL     1     -22.197   3.957  -5.263  1.00  0.00     0.209 HD
ENDBRANCH   8   9
ENDBRANCH   5   8
ENDBRANCH   2   5
ENDBRANCH   1   2
BRANCH   1  11
HETATM   11  O   UNL     1     -21.295   6.263  -1.347  1.00  0.00    -0.390 OA
ATOM     12  HO  UNL     1     -20.766   6.602  -2.059  1.00  0.00     0.210 HD
ENDBRANCH   1  11
BRANCH   1  13
HETATM   13  C   UNL     1     -23.228   5.233  -0.539  1.00  0.00     0.250 C 
BRANCH  13  14
HETATM   14  O   UNL     1     -22.874   6.027   0.586  1.00  0.00    -0.382 OA
ATOM     15  HO  UNL     1     -23.398   5.797   1.345  1.00  0.00     0.210 HD
ENDBRANCH  13  14
BRANCH  13  16
HETATM   16  C   UNL     1     -24.746   5.332  -0.553  1.00  0.00     0.205 C 
HETATM   17  O   UNL     1     -25.411   4.841   0.415  1.00  0.00    -0.646 OA
HETATM   18  O   UNL     1     -25.323   5.890  -1.512  1.00  0.00    -0.646 OA
ENDBRANCH  13  16
ENDBRANCH   1  13
TORSDOF 10
ENDMDL
MODEL 14
REMARK VINA RESULT:    -5.160      2.300      3.347
REMARK INTER + INTRA:          -7.765
REMARK INTER:                  -7.558
REMARK INTRA:                  -0.206
REMARK UNBOUND:                -0.342
REMARK  10 active torsions:
REMARK  status: ('A' for Active; 'I' for Inactive)
REMARK    1  A    between atoms: C_1  and  C_2 
REMARK    2  A    between atoms: C_2  and  O_9 
REMARK    3  A    between atoms: C_2  and  C_3 
REMARK    4  A    between atoms: C_3  and  C_4 
REMARK    5  A    between atoms: C_3  and  O_11 
REMARK    6  A    between atoms: C_4  and  O_13 
REMARK    7  A    between atoms: C_4  and  C_5 
REMARK    8  A    between atoms: C_5  and  O_15 
REMARK    9  A    between atoms: C_5  and  C_6 
REMARK   10  A    between atoms: C_6  and  O_17 
ROOT
HETATM    1  C   UNL     1     -21.957   4.440  -1.957  1.00  0.00     0.188 C 
ENDROOT
BRANCH   1   2
HETATM    2  C   UNL     1     -21.403   4.860  -3.325  1.00  0.00     0.180 C 
BRANCH   2   3
HETATM    3  O   UNL     1     -21.593   3.839  -4.297  1.00  0.00    -0.390 OA
ATOM      4  HO  UNL     1     -22.476   3.488  -4.294  1.00  0.00     0.210 HD
ENDBRANCH   2   3
BRANCH   2   5
HETATM    5  C   UNL     1     -19.941   5.269  -3.174  1.00  0.00     0.173 C 
BRANCH   5   6
HETATM    6  O   UNL     1     -19.794   6.351  -2.251  1.00  0.00    -0.391 OA
ATOM      7  HO  UNL     1     -20.547   6.929  -2.270  1.00  0.00     0.210 HD
ENDBRANCH   5   6
BRANCH   5   8
HETATM    8  C   UNL     1     -19.450   5.799  -4.512  1.00  0.00     0.198 C 
BRANCH   8   9
HETATM    9  O   UNL     1     -19.936   7.125  -4.597  1.00  0.00    -0.398 OA
ATOM     10  HO  UNL     1     -20.585   7.203  -3.908  1.00  0.00     0.209 HD
ENDBRANCH   8   9
ENDBRANCH   5   8
ENDBRANCH   2   5
ENDBRANCH   1   2
BRANCH   1  11
HETATM   11  O   UNL     1     -22.722   3.269  -2.033  1.00  0.00    -0.390 OA
ATOM     12  HO  UNL     1     -23.645   3.433  -1.880  1.00  0.00     0.210 HD
ENDBRANCH   1  11
BRANCH   1  13
HETATM   13  C   UNL     1     -22.940   5.545  -1.561  1.00  0.00     0.250 C 
BRANCH  13  14
HETATM   14  O   UNL     1     -24.284   5.133  -1.773  1.00  0.00    -0.382 OA
ATOM     15  HO  UNL     1     -24.345   4.187  -1.840  1.00  0.00     0.210 HD
ENDBRANCH  13  14
BRANCH  13  16
HETATM   16  C   UNL     1     -22.946   5.957  -0.096  1.00  0.00     0.205 C 
HETATM   17  O   UNL     1     -23.830   5.476   0.683  1.00  0.00    -0.646 OA
HETATM   18  O   UNL     1     -22.088   6.764   0.325  1.00  0.00    -0.646 OA
ENDBRANCH  13  16
ENDBRANCH   1  13
TORSDOF 10
ENDMDL
MODEL 15
REMARK VINA RESULT:    -5.139      1.068      2.129
REMARK INTER + INTRA:          -7.735
REMARK INTER:                  -6.889
REMARK INTRA:                  -0.845
REMARK UNBOUND:                -0.342
REMARK  10 active torsions:
REMARK  status: ('A' for Active; 'I' for Inactive)
REMARK    1  A    between atoms: C_1  and  C_2 
REMARK    2  A    between atoms: C_2  and  O_9 
REMARK    3  A    between atoms: C_2  and  C_3 
REMARK    4  A    between atoms: C_3  and  C_4 
REMARK    5  A    between atoms: C_3  and  O_11 
REMARK    6  A    between atoms: C_4  and  O_13 
REMARK    7  A    between atoms: C_4  and  C_5 
REMARK    8  A    between atoms: C_5  and  O_15 
REMARK    9  A    between atoms: C_5  and  C_6 
REMARK   10  A    between atoms: C_6  and  O_17 
ROOT
HETATM    1  C   UNL     1     -21.975   5.023  -3.411  1.00  0.00     0.188 C 
ENDROOT
BRANCH   1   2
HETATM    2  C   UNL     1     -20.641   5.641  -3.848  1.00  0.00     0.180 C 
BRANCH   2   3
HETATM    3  O   UNL     1     -20.125   4.996  -5.006  1.00  0.00    -0.390 OA
ATOM      4  HO  UNL     1     -19.183   5.079  -5.086  1.00  0.00     0.210 HD
ENDBRANCH   2   3
BRANCH   2   5
HETATM    5  C   UNL     1     -19.667   5.621  -2.675  1.00  0.00     0.173 C 
BRANCH   5   6
HETATM    6  O   UNL     1     -19.992   6.622  -1.708  1.00  0.00    -0.391 OA
ATOM      7  HO  UNL     1     -20.650   6.313  -1.096  1.00  0.00     0.210 HD
ENDBRANCH   5   6
BRANCH   5   8
HETATM    8  C   UNL     1     -18.283   5.985  -3.194  1.00  0.00     0.198 C 
BRANCH   8   9
HETATM    9  O   UNL     1     -18.388   7.319  -3.651  1.00  0.00    -0.398 OA
ATOM     10  HO  UNL     1     -18.248   7.863  -2.886  1.00  0.00     0.209 HD
ENDBRANCH   8   9
ENDBRANCH   5   8
ENDBRANCH   2   5
ENDBRANCH   1   2
BRANCH   1  11
HETATM   11  O   UNL     1     -22.631   5.803  -2.449  1.00  0.00    -0.390 OA
ATOM     12  HO  UNL     1     -22.077   5.991  -1.701  1.00  0.00     0.210 HD
ENDBRANCH   1  11
BRANCH   1  13
HETATM   13  C   UNL     1     -21.605   3.721  -2.696  1.00  0.00     0.250 C 
BRANCH  13  14
HETATM   14  O   UNL     1     -22.342   3.573  -1.489  1.00  0.00    -0.382 OA
ATOM     15  HO  UNL     1     -23.240   3.316  -1.666  1.00  0.00     0.210 HD
ENDBRANCH  13  14
BRANCH  13  16
HETATM   16  C   UNL     1     -21.913   2.427  -3.435  1.00  0.00     0.205 C 
HETATM   17  O   UNL     1     -21.889   2.415  -4.707  1.00  0.00    -0.646 OA
HETATM   18  O   UNL     1     -22.189   1.392  -2.787  1.00  0.00    -0.646 OA
ENDBRANCH  13  16
ENDBRANCH   1  13
TORSDOF 10
ENDMDL
MODEL 16
REMARK VINA RESULT:    -5.056      8.830     10.161
REMARK INTER + INTRA:          -7.614
REMARK INTER:                  -6.723
REMARK INTRA:                  -0.891
REMARK UNBOUND:                -0.342
REMARK  10 active torsions:
REMARK  status: ('A' for Active; 'I' for Inactive)
REMARK    1  A    between atoms: C_1  and  C_2 
REMARK    2  A    between atoms: C_2  and  O_9 
REMARK    3  A    between atoms: C_2  and  C_3 
REMARK    4  A    between atoms: C_3  and  C_4 
REMARK    5  A    between atoms: C_3  and  O_11 
REMARK    6  A    between atoms: C_4  and  O_13 
REMARK    7  A    between atoms: C_4  and  C_5 
REMARK    8  A    between atoms: C_5  and  O_15 
REMARK    9  A    between atoms: C_5  and  C_6 
REMARK   10  A    between atoms: C_6  and  O_17 
ROOT
HETATM    1  C   UNL     1     -14.023   1.754   1.582  1.00  0.00     0.188 C 
ENDROOT
BRANCH   1   2
HETATM    2  C   UNL     1     -14.216   3.140   2.213  1.00  0.00     0.180 C 
BRANCH   2   3
HETATM    3  O   UNL     1     -13.596   4.155   1.432  1.00  0.00    -0.390 OA
ATOM      4  HO  UNL     1     -13.957   4.218   0.556  1.00  0.00     0.210 HD
ENDBRANCH   2   3
BRANCH   2   5
HETATM    5  C   UNL     1     -13.717   3.113   3.653  1.00  0.00     0.173 C 
BRANCH   5   6
HETATM    6  O   UNL     1     -14.660   2.480   4.521  1.00  0.00    -0.391 OA
ATOM      7  HO  UNL     1     -15.432   2.196   4.047  1.00  0.00     0.210 HD
ENDBRANCH   5   6
BRANCH   5   8
HETATM    8  C   UNL     1     -13.599   4.547   4.147  1.00  0.00     0.198 C 
BRANCH   8   9
HETATM    9  O   UNL     1     -12.236   4.892   3.990  1.00  0.00    -0.398 OA
ATOM     10  HO  UNL     1     -12.159   5.782   4.311  1.00  0.00     0.209 HD
ENDBRANCH   8   9
ENDBRANCH   5   8
ENDBRANCH   2   5
ENDBRANCH   1   2
BRANCH   1  11
HETATM   11  O   UNL     1     -14.852   0.787   2.166  1.00  0.00    -0.390 OA
ATOM     12  HO  UNL     1     -15.168   1.054   3.021  1.00  0.00     0.210 HD
ENDBRANCH   1  11
BRANCH   1  13
HETATM   13  C   UNL     1     -12.595   1.338   1.942  1.00  0.00     0.250 C 
BRANCH  13  14
HETATM   14  O   UNL     1     -12.525  -0.052   2.234  1.00  0.00    -0.382 OA
ATOM     15  HO  UNL     1     -13.394  -0.421   2.346  1.00  0.00     0.210 HD
ENDBRANCH  13  14
BRANCH  13  16
HETATM   16  C   UNL     1     -11.543   1.503   0.856  1.00  0.00     0.205 C 
HETATM   17  O   UNL     1     -11.830   2.164  -0.194  1.00  0.00    -0.646 OA
HETATM   18  O   UNL     1     -10.412   0.989   1.002  1.00  0.00    -0.646 OA
ENDBRANCH  13  16
ENDBRANCH   1  13
TORSDOF 10
ENDMDL
MODEL 17
REMARK VINA RESULT:    -4.998      9.767     11.145
REMARK INTER + INTRA:          -7.531
REMARK INTER:                  -6.167
REMARK INTRA:                  -1.364
REMARK UNBOUND:                -0.342
REMARK  10 active torsions:
REMARK  status: ('A' for Active; 'I' for Inactive)
REMARK    1  A    between atoms: C_1  and  C_2 
REMARK    2  A    between atoms: C_2  and  O_9 
REMARK    3  A    between atoms: C_2  and  C_3 
REMARK    4  A    between atoms: C_3  and  C_4 
REMARK    5  A    between atoms: C_3  and  O_11 
REMARK    6  A    between atoms: C_4  and  O_13 
REMARK    7  A    between atoms: C_4  and  C_5 
REMARK    8  A    between atoms: C_5  and  O_15 
REMARK    9  A    between atoms: C_5  and  C_6 
REMARK   10  A    between atoms: C_6  and  O_17 
ROOT
HETATM    1  C   UNL     1     -12.172   1.620   3.685  1.00  0.00     0.188 C 
ENDROOT
BRANCH   1   2
HETATM    2  C   UNL     1     -13.371   1.836   2.753  1.00  0.00     0.180 C 
BRANCH   2   3
HETATM    3  O   UNL     1     -12.959   2.325   1.483  1.00  0.00    -0.390 OA
ATOM      4  HO  UNL     1     -12.102   2.006   1.224  1.00  0.00     0.210 HD
ENDBRANCH   2   3
BRANCH   2   5
HETATM    5  C   UNL     1     -14.386   2.745   3.437  1.00  0.00     0.173 C 
BRANCH   5   6
HETATM    6  O   UNL     1     -15.666   2.116   3.539  1.00  0.00    -0.391 OA
ATOM      7  HO  UNL     1     -15.614   1.298   4.018  1.00  0.00     0.210 HD
ENDBRANCH   5   6
BRANCH   5   8
HETATM    8  C   UNL     1     -14.597   3.972   2.563  1.00  0.00     0.198 C 
BRANCH   8   9
HETATM    9  O   UNL     1     -13.458   4.785   2.768  1.00  0.00    -0.398 OA
ATOM     10  HO  UNL     1     -12.860   4.260   3.286  1.00  0.00     0.209 HD
ENDBRANCH   8   9
ENDBRANCH   5   8
ENDBRANCH   2   5
ENDBRANCH   1   2
BRANCH   1  11
HETATM   11  O   UNL     1     -11.222   2.644   3.570  1.00  0.00    -0.390 OA
ATOM     12  HO  UNL     1     -11.337   3.316   4.231  1.00  0.00     0.210 HD
ENDBRANCH   1  11
BRANCH   1  13
HETATM   13  C   UNL     1     -11.476   0.358   3.167  1.00  0.00     0.250 C 
BRANCH  13  14
HETATM   14  O   UNL     1     -12.324  -0.368   2.286  1.00  0.00    -0.382 OA
ATOM     15  HO  UNL     1     -12.202  -1.305   2.391  1.00  0.00     0.210 HD
ENDBRANCH  13  14
BRANCH  13  16
HETATM   16  C   UNL     1     -10.224   0.567   2.328  1.00  0.00     0.205 C 
HETATM   17  O   UNL     1     -10.342   0.917   1.110  1.00  0.00    -0.646 OA
HETATM   18  O   UNL     1      -9.097   0.389   2.840  1.00  0.00    -0.646 OA
ENDBRANCH  13  16
ENDBRANCH   1  13
TORSDOF 10
ENDMDL
MODEL 18
REMARK VINA RESULT:    -4.995     10.127     11.228
REMARK INTER + INTRA:          -7.527
REMARK INTER:                  -6.123
REMARK INTRA:                  -1.404
REMARK UNBOUND:                -0.342
REMARK  10 active torsions:
REMARK  status: ('A' for Active; 'I' for Inactive)
REMARK    1  A    between atoms: C_1  and  C_2 
REMARK    2  A    between atoms: C_2  and  O_9 
REMARK    3  A    between atoms: C_2  and  C_3 
REMARK    4  A    between atoms: C_3  and  C_4 
REMARK    5  A    between atoms: C_3  and  O_11 
REMARK    6  A    between atoms: C_4  and  O_13 
REMARK    7  A    between atoms: C_4  and  C_5 
REMARK    8  A    between atoms: C_5  and  O_15 
REMARK    9  A    between atoms: C_5  and  C_6 
REMARK   10  A    between atoms: C_6  and  O_17 
ROOT
HETATM    1  C   UNL     1     -12.219   0.476   2.736  1.00  0.00     0.188 C 
ENDROOT
BRANCH   1   2
HETATM    2  C   UNL     1     -11.250   1.240   1.824  1.00  0.00     0.180 C 
BRANCH   2   3
HETATM    3  O   UNL     1     -11.916   1.757   0.678  1.00  0.00    -0.390 OA
ATOM      4  HO  UNL     1     -12.718   2.217   0.894  1.00  0.00     0.210 HD
ENDBRANCH   2   3
BRANCH   2   5
HETATM    5  C   UNL     1     -10.072   0.339   1.470  1.00  0.00     0.173 C 
BRANCH   5   6
HETATM    6  O   UNL     1     -10.137  -0.905   2.170  1.00  0.00    -0.391 OA
ATOM      7  HO  UNL     1     -10.842  -0.910   2.807  1.00  0.00     0.210 HD
ENDBRANCH   5   6
BRANCH   5   8
HETATM    8  C   UNL     1      -8.793   1.013   1.943  1.00  0.00     0.198 C 
BRANCH   8   9
HETATM    9  O   UNL     1      -9.205   2.205   2.583  1.00  0.00    -0.398 OA
ATOM     10  HO  UNL     1      -9.708   2.682   1.934  1.00  0.00     0.209 HD
ENDBRANCH   8   9
ENDBRANCH   5   8
ENDBRANCH   2   5
ENDBRANCH   1   2
BRANCH   1  11
HETATM   11  O   UNL     1     -13.237  -0.160   2.012  1.00  0.00    -0.390 OA
ATOM     12  HO  UNL     1     -13.823   0.461   1.597  1.00  0.00     0.210 HD
ENDBRANCH   1  11
BRANCH   1  13
HETATM   13  C   UNL     1     -12.922   1.548   3.573  1.00  0.00     0.250 C 
BRANCH  13  14
HETATM   14  O   UNL     1     -12.257   2.800   3.462  1.00  0.00    -0.382 OA
ATOM     15  HO  UNL     1     -11.328   2.680   3.301  1.00  0.00     0.210 HD
ENDBRANCH  13  14
BRANCH  13  16
HETATM   16  C   UNL     1     -14.349   1.893   3.177  1.00  0.00     0.205 C 
HETATM   17  O   UNL     1     -15.315   1.440   3.871  1.00  0.00    -0.646 OA
HETATM   18  O   UNL     1     -14.559   2.613   2.176  1.00  0.00    -0.646 OA
ENDBRANCH  13  16
ENDBRANCH   1  13
TORSDOF 10
ENDMDL
MODEL 19
REMARK VINA RESULT:    -4.981      8.689      9.949
REMARK INTER + INTRA:          -7.507
REMARK INTER:                  -6.750
REMARK INTRA:                  -0.757
REMARK UNBOUND:                -0.342
REMARK  10 active torsions:
REMARK  status: ('A' for Active; 'I' for Inactive)
REMARK    1  A    between atoms: C_1  and  C_2 
REMARK    2  A    between atoms: C_2  and  O_9 
REMARK    3  A    between atoms: C_2  and  C_3 
REMARK    4  A    between atoms: C_3  and  C_4 
REMARK    5  A    between atoms: C_3  and  O_11 
REMARK    6  A    between atoms: C_4  and  O_13 
REMARK    7  A    between atoms: C_4  and  C_5 
REMARK    8  A    between atoms: C_5  and  O_15 
REMARK    9  A    between atoms: C_5  and  C_6 
REMARK   10  A    between atoms: C_6  and  O_17 
ROOT
HETATM    1  C   UNL     1     -14.879   2.141   2.460  1.00  0.00     0.188 C 
ENDROOT
BRANCH   1   2
HETATM    2  C   UNL     1     -14.005   2.980   3.402  1.00  0.00     0.180 C 
BRANCH   2   3
HETATM    3  O   UNL     1     -14.163   2.572   4.755  1.00  0.00    -0.390 OA
ATOM      4  HO  UNL     1     -13.859   1.685   4.911  1.00  0.00     0.210 HD
ENDBRANCH   2   3
BRANCH   2   5
HETATM    5  C   UNL     1     -14.309   4.459   3.190  1.00  0.00     0.173 C 
BRANCH   5   6
HETATM    6  O   UNL     1     -13.710   4.949   1.988  1.00  0.00    -0.391 OA
ATOM      7  HO  UNL     1     -14.265   4.791   1.234  1.00  0.00     0.210 HD
ENDBRANCH   5   6
BRANCH   5   8
HETATM    8  C   UNL     1     -13.668   5.248   4.322  1.00  0.00     0.198 C 
BRANCH   8   9
HETATM    9  O   UNL     1     -12.290   4.937   4.268  1.00  0.00    -0.398 OA
ATOM     10  HO  UNL     1     -12.214   4.218   3.653  1.00  0.00     0.209 HD
ENDBRANCH   8   9
ENDBRANCH   5   8
ENDBRANCH   2   5
ENDBRANCH   1   2
BRANCH   1  11
HETATM   11  O   UNL     1     -15.520   1.090   3.129  1.00  0.00    -0.390 OA
ATOM     12  HO  UNL     1     -15.769   1.327   4.014  1.00  0.00     0.210 HD
ENDBRANCH   1  11
BRANCH   1  13
HETATM   13  C   UNL     1     -13.902   1.471   1.489  1.00  0.00     0.250 C 
BRANCH  13  14
HETATM   14  O   UNL     1     -13.451   2.390   0.503  1.00  0.00    -0.382 OA
ATOM     15  HO  UNL     1     -14.131   3.016   0.282  1.00  0.00     0.210 HD
ENDBRANCH  13  14
BRANCH  13  16
HETATM   16  C   UNL     1     -12.601   0.952   2.082  1.00  0.00     0.205 C 
HETATM   17  O   UNL     1     -12.625   0.343   3.199  1.00  0.00    -0.646 OA
HETATM   18  O   UNL     1     -11.525   1.132   1.470  1.00  0.00    -0.646 OA
ENDBRANCH  13  16
ENDBRANCH   1  13
TORSDOF 10
ENDMDL
MODEL 20
REMARK VINA RESULT:    -4.883      9.024     11.051
REMARK INTER + INTRA:          -7.366
REMARK INTER:                  -6.589
REMARK INTRA:                  -0.776
REMARK UNBOUND:                -0.342
REMARK  10 active torsions:
REMARK  status: ('A' for Active; 'I' for Inactive)
REMARK    1  A    between atoms: C_1  and  C_2 
REMARK    2  A    between atoms: C_2  and  O_9 
REMARK    3  A    between atoms: C_2  and  C_3 
REMARK    4  A    between atoms: C_3  and  C_4 
REMARK    5  A    between atoms: C_3  and  O_11 
REMARK    6  A    between atoms: C_4  and  O_13 
REMARK    7  A    between atoms: C_4  and  C_5 
REMARK    8  A    between atoms: C_5  and  O_15 
REMARK    9  A    between atoms: C_5  and  C_6 
REMARK   10  A    between atoms: C_6  and  O_17 
ROOT
HETATM    1  C   UNL     1     -13.970   4.314   3.885  1.00  0.00     0.188 C 
ENDROOT
BRANCH   1   2
HETATM    2  C   UNL     1     -13.779   2.792   3.834  1.00  0.00     0.180 C 
BRANCH   2   3
HETATM    3  O   UNL     1     -12.508   2.447   3.297  1.00  0.00    -0.390 OA
ATOM      4  HO  UNL     1     -12.508   2.402   2.348  1.00  0.00     0.210 HD
ENDBRANCH   2   3
BRANCH   2   5
HETATM    5  C   UNL     1     -14.937   2.163   3.066  1.00  0.00     0.173 C 
BRANCH   5   6
HETATM    6  O   UNL     1     -15.850   1.504   3.946  1.00  0.00    -0.391 OA
ATOM      7  HO  UNL     1     -16.015   0.610   3.669  1.00  0.00     0.210 HD
ENDBRANCH   5   6
BRANCH   5   8
HETATM    8  C   UNL     1     -14.378   1.076   2.161  1.00  0.00     0.198 C 
BRANCH   8   9
HETATM    9  O   UNL     1     -13.837   1.753   1.043  1.00  0.00    -0.398 OA
ATOM     10  HO  UNL     1     -14.238   2.614   1.047  1.00  0.00     0.209 HD
ENDBRANCH   8   9
ENDBRANCH   5   8
ENDBRANCH   2   5
ENDBRANCH   1   2
BRANCH   1  11
HETATM   11  O   UNL     1     -13.581   4.936   2.691  1.00  0.00    -0.390 OA
ATOM     12  HO  UNL     1     -14.197   5.606   2.419  1.00  0.00     0.210 HD
ENDBRANCH   1  11
BRANCH   1  13
HETATM   13  C   UNL     1     -12.984   4.812   4.945  1.00  0.00     0.250 C 
BRANCH  13  14
HETATM   14  O   UNL     1     -11.716   5.099   4.369  1.00  0.00    -0.382 OA
ATOM     15  HO  UNL     1     -11.751   5.889   3.842  1.00  0.00     0.210 HD
ENDBRANCH  13  14
BRANCH  13  16
HETATM   16  C   UNL     1     -13.336   6.117   5.642  1.00  0.00     0.205 C 
HETATM   17  O   UNL     1     -12.982   6.293   6.852  1.00  0.00    -0.646 OA
HETATM   18  O   UNL     1     -13.969   7.001   5.022  1.00  0.00    -0.646 OA
ENDBRANCH  13  16
ENDBRANCH   1  13
TORSDOF 10
ENDMDL
