REMARK  3 active torsions:
REMARK  status: ('A' for Active; 'I' for Inactive)
REMARK    1  A    between atoms: C_2  and  C_4 
REMARK    2  A    between atoms: C_4  and  C_5 
REMARK    3  A    between atoms: C_5  and  C_6 
ROOT
HETATM    1  C   UNL     1     -12.168 -52.894  -5.931  1.00  0.00     0.026 A 
HETATM    2  C   UNL     1     -13.251 -53.128  -5.124  1.00  0.00     0.114 A 
HETATM    3  N   UNL     1     -12.816 -53.001  -3.868  1.00  0.00    -0.360 N 
ATOM      4  HN  UNL     1     -13.386 -53.122  -3.031  1.00  0.00     0.166 HD
HETATM    5  C   UNL     1     -11.527 -52.693  -3.879  1.00  0.00     0.180 A 
HETATM    6  N   UNL     1     -11.135 -52.641  -5.137  1.00  0.00    -0.355 N 
ATOM      7  HN  UNL     1     -10.186 -52.438  -5.451  1.00  0.00     0.166 HD
ENDROOT
BRANCH   1   8
HETATM    8  C   UNL     1     -12.120 -52.928  -7.454  1.00  0.00     0.069 C 
BRANCH   8   9
HETATM    9  C   UNL     1     -11.074 -53.942  -7.933  1.00  0.00     0.119 C 
BRANCH   9  10
HETATM   10  C   UNL     1     -10.586 -53.708  -9.348  1.00  0.00     0.172 C 
HETATM   11  O   UNL     1      -9.490 -54.227  -9.706  1.00  0.00    -0.648 OA
HETATM   12  O   UNL     1     -11.266 -52.985 -10.137  1.00  0.00    -0.648 OA
ENDBRANCH   9  10
ENDBRANCH   8   9
ENDBRANCH   1   8
TORSDOF 3
