REMARK  1 active torsions:
REMARK  status: ('A' for Active; 'I' for Inactive)
REMARK    1  A    between atoms: O_12  and  C_14 
ROOT
HETATM    1  C   UNL     1       1.750   4.675  10.880  1.00  0.00     0.059 A 
HETATM    2  C   UNL     1       0.771   3.766  10.448  1.00  0.00     0.038 A 
HETATM    3  C   UNL     1      -0.579   4.085  10.539  1.00  0.00     0.057 A 
HETATM    4  C   UNL     1       2.988   2.879  10.134  1.00  0.00     0.172 A 
HETATM    5  C   UNL     1       4.341   4.437  10.789  1.00  0.00     0.207 A 
HETATM    6  N   UNL     1       4.202   2.424   9.972  1.00  0.00    -0.278 N 
ATOM      7  HN  UNL     1       4.465   1.502   9.623  1.00  0.00     0.189 HD
HETATM    8  N   UNL     1       5.068   3.443  10.369  1.00  0.00    -0.294 N 
ATOM      9  HN  UNL     1       6.087   3.414  10.336  1.00  0.00     0.187 HD
HETATM   10  C   UNL     1       1.396   5.922  11.377  1.00  0.00     0.034 A 
HETATM   11  N   UNL     1       3.027   4.124  10.692  1.00  0.00    -0.284 N 
HETATM   12  C   UNL     1      -0.931   5.330  11.022  1.00  0.00     0.067 A 
HETATM   13  C   UNL     1       0.043   6.248  11.449  1.00  0.00     0.039 A 
HETATM   14  S   UNL     1       1.401   2.234   9.870  1.00  0.00    -0.050 SA
ENDROOT
BRANCH  12  15
HETATM   15  O   UNL     1      -2.252   5.642  11.124  1.00  0.00    -0.361 OA
ATOM     16  HO  UNL     1      -2.494   6.498  11.456  1.00  0.00     0.217 HD
ENDBRANCH  12  15
TORSDOF 1
