MODEL 1
REMARK VINA RESULT:   -12.391      0.000      0.000
REMARK INTER + INTRA:         -17.577
REMARK INTER:                 -16.737
REMARK INTRA:                  -0.840
REMARK UNBOUND:                -0.840
REMARK  6 active torsions:
REMARK  status: ('A' for Active; 'I' for Inactive)
REMARK       I    between atoms: N_3  and  C_25 
REMARK    1  A    between atoms: N_3  and  C_12 
REMARK       I    between atoms: C_15  and  N_37 
REMARK    2  A    between atoms: C_15  and  C_26 
REMARK    3  A    between atoms: C_21  and  O_40 
REMARK    4  A    between atoms: C_22  and  O_40 
REMARK    5  A    between atoms: C_25  and  C_26 
REMARK    6  A    between atoms: C_28  and  N_37 
ROOT
HETATM    1  C   UNL     1      -9.385 -16.603  31.410  1.00  0.00     0.043 A 
HETATM    2  C   UNL     1      -9.391 -14.496  30.248  1.00  0.00     0.037 A 
HETATM    3  C   UNL     1      -9.176 -16.540  29.042  1.00  0.00     0.152 A 
HETATM    4  C   UNL     1      -9.256 -17.270  30.206  1.00  0.00     0.114 A 
HETATM    5  C   UNL     1      -9.451 -15.220  31.431  1.00  0.00     0.032 A 
HETATM    6  C   UNL     1      -9.242 -15.170  29.039  1.00  0.00     0.074 A 
HETATM    7  F   UNL     1      -9.030 -17.199  27.871  1.00  0.00    -0.203 F 
ENDROOT
BRANCH   2   8
HETATM    8  N   UNL     1      -9.457 -13.078  30.342  1.00  0.00    -0.326 N 
HETATM    9  C   UNL     1     -10.555 -12.323  30.521  1.00  0.00     0.240 C 
HETATM   10  O   UNL     1     -11.674 -12.773  30.709  1.00  0.00    -0.272 OA
ATOM     11  HN  UNL     1      -8.572 -12.578  30.264  1.00  0.00     0.169 HD
BRANCH   9  12
HETATM   12  C   UNL     1     -10.313 -10.840  30.498  1.00  0.00     0.122 A 
HETATM   13  C   UNL     1     -11.361  -9.970  31.196  1.00  0.00     0.031 A 
HETATM   14  C   UNL     1     -10.069 -10.226  31.881  1.00  0.00     0.031 A 
BRANCH  12  15
HETATM   15  C   UNL     1      -9.548 -10.264  29.333  1.00  0.00     0.240 C 
HETATM   16  O   UNL     1      -8.335 -10.376  29.268  1.00  0.00    -0.272 OA
HETATM   17  N   UNL     1     -10.256  -9.599  28.407  1.00  0.00    -0.326 N 
ATOM     18  HN  UNL     1     -11.269  -9.546  28.519  1.00  0.00     0.169 HD
BRANCH  17  19
HETATM   19  C   UNL     1      -9.666  -8.964  27.278  1.00  0.00     0.034 A 
HETATM   20  C   UNL     1      -8.944  -7.792  27.450  1.00  0.00     0.032 A 
HETATM   21  C   UNL     1      -8.398  -7.135  26.359  1.00  0.00     0.044 A 
HETATM   22  C   UNL     1      -8.618  -7.652  25.116  1.00  0.00     0.116 A 
HETATM   23  F   UNL     1      -8.092  -7.002  24.044  1.00  0.00    -0.206 F 
HETATM   24  C   UNL     1      -9.349  -8.787  24.901  1.00  0.00     0.044 A 
HETATM   25  C   UNL     1      -9.889  -9.445  25.995  1.00  0.00     0.032 A 
ENDBRANCH  17  19
ENDBRANCH  12  15
ENDBRANCH   9  12
ENDBRANCH   2   8
BRANCH   4  26
HETATM   26  O   UNL     1      -9.156 -18.658  30.182  1.00  0.00    -0.309 OA
BRANCH  26  27
HETATM   27  C   UNL     1     -10.325 -19.391  30.396  1.00  0.00     0.088 C 
HETATM   28  C   UNL     1     -11.573 -18.935  30.085  1.00  0.00     0.052 C 
HETATM   29  C   UNL     1     -12.691 -19.775  30.319  1.00  0.00     0.087 C 
HETATM   30  N   UNL     1     -12.566 -21.026  30.703  1.00  0.00    -0.376 N 
HETATM   31  C   UNL     1     -11.236 -21.639  30.543  1.00  0.00     0.217 C 
ATOM     32  HN  UNL     1     -13.352 -21.547  31.092  1.00  0.00     0.161 HD
HETATM   33  N   UNL     1     -11.083 -22.935  31.158  1.00  0.00    -0.364 N 
HETATM   34  C   UNL     1     -10.133 -20.734  31.036  1.00  0.00     0.228 C 
HETATM   35  C   UNL     1      -9.819 -23.477  31.059  1.00  0.00     0.063 A 
ATOM     36  HN  UNL     1     -11.851 -23.414  31.629  1.00  0.00     0.162 HD
HETATM   37  C   UNL     1      -9.609 -24.850  31.209  1.00  0.00     0.032 A 
HETATM   38  C   UNL     1      -8.720 -22.644  30.812  1.00  0.00     0.096 A 
HETATM   39  C   UNL     1      -8.342 -25.364  31.097  1.00  0.00     0.002 A 
HETATM   40  C   UNL     1      -7.263 -24.535  30.851  1.00  0.00     0.003 A 
HETATM   41  C   UNL     1      -7.440 -23.172  30.712  1.00  0.00     0.039 A 
HETATM   42  O   UNL     1      -8.849 -21.281  30.661  1.00  0.00    -0.333 OA
ENDBRANCH  26  27
ENDBRANCH   4  26
TORSDOF 6
ENDMDL
MODEL 2
REMARK VINA RESULT:   -11.951      1.953      2.515
REMARK INTER + INTRA:         -16.983
REMARK INTER:                 -17.217
REMARK INTRA:                   0.233
REMARK UNBOUND:                -0.840
REMARK  6 active torsions:
REMARK  status: ('A' for Active; 'I' for Inactive)
REMARK       I    between atoms: N_3  and  C_25 
REMARK    1  A    between atoms: N_3  and  C_12 
REMARK       I    between atoms: C_15  and  N_37 
REMARK    2  A    between atoms: C_15  and  C_26 
REMARK    3  A    between atoms: C_21  and  O_40 
REMARK    4  A    between atoms: C_22  and  O_40 
REMARK    5  A    between atoms: C_25  and  C_26 
REMARK    6  A    between atoms: C_28  and  N_37 
ROOT
HETATM    1  C   UNL     1      -9.079 -16.923  29.298  1.00  0.00     0.043 A 
HETATM    2  C   UNL     1      -9.299 -14.672  30.118  1.00  0.00     0.037 A 
HETATM    3  C   UNL     1      -9.289 -16.514  31.630  1.00  0.00     0.152 A 
HETATM    4  C   UNL     1      -9.132 -17.404  30.592  1.00  0.00     0.114 A 
HETATM    5  C   UNL     1      -9.163 -15.562  29.061  1.00  0.00     0.032 A 
HETATM    6  C   UNL     1      -9.371 -15.161  31.420  1.00  0.00     0.074 A 
HETATM    7  F   UNL     1      -9.360 -16.994  32.892  1.00  0.00    -0.203 F 
ENDROOT
BRANCH   2   8
HETATM    8  N   UNL     1      -9.388 -13.287  29.805  1.00  0.00    -0.326 N 
HETATM    9  C   UNL     1     -10.442 -12.636  29.283  1.00  0.00     0.240 C 
HETATM   10  O   UNL     1     -11.528 -13.149  29.069  1.00  0.00    -0.272 OA
ATOM     11  HN  UNL     1      -8.559 -12.725  29.998  1.00  0.00     0.169 HD
BRANCH   9  12
HETATM   12  C   UNL     1     -10.202 -11.182  28.988  1.00  0.00     0.122 A 
HETATM   13  C   UNL     1     -10.493 -10.201  30.126  1.00  0.00     0.031 A 
HETATM   14  C   UNL     1      -9.083 -10.552  29.823  1.00  0.00     0.031 A 
BRANCH  12  15
HETATM   15  C   UNL     1     -10.362 -10.711  27.563  1.00  0.00     0.240 C 
HETATM   16  O   UNL     1     -10.230  -9.533  27.278  1.00  0.00    -0.272 OA
HETATM   17  N   UNL     1     -10.691 -11.637  26.649  1.00  0.00    -0.326 N 
ATOM     18  HN  UNL     1     -10.783 -12.606  26.953  1.00  0.00     0.169 HD
BRANCH  17  19
HETATM   19  C   UNL     1     -10.920 -11.334  25.276  1.00  0.00     0.034 A 
HETATM   20  C   UNL     1     -11.961 -11.955  24.602  1.00  0.00     0.032 A 
HETATM   21  C   UNL     1     -12.175 -11.707  23.256  1.00  0.00     0.044 A 
HETATM   22  C   UNL     1     -11.317 -10.867  22.609  1.00  0.00     0.116 A 
HETATM   23  F   UNL     1     -11.519 -10.631  21.285  1.00  0.00    -0.206 F 
HETATM   24  C   UNL     1     -10.262 -10.259  23.230  1.00  0.00     0.044 A 
HETATM   25  C   UNL     1     -10.054 -10.504  24.578  1.00  0.00     0.032 A 
ENDBRANCH  17  19
ENDBRANCH  12  15
ENDBRANCH   9  12
ENDBRANCH   2   8
BRANCH   4  26
HETATM   26  O   UNL     1      -9.081 -18.774  30.833  1.00  0.00    -0.309 OA
BRANCH  26  27
HETATM   27  C   UNL     1     -10.290 -19.473  30.824  1.00  0.00     0.088 C 
HETATM   28  C   UNL     1     -11.480 -18.926  30.439  1.00  0.00     0.052 C 
HETATM   29  C   UNL     1     -12.642 -19.736  30.441  1.00  0.00     0.087 C 
HETATM   30  N   UNL     1     -12.602 -21.029  30.673  1.00  0.00    -0.376 N 
HETATM   31  C   UNL     1     -11.282 -21.678  30.581  1.00  0.00     0.217 C 
ATOM     32  HN  UNL     1     -13.443 -21.558  30.905  1.00  0.00     0.161 HD
HETATM   33  N   UNL     1     -11.242 -23.046  31.039  1.00  0.00    -0.364 N 
HETATM   34  C   UNL     1     -10.215 -20.892  31.303  1.00  0.00     0.228 C 
HETATM   35  C   UNL     1      -9.992 -23.629  31.009  1.00  0.00     0.063 A 
ATOM     36  HN  UNL     1     -12.073 -23.544  31.359  1.00  0.00     0.162 HD
HETATM   37  C   UNL     1      -9.844 -25.018  31.004  1.00  0.00     0.032 A 
HETATM   38  C   UNL     1      -8.847 -22.823  30.992  1.00  0.00     0.096 A 
HETATM   39  C   UNL     1      -8.590 -25.572  30.966  1.00  0.00     0.002 A 
HETATM   40  C   UNL     1      -7.464 -24.769  30.947  1.00  0.00     0.003 A 
HETATM   41  C   UNL     1      -7.581 -23.393  30.965  1.00  0.00     0.039 A 
HETATM   42  O   UNL     1      -8.914 -21.447  31.003  1.00  0.00    -0.333 OA
ENDBRANCH  26  27
ENDBRANCH   4  26
TORSDOF 6
ENDMDL
MODEL 3
REMARK VINA RESULT:   -10.642      2.920     11.641
REMARK INTER + INTRA:         -15.214
REMARK INTER:                 -15.511
REMARK INTRA:                   0.297
REMARK UNBOUND:                -0.840
REMARK  6 active torsions:
REMARK  status: ('A' for Active; 'I' for Inactive)
REMARK       I    between atoms: N_3  and  C_25 
REMARK    1  A    between atoms: N_3  and  C_12 
REMARK       I    between atoms: C_15  and  N_37 
REMARK    2  A    between atoms: C_15  and  C_26 
REMARK    3  A    between atoms: C_21  and  O_40 
REMARK    4  A    between atoms: C_22  and  O_40 
REMARK    5  A    between atoms: C_25  and  C_26 
REMARK    6  A    between atoms: C_28  and  N_37 
ROOT
HETATM    1  C   UNL     1     -10.219 -12.162  28.366  1.00  0.00     0.043 A 
HETATM    2  C   UNL     1      -9.882 -13.436  30.379  1.00  0.00     0.037 A 
HETATM    3  C   UNL     1     -10.523 -11.144  30.493  1.00  0.00     0.152 A 
HETATM    4  C   UNL     1     -10.551 -11.052  29.119  1.00  0.00     0.114 A 
HETATM    5  C   UNL     1      -9.884 -13.350  28.993  1.00  0.00     0.032 A 
HETATM    6  C   UNL     1     -10.198 -12.311  31.136  1.00  0.00     0.074 A 
HETATM    7  F   UNL     1     -10.830 -10.048  31.222  1.00  0.00    -0.203 F 
ENDROOT
BRANCH   2   8
HETATM    8  N   UNL     1      -9.522 -14.683  30.960  1.00  0.00    -0.326 N 
HETATM    9  C   UNL     1     -10.044 -15.891  30.685  1.00  0.00     0.240 C 
HETATM   10  O   UNL     1     -10.875 -16.098  29.816  1.00  0.00    -0.272 OA
ATOM     11  HN  UNL     1      -8.784 -14.659  31.664  1.00  0.00     0.169 HD
BRANCH   9  12
HETATM   12  C   UNL     1      -9.509 -17.017  31.526  1.00  0.00     0.122 A 
HETATM   13  C   UNL     1      -8.421 -16.650  32.538  1.00  0.00     0.031 A 
HETATM   14  C   UNL     1      -9.807 -16.874  33.022  1.00  0.00     0.031 A 
BRANCH  12  15
HETATM   15  C   UNL     1      -9.519 -18.407  30.939  1.00  0.00     0.240 C 
HETATM   16  O   UNL     1      -9.619 -18.574  29.735  1.00  0.00    -0.272 OA
HETATM   17  N   UNL     1      -9.454 -19.433  31.802  1.00  0.00    -0.326 N 
ATOM     18  HN  UNL     1      -9.367 -19.224  32.797  1.00  0.00     0.169 HD
BRANCH  17  19
HETATM   19  C   UNL     1      -9.499 -20.798  31.399  1.00  0.00     0.034 A 
HETATM   20  C   UNL     1     -10.705 -21.482  31.431  1.00  0.00     0.032 A 
HETATM   21  C   UNL     1     -10.765 -22.821  31.084  1.00  0.00     0.044 A 
HETATM   22  C   UNL     1      -9.604 -23.454  30.745  1.00  0.00     0.116 A 
HETATM   23  F   UNL     1      -9.659 -24.772  30.415  1.00  0.00    -0.206 F 
HETATM   24  C   UNL     1      -8.391 -22.823  30.730  1.00  0.00     0.044 A 
HETATM   25  C   UNL     1      -8.336 -21.481  31.072  1.00  0.00     0.032 A 
ENDBRANCH  17  19
ENDBRANCH  12  15
ENDBRANCH   9  12
ENDBRANCH   2   8
BRANCH   4  26
HETATM   26  O   UNL     1     -10.855  -9.847  28.494  1.00  0.00    -0.309 OA
BRANCH  26  27
HETATM   27  C   UNL     1      -9.892  -9.304  27.640  1.00  0.00     0.088 C 
HETATM   28  C   UNL     1      -8.688  -8.822  28.065  1.00  0.00     0.052 C 
HETATM   29  C   UNL     1      -7.772  -8.319  27.108  1.00  0.00     0.087 C 
HETATM   30  N   UNL     1      -7.978  -8.417  25.814  1.00  0.00    -0.376 N 
HETATM   31  C   UNL     1      -9.011  -9.372  25.377  1.00  0.00     0.217 C 
ATOM     32  HN  UNL     1      -7.449  -7.858  25.144  1.00  0.00     0.161 HD
HETATM   33  N   UNL     1      -9.352  -9.305  23.977  1.00  0.00    -0.364 N 
HETATM   34  C   UNL     1     -10.276  -9.249  26.192  1.00  0.00     0.228 C 
HETATM   35  C   UNL     1     -10.362 -10.158  23.586  1.00  0.00     0.063 A 
ATOM     36  HN  UNL     1      -8.882  -8.675  23.326  1.00  0.00     0.162 HD
HETATM   37  C   UNL     1     -10.519 -10.524  22.247  1.00  0.00     0.032 A 
HETATM   38  C   UNL     1     -11.256 -10.664  24.538  1.00  0.00     0.096 A 
HETATM   39  C   UNL     1     -11.528 -11.381  21.887  1.00  0.00     0.002 A 
HETATM   40  C   UNL     1     -12.405 -11.878  22.833  1.00  0.00     0.003 A 
HETATM   41  C   UNL     1     -12.281 -11.522  24.162  1.00  0.00     0.039 A 
HETATM   42  O   UNL     1     -11.168 -10.341  25.875  1.00  0.00    -0.333 OA
ENDBRANCH  26  27
ENDBRANCH   4  26
TORSDOF 6
ENDMDL
MODEL 4
REMARK VINA RESULT:   -10.512      1.643      1.986
REMARK INTER + INTRA:         -15.039
REMARK INTER:                 -15.016
REMARK INTRA:                  -0.024
REMARK UNBOUND:                -0.840
REMARK  6 active torsions:
REMARK  status: ('A' for Active; 'I' for Inactive)
REMARK       I    between atoms: N_3  and  C_25 
REMARK    1  A    between atoms: N_3  and  C_12 
REMARK       I    between atoms: C_15  and  N_37 
REMARK    2  A    between atoms: C_15  and  C_26 
REMARK    3  A    between atoms: C_21  and  O_40 
REMARK    4  A    between atoms: C_22  and  O_40 
REMARK    5  A    between atoms: C_25  and  C_26 
REMARK    6  A    between atoms: C_28  and  N_37 
ROOT
HETATM    1  C   UNL     1      -9.384 -17.261  32.075  1.00  0.00     0.043 A 
HETATM    2  C   UNL     1     -10.063 -15.482  30.604  1.00  0.00     0.037 A 
HETATM    3  C   UNL     1      -9.561 -17.642  29.734  1.00  0.00     0.152 A 
HETATM    4  C   UNL     1      -9.288 -18.120  30.996  1.00  0.00     0.114 A 
HETATM    5  C   UNL     1      -9.769 -15.945  31.880  1.00  0.00     0.032 A 
HETATM    6  C   UNL     1      -9.947 -16.344  29.518  1.00  0.00     0.074 A 
HETATM    7  F   UNL     1      -9.445 -18.483  28.683  1.00  0.00    -0.203 F 
ENDROOT
BRANCH   2   8
HETATM    8  N   UNL     1     -10.445 -14.117  30.473  1.00  0.00    -0.326 N 
HETATM    9  C   UNL     1      -9.633 -13.052  30.356  1.00  0.00     0.240 C 
HETATM   10  O   UNL     1      -8.418 -13.121  30.269  1.00  0.00    -0.272 OA
ATOM     11  HN  UNL     1     -11.446 -13.926  30.467  1.00  0.00     0.169 HD
BRANCH   9  12
HETATM   12  C   UNL     1     -10.337 -11.724  30.315  1.00  0.00     0.122 A 
HETATM   13  C   UNL     1     -11.436 -11.506  31.358  1.00  0.00     0.031 A 
HETATM   14  C   UNL     1     -10.114 -10.861  31.562  1.00  0.00     0.031 A 
BRANCH  12  15
HETATM   15  C   UNL     1     -10.444 -11.019  28.986  1.00  0.00     0.240 C 
HETATM   16  O   UNL     1     -10.648  -9.817  28.934  1.00  0.00    -0.272 OA
HETATM   17  N   UNL     1     -10.346 -11.777  27.884  1.00  0.00    -0.326 N 
ATOM     18  HN  UNL     1     -10.171 -12.776  27.998  1.00  0.00     0.169 HD
BRANCH  17  19
HETATM   19  C   UNL     1     -10.473 -11.259  26.563  1.00  0.00     0.034 A 
HETATM   20  C   UNL     1      -9.816 -10.086  26.221  1.00  0.00     0.032 A 
HETATM   21  C   UNL     1      -9.959  -9.542  24.956  1.00  0.00     0.044 A 
HETATM   22  C   UNL     1     -10.788 -10.170  24.072  1.00  0.00     0.116 A 
HETATM   23  F   UNL     1     -10.939  -9.631  22.833  1.00  0.00    -0.206 F 
HETATM   24  C   UNL     1     -11.477 -11.310  24.380  1.00  0.00     0.044 A 
HETATM   25  C   UNL     1     -11.326 -11.855  25.646  1.00  0.00     0.032 A 
ENDBRANCH  17  19
ENDBRANCH  12  15
ENDBRANCH   9  12
ENDBRANCH   2   8
BRANCH   4  26
HETATM   26  O   UNL     1      -8.869 -19.434  31.183  1.00  0.00    -0.309 OA
BRANCH  26  27
HETATM   27  C   UNL     1      -9.849 -20.429  31.166  1.00  0.00     0.088 C 
HETATM   28  C   UNL     1     -11.169 -20.189  30.916  1.00  0.00     0.052 C 
HETATM   29  C   UNL     1     -12.075 -21.279  30.896  1.00  0.00     0.087 C 
HETATM   30  N   UNL     1     -11.677 -22.529  30.977  1.00  0.00    -0.376 N 
HETATM   31  C   UNL     1     -10.247 -22.787  30.736  1.00  0.00     0.217 C 
ATOM     32  HN  UNL     1     -12.327 -23.284  31.197  1.00  0.00     0.161 HD
HETATM   33  N   UNL     1      -9.810 -24.130  31.033  1.00  0.00    -0.364 N 
HETATM   34  C   UNL     1      -9.363 -21.814  31.477  1.00  0.00     0.228 C 
HETATM   35  C   UNL     1      -8.459 -24.350  30.864  1.00  0.00     0.063 A 
ATOM     36  HN  UNL     1     -10.451 -24.861  31.343  1.00  0.00     0.162 HD
HETATM   37  C   UNL     1      -7.954 -25.641  30.694  1.00  0.00     0.032 A 
HETATM   38  C   UNL     1      -7.571 -23.267  30.870  1.00  0.00     0.096 A 
HETATM   39  C   UNL     1      -6.606 -25.830  30.520  1.00  0.00     0.002 A 
HETATM   40  C   UNL     1      -5.736 -24.756  30.525  1.00  0.00     0.003 A 
HETATM   41  C   UNL     1      -6.207 -23.470  30.705  1.00  0.00     0.039 A 
HETATM   42  O   UNL     1      -7.994 -21.968  31.040  1.00  0.00    -0.333 OA
ENDBRANCH  26  27
ENDBRANCH   4  26
TORSDOF 6
ENDMDL
MODEL 5
REMARK VINA RESULT:   -10.451      2.684      4.714
REMARK INTER + INTRA:         -14.956
REMARK INTER:                 -15.050
REMARK INTRA:                   0.094
REMARK UNBOUND:                -0.840
REMARK  6 active torsions:
REMARK  status: ('A' for Active; 'I' for Inactive)
REMARK       I    between atoms: N_3  and  C_25 
REMARK    1  A    between atoms: N_3  and  C_12 
REMARK       I    between atoms: C_15  and  N_37 
REMARK    2  A    between atoms: C_15  and  C_26 
REMARK    3  A    between atoms: C_21  and  O_40 
REMARK    4  A    between atoms: C_22  and  O_40 
REMARK    5  A    between atoms: C_25  and  C_26 
REMARK    6  A    between atoms: C_28  and  N_37 
ROOT
HETATM    1  C   UNL     1     -10.581 -14.234  28.196  1.00  0.00     0.043 A 
HETATM    2  C   UNL     1     -10.364 -11.839  28.144  1.00  0.00     0.037 A 
HETATM    3  C   UNL     1     -10.667 -12.980  30.214  1.00  0.00     0.152 A 
HETATM    4  C   UNL     1     -10.698 -14.198  29.572  1.00  0.00     0.114 A 
HETATM    5  C   UNL     1     -10.416 -13.058  27.483  1.00  0.00     0.032 A 
HETATM    6  C   UNL     1     -10.501 -11.803  29.529  1.00  0.00     0.074 A 
HETATM    7  F   UNL     1     -10.803 -12.951  31.558  1.00  0.00    -0.203 F 
ENDROOT
BRANCH   2   8
HETATM    8  N   UNL     1     -10.200 -10.668  27.352  1.00  0.00    -0.326 N 
HETATM    9  C   UNL     1     -10.265 -10.576  26.012  1.00  0.00     0.240 C 
HETATM   10  O   UNL     1     -10.557 -11.502  25.274  1.00  0.00    -0.272 OA
ATOM     11  HN  UNL     1     -10.013  -9.802  27.857  1.00  0.00     0.169 HD
BRANCH   9  12
HETATM   12  C   UNL     1      -9.967  -9.210  25.459  1.00  0.00     0.122 A 
HETATM   13  C   UNL     1      -9.962  -9.083  23.933  1.00  0.00     0.031 A 
HETATM   14  C   UNL     1     -11.135  -8.580  24.692  1.00  0.00     0.031 A 
BRANCH  12  15
HETATM   15  C   UNL     1      -9.086  -8.293  26.269  1.00  0.00     0.240 C 
HETATM   16  O   UNL     1      -9.459  -7.865  27.349  1.00  0.00    -0.272 OA
HETATM   17  N   UNL     1      -7.907  -7.946  25.730  1.00  0.00    -0.326 N 
ATOM     18  HN  UNL     1      -7.654  -8.343  24.824  1.00  0.00     0.169 HD
BRANCH  17  19
HETATM   19  C   UNL     1      -6.992  -7.053  26.356  1.00  0.00     0.034 A 
HETATM   20  C   UNL     1      -7.029  -5.702  26.043  1.00  0.00     0.032 A 
HETATM   21  C   UNL     1      -6.121  -4.823  26.609  1.00  0.00     0.044 A 
HETATM   22  C   UNL     1      -5.173  -5.326  27.451  1.00  0.00     0.116 A 
HETATM   23  F   UNL     1      -4.273  -4.466  27.999  1.00  0.00    -0.206 F 
HETATM   24  C   UNL     1      -5.083  -6.655  27.761  1.00  0.00     0.044 A 
HETATM   25  C   UNL     1      -5.997  -7.531  27.198  1.00  0.00     0.032 A 
ENDBRANCH  17  19
ENDBRANCH  12  15
ENDBRANCH   9  12
ENDBRANCH   2   8
BRANCH   4  26
HETATM   26  O   UNL     1     -10.897 -15.374  30.290  1.00  0.00    -0.309 OA
BRANCH  26  27
HETATM   27  C   UNL     1      -9.790 -15.930  30.933  1.00  0.00     0.088 C 
HETATM   28  C   UNL     1      -8.878 -15.201  31.640  1.00  0.00     0.052 C 
HETATM   29  C   UNL     1      -7.805 -15.872  32.278  1.00  0.00     0.087 C 
HETATM   30  N   UNL     1      -7.722 -17.183  32.327  1.00  0.00    -0.376 N 
HETATM   31  C   UNL     1      -8.948 -17.937  32.012  1.00  0.00     0.217 C 
ATOM     32  HN  UNL     1      -6.851 -17.655  32.571  1.00  0.00     0.161 HD
HETATM   33  N   UNL     1      -8.769 -19.362  31.877  1.00  0.00    -0.364 N 
HETATM   34  C   UNL     1      -9.633 -17.413  30.774  1.00  0.00     0.228 C 
HETATM   35  C   UNL     1      -9.907 -20.057  31.522  1.00  0.00     0.063 A 
ATOM     36  HN  UNL     1      -7.872 -19.821  32.032  1.00  0.00     0.162 HD
HETATM   37  C   UNL     1     -10.018 -21.429  31.759  1.00  0.00     0.032 A 
HETATM   38  C   UNL     1     -10.970 -19.385  30.905  1.00  0.00     0.096 A 
HETATM   39  C   UNL     1     -11.165 -22.093  31.403  1.00  0.00     0.002 A 
HETATM   40  C   UNL     1     -12.210 -21.422  30.797  1.00  0.00     0.003 A 
HETATM   41  C   UNL     1     -12.122 -20.068  30.538  1.00  0.00     0.039 A 
HETATM   42  O   UNL     1     -10.930 -18.035  30.633  1.00  0.00    -0.333 OA
ENDBRANCH  26  27
ENDBRANCH   4  26
TORSDOF 6
ENDMDL
MODEL 6
REMARK VINA RESULT:   -10.348      1.973      2.603
REMARK INTER + INTRA:         -14.817
REMARK INTER:                 -14.205
REMARK INTRA:                  -0.612
REMARK UNBOUND:                -0.840
REMARK  6 active torsions:
REMARK  status: ('A' for Active; 'I' for Inactive)
REMARK       I    between atoms: N_3  and  C_25 
REMARK    1  A    between atoms: N_3  and  C_12 
REMARK       I    between atoms: C_15  and  N_37 
REMARK    2  A    between atoms: C_15  and  C_26 
REMARK    3  A    between atoms: C_21  and  O_40 
REMARK    4  A    between atoms: C_22  and  O_40 
REMARK    5  A    between atoms: C_25  and  C_26 
REMARK    6  A    between atoms: C_28  and  N_37 
ROOT
HETATM    1  C   UNL     1     -10.162 -15.417  30.578  1.00  0.00     0.043 A 
HETATM    2  C   UNL     1      -9.974 -14.286  28.463  1.00  0.00     0.037 A 
HETATM    3  C   UNL     1      -9.359 -16.579  28.666  1.00  0.00     0.152 A 
HETATM    4  C   UNL     1      -9.698 -16.584  30.000  1.00  0.00     0.114 A 
HETATM    5  C   UNL     1     -10.299 -14.271  29.813  1.00  0.00     0.032 A 
HETATM    6  C   UNL     1      -9.490 -15.457  27.888  1.00  0.00     0.074 A 
HETATM    7  F   UNL     1      -8.887 -17.719  28.113  1.00  0.00    -0.203 F 
ENDROOT
BRANCH   2   8
HETATM    8  N   UNL     1     -10.131 -13.073  27.736  1.00  0.00    -0.326 N 
HETATM    9  C   UNL     1     -11.055 -12.798  26.799  1.00  0.00     0.240 C 
HETATM   10  O   UNL     1     -11.963 -13.552  26.489  1.00  0.00    -0.272 OA
ATOM     11  HN  UNL     1      -9.467 -12.329  27.949  1.00  0.00     0.169 HD
BRANCH   9  12
HETATM   12  C   UNL     1     -10.914 -11.450  26.149  1.00  0.00     0.122 A 
HETATM   13  C   UNL     1     -10.966 -11.425  24.620  1.00  0.00     0.031 A 
HETATM   14  C   UNL     1     -12.161 -10.992  25.386  1.00  0.00     0.031 A 
BRANCH  12  15
HETATM   15  C   UNL     1     -10.106 -10.398  26.868  1.00  0.00     0.240 C 
HETATM   16  O   UNL     1     -10.191 -10.266  28.077  1.00  0.00    -0.272 OA
HETATM   17  N   UNL     1      -9.334  -9.601  26.113  1.00  0.00    -0.326 N 
ATOM     18  HN  UNL     1      -9.306  -9.767  25.106  1.00  0.00     0.169 HD
BRANCH  17  19
HETATM   19  C   UNL     1      -8.553  -8.536  26.645  1.00  0.00     0.034 A 
HETATM   20  C   UNL     1      -9.012  -7.231  26.542  1.00  0.00     0.032 A 
HETATM   21  C   UNL     1      -8.249  -6.177  27.015  1.00  0.00     0.044 A 
HETATM   22  C   UNL     1      -7.025  -6.453  27.550  1.00  0.00     0.116 A 
HETATM   23  F   UNL     1      -6.269  -5.418  28.005  1.00  0.00    -0.206 F 
HETATM   24  C   UNL     1      -6.523  -7.722  27.642  1.00  0.00     0.044 A 
HETATM   25  C   UNL     1      -7.292  -8.775  27.174  1.00  0.00     0.032 A 
ENDBRANCH  17  19
ENDBRANCH  12  15
ENDBRANCH   9  12
ENDBRANCH   2   8
BRANCH   4  26
HETATM   26  O   UNL     1      -9.528 -17.729  30.773  1.00  0.00    -0.309 OA
BRANCH  26  27
HETATM   27  C   UNL     1     -10.572 -18.656  30.787  1.00  0.00     0.088 C 
HETATM   28  C   UNL     1     -11.855 -18.357  30.431  1.00  0.00     0.052 C 
HETATM   29  C   UNL     1     -12.832 -19.384  30.455  1.00  0.00     0.087 C 
HETATM   30  N   UNL     1     -12.529 -20.643  30.680  1.00  0.00    -0.376 N 
HETATM   31  C   UNL     1     -11.108 -21.014  30.556  1.00  0.00     0.217 C 
ATOM     32  HN  UNL     1     -13.241 -21.329  30.928  1.00  0.00     0.161 HD
HETATM   33  N   UNL     1     -10.785 -22.346  31.006  1.00  0.00    -0.364 N 
HETATM   34  C   UNL     1     -10.203 -20.031  31.258  1.00  0.00     0.228 C 
HETATM   35  C   UNL     1      -9.445 -22.667  30.946  1.00  0.00     0.063 A 
ATOM     36  HN  UNL     1     -11.492 -23.000  31.342  1.00  0.00     0.162 HD
HETATM   37  C   UNL     1      -9.022 -23.999  30.931  1.00  0.00     0.032 A 
HETATM   38  C   UNL     1      -8.485 -21.649  30.908  1.00  0.00     0.096 A 
HETATM   39  C   UNL     1      -7.683 -24.290  30.863  1.00  0.00     0.002 A 
HETATM   40  C   UNL     1      -6.742 -23.279  30.823  1.00  0.00     0.003 A 
HETATM   41  C   UNL     1      -7.131 -21.954  30.850  1.00  0.00     0.039 A 
HETATM   42  O   UNL     1      -8.825 -20.314  30.926  1.00  0.00    -0.333 OA
ENDBRANCH  26  27
ENDBRANCH   4  26
TORSDOF 6
ENDMDL
MODEL 7
REMARK VINA RESULT:   -10.299      2.775     12.268
REMARK INTER + INTRA:         -14.751
REMARK INTER:                 -15.388
REMARK INTRA:                   0.637
REMARK UNBOUND:                -0.840
REMARK  6 active torsions:
REMARK  status: ('A' for Active; 'I' for Inactive)
REMARK       I    between atoms: N_3  and  C_25 
REMARK    1  A    between atoms: N_3  and  C_12 
REMARK       I    between atoms: C_15  and  N_37 
REMARK    2  A    between atoms: C_15  and  C_26 
REMARK    3  A    between atoms: C_21  and  O_40 
REMARK    4  A    between atoms: C_22  and  O_40 
REMARK    5  A    between atoms: C_25  and  C_26 
REMARK    6  A    between atoms: C_28  and  N_37 
ROOT
HETATM    1  C   UNL     1     -10.930 -12.516  27.422  1.00  0.00     0.043 A 
HETATM    2  C   UNL     1     -10.128 -13.324  29.542  1.00  0.00     0.037 A 
HETATM    3  C   UNL     1     -10.149 -10.988  29.068  1.00  0.00     0.152 A 
HETATM    4  C   UNL     1     -10.688 -11.216  27.822  1.00  0.00     0.114 A 
HETATM    5  C   UNL     1     -10.650 -13.568  28.279  1.00  0.00     0.032 A 
HETATM    6  C   UNL     1      -9.867 -12.014  29.935  1.00  0.00     0.074 A 
HETATM    7  F   UNL     1      -9.897  -9.715  29.444  1.00  0.00    -0.203 F 
ENDROOT
BRANCH   2   8
HETATM    8  N   UNL     1      -9.855 -14.449  30.369  1.00  0.00    -0.326 N 
HETATM    9  C   UNL     1      -9.205 -15.574  30.026  1.00  0.00     0.240 C 
HETATM   10  O   UNL     1      -8.676 -15.757  28.942  1.00  0.00    -0.272 OA
ATOM     11  HN  UNL     1     -10.192 -14.396  31.331  1.00  0.00     0.169 HD
BRANCH   9  12
HETATM   12  C   UNL     1      -9.145 -16.622  31.102  1.00  0.00     0.122 A 
HETATM   13  C   UNL     1      -8.153 -16.371  32.240  1.00  0.00     0.031 A 
HETATM   14  C   UNL     1      -9.598 -16.128  32.480  1.00  0.00     0.031 A 
BRANCH  12  15
HETATM   15  C   UNL     1      -9.475 -18.045  30.725  1.00  0.00     0.240 C 
HETATM   16  O   UNL     1     -10.094 -18.290  29.703  1.00  0.00    -0.272 OA
HETATM   17  N   UNL     1      -9.094 -19.006  31.580  1.00  0.00    -0.326 N 
ATOM     18  HN  UNL     1      -8.576 -18.733  32.415  1.00  0.00     0.169 HD
BRANCH  17  19
HETATM   19  C   UNL     1      -9.376 -20.388  31.380  1.00  0.00     0.034 A 
HETATM   20  C   UNL     1     -10.654 -20.869  31.625  1.00  0.00     0.032 A 
HETATM   21  C   UNL     1     -10.939 -22.216  31.478  1.00  0.00     0.044 A 
HETATM   22  C   UNL     1      -9.926 -23.057  31.122  1.00  0.00     0.116 A 
HETATM   23  F   UNL     1     -10.202 -24.382  30.988  1.00  0.00    -0.206 F 
HETATM   24  C   UNL     1      -8.646 -22.627  30.901  1.00  0.00     0.044 A 
HETATM   25  C   UNL     1      -8.366 -21.277  31.043  1.00  0.00     0.032 A 
ENDBRANCH  17  19
ENDBRANCH  12  15
ENDBRANCH   9  12
ENDBRANCH   2   8
BRANCH   4  26
HETATM   26  O   UNL     1     -10.937 -10.158  26.952  1.00  0.00    -0.309 OA
BRANCH  26  27
HETATM   27  C   UNL     1     -10.455 -10.273  25.646  1.00  0.00     0.088 C 
HETATM   28  C   UNL     1     -11.067 -11.011  24.675  1.00  0.00     0.052 C 
HETATM   29  C   UNL     1     -10.507 -11.036  23.374  1.00  0.00     0.087 C 
HETATM   30  N   UNL     1      -9.495 -10.273  23.026  1.00  0.00    -0.376 N 
HETATM   31  C   UNL     1      -9.183  -9.139  23.915  1.00  0.00     0.217 C 
ATOM     32  HN  UNL     1      -8.951 -10.456  22.183  1.00  0.00     0.161 HD
HETATM   33  N   UNL     1      -7.951  -8.451  23.616  1.00  0.00    -0.364 N 
HETATM   34  C   UNL     1      -9.174  -9.546  25.368  1.00  0.00     0.228 C 
HETATM   35  C   UNL     1      -7.633  -7.430  24.488  1.00  0.00     0.063 A 
ATOM     36  HN  UNL     1      -7.360  -8.700  22.822  1.00  0.00     0.162 HD
HETATM   37  C   UNL     1      -6.741  -6.419  24.120  1.00  0.00     0.032 A 
HETATM   38  C   UNL     1      -8.201  -7.403  25.767  1.00  0.00     0.096 A 
HETATM   39  C   UNL     1      -6.449  -5.411  25.004  1.00  0.00     0.002 A 
HETATM   40  C   UNL     1      -7.016  -5.391  26.264  1.00  0.00     0.003 A 
HETATM   41  C   UNL     1      -7.890  -6.385  26.659  1.00  0.00     0.039 A 
HETATM   42  O   UNL     1      -9.081  -8.369  26.203  1.00  0.00    -0.333 OA
ENDBRANCH  26  27
ENDBRANCH   4  26
TORSDOF 6
ENDMDL
MODEL 8
REMARK VINA RESULT:   -10.180      4.840      8.732
REMARK INTER + INTRA:         -14.591
REMARK INTER:                 -14.588
REMARK INTRA:                  -0.003
REMARK UNBOUND:                -0.840
REMARK  6 active torsions:
REMARK  status: ('A' for Active; 'I' for Inactive)
REMARK       I    between atoms: N_3  and  C_25 
REMARK    1  A    between atoms: N_3  and  C_12 
REMARK       I    between atoms: C_15  and  N_37 
REMARK    2  A    between atoms: C_15  and  C_26 
REMARK    3  A    between atoms: C_21  and  O_40 
REMARK    4  A    between atoms: C_22  and  O_40 
REMARK    5  A    between atoms: C_25  and  C_26 
REMARK    6  A    between atoms: C_28  and  N_37 
ROOT
HETATM    1  C   UNL     1      -8.142  -9.691  28.083  1.00  0.00     0.043 A 
HETATM    2  C   UNL     1      -7.512  -7.952  26.544  1.00  0.00     0.037 A 
HETATM    3  C   UNL     1      -9.598  -9.078  26.306  1.00  0.00     0.152 A 
HETATM    4  C   UNL     1      -9.340  -9.854  27.413  1.00  0.00     0.114 A 
HETATM    5  C   UNL     1      -7.230  -8.744  27.649  1.00  0.00     0.032 A 
HETATM    6  C   UNL     1      -8.711  -8.131  25.861  1.00  0.00     0.074 A 
HETATM    7  F   UNL     1     -10.763  -9.257  25.645  1.00  0.00    -0.203 F 
ENDROOT
BRANCH   2   8
HETATM    8  N   UNL     1      -6.528  -7.004  26.147  1.00  0.00    -0.326 N 
HETATM    9  C   UNL     1      -5.286  -6.862  26.643  1.00  0.00     0.240 C 
HETATM   10  O   UNL     1      -4.792  -7.601  27.479  1.00  0.00    -0.272 OA
ATOM     11  HN  UNL     1      -6.794  -6.360  25.403  1.00  0.00     0.169 HD
BRANCH   9  12
HETATM   12  C   UNL     1      -4.506  -5.711  26.072  1.00  0.00     0.122 A 
HETATM   13  C   UNL     1      -5.326  -4.576  25.452  1.00  0.00     0.031 A 
HETATM   14  C   UNL     1      -4.733  -4.382  26.799  1.00  0.00     0.031 A 
BRANCH  12  15
HETATM   15  C   UNL     1      -3.124  -5.988  25.535  1.00  0.00     0.240 C 
HETATM   16  O   UNL     1      -2.170  -6.080  26.290  1.00  0.00    -0.272 OA
HETATM   17  N   UNL     1      -2.995  -6.086  24.203  1.00  0.00    -0.326 N 
ATOM     18  HN  UNL     1      -3.835  -6.003  23.629  1.00  0.00     0.169 HD
BRANCH  17  19
HETATM   19  C   UNL     1      -1.747  -6.299  23.551  1.00  0.00     0.034 A 
HETATM   20  C   UNL     1      -1.054  -5.218  23.027  1.00  0.00     0.032 A 
HETATM   21  C   UNL     1       0.140  -5.408  22.352  1.00  0.00     0.044 A 
HETATM   22  C   UNL     1       0.595  -6.683  22.187  1.00  0.00     0.116 A 
HETATM   23  F   UNL     1       1.762  -6.872  21.515  1.00  0.00    -0.206 F 
HETATM   24  C   UNL     1      -0.074  -7.778  22.661  1.00  0.00     0.044 A 
HETATM   25  C   UNL     1      -1.266  -7.584  23.342  1.00  0.00     0.032 A 
ENDBRANCH  17  19
ENDBRANCH  12  15
ENDBRANCH   9  12
ENDBRANCH   2   8
BRANCH   4  26
HETATM   26  O   UNL     1     -10.246 -10.827  27.825  1.00  0.00    -0.309 OA
BRANCH  26  27
HETATM   27  C   UNL     1     -10.352 -11.067  29.197  1.00  0.00     0.088 C 
HETATM   28  C   UNL     1     -10.931 -10.200  30.076  1.00  0.00     0.052 C 
HETATM   29  C   UNL     1     -11.010 -10.558  31.445  1.00  0.00     0.087 C 
HETATM   30  N   UNL     1     -10.667 -11.747  31.885  1.00  0.00    -0.376 N 
HETATM   31  C   UNL     1     -10.532 -12.813  30.877  1.00  0.00     0.217 C 
ATOM     32  HN  UNL     1     -10.501 -11.924  32.876  1.00  0.00     0.161 HD
HETATM   33  N   UNL     1      -9.959 -14.045  31.364  1.00  0.00    -0.364 N 
HETATM   34  C   UNL     1      -9.748 -12.356  29.671  1.00  0.00     0.228 C 
HETATM   35  C   UNL     1      -9.778 -15.018  30.403  1.00  0.00     0.063 A 
ATOM     36  HN  UNL     1      -9.708 -14.185  32.342  1.00  0.00     0.162 HD
HETATM   37  C   UNL     1      -9.646 -16.364  30.756  1.00  0.00     0.032 A 
HETATM   38  C   UNL     1      -9.715 -14.660  29.051  1.00  0.00     0.096 A 
HETATM   39  C   UNL     1      -9.475 -17.312  29.779  1.00  0.00     0.002 A 
HETATM   40  C   UNL     1      -9.417 -16.950  28.446  1.00  0.00     0.003 A 
HETATM   41  C   UNL     1      -9.531 -15.626  28.071  1.00  0.00     0.039 A 
HETATM   42  O   UNL     1      -9.830 -13.354  28.629  1.00  0.00    -0.333 OA
ENDBRANCH  26  27
ENDBRANCH   4  26
TORSDOF 6
ENDMDL
MODEL 9
REMARK VINA RESULT:    -9.804      6.536     10.881
REMARK INTER + INTRA:         -14.083
REMARK INTER:                 -13.291
REMARK INTRA:                  -0.792
REMARK UNBOUND:                -0.840
REMARK  6 active torsions:
REMARK  status: ('A' for Active; 'I' for Inactive)
REMARK       I    between atoms: N_3  and  C_25 
REMARK    1  A    between atoms: N_3  and  C_12 
REMARK       I    between atoms: C_15  and  N_37 
REMARK    2  A    between atoms: C_15  and  C_26 
REMARK    3  A    between atoms: C_21  and  O_40 
REMARK    4  A    between atoms: C_22  and  O_40 
REMARK    5  A    between atoms: C_25  and  C_26 
REMARK    6  A    between atoms: C_28  and  N_37 
ROOT
HETATM    1  C   UNL     1      -7.579  -8.020  27.578  1.00  0.00     0.043 A 
HETATM    2  C   UNL     1      -5.740  -6.705  26.754  1.00  0.00     0.037 A 
HETATM    3  C   UNL     1      -7.941  -6.367  25.907  1.00  0.00     0.152 A 
HETATM    4  C   UNL     1      -8.444  -7.340  26.741  1.00  0.00     0.114 A 
HETATM    5  C   UNL     1      -6.231  -7.705  27.584  1.00  0.00     0.032 A 
HETATM    6  C   UNL     1      -6.610  -6.036  25.899  1.00  0.00     0.074 A 
HETATM    7  F   UNL     1      -8.790  -5.721  25.078  1.00  0.00    -0.203 F 
ENDROOT
BRANCH   2   8
HETATM    8  N   UNL     1      -4.344  -6.437  26.804  1.00  0.00    -0.326 N 
HETATM    9  C   UNL     1      -3.713  -5.547  27.590  1.00  0.00     0.240 C 
HETATM   10  O   UNL     1      -4.263  -4.880  28.450  1.00  0.00    -0.272 OA
ATOM     11  HN  UNL     1      -3.755  -6.980  26.173  1.00  0.00     0.169 HD
BRANCH   9  12
HETATM   12  C   UNL     1      -2.232  -5.435  27.355  1.00  0.00     0.122 A 
HETATM   13  C   UNL     1      -1.537  -4.218  27.971  1.00  0.00     0.031 A 
HETATM   14  C   UNL     1      -1.388  -5.540  28.630  1.00  0.00     0.031 A 
BRANCH  12  15
HETATM   15  C   UNL     1      -1.667  -6.034  26.091  1.00  0.00     0.240 C 
HETATM   16  O   UNL     1      -2.011  -7.144  25.720  1.00  0.00    -0.272 OA
HETATM   17  N   UNL     1      -0.752  -5.309  25.429  1.00  0.00    -0.326 N 
ATOM     18  HN  UNL     1      -0.512  -4.386  25.791  1.00  0.00     0.169 HD
BRANCH  17  19
HETATM   19  C   UNL     1      -0.100  -5.763  24.248  1.00  0.00     0.034 A 
HETATM   20  C   UNL     1      -0.644  -5.467  23.007  1.00  0.00     0.032 A 
HETATM   21  C   UNL     1      -0.049  -5.934  21.847  1.00  0.00     0.044 A 
HETATM   22  C   UNL     1       1.061  -6.718  21.960  1.00  0.00     0.116 A 
HETATM   23  F   UNL     1       1.640  -7.188  20.823  1.00  0.00    -0.206 F 
HETATM   24  C   UNL     1       1.611  -7.058  23.165  1.00  0.00     0.044 A 
HETATM   25  C   UNL     1       1.017  -6.584  24.324  1.00  0.00     0.032 A 
ENDBRANCH  17  19
ENDBRANCH  12  15
ENDBRANCH   9  12
ENDBRANCH   2   8
BRANCH   4  26
HETATM   26  O   UNL     1      -9.794  -7.676  26.707  1.00  0.00    -0.309 OA
BRANCH  26  27
HETATM   27  C   UNL     1     -10.168  -8.757  25.905  1.00  0.00     0.088 C 
HETATM   28  C   UNL     1     -10.031  -8.775  24.548  1.00  0.00     0.052 C 
HETATM   29  C   UNL     1     -10.417  -9.937  23.833  1.00  0.00     0.087 C 
HETATM   30  N   UNL     1     -10.779 -11.048  24.435  1.00  0.00    -0.376 N 
HETATM   31  C   UNL     1     -10.437 -11.171  25.863  1.00  0.00     0.217 C 
ATOM     32  HN  UNL     1     -11.273 -11.790  23.938  1.00  0.00     0.161 HD
HETATM   33  N   UNL     1     -11.025 -12.304  26.536  1.00  0.00    -0.364 N 
HETATM   34  C   UNL     1     -10.774  -9.918  26.635  1.00  0.00     0.228 C 
HETATM   35  C   UNL     1     -10.752 -12.380  27.886  1.00  0.00     0.063 A 
ATOM     36  HN  UNL     1     -11.597 -12.995  26.051  1.00  0.00     0.162 HD
HETATM   37  C   UNL     1     -10.870 -13.587  28.579  1.00  0.00     0.032 A 
HETATM   38  C   UNL     1     -10.357 -11.232  28.583  1.00  0.00     0.096 A 
HETATM   39  C   UNL     1     -10.585 -13.636  29.920  1.00  0.00     0.002 A 
HETATM   40  C   UNL     1     -10.193 -12.498  30.600  1.00  0.00     0.003 A 
HETATM   41  C   UNL     1     -10.081 -11.289  29.943  1.00  0.00     0.039 A 
HETATM   42  O   UNL     1     -10.225 -10.006  27.969  1.00  0.00    -0.333 OA
ENDBRANCH  26  27
ENDBRANCH   4  26
TORSDOF 6
ENDMDL
MODEL 10
REMARK VINA RESULT:    -9.649      3.380      6.206
REMARK INTER + INTRA:         -13.874
REMARK INTER:                 -13.670
REMARK INTRA:                  -0.204
REMARK UNBOUND:                -0.840
REMARK  6 active torsions:
REMARK  status: ('A' for Active; 'I' for Inactive)
REMARK       I    between atoms: N_3  and  C_25 
REMARK    1  A    between atoms: N_3  and  C_12 
REMARK       I    between atoms: C_15  and  N_37 
REMARK    2  A    between atoms: C_15  and  C_26 
REMARK    3  A    between atoms: C_21  and  O_40 
REMARK    4  A    between atoms: C_22  and  O_40 
REMARK    5  A    between atoms: C_25  and  C_26 
REMARK    6  A    between atoms: C_28  and  N_37 
ROOT
HETATM    1  C   UNL     1      -7.994 -22.516  30.918  1.00  0.00     0.043 A 
HETATM    2  C   UNL     1      -9.269 -20.514  31.310  1.00  0.00     0.037 A 
HETATM    3  C   UNL     1     -10.365 -22.616  31.071  1.00  0.00     0.152 A 
HETATM    4  C   UNL     1      -9.159 -23.259  30.903  1.00  0.00     0.114 A 
HETATM    5  C   UNL     1      -8.048 -21.147  31.120  1.00  0.00     0.032 A 
HETATM    6  C   UNL     1     -10.442 -21.262  31.276  1.00  0.00     0.074 A 
HETATM    7  F   UNL     1     -11.501 -23.347  31.034  1.00  0.00    -0.203 F 
ENDROOT
BRANCH   2   8
HETATM    8  N   UNL     1      -9.255 -19.104  31.505  1.00  0.00    -0.326 N 
HETATM    9  C   UNL     1      -9.462 -18.152  30.579  1.00  0.00     0.240 C 
HETATM   10  O   UNL     1      -9.775 -18.377  29.422  1.00  0.00    -0.272 OA
ATOM     11  HN  UNL     1      -9.065 -18.780  32.453  1.00  0.00     0.169 HD
BRANCH   9  12
HETATM   12  C   UNL     1      -9.301 -16.742  31.076  1.00  0.00     0.122 A 
HETATM   13  C   UNL     1      -9.791 -16.465  32.500  1.00  0.00     0.031 A 
HETATM   14  C   UNL     1      -8.333 -16.603  32.256  1.00  0.00     0.031 A 
BRANCH  12  15
HETATM   15  C   UNL     1      -9.336 -15.625  30.064  1.00  0.00     0.240 C 
HETATM   16  O   UNL     1      -8.532 -15.590  29.147  1.00  0.00    -0.272 OA
HETATM   17  N   UNL     1     -10.256 -14.665  30.246  1.00  0.00    -0.326 N 
ATOM     18  HN  UNL     1     -10.901 -14.756  31.031  1.00  0.00     0.169 HD
BRANCH  17  19
HETATM   19  C   UNL     1     -10.378 -13.527  29.399  1.00  0.00     0.034 A 
HETATM   20  C   UNL     1     -10.702 -13.700  28.061  1.00  0.00     0.032 A 
HETATM   21  C   UNL     1     -10.784 -12.610  27.210  1.00  0.00     0.044 A 
HETATM   22  C   UNL     1     -10.505 -11.373  27.714  1.00  0.00     0.116 A 
HETATM   23  F   UNL     1     -10.574 -10.303  26.877  1.00  0.00    -0.206 F 
HETATM   24  C   UNL     1     -10.152 -11.164  29.018  1.00  0.00     0.044 A 
HETATM   25  C   UNL     1     -10.077 -12.256  29.869  1.00  0.00     0.032 A 
ENDBRANCH  17  19
ENDBRANCH  12  15
ENDBRANCH   9  12
ENDBRANCH   2   8
BRANCH   4  26
HETATM   26  O   UNL     1      -9.113 -24.630  30.667  1.00  0.00    -0.309 OA
BRANCH  26  27
HETATM   27  C   UNL     1      -8.567 -25.436  31.668  1.00  0.00     0.088 C 
HETATM   28  C   UNL     1      -9.122 -25.588  32.905  1.00  0.00     0.052 C 
HETATM   29  C   UNL     1      -8.498 -26.455  33.837  1.00  0.00     0.087 C 
HETATM   30  N   UNL     1      -7.480 -27.221  33.517  1.00  0.00    -0.376 N 
HETATM   31  C   UNL     1      -7.226 -27.420  32.079  1.00  0.00     0.217 C 
ATOM     32  HN  UNL     1      -6.893 -27.657  34.229  1.00  0.00     0.161 HD
HETATM   33  N   UNL     1      -5.989 -28.093  31.766  1.00  0.00    -0.364 N 
HETATM   34  C   UNL     1      -7.282 -26.122  31.310  1.00  0.00     0.228 C 
HETATM   35  C   UNL     1      -5.727 -28.222  30.418  1.00  0.00     0.063 A 
ATOM     36  HN  UNL     1      -5.357 -28.446  32.485  1.00  0.00     0.162 HD
HETATM   37  C   UNL     1      -4.831 -29.185  29.946  1.00  0.00     0.032 A 
HETATM   38  C   UNL     1      -6.357 -27.372  29.500  1.00  0.00     0.096 A 
HETATM   39  C   UNL     1      -4.595 -29.296  28.599  1.00  0.00     0.002 A 
HETATM   40  C   UNL     1      -5.223 -28.455  27.700  1.00  0.00     0.003 A 
HETATM   41  C   UNL     1      -6.103 -27.485  28.140  1.00  0.00     0.039 A 
HETATM   42  O   UNL     1      -7.246 -26.395  29.891  1.00  0.00    -0.333 OA
ENDBRANCH  26  27
ENDBRANCH   4  26
TORSDOF 6
ENDMDL
MODEL 11
REMARK VINA RESULT:    -9.525      6.235     10.542
REMARK INTER + INTRA:         -13.706
REMARK INTER:                 -13.178
REMARK INTRA:                  -0.528
REMARK UNBOUND:                -0.840
REMARK  6 active torsions:
REMARK  status: ('A' for Active; 'I' for Inactive)
REMARK       I    between atoms: N_3  and  C_25 
REMARK    1  A    between atoms: N_3  and  C_12 
REMARK       I    between atoms: C_15  and  N_37 
REMARK    2  A    between atoms: C_15  and  C_26 
REMARK    3  A    between atoms: C_21  and  O_40 
REMARK    4  A    between atoms: C_22  and  O_40 
REMARK    5  A    between atoms: C_25  and  C_26 
REMARK    6  A    between atoms: C_28  and  N_37 
ROOT
HETATM    1  C   UNL     1      -3.952 -22.802  29.470  1.00  0.00     0.043 A 
HETATM    2  C   UNL     1      -5.991 -22.815  30.749  1.00  0.00     0.037 A 
HETATM    3  C   UNL     1      -4.434 -24.608  30.940  1.00  0.00     0.152 A 
HETATM    4  C   UNL     1      -3.584 -24.006  30.039  1.00  0.00     0.114 A 
HETATM    5  C   UNL     1      -5.153 -22.208  29.822  1.00  0.00     0.032 A 
HETATM    6  C   UNL     1      -5.626 -24.036  31.306  1.00  0.00     0.074 A 
HETATM    7  F   UNL     1      -4.075 -25.795  31.477  1.00  0.00    -0.203 F 
ENDROOT
BRANCH   2   8
HETATM    8  N   UNL     1      -7.212 -22.155  31.060  1.00  0.00    -0.326 N 
HETATM    9  C   UNL     1      -8.460 -22.596  30.823  1.00  0.00     0.240 C 
HETATM   10  O   UNL     1      -8.723 -23.693  30.359  1.00  0.00    -0.272 OA
ATOM     11  HN  UNL     1      -7.133 -21.245  31.514  1.00  0.00     0.169 HD
BRANCH   9  12
HETATM   12  C   UNL     1      -9.552 -21.633  31.196  1.00  0.00     0.122 A 
HETATM   13  C   UNL     1     -10.970 -22.011  30.758  1.00  0.00     0.031 A 
HETATM   14  C   UNL     1     -10.580 -22.205  32.177  1.00  0.00     0.031 A 
BRANCH  12  15
HETATM   15  C   UNL     1      -9.196 -20.173  31.327  1.00  0.00     0.240 C 
HETATM   16  O   UNL     1      -8.412 -19.798  32.183  1.00  0.00    -0.272 OA
HETATM   17  N   UNL     1      -9.807 -19.319  30.493  1.00  0.00    -0.326 N 
ATOM     18  HN  UNL     1     -10.449 -19.698  29.796  1.00  0.00     0.169 HD
BRANCH  17  19
HETATM   19  C   UNL     1      -9.606 -17.909  30.530  1.00  0.00     0.034 A 
HETATM   20  C   UNL     1      -9.244 -17.238  29.371  1.00  0.00     0.032 A 
HETATM   21  C   UNL     1      -9.001 -15.875  29.393  1.00  0.00     0.044 A 
HETATM   22  C   UNL     1      -9.094 -15.221  30.587  1.00  0.00     0.116 A 
HETATM   23  F   UNL     1      -8.846 -13.884  30.613  1.00  0.00    -0.206 F 
HETATM   24  C   UNL     1      -9.418 -15.851  31.757  1.00  0.00     0.044 A 
HETATM   25  C   UNL     1      -9.666 -17.214  31.729  1.00  0.00     0.032 A 
ENDBRANCH  17  19
ENDBRANCH  12  15
ENDBRANCH   9  12
ENDBRANCH   2   8
BRANCH   4  26
HETATM   26  O   UNL     1      -2.394 -24.624  29.664  1.00  0.00    -0.309 OA
BRANCH  26  27
HETATM   27  C   UNL     1      -1.245 -24.296  30.386  1.00  0.00     0.088 C 
HETATM   28  C   UNL     1      -0.810 -24.994  31.475  1.00  0.00     0.052 C 
HETATM   29  C   UNL     1       0.388 -24.590  32.117  1.00  0.00     0.087 C 
HETATM   30  N   UNL     1       1.169 -23.653  31.630  1.00  0.00    -0.376 N 
HETATM   31  C   UNL     1       0.954 -23.277  30.221  1.00  0.00     0.217 C 
ATOM     32  HN  UNL     1       1.889 -23.206  32.198  1.00  0.00     0.161 HD
HETATM   33  N   UNL     1       1.684 -22.112  29.783  1.00  0.00    -0.364 N 
HETATM   34  C   UNL     1      -0.509 -23.082  29.905  1.00  0.00     0.228 C 
HETATM   35  C   UNL     1       1.433 -21.728  28.482  1.00  0.00     0.063 A 
ATOM     36  HN  UNL     1       2.336 -21.611  30.387  1.00  0.00     0.162 HD
HETATM   37  C   UNL     1       2.333 -20.920  27.781  1.00  0.00     0.032 A 
HETATM   38  C   UNL     1       0.255 -22.141  27.848  1.00  0.00     0.096 A 
HETATM   39  C   UNL     1       2.061 -20.560  26.486  1.00  0.00     0.002 A 
HETATM   40  C   UNL     1       0.897 -20.975  25.867  1.00  0.00     0.003 A 
HETATM   41  C   UNL     1      -0.017 -21.762  26.540  1.00  0.00     0.039 A 
HETATM   42  O   UNL     1      -0.682 -22.931  28.477  1.00  0.00    -0.333 OA
ENDBRANCH  26  27
ENDBRANCH   4  26
TORSDOF 6
ENDMDL
MODEL 12
REMARK VINA RESULT:    -9.417      5.036     10.333
REMARK INTER + INTRA:         -13.561
REMARK INTER:                 -13.906
REMARK INTRA:                   0.346
REMARK UNBOUND:                -0.840
REMARK  6 active torsions:
REMARK  status: ('A' for Active; 'I' for Inactive)
REMARK       I    between atoms: N_3  and  C_25 
REMARK    1  A    between atoms: N_3  and  C_12 
REMARK       I    between atoms: C_15  and  N_37 
REMARK    2  A    between atoms: C_15  and  C_26 
REMARK    3  A    between atoms: C_21  and  O_40 
REMARK    4  A    between atoms: C_22  and  O_40 
REMARK    5  A    between atoms: C_25  and  C_26 
REMARK    6  A    between atoms: C_28  and  N_37 
ROOT
HETATM    1  C   UNL     1      -7.924 -21.048  31.777  1.00  0.00     0.043 A 
HETATM    2  C   UNL     1      -6.712 -22.812  30.677  1.00  0.00     0.037 A 
HETATM    3  C   UNL     1      -9.069 -22.973  30.981  1.00  0.00     0.152 A 
HETATM    4  C   UNL     1      -9.105 -21.744  31.599  1.00  0.00     0.114 A 
HETATM    5  C   UNL     1      -6.730 -21.581  31.319  1.00  0.00     0.032 A 
HETATM    6  C   UNL     1      -7.900 -23.519  30.516  1.00  0.00     0.074 A 
HETATM    7  F   UNL     1     -10.226 -23.656  30.828  1.00  0.00    -0.203 F 
ENDROOT
BRANCH   2   8
HETATM    8  N   UNL     1      -5.451 -23.305  30.238  1.00  0.00    -0.326 N 
HETATM    9  C   UNL     1      -4.556 -24.006  30.955  1.00  0.00     0.240 C 
HETATM   10  O   UNL     1      -4.742 -24.391  32.098  1.00  0.00    -0.272 OA
ATOM     11  HN  UNL     1      -5.199 -23.104  29.271  1.00  0.00     0.169 HD
BRANCH   9  12
HETATM   12  C   UNL     1      -3.274 -24.317  30.234  1.00  0.00     0.122 A 
HETATM   13  C   UNL     1      -2.459 -25.494  30.776  1.00  0.00     0.031 A 
HETATM   14  C   UNL     1      -3.264 -25.684  29.543  1.00  0.00     0.031 A 
BRANCH  12  15
HETATM   15  C   UNL     1      -2.550 -23.183  29.553  1.00  0.00     0.240 C 
HETATM   16  O   UNL     1      -1.394 -23.313  29.187  1.00  0.00    -0.272 OA
HETATM   17  N   UNL     1      -3.220 -22.029  29.412  1.00  0.00    -0.326 N 
ATOM     18  HN  UNL     1      -4.186 -21.988  29.737  1.00  0.00     0.169 HD
BRANCH  17  19
HETATM   19  C   UNL     1      -2.652 -20.860  28.830  1.00  0.00     0.034 A 
HETATM   20  C   UNL     1      -2.383 -19.758  29.630  1.00  0.00     0.032 A 
HETATM   21  C   UNL     1      -1.869 -18.596  29.078  1.00  0.00     0.044 A 
HETATM   22  C   UNL     1      -1.669 -18.554  27.729  1.00  0.00     0.116 A 
HETATM   23  F   UNL     1      -1.176 -17.410  27.184  1.00  0.00    -0.206 F 
HETATM   24  C   UNL     1      -1.950 -19.607  26.903  1.00  0.00     0.044 A 
HETATM   25  C   UNL     1      -2.458 -20.770  27.459  1.00  0.00     0.032 A 
ENDBRANCH  17  19
ENDBRANCH  12  15
ENDBRANCH   9  12
ENDBRANCH   2   8
BRANCH   4  26
HETATM   26  O   UNL     1     -10.302 -21.228  32.087  1.00  0.00    -0.309 OA
BRANCH  26  27
HETATM   27  C   UNL     1     -11.118 -20.539  31.188  1.00  0.00     0.088 C 
HETATM   28  C   UNL     1     -12.363 -20.960  30.819  1.00  0.00     0.052 C 
HETATM   29  C   UNL     1     -13.118 -20.167  29.920  1.00  0.00     0.087 C 
HETATM   30  N   UNL     1     -12.726 -18.976  29.527  1.00  0.00    -0.376 N 
HETATM   31  C   UNL     1     -11.657 -18.337  30.316  1.00  0.00     0.217 C 
ATOM     32  HN  UNL     1     -13.140 -18.515  28.716  1.00  0.00     0.161 HD
HETATM   33  N   UNL     1     -11.113 -17.130  29.741  1.00  0.00    -0.364 N 
HETATM   34  C   UNL     1     -10.524 -19.290  30.610  1.00  0.00     0.228 C 
HETATM   35  C   UNL     1     -10.072 -16.570  30.451  1.00  0.00     0.063 A 
ATOM     36  HN  UNL     1     -11.470 -16.723  28.876  1.00  0.00     0.162 HD
HETATM   37  C   UNL     1      -9.726 -15.227  30.285  1.00  0.00     0.032 A 
HETATM   38  C   UNL     1      -9.338 -17.355  31.349  1.00  0.00     0.096 A 
HETATM   39  C   UNL     1      -8.691 -14.693  31.010  1.00  0.00     0.002 A 
HETATM   40  C   UNL     1      -7.973 -15.474  31.897  1.00  0.00     0.003 A 
HETATM   41  C   UNL     1      -8.285 -16.809  32.070  1.00  0.00     0.039 A 
HETATM   42  O   UNL     1      -9.616 -18.688  31.559  1.00  0.00    -0.333 OA
ENDBRANCH  26  27
ENDBRANCH   4  26
TORSDOF 6
ENDMDL
