MODEL 1
REMARK VINA RESULT:    -9.404      0.000      0.000
REMARK INTER + INTRA:         -13.527
REMARK INTER:                 -13.527
REMARK INTRA:                  -0.001
REMARK UNBOUND:                -0.001
REMARK  8 active torsions:
REMARK  status: ('A' for Active; 'I' for Inactive)
REMARK    1  A    between atoms: C_3  and  S_4 
REMARK    2  A    between atoms: S_4  and  N_34 
REMARK    3  A    between atoms: C_9  and  N_10 
REMARK       I    between atoms: N_10  and  C_12 
REMARK    4  A    between atoms: C_12  and  C_14 
REMARK    5  A    between atoms: C_14  and  N_15 
REMARK    6  A    between atoms: N_20  and  C_21 
REMARK    7  A    between atoms: C_21  and  C_28 
REMARK    8  A    between atoms: C_21  and  C_22 
ROOT
HETATM    1  N   UNL     1      -1.423   5.513  12.317  1.00  0.00     0.100 N 
HETATM    2  C   UNL     1      -1.275   4.074  12.104  1.00  0.00     0.303 C 
HETATM    3  C   UNL     1      -2.624   3.397  12.143  1.00  0.00     0.304 C 
HETATM    4  C   UNL     1      -1.992   5.710  13.652  1.00  0.00     0.303 C 
HETATM    5  C   UNL     1      -3.360   5.071  13.732  1.00  0.00     0.304 C 
HETATM    6  N   UNL     1      -3.312   3.636  13.418  1.00  0.00     0.105 N 
ENDROOT
BRANCH   1   7
HETATM    7  C   UNL     1      -0.140   6.201  12.171  1.00  0.00     0.375 C 
BRANCH   7   8
HETATM    8  C   UNL     1       0.472   6.071  10.786  1.00  0.00     0.250 C 
HETATM    9  N   UNL     1       1.501   5.197  10.740  1.00  0.00    -0.326 N 
ATOM     10  HN  UNL     1       1.750   4.750  11.622  1.00  0.00     0.169 HD
HETATM   11  O   UNL     1       0.023   6.660   9.809  1.00  0.00    -0.271 OA
BRANCH   9  12
HETATM   12  C   UNL     1       2.273   4.829   9.616  1.00  0.00     0.034 A 
HETATM   13  C   UNL     1       2.439   3.481   9.321  1.00  0.00     0.031 A 
HETATM   14  C   UNL     1       3.180   3.095   8.219  1.00  0.00     0.027 A 
HETATM   15  C   UNL     1       3.766   4.061   7.416  1.00  0.00     0.079 A 
HETATM   16  C   UNL     1       3.623   5.406   7.708  1.00  0.00     0.027 A 
HETATM   17  C   UNL     1       2.858   5.788   8.799  1.00  0.00     0.031 A 
BRANCH  15  18
HETATM   18  S   UNL     1       4.684   3.539   6.005  1.00  0.00     0.256 S 
HETATM   19  O   UNL     1       4.467   2.129   5.879  1.00  0.00    -0.201 OA
HETATM   20  O   UNL     1       4.269   4.380   4.920  1.00  0.00    -0.201 OA
BRANCH  18  21
HETATM   21  N   UNL     1       6.241   3.796   6.298  1.00  0.00    -0.324 N 
ATOM     22  HN2 UNL     1       6.975   3.090   6.231  1.00  0.00     0.169 HD
ATOM     23  HN1 UNL     1       6.359   4.774   6.558  1.00  0.00     0.169 HD
ENDBRANCH  18  21
ENDBRANCH  15  18
ENDBRANCH   9  12
ENDBRANCH   7   8
ENDBRANCH   1   7
BRANCH   6  24
HETATM   24  C   UNL     1      -4.678   3.069  13.384  1.00  0.00     0.289 C 
BRANCH  24  25
HETATM   25  C   UNL     1      -4.702   1.759  12.603  1.00  0.00    -0.021 A 
HETATM   26  C   UNL     1      -5.160   1.725  11.292  1.00  0.00     0.010 A 
HETATM   27  C   UNL     1      -5.093   0.560  10.547  1.00  0.00     0.001 A 
HETATM   28  C   UNL     1      -4.583  -0.589  11.115  1.00  0.00     0.000 A 
HETATM   29  C   UNL     1      -4.147  -0.576  12.425  1.00  0.00     0.001 A 
HETATM   30  C   UNL     1      -4.192   0.596  13.162  1.00  0.00     0.010 A 
ENDBRANCH  24  25
BRANCH  24  31
HETATM   31  C   UNL     1      -5.234   2.895  14.791  1.00  0.00    -0.021 A 
HETATM   32  C   UNL     1      -6.381   3.578  15.168  1.00  0.00     0.010 A 
HETATM   33  C   UNL     1      -6.909   3.433  16.442  1.00  0.00     0.001 A 
HETATM   34  C   UNL     1      -6.294   2.598  17.351  1.00  0.00     0.000 A 
HETATM   35  C   UNL     1      -5.146   1.923  16.993  1.00  0.00     0.001 A 
HETATM   36  C   UNL     1      -4.607   2.081  15.726  1.00  0.00     0.010 A 
ENDBRANCH  24  31
ENDBRANCH   6  24
TORSDOF 8
ENDMDL
MODEL 2
REMARK VINA RESULT:    -9.024      0.562      1.553
REMARK INTER + INTRA:         -12.981
REMARK INTER:                 -13.175
REMARK INTRA:                   0.195
REMARK UNBOUND:                -0.001
REMARK  8 active torsions:
REMARK  status: ('A' for Active; 'I' for Inactive)
REMARK    1  A    between atoms: C_3  and  S_4 
REMARK    2  A    between atoms: S_4  and  N_34 
REMARK    3  A    between atoms: C_9  and  N_10 
REMARK       I    between atoms: N_10  and  C_12 
REMARK    4  A    between atoms: C_12  and  C_14 
REMARK    5  A    between atoms: C_14  and  N_15 
REMARK    6  A    between atoms: N_20  and  C_21 
REMARK    7  A    between atoms: C_21  and  C_28 
REMARK    8  A    between atoms: C_21  and  C_22 
ROOT
HETATM    1  N   UNL     1      -1.465   5.663  12.307  1.00  0.00     0.100 N 
HETATM    2  C   UNL     1      -1.236   4.221  12.207  1.00  0.00     0.303 C 
HETATM    3  C   UNL     1      -2.551   3.480  12.219  1.00  0.00     0.304 C 
HETATM    4  C   UNL     1      -2.123   5.922  13.589  1.00  0.00     0.303 C 
HETATM    5  C   UNL     1      -3.461   5.221  13.637  1.00  0.00     0.304 C 
HETATM    6  N   UNL     1      -3.326   3.772  13.432  1.00  0.00     0.105 N 
ENDROOT
BRANCH   1   7
HETATM    7  C   UNL     1      -0.210   6.404  12.184  1.00  0.00     0.375 C 
BRANCH   7   8
HETATM    8  C   UNL     1       0.441   6.290  10.816  1.00  0.00     0.250 C 
HETATM    9  N   UNL     1       1.381   5.322  10.753  1.00  0.00    -0.326 N 
ATOM     10  HN  UNL     1       1.551   4.805  11.615  1.00  0.00     0.169 HD
HETATM   11  O   UNL     1       0.089   6.973   9.860  1.00  0.00    -0.271 OA
BRANCH   9  12
HETATM   12  C   UNL     1       2.156   4.941   9.636  1.00  0.00     0.034 A 
HETATM   13  C   UNL     1       2.800   5.923   8.892  1.00  0.00     0.031 A 
HETATM   14  C   UNL     1       3.575   5.575   7.801  1.00  0.00     0.027 A 
HETATM   15  C   UNL     1       3.696   4.241   7.446  1.00  0.00     0.079 A 
HETATM   16  C   UNL     1       3.046   3.254   8.167  1.00  0.00     0.027 A 
HETATM   17  C   UNL     1       2.292   3.606   9.275  1.00  0.00     0.031 A 
BRANCH  15  18
HETATM   18  S   UNL     1       4.710   3.825   6.065  1.00  0.00     0.256 S 
HETATM   19  O   UNL     1       5.897   3.227   6.600  1.00  0.00    -0.201 OA
HETATM   20  O   UNL     1       3.896   3.032   5.191  1.00  0.00    -0.201 OA
BRANCH  18  21
HETATM   21  N   UNL     1       5.113   5.184   5.313  1.00  0.00    -0.324 N 
ATOM     22  HN2 UNL     1       5.624   5.959   5.735  1.00  0.00     0.169 HD
ATOM     23  HN1 UNL     1       4.772   5.130   4.354  1.00  0.00     0.169 HD
ENDBRANCH  18  21
ENDBRANCH  15  18
ENDBRANCH   9  12
ENDBRANCH   7   8
ENDBRANCH   1   7
BRANCH   6  24
HETATM   24  C   UNL     1      -4.659   3.134  13.361  1.00  0.00     0.289 C 
BRANCH  24  25
HETATM   25  C   UNL     1      -4.599   1.842  12.554  1.00  0.00    -0.021 A 
HETATM   26  C   UNL     1      -4.133   0.667  13.132  1.00  0.00     0.010 A 
HETATM   27  C   UNL     1      -4.168  -0.529  12.436  1.00  0.00     0.001 A 
HETATM   28  C   UNL     1      -4.654  -0.558  11.145  1.00  0.00     0.000 A 
HETATM   29  C   UNL     1      -5.098   0.606  10.550  1.00  0.00     0.001 A 
HETATM   30  C   UNL     1      -5.086   1.798  11.255  1.00  0.00     0.010 A 
ENDBRANCH  24  25
BRANCH  24  31
HETATM   31  C   UNL     1      -5.230   2.902  14.754  1.00  0.00    -0.021 A 
HETATM   32  C   UNL     1      -4.574   2.054  15.635  1.00  0.00     0.010 A 
HETATM   33  C   UNL     1      -5.072   1.830  16.909  1.00  0.00     0.001 A 
HETATM   34  C   UNL     1      -6.230   2.458  17.316  1.00  0.00     0.000 A 
HETATM   35  C   UNL     1      -6.898   3.294  16.446  1.00  0.00     0.001 A 
HETATM   36  C   UNL     1      -6.412   3.504  15.165  1.00  0.00     0.010 A 
ENDBRANCH  24  31
ENDBRANCH   6  24
TORSDOF 8
ENDMDL
MODEL 3
REMARK VINA RESULT:    -9.014      0.640      3.351
REMARK INTER + INTRA:         -12.967
REMARK INTER:                 -12.725
REMARK INTRA:                  -0.242
REMARK UNBOUND:                -0.001
REMARK  8 active torsions:
REMARK  status: ('A' for Active; 'I' for Inactive)
REMARK    1  A    between atoms: C_3  and  S_4 
REMARK    2  A    between atoms: S_4  and  N_34 
REMARK    3  A    between atoms: C_9  and  N_10 
REMARK       I    between atoms: N_10  and  C_12 
REMARK    4  A    between atoms: C_12  and  C_14 
REMARK    5  A    between atoms: C_14  and  N_15 
REMARK    6  A    between atoms: N_20  and  C_21 
REMARK    7  A    between atoms: C_21  and  C_28 
REMARK    8  A    between atoms: C_21  and  C_22 
ROOT
HETATM    1  N   UNL     1      -1.007   5.401  12.319  1.00  0.00     0.100 N 
HETATM    2  C   UNL     1      -1.618   5.764  13.597  1.00  0.00     0.303 C 
HETATM    3  C   UNL     1      -2.256   4.553  14.235  1.00  0.00     0.304 C 
HETATM    4  C   UNL     1      -2.072   4.928  11.434  1.00  0.00     0.303 C 
HETATM    5  C   UNL     1      -2.725   3.697  12.019  1.00  0.00     0.304 C 
HETATM    6  N   UNL     1      -3.269   3.951  13.359  1.00  0.00     0.105 N 
ENDROOT
BRANCH   1   7
HETATM    7  C   UNL     1      -0.287   6.535  11.740  1.00  0.00     0.375 C 
BRANCH   7   8
HETATM    8  C   UNL     1       0.376   6.228  10.408  1.00  0.00     0.250 C 
HETATM    9  N   UNL     1       1.381   5.332  10.508  1.00  0.00    -0.326 N 
ATOM     10  HN  UNL     1       1.583   4.987  11.446  1.00  0.00     0.169 HD
HETATM   11  O   UNL     1      -0.019   6.706   9.350  1.00  0.00    -0.271 OA
BRANCH   9  12
HETATM   12  C   UNL     1       2.186   4.815   9.469  1.00  0.00     0.034 A 
HETATM   13  C   UNL     1       2.163   3.449   9.209  1.00  0.00     0.031 A 
HETATM   14  C   UNL     1       2.931   2.920   8.190  1.00  0.00     0.027 A 
HETATM   15  C   UNL     1       3.735   3.759   7.434  1.00  0.00     0.079 A 
HETATM   16  C   UNL     1       3.782   5.117   7.693  1.00  0.00     0.027 A 
HETATM   17  C   UNL     1       2.989   5.646   8.699  1.00  0.00     0.031 A 
BRANCH  15  18
HETATM   18  S   UNL     1       4.687   3.059   6.125  1.00  0.00     0.256 S 
HETATM   19  O   UNL     1       4.719   1.646   6.359  1.00  0.00    -0.201 OA
HETATM   20  O   UNL     1       4.096   3.524   4.904  1.00  0.00    -0.201 OA
BRANCH  18  21
HETATM   21  N   UNL     1       6.182   3.631   6.232  1.00  0.00    -0.324 N 
ATOM     22  HN2 UNL     1       6.516   4.270   6.954  1.00  0.00     0.169 HD
ATOM     23  HN1 UNL     1       6.727   3.246   5.461  1.00  0.00     0.169 HD
ENDBRANCH  18  21
ENDBRANCH  15  18
ENDBRANCH   9  12
ENDBRANCH   7   8
ENDBRANCH   1   7
BRANCH   6  24
HETATM   24  C   UNL     1      -3.789   2.700  13.953  1.00  0.00     0.289 C 
BRANCH  24  25
HETATM   25  C   UNL     1      -4.943   2.989  14.906  1.00  0.00    -0.021 A 
HETATM   26  C   UNL     1      -5.245   2.112  15.941  1.00  0.00     0.010 A 
HETATM   27  C   UNL     1      -6.227   2.418  16.867  1.00  0.00     0.001 A 
HETATM   28  C   UNL     1      -6.931   3.598  16.755  1.00  0.00     0.000 A 
HETATM   29  C   UNL     1      -6.660   4.468  15.718  1.00  0.00     0.001 A 
HETATM   30  C   UNL     1      -5.660   4.174  14.806  1.00  0.00     0.010 A 
ENDBRANCH  24  25
BRANCH  24  31
HETATM   31  C   UNL     1      -4.189   1.705  12.871  1.00  0.00    -0.021 A 
HETATM   32  C   UNL     1      -4.927   2.136  11.778  1.00  0.00     0.010 A 
HETATM   33  C   UNL     1      -5.300   1.251  10.778  1.00  0.00     0.001 A 
HETATM   34  C   UNL     1      -4.932  -0.075  10.861  1.00  0.00     0.000 A 
HETATM   35  C   UNL     1      -4.209  -0.519  11.948  1.00  0.00     0.001 A 
HETATM   36  C   UNL     1      -3.851   0.360  12.958  1.00  0.00     0.010 A 
ENDBRANCH  24  31
ENDBRANCH   6  24
TORSDOF 8
ENDMDL
MODEL 4
REMARK VINA RESULT:    -8.601      7.395     10.983
REMARK INTER + INTRA:         -12.373
REMARK INTER:                 -12.042
REMARK INTRA:                  -0.331
REMARK UNBOUND:                -0.001
REMARK  8 active torsions:
REMARK  status: ('A' for Active; 'I' for Inactive)
REMARK    1  A    between atoms: C_3  and  S_4 
REMARK    2  A    between atoms: S_4  and  N_34 
REMARK    3  A    between atoms: C_9  and  N_10 
REMARK       I    between atoms: N_10  and  C_12 
REMARK    4  A    between atoms: C_12  and  C_14 
REMARK    5  A    between atoms: C_14  and  N_15 
REMARK    6  A    between atoms: N_20  and  C_21 
REMARK    7  A    between atoms: C_21  and  C_28 
REMARK    8  A    between atoms: C_21  and  C_22 
ROOT
HETATM    1  N   UNL     1      -4.859   6.123  10.100  1.00  0.00     0.100 N 
HETATM    2  C   UNL     1      -4.383   7.228  10.931  1.00  0.00     0.303 C 
HETATM    3  C   UNL     1      -5.352   8.384  10.873  1.00  0.00     0.304 C 
HETATM    4  C   UNL     1      -4.918   6.599   8.716  1.00  0.00     0.303 C 
HETATM    5  C   UNL     1      -5.900   7.743   8.602  1.00  0.00     0.304 C 
HETATM    6  N   UNL     1      -5.550   8.855   9.496  1.00  0.00     0.105 N 
ENDROOT
BRANCH   1   7
HETATM    7  C   UNL     1      -3.991   4.953  10.232  1.00  0.00     0.375 C 
BRANCH   7   8
HETATM    8  C   UNL     1      -4.529   3.892  11.177  1.00  0.00     0.250 C 
HETATM    9  N   UNL     1      -4.442   4.246  12.478  1.00  0.00    -0.326 N 
ATOM     10  HN  UNL     1      -4.021   5.155  12.669  1.00  0.00     0.169 HD
HETATM   11  O   UNL     1      -5.044   2.854  10.778  1.00  0.00    -0.271 OA
BRANCH   9  12
HETATM   12  C   UNL     1      -4.864   3.507  13.605  1.00  0.00     0.034 A 
HETATM   13  C   UNL     1      -5.806   4.062  14.464  1.00  0.00     0.031 A 
HETATM   14  C   UNL     1      -6.245   3.354  15.567  1.00  0.00     0.027 A 
HETATM   15  C   UNL     1      -5.732   2.092  15.818  1.00  0.00     0.079 A 
HETATM   16  C   UNL     1      -4.781   1.534  14.981  1.00  0.00     0.027 A 
HETATM   17  C   UNL     1      -4.364   2.237  13.863  1.00  0.00     0.031 A 
BRANCH  15  18
HETATM   18  S   UNL     1      -6.328   1.203  17.220  1.00  0.00     0.256 S 
HETATM   19  O   UNL     1      -7.698   0.888  16.946  1.00  0.00    -0.201 OA
HETATM   20  O   UNL     1      -5.417   0.114  17.424  1.00  0.00    -0.201 OA
BRANCH  18  21
HETATM   21  N   UNL     1      -6.269   2.177  18.493  1.00  0.00    -0.324 N 
ATOM     22  HN2 UNL     1      -5.682   3.008  18.570  1.00  0.00     0.169 HD
ATOM     23  HN1 UNL     1      -6.914   1.821  19.197  1.00  0.00     0.169 HD
ENDBRANCH  18  21
ENDBRANCH  15  18
ENDBRANCH   9  12
ENDBRANCH   7   8
ENDBRANCH   1   7
BRANCH   6  24
HETATM   24  C   UNL     1      -6.595   9.902   9.452  1.00  0.00     0.289 C 
BRANCH  24  25
HETATM   25  C   UNL     1      -6.039  11.243   9.916  1.00  0.00    -0.021 A 
HETATM   26  C   UNL     1      -6.887  12.316  10.161  1.00  0.00     0.010 A 
HETATM   27  C   UNL     1      -6.399  13.504  10.675  1.00  0.00     0.001 A 
HETATM   28  C   UNL     1      -5.051  13.638  10.932  1.00  0.00     0.000 A 
HETATM   29  C   UNL     1      -4.191  12.590  10.670  1.00  0.00     0.001 A 
HETATM   30  C   UNL     1      -4.683  11.392  10.178  1.00  0.00     0.010 A 
ENDBRANCH  24  25
BRANCH  24  31
HETATM   31  C   UNL     1      -7.214   9.999   8.064  1.00  0.00    -0.021 A 
HETATM   32  C   UNL     1      -6.455  10.466   7.001  1.00  0.00     0.010 A 
HETATM   33  C   UNL     1      -6.995  10.559   5.728  1.00  0.00     0.001 A 
HETATM   34  C   UNL     1      -8.302  10.182   5.506  1.00  0.00     0.000 A 
HETATM   35  C   UNL     1      -9.072   9.727   6.556  1.00  0.00     0.001 A 
HETATM   36  C   UNL     1      -8.540   9.651   7.833  1.00  0.00     0.010 A 
ENDBRANCH  24  31
ENDBRANCH   6  24
TORSDOF 8
ENDMDL
MODEL 5
REMARK VINA RESULT:    -8.403      4.805      6.949
REMARK INTER + INTRA:         -12.088
REMARK INTER:                 -11.784
REMARK INTRA:                  -0.304
REMARK UNBOUND:                -0.001
REMARK  8 active torsions:
REMARK  status: ('A' for Active; 'I' for Inactive)
REMARK    1  A    between atoms: C_3  and  S_4 
REMARK    2  A    between atoms: S_4  and  N_34 
REMARK    3  A    between atoms: C_9  and  N_10 
REMARK       I    between atoms: N_10  and  C_12 
REMARK    4  A    between atoms: C_12  and  C_14 
REMARK    5  A    between atoms: C_14  and  N_15 
REMARK    6  A    between atoms: N_20  and  C_21 
REMARK    7  A    between atoms: C_21  and  C_28 
REMARK    8  A    between atoms: C_21  and  C_22 
ROOT
HETATM    1  N   UNL     1      -1.609   5.878  12.548  1.00  0.00     0.100 N 
HETATM    2  C   UNL     1      -1.358   4.471  12.236  1.00  0.00     0.303 C 
HETATM    3  C   UNL     1      -2.655   3.699  12.214  1.00  0.00     0.304 C 
HETATM    4  C   UNL     1      -2.199   5.939  13.887  1.00  0.00     0.303 C 
HETATM    5  C   UNL     1      -3.518   5.200  13.908  1.00  0.00     0.304 C 
HETATM    6  N   UNL     1      -3.366   3.799  13.496  1.00  0.00     0.105 N 
ENDROOT
BRANCH   1   7
HETATM    7  C   UNL     1      -0.378   6.663  12.464  1.00  0.00     0.375 C 
BRANCH   7   8
HETATM    8  C   UNL     1      -0.596   8.162  12.579  1.00  0.00     0.250 C 
HETATM    9  N   UNL     1       0.227   8.752  13.472  1.00  0.00    -0.326 N 
ATOM     10  HN  UNL     1       0.872   8.134  13.964  1.00  0.00     0.169 HD
HETATM   11  O   UNL     1      -1.400   8.767  11.878  1.00  0.00    -0.271 OA
BRANCH   9  12
HETATM   12  C   UNL     1       0.302  10.123  13.806  1.00  0.00     0.034 A 
HETATM   13  C   UNL     1      -0.134  10.540  15.058  1.00  0.00     0.031 A 
HETATM   14  C   UNL     1      -0.060  11.873  15.414  1.00  0.00     0.027 A 
HETATM   15  C   UNL     1       0.441  12.795  14.509  1.00  0.00     0.079 A 
HETATM   16  C   UNL     1       0.863  12.397  13.252  1.00  0.00     0.027 A 
HETATM   17  C   UNL     1       0.811  11.055  12.911  1.00  0.00     0.031 A 
BRANCH  15  18
HETATM   18  S   UNL     1       0.546  14.486  14.998  1.00  0.00     0.256 S 
HETATM   19  O   UNL     1       0.771  14.484  16.413  1.00  0.00    -0.201 OA
HETATM   20  O   UNL     1       1.543  15.087  14.162  1.00  0.00    -0.201 OA
BRANCH  18  21
HETATM   21  N   UNL     1      -0.870  15.180  14.704  1.00  0.00    -0.324 N 
ATOM     22  HN2 UNL     1      -1.138  15.618  13.822  1.00  0.00     0.169 HD
ATOM     23  HN1 UNL     1      -1.442  15.106  15.545  1.00  0.00     0.169 HD
ENDBRANCH  18  21
ENDBRANCH  15  18
ENDBRANCH   9  12
ENDBRANCH   7   8
ENDBRANCH   1   7
BRANCH   6  24
HETATM   24  C   UNL     1      -4.687   3.139  13.407  1.00  0.00     0.289 C 
BRANCH  24  25
HETATM   25  C   UNL     1      -4.597   1.849  12.600  1.00  0.00    -0.021 A 
HETATM   26  C   UNL     1      -4.071   0.694  13.165  1.00  0.00     0.010 A 
HETATM   27  C   UNL     1      -4.077  -0.503  12.471  1.00  0.00     0.001 A 
HETATM   28  C   UNL     1      -4.593  -0.552  11.193  1.00  0.00     0.000 A 
HETATM   29  C   UNL     1      -5.097   0.593  10.608  1.00  0.00     0.001 A 
HETATM   30  C   UNL     1      -5.114   1.786  11.313  1.00  0.00     0.010 A 
ENDBRANCH  24  25
BRANCH  24  31
HETATM   31  C   UNL     1      -5.271   2.896  14.793  1.00  0.00    -0.021 A 
HETATM   32  C   UNL     1      -4.618   2.051  15.678  1.00  0.00     0.010 A 
HETATM   33  C   UNL     1      -5.128   1.817  16.945  1.00  0.00     0.001 A 
HETATM   34  C   UNL     1      -6.296   2.432  17.342  1.00  0.00     0.000 A 
HETATM   35  C   UNL     1      -6.962   3.265  16.467  1.00  0.00     0.001 A 
HETATM   36  C   UNL     1      -6.464   3.485  15.193  1.00  0.00     0.010 A 
ENDBRANCH  24  31
ENDBRANCH   6  24
TORSDOF 8
ENDMDL
MODEL 6
REMARK VINA RESULT:    -8.361      2.629      4.973
REMARK INTER + INTRA:         -12.028
REMARK INTER:                 -11.728
REMARK INTRA:                  -0.300
REMARK UNBOUND:                -0.001
REMARK  8 active torsions:
REMARK  status: ('A' for Active; 'I' for Inactive)
REMARK    1  A    between atoms: C_3  and  S_4 
REMARK    2  A    between atoms: S_4  and  N_34 
REMARK    3  A    between atoms: C_9  and  N_10 
REMARK       I    between atoms: N_10  and  C_12 
REMARK    4  A    between atoms: C_12  and  C_14 
REMARK    5  A    between atoms: C_14  and  N_15 
REMARK    6  A    between atoms: N_20  and  C_21 
REMARK    7  A    between atoms: C_21  and  C_28 
REMARK    8  A    between atoms: C_21  and  C_22 
ROOT
HETATM    1  N   UNL     1      -1.677   4.920   9.087  1.00  0.00     0.100 N 
HETATM    2  C   UNL     1      -1.423   6.323   9.417  1.00  0.00     0.303 C 
HETATM    3  C   UNL     1      -1.308   6.497  10.912  1.00  0.00     0.304 C 
HETATM    4  C   UNL     1      -2.957   4.544   9.690  1.00  0.00     0.303 C 
HETATM    5  C   UNL     1      -2.882   4.677  11.194  1.00  0.00     0.304 C 
HETATM    6  N   UNL     1      -2.520   6.040  11.605  1.00  0.00     0.105 N 
ENDROOT
BRANCH   1   7
HETATM    7  C   UNL     1      -1.680   4.713   7.639  1.00  0.00     0.375 C 
BRANCH   7   8
HETATM    8  C   UNL     1      -0.321   4.905   6.988  1.00  0.00     0.250 C 
HETATM    9  N   UNL     1       0.507   3.853   7.163  1.00  0.00    -0.326 N 
ATOM     10  HN  UNL     1       0.137   3.078   7.713  1.00  0.00     0.169 HD
HETATM   11  O   UNL     1      -0.044   5.896   6.320  1.00  0.00    -0.271 OA
BRANCH   9  12
HETATM   12  C   UNL     1       1.823   3.697   6.676  1.00  0.00     0.034 A 
HETATM   13  C   UNL     1       2.849   3.418   7.572  1.00  0.00     0.031 A 
HETATM   14  C   UNL     1       4.144   3.249   7.119  1.00  0.00     0.027 A 
HETATM   15  C   UNL     1       4.416   3.371   5.766  1.00  0.00     0.079 A 
HETATM   16  C   UNL     1       3.408   3.667   4.865  1.00  0.00     0.027 A 
HETATM   17  C   UNL     1       2.108   3.809   5.321  1.00  0.00     0.031 A 
BRANCH  15  18
HETATM   18  S   UNL     1       6.073   3.127   5.214  1.00  0.00     0.256 S 
HETATM   19  O   UNL     1       6.449   1.810   5.635  1.00  0.00    -0.201 OA
HETATM   20  O   UNL     1       6.075   3.408   3.808  1.00  0.00    -0.201 OA
BRANCH  18  21
HETATM   21  N   UNL     1       7.011   4.193   5.961  1.00  0.00    -0.324 N 
ATOM     22  HN2 UNL     1       8.000   4.344   5.764  1.00  0.00     0.169 HD
ATOM     23  HN1 UNL     1       6.448   4.681   6.656  1.00  0.00     0.169 HD
ENDBRANCH  18  21
ENDBRANCH  15  18
ENDBRANCH   9  12
ENDBRANCH   7   8
ENDBRANCH   1   7
BRANCH   6  24
HETATM   24  C   UNL     1      -2.333   6.105  13.072  1.00  0.00     0.289 C 
BRANCH  24  25
HETATM   25  C   UNL     1      -2.175   7.549  13.535  1.00  0.00    -0.021 A 
HETATM   26  C   UNL     1      -1.726   7.836  14.818  1.00  0.00     0.010 A 
HETATM   27  C   UNL     1      -1.487   9.142  15.211  1.00  0.00     0.001 A 
HETATM   28  C   UNL     1      -1.715  10.176  14.328  1.00  0.00     0.000 A 
HETATM   29  C   UNL     1      -2.185   9.908  13.057  1.00  0.00     0.001 A 
HETATM   30  C   UNL     1      -2.400   8.600  12.656  1.00  0.00     0.010 A 
ENDBRANCH  24  25
BRANCH  24  31
HETATM   31  C   UNL     1      -3.471   5.402  13.800  1.00  0.00    -0.021 A 
HETATM   32  C   UNL     1      -3.221   4.233  14.503  1.00  0.00     0.010 A 
HETATM   33  C   UNL     1      -4.240   3.577  15.177  1.00  0.00     0.001 A 
HETATM   34  C   UNL     1      -5.519   4.089  15.157  1.00  0.00     0.000 A 
HETATM   35  C   UNL     1      -5.784   5.244  14.452  1.00  0.00     0.001 A 
HETATM   36  C   UNL     1      -4.771   5.891  13.762  1.00  0.00     0.010 A 
ENDBRANCH  24  31
ENDBRANCH   6  24
TORSDOF 8
ENDMDL
MODEL 7
REMARK VINA RESULT:    -8.321      5.265     10.641
REMARK INTER + INTRA:         -11.970
REMARK INTER:                 -11.280
REMARK INTRA:                  -0.690
REMARK UNBOUND:                -0.001
REMARK  8 active torsions:
REMARK  status: ('A' for Active; 'I' for Inactive)
REMARK    1  A    between atoms: C_3  and  S_4 
REMARK    2  A    between atoms: S_4  and  N_34 
REMARK    3  A    between atoms: C_9  and  N_10 
REMARK       I    between atoms: N_10  and  C_12 
REMARK    4  A    between atoms: C_12  and  C_14 
REMARK    5  A    between atoms: C_14  and  N_15 
REMARK    6  A    between atoms: N_20  and  C_21 
REMARK    7  A    between atoms: C_21  and  C_28 
REMARK    8  A    between atoms: C_21  and  C_22 
ROOT
HETATM    1  N   UNL     1      -2.842   5.255   9.698  1.00  0.00     0.100 N 
HETATM    2  C   UNL     1      -3.171   5.881   8.417  1.00  0.00     0.303 C 
HETATM    3  C   UNL     1      -2.360   5.259   7.307  1.00  0.00     0.304 C 
HETATM    4  C   UNL     1      -1.427   5.512   9.970  1.00  0.00     0.303 C 
HETATM    5  C   UNL     1      -0.569   4.883   8.895  1.00  0.00     0.304 C 
HETATM    6  N   UNL     1      -0.917   5.381   7.557  1.00  0.00     0.105 N 
ENDROOT
BRANCH   1   7
HETATM    7  C   UNL     1      -3.699   5.766  10.768  1.00  0.00     0.375 C 
BRANCH   7   8
HETATM    8  C   UNL     1      -4.316   4.680  11.633  1.00  0.00     0.250 C 
HETATM    9  N   UNL     1      -4.147   4.894  12.956  1.00  0.00    -0.326 N 
ATOM     10  HN  UNL     1      -3.624   5.730  13.212  1.00  0.00     0.169 HD
HETATM   11  O   UNL     1      -4.955   3.745  11.161  1.00  0.00    -0.271 OA
BRANCH   9  12
HETATM   12  C   UNL     1      -4.609   4.097  14.027  1.00  0.00     0.034 A 
HETATM   13  C   UNL     1      -5.901   4.286  14.504  1.00  0.00     0.031 A 
HETATM   14  C   UNL     1      -6.381   3.511  15.542  1.00  0.00     0.027 A 
HETATM   15  C   UNL     1      -5.562   2.550  16.114  1.00  0.00     0.079 A 
HETATM   16  C   UNL     1      -4.268   2.363  15.660  1.00  0.00     0.027 A 
HETATM   17  C   UNL     1      -3.801   3.125  14.602  1.00  0.00     0.031 A 
BRANCH  15  18
HETATM   18  S   UNL     1      -6.209   1.560  17.421  1.00  0.00     0.256 S 
HETATM   19  O   UNL     1      -5.374   0.399  17.501  1.00  0.00    -0.201 OA
HETATM   20  O   UNL     1      -6.285   2.412  18.572  1.00  0.00    -0.201 OA
BRANCH  18  21
HETATM   21  N   UNL     1      -7.691   1.100  17.014  1.00  0.00    -0.324 N 
ATOM     22  HN2 UNL     1      -7.954   0.160  16.719  1.00  0.00     0.169 HD
ATOM     23  HN1 UNL     1      -8.310   1.905  17.104  1.00  0.00     0.169 HD
ENDBRANCH  18  21
ENDBRANCH  15  18
ENDBRANCH   9  12
ENDBRANCH   7   8
ENDBRANCH   1   7
BRANCH   6  24
HETATM   24  C   UNL     1      -0.149   4.658   6.520  1.00  0.00     0.289 C 
BRANCH  24  25
HETATM   25  C   UNL     1      -0.289   5.341   5.165  1.00  0.00    -0.021 A 
HETATM   26  C   UNL     1      -0.492   4.593   4.012  1.00  0.00     0.010 A 
HETATM   27  C   UNL     1      -0.717   5.212   2.795  1.00  0.00     0.001 A 
HETATM   28  C   UNL     1      -0.724   6.589   2.716  1.00  0.00     0.000 A 
HETATM   29  C   UNL     1      -0.500   7.345   3.849  1.00  0.00     0.001 A 
HETATM   30  C   UNL     1      -0.298   6.726   5.072  1.00  0.00     0.010 A 
ENDBRANCH  24  25
BRANCH  24  31
HETATM   31  C   UNL     1       1.312   4.508   6.926  1.00  0.00    -0.021 A 
HETATM   32  C   UNL     1       1.896   3.250   6.948  1.00  0.00     0.010 A 
HETATM   33  C   UNL     1       3.224   3.089   7.310  1.00  0.00     0.001 A 
HETATM   34  C   UNL     1       3.983   4.188   7.650  1.00  0.00     0.000 A 
HETATM   35  C   UNL     1       3.411   5.443   7.645  1.00  0.00     0.001 A 
HETATM   36  C   UNL     1       2.078   5.604   7.301  1.00  0.00     0.010 A 
ENDBRANCH  24  31
ENDBRANCH   6  24
TORSDOF 8
ENDMDL
MODEL 8
REMARK VINA RESULT:    -8.319      3.093      5.778
REMARK INTER + INTRA:         -11.967
REMARK INTER:                 -11.458
REMARK INTRA:                  -0.509
REMARK UNBOUND:                -0.001
REMARK  8 active torsions:
REMARK  status: ('A' for Active; 'I' for Inactive)
REMARK    1  A    between atoms: C_3  and  S_4 
REMARK    2  A    between atoms: S_4  and  N_34 
REMARK    3  A    between atoms: C_9  and  N_10 
REMARK       I    between atoms: N_10  and  C_12 
REMARK    4  A    between atoms: C_12  and  C_14 
REMARK    5  A    between atoms: C_14  and  N_15 
REMARK    6  A    between atoms: N_20  and  C_21 
REMARK    7  A    between atoms: C_21  and  C_28 
REMARK    8  A    between atoms: C_21  and  C_22 
ROOT
HETATM    1  N   UNL     1       0.744   5.019   9.917  1.00  0.00     0.100 N 
HETATM    2  C   UNL     1       0.774   6.462  10.157  1.00  0.00     0.303 C 
HETATM    3  C   UNL     1       0.342   6.767  11.571  1.00  0.00     0.304 C 
HETATM    4  C   UNL     1      -0.639   4.569  10.077  1.00  0.00     0.303 C 
HETATM    5  C   UNL     1      -1.110   4.829  11.490  1.00  0.00     0.304 C 
HETATM    6  N   UNL     1      -1.005   6.249  11.848  1.00  0.00     0.105 N 
ENDROOT
BRANCH   1   7
HETATM    7  C   UNL     1       1.267   4.697   8.589  1.00  0.00     0.375 C 
BRANCH   7   8
HETATM    8  C   UNL     1       2.366   3.648   8.599  1.00  0.00     0.250 C 
HETATM    9  N   UNL     1       2.462   2.968   7.436  1.00  0.00    -0.326 N 
ATOM     10  HN  UNL     1       1.792   3.222   6.711  1.00  0.00     0.169 HD
HETATM   11  O   UNL     1       3.120   3.492   9.553  1.00  0.00    -0.271 OA
BRANCH   9  12
HETATM   12  C   UNL     1       3.381   1.948   7.104  1.00  0.00     0.034 A 
HETATM   13  C   UNL     1       2.910   0.657   6.887  1.00  0.00     0.031 A 
HETATM   14  C   UNL     1       3.787  -0.356   6.549  1.00  0.00     0.027 A 
HETATM   15  C   UNL     1       5.141  -0.081   6.439  1.00  0.00     0.079 A 
HETATM   16  C   UNL     1       5.625   1.195   6.670  1.00  0.00     0.027 A 
HETATM   17  C   UNL     1       4.739   2.213   6.983  1.00  0.00     0.031 A 
BRANCH  15  18
HETATM   18  S   UNL     1       6.232  -1.388   5.983  1.00  0.00     0.256 S 
HETATM   19  O   UNL     1       5.972  -1.670   4.603  1.00  0.00    -0.201 OA
HETATM   20  O   UNL     1       7.552  -0.956   6.342  1.00  0.00    -0.201 OA
BRANCH  18  21
HETATM   21  N   UNL     1       5.853  -2.683   6.852  1.00  0.00    -0.324 N 
ATOM     22  HN2 UNL     1       6.492  -3.182   7.471  1.00  0.00     0.169 HD
ATOM     23  HN1 UNL     1       4.875  -2.910   6.675  1.00  0.00     0.169 HD
ENDBRANCH  18  21
ENDBRANCH  15  18
ENDBRANCH   9  12
ENDBRANCH   7   8
ENDBRANCH   1   7
BRANCH   6  24
HETATM   24  C   UNL     1      -1.354   6.451  13.272  1.00  0.00     0.289 C 
BRANCH  24  25
HETATM   25  C   UNL     1      -1.493   7.935  13.592  1.00  0.00    -0.021 A 
HETATM   26  C   UNL     1      -1.238   8.410  14.873  1.00  0.00     0.010 A 
HETATM   27  C   UNL     1      -1.267   9.767  15.145  1.00  0.00     0.001 A 
HETATM   28  C   UNL     1      -1.571  10.662  14.140  1.00  0.00     0.000 A 
HETATM   29  C   UNL     1      -1.851  10.203  12.869  1.00  0.00     0.001 A 
HETATM   30  C   UNL     1      -1.797   8.847  12.590  1.00  0.00     0.010 A 
ENDBRANCH  24  25
BRANCH  24  31
HETATM   31  C   UNL     1      -2.612   5.675  13.642  1.00  0.00    -0.021 A 
HETATM   32  C   UNL     1      -2.509   4.519  14.401  1.00  0.00     0.010 A 
HETATM   33  C   UNL     1      -3.640   3.798  14.754  1.00  0.00     0.001 A 
HETATM   34  C   UNL     1      -4.886   4.232  14.353  1.00  0.00     0.000 A 
HETATM   35  C   UNL     1      -5.000   5.374  13.588  1.00  0.00     0.001 A 
HETATM   36  C   UNL     1      -3.870   6.085  13.218  1.00  0.00     0.010 A 
ENDBRANCH  24  31
ENDBRANCH   6  24
TORSDOF 8
ENDMDL
MODEL 9
REMARK VINA RESULT:    -8.272      5.580     10.719
REMARK INTER + INTRA:         -11.900
REMARK INTER:                 -11.209
REMARK INTRA:                  -0.691
REMARK UNBOUND:                -0.001
REMARK  8 active torsions:
REMARK  status: ('A' for Active; 'I' for Inactive)
REMARK    1  A    between atoms: C_3  and  S_4 
REMARK    2  A    between atoms: S_4  and  N_34 
REMARK    3  A    between atoms: C_9  and  N_10 
REMARK       I    between atoms: N_10  and  C_12 
REMARK    4  A    between atoms: C_12  and  C_14 
REMARK    5  A    between atoms: C_14  and  N_15 
REMARK    6  A    between atoms: N_20  and  C_21 
REMARK    7  A    between atoms: C_21  and  C_28 
REMARK    8  A    between atoms: C_21  and  C_22 
ROOT
HETATM    1  N   UNL     1      -2.910   5.423   9.784  1.00  0.00     0.100 N 
HETATM    2  C   UNL     1      -3.527   5.945   8.565  1.00  0.00     0.303 C 
HETATM    3  C   UNL     1      -2.860   5.355   7.346  1.00  0.00     0.304 C 
HETATM    4  C   UNL     1      -1.506   5.838   9.787  1.00  0.00     0.303 C 
HETATM    5  C   UNL     1      -0.788   5.248   8.595  1.00  0.00     0.304 C 
HETATM    6  N   UNL     1      -1.419   5.638   7.328  1.00  0.00     0.105 N 
ENDROOT
BRANCH   1   7
HETATM    7  C   UNL     1      -3.615   5.896  10.975  1.00  0.00     0.375 C 
BRANCH   7   8
HETATM    8  C   UNL     1      -4.244   4.785  11.799  1.00  0.00     0.250 C 
HETATM    9  N   UNL     1      -4.113   4.972  13.131  1.00  0.00    -0.326 N 
ATOM     10  HN  UNL     1      -3.605   5.808  13.419  1.00  0.00     0.169 HD
HETATM   11  O   UNL     1      -4.859   3.854  11.291  1.00  0.00    -0.271 OA
BRANCH   9  12
HETATM   12  C   UNL     1      -4.594   4.147  14.171  1.00  0.00     0.034 A 
HETATM   13  C   UNL     1      -5.923   4.260  14.565  1.00  0.00     0.031 A 
HETATM   14  C   UNL     1      -6.422   3.456  15.572  1.00  0.00     0.027 A 
HETATM   15  C   UNL     1      -5.586   2.543  16.196  1.00  0.00     0.079 A 
HETATM   16  C   UNL     1      -4.257   2.433  15.826  1.00  0.00     0.027 A 
HETATM   17  C   UNL     1      -3.769   3.223  14.799  1.00  0.00     0.031 A 
BRANCH  15  18
HETATM   18  S   UNL     1      -6.256   1.515  17.461  1.00  0.00     0.256 S 
HETATM   19  O   UNL     1      -7.586   1.178  17.047  1.00  0.00    -0.201 OA
HETATM   20  O   UNL     1      -5.321   0.444  17.648  1.00  0.00    -0.201 OA
BRANCH  18  21
HETATM   21  N   UNL     1      -6.342   2.375  18.813  1.00  0.00    -0.324 N 
ATOM     22  HN2 UNL     1      -6.391   3.392  18.859  1.00  0.00     0.169 HD
ATOM     23  HN1 UNL     1      -6.339   1.729  19.602  1.00  0.00     0.169 HD
ENDBRANCH  18  21
ENDBRANCH  15  18
ENDBRANCH   9  12
ENDBRANCH   7   8
ENDBRANCH   1   7
BRANCH   6  24
HETATM   24  C   UNL     1      -0.771   4.947   6.192  1.00  0.00     0.289 C 
BRANCH  24  25
HETATM   25  C   UNL     1      -1.215   5.549   4.864  1.00  0.00    -0.021 A 
HETATM   26  C   UNL     1      -1.651   6.866   4.794  1.00  0.00     0.010 A 
HETATM   27  C   UNL     1      -1.963   7.447   3.577  1.00  0.00     0.001 A 
HETATM   28  C   UNL     1      -1.860   6.708   2.417  1.00  0.00     0.000 A 
HETATM   29  C   UNL     1      -1.452   5.389   2.474  1.00  0.00     0.001 A 
HETATM   30  C   UNL     1      -1.117   4.815   3.689  1.00  0.00     0.010 A 
ENDBRANCH  24  25
BRANCH  24  31
HETATM   31  C   UNL     1       0.746   4.961   6.336  1.00  0.00    -0.021 A 
HETATM   32  C   UNL     1       1.430   6.167   6.303  1.00  0.00     0.010 A 
HETATM   33  C   UNL     1       2.809   6.206   6.436  1.00  0.00     0.001 A 
HETATM   34  C   UNL     1       3.517   5.036   6.609  1.00  0.00     0.000 A 
HETATM   35  C   UNL     1       2.851   3.829   6.632  1.00  0.00     0.001 A 
HETATM   36  C   UNL     1       1.474   3.786   6.480  1.00  0.00     0.010 A 
ENDBRANCH  24  31
ENDBRANCH   6  24
TORSDOF 8
ENDMDL
MODEL 10
REMARK VINA RESULT:    -8.195      2.755      4.823
REMARK INTER + INTRA:         -11.788
REMARK INTER:                 -11.388
REMARK INTRA:                  -0.400
REMARK UNBOUND:                -0.001
REMARK  8 active torsions:
REMARK  status: ('A' for Active; 'I' for Inactive)
REMARK    1  A    between atoms: C_3  and  S_4 
REMARK    2  A    between atoms: S_4  and  N_34 
REMARK    3  A    between atoms: C_9  and  N_10 
REMARK       I    between atoms: N_10  and  C_12 
REMARK    4  A    between atoms: C_12  and  C_14 
REMARK    5  A    between atoms: C_14  and  N_15 
REMARK    6  A    between atoms: N_20  and  C_21 
REMARK    7  A    between atoms: C_21  and  C_28 
REMARK    8  A    between atoms: C_21  and  C_22 
ROOT
HETATM    1  N   UNL     1       0.827   4.719  10.765  1.00  0.00     0.100 N 
HETATM    2  C   UNL     1      -0.120   3.773  11.357  1.00  0.00     0.303 C 
HETATM    3  C   UNL     1      -1.421   4.468  11.681  1.00  0.00     0.304 C 
HETATM    4  C   UNL     1       1.101   5.756  11.761  1.00  0.00     0.303 C 
HETATM    5  C   UNL     1      -0.171   6.501  12.099  1.00  0.00     0.304 C 
HETATM    6  N   UNL     1      -1.216   5.598  12.598  1.00  0.00     0.105 N 
ENDROOT
BRANCH   1   7
HETATM    7  C   UNL     1       2.051   4.040  10.341  1.00  0.00     0.375 C 
BRANCH   7   8
HETATM    8  C   UNL     1       2.275   4.058   8.838  1.00  0.00     0.250 C 
HETATM    9  N   UNL     1       3.576   4.174   8.497  1.00  0.00    -0.326 N 
ATOM     10  HN  UNL     1       4.238   4.250   9.268  1.00  0.00     0.169 HD
HETATM   11  O   UNL     1       1.361   3.916   8.034  1.00  0.00    -0.271 OA
BRANCH   9  12
HETATM   12  C   UNL     1       4.130   4.202   7.197  1.00  0.00     0.034 A 
HETATM   13  C   UNL     1       3.700   5.173   6.299  1.00  0.00     0.031 A 
HETATM   14  C   UNL     1       4.235   5.229   5.026  1.00  0.00     0.027 A 
HETATM   15  C   UNL     1       5.195   4.305   4.646  1.00  0.00     0.079 A 
HETATM   16  C   UNL     1       5.619   3.322   5.524  1.00  0.00     0.027 A 
HETATM   17  C   UNL     1       5.099   3.286   6.807  1.00  0.00     0.031 A 
BRANCH  15  18
HETATM   18  S   UNL     1       5.876   4.416   3.024  1.00  0.00     0.256 S 
HETATM   19  O   UNL     1       6.131   3.072   2.599  1.00  0.00    -0.201 OA
HETATM   20  O   UNL     1       4.956   5.200   2.252  1.00  0.00    -0.201 OA
BRANCH  18  21
HETATM   21  N   UNL     1       7.274   5.198   3.120  1.00  0.00    -0.324 N 
ATOM     22  HN2 UNL     1       7.867   5.240   3.949  1.00  0.00     0.169 HD
ATOM     23  HN1 UNL     1       7.457   5.636   2.218  1.00  0.00     0.169 HD
ENDBRANCH  18  21
ENDBRANCH  15  18
ENDBRANCH   9  12
ENDBRANCH   7   8
ENDBRANCH   1   7
BRANCH   6  24
HETATM   24  C   UNL     1      -2.483   6.335  12.801  1.00  0.00     0.289 C 
BRANCH  24  25
HETATM   25  C   UNL     1      -3.440   5.538  13.679  1.00  0.00    -0.021 A 
HETATM   26  C   UNL     1      -4.800   5.821  13.683  1.00  0.00     0.010 A 
HETATM   27  C   UNL     1      -5.686   5.038  14.403  1.00  0.00     0.001 A 
HETATM   28  C   UNL     1      -5.216   3.973  15.143  1.00  0.00     0.000 A 
HETATM   29  C   UNL     1      -3.864   3.694  15.168  1.00  0.00     0.001 A 
HETATM   30  C   UNL     1      -2.980   4.463  14.428  1.00  0.00     0.010 A 
ENDBRANCH  24  25
BRANCH  24  31
HETATM   31  C   UNL     1      -2.222   7.724  13.369  1.00  0.00    -0.021 A 
HETATM   32  C   UNL     1      -1.925   7.873  14.716  1.00  0.00     0.010 A 
HETATM   33  C   UNL     1      -1.680   9.126  15.256  1.00  0.00     0.001 A 
HETATM   34  C   UNL     1      -1.726  10.244  14.450  1.00  0.00     0.000 A 
HETATM   35  C   UNL     1      -2.032  10.111  13.111  1.00  0.00     0.001 A 
HETATM   36  C   UNL     1      -2.296   8.861  12.574  1.00  0.00     0.010 A 
ENDBRANCH  24  31
ENDBRANCH   6  24
TORSDOF 8
ENDMDL
MODEL 11
REMARK VINA RESULT:    -8.142      6.756      9.376
REMARK INTER + INTRA:         -11.712
REMARK INTER:                 -11.800
REMARK INTRA:                   0.088
REMARK UNBOUND:                -0.001
REMARK  8 active torsions:
REMARK  status: ('A' for Active; 'I' for Inactive)
REMARK    1  A    between atoms: C_3  and  S_4 
REMARK    2  A    between atoms: S_4  and  N_34 
REMARK    3  A    between atoms: C_9  and  N_10 
REMARK       I    between atoms: N_10  and  C_12 
REMARK    4  A    between atoms: C_12  and  C_14 
REMARK    5  A    between atoms: C_14  and  N_15 
REMARK    6  A    between atoms: N_20  and  C_21 
REMARK    7  A    between atoms: C_21  and  C_28 
REMARK    8  A    between atoms: C_21  and  C_22 
ROOT
HETATM    1  N   UNL     1      -3.963   5.913   9.627  1.00  0.00     0.100 N 
HETATM    2  C   UNL     1      -5.045   6.151  10.582  1.00  0.00     0.303 C 
HETATM    3  C   UNL     1      -4.538   6.003  11.996  1.00  0.00     0.304 C 
HETATM    4  C   UNL     1      -3.507   4.534   9.804  1.00  0.00     0.303 C 
HETATM    5  C   UNL     1      -2.962   4.343  11.202  1.00  0.00     0.304 C 
HETATM    6  N   UNL     1      -3.962   4.672  12.227  1.00  0.00     0.105 N 
ENDROOT
BRANCH   1   7
HETATM    7  C   UNL     1      -4.408   6.162   8.256  1.00  0.00     0.375 C 
BRANCH   7   8
HETATM    8  C   UNL     1      -5.217   7.439   8.094  1.00  0.00     0.250 C 
HETATM    9  N   UNL     1      -6.454   7.225   7.596  1.00  0.00    -0.326 N 
ATOM     10  HN  UNL     1      -6.688   6.257   7.377  1.00  0.00     0.169 HD
HETATM   11  O   UNL     1      -4.795   8.535   8.446  1.00  0.00    -0.271 OA
BRANCH   9  12
HETATM   12  C   UNL     1      -7.461   8.182   7.343  1.00  0.00     0.034 A 
HETATM   13  C   UNL     1      -7.215   9.198   6.427  1.00  0.00     0.031 A 
HETATM   14  C   UNL     1      -8.188  10.140   6.151  1.00  0.00     0.027 A 
HETATM   15  C   UNL     1      -9.409  10.071   6.804  1.00  0.00     0.079 A 
HETATM   16  C   UNL     1      -9.662   9.075   7.731  1.00  0.00     0.027 A 
HETATM   17  C   UNL     1      -8.692   8.119   7.983  1.00  0.00     0.031 A 
BRANCH  15  18
HETATM   18  S   UNL     1     -10.641  11.272   6.415  1.00  0.00     0.256 S 
HETATM   19  O   UNL     1      -9.940  12.453   6.007  1.00  0.00    -0.201 OA
HETATM   20  O   UNL     1     -11.522  10.654   5.468  1.00  0.00    -0.201 OA
BRANCH  18  21
HETATM   21  N   UNL     1     -11.461  11.599   7.755  1.00  0.00    -0.324 N 
ATOM     22  HN2 UNL     1     -11.401  12.470   8.282  1.00  0.00     0.169 HD
ATOM     23  HN1 UNL     1     -12.043  10.792   7.977  1.00  0.00     0.169 HD
ENDBRANCH  18  21
ENDBRANCH  15  18
ENDBRANCH   9  12
ENDBRANCH   7   8
ENDBRANCH   1   7
BRANCH   6  24
HETATM   24  C   UNL     1      -3.362   4.595  13.577  1.00  0.00     0.289 C 
BRANCH  24  25
HETATM   25  C   UNL     1      -2.887   5.967  14.039  1.00  0.00    -0.021 A 
HETATM   26  C   UNL     1      -3.593   6.674  15.005  1.00  0.00     0.010 A 
HETATM   27  C   UNL     1      -3.114   7.875  15.498  1.00  0.00     0.001 A 
HETATM   28  C   UNL     1      -1.930   8.391  15.016  1.00  0.00     0.000 A 
HETATM   29  C   UNL     1      -1.229   7.713  14.039  1.00  0.00     0.001 A 
HETATM   30  C   UNL     1      -1.696   6.499  13.562  1.00  0.00     0.010 A 
ENDBRANCH  24  25
BRANCH  24  31
HETATM   31  C   UNL     1      -4.332   3.971  14.572  1.00  0.00    -0.021 A 
HETATM   32  C   UNL     1      -3.909   2.933  15.389  1.00  0.00     0.010 A 
HETATM   33  C   UNL     1      -4.772   2.352  16.305  1.00  0.00     0.001 A 
HETATM   34  C   UNL     1      -6.068   2.808  16.415  1.00  0.00     0.000 A 
HETATM   35  C   UNL     1      -6.505   3.832  15.600  1.00  0.00     0.001 A 
HETATM   36  C   UNL     1      -5.650   4.401  14.671  1.00  0.00     0.010 A 
ENDBRANCH  24  31
ENDBRANCH   6  24
TORSDOF 8
ENDMDL
MODEL 12
REMARK VINA RESULT:    -8.103      7.478     10.431
REMARK INTER + INTRA:         -11.657
REMARK INTER:                 -10.821
REMARK INTRA:                  -0.836
REMARK UNBOUND:                -0.001
REMARK  8 active torsions:
REMARK  status: ('A' for Active; 'I' for Inactive)
REMARK    1  A    between atoms: C_3  and  S_4 
REMARK    2  A    between atoms: S_4  and  N_34 
REMARK    3  A    between atoms: C_9  and  N_10 
REMARK       I    between atoms: N_10  and  C_12 
REMARK    4  A    between atoms: C_12  and  C_14 
REMARK    5  A    between atoms: C_14  and  N_15 
REMARK    6  A    between atoms: N_20  and  C_21 
REMARK    7  A    between atoms: C_21  and  C_28 
REMARK    8  A    between atoms: C_21  and  C_22 
ROOT
HETATM    1  N   UNL     1      -4.473   6.459   8.715  1.00  0.00     0.100 N 
HETATM    2  C   UNL     1      -3.866   7.764   8.979  1.00  0.00     0.303 C 
HETATM    3  C   UNL     1      -4.935   8.791   9.265  1.00  0.00     0.304 C 
HETATM    4  C   UNL     1      -5.310   6.590   7.521  1.00  0.00     0.303 C 
HETATM    5  C   UNL     1      -6.416   7.591   7.770  1.00  0.00     0.304 C 
HETATM    6  N   UNL     1      -5.886   8.907   8.152  1.00  0.00     0.105 N 
ENDROOT
BRANCH   1   7
HETATM    7  C   UNL     1      -3.449   5.428   8.546  1.00  0.00     0.375 C 
BRANCH   7   8
HETATM    8  C   UNL     1      -3.130   4.664   9.820  1.00  0.00     0.250 C 
HETATM    9  N   UNL     1      -4.231   4.235  10.473  1.00  0.00    -0.326 N 
ATOM     10  HN  UNL     1      -5.127   4.482  10.053  1.00  0.00     0.169 HD
HETATM   11  O   UNL     1      -1.981   4.418  10.170  1.00  0.00    -0.271 OA
BRANCH   9  12
HETATM   12  C   UNL     1      -4.290   3.485  11.669  1.00  0.00     0.034 A 
HETATM   13  C   UNL     1      -4.488   2.111  11.597  1.00  0.00     0.031 A 
HETATM   14  C   UNL     1      -4.537   1.353  12.751  1.00  0.00     0.027 A 
HETATM   15  C   UNL     1      -4.401   1.973  13.983  1.00  0.00     0.079 A 
HETATM   16  C   UNL     1      -4.221   3.342  14.070  1.00  0.00     0.027 A 
HETATM   17  C   UNL     1      -4.146   4.094  12.909  1.00  0.00     0.031 A 
BRANCH  15  18
HETATM   18  S   UNL     1      -4.444   0.977  15.437  1.00  0.00     0.256 S 
HETATM   19  O   UNL     1      -4.394  -0.385  14.997  1.00  0.00    -0.201 OA
HETATM   20  O   UNL     1      -3.385   1.448  16.281  1.00  0.00    -0.201 OA
BRANCH  18  21
HETATM   21  N   UNL     1      -5.848   1.228  16.174  1.00  0.00    -0.324 N 
ATOM     22  HN2 UNL     1      -6.727   0.771  15.932  1.00  0.00     0.169 HD
ATOM     23  HN1 UNL     1      -5.701   1.914  16.913  1.00  0.00     0.169 HD
ENDBRANCH  18  21
ENDBRANCH  15  18
ENDBRANCH   9  12
ENDBRANCH   7   8
ENDBRANCH   1   7
BRANCH   6  24
HETATM   24  C   UNL     1      -6.989   9.826   8.507  1.00  0.00     0.289 C 
BRANCH  24  25
HETATM   25  C   UNL     1      -6.448  11.186   8.932  1.00  0.00    -0.021 A 
HETATM   26  C   UNL     1      -5.534  11.865   8.135  1.00  0.00     0.010 A 
HETATM   27  C   UNL     1      -5.114  13.141   8.466  1.00  0.00     0.001 A 
HETATM   28  C   UNL     1      -5.591  13.745   9.611  1.00  0.00     0.000 A 
HETATM   29  C   UNL     1      -6.481  13.073  10.426  1.00  0.00     0.001 A 
HETATM   30  C   UNL     1      -6.920  11.805  10.081  1.00  0.00     0.010 A 
ENDBRANCH  24  25
BRANCH  24  31
HETATM   31  C   UNL     1      -7.988   9.950   7.364  1.00  0.00    -0.021 A 
HETATM   32  C   UNL     1      -9.341   9.759   7.607  1.00  0.00     0.010 A 
HETATM   33  C   UNL     1     -10.269   9.871   6.583  1.00  0.00     0.001 A 
HETATM   34  C   UNL     1      -9.852  10.179   5.306  1.00  0.00     0.000 A 
HETATM   35  C   UNL     1      -8.509  10.358   5.048  1.00  0.00     0.001 A 
HETATM   36  C   UNL     1      -7.577  10.229   6.066  1.00  0.00     0.010 A 
ENDBRANCH  24  31
ENDBRANCH   6  24
TORSDOF 8
ENDMDL
MODEL 13
REMARK VINA RESULT:    -8.077      6.404      9.294
REMARK INTER + INTRA:         -11.619
REMARK INTER:                 -11.911
REMARK INTRA:                   0.292
REMARK UNBOUND:                -0.001
REMARK  8 active torsions:
REMARK  status: ('A' for Active; 'I' for Inactive)
REMARK    1  A    between atoms: C_3  and  S_4 
REMARK    2  A    between atoms: S_4  and  N_34 
REMARK    3  A    between atoms: C_9  and  N_10 
REMARK       I    between atoms: N_10  and  C_12 
REMARK    4  A    between atoms: C_12  and  C_14 
REMARK    5  A    between atoms: C_14  and  N_15 
REMARK    6  A    between atoms: N_20  and  C_21 
REMARK    7  A    between atoms: C_21  and  C_28 
REMARK    8  A    between atoms: C_21  and  C_22 
ROOT
HETATM    1  N   UNL     1      -3.363   5.617   9.276  1.00  0.00     0.100 N 
HETATM    2  C   UNL     1      -2.538   4.500   9.734  1.00  0.00     0.303 C 
HETATM    3  C   UNL     1      -2.433   4.509  11.241  1.00  0.00     0.304 C 
HETATM    4  C   UNL     1      -2.698   6.858   9.678  1.00  0.00     0.303 C 
HETATM    5  C   UNL     1      -2.595   6.926  11.185  1.00  0.00     0.304 C 
HETATM    6  N   UNL     1      -1.871   5.773  11.736  1.00  0.00     0.105 N 
ENDROOT
BRANCH   1   7
HETATM    7  C   UNL     1      -3.568   5.559   7.829  1.00  0.00     0.375 C 
BRANCH   7   8
HETATM    8  C   UNL     1      -4.941   6.032   7.383  1.00  0.00     0.250 C 
HETATM    9  N   UNL     1      -5.298   7.216   7.926  1.00  0.00    -0.326 N 
ATOM     10  HN  UNL     1      -4.627   7.636   8.569  1.00  0.00     0.169 HD
HETATM   11  O   UNL     1      -5.615   5.419   6.562  1.00  0.00    -0.271 OA
BRANCH   9  12
HETATM   12  C   UNL     1      -6.490   7.943   7.710  1.00  0.00     0.034 A 
HETATM   13  C   UNL     1      -6.524   8.906   6.708  1.00  0.00     0.031 A 
HETATM   14  C   UNL     1      -7.681   9.622   6.468  1.00  0.00     0.027 A 
HETATM   15  C   UNL     1      -8.806   9.382   7.241  1.00  0.00     0.079 A 
HETATM   16  C   UNL     1      -8.782   8.438   8.253  1.00  0.00     0.027 A 
HETATM   17  C   UNL     1      -7.627   7.705   8.472  1.00  0.00     0.031 A 
BRANCH  15  18
HETATM   18  S   UNL     1     -10.276  10.294   6.897  1.00  0.00     0.256 S 
HETATM   19  O   UNL     1     -10.214  11.479   7.700  1.00  0.00    -0.201 OA
HETATM   20  O   UNL     1     -10.328  10.451   5.473  1.00  0.00    -0.201 OA
BRANCH  18  21
HETATM   21  N   UNL     1     -11.532   9.416   7.372  1.00  0.00    -0.324 N 
ATOM     22  HN2 UNL     1     -12.448   9.411   6.923  1.00  0.00     0.169 HD
ATOM     23  HN1 UNL     1     -11.252   8.875   8.189  1.00  0.00     0.169 HD
ENDBRANCH  18  21
ENDBRANCH  15  18
ENDBRANCH   9  12
ENDBRANCH   7   8
ENDBRANCH   1   7
BRANCH   6  24
HETATM   24  C   UNL     1      -1.894   5.805  13.215  1.00  0.00     0.289 C 
BRANCH  24  25
HETATM   25  C   UNL     1      -1.602   7.209  13.732  1.00  0.00    -0.021 A 
HETATM   26  C   UNL     1      -2.387   7.775  14.728  1.00  0.00     0.010 A 
HETATM   27  C   UNL     1      -2.067   9.008  15.269  1.00  0.00     0.001 A 
HETATM   28  C   UNL     1      -0.966   9.697  14.804  1.00  0.00     0.000 A 
HETATM   29  C   UNL     1      -0.191   9.158  13.797  1.00  0.00     0.001 A 
HETATM   30  C   UNL     1      -0.497   7.913  13.273  1.00  0.00     0.010 A 
ENDBRANCH  24  25
BRANCH  24  31
HETATM   31  C   UNL     1      -3.216   5.272  13.753  1.00  0.00    -0.021 A 
HETATM   32  C   UNL     1      -3.228   4.135  14.548  1.00  0.00     0.010 A 
HETATM   33  C   UNL     1      -4.418   3.633  15.052  1.00  0.00     0.001 A 
HETATM   34  C   UNL     1      -5.608   4.268  14.769  1.00  0.00     0.000 A 
HETATM   35  C   UNL     1      -5.611   5.392  13.969  1.00  0.00     0.001 A 
HETATM   36  C   UNL     1      -4.426   5.885  13.449  1.00  0.00     0.010 A 
ENDBRANCH  24  31
ENDBRANCH   6  24
TORSDOF 8
ENDMDL
MODEL 14
REMARK VINA RESULT:    -8.051      6.716     10.106
REMARK INTER + INTRA:         -11.581
REMARK INTER:                 -11.620
REMARK INTRA:                   0.039
REMARK UNBOUND:                -0.001
REMARK  8 active torsions:
REMARK  status: ('A' for Active; 'I' for Inactive)
REMARK    1  A    between atoms: C_3  and  S_4 
REMARK    2  A    between atoms: S_4  and  N_34 
REMARK    3  A    between atoms: C_9  and  N_10 
REMARK       I    between atoms: N_10  and  C_12 
REMARK    4  A    between atoms: C_12  and  C_14 
REMARK    5  A    between atoms: C_14  and  N_15 
REMARK    6  A    between atoms: N_20  and  C_21 
REMARK    7  A    between atoms: C_21  and  C_28 
REMARK    8  A    between atoms: C_21  and  C_22 
ROOT
HETATM    1  N   UNL     1      -3.080   6.853  10.954  1.00  0.00     0.100 N 
HETATM    2  C   UNL     1      -3.328   8.046  11.764  1.00  0.00     0.303 C 
HETATM    3  C   UNL     1      -4.321   8.950  11.075  1.00  0.00     0.304 C 
HETATM    4  C   UNL     1      -2.494   7.290   9.685  1.00  0.00     0.303 C 
HETATM    5  C   UNL     1      -3.466   8.179   8.943  1.00  0.00     0.304 C 
HETATM    6  N   UNL     1      -3.854   9.350   9.741  1.00  0.00     0.105 N 
ENDROOT
BRANCH   1   7
HETATM    7  C   UNL     1      -2.207   5.913  11.656  1.00  0.00     0.375 C 
BRANCH   7   8
HETATM    8  C   UNL     1      -2.947   4.763  12.318  1.00  0.00     0.250 C 
HETATM    9  N   UNL     1      -3.342   5.042  13.579  1.00  0.00    -0.326 N 
ATOM     10  HN  UNL     1      -3.089   5.963  13.936  1.00  0.00     0.169 HD
HETATM   11  O   UNL     1      -3.205   3.720  11.729  1.00  0.00    -0.271 OA
BRANCH   9  12
HETATM   12  C   UNL     1      -4.064   4.209  14.463  1.00  0.00     0.034 A 
HETATM   13  C   UNL     1      -3.406   3.160  15.095  1.00  0.00     0.031 A 
HETATM   14  C   UNL     1      -4.087   2.339  15.974  1.00  0.00     0.027 A 
HETATM   15  C   UNL     1      -5.434   2.560  16.212  1.00  0.00     0.079 A 
HETATM   16  C   UNL     1      -6.106   3.589  15.576  1.00  0.00     0.027 A 
HETATM   17  C   UNL     1      -5.413   4.425  14.716  1.00  0.00     0.031 A 
BRANCH  15  18
HETATM   18  S   UNL     1      -6.271   1.510  17.355  1.00  0.00     0.256 S 
HETATM   19  O   UNL     1      -7.558   1.239  16.787  1.00  0.00    -0.201 OA
HETATM   20  O   UNL     1      -5.397   0.399  17.597  1.00  0.00    -0.201 OA
BRANCH  18  21
HETATM   21  N   UNL     1      -6.474   2.322  18.724  1.00  0.00    -0.324 N 
ATOM     22  HN2 UNL     1      -6.952   3.219  18.809  1.00  0.00     0.169 HD
ATOM     23  HN1 UNL     1      -6.045   1.787  19.478  1.00  0.00     0.169 HD
ENDBRANCH  18  21
ENDBRANCH  15  18
ENDBRANCH   9  12
ENDBRANCH   7   8
ENDBRANCH   1   7
BRANCH   6  24
HETATM   24  C   UNL     1      -4.897  10.131   9.040  1.00  0.00     0.289 C 
BRANCH  24  25
HETATM   25  C   UNL     1      -6.161   9.302   8.851  1.00  0.00    -0.021 A 
HETATM   26  C   UNL     1      -6.667   9.061   7.580  1.00  0.00     0.010 A 
HETATM   27  C   UNL     1      -7.758   8.228   7.395  1.00  0.00     0.001 A 
HETATM   28  C   UNL     1      -8.366   7.643   8.486  1.00  0.00     0.000 A 
HETATM   29  C   UNL     1      -7.890   7.892   9.758  1.00  0.00     0.001 A 
HETATM   30  C   UNL     1      -6.783   8.706   9.940  1.00  0.00     0.010 A 
ENDBRANCH  24  25
BRANCH  24  31
HETATM   31  C   UNL     1      -5.184  11.438   9.769  1.00  0.00    -0.021 A 
HETATM   32  C   UNL     1      -4.137  12.173  10.305  1.00  0.00     0.010 A 
HETATM   33  C   UNL     1      -4.373  13.366  10.969  1.00  0.00     0.001 A 
HETATM   34  C   UNL     1      -5.662  13.839  11.099  1.00  0.00     0.000 A 
HETATM   35  C   UNL     1      -6.713  13.111  10.581  1.00  0.00     0.001 A 
HETATM   36  C   UNL     1      -6.481  11.908   9.934  1.00  0.00     0.010 A 
ENDBRANCH  24  31
ENDBRANCH   6  24
TORSDOF 8
ENDMDL
MODEL 15
REMARK VINA RESULT:    -8.026      3.163      4.990
REMARK INTER + INTRA:         -11.545
REMARK INTER:                 -10.983
REMARK INTRA:                  -0.563
REMARK UNBOUND:                -0.001
REMARK  8 active torsions:
REMARK  status: ('A' for Active; 'I' for Inactive)
REMARK    1  A    between atoms: C_3  and  S_4 
REMARK    2  A    between atoms: S_4  and  N_34 
REMARK    3  A    between atoms: C_9  and  N_10 
REMARK       I    between atoms: N_10  and  C_12 
REMARK    4  A    between atoms: C_12  and  C_14 
REMARK    5  A    between atoms: C_14  and  N_15 
REMARK    6  A    between atoms: N_20  and  C_21 
REMARK    7  A    between atoms: C_21  and  C_28 
REMARK    8  A    between atoms: C_21  and  C_22 
ROOT
HETATM    1  N   UNL     1       0.443   4.673   9.606  1.00  0.00     0.100 N 
HETATM    2  C   UNL     1       0.229   4.438  11.034  1.00  0.00     0.303 C 
HETATM    3  C   UNL     1      -1.242   4.257  11.321  1.00  0.00     0.304 C 
HETATM    4  C   UNL     1      -0.247   5.914   9.250  1.00  0.00     0.303 C 
HETATM    5  C   UNL     1      -1.732   5.772   9.495  1.00  0.00     0.304 C 
HETATM    6  N   UNL     1      -2.024   5.424  10.892  1.00  0.00     0.105 N 
ENDROOT
BRANCH   1   7
HETATM    7  C   UNL     1       1.870   4.739   9.292  1.00  0.00     0.375 C 
BRANCH   7   8
HETATM    8  C   UNL     1       2.328   3.695   8.288  1.00  0.00     0.250 C 
HETATM    9  N   UNL     1       3.441   3.036   8.676  1.00  0.00    -0.326 N 
ATOM     10  HN  UNL     1       3.843   3.321   9.569  1.00  0.00     0.169 HD
HETATM   11  O   UNL     1       1.700   3.446   7.264  1.00  0.00    -0.271 OA
BRANCH   9  12
HETATM   12  C   UNL     1       4.114   1.999   7.993  1.00  0.00     0.034 A 
HETATM   13  C   UNL     1       3.548   0.729   7.962  1.00  0.00     0.031 A 
HETATM   14  C   UNL     1       4.181  -0.299   7.290  1.00  0.00     0.027 A 
HETATM   15  C   UNL     1       5.391  -0.060   6.657  1.00  0.00     0.079 A 
HETATM   16  C   UNL     1       5.974   1.194   6.695  1.00  0.00     0.027 A 
HETATM   17  C   UNL     1       5.323   2.228   7.348  1.00  0.00     0.031 A 
BRANCH  15  18
HETATM   18  S   UNL     1       6.163  -1.385   5.788  1.00  0.00     0.256 S 
HETATM   19  O   UNL     1       5.116  -2.287   5.411  1.00  0.00    -0.201 OA
HETATM   20  O   UNL     1       6.939  -0.784   4.742  1.00  0.00    -0.201 OA
BRANCH  18  21
HETATM   21  N   UNL     1       7.151  -2.141   6.802  1.00  0.00    -0.324 N 
ATOM     22  HN2 UNL     1       8.170  -2.094   6.773  1.00  0.00     0.169 HD
ATOM     23  HN1 UNL     1       6.585  -2.665   7.467  1.00  0.00     0.169 HD
ENDBRANCH  18  21
ENDBRANCH  15  18
ENDBRANCH   9  12
ENDBRANCH   7   8
ENDBRANCH   1   7
BRANCH   6  24
HETATM   24  C   UNL     1      -3.471   5.170  11.070  1.00  0.00     0.289 C 
BRANCH  24  25
HETATM   25  C   UNL     1      -3.743   4.494  12.409  1.00  0.00    -0.021 A 
HETATM   26  C   UNL     1      -3.616   5.201  13.598  1.00  0.00     0.010 A 
HETATM   27  C   UNL     1      -3.956   4.621  14.808  1.00  0.00     0.001 A 
HETATM   28  C   UNL     1      -4.409   3.319  14.842  1.00  0.00     0.000 A 
HETATM   29  C   UNL     1      -4.517   2.596  13.670  1.00  0.00     0.001 A 
HETATM   30  C   UNL     1      -4.200   3.184  12.457  1.00  0.00     0.010 A 
ENDBRANCH  24  25
BRANCH  24  31
HETATM   31  C   UNL     1      -4.275   6.455  10.915  1.00  0.00    -0.021 A 
HETATM   32  C   UNL     1      -3.629   7.682  10.961  1.00  0.00     0.010 A 
HETATM   33  C   UNL     1      -4.338   8.864  10.818  1.00  0.00     0.001 A 
HETATM   34  C   UNL     1      -5.702   8.830  10.623  1.00  0.00     0.000 A 
HETATM   35  C   UNL     1      -6.359   7.617  10.588  1.00  0.00     0.001 A 
HETATM   36  C   UNL     1      -5.654   6.435  10.749  1.00  0.00     0.010 A 
ENDBRANCH  24  31
ENDBRANCH   6  24
TORSDOF 8
ENDMDL
MODEL 16
REMARK VINA RESULT:    -8.021      4.635      6.045
REMARK INTER + INTRA:         -11.539
REMARK INTER:                 -10.884
REMARK INTRA:                  -0.655
REMARK UNBOUND:                -0.001
REMARK  8 active torsions:
REMARK  status: ('A' for Active; 'I' for Inactive)
REMARK    1  A    between atoms: C_3  and  S_4 
REMARK    2  A    between atoms: S_4  and  N_34 
REMARK    3  A    between atoms: C_9  and  N_10 
REMARK       I    between atoms: N_10  and  C_12 
REMARK    4  A    between atoms: C_12  and  C_14 
REMARK    5  A    between atoms: C_14  and  N_15 
REMARK    6  A    between atoms: N_20  and  C_21 
REMARK    7  A    between atoms: C_21  and  C_28 
REMARK    8  A    between atoms: C_21  and  C_22 
ROOT
HETATM    1  N   UNL     1      -0.922   6.502   8.067  1.00  0.00     0.100 N 
HETATM    2  C   UNL     1      -0.204   7.051   9.218  1.00  0.00     0.303 C 
HETATM    3  C   UNL     1      -1.054   6.952  10.461  1.00  0.00     0.304 C 
HETATM    4  C   UNL     1      -2.123   7.313   7.863  1.00  0.00     0.303 C 
HETATM    5  C   UNL     1      -3.022   7.225   9.075  1.00  0.00     0.304 C 
HETATM    6  N   UNL     1      -2.333   7.656  10.299  1.00  0.00     0.105 N 
ENDROOT
BRANCH   1   7
HETATM    7  C   UNL     1      -0.072   6.486   6.877  1.00  0.00     0.375 C 
BRANCH   7   8
HETATM    8  C   UNL     1       0.663   5.173   6.664  1.00  0.00     0.250 C 
HETATM    9  N   UNL     1       1.956   5.218   7.053  1.00  0.00    -0.326 N 
ATOM     10  HN  UNL     1       2.283   6.111   7.421  1.00  0.00     0.169 HD
HETATM   11  O   UNL     1       0.105   4.167   6.239  1.00  0.00    -0.271 OA
BRANCH   9  12
HETATM   12  C   UNL     1       2.908   4.176   7.012  1.00  0.00     0.034 A 
HETATM   13  C   UNL     1       2.971   3.274   8.069  1.00  0.00     0.031 A 
HETATM   14  C   UNL     1       3.885   2.238   8.047  1.00  0.00     0.027 A 
HETATM   15  C   UNL     1       4.748   2.111   6.970  1.00  0.00     0.079 A 
HETATM   16  C   UNL     1       4.709   3.011   5.920  1.00  0.00     0.027 A 
HETATM   17  C   UNL     1       3.773   4.032   5.935  1.00  0.00     0.031 A 
BRANCH  15  18
HETATM   18  S   UNL     1       5.888   0.766   6.959  1.00  0.00     0.256 S 
HETATM   19  O   UNL     1       6.663   0.902   5.761  1.00  0.00    -0.201 OA
HETATM   20  O   UNL     1       6.580   0.813   8.214  1.00  0.00    -0.201 OA
BRANCH  18  21
HETATM   21  N   UNL     1       5.051  -0.600   6.876  1.00  0.00    -0.324 N 
ATOM     22  HN2 UNL     1       4.528  -0.919   6.060  1.00  0.00     0.169 HD
ATOM     23  HN1 UNL     1       5.136  -1.081   7.771  1.00  0.00     0.169 HD
ENDBRANCH  18  21
ENDBRANCH  15  18
ENDBRANCH   9  12
ENDBRANCH   7   8
ENDBRANCH   1   7
BRANCH   6  24
HETATM   24  C   UNL     1      -3.196   7.440  11.481  1.00  0.00     0.289 C 
BRANCH  24  25
HETATM   25  C   UNL     1      -2.610   8.121  12.712  1.00  0.00    -0.021 A 
HETATM   26  C   UNL     1      -2.015   9.373  12.614  1.00  0.00     0.010 A 
HETATM   27  C   UNL     1      -1.569  10.038  13.743  1.00  0.00     0.001 A 
HETATM   28  C   UNL     1      -1.698   9.448  14.983  1.00  0.00     0.000 A 
HETATM   29  C   UNL     1      -2.264   8.193  15.093  1.00  0.00     0.001 A 
HETATM   30  C   UNL     1      -2.733   7.538  13.966  1.00  0.00     0.010 A 
ENDBRANCH  24  25
BRANCH  24  31
HETATM   31  C   UNL     1      -4.623   7.900  11.209  1.00  0.00    -0.021 A 
HETATM   32  C   UNL     1      -4.847   9.136  10.619  1.00  0.00     0.010 A 
HETATM   33  C   UNL     1      -6.136   9.574  10.358  1.00  0.00     0.001 A 
HETATM   34  C   UNL     1      -7.213   8.778  10.681  1.00  0.00     0.000 A 
HETATM   35  C   UNL     1      -7.004   7.552  11.279  1.00  0.00     0.001 A 
HETATM   36  C   UNL     1      -5.718   7.120  11.558  1.00  0.00     0.010 A 
ENDBRANCH  24  31
ENDBRANCH   6  24
TORSDOF 8
ENDMDL
MODEL 17
REMARK VINA RESULT:    -7.959      7.538     10.423
REMARK INTER + INTRA:         -11.449
REMARK INTER:                 -11.144
REMARK INTRA:                  -0.304
REMARK UNBOUND:                -0.001
REMARK  8 active torsions:
REMARK  status: ('A' for Active; 'I' for Inactive)
REMARK    1  A    between atoms: C_3  and  S_4 
REMARK    2  A    between atoms: S_4  and  N_34 
REMARK    3  A    between atoms: C_9  and  N_10 
REMARK       I    between atoms: N_10  and  C_12 
REMARK    4  A    between atoms: C_12  and  C_14 
REMARK    5  A    between atoms: C_14  and  N_15 
REMARK    6  A    between atoms: N_20  and  C_21 
REMARK    7  A    between atoms: C_21  and  C_28 
REMARK    8  A    between atoms: C_21  and  C_22 
ROOT
HETATM    1  N   UNL     1      -4.825   7.626   9.297  1.00  0.00     0.100 N 
HETATM    2  C   UNL     1      -4.624   8.548  10.415  1.00  0.00     0.303 C 
HETATM    3  C   UNL     1      -3.723   7.924  11.453  1.00  0.00     0.304 C 
HETATM    4  C   UNL     1      -5.491   6.431   9.819  1.00  0.00     0.303 C 
HETATM    5  C   UNL     1      -4.612   5.755  10.847  1.00  0.00     0.304 C 
HETATM    6  N   UNL     1      -4.271   6.657  11.954  1.00  0.00     0.105 N 
ENDROOT
BRANCH   1   7
HETATM    7  C   UNL     1      -5.602   8.255   8.230  1.00  0.00     0.375 C 
BRANCH   7   8
HETATM    8  C   UNL     1      -6.669   9.215   8.730  1.00  0.00     0.250 C 
HETATM    9  N   UNL     1      -6.330  10.513   8.576  1.00  0.00    -0.326 N 
ATOM     10  HN  UNL     1      -5.413  10.692   8.168  1.00  0.00     0.169 HD
HETATM   11  O   UNL     1      -7.748   8.831   9.167  1.00  0.00    -0.271 OA
BRANCH   9  12
HETATM   12  C   UNL     1      -7.093  11.652   8.915  1.00  0.00     0.034 A 
HETATM   13  C   UNL     1      -6.779  12.360  10.069  1.00  0.00     0.031 A 
HETATM   14  C   UNL     1      -7.503  13.485  10.416  1.00  0.00     0.027 A 
HETATM   15  C   UNL     1      -8.553  13.897   9.611  1.00  0.00     0.079 A 
HETATM   16  C   UNL     1      -8.888  13.192   8.468  1.00  0.00     0.027 A 
HETATM   17  C   UNL     1      -8.142  12.080   8.111  1.00  0.00     0.031 A 
BRANCH  15  18
HETATM   18  S   UNL     1      -9.444  15.349  10.065  1.00  0.00     0.256 S 
HETATM   19  O   UNL     1      -8.462  16.342  10.385  1.00  0.00    -0.201 OA
HETATM   20  O   UNL     1     -10.346  15.623   8.985  1.00  0.00    -0.201 OA
BRANCH  18  21
HETATM   21  N   UNL     1     -10.294  15.022  11.386  1.00  0.00    -0.324 N 
ATOM     22  HN2 UNL     1     -10.102  15.396  12.315  1.00  0.00     0.169 HD
ATOM     23  HN1 UNL     1     -11.047  14.385  11.130  1.00  0.00     0.169 HD
ENDBRANCH  18  21
ENDBRANCH  15  18
ENDBRANCH   9  12
ENDBRANCH   7   8
ENDBRANCH   1   7
BRANCH   6  24
HETATM   24  C   UNL     1      -3.314   6.007  12.876  1.00  0.00     0.289 C 
BRANCH  24  25
HETATM   25  C   UNL     1      -2.464   7.047  13.597  1.00  0.00    -0.021 A 
HETATM   26  C   UNL     1      -1.240   7.448  13.075  1.00  0.00     0.010 A 
HETATM   27  C   UNL     1      -0.511   8.461  13.673  1.00  0.00     0.001 A 
HETATM   28  C   UNL     1      -0.991   9.071  14.814  1.00  0.00     0.000 A 
HETATM   29  C   UNL     1      -2.193   8.666  15.358  1.00  0.00     0.001 A 
HETATM   30  C   UNL     1      -2.935   7.669  14.746  1.00  0.00     0.010 A 
ENDBRANCH  24  25
BRANCH  24  31
HETATM   31  C   UNL     1      -4.034   5.091  13.856  1.00  0.00    -0.021 A 
HETATM   32  C   UNL     1      -5.350   5.355  14.207  1.00  0.00     0.010 A 
HETATM   33  C   UNL     1      -6.028   4.532  15.094  1.00  0.00     0.001 A 
HETATM   34  C   UNL     1      -5.395   3.434  15.636  1.00  0.00     0.000 A 
HETATM   35  C   UNL     1      -4.083   3.167  15.305  1.00  0.00     0.001 A 
HETATM   36  C   UNL     1      -3.397   3.998  14.433  1.00  0.00     0.010 A 
ENDBRANCH  24  31
ENDBRANCH   6  24
TORSDOF 8
ENDMDL
MODEL 18
REMARK VINA RESULT:    -7.879      7.619     10.384
REMARK INTER + INTRA:         -11.335
REMARK INTER:                 -11.513
REMARK INTRA:                   0.179
REMARK UNBOUND:                -0.001
REMARK  8 active torsions:
REMARK  status: ('A' for Active; 'I' for Inactive)
REMARK    1  A    between atoms: C_3  and  S_4 
REMARK    2  A    between atoms: S_4  and  N_34 
REMARK    3  A    between atoms: C_9  and  N_10 
REMARK       I    between atoms: N_10  and  C_12 
REMARK    4  A    between atoms: C_12  and  C_14 
REMARK    5  A    between atoms: C_14  and  N_15 
REMARK    6  A    between atoms: N_20  and  C_21 
REMARK    7  A    between atoms: C_21  and  C_28 
REMARK    8  A    between atoms: C_21  and  C_22 
ROOT
HETATM    1  N   UNL     1      -5.544   6.427   9.832  1.00  0.00     0.100 N 
HETATM    2  C   UNL     1      -4.461   5.465   9.626  1.00  0.00     0.303 C 
HETATM    3  C   UNL     1      -3.808   5.121  10.943  1.00  0.00     0.304 C 
HETATM    4  C   UNL     1      -4.955   7.649  10.382  1.00  0.00     0.303 C 
HETATM    5  C   UNL     1      -4.311   7.360  11.719  1.00  0.00     0.304 C 
HETATM    6  N   UNL     1      -3.283   6.317  11.615  1.00  0.00     0.105 N 
ENDROOT
BRANCH   1   7
HETATM    7  C   UNL     1      -6.260   6.687   8.584  1.00  0.00     0.375 C 
BRANCH   7   8
HETATM    8  C   UNL     1      -7.305   7.785   8.691  1.00  0.00     0.250 C 
HETATM    9  N   UNL     1      -7.390   8.548   7.580  1.00  0.00    -0.326 N 
ATOM     10  HN  UNL     1      -6.748   8.313   6.824  1.00  0.00     0.169 HD
HETATM   11  O   UNL     1      -8.031   7.910   9.671  1.00  0.00    -0.271 OA
BRANCH   9  12
HETATM   12  C   UNL     1      -8.263   9.632   7.340  1.00  0.00     0.034 A 
HETATM   13  C   UNL     1      -7.773  10.930   7.434  1.00  0.00     0.031 A 
HETATM   14  C   UNL     1      -8.603  12.008   7.192  1.00  0.00     0.027 A 
HETATM   15  C   UNL     1      -9.933  11.787   6.867  1.00  0.00     0.079 A 
HETATM   16  C   UNL     1     -10.438  10.501   6.788  1.00  0.00     0.027 A 
HETATM   17  C   UNL     1      -9.595   9.424   7.006  1.00  0.00     0.031 A 
BRANCH  15  18
HETATM   18  S   UNL     1     -10.963  13.180   6.541  1.00  0.00     0.256 S 
HETATM   19  O   UNL     1     -10.601  14.184   7.498  1.00  0.00    -0.201 OA
HETATM   20  O   UNL     1     -10.795  13.489   5.151  1.00  0.00    -0.201 OA
BRANCH  18  21
HETATM   21  N   UNL     1     -12.486  12.749   6.800  1.00  0.00    -0.324 N 
ATOM     22  HN2 UNL     1     -12.983  12.017   6.292  1.00  0.00     0.169 HD
ATOM     23  HN1 UNL     1     -12.858  13.328   7.552  1.00  0.00     0.169 HD
ENDBRANCH  18  21
ENDBRANCH  15  18
ENDBRANCH   9  12
ENDBRANCH   7   8
ENDBRANCH   1   7
BRANCH   6  24
HETATM   24  C   UNL     1      -2.761   5.970  12.955  1.00  0.00     0.289 C 
BRANCH  24  25
HETATM   25  C   UNL     1      -2.216   7.205  13.662  1.00  0.00    -0.021 A 
HETATM   26  C   UNL     1      -2.777   7.643  14.856  1.00  0.00     0.010 A 
HETATM   27  C   UNL     1      -2.225   8.705  15.552  1.00  0.00     0.001 A 
HETATM   28  C   UNL     1      -1.116   9.353  15.049  1.00  0.00     0.000 A 
HETATM   29  C   UNL     1      -0.563   8.945  13.852  1.00  0.00     0.001 A 
HETATM   30  C   UNL     1      -1.100   7.866  13.168  1.00  0.00     0.010 A 
ENDBRANCH  24  25
BRANCH  24  31
HETATM   31  C   UNL     1      -3.822   5.265  13.790  1.00  0.00    -0.021 A 
HETATM   32  C   UNL     1      -3.501   4.103  14.476  1.00  0.00     0.010 A 
HETATM   33  C   UNL     1      -4.449   3.446  15.245  1.00  0.00     0.001 A 
HETATM   34  C   UNL     1      -5.728   3.951  15.340  1.00  0.00     0.000 A 
HETATM   35  C   UNL     1      -6.064   5.099  14.654  1.00  0.00     0.001 A 
HETATM   36  C   UNL     1      -5.123   5.747  13.869  1.00  0.00     0.010 A 
ENDBRANCH  24  31
ENDBRANCH   6  24
TORSDOF 8
ENDMDL
MODEL 19
REMARK VINA RESULT:    -7.863      2.614      4.444
REMARK INTER + INTRA:         -11.311
REMARK INTER:                 -11.390
REMARK INTRA:                   0.079
REMARK UNBOUND:                -0.001
REMARK  8 active torsions:
REMARK  status: ('A' for Active; 'I' for Inactive)
REMARK    1  A    between atoms: C_3  and  S_4 
REMARK    2  A    between atoms: S_4  and  N_34 
REMARK    3  A    between atoms: C_9  and  N_10 
REMARK       I    between atoms: N_10  and  C_12 
REMARK    4  A    between atoms: C_12  and  C_14 
REMARK    5  A    between atoms: C_14  and  N_15 
REMARK    6  A    between atoms: N_20  and  C_21 
REMARK    7  A    between atoms: C_21  and  C_28 
REMARK    8  A    between atoms: C_21  and  C_22 
ROOT
HETATM    1  N   UNL     1      -2.428   5.279   9.069  1.00  0.00     0.100 N 
HETATM    2  C   UNL     1      -3.888   5.202   9.112  1.00  0.00     0.303 C 
HETATM    3  C   UNL     1      -4.413   5.903  10.343  1.00  0.00     0.304 C 
HETATM    4  C   UNL     1      -1.910   4.580  10.246  1.00  0.00     0.303 C 
HETATM    5  C   UNL     1      -2.387   5.264  11.507  1.00  0.00     0.304 C 
HETATM    6  N   UNL     1      -3.853   5.328  11.573  1.00  0.00     0.105 N 
ENDROOT
BRANCH   1   7
HETATM    7  C   UNL     1      -1.909   4.704   7.828  1.00  0.00     0.375 C 
BRANCH   7   8
HETATM    8  C   UNL     1      -0.398   4.793   7.693  1.00  0.00     0.250 C 
HETATM    9  N   UNL     1       0.129   3.798   6.948  1.00  0.00    -0.326 N 
ATOM     10  HN  UNL     1      -0.532   3.111   6.585  1.00  0.00     0.169 HD
HETATM   11  O   UNL     1       0.252   5.718   8.168  1.00  0.00    -0.271 OA
BRANCH   9  12
HETATM   12  C   UNL     1       1.485   3.595   6.611  1.00  0.00     0.034 A 
HETATM   13  C   UNL     1       1.889   3.768   5.292  1.00  0.00     0.031 A 
HETATM   14  C   UNL     1       3.213   3.588   4.939  1.00  0.00     0.027 A 
HETATM   15  C   UNL     1       4.135   3.221   5.906  1.00  0.00     0.079 A 
HETATM   16  C   UNL     1       3.744   3.028   7.220  1.00  0.00     0.027 A 
HETATM   17  C   UNL     1       2.420   3.236   7.573  1.00  0.00     0.031 A 
BRANCH  15  18
HETATM   18  S   UNL     1       5.821   3.021   5.431  1.00  0.00     0.256 S 
HETATM   19  O   UNL     1       6.177   1.674   5.763  1.00  0.00    -0.201 OA
HETATM   20  O   UNL     1       5.902   3.417   4.055  1.00  0.00    -0.201 OA
BRANCH  18  21
HETATM   21  N   UNL     1       6.712   4.021   6.315  1.00  0.00    -0.324 N 
ATOM     22  HN2 UNL     1       7.723   3.958   6.432  1.00  0.00     0.169 HD
ATOM     23  HN1 UNL     1       6.093   4.717   6.729  1.00  0.00     0.169 HD
ENDBRANCH  18  21
ENDBRANCH  15  18
ENDBRANCH   9  12
ENDBRANCH   7   8
ENDBRANCH   1   7
BRANCH   6  24
HETATM   24  C   UNL     1      -4.285   6.109  12.753  1.00  0.00     0.289 C 
BRANCH  24  25
HETATM   25  C   UNL     1      -4.697   5.186  13.894  1.00  0.00    -0.021 A 
HETATM   26  C   UNL     1      -5.897   5.382  14.565  1.00  0.00     0.010 A 
HETATM   27  C   UNL     1      -6.322   4.491  15.535  1.00  0.00     0.001 A 
HETATM   28  C   UNL     1      -5.538   3.402  15.857  1.00  0.00     0.000 A 
HETATM   29  C   UNL     1      -4.331   3.208  15.215  1.00  0.00     0.001 A 
HETATM   30  C   UNL     1      -3.918   4.086  14.227  1.00  0.00     0.010 A 
ENDBRANCH  24  25
BRANCH  24  31
HETATM   31  C   UNL     1      -3.203   7.090  13.185  1.00  0.00    -0.021 A 
HETATM   32  C   UNL     1      -2.798   8.095  12.319  1.00  0.00     0.010 A 
HETATM   33  C   UNL     1      -1.818   9.002  12.692  1.00  0.00     0.001 A 
HETATM   34  C   UNL     1      -1.236   8.914  13.938  1.00  0.00     0.000 A 
HETATM   35  C   UNL     1      -1.621   7.912  14.804  1.00  0.00     0.001 A 
HETATM   36  C   UNL     1      -2.587   6.993  14.427  1.00  0.00     0.010 A 
ENDBRANCH  24  31
ENDBRANCH   6  24
TORSDOF 8
ENDMDL
MODEL 20
REMARK VINA RESULT:    -7.795      6.040     10.948
REMARK INTER + INTRA:         -11.213
REMARK INTER:                 -10.790
REMARK INTRA:                  -0.423
REMARK UNBOUND:                -0.001
REMARK  8 active torsions:
REMARK  status: ('A' for Active; 'I' for Inactive)
REMARK    1  A    between atoms: C_3  and  S_4 
REMARK    2  A    between atoms: S_4  and  N_34 
REMARK    3  A    between atoms: C_9  and  N_10 
REMARK       I    between atoms: N_10  and  C_12 
REMARK    4  A    between atoms: C_12  and  C_14 
REMARK    5  A    between atoms: C_14  and  N_15 
REMARK    6  A    between atoms: N_20  and  C_21 
REMARK    7  A    between atoms: C_21  and  C_28 
REMARK    8  A    between atoms: C_21  and  C_22 
ROOT
HETATM    1  N   UNL     1      -2.871   7.633  12.181  1.00  0.00     0.100 N 
HETATM    2  C   UNL     1      -1.549   7.286  12.703  1.00  0.00     0.303 C 
HETATM    3  C   UNL     1      -1.038   8.382  13.607  1.00  0.00     0.304 C 
HETATM    4  C   UNL     1      -2.728   8.852  11.383  1.00  0.00     0.303 C 
HETATM    5  C   UNL     1      -2.243   9.989  12.254  1.00  0.00     0.304 C 
HETATM    6  N   UNL     1      -0.967   9.671  12.906  1.00  0.00     0.105 N 
ENDROOT
BRANCH   1   7
HETATM    7  C   UNL     1      -3.431   6.535  11.394  1.00  0.00     0.375 C 
BRANCH   7   8
HETATM    8  C   UNL     1      -3.689   5.272  12.198  1.00  0.00     0.250 C 
HETATM    9  N   UNL     1      -4.324   5.505  13.366  1.00  0.00    -0.326 N 
ATOM     10  HN  UNL     1      -4.536   6.481  13.575  1.00  0.00     0.169 HD
HETATM   11  O   UNL     1      -3.399   4.155  11.782  1.00  0.00    -0.271 OA
BRANCH   9  12
HETATM   12  C   UNL     1      -4.729   4.560  14.335  1.00  0.00     0.034 A 
HETATM   13  C   UNL     1      -6.049   4.560  14.770  1.00  0.00     0.031 A 
HETATM   14  C   UNL     1      -6.474   3.638  15.708  1.00  0.00     0.027 A 
HETATM   15  C   UNL     1      -5.572   2.719  16.220  1.00  0.00     0.079 A 
HETATM   16  C   UNL     1      -4.251   2.719  15.809  1.00  0.00     0.027 A 
HETATM   17  C   UNL     1      -3.837   3.629  14.850  1.00  0.00     0.031 A 
BRANCH  15  18
HETATM   18  S   UNL     1      -6.148   1.539  17.397  1.00  0.00     0.256 S 
HETATM   19  O   UNL     1      -5.227   0.442  17.353  1.00  0.00    -0.201 OA
HETATM   20  O   UNL     1      -6.292   2.244  18.637  1.00  0.00    -0.201 OA
BRANCH  18  21
HETATM   21  N   UNL     1      -7.589   1.020  16.921  1.00  0.00    -0.324 N 
ATOM     22  HN2 UNL     1      -7.908   0.052  16.964  1.00  0.00     0.169 HD
ATOM     23  HN1 UNL     1      -8.118   1.820  16.576  1.00  0.00     0.169 HD
ENDBRANCH  18  21
ENDBRANCH  15  18
ENDBRANCH   9  12
ENDBRANCH   7   8
ENDBRANCH   1   7
BRANCH   6  24
HETATM   24  C   UNL     1      -0.582  10.748  13.844  1.00  0.00     0.289 C 
BRANCH  24  25
HETATM   25  C   UNL     1       0.832  10.532  14.370  1.00  0.00    -0.021 A 
HETATM   26  C   UNL     1       1.837  10.067  13.530  1.00  0.00     0.010 A 
HETATM   27  C   UNL     1       3.143   9.962  13.976  1.00  0.00     0.001 A 
HETATM   28  C   UNL     1       3.454  10.304  15.275  1.00  0.00     0.000 A 
HETATM   29  C   UNL     1       2.462  10.744  16.129  1.00  0.00     0.001 A 
HETATM   30  C   UNL     1       1.159  10.873  15.675  1.00  0.00     0.010 A 
ENDBRANCH  24  25
BRANCH  24  31
HETATM   31  C   UNL     1      -0.739  12.119  13.197  1.00  0.00    -0.021 A 
HETATM   32  C   UNL     1      -1.261  13.173  13.933  1.00  0.00     0.010 A 
HETATM   33  C   UNL     1      -1.409  14.429  13.367  1.00  0.00     0.001 A 
HETATM   34  C   UNL     1      -1.031  14.645  12.059  1.00  0.00     0.000 A 
HETATM   35  C   UNL     1      -0.521  13.602  11.313  1.00  0.00     0.001 A 
HETATM   36  C   UNL     1      -0.390  12.340  11.871  1.00  0.00     0.010 A 
ENDBRANCH  24  31
ENDBRANCH   6  24
TORSDOF 8
ENDMDL
