MODEL 1
REMARK VINA RESULT:    -5.794      0.000      0.000
REMARK INTER + INTRA:          -7.314
REMARK INTER:                  -7.149
REMARK INTRA:                  -0.165
REMARK UNBOUND:                -0.165
REMARK  4 active torsions:
REMARK  status: ('A' for Active; 'I' for Inactive)
REMARK    1  A    between atoms: C_1  and  C_4 
REMARK    2  A    between atoms: C_4  and  C_6 
REMARK    3  A    between atoms: C_6  and  C_7 
REMARK    4  A    between atoms: C_7  and  C_8 
ROOT
HETATM    1  C   UNL     1     128.111  82.502  -4.722  1.00  0.00     0.225 C 
HETATM    2  O   UNL     1     127.464  83.451  -4.305  1.00  0.00    -0.286 OA
ENDROOT
BRANCH   1   3
HETATM    3  C   UNL     1     128.615  81.457  -3.835  1.00  0.00     0.246 C 
HETATM    4  O   UNL     1     127.802  80.662  -3.313  1.00  0.00    -0.642 OA
HETATM    5  O   UNL     1     129.836  81.358  -3.607  1.00  0.00    -0.642 OA
ENDBRANCH   1   3
BRANCH   1   6
HETATM    6  C   UNL     1     128.392  82.390  -6.200  1.00  0.00     0.101 C 
BRANCH   6   7
HETATM    7  C   UNL     1     128.875  83.737  -6.696  1.00  0.00     0.121 C 
BRANCH   7   8
HETATM    8  C   UNL     1     130.379  83.753  -6.834  1.00  0.00     0.172 C 
HETATM    9  O   UNL     1     130.893  84.692  -7.480  1.00  0.00    -0.648 OA
HETATM   10  O   UNL     1     131.049  82.818  -6.343  1.00  0.00    -0.648 OA
ENDBRANCH   7   8
ENDBRANCH   6   7
ENDBRANCH   1   6
TORSDOF 4
ENDMDL
MODEL 2
REMARK VINA RESULT:    -5.769      0.051      1.381
REMARK INTER + INTRA:          -7.283
REMARK INTER:                  -7.151
REMARK INTRA:                  -0.132
REMARK UNBOUND:                -0.165
REMARK  4 active torsions:
REMARK  status: ('A' for Active; 'I' for Inactive)
REMARK    1  A    between atoms: C_1  and  C_4 
REMARK    2  A    between atoms: C_4  and  C_6 
REMARK    3  A    between atoms: C_6  and  C_7 
REMARK    4  A    between atoms: C_7  and  C_8 
ROOT
HETATM    1  C   UNL     1     128.115  82.503  -4.707  1.00  0.00     0.225 C 
HETATM    2  O   UNL     1     127.476  83.460  -4.295  1.00  0.00    -0.286 OA
ENDROOT
BRANCH   1   3
HETATM    3  C   UNL     1     128.607  81.457  -3.816  1.00  0.00     0.246 C 
HETATM    4  O   UNL     1     129.835  81.384  -3.587  1.00  0.00    -0.642 OA
HETATM    5  O   UNL     1     127.813  80.653  -3.290  1.00  0.00    -0.642 OA
ENDBRANCH   1   3
BRANCH   1   6
HETATM    6  C   UNL     1     128.396  82.384  -6.185  1.00  0.00     0.101 C 
BRANCH   6   7
HETATM    7  C   UNL     1     128.897  83.724  -6.684  1.00  0.00     0.121 C 
BRANCH   7   8
HETATM    8  C   UNL     1     130.398  83.710  -6.850  1.00  0.00     0.172 C 
HETATM    9  O   UNL     1     131.039  82.814  -6.259  1.00  0.00    -0.648 OA
HETATM   10  O   UNL     1     130.948  84.606  -7.526  1.00  0.00    -0.648 OA
ENDBRANCH   7   8
ENDBRANCH   6   7
ENDBRANCH   1   6
TORSDOF 4
ENDMDL
MODEL 3
REMARK VINA RESULT:    -5.453      1.195      4.414
REMARK INTER + INTRA:          -6.893
REMARK INTER:                  -6.796
REMARK INTRA:                  -0.097
REMARK UNBOUND:                -0.165
REMARK  4 active torsions:
REMARK  status: ('A' for Active; 'I' for Inactive)
REMARK    1  A    between atoms: C_1  and  C_4 
REMARK    2  A    between atoms: C_4  and  C_6 
REMARK    3  A    between atoms: C_6  and  C_7 
REMARK    4  A    between atoms: C_7  and  C_8 
ROOT
HETATM    1  C   UNL     1     129.172  83.317  -6.498  1.00  0.00     0.225 C 
HETATM    2  O   UNL     1     127.962  83.350  -6.668  1.00  0.00    -0.286 OA
ENDROOT
BRANCH   1   3
HETATM    3  C   UNL     1     130.099  84.020  -7.381  1.00  0.00     0.246 C 
HETATM    4  O   UNL     1     131.252  83.561  -7.538  1.00  0.00    -0.642 OA
HETATM    5  O   UNL     1     129.742  85.059  -7.970  1.00  0.00    -0.642 OA
ENDBRANCH   1   3
BRANCH   1   6
HETATM    6  C   UNL     1     129.734  82.540  -5.333  1.00  0.00     0.101 C 
BRANCH   6   7
HETATM    7  C   UNL     1     128.651  82.409  -4.282  1.00  0.00     0.121 C 
BRANCH   7   8
HETATM    8  C   UNL     1     128.628  81.015  -3.702  1.00  0.00     0.172 C 
HETATM    9  O   UNL     1     127.593  80.653  -3.102  1.00  0.00    -0.648 OA
HETATM   10  O   UNL     1     129.645  80.294  -3.800  1.00  0.00    -0.648 OA
ENDBRANCH   7   8
ENDBRANCH   6   7
ENDBRANCH   1   6
TORSDOF 4
ENDMDL
MODEL 4
REMARK VINA RESULT:    -5.430      0.949      1.805
REMARK INTER + INTRA:          -6.865
REMARK INTER:                  -6.680
REMARK INTRA:                  -0.185
REMARK UNBOUND:                -0.165
REMARK  4 active torsions:
REMARK  status: ('A' for Active; 'I' for Inactive)
REMARK    1  A    between atoms: C_1  and  C_4 
REMARK    2  A    between atoms: C_4  and  C_6 
REMARK    3  A    between atoms: C_6  and  C_7 
REMARK    4  A    between atoms: C_7  and  C_8 
ROOT
HETATM    1  C   UNL     1     129.331  82.250  -4.460  1.00  0.00     0.225 C 
HETATM    2  O   UNL     1     130.443  82.466  -4.002  1.00  0.00    -0.286 OA
ENDROOT
BRANCH   1   3
HETATM    3  C   UNL     1     128.165  82.050  -3.604  1.00  0.00     0.246 C 
HETATM    4  O   UNL     1     127.823  80.884  -3.308  1.00  0.00    -0.642 OA
HETATM    5  O   UNL     1     127.525  83.029  -3.174  1.00  0.00    -0.642 OA
ENDBRANCH   1   3
BRANCH   1   6
HETATM    6  C   UNL     1     129.145  82.199  -5.957  1.00  0.00     0.101 C 
BRANCH   6   7
HETATM    7  C   UNL     1     128.935  83.613  -6.458  1.00  0.00     0.121 C 
BRANCH   7   8
HETATM    8  C   UNL     1     130.095  84.059  -7.316  1.00  0.00     0.172 C 
HETATM    9  O   UNL     1     131.148  83.386  -7.264  1.00  0.00    -0.648 OA
HETATM   10  O   UNL     1     129.983  85.095  -8.007  1.00  0.00    -0.648 OA
ENDBRANCH   7   8
ENDBRANCH   6   7
ENDBRANCH   1   6
TORSDOF 4
ENDMDL
MODEL 5
REMARK VINA RESULT:    -5.332     13.182     13.859
REMARK INTER + INTRA:          -6.744
REMARK INTER:                  -6.469
REMARK INTRA:                  -0.275
REMARK UNBOUND:                -0.165
REMARK  4 active torsions:
REMARK  status: ('A' for Active; 'I' for Inactive)
REMARK    1  A    between atoms: C_1  and  C_4 
REMARK    2  A    between atoms: C_4  and  C_6 
REMARK    3  A    between atoms: C_6  and  C_7 
REMARK    4  A    between atoms: C_7  and  C_8 
ROOT
HETATM    1  C   UNL     1     121.157  74.330 -14.149  1.00  0.00     0.225 C 
HETATM    2  O   UNL     1     120.615  73.854 -15.136  1.00  0.00    -0.286 OA
ENDROOT
BRANCH   1   3
HETATM    3  C   UNL     1     120.567  74.233 -12.818  1.00  0.00     0.246 C 
HETATM    4  O   UNL     1     120.625  75.224 -12.056  1.00  0.00    -0.642 OA
HETATM    5  O   UNL     1     120.010  73.180 -12.450  1.00  0.00    -0.642 OA
ENDBRANCH   1   3
BRANCH   1   6
HETATM    6  C   UNL     1     122.487  75.028 -14.301  1.00  0.00     0.101 C 
BRANCH   6   7
HETATM    7  C   UNL     1     122.329  76.134 -15.323  1.00  0.00     0.121 C 
BRANCH   7   8
HETATM    8  C   UNL     1     121.812  77.397 -14.676  1.00  0.00     0.172 C 
HETATM    9  O   UNL     1     120.986  78.082 -15.317  1.00  0.00    -0.648 OA
HETATM   10  O   UNL     1     122.253  77.736 -13.555  1.00  0.00    -0.648 OA
ENDBRANCH   7   8
ENDBRANCH   6   7
ENDBRANCH   1   6
TORSDOF 4
ENDMDL
MODEL 6
REMARK VINA RESULT:    -5.291      1.059      4.458
REMARK INTER + INTRA:          -6.694
REMARK INTER:                  -6.507
REMARK INTRA:                  -0.186
REMARK UNBOUND:                -0.165
REMARK  4 active torsions:
REMARK  status: ('A' for Active; 'I' for Inactive)
REMARK    1  A    between atoms: C_1  and  C_4 
REMARK    2  A    between atoms: C_4  and  C_6 
REMARK    3  A    between atoms: C_6  and  C_7 
REMARK    4  A    between atoms: C_7  and  C_8 
ROOT
HETATM    1  C   UNL     1     130.054  83.337  -6.513  1.00  0.00     0.225 C 
HETATM    2  O   UNL     1     130.944  82.826  -5.849  1.00  0.00    -0.286 OA
ENDROOT
BRANCH   1   3
HETATM    3  C   UNL     1     130.288  84.505  -7.357  1.00  0.00     0.246 C 
HETATM    4  O   UNL     1     131.336  85.169  -7.196  1.00  0.00    -0.642 OA
HETATM    5  O   UNL     1     129.457  84.830  -8.227  1.00  0.00    -0.642 OA
ENDBRANCH   1   3
BRANCH   1   6
HETATM    6  C   UNL     1     128.668  82.739  -6.477  1.00  0.00     0.101 C 
BRANCH   6   7
HETATM    7  C   UNL     1     127.893  83.402  -5.357  1.00  0.00     0.121 C 
BRANCH   7   8
HETATM    8  C   UNL     1     127.907  82.548  -4.112  1.00  0.00     0.172 C 
HETATM    9  O   UNL     1     128.157  81.330  -4.246  1.00  0.00    -0.648 OA
HETATM   10  O   UNL     1     127.631  83.068  -3.009  1.00  0.00    -0.648 OA
ENDBRANCH   7   8
ENDBRANCH   6   7
ENDBRANCH   1   6
TORSDOF 4
ENDMDL
MODEL 7
REMARK VINA RESULT:    -5.197     13.156     14.243
REMARK INTER + INTRA:          -6.578
REMARK INTER:                  -6.340
REMARK INTRA:                  -0.237
REMARK UNBOUND:                -0.165
REMARK  4 active torsions:
REMARK  status: ('A' for Active; 'I' for Inactive)
REMARK    1  A    between atoms: C_1  and  C_4 
REMARK    2  A    between atoms: C_4  and  C_6 
REMARK    3  A    between atoms: C_6  and  C_7 
REMARK    4  A    between atoms: C_7  and  C_8 
ROOT
HETATM    1  C   UNL     1     122.366  76.064 -15.245  1.00  0.00     0.225 C 
HETATM    2  O   UNL     1     122.707  75.895 -16.407  1.00  0.00    -0.286 OA
ENDROOT
BRANCH   1   3
HETATM    3  C   UNL     1     121.871  77.348 -14.760  1.00  0.00     0.246 C 
HETATM    4  O   UNL     1     121.152  78.044 -15.511  1.00  0.00    -0.642 OA
HETATM    5  O   UNL     1     122.157  77.741 -13.612  1.00  0.00    -0.642 OA
ENDBRANCH   1   3
BRANCH   1   6
HETATM    6  C   UNL     1     122.444  74.908 -14.277  1.00  0.00     0.101 C 
BRANCH   6   7
HETATM    7  C   UNL     1     121.087  74.238 -14.226  1.00  0.00     0.121 C 
BRANCH   7   8
HETATM    8  C   UNL     1     120.563  74.190 -12.811  1.00  0.00     0.172 C 
HETATM    9  O   UNL     1     120.055  73.118 -12.416  1.00  0.00    -0.648 OA
HETATM   10  O   UNL     1     120.611  75.221 -12.105  1.00  0.00    -0.648 OA
ENDBRANCH   7   8
ENDBRANCH   6   7
ENDBRANCH   1   6
TORSDOF 4
ENDMDL
MODEL 8
REMARK VINA RESULT:    -5.045     13.091     13.719
REMARK INTER + INTRA:          -6.390
REMARK INTER:                  -6.239
REMARK INTRA:                  -0.152
REMARK UNBOUND:                -0.165
REMARK  4 active torsions:
REMARK  status: ('A' for Active; 'I' for Inactive)
REMARK    1  A    between atoms: C_1  and  C_4 
REMARK    2  A    between atoms: C_4  and  C_6 
REMARK    3  A    between atoms: C_6  and  C_7 
REMARK    4  A    between atoms: C_7  and  C_8 
ROOT
HETATM    1  C   UNL     1     120.938  74.237 -12.883  1.00  0.00     0.225 C 
HETATM    2  O   UNL     1     120.486  75.059 -12.099  1.00  0.00    -0.286 OA
ENDROOT
BRANCH   1   3
HETATM    3  C   UNL     1     121.165  72.846 -12.504  1.00  0.00     0.246 C 
HETATM    4  O   UNL     1     120.268  72.234 -11.881  1.00  0.00    -0.642 OA
HETATM    5  O   UNL     1     122.233  72.278 -12.801  1.00  0.00    -0.642 OA
ENDBRANCH   1   3
BRANCH   1   6
HETATM    6  C   UNL     1     121.262  74.663 -14.294  1.00  0.00     0.101 C 
BRANCH   6   7
HETATM    7  C   UNL     1     122.444  75.608 -14.246  1.00  0.00     0.121 C 
BRANCH   7   8
HETATM    8  C   UNL     1     122.014  77.026 -14.539  1.00  0.00     0.172 C 
HETATM    9  O   UNL     1     121.607  77.718 -13.580  1.00  0.00    -0.648 OA
HETATM   10  O   UNL     1     122.036  77.442 -15.718  1.00  0.00    -0.648 OA
ENDBRANCH   7   8
ENDBRANCH   6   7
ENDBRANCH   1   6
TORSDOF 4
ENDMDL
MODEL 9
REMARK VINA RESULT:    -4.877      2.062      3.586
REMARK INTER + INTRA:          -6.183
REMARK INTER:                  -5.985
REMARK INTRA:                  -0.198
REMARK UNBOUND:                -0.165
REMARK  4 active torsions:
REMARK  status: ('A' for Active; 'I' for Inactive)
REMARK    1  A    between atoms: C_1  and  C_4 
REMARK    2  A    between atoms: C_4  and  C_6 
REMARK    3  A    between atoms: C_6  and  C_7 
REMARK    4  A    between atoms: C_7  and  C_8 
ROOT
HETATM    1  C   UNL     1     128.517  82.635  -4.585  1.00  0.00     0.225 C 
HETATM    2  O   UNL     1     127.541  83.240  -4.166  1.00  0.00    -0.286 OA
ENDROOT
BRANCH   1   3
HETATM    3  C   UNL     1     128.922  82.691  -5.986  1.00  0.00     0.246 C 
HETATM    4  O   UNL     1     128.042  82.803  -6.868  1.00  0.00    -0.642 OA
HETATM    5  O   UNL     1     130.128  82.634  -6.296  1.00  0.00    -0.642 OA
ENDBRANCH   1   3
BRANCH   1   6
HETATM    6  C   UNL     1     129.344  81.813  -3.627  1.00  0.00     0.101 C 
BRANCH   6   7
HETATM    7  C   UNL     1     130.125  82.759  -2.739  1.00  0.00     0.121 C 
BRANCH   7   8
HETATM    8  C   UNL     1     131.601  82.443  -2.782  1.00  0.00     0.172 C 
HETATM    9  O   UNL     1     132.075  81.755  -1.852  1.00  0.00    -0.648 OA
HETATM   10  O   UNL     1     132.301  82.910  -3.707  1.00  0.00    -0.648 OA
ENDBRANCH   7   8
ENDBRANCH   6   7
ENDBRANCH   1   6
TORSDOF 4
ENDMDL
MODEL 10
REMARK VINA RESULT:    -4.866     13.583     14.725
REMARK INTER + INTRA:          -6.169
REMARK INTER:                  -5.936
REMARK INTRA:                  -0.233
REMARK UNBOUND:                -0.165
REMARK  4 active torsions:
REMARK  status: ('A' for Active; 'I' for Inactive)
REMARK    1  A    between atoms: C_1  and  C_4 
REMARK    2  A    between atoms: C_4  and  C_6 
REMARK    3  A    between atoms: C_6  and  C_7 
REMARK    4  A    between atoms: C_7  and  C_8 
ROOT
HETATM    1  C   UNL     1     120.818  74.798 -13.159  1.00  0.00     0.225 C 
HETATM    2  O   UNL     1     120.759  75.279 -12.037  1.00  0.00    -0.286 OA
ENDROOT
BRANCH   1   3
HETATM    3  C   UNL     1     121.767  75.277 -14.160  1.00  0.00     0.246 C 
HETATM    4  O   UNL     1     122.974  74.965 -14.049  1.00  0.00    -0.642 OA
HETATM    5  O   UNL     1     121.378  75.981 -15.111  1.00  0.00    -0.642 OA
ENDBRANCH   1   3
BRANCH   1   6
HETATM    6  C   UNL     1     119.894  73.662 -13.526  1.00  0.00     0.101 C 
BRANCH   6   7
HETATM    7  C   UNL     1     120.713  72.391 -13.613  1.00  0.00     0.121 C 
BRANCH   7   8
HETATM    8  C   UNL     1     121.205  71.973 -12.248  1.00  0.00     0.172 C 
HETATM    9  O   UNL     1     122.428  71.750 -12.115  1.00  0.00    -0.648 OA
HETATM   10  O   UNL     1     120.382  71.822 -11.319  1.00  0.00    -0.648 OA
ENDBRANCH   7   8
ENDBRANCH   6   7
ENDBRANCH   1   6
TORSDOF 4
ENDMDL
MODEL 11
REMARK VINA RESULT:    -4.852      1.430      2.112
REMARK INTER + INTRA:          -6.152
REMARK INTER:                  -6.059
REMARK INTRA:                  -0.093
REMARK UNBOUND:                -0.165
REMARK  4 active torsions:
REMARK  status: ('A' for Active; 'I' for Inactive)
REMARK    1  A    between atoms: C_1  and  C_4 
REMARK    2  A    between atoms: C_4  and  C_6 
REMARK    3  A    between atoms: C_6  and  C_7 
REMARK    4  A    between atoms: C_7  and  C_8 
ROOT
HETATM    1  C   UNL     1     128.718  81.558  -3.517  1.00  0.00     0.225 C 
HETATM    2  O   UNL     1     127.844  80.703  -3.515  1.00  0.00    -0.286 OA
ENDROOT
BRANCH   1   3
HETATM    3  C   UNL     1     130.094  81.262  -3.130  1.00  0.00     0.246 C 
HETATM    4  O   UNL     1     130.930  82.193  -3.104  1.00  0.00    -0.642 OA
HETATM    5  O   UNL     1     130.427  80.100  -2.827  1.00  0.00    -0.642 OA
ENDBRANCH   1   3
BRANCH   1   6
HETATM    6  C   UNL     1     128.375  82.964  -3.945  1.00  0.00     0.101 C 
BRANCH   6   7
HETATM    7  C   UNL     1     127.938  82.927  -5.394  1.00  0.00     0.121 C 
BRANCH   7   8
HETATM    8  C   UNL     1     129.126  83.047  -6.319  1.00  0.00     0.172 C 
HETATM    9  O   UNL     1     129.255  84.111  -6.962  1.00  0.00    -0.648 OA
HETATM   10  O   UNL     1     129.906  82.078  -6.444  1.00  0.00    -0.648 OA
ENDBRANCH   7   8
ENDBRANCH   6   7
ENDBRANCH   1   6
TORSDOF 4
ENDMDL
MODEL 12
REMARK VINA RESULT:    -4.677     13.540     14.162
REMARK INTER + INTRA:          -5.936
REMARK INTER:                  -5.842
REMARK INTRA:                  -0.094
REMARK UNBOUND:                -0.165
REMARK  4 active torsions:
REMARK  status: ('A' for Active; 'I' for Inactive)
REMARK    1  A    between atoms: C_1  and  C_4 
REMARK    2  A    between atoms: C_4  and  C_6 
REMARK    3  A    between atoms: C_6  and  C_7 
REMARK    4  A    between atoms: C_7  and  C_8 
ROOT
HETATM    1  C   UNL     1     121.574  74.126 -13.910  1.00  0.00     0.225 C 
HETATM    2  O   UNL     1     122.549  73.399 -13.791  1.00  0.00    -0.286 OA
ENDROOT
BRANCH   1   3
HETATM    3  C   UNL     1     120.583  74.274 -12.848  1.00  0.00     0.246 C 
HETATM    4  O   UNL     1     119.635  73.458 -12.786  1.00  0.00    -0.642 OA
HETATM    5  O   UNL     1     120.683  75.196 -12.016  1.00  0.00    -0.642 OA
ENDBRANCH   1   3
BRANCH   1   6
HETATM    6  C   UNL     1     121.388  74.911 -15.185  1.00  0.00     0.101 C 
BRANCH   6   7
HETATM    7  C   UNL     1     122.310  76.112 -15.143  1.00  0.00     0.121 C 
BRANCH   7   8
HETATM    8  C   UNL     1     121.794  77.219 -16.031  1.00  0.00     0.172 C 
HETATM    9  O   UNL     1     121.017  78.057 -15.523  1.00  0.00    -0.648 OA
HETATM   10  O   UNL     1     122.119  77.238 -17.238  1.00  0.00    -0.648 OA
ENDBRANCH   7   8
ENDBRANCH   6   7
ENDBRANCH   1   6
TORSDOF 4
ENDMDL
MODEL 13
REMARK VINA RESULT:    -4.632     13.660     14.770
REMARK INTER + INTRA:          -5.880
REMARK INTER:                  -5.752
REMARK INTRA:                  -0.128
REMARK UNBOUND:                -0.165
REMARK  4 active torsions:
REMARK  status: ('A' for Active; 'I' for Inactive)
REMARK    1  A    between atoms: C_1  and  C_4 
REMARK    2  A    between atoms: C_4  and  C_6 
REMARK    3  A    between atoms: C_6  and  C_7 
REMARK    4  A    between atoms: C_7  and  C_8 
ROOT
HETATM    1  C   UNL     1     121.514  73.897 -13.462  1.00  0.00     0.225 C 
HETATM    2  O   UNL     1     122.608  73.948 -14.004  1.00  0.00    -0.286 OA
ENDROOT
BRANCH   1   3
HETATM    3  C   UNL     1     120.830  75.094 -12.980  1.00  0.00     0.246 C 
HETATM    4  O   UNL     1     119.800  74.963 -12.282  1.00  0.00    -0.642 OA
HETATM    5  O   UNL     1     121.270  76.226 -13.258  1.00  0.00    -0.642 OA
ENDBRANCH   1   3
BRANCH   1   6
HETATM    6  C   UNL     1     120.834  72.560 -13.294  1.00  0.00     0.101 C 
BRANCH   6   7
HETATM    7  C   UNL     1     121.292  71.955 -11.984  1.00  0.00     0.121 C 
BRANCH   7   8
HETATM    8  C   UNL     1     122.430  70.988 -12.205  1.00  0.00     0.172 C 
HETATM    9  O   UNL     1     122.156  69.869 -12.692  1.00  0.00    -0.648 OA
HETATM   10  O   UNL     1     123.588  71.314 -11.860  1.00  0.00    -0.648 OA
ENDBRANCH   7   8
ENDBRANCH   6   7
ENDBRANCH   1   6
TORSDOF 4
ENDMDL
MODEL 14
REMARK VINA RESULT:    -4.497      1.835      3.848
REMARK INTER + INTRA:          -5.714
REMARK INTER:                  -5.554
REMARK INTRA:                  -0.159
REMARK UNBOUND:                -0.165
REMARK  4 active torsions:
REMARK  status: ('A' for Active; 'I' for Inactive)
REMARK    1  A    between atoms: C_1  and  C_4 
REMARK    2  A    between atoms: C_4  and  C_6 
REMARK    3  A    between atoms: C_6  and  C_7 
REMARK    4  A    between atoms: C_7  and  C_8 
ROOT
HETATM    1  C   UNL     1     129.091  82.402  -5.489  1.00  0.00     0.225 C 
HETATM    2  O   UNL     1     130.174  82.515  -6.044  1.00  0.00    -0.286 OA
ENDROOT
BRANCH   1   3
HETATM    3  C   UNL     1     127.879  83.020  -6.019  1.00  0.00     0.246 C 
HETATM    4  O   UNL     1     127.362  82.549  -7.056  1.00  0.00    -0.642 OA
HETATM    5  O   UNL     1     127.367  84.000  -5.442  1.00  0.00    -0.642 OA
ENDBRANCH   1   3
BRANCH   1   6
HETATM    6  C   UNL     1     128.991  81.588  -4.222  1.00  0.00     0.101 C 
BRANCH   6   7
HETATM    7  C   UNL     1     129.671  82.356  -3.108  1.00  0.00     0.121 C 
BRANCH   7   8
HETATM    8  C   UNL     1     130.947  81.670  -2.681  1.00  0.00     0.172 C 
HETATM    9  O   UNL     1     131.983  82.366  -2.604  1.00  0.00    -0.648 OA
HETATM   10  O   UNL     1     130.938  80.439  -2.464  1.00  0.00    -0.648 OA
ENDBRANCH   7   8
ENDBRANCH   6   7
ENDBRANCH   1   6
TORSDOF 4
ENDMDL
MODEL 15
REMARK VINA RESULT:    -4.462     13.617     14.173
REMARK INTER + INTRA:          -5.670
REMARK INTER:                  -5.566
REMARK INTRA:                  -0.104
REMARK UNBOUND:                -0.165
REMARK  4 active torsions:
REMARK  status: ('A' for Active; 'I' for Inactive)
REMARK    1  A    between atoms: C_1  and  C_4 
REMARK    2  A    between atoms: C_4  and  C_6 
REMARK    3  A    between atoms: C_6  and  C_7 
REMARK    4  A    between atoms: C_7  and  C_8 
ROOT
HETATM    1  C   UNL     1     121.277  74.990 -13.234  1.00  0.00     0.225 C 
HETATM    2  O   UNL     1     121.064  76.166 -12.979  1.00  0.00    -0.286 OA
ENDROOT
BRANCH   1   3
HETATM    3  C   UNL     1     120.542  73.910 -12.583  1.00  0.00     0.246 C 
HETATM    4  O   UNL     1     119.296  73.989 -12.497  1.00  0.00    -0.642 OA
HETATM    5  O   UNL     1     121.149  72.922 -12.124  1.00  0.00    -0.642 OA
ENDBRANCH   1   3
BRANCH   1   6
HETATM    6  C   UNL     1     122.321  74.634 -14.264  1.00  0.00     0.101 C 
BRANCH   6   7
HETATM    7  C   UNL     1     122.708  75.897 -15.005  1.00  0.00     0.121 C 
BRANCH   7   8
HETATM    8  C   UNL     1     122.430  75.762 -16.483  1.00  0.00     0.172 C 
HETATM    9  O   UNL     1     122.549  74.628 -16.995  1.00  0.00    -0.648 OA
HETATM   10  O   UNL     1     122.136  76.781 -17.146  1.00  0.00    -0.648 OA
ENDBRANCH   7   8
ENDBRANCH   6   7
ENDBRANCH   1   6
TORSDOF 4
ENDMDL
MODEL 16
REMARK VINA RESULT:    -4.377     13.254     14.094
REMARK INTER + INTRA:          -5.566
REMARK INTER:                  -5.403
REMARK INTRA:                  -0.163
REMARK UNBOUND:                -0.165
REMARK  4 active torsions:
REMARK  status: ('A' for Active; 'I' for Inactive)
REMARK    1  A    between atoms: C_1  and  C_4 
REMARK    2  A    between atoms: C_4  and  C_6 
REMARK    3  A    between atoms: C_6  and  C_7 
REMARK    4  A    between atoms: C_7  and  C_8 
ROOT
HETATM    1  C   UNL     1     121.541  77.401 -15.796  1.00  0.00     0.225 C 
HETATM    2  O   UNL     1     121.829  78.183 -16.691  1.00  0.00    -0.286 OA
ENDROOT
BRANCH   1   3
HETATM    3  C   UNL     1     121.369  77.834 -14.413  1.00  0.00     0.246 C 
HETATM    4  O   UNL     1     122.302  77.649 -13.599  1.00  0.00    -0.642 OA
HETATM    5  O   UNL     1     120.311  78.383 -14.051  1.00  0.00    -0.642 OA
ENDBRANCH   1   3
BRANCH   1   6
HETATM    6  C   UNL     1     121.342  75.942 -16.126  1.00  0.00     0.101 C 
BRANCH   6   7
HETATM    7  C   UNL     1     122.627  75.204 -15.814  1.00  0.00     0.121 C 
BRANCH   7   8
HETATM    8  C   UNL     1     122.437  74.259 -14.651  1.00  0.00     0.172 C 
HETATM    9  O   UNL     1     121.346  74.301 -14.041  1.00  0.00    -0.648 OA
HETATM   10  O   UNL     1     123.377  73.508 -14.312  1.00  0.00    -0.648 OA
ENDBRANCH   7   8
ENDBRANCH   6   7
ENDBRANCH   1   6
TORSDOF 4
ENDMDL
MODEL 17
REMARK VINA RESULT:    -4.286     13.861     14.782
REMARK INTER + INTRA:          -5.454
REMARK INTER:                  -5.194
REMARK INTRA:                  -0.260
REMARK UNBOUND:                -0.165
REMARK  4 active torsions:
REMARK  status: ('A' for Active; 'I' for Inactive)
REMARK    1  A    between atoms: C_1  and  C_4 
REMARK    2  A    between atoms: C_4  and  C_6 
REMARK    3  A    between atoms: C_6  and  C_7 
REMARK    4  A    between atoms: C_7  and  C_8 
ROOT
HETATM    1  C   UNL     1     121.723  71.989 -14.056  1.00  0.00     0.225 C 
HETATM    2  O   UNL     1     122.241  71.281 -14.907  1.00  0.00    -0.286 OA
ENDROOT
BRANCH   1   3
HETATM    3  C   UNL     1     121.797  71.672 -12.633  1.00  0.00     0.246 C 
HETATM    4  O   UNL     1     120.735  71.536 -11.986  1.00  0.00    -0.642 OA
HETATM    5  O   UNL     1     122.903  71.536 -12.075  1.00  0.00    -0.642 OA
ENDBRANCH   1   3
BRANCH   1   6
HETATM    6  C   UNL     1     120.993  73.240 -14.480  1.00  0.00     0.101 C 
BRANCH   6   7
HETATM    7  C   UNL     1     121.828  74.438 -14.078  1.00  0.00     0.121 C 
BRANCH   7   8
HETATM    8  C   UNL     1     121.038  75.375 -13.196  1.00  0.00     0.172 C 
HETATM    9  O   UNL     1     120.196  74.871 -12.421  1.00  0.00    -0.648 OA
HETATM   10  O   UNL     1     121.217  76.608 -13.297  1.00  0.00    -0.648 OA
ENDBRANCH   7   8
ENDBRANCH   6   7
ENDBRANCH   1   6
TORSDOF 4
ENDMDL
MODEL 18
REMARK VINA RESULT:    -4.058     13.889     14.652
REMARK INTER + INTRA:          -5.172
REMARK INTER:                  -5.156
REMARK INTRA:                  -0.016
REMARK UNBOUND:                -0.165
REMARK  4 active torsions:
REMARK  status: ('A' for Active; 'I' for Inactive)
REMARK    1  A    between atoms: C_1  and  C_4 
REMARK    2  A    between atoms: C_4  and  C_6 
REMARK    3  A    between atoms: C_6  and  C_7 
REMARK    4  A    between atoms: C_7  and  C_8 
ROOT
HETATM    1  C   UNL     1     121.744  74.251 -13.942  1.00  0.00     0.225 C 
HETATM    2  O   UNL     1     122.684  75.032 -13.969  1.00  0.00    -0.286 OA
ENDROOT
BRANCH   1   3
HETATM    3  C   UNL     1     120.739  74.282 -12.884  1.00  0.00     0.246 C 
HETATM    4  O   UNL     1     119.963  73.309 -12.756  1.00  0.00    -0.642 OA
HETATM    5  O   UNL     1     120.661  75.262 -12.118  1.00  0.00    -0.642 OA
ENDBRANCH   1   3
BRANCH   1   6
HETATM    6  C   UNL     1     121.603  73.227 -15.042  1.00  0.00     0.101 C 
BRANCH   6   7
HETATM    7  C   UNL     1     122.325  71.967 -14.615  1.00  0.00     0.121 C 
BRANCH   7   8
HETATM    8  C   UNL     1     123.821  72.137 -14.733  1.00  0.00     0.172 C 
HETATM    9  O   UNL     1     124.290  72.386 -15.865  1.00  0.00    -0.648 OA
HETATM   10  O   UNL     1     124.537  71.984 -13.719  1.00  0.00    -0.648 OA
ENDBRANCH   7   8
ENDBRANCH   6   7
ENDBRANCH   1   6
TORSDOF 4
ENDMDL
MODEL 19
REMARK VINA RESULT:    -4.012     14.296     15.347
REMARK INTER + INTRA:          -5.116
REMARK INTER:                  -4.893
REMARK INTRA:                  -0.223
REMARK UNBOUND:                -0.165
REMARK  4 active torsions:
REMARK  status: ('A' for Active; 'I' for Inactive)
REMARK    1  A    between atoms: C_1  and  C_4 
REMARK    2  A    between atoms: C_4  and  C_6 
REMARK    3  A    between atoms: C_6  and  C_7 
REMARK    4  A    between atoms: C_7  and  C_8 
ROOT
HETATM    1  C   UNL     1     122.885  72.946 -14.624  1.00  0.00     0.225 C 
HETATM    2  O   UNL     1     123.338  72.272 -13.710  1.00  0.00    -0.286 OA
ENDROOT
BRANCH   1   3
HETATM    3  C   UNL     1     122.710  72.411 -15.971  1.00  0.00     0.246 C 
HETATM    4  O   UNL     1     123.083  73.097 -16.948  1.00  0.00    -0.642 OA
HETATM    5  O   UNL     1     122.201  71.287 -16.141  1.00  0.00    -0.642 OA
ENDBRANCH   1   3
BRANCH   1   6
HETATM    6  C   UNL     1     122.476  74.374 -14.355  1.00  0.00     0.101 C 
BRANCH   6   7
HETATM    7  C   UNL     1     120.965  74.429 -14.272  1.00  0.00     0.121 C 
BRANCH   7   8
HETATM    8  C   UNL     1     120.499  74.293 -12.842  1.00  0.00     0.172 C 
HETATM    9  O   UNL     1     120.703  75.255 -12.070  1.00  0.00    -0.648 OA
HETATM   10  O   UNL     1     119.972  73.222 -12.469  1.00  0.00    -0.648 OA
ENDBRANCH   7   8
ENDBRANCH   6   7
ENDBRANCH   1   6
TORSDOF 4
ENDMDL
MODEL 20
REMARK VINA RESULT:    -4.011     13.962     14.950
REMARK INTER + INTRA:          -5.114
REMARK INTER:                  -4.948
REMARK INTRA:                  -0.166
REMARK UNBOUND:                -0.165
REMARK  4 active torsions:
REMARK  status: ('A' for Active; 'I' for Inactive)
REMARK    1  A    between atoms: C_1  and  C_4 
REMARK    2  A    between atoms: C_4  and  C_6 
REMARK    3  A    between atoms: C_6  and  C_7 
REMARK    4  A    between atoms: C_7  and  C_8 
ROOT
HETATM    1  C   UNL     1     121.683  76.014 -15.251  1.00  0.00     0.225 C 
HETATM    2  O   UNL     1     121.427  76.675 -16.247  1.00  0.00    -0.286 OA
ENDROOT
BRANCH   1   3
HETATM    3  C   UNL     1     121.734  76.606 -13.918  1.00  0.00     0.246 C 
HETATM    4  O   UNL     1     122.428  77.631 -13.736  1.00  0.00    -0.642 OA
HETATM    5  O   UNL     1     121.092  76.098 -12.978  1.00  0.00    -0.642 OA
ENDBRANCH   1   3
BRANCH   1   6
HETATM    6  C   UNL     1     121.941  74.534 -15.394  1.00  0.00     0.101 C 
BRANCH   6   7
HETATM    7  C   UNL     1     120.612  73.837 -15.604  1.00  0.00     0.121 C 
BRANCH   7   8
HETATM    8  C   UNL     1     120.311  72.896 -14.462  1.00  0.00     0.172 C 
HETATM    9  O   UNL     1     120.689  71.709 -14.573  1.00  0.00    -0.648 OA
HETATM   10  O   UNL     1     119.666  73.314 -13.476  1.00  0.00    -0.648 OA
ENDBRANCH   7   8
ENDBRANCH   6   7
ENDBRANCH   1   6
TORSDOF 4
ENDMDL
