REMARK  3 active torsions:
REMARK  status: ('A' for Active; 'I' for Inactive)
REMARK    1  A    between atoms: N_4  and  C_12 
REMARK    2  A    between atoms: N_4  and  C_11 
REMARK    3  A    between atoms: C_7  and  C_9 
ROOT
HETATM    1  N   UNL     1      20.980  10.406  -0.011  1.00  0.00    -0.355 N 
ATOM      2  HN  UNL     1      20.862  11.065  -0.781  1.00  0.00     0.166 HD
ENDROOT
BRANCH   1   3
HETATM    3  C   UNL     1      20.040   9.330  -0.009  1.00  0.00     0.035 A 
HETATM    4  C   UNL     1      19.953   8.586  -1.170  1.00  0.00     0.053 A 
HETATM    5  C   UNL     1      19.043   7.584  -1.225  1.00  0.00     0.037 A 
HETATM    6 CL   UNL     1      18.949   6.640  -2.698  1.00  0.00    -0.084 Cl
HETATM    7  C   UNL     1      18.211   7.273  -0.156  1.00  0.00     0.048 A 
HETATM    8  C   UNL     1      18.316   8.031   0.994  1.00  0.00     0.037 A 
HETATM    9 CL   UNL     1      17.233   7.605   2.328  1.00  0.00    -0.084 Cl
HETATM   10  C   UNL     1      19.188   9.081   1.080  1.00  0.00     0.053 A 
ENDBRANCH   1   3
BRANCH   1  11
HETATM   11  C   UNL     1      22.089  10.733   0.900  1.00  0.00     0.049 A 
HETATM   12  C   UNL     1      22.067   9.988   2.052  1.00  0.00     0.030 A 
HETATM   13  C   UNL     1      23.034  10.166   3.040  1.00  0.00     0.002 A 
HETATM   14  C   UNL     1      24.040  11.099   2.905  1.00  0.00     0.001 A 
HETATM   15  C   UNL     1      24.055  11.854   1.754  1.00  0.00     0.021 A 
HETATM   16  C   UNL     1      23.086  11.664   0.776  1.00  0.00     0.067 A 
BRANCH  16  17
HETATM   17  C   UNL     1      23.105  12.471  -0.500  1.00  0.00     0.211 C 
HETATM   18  O   UNL     1      22.197  12.321  -1.372  1.00  0.00    -0.644 OA
HETATM   19  O   UNL     1      24.055  13.262  -0.682  1.00  0.00    -0.644 OA
ENDBRANCH  16  17
ENDBRANCH   1  11
TORSDOF 3
