REMARK  9 active torsions:
REMARK  status: ('A' for Active; 'I' for Inactive)
REMARK    1  A    between atoms: N_1  and  C_14 
REMARK    2  A    between atoms: N_2  and  C_3 
REMARK    3  A    between atoms: N_2  and  C_4 
REMARK    4  A    between atoms: C_4  and  C_5 
REMARK    5  A    between atoms: C_11  and  C_30 
REMARK    6  A    between atoms: C_14  and  C_15 
REMARK    7  A    between atoms: C_15  and  S_16 
REMARK    8  A    between atoms: S_16  and  C_17 
REMARK    9  A    between atoms: C_20  and  N_21 
ROOT
HETATM    1  C   UNL     1      -1.597  -0.591   2.006  1.00  0.00     0.134 A 
HETATM    2  C   UNL     1      -1.007   0.667   2.084  1.00  0.00     0.120 A 
HETATM    3  C   UNL     1      -1.073   1.513   1.029  1.00  0.00     0.091 A 
HETATM    4  C   UNL     1      -2.270  -0.047  -0.219  1.00  0.00     0.146 A 
HETATM    5  N   UNL     1      -2.228  -0.916   0.841  1.00  0.00    -0.321 N 
ATOM      6  HN  UNL     1      -2.679  -1.827   0.756  1.00  0.00     0.169 HD
HETATM    7  N   UNL     1      -0.329   1.254   3.084  1.00  0.00    -0.295 N 
HETATM    8  N   UNL     1       0.044   2.467   2.681  1.00  0.00    -0.302 N 
ATOM      9  HN  UNL     1       0.570   3.145   3.233  1.00  0.00     0.186 HD
HETATM   10  C   UNL     1      -0.396   2.647   1.408  1.00  0.00     0.059 A 
HETATM   11  N   UNL     1      -1.685   1.187  -0.131  1.00  0.00    -0.333 N 
ATOM     12  HN  UNL     1      -1.710   1.839  -0.915  1.00  0.00     0.168 HD
HETATM   13  H   UNL     1      -0.131   0.860   4.031  1.00  0.00     0.187 HD
ENDROOT
BRANCH   1  14
HETATM   14  N   UNL     1      -1.421  -1.579   3.025  1.00  0.00    -0.370 N 
HETATM   15  H   UNL     1      -2.245  -2.182   3.251  1.00  0.00     0.161 HD
BRANCH  14  16
HETATM   16  C   UNL     1      -0.099  -2.161   3.254  1.00  0.00     0.160 C 
BRANCH  16  17
HETATM   17  C   UNL     1       0.340  -2.916   2.027  1.00  0.00    -0.040 A 
HETATM   18  C   UNL     1       1.053  -2.260   1.014  1.00  0.00     0.011 A 
HETATM   19  C   UNL     1       1.342  -2.917  -0.185  1.00  0.00     0.032 A 
HETATM   20  C   UNL     1       0.904  -4.240  -0.400  1.00  0.00     0.056 A 
HETATM   21  C   UNL     1       0.196  -4.894   0.624  1.00  0.00     0.032 A 
HETATM   22  C   UNL     1      -0.094  -4.235   1.821  1.00  0.00     0.011 A 
BRANCH  20  23
HETATM   23  N   UNL     1       1.170  -4.928  -1.640  1.00  0.00    -0.268 N 
HETATM   24  C   UNL     1       1.644  -4.399  -2.788  1.00  0.00     0.118 A 
HETATM   25  C   UNL     1       1.738  -5.402  -3.726  1.00  0.00     0.038 A 
HETATM   26  C   UNL     1       1.299  -6.536  -3.074  1.00  0.00     0.109 A 
HETATM   27  N   UNL     1       0.958  -6.224  -1.812  1.00  0.00    -0.305 N 
ATOM     28  HN  UNL     1       0.599  -6.871  -1.110  1.00  0.00     0.186 HD
ENDBRANCH  20  23
ENDBRANCH  16  17
ENDBRANCH  14  16
ENDBRANCH   1  14
BRANCH   4  29
HETATM   29  S   UNL     1      -3.017  -0.567  -1.760  1.00  0.00    -0.092 SA
BRANCH  29  30
HETATM   30  C   UNL     1      -1.578  -1.571  -2.294  1.00  0.00     0.112 C 
BRANCH  30  31
HETATM   31  C   UNL     1      -0.403  -0.705  -2.755  1.00  0.00     0.277 C 
BRANCH  31  32
HETATM   32  N   UNL     1      -0.783   0.117  -3.901  1.00  0.00     0.079 N 
HETATM   33  H   UNL     1      -0.868  -0.504  -4.737  1.00  0.00     0.312 HD
HETATM   34  H   UNL     1       0.005   0.775  -4.103  1.00  0.00     0.312 HD
ENDBRANCH  31  32
ENDBRANCH  30  31
ENDBRANCH  29  30
ENDBRANCH   4  29
BRANCH  10  35
HETATM   35  C   UNL     1      -0.193   3.891   0.587  1.00  0.00     0.039 A 
HETATM   36  C   UNL     1      -0.695   5.157   1.271  1.00  0.00     0.011 A 
HETATM   37  C   UNL     1       0.728   5.690   1.325  1.00  0.00     0.001 A 
HETATM   38  C   UNL     1       1.233   4.431   0.638  1.00  0.00     0.011 A 
ENDBRANCH  10  35
TORSDOF 9
