MODEL 1
REMARK VINA RESULT:    -9.694      0.000      0.000
REMARK INTER + INTRA:         -11.329
REMARK INTER:                 -10.828
REMARK INTRA:                  -0.501
REMARK UNBOUND:                -0.501
REMARK  2 active torsions:
REMARK  status: ('A' for Active; 'I' for Inactive)
REMARK    1  A    between atoms: C_3  and  C_4 
REMARK    2  A    between atoms: C_8  and  C_10 
ROOT
HETATM    1  C   UNL     1    -119.070 205.040  -1.148  1.00  0.00     0.029 C 
HETATM    2  C   UNL     1    -119.409 205.232   0.136  1.00  0.00     0.045 A 
HETATM    3  O   UNL     1    -119.380 207.679   0.115  1.00  0.00    -0.267 OA
HETATM    4  C   UNL     1    -119.532 206.616   0.711  1.00  0.00     0.257 A 
HETATM    5  C   UNL     1    -119.778 202.945   1.363  1.00  0.00     0.015 A 
HETATM    6  C   UNL     1    -119.704 204.331   1.233  1.00  0.00     0.006 A 
HETATM    7  N   UNL     1    -119.859 206.470   2.014  1.00  0.00    -0.322 N 
ATOM      8  HN  UNL     1    -120.007 207.246   2.659  1.00  0.00     0.169 HD
HETATM    9  C   UNL     1    -120.109 202.387   2.589  1.00  0.00     0.001 A 
HETATM   10  C   UNL     1    -120.362 203.191   3.692  1.00  0.00     0.002 A 
HETATM   11  C   UNL     1    -120.297 204.573   3.592  1.00  0.00     0.030 A 
HETATM   12  C   UNL     1    -119.970 205.131   2.365  1.00  0.00     0.046 A 
ENDROOT
BRANCH   1  13
HETATM   13  C   UNL     1    -118.884 203.779  -1.865  1.00  0.00    -0.035 A 
HETATM   14  C   UNL     1    -117.926 202.826  -1.520  1.00  0.00     0.012 A 
HETATM   15  C   UNL     1    -117.828 201.628  -2.205  1.00  0.00     0.019 A 
HETATM   16  C   UNL     1    -118.678 201.352  -3.269  1.00  0.00     0.040 A 
HETATM   17  C   UNL     1    -119.621 202.304  -3.629  1.00  0.00     0.019 A 
HETATM   18  C   UNL     1    -119.725 203.493  -2.936  1.00  0.00     0.012 A 
BRANCH  16  19
HETATM   19  C   UNL     1    -118.612 200.062  -4.003  1.00  0.00     0.209 C 
HETATM   20  O   UNL     1    -119.357 199.989  -5.076  1.00  0.00    -0.644 OA
HETATM   21  O   UNL     1    -117.891 199.149  -3.600  1.00  0.00    -0.644 OA
ENDBRANCH  16  19
ENDBRANCH   1  13
TORSDOF 2
ENDMDL
MODEL 2
REMARK VINA RESULT:    -8.602      3.011      5.471
REMARK INTER + INTRA:         -10.109
REMARK INTER:                  -9.553
REMARK INTRA:                  -0.555
REMARK UNBOUND:                -0.501
REMARK  2 active torsions:
REMARK  status: ('A' for Active; 'I' for Inactive)
REMARK    1  A    between atoms: C_3  and  C_4 
REMARK    2  A    between atoms: C_8  and  C_10 
ROOT
HETATM    1  C   UNL     1    -119.407 204.174   0.943  1.00  0.00     0.029 C 
HETATM    2  C   UNL     1    -119.390 204.453  -0.369  1.00  0.00     0.045 A 
HETATM    3  O   UNL     1    -119.550 206.888  -0.183  1.00  0.00    -0.267 OA
HETATM    4  C   UNL     1    -119.483 205.870  -0.866  1.00  0.00     0.257 A 
HETATM    5  C   UNL     1    -119.193 202.262  -1.794  1.00  0.00     0.015 A 
HETATM    6  C   UNL     1    -119.311 203.631  -1.560  1.00  0.00     0.006 A 
HETATM    7  N   UNL     1    -119.463 205.811  -2.216  1.00  0.00    -0.322 N 
ATOM      8  HN  UNL     1    -119.515 206.627  -2.826  1.00  0.00     0.169 HD
HETATM    9  C   UNL     1    -119.129 201.790  -3.096  1.00  0.00     0.001 A 
HETATM   10  C   UNL     1    -119.186 202.663  -4.173  1.00  0.00     0.002 A 
HETATM   11  C   UNL     1    -119.303 204.031  -3.972  1.00  0.00     0.030 A 
HETATM   12  C   UNL     1    -119.364 204.502  -2.669  1.00  0.00     0.046 A 
ENDROOT
BRANCH   1  13
HETATM   13  C   UNL     1    -119.349 202.868   1.601  1.00  0.00    -0.035 A 
HETATM   14  C   UNL     1    -118.226 202.042   1.582  1.00  0.00     0.012 A 
HETATM   15  C   UNL     1    -118.211 200.839   2.264  1.00  0.00     0.019 A 
HETATM   16  C   UNL     1    -119.328 200.417   2.975  1.00  0.00     0.040 A 
HETATM   17  C   UNL     1    -120.454 201.226   2.983  1.00  0.00     0.019 A 
HETATM   18  C   UNL     1    -120.463 202.433   2.312  1.00  0.00     0.012 A 
BRANCH  16  19
HETATM   19  C   UNL     1    -119.328 199.142   3.739  1.00  0.00     0.209 C 
HETATM   20  O   UNL     1    -120.096 199.123   4.798  1.00  0.00    -0.644 OA
HETATM   21  O   UNL     1    -118.643 198.189   3.366  1.00  0.00    -0.644 OA
ENDBRANCH  16  19
ENDBRANCH   1  13
TORSDOF 2
ENDMDL
MODEL 3
REMARK VINA RESULT:    -8.558      3.309      5.833
REMARK INTER + INTRA:         -10.060
REMARK INTER:                  -9.426
REMARK INTRA:                  -0.634
REMARK UNBOUND:                -0.501
REMARK  2 active torsions:
REMARK  status: ('A' for Active; 'I' for Inactive)
REMARK    1  A    between atoms: C_3  and  C_4 
REMARK    2  A    between atoms: C_8  and  C_10 
ROOT
HETATM    1  C   UNL     1    -118.850 203.898  -0.294  1.00  0.00     0.029 C 
HETATM    2  C   UNL     1    -119.073 203.694  -1.601  1.00  0.00     0.045 A 
HETATM    3  O   UNL     1    -119.633 206.000  -2.198  1.00  0.00    -0.267 OA
HETATM    4  C   UNL     1    -119.487 204.821  -2.506  1.00  0.00     0.257 A 
HETATM    5  C   UNL     1    -118.699 201.178  -2.236  1.00  0.00     0.015 A 
HETATM    6  C   UNL     1    -119.024 202.517  -2.446  1.00  0.00     0.006 A 
HETATM    7  N   UNL     1    -119.653 204.290  -3.738  1.00  0.00    -0.322 N 
ATOM      8  HN  UNL     1    -119.937 204.825  -4.559  1.00  0.00     0.169 HD
HETATM    9  C   UNL     1    -118.743 200.285  -3.296  1.00  0.00     0.001 A 
HETATM   10  C   UNL     1    -119.110 200.707  -4.567  1.00  0.00     0.002 A 
HETATM   11  C   UNL     1    -119.437 202.034  -4.807  1.00  0.00     0.030 A 
HETATM   12  C   UNL     1    -119.390 202.927  -3.746  1.00  0.00     0.046 A 
ENDROOT
BRANCH   1  13
HETATM   13  C   UNL     1    -118.466 202.927   0.731  1.00  0.00    -0.035 A 
HETATM   14  C   UNL     1    -119.354 202.398   1.667  1.00  0.00     0.012 A 
HETATM   15  C   UNL     1    -118.946 201.445   2.582  1.00  0.00     0.019 A 
HETATM   16  C   UNL     1    -117.629 201.002   2.600  1.00  0.00     0.040 A 
HETATM   17  C   UNL     1    -116.736 201.539   1.685  1.00  0.00     0.019 A 
HETATM   18  C   UNL     1    -117.149 202.481   0.763  1.00  0.00     0.012 A 
BRANCH  16  19
HETATM   19  C   UNL     1    -117.172 199.960   3.555  1.00  0.00     0.209 C 
HETATM   20  O   UNL     1    -117.688 198.771   3.377  1.00  0.00    -0.644 OA
HETATM   21  O   UNL     1    -116.357 200.233   4.437  1.00  0.00    -0.644 OA
ENDBRANCH  16  19
ENDBRANCH   1  13
TORSDOF 2
ENDMDL
MODEL 4
REMARK VINA RESULT:    -8.403      2.666      6.357
REMARK INTER + INTRA:          -9.887
REMARK INTER:                  -9.752
REMARK INTRA:                  -0.135
REMARK UNBOUND:                -0.501
REMARK  2 active torsions:
REMARK  status: ('A' for Active; 'I' for Inactive)
REMARK    1  A    between atoms: C_3  and  C_4 
REMARK    2  A    between atoms: C_8  and  C_10 
ROOT
HETATM    1  C   UNL     1    -119.322 202.673  -2.460  1.00  0.00     0.029 C 
HETATM    2  C   UNL     1    -118.706 201.495  -2.277  1.00  0.00     0.045 A 
HETATM    3  O   UNL     1    -119.210 200.522  -4.465  1.00  0.00    -0.267 OA
HETATM    4  C   UNL     1    -118.708 200.439  -3.348  1.00  0.00     0.257 A 
HETATM    5  C   UNL     1    -117.599 201.372   0.096  1.00  0.00     0.015 A 
HETATM    6  C   UNL     1    -117.970 200.918  -1.169  1.00  0.00     0.006 A 
HETATM    7  N   UNL     1    -118.034 199.379  -2.851  1.00  0.00    -0.322 N 
ATOM      8  HN  UNL     1    -117.877 198.509  -3.361  1.00  0.00     0.169 HD
HETATM    9  C   UNL     1    -116.863 200.547   0.933  1.00  0.00     0.001 A 
HETATM   10  C   UNL     1    -116.492 199.271   0.530  1.00  0.00     0.002 A 
HETATM   11  C   UNL     1    -116.846 198.793  -0.724  1.00  0.00     0.030 A 
HETATM   12  C   UNL     1    -117.580 199.620  -1.561  1.00  0.00     0.046 A 
ENDROOT
BRANCH   1  13
HETATM   13  C   UNL     1    -119.440 203.797  -1.531  1.00  0.00    -0.035 A 
HETATM   14  C   UNL     1    -119.744 203.654  -0.178  1.00  0.00     0.012 A 
HETATM   15  C   UNL     1    -119.794 204.749   0.664  1.00  0.00     0.019 A 
HETATM   16  C   UNL     1    -119.557 206.027   0.174  1.00  0.00     0.040 A 
HETATM   17  C   UNL     1    -119.273 206.178  -1.175  1.00  0.00     0.019 A 
HETATM   18  C   UNL     1    -119.210 205.082  -2.011  1.00  0.00     0.012 A 
BRANCH  16  19
HETATM   19  C   UNL     1    -119.578 207.218   1.063  1.00  0.00     0.209 C 
HETATM   20  O   UNL     1    -119.552 206.961   2.346  1.00  0.00    -0.644 OA
HETATM   21  O   UNL     1    -119.612 208.354   0.587  1.00  0.00    -0.644 OA
ENDBRANCH  16  19
ENDBRANCH   1  13
TORSDOF 2
ENDMDL
MODEL 5
REMARK VINA RESULT:    -8.324      3.376      5.126
REMARK INTER + INTRA:          -9.799
REMARK INTER:                  -9.714
REMARK INTRA:                  -0.085
REMARK UNBOUND:                -0.501
REMARK  2 active torsions:
REMARK  status: ('A' for Active; 'I' for Inactive)
REMARK    1  A    between atoms: C_3  and  C_4 
REMARK    2  A    between atoms: C_8  and  C_10 
ROOT
HETATM    1  C   UNL     1    -118.283 202.237  -1.850  1.00  0.00     0.029 C 
HETATM    2  C   UNL     1    -118.821 203.443  -2.086  1.00  0.00     0.045 A 
HETATM    3  O   UNL     1    -119.047 203.226  -4.513  1.00  0.00    -0.267 OA
HETATM    4  C   UNL     1    -119.170 203.881  -3.482  1.00  0.00     0.257 A 
HETATM    5  C   UNL     1    -119.120 204.791   0.141  1.00  0.00     0.015 A 
HETATM    6  C   UNL     1    -119.174 204.559  -1.232  1.00  0.00     0.006 A 
HETATM    7  N   UNL     1    -119.664 205.135  -3.385  1.00  0.00    -0.322 N 
ATOM      8  HN  UNL     1    -119.983 205.689  -4.180  1.00  0.00     0.169 HD
HETATM    9  C   UNL     1    -119.562 206.003   0.652  1.00  0.00     0.001 A 
HETATM   10  C   UNL     1    -120.055 206.992  -0.188  1.00  0.00     0.002 A 
HETATM   11  C   UNL     1    -120.122 206.789  -1.559  1.00  0.00     0.030 A 
HETATM   12  C   UNL     1    -119.682 205.576  -2.069  1.00  0.00     0.046 A 
ENDROOT
BRANCH   1  13
HETATM   13  C   UNL     1    -117.864 201.656  -0.574  1.00  0.00    -0.035 A 
HETATM   14  C   UNL     1    -117.185 202.368   0.414  1.00  0.00     0.012 A 
HETATM   15  C   UNL     1    -116.857 201.781   1.622  1.00  0.00     0.019 A 
HETATM   16  C   UNL     1    -117.186 200.455   1.874  1.00  0.00     0.040 A 
HETATM   17  C   UNL     1    -117.845 199.736   0.888  1.00  0.00     0.019 A 
HETATM   18  C   UNL     1    -118.183 200.328  -0.313  1.00  0.00     0.012 A 
BRANCH  16  19
HETATM   19  C   UNL     1    -116.871 199.808   3.174  1.00  0.00     0.209 C 
HETATM   20  O   UNL     1    -117.032 198.510   3.209  1.00  0.00    -0.644 OA
HETATM   21  O   UNL     1    -116.481 200.481   4.130  1.00  0.00    -0.644 OA
ENDBRANCH  16  19
ENDBRANCH   1  13
TORSDOF 2
ENDMDL
MODEL 6
REMARK VINA RESULT:    -8.240      2.660      6.373
REMARK INTER + INTRA:          -9.705
REMARK INTER:                  -9.734
REMARK INTRA:                   0.029
REMARK UNBOUND:                -0.501
REMARK  2 active torsions:
REMARK  status: ('A' for Active; 'I' for Inactive)
REMARK    1  A    between atoms: C_3  and  C_4 
REMARK    2  A    between atoms: C_8  and  C_10 
ROOT
HETATM    1  C   UNL     1    -119.283 202.789  -2.463  1.00  0.00     0.029 C 
HETATM    2  C   UNL     1    -118.699 201.593  -2.288  1.00  0.00     0.045 A 
HETATM    3  O   UNL     1    -119.227 200.651  -4.484  1.00  0.00    -0.267 OA
HETATM    4  C   UNL     1    -118.729 200.546  -3.367  1.00  0.00     0.257 A 
HETATM    5  C   UNL     1    -117.600 201.423   0.085  1.00  0.00     0.015 A 
HETATM    6  C   UNL     1    -117.981 200.989  -1.183  1.00  0.00     0.006 A 
HETATM    7  N   UNL     1    -118.084 199.464  -2.878  1.00  0.00    -0.322 N 
ATOM      8  HN  UNL     1    -117.950 198.594  -3.394  1.00  0.00     0.169 HD
HETATM    9  C   UNL     1    -116.887 200.572   0.917  1.00  0.00     0.001 A 
HETATM   10  C   UNL     1    -116.551 199.290   0.504  1.00  0.00     0.002 A 
HETATM   11  C   UNL     1    -116.916 198.831  -0.753  1.00  0.00     0.030 A 
HETATM   12  C   UNL     1    -117.626 199.684  -1.585  1.00  0.00     0.046 A 
ENDROOT
BRANCH   1  13
HETATM   13  C   UNL     1    -119.372 203.909  -1.526  1.00  0.00    -0.035 A 
HETATM   14  C   UNL     1    -119.185 205.242  -1.893  1.00  0.00     0.012 A 
HETATM   15  C   UNL     1    -119.330 206.264  -0.974  1.00  0.00     0.019 A 
HETATM   16  C   UNL     1    -119.653 205.984   0.348  1.00  0.00     0.040 A 
HETATM   17  C   UNL     1    -119.821 204.659   0.724  1.00  0.00     0.019 A 
HETATM   18  C   UNL     1    -119.689 203.641  -0.198  1.00  0.00     0.012 A 
BRANCH  16  19
HETATM   19  C   UNL     1    -119.841 207.066   1.349  1.00  0.00     0.209 C 
HETATM   20  O   UNL     1    -119.522 208.268   0.943  1.00  0.00    -0.644 OA
HETATM   21  O   UNL     1    -120.276 206.810   2.473  1.00  0.00    -0.644 OA
ENDBRANCH  16  19
ENDBRANCH   1  13
TORSDOF 2
ENDMDL
MODEL 7
REMARK VINA RESULT:    -8.232      3.963      6.536
REMARK INTER + INTRA:          -9.695
REMARK INTER:                  -9.196
REMARK INTRA:                  -0.500
REMARK UNBOUND:                -0.501
REMARK  2 active torsions:
REMARK  status: ('A' for Active; 'I' for Inactive)
REMARK    1  A    between atoms: C_3  and  C_4 
REMARK    2  A    between atoms: C_8  and  C_10 
ROOT
HETATM    1  C   UNL     1    -118.162 199.526  -1.830  1.00  0.00     0.029 C 
HETATM    2  C   UNL     1    -118.564 200.567  -2.576  1.00  0.00     0.045 A 
HETATM    3  O   UNL     1    -118.747 199.383  -4.710  1.00  0.00    -0.267 OA
HETATM    4  C   UNL     1    -118.828 200.415  -4.048  1.00  0.00     0.257 A 
HETATM    5  C   UNL     1    -118.777 202.738  -1.123  1.00  0.00     0.015 A 
HETATM    6  C   UNL     1    -118.818 201.963  -2.280  1.00  0.00     0.006 A 
HETATM    7  N   UNL     1    -119.188 201.633  -4.508  1.00  0.00    -0.322 N 
ATOM      8  HN  UNL     1    -119.426 201.832  -5.480  1.00  0.00     0.169 HD
HETATM    9  C   UNL     1    -119.101 204.085  -1.185  1.00  0.00     0.001 A 
HETATM   10  C   UNL     1    -119.464 204.675  -2.388  1.00  0.00     0.002 A 
HETATM   11  C   UNL     1    -119.517 203.928  -3.557  1.00  0.00     0.030 A 
HETATM   12  C   UNL     1    -119.194 202.581  -3.492  1.00  0.00     0.046 A 
ENDROOT
BRANCH   1  13
HETATM   13  C   UNL     1    -117.841 199.494  -0.403  1.00  0.00    -0.035 A 
HETATM   14  C   UNL     1    -116.816 200.242   0.177  1.00  0.00     0.012 A 
HETATM   15  C   UNL     1    -116.590 200.209   1.541  1.00  0.00     0.019 A 
HETATM   16  C   UNL     1    -117.373 199.413   2.367  1.00  0.00     0.040 A 
HETATM   17  C   UNL     1    -118.381 198.652   1.794  1.00  0.00     0.019 A 
HETATM   18  C   UNL     1    -118.615 198.696   0.434  1.00  0.00     0.012 A 
BRANCH  16  19
HETATM   19  C   UNL     1    -117.168 199.381   3.838  1.00  0.00     0.209 C 
HETATM   20  O   UNL     1    -117.655 198.332   4.450  1.00  0.00    -0.644 OA
HETATM   21  O   UNL     1    -116.571 200.296   4.408  1.00  0.00    -0.644 OA
ENDBRANCH  16  19
ENDBRANCH   1  13
TORSDOF 2
ENDMDL
MODEL 8
REMARK VINA RESULT:    -8.199      3.328      5.772
REMARK INTER + INTRA:          -9.660
REMARK INTER:                  -9.120
REMARK INTRA:                  -0.540
REMARK UNBOUND:                -0.501
REMARK  2 active torsions:
REMARK  status: ('A' for Active; 'I' for Inactive)
REMARK    1  A    between atoms: C_3  and  C_4 
REMARK    2  A    between atoms: C_8  and  C_10 
ROOT
HETATM    1  C   UNL     1    -117.528 200.519  -0.768  1.00  0.00     0.029 C 
HETATM    2  C   UNL     1    -117.743 199.617   0.202  1.00  0.00     0.045 A 
HETATM    3  O   UNL     1    -116.451 197.781  -0.773  1.00  0.00    -0.267 OA
HETATM    4  C   UNL     1    -117.168 198.230   0.117  1.00  0.00     0.257 A 
HETATM    5  C   UNL     1    -119.232 200.624   2.109  1.00  0.00     0.015 A 
HETATM    6  C   UNL     1    -118.490 199.650   1.443  1.00  0.00     0.006 A 
HETATM    7  N   UNL     1    -117.580 197.569   1.221  1.00  0.00    -0.322 N 
ATOM      8  HN  UNL     1    -117.343 196.599   1.432  1.00  0.00     0.169 HD
HETATM    9  C   UNL     1    -119.828 200.323   3.325  1.00  0.00     0.001 A 
HETATM   10  C   UNL     1    -119.699 199.060   3.887  1.00  0.00     0.002 A 
HETATM   11  C   UNL     1    -118.966 198.071   3.248  1.00  0.00     0.030 A 
HETATM   12  C   UNL     1    -118.368 198.374   2.034  1.00  0.00     0.046 A 
ENDROOT
BRANCH   1  13
HETATM   13  C   UNL     1    -118.021 201.893  -0.864  1.00  0.00    -0.035 A 
HETATM   14  C   UNL     1    -117.637 202.915   0.004  1.00  0.00     0.012 A 
HETATM   15  C   UNL     1    -118.097 204.208  -0.165  1.00  0.00     0.019 A 
HETATM   16  C   UNL     1    -118.970 204.517  -1.200  1.00  0.00     0.040 A 
HETATM   17  C   UNL     1    -119.370 203.501  -2.056  1.00  0.00     0.019 A 
HETATM   18  C   UNL     1    -118.900 202.214  -1.894  1.00  0.00     0.012 A 
BRANCH  16  19
HETATM   19  C   UNL     1    -119.457 205.903  -1.420  1.00  0.00     0.209 C 
HETATM   20  O   UNL     1    -119.853 206.172  -2.638  1.00  0.00    -0.644 OA
HETATM   21  O   UNL     1    -119.476 206.715  -0.493  1.00  0.00    -0.644 OA
ENDBRANCH  16  19
ENDBRANCH   1  13
TORSDOF 2
ENDMDL
MODEL 9
REMARK VINA RESULT:    -8.155      2.605      4.953
REMARK INTER + INTRA:          -9.610
REMARK INTER:                  -9.128
REMARK INTRA:                  -0.482
REMARK UNBOUND:                -0.501
REMARK  2 active torsions:
REMARK  status: ('A' for Active; 'I' for Inactive)
REMARK    1  A    between atoms: C_3  and  C_4 
REMARK    2  A    between atoms: C_8  and  C_10 
ROOT
HETATM    1  C   UNL     1    -119.553 204.435   2.167  1.00  0.00     0.029 C 
HETATM    2  C   UNL     1    -119.560 205.140   1.025  1.00  0.00     0.045 A 
HETATM    3  O   UNL     1    -119.529 207.374   2.024  1.00  0.00    -0.267 OA
HETATM    4  C   UNL     1    -119.562 206.644   1.038  1.00  0.00     0.257 A 
HETATM    5  C   UNL     1    -119.577 203.552  -1.060  1.00  0.00     0.015 A 
HETATM    6  C   UNL     1    -119.584 204.766  -0.375  1.00  0.00     0.006 A 
HETATM    7  N   UNL     1    -119.593 207.044  -0.252  1.00  0.00    -0.322 N 
ATOM      8  HN  UNL     1    -119.604 208.020  -0.550  1.00  0.00     0.169 HD
HETATM    9  C   UNL     1    -119.594 203.545  -2.447  1.00  0.00     0.001 A 
HETATM   10  C   UNL     1    -119.622 204.733  -3.164  1.00  0.00     0.002 A 
HETATM   11  C   UNL     1    -119.628 205.957  -2.510  1.00  0.00     0.030 A 
HETATM   12  C   UNL     1    -119.609 205.962  -1.122  1.00  0.00     0.046 A 
ENDROOT
BRANCH   1  13
HETATM   13  C   UNL     1    -119.571 202.983   2.345  1.00  0.00    -0.035 A 
HETATM   14  C   UNL     1    -120.636 202.287   2.917  1.00  0.00     0.012 A 
HETATM   15  C   UNL     1    -120.619 200.908   3.015  1.00  0.00     0.019 A 
HETATM   16  C   UNL     1    -119.527 200.181   2.558  1.00  0.00     0.040 A 
HETATM   17  C   UNL     1    -118.456 200.869   2.006  1.00  0.00     0.019 A 
HETATM   18  C   UNL     1    -118.481 202.245   1.896  1.00  0.00     0.012 A 
BRANCH  16  19
HETATM   19  C   UNL     1    -119.495 198.697   2.626  1.00  0.00     0.209 C 
HETATM   20  O   UNL     1    -119.256 198.088   1.493  1.00  0.00    -0.644 OA
HETATM   21  O   UNL     1    -119.681 198.116   3.696  1.00  0.00    -0.644 OA
ENDBRANCH  16  19
ENDBRANCH   1  13
TORSDOF 2
ENDMDL
MODEL 10
REMARK VINA RESULT:    -8.022      2.684      6.992
REMARK INTER + INTRA:          -9.462
REMARK INTER:                  -8.886
REMARK INTRA:                  -0.575
REMARK UNBOUND:                -0.501
REMARK  2 active torsions:
REMARK  status: ('A' for Active; 'I' for Inactive)
REMARK    1  A    between atoms: C_3  and  C_4 
REMARK    2  A    between atoms: C_8  and  C_10 
ROOT
HETATM    1  C   UNL     1    -118.111 201.738   0.997  1.00  0.00     0.029 C 
HETATM    2  C   UNL     1    -118.081 201.348  -0.286  1.00  0.00     0.045 A 
HETATM    3  O   UNL     1    -116.682 199.362   0.011  1.00  0.00    -0.267 OA
HETATM    4  C   UNL     1    -117.312 200.127  -0.713  1.00  0.00     0.257 A 
HETATM    5  C   UNL     1    -119.481 202.972  -1.795  1.00  0.00     0.015 A 
HETATM    6  C   UNL     1    -118.659 201.884  -1.502  1.00  0.00     0.006 A 
HETATM    7  N   UNL     1    -117.461 200.022  -2.052  1.00  0.00    -0.322 N 
ATOM      8  HN  UNL     1    -117.044 199.283  -2.619  1.00  0.00     0.169 HD
HETATM    9  C   UNL     1    -119.875 203.204  -3.104  1.00  0.00     0.001 A 
HETATM   10  C   UNL     1    -119.459 202.368  -4.131  1.00  0.00     0.002 A 
HETATM   11  C   UNL     1    -118.643 201.276  -3.871  1.00  0.00     0.030 A 
HETATM   12  C   UNL     1    -118.251 201.044  -2.560  1.00  0.00     0.046 A 
ENDROOT
BRANCH   1  13
HETATM   13  C   UNL     1    -118.780 202.898   1.585  1.00  0.00    -0.035 A 
HETATM   14  C   UNL     1    -118.423 204.218   1.313  1.00  0.00     0.012 A 
HETATM   15  C   UNL     1    -119.124 205.277   1.861  1.00  0.00     0.019 A 
HETATM   16  C   UNL     1    -120.199 205.047   2.711  1.00  0.00     0.040 A 
HETATM   17  C   UNL     1    -120.547 203.736   3.000  1.00  0.00     0.019 A 
HETATM   18  C   UNL     1    -119.854 202.680   2.443  1.00  0.00     0.012 A 
BRANCH  16  19
HETATM   19  C   UNL     1    -120.986 206.166   3.290  1.00  0.00     0.209 C 
HETATM   20  O   UNL     1    -122.071 205.816   3.931  1.00  0.00    -0.644 OA
HETATM   21  O   UNL     1    -120.608 207.332   3.158  1.00  0.00    -0.644 OA
ENDBRANCH  16  19
ENDBRANCH   1  13
TORSDOF 2
ENDMDL
MODEL 11
REMARK VINA RESULT:    -7.995      3.068      5.301
REMARK INTER + INTRA:          -9.431
REMARK INTER:                  -8.811
REMARK INTRA:                  -0.620
REMARK UNBOUND:                -0.501
REMARK  2 active torsions:
REMARK  status: ('A' for Active; 'I' for Inactive)
REMARK    1  A    between atoms: C_3  and  C_4 
REMARK    2  A    between atoms: C_8  and  C_10 
ROOT
HETATM    1  C   UNL     1    -118.830 203.527   1.125  1.00  0.00     0.029 C 
HETATM    2  C   UNL     1    -119.050 203.944  -0.131  1.00  0.00     0.045 A 
HETATM    3  O   UNL     1    -119.491 206.296   0.382  1.00  0.00    -0.267 OA
HETATM    4  C   UNL     1    -119.400 205.376  -0.427  1.00  0.00     0.257 A 
HETATM    5  C   UNL     1    -118.795 201.969  -1.835  1.00  0.00     0.015 A 
HETATM    6  C   UNL     1    -119.051 203.273  -1.416  1.00  0.00     0.006 A 
HETATM    7  N   UNL     1    -119.581 205.465  -1.763  1.00  0.00    -0.322 N 
ATOM      8  HN  UNL     1    -119.830 206.325  -2.252  1.00  0.00     0.169 HD
HETATM    9  C   UNL     1    -118.872 201.652  -3.183  1.00  0.00     0.001 A 
HETATM   10  C   UNL     1    -119.206 202.618  -4.123  1.00  0.00     0.002 A 
HETATM   11  C   UNL     1    -119.465 203.925  -3.736  1.00  0.00     0.030 A 
HETATM   12  C   UNL     1    -119.385 204.241  -2.387  1.00  0.00     0.046 A 
ENDROOT
BRANCH   1  13
HETATM   13  C   UNL     1    -118.504 202.182   1.598  1.00  0.00    -0.035 A 
HETATM   14  C   UNL     1    -119.414 201.347   2.246  1.00  0.00     0.012 A 
HETATM   15  C   UNL     1    -119.064 200.065   2.628  1.00  0.00     0.019 A 
HETATM   16  C   UNL     1    -117.784 199.581   2.386  1.00  0.00     0.040 A 
HETATM   17  C   UNL     1    -116.868 200.413   1.759  1.00  0.00     0.019 A 
HETATM   18  C   UNL     1    -117.224 201.688   1.367  1.00  0.00     0.012 A 
BRANCH  16  19
HETATM   19  C   UNL     1    -117.391 198.199   2.761  1.00  0.00     0.209 C 
HETATM   20  O   UNL     1    -116.527 197.625   1.963  1.00  0.00    -0.644 OA
HETATM   21  O   UNL     1    -117.864 197.663   3.765  1.00  0.00    -0.644 OA
ENDBRANCH  16  19
ENDBRANCH   1  13
TORSDOF 2
ENDMDL
MODEL 12
REMARK VINA RESULT:    -7.929      2.613      6.454
REMARK INTER + INTRA:          -9.358
REMARK INTER:                  -9.583
REMARK INTRA:                   0.225
REMARK UNBOUND:                -0.501
REMARK  2 active torsions:
REMARK  status: ('A' for Active; 'I' for Inactive)
REMARK    1  A    between atoms: C_3  and  C_4 
REMARK    2  A    between atoms: C_8  and  C_10 
ROOT
HETATM    1  C   UNL     1    -119.434 203.616  -1.927  1.00  0.00     0.029 C 
HETATM    2  C   UNL     1    -118.899 202.396  -2.088  1.00  0.00     0.045 A 
HETATM    3  O   UNL     1    -119.491 202.090  -4.442  1.00  0.00    -0.267 OA
HETATM    4  C   UNL     1    -118.985 201.674  -3.404  1.00  0.00     0.257 A 
HETATM    5  C   UNL     1    -117.780 201.561   0.131  1.00  0.00     0.015 A 
HETATM    6  C   UNL     1    -118.194 201.494  -1.198  1.00  0.00     0.006 A 
HETATM    7  N   UNL     1    -118.381 200.478  -3.233  1.00  0.00    -0.322 N 
ATOM      8  HN  UNL     1    -118.289 199.771  -3.963  1.00  0.00     0.169 HD
HETATM    9  C   UNL     1    -117.094 200.495   0.692  1.00  0.00     0.001 A 
HETATM   10  C   UNL     1    -116.817 199.356  -0.052  1.00  0.00     0.002 A 
HETATM   11  C   UNL     1    -117.215 199.261  -1.378  1.00  0.00     0.030 A 
HETATM   12  C   UNL     1    -117.899 200.330  -1.939  1.00  0.00     0.046 A 
ENDROOT
BRANCH   1  13
HETATM   13  C   UNL     1    -119.465 204.450  -0.726  1.00  0.00    -0.035 A 
HETATM   14  C   UNL     1    -119.461 203.939   0.572  1.00  0.00     0.012 A 
HETATM   15  C   UNL     1    -119.441 204.777   1.671  1.00  0.00     0.019 A 
HETATM   16  C   UNL     1    -119.441 206.157   1.507  1.00  0.00     0.040 A 
HETATM   17  C   UNL     1    -119.464 206.672   0.219  1.00  0.00     0.019 A 
HETATM   18  C   UNL     1    -119.471 205.833  -0.878  1.00  0.00     0.012 A 
BRANCH  16  19
HETATM   19  C   UNL     1    -119.392 207.079   2.671  1.00  0.00     0.209 C 
HETATM   20  O   UNL     1    -118.800 206.605   3.737  1.00  0.00    -0.644 OA
HETATM   21  O   UNL     1    -119.882 208.207   2.597  1.00  0.00    -0.644 OA
ENDBRANCH  16  19
ENDBRANCH   1  13
TORSDOF 2
ENDMDL
MODEL 13
REMARK VINA RESULT:    -7.903      3.136      6.936
REMARK INTER + INTRA:          -9.329
REMARK INTER:                  -8.675
REMARK INTRA:                  -0.654
REMARK UNBOUND:                -0.501
REMARK  2 active torsions:
REMARK  status: ('A' for Active; 'I' for Inactive)
REMARK    1  A    between atoms: C_3  and  C_4 
REMARK    2  A    between atoms: C_8  and  C_10 
ROOT
HETATM    1  C   UNL     1    -119.966 206.236   0.504  1.00  0.00     0.029 C 
HETATM    2  C   UNL     1    -119.389 205.286  -0.248  1.00  0.00     0.045 A 
HETATM    3  O   UNL     1    -119.579 206.423  -2.407  1.00  0.00    -0.267 OA
HETATM    4  C   UNL     1    -119.243 205.451  -1.736  1.00  0.00     0.257 A 
HETATM    5  C   UNL     1    -118.636 203.252   1.223  1.00  0.00     0.015 A 
HETATM    6  C   UNL     1    -118.824 203.986   0.053  1.00  0.00     0.006 A 
HETATM    7  N   UNL     1    -118.653 204.326  -2.196  1.00  0.00    -0.322 N 
ATOM      8  HN  UNL     1    -118.429 204.157  -3.177  1.00  0.00     0.169 HD
HETATM    9  C   UNL     1    -118.031 202.005   1.163  1.00  0.00     0.001 A 
HETATM   10  C   UNL     1    -117.614 201.475  -0.050  1.00  0.00     0.002 A 
HETATM   11  C   UNL     1    -117.786 202.183  -1.231  1.00  0.00     0.030 A 
HETATM   12  C   UNL     1    -118.389 203.431  -1.169  1.00  0.00     0.046 A 
ENDROOT
BRANCH   1  13
HETATM   13  C   UNL     1    -120.211 206.238   1.946  1.00  0.00    -0.035 A 
HETATM   14  C   UNL     1    -119.234 206.535   2.896  1.00  0.00     0.012 A 
HETATM   15  C   UNL     1    -119.535 206.569   4.245  1.00  0.00     0.019 A 
HETATM   16  C   UNL     1    -120.822 206.292   4.689  1.00  0.00     0.040 A 
HETATM   17  C   UNL     1    -121.794 205.977   3.750  1.00  0.00     0.019 A 
HETATM   18  C   UNL     1    -121.494 205.956   2.402  1.00  0.00     0.012 A 
BRANCH  16  19
HETATM   19  C   UNL     1    -121.178 206.349   6.130  1.00  0.00     0.209 C 
HETATM   20  O   UNL     1    -122.402 205.990   6.420  1.00  0.00    -0.644 OA
HETATM   21  O   UNL     1    -120.348 206.710   6.966  1.00  0.00    -0.644 OA
ENDBRANCH  16  19
ENDBRANCH   1  13
TORSDOF 2
ENDMDL
MODEL 14
REMARK VINA RESULT:    -7.877      4.650      6.907
REMARK INTER + INTRA:          -9.299
REMARK INTER:                  -8.623
REMARK INTRA:                  -0.676
REMARK UNBOUND:                -0.501
REMARK  2 active torsions:
REMARK  status: ('A' for Active; 'I' for Inactive)
REMARK    1  A    between atoms: C_3  and  C_4 
REMARK    2  A    between atoms: C_8  and  C_10 
ROOT
HETATM    1  C   UNL     1    -117.938 198.687  -0.865  1.00  0.00     0.029 C 
HETATM    2  C   UNL     1    -117.944 199.917  -1.403  1.00  0.00     0.045 A 
HETATM    3  O   UNL     1    -117.921 199.241  -3.755  1.00  0.00    -0.267 OA
HETATM    4  C   UNL     1    -117.918 200.116  -2.893  1.00  0.00     0.257 A 
HETATM    5  C   UNL     1    -117.991 201.758   0.462  1.00  0.00     0.015 A 
HETATM    6  C   UNL     1    -117.952 201.250  -0.835  1.00  0.00     0.006 A 
HETATM    7  N   UNL     1    -117.906 201.450  -3.108  1.00  0.00    -0.322 N 
ATOM      8  HN  UNL     1    -117.886 201.882  -4.032  1.00  0.00     0.169 HD
HETATM    9  C   UNL     1    -118.001 203.130   0.664  1.00  0.00     0.001 A 
HETATM   10  C   UNL     1    -117.969 204.007  -0.411  1.00  0.00     0.002 A 
HETATM   11  C   UNL     1    -117.932 203.532  -1.714  1.00  0.00     0.030 A 
HETATM   12  C   UNL     1    -117.924 202.159  -1.915  1.00  0.00     0.046 A 
ENDROOT
BRANCH   1  13
HETATM   13  C   UNL     1    -117.939 198.307   0.547  1.00  0.00    -0.035 A 
HETATM   14  C   UNL     1    -116.785 197.985   1.263  1.00  0.00     0.012 A 
HETATM   15  C   UNL     1    -116.841 197.680   2.610  1.00  0.00     0.019 A 
HETATM   16  C   UNL     1    -118.056 197.673   3.283  1.00  0.00     0.040 A 
HETATM   17  C   UNL     1    -119.209 197.974   2.573  1.00  0.00     0.019 A 
HETATM   18  C   UNL     1    -119.151 198.290   1.230  1.00  0.00     0.012 A 
BRANCH  16  19
HETATM   19  C   UNL     1    -118.140 197.376   4.736  1.00  0.00     0.209 C 
HETATM   20  O   UNL     1    -117.230 196.555   5.194  1.00  0.00    -0.644 OA
HETATM   21  O   UNL     1    -119.017 197.892   5.431  1.00  0.00    -0.644 OA
ENDBRANCH  16  19
ENDBRANCH   1  13
TORSDOF 2
ENDMDL
MODEL 15
REMARK VINA RESULT:    -7.811      4.169      6.150
REMARK INTER + INTRA:          -9.226
REMARK INTER:                  -8.735
REMARK INTRA:                  -0.491
REMARK UNBOUND:                -0.501
REMARK  2 active torsions:
REMARK  status: ('A' for Active; 'I' for Inactive)
REMARK    1  A    between atoms: C_3  and  C_4 
REMARK    2  A    between atoms: C_8  and  C_10 
ROOT
HETATM    1  C   UNL     1    -116.771 199.036  -1.148  1.00  0.00     0.029 C 
HETATM    2  C   UNL     1    -116.998 198.324  -0.033  1.00  0.00     0.045 A 
HETATM    3  O   UNL     1    -115.351 196.560  -0.435  1.00  0.00    -0.267 OA
HETATM    4  C   UNL     1    -116.239 197.058   0.251  1.00  0.00     0.257 A 
HETATM    5  C   UNL     1    -118.860 199.443   1.434  1.00  0.00     0.015 A 
HETATM    6  C   UNL     1    -117.910 198.486   1.082  1.00  0.00     0.006 A 
HETATM    7  N   UNL     1    -116.711 196.575   1.421  1.00  0.00    -0.322 N 
ATOM      8  HN  UNL     1    -116.379 195.717   1.863  1.00  0.00     0.169 HD
HETATM    9  C   UNL     1    -119.575 199.301   2.614  1.00  0.00     0.001 A 
HETATM   10  C   UNL     1    -119.360 198.213   3.449  1.00  0.00     0.002 A 
HETATM   11  C   UNL     1    -118.420 197.245   3.126  1.00  0.00     0.030 A 
HETATM   12  C   UNL     1    -117.704 197.390   1.947  1.00  0.00     0.046 A 
ENDROOT
BRANCH   1  13
HETATM   13  C   UNL     1    -117.422 200.268  -1.595  1.00  0.00    -0.035 A 
HETATM   14  C   UNL     1    -117.354 201.475  -0.900  1.00  0.00     0.012 A 
HETATM   15  C   UNL     1    -117.949 202.621  -1.396  1.00  0.00     0.019 A 
HETATM   16  C   UNL     1    -118.646 202.590  -2.598  1.00  0.00     0.040 A 
HETATM   17  C   UNL     1    -118.733 201.388  -3.284  1.00  0.00     0.019 A 
HETATM   18  C   UNL     1    -118.128 200.248  -2.794  1.00  0.00     0.012 A 
BRANCH  16  19
HETATM   19  C   UNL     1    -119.271 203.812  -3.167  1.00  0.00     0.209 C 
HETATM   20  O   UNL     1    -119.193 203.929  -4.468  1.00  0.00    -0.644 OA
HETATM   21  O   UNL     1    -119.820 204.635  -2.432  1.00  0.00    -0.644 OA
ENDBRANCH  16  19
ENDBRANCH   1  13
TORSDOF 2
ENDMDL
MODEL 16
REMARK VINA RESULT:    -7.775      4.187      5.272
REMARK INTER + INTRA:          -9.186
REMARK INTER:                  -8.664
REMARK INTRA:                  -0.522
REMARK UNBOUND:                -0.501
REMARK  2 active torsions:
REMARK  status: ('A' for Active; 'I' for Inactive)
REMARK    1  A    between atoms: C_3  and  C_4 
REMARK    2  A    between atoms: C_8  and  C_10 
ROOT
HETATM    1  C   UNL     1    -116.588 200.813   1.528  1.00  0.00     0.029 C 
HETATM    2  C   UNL     1    -116.961 200.085   2.591  1.00  0.00     0.045 A 
HETATM    3  O   UNL     1    -115.322 200.967   4.179  1.00  0.00    -0.267 OA
HETATM    4  C   UNL     1    -116.251 200.211   3.910  1.00  0.00     0.257 A 
HETATM    5  C   UNL     1    -118.979 198.521   1.997  1.00  0.00     0.015 A 
HETATM    6  C   UNL     1    -117.985 199.080   2.798  1.00  0.00     0.006 A 
HETATM    7  N   UNL     1    -116.842 199.338   4.756  1.00  0.00    -0.322 N 
ATOM      8  HN  UNL     1    -116.565 199.205   5.729  1.00  0.00     0.169 HD
HETATM    9  C   UNL     1    -119.829 197.560   2.525  1.00  0.00     0.001 A 
HETATM   10  C   UNL     1    -119.701 197.144   3.844  1.00  0.00     0.002 A 
HETATM   11  C   UNL     1    -118.722 197.684   4.666  1.00  0.00     0.030 A 
HETATM   12  C   UNL     1    -117.875 198.647   4.137  1.00  0.00     0.046 A 
ENDROOT
BRANCH   1  13
HETATM   13  C   UNL     1    -117.143 200.807   0.174  1.00  0.00    -0.035 A 
HETATM   14  C   UNL     1    -117.127 199.692  -0.664  1.00  0.00     0.012 A 
HETATM   15  C   UNL     1    -117.711 199.729  -1.916  1.00  0.00     0.019 A 
HETATM   16  C   UNL     1    -118.319 200.890  -2.377  1.00  0.00     0.040 A 
HETATM   17  C   UNL     1    -118.321 202.008  -1.556  1.00  0.00     0.019 A 
HETATM   18  C   UNL     1    -117.749 201.965  -0.301  1.00  0.00     0.012 A 
BRANCH  16  19
HETATM   19  C   UNL     1    -118.978 200.948  -3.708  1.00  0.00     0.209 C 
HETATM   20  O   UNL     1    -118.990 199.824  -4.377  1.00  0.00    -0.644 OA
HETATM   21  O   UNL     1    -119.472 202.000  -4.116  1.00  0.00    -0.644 OA
ENDBRANCH  16  19
ENDBRANCH   1  13
TORSDOF 2
ENDMDL
MODEL 17
REMARK VINA RESULT:    -7.721      5.536      7.364
REMARK INTER + INTRA:          -9.125
REMARK INTER:                  -8.586
REMARK INTRA:                  -0.540
REMARK UNBOUND:                -0.501
REMARK  2 active torsions:
REMARK  status: ('A' for Active; 'I' for Inactive)
REMARK    1  A    between atoms: C_3  and  C_4 
REMARK    2  A    between atoms: C_8  and  C_10 
ROOT
HETATM    1  C   UNL     1    -119.119 199.378   3.878  1.00  0.00     0.029 C 
HETATM    2  C   UNL     1    -118.953 200.341   2.958  1.00  0.00     0.045 A 
HETATM    3  O   UNL     1    -119.774 202.215   4.301  1.00  0.00    -0.267 OA
HETATM    4  C   UNL     1    -119.328 201.768   3.248  1.00  0.00     0.257 A 
HETATM    5  C   UNL     1    -117.950 199.362   0.743  1.00  0.00     0.015 A 
HETATM    6  C   UNL     1    -118.462 200.340   1.595  1.00  0.00     0.006 A 
HETATM    7  N   UNL     1    -119.066 202.475   2.127  1.00  0.00    -0.322 N 
ATOM      8  HN  UNL     1    -119.225 203.478   2.031  1.00  0.00     0.169 HD
HETATM    9  C   UNL     1    -117.546 199.709  -0.537  1.00  0.00     0.001 A 
HETATM   10  C   UNL     1    -117.646 201.019  -0.985  1.00  0.00     0.002 A 
HETATM   11  C   UNL     1    -118.150 202.014  -0.160  1.00  0.00     0.030 A 
HETATM   12  C   UNL     1    -118.552 201.666   1.122  1.00  0.00     0.046 A 
ENDROOT
BRANCH   1  13
HETATM   13  C   UNL     1    -118.833 197.948   3.766  1.00  0.00    -0.035 A 
HETATM   14  C   UNL     1    -117.547 197.423   3.636  1.00  0.00     0.012 A 
HETATM   15  C   UNL     1    -117.333 196.058   3.584  1.00  0.00     0.019 A 
HETATM   16  C   UNL     1    -118.402 195.173   3.645  1.00  0.00     0.040 A 
HETATM   17  C   UNL     1    -119.685 195.689   3.756  1.00  0.00     0.019 A 
HETATM   18  C   UNL     1    -119.896 197.052   3.821  1.00  0.00     0.012 A 
BRANCH  16  19
HETATM   19  C   UNL     1    -118.197 193.702   3.619  1.00  0.00     0.209 C 
HETATM   20  O   UNL     1    -117.566 193.242   2.569  1.00  0.00    -0.644 OA
HETATM   21  O   UNL     1    -118.603 192.997   4.544  1.00  0.00    -0.644 OA
ENDBRANCH  16  19
ENDBRANCH   1  13
TORSDOF 2
ENDMDL
MODEL 18
REMARK VINA RESULT:    -7.681      4.089      5.863
REMARK INTER + INTRA:          -9.080
REMARK INTER:                  -8.445
REMARK INTRA:                  -0.635
REMARK UNBOUND:                -0.501
REMARK  2 active torsions:
REMARK  status: ('A' for Active; 'I' for Inactive)
REMARK    1  A    between atoms: C_3  and  C_4 
REMARK    2  A    between atoms: C_8  and  C_10 
ROOT
HETATM    1  C   UNL     1    -117.531 200.545  -0.383  1.00  0.00     0.029 C 
HETATM    2  C   UNL     1    -117.899 201.787  -0.733  1.00  0.00     0.045 A 
HETATM    3  O   UNL     1    -117.022 201.753  -3.017  1.00  0.00    -0.267 OA
HETATM    4  C   UNL     1    -117.586 202.338  -2.097  1.00  0.00     0.257 A 
HETATM    5  C   UNL     1    -119.147 202.986   1.236  1.00  0.00     0.015 A 
HETATM    6  C   UNL     1    -118.586 202.855  -0.034  1.00  0.00     0.006 A 
HETATM    7  N   UNL     1    -118.061 203.602  -2.125  1.00  0.00    -0.322 N 
ATOM      8  HN  UNL     1    -117.989 204.225  -2.930  1.00  0.00     0.169 HD
HETATM    9  C   UNL     1    -119.760 204.177   1.596  1.00  0.00     0.001 A 
HETATM   10  C   UNL     1    -119.819 205.244   0.710  1.00  0.00     0.002 A 
HETATM   11  C   UNL     1    -119.271 205.142  -0.561  1.00  0.00     0.030 A 
HETATM   12  C   UNL     1    -118.660 203.950  -0.921  1.00  0.00     0.046 A 
ENDROOT
BRANCH   1  13
HETATM   13  C   UNL     1    -117.729 199.857   0.893  1.00  0.00    -0.035 A 
HETATM   14  C   UNL     1    -117.020 200.163   2.054  1.00  0.00     0.012 A 
HETATM   15  C   UNL     1    -117.284 199.513   3.246  1.00  0.00     0.019 A 
HETATM   16  C   UNL     1    -118.258 198.524   3.310  1.00  0.00     0.040 A 
HETATM   17  C   UNL     1    -118.953 198.202   2.154  1.00  0.00     0.019 A 
HETATM   18  C   UNL     1    -118.697 198.861   0.968  1.00  0.00     0.012 A 
BRANCH  16  19
HETATM   19  C   UNL     1    -118.580 197.830   4.583  1.00  0.00     0.209 C 
HETATM   20  O   UNL     1    -119.851 197.774   4.886  1.00  0.00    -0.644 OA
HETATM   21  O   UNL     1    -117.684 197.348   5.278  1.00  0.00    -0.644 OA
ENDBRANCH  16  19
ENDBRANCH   1  13
TORSDOF 2
ENDMDL
MODEL 19
REMARK VINA RESULT:    -7.642      3.552      5.255
REMARK INTER + INTRA:          -9.037
REMARK INTER:                  -8.487
REMARK INTRA:                  -0.550
REMARK UNBOUND:                -0.501
REMARK  2 active torsions:
REMARK  status: ('A' for Active; 'I' for Inactive)
REMARK    1  A    between atoms: C_3  and  C_4 
REMARK    2  A    between atoms: C_8  and  C_10 
ROOT
HETATM    1  C   UNL     1    -117.114 199.853   0.117  1.00  0.00     0.029 C 
HETATM    2  C   UNL     1    -117.485 199.463   1.346  1.00  0.00     0.045 A 
HETATM    3  O   UNL     1    -115.885 197.629   1.601  1.00  0.00    -0.267 OA
HETATM    4  C   UNL     1    -116.815 198.304   2.031  1.00  0.00     0.257 A 
HETATM    5  C   UNL     1    -119.436 200.958   2.257  1.00  0.00     0.015 A 
HETATM    6  C   UNL     1    -118.498 199.927   2.273  1.00  0.00     0.006 A 
HETATM    7  N   UNL     1    -117.425 198.154   3.228  1.00  0.00    -0.322 N 
ATOM      8  HN  UNL     1    -117.178 197.438   3.912  1.00  0.00     0.169 HD
HETATM    9  C   UNL     1    -120.274 201.143   3.347  1.00  0.00     0.001 A 
HETATM   10  C   UNL     1    -120.194 200.310   4.455  1.00  0.00     0.002 A 
HETATM   11  C   UNL     1    -119.269 199.277   4.500  1.00  0.00     0.030 A 
HETATM   12  C   UNL     1    -118.430 199.095   3.411  1.00  0.00     0.046 A 
ENDROOT
BRANCH   1  13
HETATM   13  C   UNL     1    -117.661 200.933  -0.704  1.00  0.00    -0.035 A 
HETATM   14  C   UNL     1    -117.539 202.285  -0.386  1.00  0.00     0.012 A 
HETATM   15  C   UNL     1    -118.034 203.266  -1.226  1.00  0.00     0.019 A 
HETATM   16  C   UNL     1    -118.682 202.923  -2.406  1.00  0.00     0.040 A 
HETATM   17  C   UNL     1    -118.824 201.579  -2.719  1.00  0.00     0.019 A 
HETATM   18  C   UNL     1    -118.318 200.602  -1.886  1.00  0.00     0.012 A 
BRANCH  16  19
HETATM   19  C   UNL     1    -119.199 203.958  -3.339  1.00  0.00     0.209 C 
HETATM   20  O   UNL     1    -119.749 205.000  -2.771  1.00  0.00    -0.644 OA
HETATM   21  O   UNL     1    -119.093 203.811  -4.557  1.00  0.00    -0.644 OA
ENDBRANCH  16  19
ENDBRANCH   1  13
TORSDOF 2
ENDMDL
MODEL 20
REMARK VINA RESULT:    -7.572      4.470      6.624
REMARK INTER + INTRA:          -8.959
REMARK INTER:                  -8.278
REMARK INTRA:                  -0.681
REMARK UNBOUND:                -0.501
REMARK  2 active torsions:
REMARK  status: ('A' for Active; 'I' for Inactive)
REMARK    1  A    between atoms: C_3  and  C_4 
REMARK    2  A    between atoms: C_8  and  C_10 
ROOT
HETATM    1  C   UNL     1    -117.889 201.012   1.939  1.00  0.00     0.029 C 
HETATM    2  C   UNL     1    -117.797 201.519   0.700  1.00  0.00     0.045 A 
HETATM    3  O   UNL     1    -117.427 203.854   1.332  1.00  0.00    -0.267 OA
HETATM    4  C   UNL     1    -117.575 202.989   0.473  1.00  0.00     0.257 A 
HETATM    5  C   UNL     1    -118.065 199.639  -1.107  1.00  0.00     0.015 A 
HETATM    6  C   UNL     1    -117.887 200.934  -0.623  1.00  0.00     0.006 A 
HETATM    7  N   UNL     1    -117.554 203.179  -0.864  1.00  0.00    -0.322 N 
ATOM      8  HN  UNL     1    -117.421 204.085  -1.313  1.00  0.00     0.169 HD
HETATM    9  C   UNL     1    -118.092 199.414  -2.475  1.00  0.00     0.001 A 
HETATM   10  C   UNL     1    -117.946 200.463  -3.372  1.00  0.00     0.002 A 
HETATM   11  C   UNL     1    -117.765 201.762  -2.921  1.00  0.00     0.030 A 
HETATM   12  C   UNL     1    -117.737 201.986  -1.552  1.00  0.00     0.046 A 
ENDROOT
BRANCH   1  13
HETATM   13  C   UNL     1    -118.123 199.626   2.345  1.00  0.00    -0.035 A 
HETATM   14  C   UNL     1    -119.377 199.121   2.687  1.00  0.00     0.012 A 
HETATM   15  C   UNL     1    -119.547 197.789   3.016  1.00  0.00     0.019 A 
HETATM   16  C   UNL     1    -118.462 196.921   3.027  1.00  0.00     0.040 A 
HETATM   17  C   UNL     1    -117.208 197.422   2.707  1.00  0.00     0.019 A 
HETATM   18  C   UNL     1    -117.043 198.749   2.366  1.00  0.00     0.012 A 
BRANCH  16  19
HETATM   19  C   UNL     1    -118.621 195.480   3.350  1.00  0.00     0.209 C 
HETATM   20  O   UNL     1    -119.737 195.160   3.954  1.00  0.00    -0.644 OA
HETATM   21  O   UNL     1    -117.743 194.670   3.049  1.00  0.00    -0.644 OA
ENDBRANCH  16  19
ENDBRANCH   1  13
TORSDOF 2
ENDMDL
