MODEL 1
REMARK VINA RESULT:    -9.348      0.000      0.000
REMARK INTER + INTRA:         -13.379
REMARK INTER:                 -11.534
REMARK INTRA:                  -1.845
REMARK UNBOUND:                -1.845
REMARK  6 active torsions:
REMARK  status: ('A' for Active; 'I' for Inactive)
REMARK    1  A    between atoms: C_10  and  O_11 
REMARK    2  A    between atoms: C_13  and  N_14 
REMARK    3  A    between atoms: C_23  and  N_24 
REMARK    4  A    between atoms: C_39  and  O_40 
REMARK    5  A    between atoms: C_42  and  N_43 
REMARK    6  A    between atoms: C_52  and  N_53 
ROOT
HETATM    1  P   UNL     1     -24.499 -28.557  -0.865  1.00  0.00     0.408 P 
HETATM    2  O   UNL     1     -23.230 -27.735  -1.194  1.00  0.00    -0.624 OA
HETATM    3  O   UNL     1     -24.271 -30.012  -0.726  1.00  0.00    -0.624 OA
HETATM    4  O   UNL     1     -25.149 -27.856   0.407  1.00  0.00    -0.287 OA
HETATM    5  C   UNL     1     -26.199 -28.458   1.164  1.00  0.00     0.216 C 
HETATM    6  C   UNL     1     -26.533 -27.653   2.392  1.00  0.00     0.180 C 
HETATM    7  O   UNL     1     -25.414 -27.677   3.305  1.00  0.00    -0.353 OA
HETATM    8  C   UNL     1     -26.754 -26.165   2.181  1.00  0.00     0.198 C 
HETATM    9  O   UNL     1     -28.026 -25.879   1.627  1.00  0.00    -0.279 OA
HETATM   10  C   UNL     1     -26.572 -25.626   3.597  1.00  0.00     0.199 C 
HETATM   11  C   UNL     1     -25.380 -26.476   4.060  1.00  0.00     0.262 C 
HETATM   12  P   UNL     1     -28.263 -24.776   0.506  1.00  0.00     0.408 P 
HETATM   13  O   UNL     1     -27.471 -23.500   0.878  1.00  0.00    -0.624 OA
HETATM   14  O   UNL     1     -29.737 -24.640   0.206  1.00  0.00    -0.624 OA
HETATM   15  O   UNL     1     -27.468 -25.347  -0.742  1.00  0.00    -0.287 OA
HETATM   16  C   UNL     1     -28.049 -26.346  -1.583  1.00  0.00     0.216 C 
HETATM   17  C   UNL     1     -27.187 -26.616  -2.786  1.00  0.00     0.180 C 
HETATM   18  O   UNL     1     -27.121 -25.440  -3.622  1.00  0.00    -0.353 OA
HETATM   19  C   UNL     1     -25.725 -26.883  -2.488  1.00  0.00     0.198 C 
HETATM   20  O   UNL     1     -25.554 -28.194  -2.011  1.00  0.00    -0.279 OA
HETATM   21  C   UNL     1     -25.082 -26.644  -3.851  1.00  0.00     0.199 C 
HETATM   22  C   UNL     1     -25.892 -25.430  -4.330  1.00  0.00     0.262 C 
ENDROOT
BRANCH  11  23
HETATM   23  N   UNL     1     -24.075 -25.843   3.837  1.00  0.00    -0.297 N 
HETATM   24  C   UNL     1     -23.599 -24.546   4.182  1.00  0.00     0.188 A 
HETATM   25  N   UNL     1     -22.333 -24.344   3.730  1.00  0.00    -0.345 N 
HETATM   26  C   UNL     1     -21.995 -25.549   3.084  1.00  0.00     0.147 A 
ATOM     27  HN  UNL     1     -21.758 -23.508   3.835  1.00  0.00     0.167 HD
HETATM   28  C   UNL     1     -23.047 -26.471   3.150  1.00  0.00     0.159 A 
HETATM   29  C   UNL     1     -20.788 -25.905   2.409  1.00  0.00     0.290 A 
HETATM   30  N   UNL     1     -23.091 -27.747   2.637  1.00  0.00    -0.174 N 
HETATM   31  C   UNL     1     -21.938 -28.063   1.989  1.00  0.00     0.680 A 
ATOM     32  HN  UNL     1     -23.888 -28.377   2.731  1.00  0.00     0.186 HD
HETATM   33  N   UNL     1     -20.838 -27.234   1.862  1.00  0.00    -0.154 N 
ATOM     34  HN  UNL     1     -20.024 -27.583   1.356  1.00  0.00     0.187 HD
HETATM   35  O   UNL     1     -19.763 -25.274   2.229  1.00  0.00    -0.265 OA
BRANCH  31  36
HETATM   36  N   UNL     1     -21.877 -29.300   1.399  1.00  0.00    -0.234 N 
ATOM     37  HN2 UNL     1     -20.985 -29.792   1.452  1.00  0.00     0.174 HD
ATOM     38  HN1 UNL     1     -22.724 -29.658   0.959  1.00  0.00     0.174 HD
ENDBRANCH  31  36
ENDBRANCH  11  23
BRANCH  10  39
HETATM   39  O   UNL     1     -27.663 -25.914   4.473  1.00  0.00    -0.388 OA
ATOM     40  HO  UNL     1     -27.404 -26.074   5.373  1.00  0.00     0.210 HD
ENDBRANCH  10  39
BRANCH  21  41
HETATM   41  O   UNL     1     -25.299 -27.737  -4.740  1.00  0.00    -0.388 OA
ATOM     42  HO  UNL     1     -25.693 -28.457  -4.262  1.00  0.00     0.210 HD
ENDBRANCH  21  41
BRANCH  22  43
HETATM   43  N   UNL     1     -25.225 -24.160  -4.036  1.00  0.00    -0.297 N 
HETATM   44  C   UNL     1     -24.546 -23.453  -5.003  1.00  0.00     0.159 A 
HETATM   45  N   UNL     1     -24.359 -23.865  -6.296  1.00  0.00    -0.174 N 
HETATM   46  C   UNL     1     -24.122 -22.257  -4.405  1.00  0.00     0.147 A 
HETATM   47  C   UNL     1     -23.689 -22.942  -7.035  1.00  0.00     0.680 A 
ATOM     48  HN  UNL     1     -24.684 -24.760  -6.662  1.00  0.00     0.186 HD
HETATM   49  N   UNL     1     -23.229 -21.722  -6.557  1.00  0.00    -0.154 N 
HETATM   50  C   UNL     1     -23.418 -21.291  -5.194  1.00  0.00     0.290 A 
ATOM     51  HN  UNL     1     -22.734 -21.103  -7.200  1.00  0.00     0.187 HD
HETATM   52  O   UNL     1     -23.005 -20.176  -4.915  1.00  0.00    -0.265 OA
HETATM   53  N   UNL     1     -24.509 -22.210  -3.050  1.00  0.00    -0.345 N 
HETATM   54  C   UNL     1     -25.177 -23.381  -2.846  1.00  0.00     0.188 A 
ATOM     55  HN  UNL     1     -24.328 -21.467  -2.374  1.00  0.00     0.167 HD
BRANCH  47  56
HETATM   56  N   UNL     1     -23.474 -23.250  -8.359  1.00  0.00    -0.234 N 
ATOM     57  HN2 UNL     1     -23.771 -22.579  -9.068  1.00  0.00     0.174 HD
ATOM     58  HN1 UNL     1     -23.034 -24.150  -8.554  1.00  0.00     0.174 HD
ENDBRANCH  47  56
ENDBRANCH  22  43
TORSDOF 6
ENDMDL
MODEL 2
REMARK VINA RESULT:    -9.190      0.156      7.956
REMARK INTER + INTRA:         -13.184
REMARK INTER:                 -11.436
REMARK INTRA:                  -1.748
REMARK UNBOUND:                -1.845
REMARK  6 active torsions:
REMARK  status: ('A' for Active; 'I' for Inactive)
REMARK    1  A    between atoms: C_10  and  O_11 
REMARK    2  A    between atoms: C_13  and  N_14 
REMARK    3  A    between atoms: C_23  and  N_24 
REMARK    4  A    between atoms: C_39  and  O_40 
REMARK    5  A    between atoms: C_42  and  N_43 
REMARK    6  A    between atoms: C_52  and  N_53 
ROOT
HETATM    1  P   UNL     1     -28.230 -24.831   0.491  1.00  0.00     0.408 P 
HETATM    2  O   UNL     1     -27.416 -23.581   0.900  1.00  0.00    -0.624 OA
HETATM    3  O   UNL     1     -29.674 -24.585   0.284  1.00  0.00    -0.624 OA
HETATM    4  O   UNL     1     -27.469 -25.451  -0.761  1.00  0.00    -0.287 OA
HETATM    5  C   UNL     1     -28.040 -26.474  -1.578  1.00  0.00     0.216 C 
HETATM    6  C   UNL     1     -27.173 -26.780  -2.771  1.00  0.00     0.180 C 
HETATM    7  O   UNL     1     -27.140 -25.636  -3.651  1.00  0.00    -0.353 OA
HETATM    8  C   UNL     1     -25.700 -27.023  -2.489  1.00  0.00     0.198 C 
HETATM    9  O   UNL     1     -25.455 -28.312  -1.958  1.00  0.00    -0.279 OA
HETATM   10  C   UNL     1     -25.087 -26.805  -3.870  1.00  0.00     0.199 C 
HETATM   11  C   UNL     1     -25.900 -25.592  -4.341  1.00  0.00     0.262 C 
HETATM   12  P   UNL     1     -24.415 -28.593  -0.788  1.00  0.00     0.408 P 
HETATM   13  O   UNL     1     -23.114 -27.804  -1.070  1.00  0.00    -0.624 OA
HETATM   14  O   UNL     1     -24.307 -30.075  -0.524  1.00  0.00    -0.624 OA
HETATM   15  O   UNL     1     -25.043 -27.828   0.450  1.00  0.00    -0.287 OA
HETATM   16  C   UNL     1     -26.090 -28.422   1.221  1.00  0.00     0.216 C 
HETATM   17  C   UNL     1     -26.416 -27.592   2.433  1.00  0.00     0.180 C 
HETATM   18  O   UNL     1     -25.285 -27.562   3.331  1.00  0.00    -0.353 OA
HETATM   19  C   UNL     1     -26.654 -26.120   2.164  1.00  0.00     0.198 C 
HETATM   20  O   UNL     1     -27.937 -25.922   1.624  1.00  0.00    -0.279 OA
HETATM   21  C   UNL     1     -26.483 -25.518   3.556  1.00  0.00     0.199 C 
HETATM   22  C   UNL     1     -25.302 -26.354   4.074  1.00  0.00     0.262 C 
ENDROOT
BRANCH  11  23
HETATM   23  N   UNL     1     -25.269 -24.300  -4.048  1.00  0.00    -0.297 N 
HETATM   24  C   UNL     1     -25.238 -23.531  -2.851  1.00  0.00     0.188 A 
HETATM   25  N   UNL     1     -24.585 -22.352  -3.033  1.00  0.00    -0.345 N 
HETATM   26  C   UNL     1     -24.186 -22.378  -4.384  1.00  0.00     0.147 A 
ATOM     27  HN  UNL     1     -24.422 -21.616  -2.347  1.00  0.00     0.167 HD
HETATM   28  C   UNL     1     -24.593 -23.564  -5.008  1.00  0.00     0.159 A 
HETATM   29  C   UNL     1     -23.474 -21.394  -5.135  1.00  0.00     0.290 A 
HETATM   30  N   UNL     1     -24.389 -23.948  -6.314  1.00  0.00    -0.174 N 
HETATM   31  C   UNL     1     -23.720 -22.995  -7.015  1.00  0.00     0.680 A 
ATOM     32  HN  UNL     1     -24.700 -24.837  -6.706  1.00  0.00     0.186 HD
HETATM   33  N   UNL     1     -23.272 -21.790  -6.503  1.00  0.00    -0.154 N 
ATOM     34  HN  UNL     1     -22.775 -21.153  -7.125  1.00  0.00     0.187 HD
HETATM   35  O   UNL     1     -23.034 -20.309  -4.805  1.00  0.00    -0.265 OA
BRANCH  31  36
HETATM   36  N   UNL     1     -23.490 -23.248  -8.343  1.00  0.00    -0.234 N 
ATOM     37  HN2 UNL     1     -22.824 -22.641  -8.820  1.00  0.00     0.174 HD
ATOM     38  HN1 UNL     1     -23.985 -24.031  -8.769  1.00  0.00     0.174 HD
ENDBRANCH  31  36
ENDBRANCH  11  23
BRANCH  10  39
HETATM   39  O   UNL     1     -25.337 -27.868  -4.790  1.00  0.00    -0.388 OA
ATOM     40  HO  UNL     1     -25.665 -28.662  -4.384  1.00  0.00     0.210 HD
ENDBRANCH  10  39
BRANCH  21  41
HETATM   41  O   UNL     1     -27.622 -25.750   4.379  1.00  0.00    -0.388 OA
ATOM     42  HO  UNL     1     -27.415 -26.420   5.021  1.00  0.00     0.210 HD
ENDBRANCH  21  41
BRANCH  22  43
HETATM   43  N   UNL     1     -24.013 -25.692   3.866  1.00  0.00    -0.297 N 
HETATM   44  C   UNL     1     -22.974 -26.311   3.209  1.00  0.00     0.159 A 
HETATM   45  N   UNL     1     -22.991 -27.600   2.744  1.00  0.00    -0.174 N 
HETATM   46  C   UNL     1     -21.941 -25.367   3.105  1.00  0.00     0.147 A 
HETATM   47  C   UNL     1     -21.841 -27.926   2.098  1.00  0.00     0.680 A 
ATOM     48  HN  UNL     1     -23.776 -28.241   2.868  1.00  0.00     0.186 HD
HETATM   49  N   UNL     1     -20.757 -27.076   1.924  1.00  0.00    -0.154 N 
HETATM   50  C   UNL     1     -20.735 -25.722   2.420  1.00  0.00     0.290 A 
ATOM     51  HN  UNL     1     -19.939 -27.424   1.424  1.00  0.00     0.187 HD
HETATM   52  O   UNL     1     -19.738 -25.065   2.160  1.00  0.00    -0.265 OA
HETATM   53  N   UNL     1     -22.311 -24.152   3.717  1.00  0.00    -0.345 N 
HETATM   54  C   UNL     1     -23.576 -24.373   4.176  1.00  0.00     0.188 A 
ATOM     55  HN  UNL     1     -21.757 -23.299   3.798  1.00  0.00     0.167 HD
BRANCH  47  56
HETATM   56  N   UNL     1     -21.769 -29.194   1.568  1.00  0.00    -0.234 N 
ATOM     57  HN2 UNL     1     -21.162 -29.350   0.763  1.00  0.00     0.174 HD
ATOM     58  HN1 UNL     1     -22.347 -29.909   2.012  1.00  0.00     0.174 HD
ENDBRANCH  47  56
ENDBRANCH  22  43
TORSDOF 6
ENDMDL
MODEL 3
REMARK VINA RESULT:    -8.821      1.136      2.176
REMARK INTER + INTRA:         -12.729
REMARK INTER:                 -11.440
REMARK INTRA:                  -1.288
REMARK UNBOUND:                -1.845
REMARK  6 active torsions:
REMARK  status: ('A' for Active; 'I' for Inactive)
REMARK    1  A    between atoms: C_10  and  O_11 
REMARK    2  A    between atoms: C_13  and  N_14 
REMARK    3  A    between atoms: C_23  and  N_24 
REMARK    4  A    between atoms: C_39  and  O_40 
REMARK    5  A    between atoms: C_42  and  N_43 
REMARK    6  A    between atoms: C_52  and  N_53 
ROOT
HETATM    1  P   UNL     1     -24.486 -28.602  -0.880  1.00  0.00     0.408 P 
HETATM    2  O   UNL     1     -23.222 -27.770  -1.201  1.00  0.00    -0.624 OA
HETATM    3  O   UNL     1     -24.249 -30.056  -0.750  1.00  0.00    -0.624 OA
HETATM    4  O   UNL     1     -25.144 -27.914   0.394  1.00  0.00    -0.287 OA
HETATM    5  C   UNL     1     -26.193 -28.528   1.144  1.00  0.00     0.216 C 
HETATM    6  C   UNL     1     -26.535 -27.732   2.376  1.00  0.00     0.180 C 
HETATM    7  O   UNL     1     -25.419 -27.754   3.292  1.00  0.00    -0.353 OA
HETATM    8  C   UNL     1     -26.766 -26.245   2.174  1.00  0.00     0.198 C 
HETATM    9  O   UNL     1     -28.038 -25.963   1.618  1.00  0.00    -0.279 OA
HETATM   10  C   UNL     1     -26.591 -25.714   3.594  1.00  0.00     0.199 C 
HETATM   11  C   UNL     1     -25.395 -26.558   4.054  1.00  0.00     0.262 C 
HETATM   12  P   UNL     1     -28.280 -24.856   0.503  1.00  0.00     0.408 P 
HETATM   13  O   UNL     1     -27.498 -23.577   0.886  1.00  0.00    -0.624 OA
HETATM   14  O   UNL     1     -29.754 -24.728   0.200  1.00  0.00    -0.624 OA
HETATM   15  O   UNL     1     -27.477 -25.413  -0.746  1.00  0.00    -0.287 OA
HETATM   16  C   UNL     1     -28.049 -26.411  -1.595  1.00  0.00     0.216 C 
HETATM   17  C   UNL     1     -27.182 -26.668  -2.797  1.00  0.00     0.180 C 
HETATM   18  O   UNL     1     -27.122 -25.486  -3.626  1.00  0.00    -0.353 OA
HETATM   19  C   UNL     1     -25.719 -26.926  -2.497  1.00  0.00     0.198 C 
HETATM   20  O   UNL     1     -25.541 -28.239  -2.028  1.00  0.00    -0.279 OA
HETATM   21  C   UNL     1     -25.074 -26.675  -3.856  1.00  0.00     0.199 C 
HETATM   22  C   UNL     1     -25.891 -25.463  -4.331  1.00  0.00     0.262 C 
ENDROOT
BRANCH  11  23
HETATM   23  N   UNL     1     -24.094 -25.915   3.839  1.00  0.00    -0.297 N 
HETATM   24  C   UNL     1     -23.123 -26.099   2.815  1.00  0.00     0.188 A 
HETATM   25  N   UNL     1     -22.019 -25.336   3.031  1.00  0.00    -0.345 N 
HETATM   26  C   UNL     1     -22.301 -24.643   4.226  1.00  0.00     0.147 A 
ATOM     27  HN  UNL     1     -21.177 -25.278   2.458  1.00  0.00     0.167 HD
HETATM   28  C   UNL     1     -23.565 -24.985   4.722  1.00  0.00     0.159 A 
HETATM   29  C   UNL     1     -21.493 -23.707   4.939  1.00  0.00     0.290 A 
HETATM   30  N   UNL     1     -24.184 -24.518   5.858  1.00  0.00    -0.174 N 
HETATM   31  C   UNL     1     -23.396 -23.638   6.530  1.00  0.00     0.680 A 
ATOM     32  HN  UNL     1     -25.118 -24.798   6.159  1.00  0.00     0.186 HD
HETATM   33  N   UNL     1     -22.135 -23.229   6.135  1.00  0.00    -0.154 N 
ATOM     34  HN  UNL     1     -21.637 -22.558   6.718  1.00  0.00     0.187 HD
HETATM   35  O   UNL     1     -20.381 -23.273   4.700  1.00  0.00    -0.265 OA
BRANCH  31  36
HETATM   36  N   UNL     1     -23.891 -23.132   7.704  1.00  0.00    -0.234 N 
ATOM     37  HN2 UNL     1     -24.865 -22.831   7.703  1.00  0.00     0.174 HD
ATOM     38  HN1 UNL     1     -23.265 -23.100   8.509  1.00  0.00     0.174 HD
ENDBRANCH  31  36
ENDBRANCH  11  23
BRANCH  10  39
HETATM   39  O   UNL     1     -27.683 -26.015   4.465  1.00  0.00    -0.388 OA
ATOM     40  HO  UNL     1     -27.836 -25.358   5.134  1.00  0.00     0.210 HD
ENDBRANCH  10  39
BRANCH  21  41
HETATM   41  O   UNL     1     -25.282 -27.763  -4.753  1.00  0.00    -0.388 OA
ATOM     42  HO  UNL     1     -24.966 -28.565  -4.353  1.00  0.00     0.210 HD
ENDBRANCH  21  41
BRANCH  22  43
HETATM   43  N   UNL     1     -25.234 -24.191  -4.026  1.00  0.00    -0.297 N 
HETATM   44  C   UNL     1     -24.557 -23.473  -4.987  1.00  0.00     0.159 A 
HETATM   45  N   UNL     1     -24.362 -23.877  -6.282  1.00  0.00    -0.174 N 
HETATM   46  C   UNL     1     -24.142 -22.278  -4.381  1.00  0.00     0.147 A 
HETATM   47  C   UNL     1     -23.696 -22.945  -7.013  1.00  0.00     0.680 A 
ATOM     48  HN  UNL     1     -24.680 -24.772  -6.654  1.00  0.00     0.186 HD
HETATM   49  N   UNL     1     -23.245 -21.725  -6.526  1.00  0.00    -0.154 N 
HETATM   50  C   UNL     1     -23.442 -21.303  -5.162  1.00  0.00     0.290 A 
ATOM     51  HN  UNL     1     -22.752 -21.098  -7.163  1.00  0.00     0.187 HD
HETATM   52  O   UNL     1     -23.037 -20.187  -4.875  1.00  0.00    -0.265 OA
HETATM   53  N   UNL     1     -24.534 -22.242  -3.026  1.00  0.00    -0.345 N 
HETATM   54  C   UNL     1     -25.195 -23.418  -2.832  1.00  0.00     0.188 A 
ATOM     55  HN  UNL     1     -24.361 -21.502  -2.346  1.00  0.00     0.167 HD
BRANCH  47  56
HETATM   56  N   UNL     1     -23.474 -23.244  -8.338  1.00  0.00    -0.234 N 
ATOM     57  HN2 UNL     1     -24.270 -23.236  -8.977  1.00  0.00     0.174 HD
ATOM     58  HN1 UNL     1     -22.515 -23.469  -8.601  1.00  0.00     0.174 HD
ENDBRANCH  47  56
ENDBRANCH  22  43
TORSDOF 6
ENDMDL
MODEL 4
REMARK VINA RESULT:    -8.778      1.199      8.475
REMARK INTER + INTRA:         -12.676
REMARK INTER:                 -11.407
REMARK INTRA:                  -1.269
REMARK UNBOUND:                -1.845
REMARK  6 active torsions:
REMARK  status: ('A' for Active; 'I' for Inactive)
REMARK    1  A    between atoms: C_10  and  O_11 
REMARK    2  A    between atoms: C_13  and  N_14 
REMARK    3  A    between atoms: C_23  and  N_24 
REMARK    4  A    between atoms: C_39  and  O_40 
REMARK    5  A    between atoms: C_42  and  N_43 
REMARK    6  A    between atoms: C_52  and  N_53 
ROOT
HETATM    1  P   UNL     1     -28.224 -24.805   0.488  1.00  0.00     0.408 P 
HETATM    2  O   UNL     1     -27.412 -23.554   0.896  1.00  0.00    -0.624 OA
HETATM    3  O   UNL     1     -29.669 -24.561   0.283  1.00  0.00    -0.624 OA
HETATM    4  O   UNL     1     -27.464 -25.423  -0.765  1.00  0.00    -0.287 OA
HETATM    5  C   UNL     1     -28.034 -26.446  -1.583  1.00  0.00     0.216 C 
HETATM    6  C   UNL     1     -27.169 -26.750  -2.777  1.00  0.00     0.180 C 
HETATM    7  O   UNL     1     -27.139 -25.605  -3.656  1.00  0.00    -0.353 OA
HETATM    8  C   UNL     1     -25.695 -26.990  -2.498  1.00  0.00     0.198 C 
HETATM    9  O   UNL     1     -25.447 -28.280  -1.968  1.00  0.00    -0.279 OA
HETATM   10  C   UNL     1     -25.084 -26.771  -3.879  1.00  0.00     0.199 C 
HETATM   11  C   UNL     1     -25.900 -25.559  -4.348  1.00  0.00     0.262 C 
HETATM   12  P   UNL     1     -24.405 -28.559  -0.800  1.00  0.00     0.408 P 
HETATM   13  O   UNL     1     -23.106 -27.768  -1.083  1.00  0.00    -0.624 OA
HETATM   14  O   UNL     1     -24.294 -30.042  -0.537  1.00  0.00    -0.624 OA
HETATM   15  O   UNL     1     -25.033 -27.797   0.440  1.00  0.00    -0.287 OA
HETATM   16  C   UNL     1     -26.078 -28.394   1.212  1.00  0.00     0.216 C 
HETATM   17  C   UNL     1     -26.403 -27.565   2.425  1.00  0.00     0.180 C 
HETATM   18  O   UNL     1     -25.271 -27.534   3.321  1.00  0.00    -0.353 OA
HETATM   19  C   UNL     1     -26.644 -26.093   2.158  1.00  0.00     0.198 C 
HETATM   20  O   UNL     1     -27.928 -25.897   1.620  1.00  0.00    -0.279 OA
HETATM   21  C   UNL     1     -26.471 -25.492   3.549  1.00  0.00     0.199 C 
HETATM   22  C   UNL     1     -25.289 -26.327   4.066  1.00  0.00     0.262 C 
ENDROOT
BRANCH  11  23
HETATM   23  N   UNL     1     -25.271 -24.266  -4.055  1.00  0.00    -0.297 N 
HETATM   24  C   UNL     1     -25.249 -23.492  -2.860  1.00  0.00     0.188 A 
HETATM   25  N   UNL     1     -24.594 -22.314  -3.042  1.00  0.00    -0.345 N 
HETATM   26  C   UNL     1     -24.185 -22.345  -4.390  1.00  0.00     0.147 A 
ATOM     27  HN  UNL     1     -24.435 -21.575  -2.357  1.00  0.00     0.167 HD
HETATM   28  C   UNL     1     -24.587 -23.533  -5.013  1.00  0.00     0.159 A 
HETATM   29  C   UNL     1     -23.466 -21.365  -5.139  1.00  0.00     0.290 A 
HETATM   30  N   UNL     1     -24.373 -23.923  -6.315  1.00  0.00    -0.174 N 
HETATM   31  C   UNL     1     -23.698 -22.972  -7.015  1.00  0.00     0.680 A 
ATOM     32  HN  UNL     1     -24.682 -24.813  -6.706  1.00  0.00     0.186 HD
HETATM   33  N   UNL     1     -23.253 -21.766  -6.504  1.00  0.00    -0.154 N 
ATOM     34  HN  UNL     1     -22.751 -21.131  -7.124  1.00  0.00     0.187 HD
HETATM   35  O   UNL     1     -23.028 -20.279  -4.809  1.00  0.00    -0.265 OA
BRANCH  31  36
HETATM   36  N   UNL     1     -23.458 -23.230  -8.340  1.00  0.00    -0.234 N 
ATOM     37  HN2 UNL     1     -23.778 -24.129  -8.700  1.00  0.00     0.174 HD
ATOM     38  HN1 UNL     1     -22.991 -22.508  -8.887  1.00  0.00     0.174 HD
ENDBRANCH  31  36
ENDBRANCH  11  23
BRANCH  10  39
HETATM   39  O   UNL     1     -25.334 -27.833  -4.800  1.00  0.00    -0.388 OA
ATOM     40  HO  UNL     1     -26.231 -27.871  -5.112  1.00  0.00     0.210 HD
ENDBRANCH  10  39
BRANCH  21  41
HETATM   41  O   UNL     1     -27.609 -25.727   4.375  1.00  0.00    -0.388 OA
ATOM     42  HO  UNL     1     -27.919 -24.900   4.725  1.00  0.00     0.210 HD
ENDBRANCH  21  41
BRANCH  22  43
HETATM   43  N   UNL     1     -24.001 -25.662   3.856  1.00  0.00    -0.297 N 
HETATM   44  C   UNL     1     -23.494 -24.756   4.761  1.00  0.00     0.159 A 
HETATM   45  N   UNL     1     -24.136 -24.328   5.893  1.00  0.00    -0.174 N 
HETATM   46  C   UNL     1     -22.219 -24.396   4.300  1.00  0.00     0.147 A 
HETATM   47  C   UNL     1     -23.376 -23.466   6.617  1.00  0.00     0.680 A 
ATOM     48  HN  UNL     1     -25.075 -24.622   6.161  1.00  0.00     0.186 HD
HETATM   49  N   UNL     1     -22.099 -23.043   6.267  1.00  0.00    -0.154 N 
HETATM   50  C   UNL     1     -21.426 -23.487   5.072  1.00  0.00     0.290 A 
ATOM     51  HN  UNL     1     -21.616 -22.390   6.884  1.00  0.00     0.187 HD
HETATM   52  O   UNL     1     -20.288 -23.076   4.906  1.00  0.00    -0.265 OA
HETATM   53  N   UNL     1     -21.920 -25.053   3.088  1.00  0.00    -0.345 N 
HETATM   54  C   UNL     1     -23.021 -25.818   2.836  1.00  0.00     0.188 A 
ATOM     55  HN  UNL     1     -21.072 -24.975   2.527  1.00  0.00     0.167 HD
BRANCH  47  56
HETATM   56  N   UNL     1     -23.921 -22.997   7.790  1.00  0.00    -0.234 N 
ATOM     57  HN2 UNL     1     -23.307 -22.534   8.460  1.00  0.00     0.174 HD
ATOM     58  HN1 UNL     1     -24.920 -23.155   7.925  1.00  0.00     0.174 HD
ENDBRANCH  47  56
ENDBRANCH  22  43
TORSDOF 6
ENDMDL
MODEL 5
REMARK VINA RESULT:    -8.305      9.645     13.140
REMARK INTER + INTRA:         -12.093
REMARK INTER:                 -10.464
REMARK INTRA:                  -1.628
REMARK UNBOUND:                -1.845
REMARK  6 active torsions:
REMARK  status: ('A' for Active; 'I' for Inactive)
REMARK    1  A    between atoms: C_10  and  O_11 
REMARK    2  A    between atoms: C_13  and  N_14 
REMARK    3  A    between atoms: C_23  and  N_24 
REMARK    4  A    between atoms: C_39  and  O_40 
REMARK    5  A    between atoms: C_42  and  N_43 
REMARK    6  A    between atoms: C_52  and  N_53 
ROOT
HETATM    1  P   UNL     1     -18.957 -19.075  -3.968  1.00  0.00     0.408 P 
HETATM    2  O   UNL     1     -19.040 -19.402  -5.477  1.00  0.00    -0.624 OA
HETATM    3  O   UNL     1     -20.107 -19.554  -3.171  1.00  0.00    -0.624 OA
HETATM    4  O   UNL     1     -17.538 -19.612  -3.487  1.00  0.00    -0.287 OA
HETATM    5  C   UNL     1     -17.183 -19.719  -2.108  1.00  0.00     0.216 C 
HETATM    6  C   UNL     1     -15.845 -20.384  -1.928  1.00  0.00     0.180 C 
HETATM    7  O   UNL     1     -15.928 -21.762  -2.354  1.00  0.00    -0.353 OA
HETATM    8  C   UNL     1     -14.706 -19.845  -2.777  1.00  0.00     0.198 C 
HETATM    9  O   UNL     1     -14.186 -18.626  -2.277  1.00  0.00    -0.279 OA
HETATM   10  C   UNL     1     -13.710 -21.001  -2.719  1.00  0.00     0.199 C 
HETATM   11  C   UNL     1     -14.669 -22.192  -2.848  1.00  0.00     0.262 C 
HETATM   12  P   UNL     1     -13.762 -17.409  -3.208  1.00  0.00     0.408 P 
HETATM   13  O   UNL     1     -12.958 -17.953  -4.413  1.00  0.00    -0.624 OA
HETATM   14  O   UNL     1     -13.149 -16.304  -2.382  1.00  0.00    -0.624 OA
HETATM   15  O   UNL     1     -15.133 -16.953  -3.861  1.00  0.00    -0.287 OA
HETATM   16  C   UNL     1     -16.037 -16.108  -3.146  1.00  0.00     0.216 C 
HETATM   17  C   UNL     1     -17.187 -15.677  -4.015  1.00  0.00     0.180 C 
HETATM   18  O   UNL     1     -16.706 -14.850  -5.097  1.00  0.00    -0.353 OA
HETATM   19  C   UNL     1     -17.895 -16.795  -4.753  1.00  0.00     0.198 C 
HETATM   20  O   UNL     1     -18.751 -17.491  -3.882  1.00  0.00    -0.279 OA
HETATM   21  C   UNL     1     -18.633 -16.028  -5.846  1.00  0.00     0.199 C 
HETATM   22  C   UNL     1     -17.570 -14.981  -6.214  1.00  0.00     0.262 C 
ENDROOT
BRANCH  11  23
HETATM   23  N   UNL     1     -14.863 -22.656  -4.226  1.00  0.00    -0.297 N 
HETATM   24  C   UNL     1     -14.509 -22.055  -5.468  1.00  0.00     0.188 A 
HETATM   25  N   UNL     1     -14.932 -22.803  -6.521  1.00  0.00    -0.345 N 
HETATM   26  C   UNL     1     -15.568 -23.913  -5.930  1.00  0.00     0.147 A 
ATOM     27  HN  UNL     1     -14.816 -22.605  -7.515  1.00  0.00     0.167 HD
HETATM   28  C   UNL     1     -15.525 -23.835  -4.532  1.00  0.00     0.159 A 
HETATM   29  C   UNL     1     -16.213 -25.024  -6.554  1.00  0.00     0.290 A 
HETATM   30  N   UNL     1     -16.035 -24.726  -3.617  1.00  0.00    -0.174 N 
HETATM   31  C   UNL     1     -16.656 -25.769  -4.230  1.00  0.00     0.680 A 
ATOM     32  HN  UNL     1     -15.958 -24.618  -2.605  1.00  0.00     0.186 HD
HETATM   33  N   UNL     1     -16.759 -25.948  -5.597  1.00  0.00    -0.154 N 
ATOM     34  HN  UNL     1     -17.245 -26.775  -5.943  1.00  0.00     0.187 HD
HETATM   35  O   UNL     1     -16.371 -25.291  -7.731  1.00  0.00    -0.265 OA
BRANCH  31  36
HETATM   36  N   UNL     1     -17.241 -26.707  -3.418  1.00  0.00    -0.234 N 
ATOM     37  HN2 UNL     1     -16.967 -27.679  -3.563  1.00  0.00     0.174 HD
ATOM     38  HN1 UNL     1     -17.900 -26.379  -2.712  1.00  0.00     0.174 HD
ENDBRANCH  31  36
ENDBRANCH  11  23
BRANCH  10  39
HETATM   39  O   UNL     1     -13.041 -21.128  -1.464  1.00  0.00    -0.388 OA
ATOM     40  HO  UNL     1     -12.201 -21.569  -1.517  1.00  0.00     0.210 HD
ENDBRANCH  10  39
BRANCH  21  41
HETATM   41  O   UNL     1     -19.790 -15.367  -5.341  1.00  0.00    -0.388 OA
ATOM     42  HO  UNL     1     -20.543 -15.940  -5.430  1.00  0.00     0.210 HD
ENDBRANCH  21  41
BRANCH  22  43
HETATM   43  N   UNL     1     -16.753 -15.392  -7.358  1.00  0.00    -0.297 N 
HETATM   44  C   UNL     1     -15.542 -14.800  -7.637  1.00  0.00     0.159 A 
HETATM   45  N   UNL     1     -15.001 -13.746  -6.947  1.00  0.00    -0.174 N 
HETATM   46  C   UNL     1     -14.994 -15.494  -8.726  1.00  0.00     0.147 A 
HETATM   47  C   UNL     1     -13.776 -13.401  -7.421  1.00  0.00     0.680 A 
ATOM     48  HN  UNL     1     -15.465 -13.277  -6.169  1.00  0.00     0.186 HD
HETATM   49  N   UNL     1     -13.129 -14.019  -8.484  1.00  0.00    -0.154 N 
HETATM   50  C   UNL     1     -13.701 -15.122  -9.215  1.00  0.00     0.290 A 
ATOM     51  HN  UNL     1     -12.209 -13.676  -8.759  1.00  0.00     0.187 HD
HETATM   52  O   UNL     1     -13.009 -15.604 -10.098  1.00  0.00    -0.265 OA
HETATM   53  N   UNL     1     -15.866 -16.515  -9.158  1.00  0.00    -0.345 N 
HETATM   54  C   UNL     1     -16.932 -16.433  -8.312  1.00  0.00     0.188 A 
ATOM     55  HN  UNL     1     -15.730 -17.168  -9.930  1.00  0.00     0.167 HD
BRANCH  47  56
HETATM   56  N   UNL     1     -13.134 -12.368  -6.776  1.00  0.00    -0.234 N 
ATOM     57  HN2 UNL     1     -13.652 -11.505  -6.607  1.00  0.00     0.174 HD
ATOM     58  HN1 UNL     1     -12.161 -12.527  -6.512  1.00  0.00     0.174 HD
ENDBRANCH  47  56
ENDBRANCH  22  43
TORSDOF 6
ENDMDL
MODEL 6
REMARK VINA RESULT:    -8.271      9.666     14.240
REMARK INTER + INTRA:         -12.050
REMARK INTER:                 -10.363
REMARK INTRA:                  -1.687
REMARK UNBOUND:                -1.845
REMARK  6 active torsions:
REMARK  status: ('A' for Active; 'I' for Inactive)
REMARK    1  A    between atoms: C_10  and  O_11 
REMARK    2  A    between atoms: C_13  and  N_14 
REMARK    3  A    between atoms: C_23  and  N_24 
REMARK    4  A    between atoms: C_39  and  O_40 
REMARK    5  A    between atoms: C_42  and  N_43 
REMARK    6  A    between atoms: C_52  and  N_53 
ROOT
HETATM    1  P   UNL     1     -13.794 -17.502  -3.105  1.00  0.00     0.408 P 
HETATM    2  O   UNL     1     -13.010 -18.112  -4.291  1.00  0.00    -0.624 OA
HETATM    3  O   UNL     1     -13.048 -16.483  -2.334  1.00  0.00    -0.624 OA
HETATM    4  O   UNL     1     -15.177 -17.003  -3.713  1.00  0.00    -0.287 OA
HETATM    5  C   UNL     1     -16.077 -16.165  -2.989  1.00  0.00     0.216 C 
HETATM    6  C   UNL     1     -17.239 -15.728  -3.841  1.00  0.00     0.180 C 
HETATM    7  O   UNL     1     -16.765 -14.865  -4.899  1.00  0.00    -0.353 OA
HETATM    8  C   UNL     1     -17.961 -16.822  -4.608  1.00  0.00     0.198 C 
HETATM    9  O   UNL     1     -18.829 -17.580  -3.784  1.00  0.00    -0.279 OA
HETATM   10  C   UNL     1     -18.688 -16.014  -5.679  1.00  0.00     0.199 C 
HETATM   11  C   UNL     1     -17.597 -14.997  -6.040  1.00  0.00     0.262 C 
HETATM   12  P   UNL     1     -18.987 -19.158  -3.898  1.00  0.00     0.408 P 
HETATM   13  O   UNL     1     -19.088 -19.548  -5.392  1.00  0.00    -0.624 OA
HETATM   14  O   UNL     1     -20.063 -19.647  -2.958  1.00  0.00    -0.624 OA
HETATM   15  O   UNL     1     -17.558 -19.699  -3.476  1.00  0.00    -0.287 OA
HETATM   16  C   UNL     1     -17.201 -19.822  -2.098  1.00  0.00     0.216 C 
HETATM   17  C   UNL     1     -15.869 -20.503  -1.936  1.00  0.00     0.180 C 
HETATM   18  O   UNL     1     -15.951 -21.866  -2.405  1.00  0.00    -0.353 OA
HETATM   19  C   UNL     1     -14.746 -19.937  -2.781  1.00  0.00     0.198 C 
HETATM   20  O   UNL     1     -14.259 -18.746  -2.214  1.00  0.00    -0.279 OA
HETATM   21  C   UNL     1     -13.734 -21.078  -2.756  1.00  0.00     0.199 C 
HETATM   22  C   UNL     1     -14.677 -22.287  -2.865  1.00  0.00     0.262 C 
ENDROOT
BRANCH  11  23
HETATM   23  N   UNL     1     -16.752 -15.404  -7.168  1.00  0.00    -0.297 N 
HETATM   24  C   UNL     1     -16.915 -16.446  -8.124  1.00  0.00     0.188 A 
HETATM   25  N   UNL     1     -15.854 -16.516  -8.971  1.00  0.00    -0.345 N 
HETATM   26  C   UNL     1     -14.995 -15.484  -8.542  1.00  0.00     0.147 A 
ATOM     27  HN  UNL     1     -15.711 -17.168  -9.742  1.00  0.00     0.167 HD
HETATM   28  C   UNL     1     -15.537 -14.798  -7.448  1.00  0.00     0.159 A 
HETATM   29  C   UNL     1     -13.720 -15.096  -9.056  1.00  0.00     0.290 A 
HETATM   30  N   UNL     1     -14.994 -13.737  -6.760  1.00  0.00    -0.174 N 
HETATM   31  C   UNL     1     -13.778 -13.390  -7.256  1.00  0.00     0.680 A 
ATOM     32  HN  UNL     1     -15.449 -13.269  -5.975  1.00  0.00     0.186 HD
HETATM   33  N   UNL     1     -13.148 -13.996  -8.328  1.00  0.00    -0.154 N 
ATOM     34  HN  UNL     1     -12.234 -13.646  -8.616  1.00  0.00     0.187 HD
HETATM   35  O   UNL     1     -13.068 -15.545  -9.980  1.00  0.00    -0.265 OA
BRANCH  31  36
HETATM   36  N   UNL     1     -13.118 -12.367  -6.625  1.00  0.00    -0.234 N 
ATOM     37  HN2 UNL     1     -13.320 -11.420  -6.945  1.00  0.00     0.174 HD
ATOM     38  HN1 UNL     1     -12.480 -12.610  -5.867  1.00  0.00     0.174 HD
ENDBRANCH  31  36
ENDBRANCH  11  23
BRANCH  10  39
HETATM   39  O   UNL     1     -19.810 -15.278  -5.190  1.00  0.00    -0.388 OA
ATOM     40  HO  UNL     1     -19.785 -15.113  -4.254  1.00  0.00     0.210 HD
ENDBRANCH  10  39
BRANCH  21  41
HETATM   41  O   UNL     1     -13.031 -21.139  -1.518  1.00  0.00    -0.388 OA
ATOM     42  HO  UNL     1     -13.549 -20.717  -0.842  1.00  0.00     0.210 HD
ENDBRANCH  21  41
BRANCH  22  43
HETATM   43  N   UNL     1     -14.837 -22.749  -4.245  1.00  0.00    -0.297 N 
HETATM   44  C   UNL     1     -15.453 -23.943  -4.546  1.00  0.00     0.159 A 
HETATM   45  N   UNL     1     -15.915 -24.846  -3.626  1.00  0.00    -0.174 N 
HETATM   46  C   UNL     1     -15.520 -24.021  -5.945  1.00  0.00     0.147 A 
HETATM   47  C   UNL     1     -16.516 -25.913  -4.213  1.00  0.00     0.680 A 
ATOM     48  HN  UNL     1     -15.818 -24.731  -2.616  1.00  0.00     0.186 HD
HETATM   49  N   UNL     1     -16.650 -26.097  -5.584  1.00  0.00    -0.154 N 
HETATM   50  C   UNL     1     -16.157 -25.150  -6.554  1.00  0.00     0.290 A 
ATOM     51  HN  UNL     1     -17.118 -26.939  -5.919  1.00  0.00     0.187 HD
HETATM   52  O   UNL     1     -16.381 -25.408  -7.726  1.00  0.00    -0.265 OA
HETATM   53  N   UNL     1     -14.926 -22.888  -6.539  1.00  0.00    -0.345 N 
HETATM   54  C   UNL     1     -14.515 -22.128  -5.485  1.00  0.00     0.188 A 
ATOM     55  HN  UNL     1     -14.826 -22.684  -7.534  1.00  0.00     0.167 HD
BRANCH  47  56
HETATM   56  N   UNL     1     -17.039 -26.868  -3.371  1.00  0.00    -0.234 N 
ATOM     57  HN2 UNL     1     -18.008 -26.769  -3.068  1.00  0.00     0.174 HD
ATOM     58  HN1 UNL     1     -16.412 -27.622  -3.088  1.00  0.00     0.174 HD
ENDBRANCH  47  56
ENDBRANCH  22  43
TORSDOF 6
ENDMDL
MODEL 7
REMARK VINA RESULT:    -8.082      3.346      5.829
REMARK INTER + INTRA:         -11.817
REMARK INTER:                 -10.269
REMARK INTRA:                  -1.549
REMARK UNBOUND:                -1.845
REMARK  6 active torsions:
REMARK  status: ('A' for Active; 'I' for Inactive)
REMARK    1  A    between atoms: C_10  and  O_11 
REMARK    2  A    between atoms: C_13  and  N_14 
REMARK    3  A    between atoms: C_23  and  N_24 
REMARK    4  A    between atoms: C_39  and  O_40 
REMARK    5  A    between atoms: C_42  and  N_43 
REMARK    6  A    between atoms: C_52  and  N_53 
ROOT
HETATM    1  P   UNL     1     -28.424 -25.657  -0.155  1.00  0.00     0.408 P 
HETATM    2  O   UNL     1     -28.387 -27.141  -0.590  1.00  0.00    -0.624 OA
HETATM    3  O   UNL     1     -29.783 -25.099   0.013  1.00  0.00    -0.624 OA
HETATM    4  O   UNL     1     -27.495 -25.562   1.133  1.00  0.00    -0.287 OA
HETATM    5  C   UNL     1     -27.463 -24.408   1.974  1.00  0.00     0.216 C 
HETATM    6  C   UNL     1     -26.611 -24.633   3.195  1.00  0.00     0.180 C 
HETATM    7  O   UNL     1     -27.225 -25.636   4.035  1.00  0.00    -0.353 OA
HETATM    8  C   UNL     1     -25.226 -25.209   2.953  1.00  0.00     0.198 C 
HETATM    9  O   UNL     1     -24.312 -24.240   2.472  1.00  0.00    -0.279 OA
HETATM   10  C   UNL     1     -24.874 -25.746   4.337  1.00  0.00     0.199 C 
HETATM   11  C   UNL     1     -26.225 -26.347   4.748  1.00  0.00     0.262 C 
HETATM   12  P   UNL     1     -23.241 -24.536   1.335  1.00  0.00     0.408 P 
HETATM   13  O   UNL     1     -22.572 -25.903   1.617  1.00  0.00    -0.624 OA
HETATM   14  O   UNL     1     -22.350 -23.335   1.126  1.00  0.00    -0.624 OA
HETATM   15  O   UNL     1     -24.135 -24.825   0.058  1.00  0.00    -0.287 OA
HETATM   16  C   UNL     1     -24.674 -23.749  -0.713  1.00  0.00     0.216 C 
HETATM   17  C   UNL     1     -25.348 -24.255  -1.960  1.00  0.00     0.180 C 
HETATM   18  O   UNL     1     -24.375 -24.867  -2.835  1.00  0.00    -0.353 OA
HETATM   19  C   UNL     1     -26.343 -25.378  -1.748  1.00  0.00     0.198 C 
HETATM   20  O   UNL     1     -27.553 -24.870  -1.243  1.00  0.00    -0.279 OA
HETATM   21  C   UNL     1     -26.468 -25.952  -3.156  1.00  0.00     0.199 C 
HETATM   22  C   UNL     1     -25.006 -25.866  -3.620  1.00  0.00     0.262 C 
ENDROOT
BRANCH  11  23
HETATM   23  N   UNL     1     -26.369 -27.770   4.423  1.00  0.00    -0.297 N 
HETATM   24  C   UNL     1     -25.515 -28.877   4.694  1.00  0.00     0.188 A 
HETATM   25  N   UNL     1     -26.004 -30.026   4.157  1.00  0.00    -0.345 N 
HETATM   26  C   UNL     1     -27.205 -29.637   3.532  1.00  0.00     0.147 A 
ATOM     27  HN  UNL     1     -25.593 -30.959   4.197  1.00  0.00     0.167 HD
HETATM   28  C   UNL     1     -27.439 -28.266   3.695  1.00  0.00     0.159 A 
HETATM   29  C   UNL     1     -28.138 -30.429   2.795  1.00  0.00     0.290 A 
HETATM   30  N   UNL     1     -28.501 -27.526   3.229  1.00  0.00    -0.174 N 
HETATM   31  C   UNL     1     -29.372 -28.294   2.522  1.00  0.00     0.680 A 
ATOM     32  HN  UNL     1     -28.621 -26.526   3.394  1.00  0.00     0.186 HD
HETATM   33  N   UNL     1     -29.242 -29.653   2.298  1.00  0.00    -0.154 N 
ATOM     34  HN  UNL     1     -29.963 -30.126   1.754  1.00  0.00     0.187 HD
HETATM   35  O   UNL     1     -28.136 -31.617   2.530  1.00  0.00    -0.265 OA
BRANCH  31  36
HETATM   36  N   UNL     1     -30.455 -27.657   1.972  1.00  0.00    -0.234 N 
ATOM     37  HN2 UNL     1     -30.559 -26.663   2.175  1.00  0.00     0.174 HD
ATOM     38  HN1 UNL     1     -31.082 -28.208   1.385  1.00  0.00     0.174 HD
ENDBRANCH  31  36
ENDBRANCH  11  23
BRANCH  10  39
HETATM   39  O   UNL     1     -24.553 -24.731   5.289  1.00  0.00    -0.388 OA
ATOM     40  HO  UNL     1     -24.718 -24.981   6.191  1.00  0.00     0.210 HD
ENDBRANCH  10  39
BRANCH  21  41
HETATM   41  O   UNL     1     -27.278 -25.133  -3.995  1.00  0.00    -0.388 OA
ATOM     42  HO  UNL     1     -27.035 -25.275  -4.902  1.00  0.00     0.210 HD
ENDBRANCH  21  41
BRANCH  22  43
HETATM   43  N   UNL     1     -24.276 -27.117  -3.409  1.00  0.00    -0.297 N 
HETATM   44  C   UNL     1     -24.706 -28.310  -3.946  1.00  0.00     0.159 A 
HETATM   45  N   UNL     1     -25.862 -28.482  -4.661  1.00  0.00    -0.174 N 
HETATM   46  C   UNL     1     -23.732 -29.269  -3.630  1.00  0.00     0.147 A 
HETATM   47  C   UNL     1     -26.004 -29.759  -5.103  1.00  0.00     0.680 A 
ATOM     48  HN  UNL     1     -26.536 -27.738  -4.842  1.00  0.00     0.186 HD
HETATM   49  N   UNL     1     -25.105 -30.790  -4.862  1.00  0.00    -0.154 N 
HETATM   50  C   UNL     1     -23.892 -30.612  -4.102  1.00  0.00     0.290 A 
ATOM     51  HN  UNL     1     -25.311 -31.715  -5.240  1.00  0.00     0.187 HD
HETATM   52  O   UNL     1     -23.165 -31.588  -4.004  1.00  0.00    -0.265 OA
HETATM   53  N   UNL     1     -22.691 -28.695  -2.871  1.00  0.00    -0.345 N 
HETATM   54  C   UNL     1     -23.045 -27.384  -2.746  1.00  0.00     0.188 A 
ATOM     55  HN  UNL     1     -21.861 -29.156  -2.499  1.00  0.00     0.167 HD
BRANCH  47  56
HETATM   56  N   UNL     1     -27.123 -30.030  -5.857  1.00  0.00    -0.234 N 
ATOM     57  HN2 UNL     1     -27.107 -30.841  -6.475  1.00  0.00     0.174 HD
ATOM     58  HN1 UNL     1     -27.908 -29.385  -5.759  1.00  0.00     0.174 HD
ENDBRANCH  47  56
ENDBRANCH  22  43
TORSDOF 6
ENDMDL
MODEL 8
REMARK VINA RESULT:    -7.954      3.355      8.283
REMARK INTER + INTRA:         -11.659
REMARK INTER:                 -10.118
REMARK INTRA:                  -1.541
REMARK UNBOUND:                -1.845
REMARK  6 active torsions:
REMARK  status: ('A' for Active; 'I' for Inactive)
REMARK    1  A    between atoms: C_10  and  O_11 
REMARK    2  A    between atoms: C_13  and  N_14 
REMARK    3  A    between atoms: C_23  and  N_24 
REMARK    4  A    between atoms: C_39  and  O_40 
REMARK    5  A    between atoms: C_42  and  N_43 
REMARK    6  A    between atoms: C_52  and  N_53 
ROOT
HETATM    1  P   UNL     1     -23.222 -24.733   1.525  1.00  0.00     0.408 P 
HETATM    2  O   UNL     1     -22.653 -26.138   1.832  1.00  0.00    -0.624 OA
HETATM    3  O   UNL     1     -22.206 -23.660   1.454  1.00  0.00    -0.624 OA
HETATM    4  O   UNL     1     -24.110 -24.903   0.217  1.00  0.00    -0.287 OA
HETATM    5  C   UNL     1     -24.608 -23.788  -0.524  1.00  0.00     0.216 C 
HETATM    6  C   UNL     1     -25.297 -24.225  -1.790  1.00  0.00     0.180 C 
HETATM    7  O   UNL     1     -24.331 -24.813  -2.689  1.00  0.00    -0.353 OA
HETATM    8  C   UNL     1     -26.329 -25.331  -1.648  1.00  0.00     0.198 C 
HETATM    9  O   UNL     1     -27.558 -24.862  -1.121  1.00  0.00    -0.279 OA
HETATM   10  C   UNL     1     -26.435 -25.835  -3.085  1.00  0.00     0.199 C 
HETATM   11  C   UNL     1     -24.957 -25.798  -3.495  1.00  0.00     0.262 C 
HETATM   12  P   UNL     1     -28.415 -25.669  -0.053  1.00  0.00     0.408 P 
HETATM   13  O   UNL     1     -28.473 -27.157  -0.472  1.00  0.00    -0.624 OA
HETATM   14  O   UNL     1     -29.717 -24.954   0.224  1.00  0.00    -0.624 OA
HETATM   15  O   UNL     1     -27.480 -25.688   1.228  1.00  0.00    -0.287 OA
HETATM   16  C   UNL     1     -27.422 -24.561   2.106  1.00  0.00     0.216 C 
HETATM   17  C   UNL     1     -26.600 -24.864   3.329  1.00  0.00     0.180 C 
HETATM   18  O   UNL     1     -27.240 -25.894   4.113  1.00  0.00    -0.353 OA
HETATM   19  C   UNL     1     -25.235 -25.464   3.060  1.00  0.00     0.198 C 
HETATM   20  O   UNL     1     -24.335 -24.468   2.643  1.00  0.00    -0.279 OA
HETATM   21  C   UNL     1     -24.887 -26.066   4.418  1.00  0.00     0.199 C 
HETATM   22  C   UNL     1     -26.258 -26.620   4.834  1.00  0.00     0.262 C 
ENDROOT
BRANCH  11  23
HETATM   23  N   UNL     1     -24.248 -27.066  -3.286  1.00  0.00    -0.297 N 
HETATM   24  C   UNL     1     -23.049 -27.355  -2.576  1.00  0.00     0.188 A 
HETATM   25  N   UNL     1     -22.708 -28.666  -2.686  1.00  0.00    -0.345 N 
HETATM   26  C   UNL     1     -23.724 -29.226  -3.486  1.00  0.00     0.147 A 
ATOM     27  HN  UNL     1     -21.899 -29.138  -2.282  1.00  0.00     0.167 HD
HETATM   28  C   UNL     1     -24.670 -28.260  -3.851  1.00  0.00     0.159 A 
HETATM   29  C   UNL     1     -23.879 -30.571  -3.941  1.00  0.00     0.290 A 
HETATM   30  N   UNL     1     -25.798 -28.426  -4.622  1.00  0.00    -0.174 N 
HETATM   31  C   UNL     1     -25.922 -29.708  -5.054  1.00  0.00     0.680 A 
ATOM     32  HN  UNL     1     -26.458 -27.679  -4.841  1.00  0.00     0.186 HD
HETATM   33  N   UNL     1     -25.050 -30.741  -4.758  1.00  0.00    -0.154 N 
ATOM     34  HN  UNL     1     -25.249 -31.667  -5.136  1.00  0.00     0.187 HD
HETATM   35  O   UNL     1     -23.190 -31.556  -3.753  1.00  0.00    -0.265 OA
BRANCH  31  36
HETATM   36  N   UNL     1     -26.990 -29.989  -5.867  1.00  0.00    -0.234 N 
ATOM     37  HN2 UNL     1     -27.916 -29.955  -5.440  1.00  0.00     0.174 HD
ATOM     38  HN1 UNL     1     -26.799 -30.199  -6.847  1.00  0.00     0.174 HD
ENDBRANCH  31  36
ENDBRANCH  11  23
BRANCH  10  39
HETATM   39  O   UNL     1     -27.141 -24.953  -3.958  1.00  0.00    -0.388 OA
ATOM     40  HO  UNL     1     -27.232 -25.280  -4.846  1.00  0.00     0.210 HD
ENDBRANCH  10  39
BRANCH  21  41
HETATM   41  O   UNL     1     -24.478 -25.070   5.352  1.00  0.00    -0.388 OA
ATOM     42  HO  UNL     1     -23.829 -25.438   5.940  1.00  0.00     0.210 HD
ENDBRANCH  21  41
BRANCH  22  43
HETATM   43  N   UNL     1     -26.418 -28.035   4.491  1.00  0.00    -0.297 N 
HETATM   44  C   UNL     1     -27.486 -28.489   3.751  1.00  0.00     0.159 A 
HETATM   45  N   UNL     1     -28.531 -27.715   3.317  1.00  0.00    -0.174 N 
HETATM   46  C   UNL     1     -27.273 -29.858   3.531  1.00  0.00     0.147 A 
HETATM   47  C   UNL     1     -29.417 -28.425   2.572  1.00  0.00     0.680 A 
ATOM     48  HN  UNL     1     -28.630 -26.722   3.528  1.00  0.00     0.186 HD
HETATM   49  N   UNL     1     -29.308 -29.778   2.279  1.00  0.00    -0.154 N 
HETATM   50  C   UNL     1     -28.214 -30.595   2.743  1.00  0.00     0.290 A 
ATOM     51  HN  UNL     1     -30.035 -30.214   1.711  1.00  0.00     0.187 HD
HETATM   52  O   UNL     1     -28.213 -31.760   2.376  1.00  0.00    -0.265 OA
HETATM   53  N   UNL     1     -26.079 -30.284   4.150  1.00  0.00    -0.345 N 
HETATM   54  C   UNL     1     -25.576 -29.158   4.731  1.00  0.00     0.188 A 
ATOM     55  HN  UNL     1     -25.682 -31.224   4.161  1.00  0.00     0.167 HD
BRANCH  47  56
HETATM   56  N   UNL     1     -30.492 -27.730   2.064  1.00  0.00    -0.234 N 
ATOM     57  HN2 UNL     1     -30.725 -27.850   1.078  1.00  0.00     0.174 HD
ATOM     58  HN1 UNL     1     -30.990 -27.120   2.713  1.00  0.00     0.174 HD
ENDBRANCH  47  56
ENDBRANCH  22  43
TORSDOF 6
ENDMDL
MODEL 9
REMARK VINA RESULT:    -7.594      4.387      7.543
REMARK INTER + INTRA:         -11.215
REMARK INTER:                  -9.363
REMARK INTRA:                  -1.851
REMARK UNBOUND:                -1.845
REMARK  6 active torsions:
REMARK  status: ('A' for Active; 'I' for Inactive)
REMARK    1  A    between atoms: C_10  and  O_11 
REMARK    2  A    between atoms: C_13  and  N_14 
REMARK    3  A    between atoms: C_23  and  N_24 
REMARK    4  A    between atoms: C_39  and  O_40 
REMARK    5  A    between atoms: C_42  and  N_43 
REMARK    6  A    between atoms: C_52  and  N_53 
ROOT
HETATM    1  P   UNL     1     -26.896 -26.520  -2.665  1.00  0.00     0.408 P 
HETATM    2  O   UNL     1     -27.813 -27.730  -2.366  1.00  0.00    -0.624 OA
HETATM    3  O   UNL     1     -27.596 -25.337  -3.209  1.00  0.00    -0.624 OA
HETATM    4  O   UNL     1     -26.077 -26.259  -1.327  1.00  0.00    -0.287 OA
HETATM    5  C   UNL     1     -25.301 -25.078  -1.118  1.00  0.00     0.216 C 
HETATM    6  C   UNL     1     -24.744 -25.018   0.279  1.00  0.00     0.180 C 
HETATM    7  O   UNL     1     -25.827 -24.872   1.225  1.00  0.00    -0.353 OA
HETATM    8  C   UNL     1     -24.038 -26.267   0.777  1.00  0.00     0.198 C 
HETATM    9  O   UNL     1     -22.732 -26.400   0.245  1.00  0.00    -0.279 OA
HETATM   10  C   UNL     1     -24.060 -26.048   2.288  1.00  0.00     0.199 C 
HETATM   11  C   UNL     1     -25.476 -25.480   2.459  1.00  0.00     0.262 C 
HETATM   12  P   UNL     1     -22.119 -27.788  -0.232  1.00  0.00     0.408 P 
HETATM   13  O   UNL     1     -22.450 -28.873   0.820  1.00  0.00    -0.624 OA
HETATM   14  O   UNL     1     -20.678 -27.611  -0.647  1.00  0.00    -0.624 OA
HETATM   15  O   UNL     1     -23.033 -28.186  -1.465  1.00  0.00    -0.287 OA
HETATM   16  C   UNL     1     -22.799 -27.624  -2.758  1.00  0.00     0.216 C 
HETATM   17  C   UNL     1     -23.677 -28.263  -3.800  1.00  0.00     0.180 C 
HETATM   18  O   UNL     1     -23.332 -29.658  -3.949  1.00  0.00    -0.353 OA
HETATM   19  C   UNL     1     -25.150 -28.331  -3.451  1.00  0.00     0.198 C 
HETATM   20  O   UNL     1     -25.757 -27.077  -3.641  1.00  0.00    -0.279 OA
HETATM   21  C   UNL     1     -25.650 -29.399  -4.419  1.00  0.00     0.199 C 
HETATM   22  C   UNL     1     -24.473 -30.386  -4.373  1.00  0.00     0.262 C 
ENDROOT
BRANCH  11  23
HETATM   23  N   UNL     1     -26.492 -26.493   2.765  1.00  0.00    -0.297 N 
HETATM   24  C   UNL     1     -26.510 -27.526   3.745  1.00  0.00     0.188 A 
HETATM   25  N   UNL     1     -27.631 -28.288   3.644  1.00  0.00    -0.345 N 
HETATM   26  C   UNL     1     -28.347 -27.718   2.573  1.00  0.00     0.147 A 
ATOM     27  HN  UNL     1     -27.894 -29.091   4.216  1.00  0.00     0.167 HD
HETATM   28  C   UNL     1     -27.664 -26.621   2.035  1.00  0.00     0.159 A 
HETATM   29  C   UNL     1     -29.597 -28.115   2.008  1.00  0.00     0.290 A 
HETATM   30  N   UNL     1     -28.045 -25.815   0.987  1.00  0.00    -0.174 N 
HETATM   31  C   UNL     1     -29.230 -26.215   0.456  1.00  0.00     0.680 A 
ATOM     32  HN  UNL     1     -27.505 -25.017   0.650  1.00  0.00     0.186 HD
HETATM   33  N   UNL     1     -29.989 -27.282   0.904  1.00  0.00    -0.154 N 
ATOM     34  HN  UNL     1     -30.868 -27.486   0.429  1.00  0.00     0.187 HD
HETATM   35  O   UNL     1     -30.350 -29.024   2.307  1.00  0.00    -0.265 OA
BRANCH  31  36
HETATM   36  N   UNL     1     -29.696 -25.511  -0.624  1.00  0.00    -0.234 N 
ATOM     37  HN2 UNL     1     -29.110 -25.504  -1.459  1.00  0.00     0.174 HD
ATOM     38  HN1 UNL     1     -30.602 -25.049  -0.535  1.00  0.00     0.174 HD
ENDBRANCH  31  36
ENDBRANCH  11  23
BRANCH  10  39
HETATM   39  O   UNL     1     -23.145 -25.051   2.743  1.00  0.00    -0.388 OA
ATOM     40  HO  UNL     1     -23.542 -24.380   3.286  1.00  0.00     0.210 HD
ENDBRANCH  10  39
BRANCH  21  41
HETATM   41  O   UNL     1     -25.789 -28.893  -5.744  1.00  0.00    -0.388 OA
ATOM     42  HO  UNL     1     -25.206 -29.368  -6.324  1.00  0.00     0.210 HD
ENDBRANCH  21  41
BRANCH  22  43
HETATM   43  N   UNL     1     -24.686 -31.468  -3.410  1.00  0.00    -0.297 N 
HETATM   44  C   UNL     1     -25.249 -32.670  -3.778  1.00  0.00     0.159 A 
HETATM   45  N   UNL     1     -25.725 -32.968  -5.028  1.00  0.00    -0.174 N 
HETATM   46  C   UNL     1     -25.214 -33.496  -2.645  1.00  0.00     0.147 A 
HETATM   47  C   UNL     1     -26.184 -34.244  -5.109  1.00  0.00     0.680 A 
ATOM     48  HN  UNL     1     -25.732 -32.309  -5.807  1.00  0.00     0.186 HD
HETATM   49  N   UNL     1     -26.193 -35.155  -4.061  1.00  0.00    -0.154 N 
HETATM   50  C   UNL     1     -25.701 -34.839  -2.743  1.00  0.00     0.290 A 
ATOM     51  HN  UNL     1     -26.564 -36.090  -4.231  1.00  0.00     0.187 HD
HETATM   52  O   UNL     1     -25.722 -35.745  -1.924  1.00  0.00    -0.265 OA
HETATM   53  N   UNL     1     -24.651 -32.815  -1.546  1.00  0.00    -0.345 N 
HETATM   54  C   UNL     1     -24.339 -31.581  -2.034  1.00  0.00     0.188 A 
ATOM     55  HN  UNL     1     -24.509 -33.166  -0.599  1.00  0.00     0.167 HD
BRANCH  47  56
HETATM   56  N   UNL     1     -26.659 -34.652  -6.335  1.00  0.00    -0.234 N 
ATOM     57  HN2 UNL     1     -26.720 -35.653  -6.523  1.00  0.00     0.174 HD
ATOM     58  HN1 UNL     1     -26.914 -33.916  -6.994  1.00  0.00     0.174 HD
ENDBRANCH  47  56
ENDBRANCH  22  43
TORSDOF 6
ENDMDL
MODEL 10
REMARK VINA RESULT:    -7.489      5.891      9.869
REMARK INTER + INTRA:         -11.085
REMARK INTER:                  -9.885
REMARK INTRA:                  -1.200
REMARK UNBOUND:                -1.845
REMARK  6 active torsions:
REMARK  status: ('A' for Active; 'I' for Inactive)
REMARK    1  A    between atoms: C_10  and  O_11 
REMARK    2  A    between atoms: C_13  and  N_14 
REMARK    3  A    between atoms: C_23  and  N_24 
REMARK    4  A    between atoms: C_39  and  O_40 
REMARK    5  A    between atoms: C_42  and  N_43 
REMARK    6  A    between atoms: C_52  and  N_53 
ROOT
HETATM    1  P   UNL     1     -18.876 -22.011   0.577  1.00  0.00     0.408 P 
HETATM    2  O   UNL     1     -19.579 -23.342   0.217  1.00  0.00    -0.624 OA
HETATM    3  O   UNL     1     -17.997 -22.082   1.765  1.00  0.00    -0.624 OA
HETATM    4  O   UNL     1     -18.161 -21.526  -0.758  1.00  0.00    -0.287 OA
HETATM    5  C   UNL     1     -17.207 -20.464  -0.777  1.00  0.00     0.216 C 
HETATM    6  C   UNL     1     -16.583 -20.301  -2.137  1.00  0.00     0.180 C 
HETATM    7  O   UNL     1     -15.785 -21.465  -2.446  1.00  0.00    -0.353 OA
HETATM    8  C   UNL     1     -17.541 -20.236  -3.315  1.00  0.00     0.198 C 
HETATM    9  O   UNL     1     -18.170 -18.972  -3.434  1.00  0.00    -0.279 OA
HETATM   10  C   UNL     1     -16.613 -20.567  -4.481  1.00  0.00     0.199 C 
HETATM   11  C   UNL     1     -15.769 -21.682  -3.848  1.00  0.00     0.262 C 
HETATM   12  P   UNL     1     -19.703 -18.791  -3.815  1.00  0.00     0.408 P 
HETATM   13  O   UNL     1     -20.047 -19.744  -4.985  1.00  0.00    -0.624 OA
HETATM   14  O   UNL     1     -20.038 -17.327  -3.965  1.00  0.00    -0.624 OA
HETATM   15  O   UNL     1     -20.464 -19.437  -2.583  1.00  0.00    -0.287 OA
HETATM   16  C   UNL     1     -20.663 -18.696  -1.378  1.00  0.00     0.216 C 
HETATM   17  C   UNL     1     -21.543 -19.444  -0.414  1.00  0.00     0.180 C 
HETATM   18  O   UNL     1     -22.870 -19.590  -0.966  1.00  0.00    -0.353 OA
HETATM   19  C   UNL     1     -21.142 -20.882  -0.154  1.00  0.00     0.198 C 
HETATM   20  O   UNL     1     -20.050 -20.934   0.729  1.00  0.00    -0.279 OA
HETATM   21  C   UNL     1     -22.425 -21.462   0.434  1.00  0.00     0.199 C 
HETATM   22  C   UNL     1     -23.473 -20.765  -0.449  1.00  0.00     0.262 C 
ENDROOT
BRANCH  11  23
HETATM   23  N   UNL     1     -16.282 -23.033  -4.100  1.00  0.00    -0.297 N 
HETATM   24  C   UNL     1     -17.010 -23.923  -3.260  1.00  0.00     0.188 A 
HETATM   25  N   UNL     1     -17.237 -25.114  -3.874  1.00  0.00    -0.345 N 
HETATM   26  C   UNL     1     -16.638 -24.974  -5.142  1.00  0.00     0.147 A 
ATOM     27  HN  UNL     1     -17.728 -25.926  -3.501  1.00  0.00     0.167 HD
HETATM   28  C   UNL     1     -16.059 -23.707  -5.291  1.00  0.00     0.159 A 
HETATM   29  C   UNL     1     -16.554 -25.917  -6.211  1.00  0.00     0.290 A 
HETATM   30  N   UNL     1     -15.389 -23.204  -6.382  1.00  0.00    -0.174 N 
HETATM   31  C   UNL     1     -15.309 -24.120  -7.383  1.00  0.00     0.680 A 
ATOM     32  HN  UNL     1     -15.000 -22.262  -6.432  1.00  0.00     0.186 HD
HETATM   33  N   UNL     1     -15.841 -25.396  -7.346  1.00  0.00    -0.154 N 
ATOM     34  HN  UNL     1     -15.723 -25.995  -8.163  1.00  0.00     0.187 HD
HETATM   35  O   UNL     1     -16.974 -27.056  -6.299  1.00  0.00    -0.265 OA
BRANCH  31  36
HETATM   36  N   UNL     1     -14.626 -23.746  -8.513  1.00  0.00    -0.234 N 
ATOM     37  HN2 UNL     1     -14.697 -22.768  -8.793  1.00  0.00     0.174 HD
ATOM     38  HN1 UNL     1     -14.080 -24.460  -8.995  1.00  0.00     0.174 HD
ENDBRANCH  31  36
ENDBRANCH  11  23
BRANCH  10  39
HETATM   39  O   UNL     1     -15.722 -19.507  -4.832  1.00  0.00    -0.388 OA
ATOM     40  HO  UNL     1     -15.827 -18.724  -4.305  1.00  0.00     0.210 HD
ENDBRANCH  10  39
BRANCH  21  41
HETATM   41  O   UNL     1     -22.614 -21.067   1.790  1.00  0.00    -0.388 OA
ATOM     42  HO  UNL     1     -23.466 -20.658   1.882  1.00  0.00     0.210 HD
ENDBRANCH  21  41
BRANCH  22  43
HETATM   43  N   UNL     1     -23.881 -21.588  -1.588  1.00  0.00    -0.297 N 
HETATM   44  C   UNL     1     -24.649 -22.720  -1.431  1.00  0.00     0.159 A 
HETATM   45  N   UNL     1     -25.055 -23.237  -0.229  1.00  0.00    -0.174 N 
HETATM   46  C   UNL     1     -24.930 -23.200  -2.719  1.00  0.00     0.147 A 
HETATM   47  C   UNL     1     -25.838 -24.336  -0.383  1.00  0.00     0.680 A 
ATOM     48  HN  UNL     1     -24.799 -22.842   0.677  1.00  0.00     0.186 HD
HETATM   49  N   UNL     1     -26.192 -24.897  -1.604  1.00  0.00    -0.154 N 
HETATM   50  C   UNL     1     -25.758 -24.358  -2.870  1.00  0.00     0.290 A 
ATOM     51  HN  UNL     1     -26.785 -25.727  -1.605  1.00  0.00     0.187 HD
HETATM   52  O   UNL     1     -26.178 -24.919  -3.870  1.00  0.00    -0.265 OA
HETATM   53  N   UNL     1     -24.323 -22.388  -3.699  1.00  0.00    -0.345 N 
HETATM   54  C   UNL     1     -23.687 -21.414  -2.988  1.00  0.00     0.188 A 
ATOM     55  HN  UNL     1     -24.352 -22.503  -4.712  1.00  0.00     0.167 HD
BRANCH  47  56
HETATM   56  N   UNL     1     -26.322 -24.916   0.768  1.00  0.00    -0.234 N 
ATOM     57  HN2 UNL     1     -26.397 -24.340   1.607  1.00  0.00     0.174 HD
ATOM     58  HN1 UNL     1     -26.569 -25.904   0.713  1.00  0.00     0.174 HD
ENDBRANCH  47  56
ENDBRANCH  22  43
TORSDOF 6
ENDMDL
MODEL 11
REMARK VINA RESULT:    -7.415      5.906      9.302
REMARK INTER + INTRA:         -10.994
REMARK INTER:                  -9.760
REMARK INTRA:                  -1.234
REMARK UNBOUND:                -1.845
REMARK  6 active torsions:
REMARK  status: ('A' for Active; 'I' for Inactive)
REMARK    1  A    between atoms: C_10  and  O_11 
REMARK    2  A    between atoms: C_13  and  N_14 
REMARK    3  A    between atoms: C_23  and  N_24 
REMARK    4  A    between atoms: C_39  and  O_40 
REMARK    5  A    between atoms: C_42  and  N_43 
REMARK    6  A    between atoms: C_52  and  N_53 
ROOT
HETATM    1  P   UNL     1     -19.718 -18.814  -3.804  1.00  0.00     0.408 P 
HETATM    2  O   UNL     1     -19.990 -19.811  -4.955  1.00  0.00    -0.624 OA
HETATM    3  O   UNL     1     -20.038 -17.406  -4.122  1.00  0.00    -0.624 OA
HETATM    4  O   UNL     1     -20.475 -19.404  -2.535  1.00  0.00    -0.287 OA
HETATM    5  C   UNL     1     -20.669 -18.651  -1.337  1.00  0.00     0.216 C 
HETATM    6  C   UNL     1     -21.532 -19.390  -0.349  1.00  0.00     0.180 C 
HETATM    7  O   UNL     1     -22.871 -19.518  -0.878  1.00  0.00    -0.353 OA
HETATM    8  C   UNL     1     -21.150 -20.833  -0.068  1.00  0.00     0.198 C 
HETATM    9  O   UNL     1     -20.036 -20.940   0.801  1.00  0.00    -0.279 OA
HETATM   10  C   UNL     1     -22.444 -21.379   0.530  1.00  0.00     0.199 C 
HETATM   11  C   UNL     1     -23.473 -20.705  -0.386  1.00  0.00     0.262 C 
HETATM   12  P   UNL     1     -18.874 -22.007   0.605  1.00  0.00     0.408 P 
HETATM   13  O   UNL     1     -19.502 -23.379   0.265  1.00  0.00    -0.624 OA
HETATM   14  O   UNL     1     -17.895 -21.934   1.752  1.00  0.00    -0.624 OA
HETATM   15  O   UNL     1     -18.201 -21.566  -0.761  1.00  0.00    -0.287 OA
HETATM   16  C   UNL     1     -17.247 -20.502  -0.795  1.00  0.00     0.216 C 
HETATM   17  C   UNL     1     -16.625 -20.368  -2.159  1.00  0.00     0.180 C 
HETATM   18  O   UNL     1     -15.854 -21.549  -2.470  1.00  0.00    -0.353 OA
HETATM   19  C   UNL     1     -17.605 -20.311  -3.314  1.00  0.00     0.198 C 
HETATM   20  O   UNL     1     -18.185 -19.033  -3.400  1.00  0.00    -0.279 OA
HETATM   21  C   UNL     1     -16.708 -20.650  -4.500  1.00  0.00     0.199 C 
HETATM   22  C   UNL     1     -15.824 -21.741  -3.875  1.00  0.00     0.262 C 
ENDROOT
BRANCH  11  23
HETATM   23  N   UNL     1     -23.867 -21.519  -1.542  1.00  0.00    -0.297 N 
HETATM   24  C   UNL     1     -23.618 -21.344  -2.932  1.00  0.00     0.188 A 
HETATM   25  N   UNL     1     -24.223 -22.310  -3.673  1.00  0.00    -0.345 N 
HETATM   26  C   UNL     1     -24.871 -23.125  -2.723  1.00  0.00     0.147 A 
ATOM     27  HN  UNL     1     -24.210 -22.420  -4.687  1.00  0.00     0.167 HD
HETATM   28  C   UNL     1     -24.655 -22.654  -1.422  1.00  0.00     0.159 A 
HETATM   29  C   UNL     1     -25.675 -24.287  -2.928  1.00  0.00     0.290 A 
HETATM   30  N   UNL     1     -25.123 -23.182  -0.241  1.00  0.00    -0.174 N 
HETATM   31  C   UNL     1     -25.895 -24.280  -0.457  1.00  0.00     0.680 A 
ATOM     32  HN  UNL     1     -24.917 -22.797   0.682  1.00  0.00     0.186 HD
HETATM   33  N   UNL     1     -26.176 -24.831  -1.694  1.00  0.00    -0.154 N 
ATOM     34  HN  UNL     1     -26.765 -25.662  -1.733  1.00  0.00     0.187 HD
HETATM   35  O   UNL     1     -25.993 -24.861  -3.952  1.00  0.00    -0.265 OA
BRANCH  31  36
HETATM   36  N   UNL     1     -26.453 -24.873   0.647  1.00  0.00    -0.234 N 
ATOM     37  HN2 UNL     1     -27.371 -24.537   0.937  1.00  0.00     0.174 HD
ATOM     38  HN1 UNL     1     -25.928 -25.620   1.101  1.00  0.00     0.174 HD
ENDBRANCH  31  36
ENDBRANCH  11  23
BRANCH  10  39
HETATM   39  O   UNL     1     -22.703 -20.931   1.861  1.00  0.00    -0.388 OA
ATOM     40  HO  UNL     1     -23.596 -21.074   2.151  1.00  0.00     0.210 HD
ENDBRANCH  10  39
BRANCH  21  41
HETATM   41  O   UNL     1     -15.893 -19.546  -4.884  1.00  0.00    -0.388 OA
ATOM     42  HO  UNL     1     -14.983 -19.751  -4.707  1.00  0.00     0.210 HD
ENDBRANCH  21  41
BRANCH  22  43
HETATM   43  N   UNL     1     -16.324 -23.090  -4.145  1.00  0.00    -0.297 N 
HETATM   44  C   UNL     1     -16.066 -23.738  -5.332  1.00  0.00     0.159 A 
HETATM   45  N   UNL     1     -15.393 -23.196  -6.396  1.00  0.00    -0.174 N 
HETATM   46  C   UNL     1     -16.604 -25.028  -5.214  1.00  0.00     0.147 A 
HETATM   47  C   UNL     1     -15.251 -24.083  -7.416  1.00  0.00     0.680 A 
ATOM     48  HN  UNL     1     -15.040 -22.240  -6.420  1.00  0.00     0.186 HD
HETATM   49  N   UNL     1     -15.731 -25.386  -7.410  1.00  0.00    -0.154 N 
HETATM   50  C   UNL     1     -16.447 -25.954  -6.295  1.00  0.00     0.290 A 
ATOM     51  HN  UNL     1     -15.571 -25.968  -8.233  1.00  0.00     0.187 HD
HETATM   52  O   UNL     1     -16.775 -27.126  -6.400  1.00  0.00    -0.265 OA
HETATM   53  N   UNL     1     -17.227 -25.197  -3.960  1.00  0.00    -0.345 N 
HETATM   54  C   UNL     1     -17.046 -24.003  -3.327  1.00  0.00     0.188 A 
ATOM     55  HN  UNL     1     -17.705 -26.026  -3.607  1.00  0.00     0.167 HD
BRANCH  47  56
HETATM   56  N   UNL     1     -14.562 -23.644  -8.524  1.00  0.00    -0.234 N 
ATOM     57  HN2 UNL     1     -14.765 -24.078  -9.424  1.00  0.00     0.174 HD
ATOM     58  HN1 UNL     1     -13.872 -22.908  -8.371  1.00  0.00     0.174 HD
ENDBRANCH  47  56
ENDBRANCH  22  43
TORSDOF 6
ENDMDL
MODEL 12
REMARK VINA RESULT:    -7.393      9.446     13.195
REMARK INTER + INTRA:         -10.967
REMARK INTER:                  -9.119
REMARK INTRA:                  -1.848
REMARK UNBOUND:                -1.845
REMARK  6 active torsions:
REMARK  status: ('A' for Active; 'I' for Inactive)
REMARK    1  A    between atoms: C_10  and  O_11 
REMARK    2  A    between atoms: C_13  and  N_14 
REMARK    3  A    between atoms: C_23  and  N_24 
REMARK    4  A    between atoms: C_39  and  O_40 
REMARK    5  A    between atoms: C_42  and  N_43 
REMARK    6  A    between atoms: C_52  and  N_53 
ROOT
HETATM    1  P   UNL     1     -14.723 -16.709  -0.711  1.00  0.00     0.408 P 
HETATM    2  O   UNL     1     -15.843 -15.824  -1.306  1.00  0.00    -0.624 OA
HETATM    3  O   UNL     1     -14.288 -16.321   0.649  1.00  0.00    -0.624 OA
HETATM    4  O   UNL     1     -15.240 -18.208  -0.847  1.00  0.00    -0.287 OA
HETATM    5  C   UNL     1     -14.600 -19.304  -0.193  1.00  0.00     0.216 C 
HETATM    6  C   UNL     1     -15.369 -20.586  -0.374  1.00  0.00     0.180 C 
HETATM    7  O   UNL     1     -16.638 -20.489   0.310  1.00  0.00    -0.353 OA
HETATM    8  C   UNL     1     -15.786 -20.926  -1.795  1.00  0.00     0.198 C 
HETATM    9  O   UNL     1     -14.715 -21.440  -2.566  1.00  0.00    -0.279 OA
HETATM   10  C   UNL     1     -16.902 -21.938  -1.550  1.00  0.00     0.199 C 
HETATM   11  C   UNL     1     -17.608 -21.281  -0.356  1.00  0.00     0.262 C 
HETATM   12  P   UNL     1     -14.470 -21.053  -4.089  1.00  0.00     0.408 P 
HETATM   13  O   UNL     1     -15.821 -21.088  -4.842  1.00  0.00    -0.624 OA
HETATM   14  O   UNL     1     -13.317 -21.848  -4.654  1.00  0.00    -0.624 OA
HETATM   15  O   UNL     1     -14.130 -19.506  -4.022  1.00  0.00    -0.287 OA
HETATM   16  C   UNL     1     -12.815 -19.061  -3.684  1.00  0.00     0.216 C 
HETATM   17  C   UNL     1     -12.684 -17.570  -3.840  1.00  0.00     0.180 C 
HETATM   18  O   UNL     1     -12.839 -17.202  -5.228  1.00  0.00    -0.353 OA
HETATM   19  C   UNL     1     -13.768 -16.752  -3.166  1.00  0.00     0.198 C 
HETATM   20  O   UNL     1     -13.535 -16.676  -1.782  1.00  0.00    -0.279 OA
HETATM   21  C   UNL     1     -13.632 -15.410  -3.879  1.00  0.00     0.199 C 
HETATM   22  C   UNL     1     -13.359 -15.886  -5.314  1.00  0.00     0.262 C 
ENDROOT
BRANCH  11  23
HETATM   23  N   UNL     1     -18.723 -20.404  -0.732  1.00  0.00    -0.297 N 
HETATM   24  C   UNL     1     -19.839 -20.631  -1.586  1.00  0.00     0.188 A 
HETATM   25  N   UNL     1     -20.609 -19.518  -1.707  1.00  0.00    -0.345 N 
HETATM   26  C   UNL     1     -19.965 -18.557  -0.902  1.00  0.00     0.147 A 
ATOM     27  HN  UNL     1     -21.460 -19.403  -2.257  1.00  0.00     0.167 HD
HETATM   28  C   UNL     1     -18.818 -19.090  -0.299  1.00  0.00     0.159 A 
HETATM   29  C   UNL     1     -20.321 -17.196  -0.659  1.00  0.00     0.290 A 
HETATM   30  N   UNL     1     -17.936 -18.461   0.550  1.00  0.00    -0.174 N 
HETATM   31  C   UNL     1     -18.285 -17.165   0.760  1.00  0.00     0.680 A 
ATOM     32  HN  UNL     1     -17.123 -18.912   0.969  1.00  0.00     0.186 HD
HETATM   33  N   UNL     1     -19.391 -16.535   0.218  1.00  0.00    -0.154 N 
ATOM     34  HN  UNL     1     -19.555 -15.556   0.451  1.00  0.00     0.187 HD
HETATM   35  O   UNL     1     -21.255 -16.534  -1.072  1.00  0.00    -0.265 OA
BRANCH  31  36
HETATM   36  N   UNL     1     -17.457 -16.421   1.560  1.00  0.00    -0.234 N 
ATOM     37  HN2 UNL     1     -16.477 -16.700   1.597  1.00  0.00     0.174 HD
ATOM     38  HN1 UNL     1     -17.864 -15.629   2.058  1.00  0.00     0.174 HD
ENDBRANCH  31  36
ENDBRANCH  11  23
BRANCH  10  39
HETATM   39  O   UNL     1     -16.440 -23.218  -1.118  1.00  0.00    -0.388 OA
ATOM     40  HO  UNL     1     -17.134 -23.809  -0.850  1.00  0.00     0.210 HD
ENDBRANCH  10  39
BRANCH  21  41
HETATM   41  O   UNL     1     -12.510 -14.669  -3.407  1.00  0.00    -0.388 OA
ATOM     42  HO  UNL     1     -12.183 -15.067  -2.609  1.00  0.00     0.210 HD
ENDBRANCH  21  41
BRANCH  22  43
HETATM   43  N   UNL     1     -14.577 -15.946  -6.125  1.00  0.00    -0.297 N 
HETATM   44  C   UNL     1     -14.540 -15.886  -7.500  1.00  0.00     0.159 A 
HETATM   45  N   UNL     1     -13.409 -15.700  -8.251  1.00  0.00    -0.174 N 
HETATM   46  C   UNL     1     -15.857 -16.068  -7.947  1.00  0.00     0.147 A 
HETATM   47  C   UNL     1     -13.671 -15.727  -9.584  1.00  0.00     0.680 A 
ATOM     48  HN  UNL     1     -12.479 -15.559  -7.856  1.00  0.00     0.186 HD
HETATM   49  N   UNL     1     -14.929 -15.908 -10.145  1.00  0.00    -0.154 N 
HETATM   50  C   UNL     1     -16.121 -16.095  -9.355  1.00  0.00     0.290 A 
ATOM     51  HN  UNL     1     -15.014 -15.909 -11.162  1.00  0.00     0.187 HD
HETATM   52  O   UNL     1     -17.156 -16.291  -9.972  1.00  0.00    -0.265 OA
HETATM   53  N   UNL     1     -16.739 -16.221  -6.858  1.00  0.00    -0.345 N 
HETATM   54  C   UNL     1     -15.938 -16.141  -5.758  1.00  0.00     0.188 A 
ATOM     55  HN  UNL     1     -17.750 -16.360  -6.887  1.00  0.00     0.167 HD
BRANCH  47  56
HETATM   56  N   UNL     1     -12.594 -15.576 -10.428  1.00  0.00    -0.234 N 
ATOM     57  HN2 UNL     1     -11.705 -15.273 -10.030  1.00  0.00     0.174 HD
ATOM     58  HN1 UNL     1     -12.757 -15.769 -11.416  1.00  0.00     0.174 HD
ENDBRANCH  47  56
ENDBRANCH  22  43
TORSDOF 6
ENDMDL
MODEL 13
REMARK VINA RESULT:    -7.299      3.284      6.215
REMARK INTER + INTRA:         -10.850
REMARK INTER:                  -8.511
REMARK INTRA:                  -2.339
REMARK UNBOUND:                -1.845
REMARK  6 active torsions:
REMARK  status: ('A' for Active; 'I' for Inactive)
REMARK    1  A    between atoms: C_10  and  O_11 
REMARK    2  A    between atoms: C_13  and  N_14 
REMARK    3  A    between atoms: C_23  and  N_24 
REMARK    4  A    between atoms: C_39  and  O_40 
REMARK    5  A    between atoms: C_42  and  N_43 
REMARK    6  A    between atoms: C_52  and  N_53 
ROOT
HETATM    1  P   UNL     1     -28.165 -25.519  -0.274  1.00  0.00     0.408 P 
HETATM    2  O   UNL     1     -28.602 -26.852  -0.925  1.00  0.00    -0.624 OA
HETATM    3  O   UNL     1     -29.279 -24.605   0.060  1.00  0.00    -0.624 OA
HETATM    4  O   UNL     1     -27.236 -25.921   0.953  1.00  0.00    -0.287 OA
HETATM    5  C   UNL     1     -26.833 -24.983   1.952  1.00  0.00     0.216 C 
HETATM    6  C   UNL     1     -26.078 -25.652   3.070  1.00  0.00     0.180 C 
HETATM    7  O   UNL     1     -26.963 -26.538   3.789  1.00  0.00    -0.353 OA
HETATM    8  C   UNL     1     -24.947 -26.579   2.658  1.00  0.00     0.198 C 
HETATM    9  O   UNL     1     -23.781 -25.874   2.270  1.00  0.00    -0.279 OA
HETATM   10  C   UNL     1     -24.761 -27.413   3.923  1.00  0.00     0.199 C 
HETATM   11  C   UNL     1     -26.227 -27.626   4.325  1.00  0.00     0.262 C 
HETATM   12  P   UNL     1     -22.872 -26.299   1.036  1.00  0.00     0.408 P 
HETATM   13  O   UNL     1     -22.662 -27.831   1.070  1.00  0.00    -0.624 OA
HETATM   14  O   UNL     1     -21.653 -25.412   0.952  1.00  0.00    -0.624 OA
HETATM   15  O   UNL     1     -23.829 -26.090  -0.211  1.00  0.00    -0.287 OA
HETATM   16  C   UNL     1     -24.015 -24.792  -0.779  1.00  0.00     0.216 C 
HETATM   17  C   UNL     1     -24.830 -24.859  -2.042  1.00  0.00     0.180 C 
HETATM   18  O   UNL     1     -24.110 -25.592  -3.057  1.00  0.00    -0.353 OA
HETATM   19  C   UNL     1     -26.124 -25.640  -1.936  1.00  0.00     0.198 C 
HETATM   20  O   UNL     1     -27.107 -24.874  -1.286  1.00  0.00    -0.279 OA
HETATM   21  C   UNL     1     -26.442 -25.915  -3.403  1.00  0.00     0.199 C 
HETATM   22  C   UNL     1     -25.032 -26.209  -3.940  1.00  0.00     0.262 C 
ENDROOT
BRANCH  11  23
HETATM   23  N   UNL     1     -26.814 -28.866   3.803  1.00  0.00    -0.297 N 
HETATM   24  C   UNL     1     -26.339 -30.207   3.839  1.00  0.00     0.188 A 
HETATM   25  N   UNL     1     -27.174 -31.049   3.175  1.00  0.00    -0.345 N 
HETATM   26  C   UNL     1     -28.212 -30.218   2.709  1.00  0.00     0.147 A 
ATOM     27  HN  UNL     1     -27.072 -32.056   3.044  1.00  0.00     0.167 HD
HETATM   28  C   UNL     1     -28.004 -28.887   3.092  1.00  0.00     0.159 A 
HETATM   29  C   UNL     1     -29.364 -30.557   1.935  1.00  0.00     0.290 A 
HETATM   30  N   UNL     1     -28.796 -27.794   2.825  1.00  0.00    -0.174 N 
HETATM   31  C   UNL     1     -29.880 -28.134   2.079  1.00  0.00     0.680 A 
ATOM     32  HN  UNL     1     -28.595 -26.847   3.146  1.00  0.00     0.186 HD
HETATM   33  N   UNL     1     -30.185 -29.412   1.645  1.00  0.00    -0.154 N 
ATOM     34  HN  UNL     1     -31.031 -29.549   1.093  1.00  0.00     0.187 HD
HETATM   35  O   UNL     1     -29.738 -31.629   1.497  1.00  0.00    -0.265 OA
BRANCH  31  36
HETATM   36  N   UNL     1     -30.727 -27.119   1.715  1.00  0.00    -0.234 N 
ATOM     37  HN2 UNL     1     -30.814 -26.336   2.363  1.00  0.00     0.174 HD
ATOM     38  HN1 UNL     1     -31.205 -27.198   0.817  1.00  0.00     0.174 HD
ENDBRANCH  31  36
ENDBRANCH  11  23
BRANCH  10  39
HETATM   39  O   UNL     1     -24.126 -26.712   4.993  1.00  0.00    -0.388 OA
ATOM     40  HO  UNL     1     -23.179 -26.678   4.924  1.00  0.00     0.210 HD
ENDBRANCH  10  39
BRANCH  21  41
HETATM   41  O   UNL     1     -26.965 -24.764  -4.059  1.00  0.00    -0.388 OA
ATOM     42  HO  UNL     1     -26.264 -24.140  -4.205  1.00  0.00     0.210 HD
ENDBRANCH  21  41
BRANCH  22  43
HETATM   43  N   UNL     1     -24.729 -27.641  -3.962  1.00  0.00    -0.297 N 
HETATM   44  C   UNL     1     -23.607 -28.158  -3.354  1.00  0.00     0.159 A 
HETATM   45  N   UNL     1     -22.635 -27.418  -2.734  1.00  0.00    -0.174 N 
HETATM   46  C   UNL     1     -23.682 -29.553  -3.485  1.00  0.00     0.147 A 
HETATM   47  C   UNL     1     -21.669 -28.200  -2.186  1.00  0.00     0.680 A 
ATOM     48  HN  UNL     1     -22.637 -26.398  -2.688  1.00  0.00     0.186 HD
HETATM   49  N   UNL     1     -21.640 -29.587  -2.242  1.00  0.00    -0.154 N 
HETATM   50  C   UNL     1     -22.658 -30.367  -2.902  1.00  0.00     0.290 A 
ATOM     51  HN  UNL     1     -20.864 -30.077  -1.797  1.00  0.00     0.187 HD
HETATM   52  O   UNL     1     -22.539 -31.581  -2.839  1.00  0.00    -0.265 OA
HETATM   53  N   UNL     1     -24.840 -29.927  -4.198  1.00  0.00    -0.345 N 
HETATM   54  C   UNL     1     -25.462 -28.747  -4.481  1.00  0.00     0.188 A 
ATOM     55  HN  UNL     1     -25.144 -30.868  -4.446  1.00  0.00     0.167 HD
BRANCH  47  56
HETATM   56  N   UNL     1     -20.658 -27.551  -1.514  1.00  0.00    -0.234 N 
ATOM     57  HN2 UNL     1     -19.925 -27.098  -2.060  1.00  0.00     0.174 HD
ATOM     58  HN1 UNL     1     -20.698 -27.574  -0.494  1.00  0.00     0.174 HD
ENDBRANCH  47  56
ENDBRANCH  22  43
TORSDOF 6
ENDMDL
MODEL 14
REMARK VINA RESULT:    -7.290      3.287      7.938
REMARK INTER + INTRA:         -10.839
REMARK INTER:                  -8.486
REMARK INTRA:                  -2.354
REMARK UNBOUND:                -1.845
REMARK  6 active torsions:
REMARK  status: ('A' for Active; 'I' for Inactive)
REMARK    1  A    between atoms: C_10  and  O_11 
REMARK    2  A    between atoms: C_13  and  N_14 
REMARK    3  A    between atoms: C_23  and  N_24 
REMARK    4  A    between atoms: C_39  and  O_40 
REMARK    5  A    between atoms: C_42  and  N_43 
REMARK    6  A    between atoms: C_52  and  N_53 
ROOT
HETATM    1  P   UNL     1     -22.958 -26.217   1.111  1.00  0.00     0.408 P 
HETATM    2  O   UNL     1     -22.791 -27.748   1.252  1.00  0.00    -0.624 OA
HETATM    3  O   UNL     1     -21.687 -25.459   1.092  1.00  0.00    -0.624 OA
HETATM    4  O   UNL     1     -23.887 -25.999  -0.162  1.00  0.00    -0.287 OA
HETATM    5  C   UNL     1     -24.075 -24.719  -0.766  1.00  0.00     0.216 C 
HETATM    6  C   UNL     1     -24.885 -24.816  -2.032  1.00  0.00     0.180 C 
HETATM    7  O   UNL     1     -24.138 -25.545  -3.030  1.00  0.00    -0.353 OA
HETATM    8  C   UNL     1     -26.178 -25.608  -1.945  1.00  0.00     0.198 C 
HETATM    9  O   UNL     1     -27.219 -24.882  -1.315  1.00  0.00    -0.279 OA
HETATM   10  C   UNL     1     -26.450 -25.909  -3.417  1.00  0.00     0.199 C 
HETATM   11  C   UNL     1     -25.028 -26.231  -3.896  1.00  0.00     0.262 C 
HETATM   12  P   UNL     1     -28.241 -25.535  -0.287  1.00  0.00     0.408 P 
HETATM   13  O   UNL     1     -28.716 -26.898  -0.844  1.00  0.00    -0.624 OA
HETATM   14  O   UNL     1     -29.289 -24.527   0.122  1.00  0.00    -0.624 OA
HETATM   15  O   UNL     1     -27.320 -25.943   0.937  1.00  0.00    -0.287 OA
HETATM   16  C   UNL     1     -26.935 -24.974   1.915  1.00  0.00     0.216 C 
HETATM   17  C   UNL     1     -26.201 -25.617   3.061  1.00  0.00     0.180 C 
HETATM   18  O   UNL     1     -27.083 -26.511   3.773  1.00  0.00    -0.353 OA
HETATM   19  C   UNL     1     -25.060 -26.533   2.667  1.00  0.00     0.198 C 
HETATM   20  O   UNL     1     -23.931 -25.780   2.304  1.00  0.00    -0.279 OA
HETATM   21  C   UNL     1     -24.862 -27.347   3.942  1.00  0.00     0.199 C 
HETATM   22  C   UNL     1     -26.323 -27.550   4.371  1.00  0.00     0.262 C 
ENDROOT
BRANCH  11  23
HETATM   23  N   UNL     1     -24.691 -27.658  -3.845  1.00  0.00    -0.297 N 
HETATM   24  C   UNL     1     -25.384 -28.796  -4.347  1.00  0.00     0.188 A 
HETATM   25  N   UNL     1     -24.744 -29.951  -4.027  1.00  0.00    -0.345 N 
HETATM   26  C   UNL     1     -23.608 -29.533  -3.305  1.00  0.00     0.147 A 
ATOM     27  HN  UNL     1     -25.022 -30.905  -4.257  1.00  0.00     0.167 HD
HETATM   28  C   UNL     1     -23.565 -28.138  -3.195  1.00  0.00     0.159 A 
HETATM   29  C   UNL     1     -22.577 -30.320  -2.707  1.00  0.00     0.290 A 
HETATM   30  N   UNL     1     -22.615 -27.366  -2.566  1.00  0.00    -0.174 N 
HETATM   31  C   UNL     1     -21.649 -28.132  -1.994  1.00  0.00     0.680 A 
ATOM     32  HN  UNL     1     -22.634 -26.346  -2.533  1.00  0.00     0.186 HD
HETATM   33  N   UNL     1     -21.591 -29.514  -2.038  1.00  0.00    -0.154 N 
ATOM     34  HN  UNL     1     -20.813 -29.982  -1.575  1.00  0.00     0.187 HD
HETATM   35  O   UNL     1     -22.416 -31.526  -2.675  1.00  0.00    -0.265 OA
BRANCH  31  36
HETATM   36  N   UNL     1     -20.664 -27.475  -1.302  1.00  0.00    -0.234 N 
ATOM     37  HN2 UNL     1     -19.855 -28.026  -1.014  1.00  0.00     0.174 HD
ATOM     38  HN1 UNL     1     -20.791 -26.478  -1.128  1.00  0.00     0.174 HD
ENDBRANCH  31  36
ENDBRANCH  11  23
BRANCH  10  39
HETATM   39  O   UNL     1     -26.905 -24.781  -4.165  1.00  0.00    -0.388 OA
ATOM     40  HO  UNL     1     -26.232 -24.132  -4.333  1.00  0.00     0.210 HD
ENDBRANCH  10  39
BRANCH  21  41
HETATM   41  O   UNL     1     -24.174 -26.605   4.945  1.00  0.00    -0.388 OA
ATOM     42  HO  UNL     1     -23.479 -26.099   4.541  1.00  0.00     0.210 HD
ENDBRANCH  21  41
BRANCH  22  43
HETATM   43  N   UNL     1     -26.873 -28.823   3.902  1.00  0.00    -0.297 N 
HETATM   44  C   UNL     1     -28.042 -28.889   3.177  1.00  0.00     0.159 A 
HETATM   45  N   UNL     1     -28.842 -27.819   2.872  1.00  0.00    -0.174 N 
HETATM   46  C   UNL     1     -28.218 -30.232   2.815  1.00  0.00     0.147 A 
HETATM   47  C   UNL     1     -29.906 -28.178   2.108  1.00  0.00     0.680 A 
ATOM     48  HN  UNL     1     -28.660 -26.864   3.183  1.00  0.00     0.186 HD
HETATM   49  N   UNL     1     -30.180 -29.471   1.681  1.00  0.00    -0.154 N 
HETATM   50  C   UNL     1     -29.343 -30.599   2.008  1.00  0.00     0.290 A 
ATOM     51  HN  UNL     1     -31.011 -29.630   1.111  1.00  0.00     0.187 HD
HETATM   52  O   UNL     1     -29.670 -31.674   1.531  1.00  0.00    -0.265 OA
HETATM   53  N   UNL     1     -27.174 -31.030   3.329  1.00  0.00    -0.345 N 
HETATM   54  C   UNL     1     -26.368 -30.151   3.990  1.00  0.00     0.188 A 
ATOM     55  HN  UNL     1     -27.051 -32.038   3.229  1.00  0.00     0.167 HD
BRANCH  47  56
HETATM   56  N   UNL     1     -30.759 -27.168   1.724  1.00  0.00    -0.234 N 
ATOM     57  HN2 UNL     1     -31.382 -26.766   2.425  1.00  0.00     0.174 HD
ATOM     58  HN1 UNL     1     -30.723 -26.887   0.744  1.00  0.00     0.174 HD
ENDBRANCH  47  56
ENDBRANCH  22  43
TORSDOF 6
ENDMDL
MODEL 15
REMARK VINA RESULT:    -7.283      4.386      8.280
REMARK INTER + INTRA:         -10.831
REMARK INTER:                  -9.065
REMARK INTRA:                  -1.766
REMARK UNBOUND:                -1.845
REMARK  6 active torsions:
REMARK  status: ('A' for Active; 'I' for Inactive)
REMARK    1  A    between atoms: C_10  and  O_11 
REMARK    2  A    between atoms: C_13  and  N_14 
REMARK    3  A    between atoms: C_23  and  N_24 
REMARK    4  A    between atoms: C_39  and  O_40 
REMARK    5  A    between atoms: C_42  and  N_43 
REMARK    6  A    between atoms: C_52  and  N_53 
ROOT
HETATM    1  P   UNL     1     -22.130 -27.876  -0.318  1.00  0.00     0.408 P 
HETATM    2  O   UNL     1     -22.501 -28.895   0.785  1.00  0.00    -0.624 OA
HETATM    3  O   UNL     1     -20.683 -27.782  -0.607  1.00  0.00    -0.624 OA
HETATM    4  O   UNL     1     -23.041 -28.245  -1.569  1.00  0.00    -0.287 OA
HETATM    5  C   UNL     1     -22.824 -27.691  -2.868  1.00  0.00     0.216 C 
HETATM    6  C   UNL     1     -23.734 -28.311  -3.895  1.00  0.00     0.180 C 
HETATM    7  O   UNL     1     -23.391 -29.703  -4.069  1.00  0.00    -0.353 OA
HETATM    8  C   UNL     1     -25.209 -28.378  -3.536  1.00  0.00     0.198 C 
HETATM    9  O   UNL     1     -25.861 -27.129  -3.686  1.00  0.00    -0.279 OA
HETATM   10  C   UNL     1     -25.710 -29.447  -4.503  1.00  0.00     0.199 C 
HETATM   11  C   UNL     1     -24.545 -30.444  -4.432  1.00  0.00     0.262 C 
HETATM   12  P   UNL     1     -26.944 -26.580  -2.660  1.00  0.00     0.408 P 
HETATM   13  O   UNL     1     -27.919 -27.725  -2.295  1.00  0.00    -0.624 OA
HETATM   14  O   UNL     1     -27.526 -25.278  -3.156  1.00  0.00    -0.624 OA
HETATM   15  O   UNL     1     -26.112 -26.372  -1.326  1.00  0.00    -0.287 OA
HETATM   16  C   UNL     1     -25.318 -25.198  -1.137  1.00  0.00     0.216 C 
HETATM   17  C   UNL     1     -24.751 -25.140   0.256  1.00  0.00     0.180 C 
HETATM   18  O   UNL     1     -25.819 -25.008   1.219  1.00  0.00    -0.353 OA
HETATM   19  C   UNL     1     -24.050 -26.400   0.721  1.00  0.00     0.198 C 
HETATM   20  O   UNL     1     -22.767 -26.486   0.151  1.00  0.00    -0.279 OA
HETATM   21  C   UNL     1     -24.028 -26.203   2.234  1.00  0.00     0.199 C 
HETATM   22  C   UNL     1     -25.419 -25.586   2.452  1.00  0.00     0.262 C 
ENDROOT
BRANCH  11  23
HETATM   23  N   UNL     1     -24.729 -31.506  -3.436  1.00  0.00    -0.297 N 
HETATM   24  C   UNL     1     -24.403 -31.548  -2.051  1.00  0.00     0.188 A 
HETATM   25  N   UNL     1     -24.690 -32.761  -1.509  1.00  0.00    -0.345 N 
HETATM   26  C   UNL     1     -25.219 -33.508  -2.580  1.00  0.00     0.147 A 
ATOM     27  HN  UNL     1     -24.554 -33.062  -0.544  1.00  0.00     0.167 HD
HETATM   28  C   UNL     1     -25.252 -32.749  -3.757  1.00  0.00     0.159 A 
HETATM   29  C   UNL     1     -25.682 -34.859  -2.600  1.00  0.00     0.290 A 
HETATM   30  N   UNL     1     -25.698 -33.133  -5.001  1.00  0.00    -0.174 N 
HETATM   31  C   UNL     1     -26.123 -34.424  -5.002  1.00  0.00     0.680 A 
ATOM     32  HN  UNL     1     -25.709 -32.524  -5.820  1.00  0.00     0.186 HD
HETATM   33  N   UNL     1     -26.136 -35.264  -3.903  1.00  0.00    -0.154 N 
ATOM     34  HN  UNL     1     -26.483 -36.215  -4.023  1.00  0.00     0.187 HD
HETATM   35  O   UNL     1     -25.742 -35.690  -1.713  1.00  0.00    -0.265 OA
BRANCH  31  36
HETATM   36  N   UNL     1     -26.556 -34.934  -6.199  1.00  0.00    -0.234 N 
ATOM     37  HN2 UNL     1     -27.561 -34.911  -6.374  1.00  0.00     0.174 HD
ATOM     38  HN1 UNL     1     -25.852 -35.290  -6.846  1.00  0.00     0.174 HD
ENDBRANCH  31  36
ENDBRANCH  11  23
BRANCH  10  39
HETATM   39  O   UNL     1     -25.808 -29.004  -5.857  1.00  0.00    -0.388 OA
ATOM     40  HO  UNL     1     -24.989 -29.042  -6.337  1.00  0.00     0.210 HD
ENDBRANCH  10  39
BRANCH  21  41
HETATM   41  O   UNL     1     -23.031 -25.267   2.634  1.00  0.00    -0.388 OA
ATOM     42  HO  UNL     1     -23.284 -24.872   3.460  1.00  0.00     0.210 HD
ENDBRANCH  21  41
BRANCH  22  43
HETATM   43  N   UNL     1     -26.424 -26.587   2.814  1.00  0.00    -0.297 N 
HETATM   44  C   UNL     1     -27.606 -26.717   2.120  1.00  0.00     0.159 A 
HETATM   45  N   UNL     1     -28.005 -25.913   1.085  1.00  0.00    -0.174 N 
HETATM   46  C   UNL     1     -28.278 -27.820   2.668  1.00  0.00     0.147 A 
HETATM   47  C   UNL     1     -29.197 -26.304   0.563  1.00  0.00     0.680 A 
ATOM     48  HN  UNL     1     -27.470 -25.113   0.745  1.00  0.00     0.186 HD
HETATM   49  N   UNL     1     -29.948 -27.382   1.015  1.00  0.00    -0.154 N 
HETATM   50  C   UNL     1     -29.533 -28.224   2.109  1.00  0.00     0.290 A 
ATOM     51  HN  UNL     1     -30.833 -27.588   0.551  1.00  0.00     0.187 HD
HETATM   52  O   UNL     1     -30.262 -29.167   2.376  1.00  0.00    -0.265 OA
HETATM   53  N   UNL     1     -27.537 -28.381   3.729  1.00  0.00    -0.345 N 
HETATM   54  C   UNL     1     -26.413 -27.612   3.802  1.00  0.00     0.188 A 
ATOM     55  HN  UNL     1     -27.785 -29.181   4.310  1.00  0.00     0.167 HD
BRANCH  47  56
HETATM   56  N   UNL     1     -29.673 -25.576  -0.503  1.00  0.00    -0.234 N 
ATOM     57  HN2 UNL     1     -29.121 -24.785  -0.836  1.00  0.00     0.174 HD
ATOM     58  HN1 UNL     1     -30.570 -25.868  -0.893  1.00  0.00     0.174 HD
ENDBRANCH  47  56
ENDBRANCH  22  43
TORSDOF 6
ENDMDL
MODEL 16
REMARK VINA RESULT:    -7.256      1.230      2.226
REMARK INTER + INTRA:         -10.797
REMARK INTER:                  -9.361
REMARK INTRA:                  -1.436
REMARK UNBOUND:                -1.845
REMARK  6 active torsions:
REMARK  status: ('A' for Active; 'I' for Inactive)
REMARK    1  A    between atoms: C_10  and  O_11 
REMARK    2  A    between atoms: C_13  and  N_14 
REMARK    3  A    between atoms: C_23  and  N_24 
REMARK    4  A    between atoms: C_39  and  O_40 
REMARK    5  A    between atoms: C_42  and  N_43 
REMARK    6  A    between atoms: C_52  and  N_53 
ROOT
HETATM    1  P   UNL     1     -24.183 -28.188  -0.568  1.00  0.00     0.408 P 
HETATM    2  O   UNL     1     -23.004 -27.276  -0.980  1.00  0.00    -0.624 OA
HETATM    3  O   UNL     1     -23.809 -29.594  -0.301  1.00  0.00    -0.624 OA
HETATM    4  O   UNL     1     -24.902 -27.444   0.641  1.00  0.00    -0.287 OA
HETATM    5  C   UNL     1     -25.888 -28.079   1.457  1.00  0.00     0.216 C 
HETATM    6  C   UNL     1     -26.303 -27.203   2.610  1.00  0.00     0.180 C 
HETATM    7  O   UNL     1     -25.188 -27.032   3.512  1.00  0.00    -0.353 OA
HETATM    8  C   UNL     1     -26.673 -25.770   2.268  1.00  0.00     0.198 C 
HETATM    9  O   UNL     1     -27.967 -25.665   1.700  1.00  0.00    -0.279 OA
HETATM   10  C   UNL     1     -26.548 -25.091   3.629  1.00  0.00     0.199 C 
HETATM   11  C   UNL     1     -25.277 -25.770   4.156  1.00  0.00     0.262 C 
HETATM   12  P   UNL     1     -28.313 -24.698   0.487  1.00  0.00     0.408 P 
HETATM   13  O   UNL     1     -27.655 -23.320   0.736  1.00  0.00    -0.624 OA
HETATM   14  O   UNL     1     -29.792 -24.739   0.187  1.00  0.00    -0.624 OA
HETATM   15  O   UNL     1     -27.462 -25.296  -0.711  1.00  0.00    -0.287 OA
HETATM   16  C   UNL     1     -27.938 -26.420  -1.454  1.00  0.00     0.216 C 
HETATM   17  C   UNL     1     -27.052 -26.710  -2.635  1.00  0.00     0.180 C 
HETATM   18  O   UNL     1     -27.104 -25.614  -3.574  1.00  0.00    -0.353 OA
HETATM   19  C   UNL     1     -25.571 -26.799  -2.326  1.00  0.00     0.198 C 
HETATM   20  O   UNL     1     -25.268 -28.038  -1.734  1.00  0.00    -0.279 OA
HETATM   21  C   UNL     1     -24.953 -26.622  -3.710  1.00  0.00     0.199 C 
HETATM   22  C   UNL     1     -25.882 -25.543  -4.290  1.00  0.00     0.262 C 
ENDROOT
BRANCH  11  23
HETATM   23  N   UNL     1     -24.042 -25.031   3.867  1.00  0.00    -0.297 N 
HETATM   24  C   UNL     1     -23.703 -23.666   4.085  1.00  0.00     0.188 A 
HETATM   25  N   UNL     1     -22.462 -23.379   3.609  1.00  0.00    -0.345 N 
HETATM   26  C   UNL     1     -22.000 -24.600   3.077  1.00  0.00     0.147 A 
ATOM     27  HN  UNL     1     -21.976 -22.483   3.631  1.00  0.00     0.167 HD
HETATM   28  C   UNL     1     -22.954 -25.613   3.236  1.00  0.00     0.159 A 
HETATM   29  C   UNL     1     -20.760 -24.893   2.432  1.00  0.00     0.290 A 
HETATM   30  N   UNL     1     -22.864 -26.930   2.846  1.00  0.00    -0.174 N 
HETATM   31  C   UNL     1     -21.683 -27.187   2.224  1.00  0.00     0.680 A 
ATOM     32  HN  UNL     1     -23.593 -27.626   3.004  1.00  0.00     0.186 HD
HETATM   33  N   UNL     1     -20.672 -26.266   2.013  1.00  0.00    -0.154 N 
ATOM     34  HN  UNL     1     -19.825 -26.576   1.538  1.00  0.00     0.187 HD
HETATM   35  O   UNL     1     -19.805 -24.180   2.188  1.00  0.00    -0.265 OA
BRANCH  31  36
HETATM   36  N   UNL     1     -21.494 -28.461   1.754  1.00  0.00    -0.234 N 
ATOM     37  HN2 UNL     1     -22.070 -28.752   0.965  1.00  0.00     0.174 HD
ATOM     38  HN1 UNL     1     -20.783 -29.034   2.209  1.00  0.00     0.174 HD
ENDBRANCH  31  36
ENDBRANCH  11  23
BRANCH  10  39
HETATM   39  O   UNL     1     -27.605 -25.407   4.535  1.00  0.00    -0.388 OA
ATOM     40  HO  UNL     1     -28.268 -24.730   4.607  1.00  0.00     0.210 HD
ENDBRANCH  10  39
BRANCH  21  41
HETATM   41  O   UNL     1     -25.058 -27.806  -4.495  1.00  0.00    -0.388 OA
ATOM     42  HO  UNL     1     -25.200 -28.551  -3.923  1.00  0.00     0.210 HD
ENDBRANCH  21  41
BRANCH  22  43
HETATM   43  N   UNL     1     -25.347 -24.192  -4.116  1.00  0.00    -0.297 N 
HETATM   44  C   UNL     1     -24.937 -23.723  -2.888  1.00  0.00     0.159 A 
HETATM   45  N   UNL     1     -25.036 -24.412  -1.708  1.00  0.00    -0.174 N 
HETATM   46  C   UNL     1     -24.398 -22.446  -3.103  1.00  0.00     0.147 A 
HETATM   47  C   UNL     1     -24.511 -23.718  -0.665  1.00  0.00     0.680 A 
ATOM     48  HN  UNL     1     -25.455 -25.338  -1.622  1.00  0.00     0.186 HD
HETATM   49  N   UNL     1     -23.943 -22.453  -0.756  1.00  0.00    -0.154 N 
HETATM   50  C   UNL     1     -23.846 -21.724  -1.996  1.00  0.00     0.290 A 
ATOM     51  HN  UNL     1     -23.579 -22.020   0.093  1.00  0.00     0.187 HD
HETATM   52  O   UNL     1     -23.283 -20.641  -1.947  1.00  0.00    -0.265 OA
HETATM   53  N   UNL     1     -24.486 -22.087  -4.464  1.00  0.00    -0.345 N 
HETATM   54  C   UNL     1     -25.070 -23.165  -5.062  1.00  0.00     0.188 A 
ATOM     55  HN  UNL     1     -24.182 -21.218  -4.902  1.00  0.00     0.167 HD
BRANCH  47  56
HETATM   56  N   UNL     1     -24.537 -24.336   0.564  1.00  0.00    -0.234 N 
ATOM     57  HN2 UNL     1     -25.319 -24.954   0.779  1.00  0.00     0.174 HD
ATOM     58  HN1 UNL     1     -23.766 -24.126   1.198  1.00  0.00     0.174 HD
ENDBRANCH  47  56
ENDBRANCH  22  43
TORSDOF 6
ENDMDL
MODEL 17
REMARK VINA RESULT:    -7.224      3.531      8.529
REMARK INTER + INTRA:         -10.759
REMARK INTER:                  -8.654
REMARK INTRA:                  -2.104
REMARK UNBOUND:                -1.845
REMARK  6 active torsions:
REMARK  status: ('A' for Active; 'I' for Inactive)
REMARK    1  A    between atoms: C_10  and  O_11 
REMARK    2  A    between atoms: C_13  and  N_14 
REMARK    3  A    between atoms: C_23  and  N_24 
REMARK    4  A    between atoms: C_39  and  O_40 
REMARK    5  A    between atoms: C_42  and  N_43 
REMARK    6  A    between atoms: C_52  and  N_53 
ROOT
HETATM    1  P   UNL     1     -22.981 -27.666   0.450  1.00  0.00     0.408 P 
HETATM    2  O   UNL     1     -23.362 -29.157   0.290  1.00  0.00    -0.624 OA
HETATM    3  O   UNL     1     -21.528 -27.395   0.414  1.00  0.00    -0.624 OA
HETATM    4  O   UNL     1     -23.837 -26.883  -0.639  1.00  0.00    -0.287 OA
HETATM    5  C   UNL     1     -23.590 -25.517  -0.974  1.00  0.00     0.216 C 
HETATM    6  C   UNL     1     -24.445 -25.064  -2.127  1.00  0.00     0.180 C 
HETATM    7  O   UNL     1     -24.057 -25.772  -3.325  1.00  0.00    -0.353 OA
HETATM    8  C   UNL     1     -25.929 -25.374  -2.028  1.00  0.00     0.198 C 
HETATM    9  O   UNL     1     -26.610 -24.491  -1.154  1.00  0.00    -0.279 OA
HETATM   10  C   UNL     1     -26.365 -25.245  -3.485  1.00  0.00     0.199 C 
HETATM   11  C   UNL     1     -25.176 -25.918  -4.185  1.00  0.00     0.262 C 
HETATM   12  P   UNL     1     -27.744 -24.963  -0.144  1.00  0.00     0.408 P 
HETATM   13  O   UNL     1     -28.699 -25.935  -0.877  1.00  0.00    -0.624 OA
HETATM   14  O   UNL     1     -28.344 -23.773   0.566  1.00  0.00    -0.624 OA
HETATM   15  O   UNL     1     -26.966 -25.908   0.863  1.00  0.00    -0.287 OA
HETATM   16  C   UNL     1     -26.212 -25.357   1.946  1.00  0.00     0.216 C 
HETATM   17  C   UNL     1     -25.697 -26.437   2.859  1.00  0.00     0.180 C 
HETATM   18  O   UNL     1     -26.801 -27.112   3.499  1.00  0.00    -0.353 OA
HETATM   19  C   UNL     1     -24.977 -27.578   2.169  1.00  0.00     0.198 C 
HETATM   20  O   UNL     1     -23.674 -27.191   1.812  1.00  0.00    -0.279 OA
HETATM   21  C   UNL     1     -25.015 -28.663   3.241  1.00  0.00     0.199 C 
HETATM   22  C   UNL     1     -26.430 -28.447   3.802  1.00  0.00     0.262 C 
ENDROOT
BRANCH  11  23
HETATM   23  N   UNL     1     -25.365 -27.351  -4.435  1.00  0.00    -0.297 N 
HETATM   24  C   UNL     1     -26.444 -28.055  -5.041  1.00  0.00     0.188 A 
HETATM   25  N   UNL     1     -26.238 -29.399  -5.018  1.00  0.00    -0.345 N 
HETATM   26  C   UNL     1     -24.989 -29.551  -4.383  1.00  0.00     0.147 A 
ATOM     27  HN  UNL     1     -26.850 -30.131  -5.378  1.00  0.00     0.167 HD
HETATM   28  C   UNL     1     -24.447 -28.308  -4.031  1.00  0.00     0.159 A 
HETATM   29  C   UNL     1     -24.272 -30.746  -4.074  1.00  0.00     0.290 A 
HETATM   30  N   UNL     1     -23.251 -28.053  -3.400  1.00  0.00    -0.174 N 
HETATM   31  C   UNL     1     -22.589 -29.203  -3.103  1.00  0.00     0.680 A 
ATOM     32  HN  UNL     1     -22.905 -27.118  -3.182  1.00  0.00     0.186 HD
HETATM   33  N   UNL     1     -23.028 -30.480  -3.402  1.00  0.00    -0.154 N 
ATOM     34  HN  UNL     1     -22.442 -31.270  -3.134  1.00  0.00     0.187 HD
HETATM   35  O   UNL     1     -24.548 -31.913  -4.280  1.00  0.00    -0.265 OA
BRANCH  31  36
HETATM   36  N   UNL     1     -21.397 -29.078  -2.436  1.00  0.00    -0.234 N 
ATOM     37  HN2 UNL     1     -21.414 -29.236  -1.428  1.00  0.00     0.174 HD
ATOM     38  HN1 UNL     1     -20.568 -28.850  -2.984  1.00  0.00     0.174 HD
ENDBRANCH  31  36
ENDBRANCH  11  23
BRANCH  10  39
HETATM   39  O   UNL     1     -26.427 -23.898  -3.956  1.00  0.00    -0.388 OA
ATOM     40  HO  UNL     1     -25.587 -23.540  -4.216  1.00  0.00     0.210 HD
ENDBRANCH  10  39
BRANCH  21  41
HETATM   41  O   UNL     1     -24.059 -28.427   4.270  1.00  0.00    -0.388 OA
ATOM     42  HO  UNL     1     -23.310 -28.995   4.140  1.00  0.00     0.210 HD
ENDBRANCH  21  41
BRANCH  22  43
HETATM   43  N   UNL     1     -27.419 -29.330   3.181  1.00  0.00    -0.297 N 
HETATM   44  C   UNL     1     -28.749 -29.295   3.534  1.00  0.00     0.159 A 
HETATM   45  N   UNL     1     -29.283 -28.507   4.520  1.00  0.00    -0.174 N 
HETATM   46  C   UNL     1     -29.416 -30.191   2.684  1.00  0.00     0.147 A 
HETATM   47  C   UNL     1     -30.631 -28.651   4.615  1.00  0.00     0.680 A 
ATOM     48  HN  UNL     1     -28.733 -27.886   5.113  1.00  0.00     0.186 HD
HETATM   49  N   UNL     1     -31.399 -29.498   3.826  1.00  0.00    -0.154 N 
HETATM   50  C   UNL     1     -30.837 -30.333   2.794  1.00  0.00     0.290 A 
ATOM     51  HN  UNL     1     -32.406 -29.530   3.984  1.00  0.00     0.187 HD
HETATM   52  O   UNL     1     -31.628 -30.996   2.141  1.00  0.00    -0.265 OA
HETATM   53  N   UNL     1     -28.509 -30.816   1.805  1.00  0.00    -0.345 N 
HETATM   54  C   UNL     1     -27.298 -30.279   2.127  1.00  0.00     0.188 A 
ATOM     55  HN  UNL     1     -28.712 -31.514   1.089  1.00  0.00     0.167 HD
BRANCH  47  56
HETATM   56  N   UNL     1     -31.268 -27.880   5.561  1.00  0.00    -0.234 N 
ATOM     57  HN2 UNL     1     -31.644 -26.976   5.276  1.00  0.00     0.174 HD
ATOM     58  HN1 UNL     1     -31.316 -28.262   6.505  1.00  0.00     0.174 HD
ENDBRANCH  47  56
ENDBRANCH  22  43
TORSDOF 6
ENDMDL
MODEL 18
REMARK VINA RESULT:    -7.173      9.405     14.315
REMARK INTER + INTRA:         -10.695
REMARK INTER:                  -8.979
REMARK INTRA:                  -1.715
REMARK UNBOUND:                -1.845
REMARK  6 active torsions:
REMARK  status: ('A' for Active; 'I' for Inactive)
REMARK    1  A    between atoms: C_10  and  O_11 
REMARK    2  A    between atoms: C_13  and  N_14 
REMARK    3  A    between atoms: C_23  and  N_24 
REMARK    4  A    between atoms: C_39  and  O_40 
REMARK    5  A    between atoms: C_42  and  N_43 
REMARK    6  A    between atoms: C_52  and  N_53 
ROOT
HETATM    1  P   UNL     1     -14.505 -21.089  -4.059  1.00  0.00     0.408 P 
HETATM    2  O   UNL     1     -15.900 -21.125  -4.726  1.00  0.00    -0.624 OA
HETATM    3  O   UNL     1     -13.497 -21.966  -4.694  1.00  0.00    -0.624 OA
HETATM    4  O   UNL     1     -14.103 -19.552  -3.981  1.00  0.00    -0.287 OA
HETATM    5  C   UNL     1     -12.783 -19.118  -3.653  1.00  0.00     0.216 C 
HETATM    6  C   UNL     1     -12.638 -17.625  -3.786  1.00  0.00     0.180 C 
HETATM    7  O   UNL     1     -12.773 -17.249  -5.174  1.00  0.00    -0.353 OA
HETATM    8  C   UNL     1     -13.707 -16.782  -3.112  1.00  0.00     0.198 C 
HETATM    9  O   UNL     1     -13.522 -16.692  -1.710  1.00  0.00    -0.279 OA
HETATM   10  C   UNL     1     -13.544 -15.448  -3.835  1.00  0.00     0.199 C 
HETATM   11  C   UNL     1     -13.320 -15.943  -5.271  1.00  0.00     0.262 C 
HETATM   12  P   UNL     1     -14.718 -16.756  -0.665  1.00  0.00     0.408 P 
HETATM   13  O   UNL     1     -15.881 -15.871  -1.173  1.00  0.00    -0.624 OA
HETATM   14  O   UNL     1     -14.204 -16.524   0.736  1.00  0.00    -0.624 OA
HETATM   15  O   UNL     1     -15.278 -18.229  -0.840  1.00  0.00    -0.287 OA
HETATM   16  C   UNL     1     -14.639 -19.334  -0.197  1.00  0.00     0.216 C 
HETATM   17  C   UNL     1     -15.431 -20.601  -0.373  1.00  0.00     0.180 C 
HETATM   18  O   UNL     1     -16.705 -20.486   0.299  1.00  0.00    -0.353 OA
HETATM   19  C   UNL     1     -15.845 -20.915  -1.796  1.00  0.00     0.198 C 
HETATM   20  O   UNL     1     -14.758 -21.438  -2.518  1.00  0.00    -0.279 OA
HETATM   21  C   UNL     1     -16.970 -21.922  -1.579  1.00  0.00     0.199 C 
HETATM   22  C   UNL     1     -17.662 -21.303  -0.355  1.00  0.00     0.262 C 
ENDROOT
BRANCH  11  23
HETATM   23  N   UNL     1     -14.547 -16.029  -6.070  1.00  0.00    -0.297 N 
HETATM   24  C   UNL     1     -15.902 -16.221  -5.677  1.00  0.00     0.188 A 
HETATM   25  N   UNL     1     -16.727 -16.301  -6.754  1.00  0.00    -0.345 N 
HETATM   26  C   UNL     1     -15.871 -16.150  -7.863  1.00  0.00     0.147 A 
ATOM     27  HN  UNL     1     -17.737 -16.440  -6.759  1.00  0.00     0.167 HD
HETATM   28  C   UNL     1     -14.542 -15.978  -7.456  1.00  0.00     0.159 A 
HETATM   29  C   UNL     1     -16.185 -16.164  -9.256  1.00  0.00     0.290 A 
HETATM   30  N   UNL     1     -13.429 -15.800  -8.245  1.00  0.00    -0.174 N 
HETATM   31  C   UNL     1     -13.746 -15.827  -9.567  1.00  0.00     0.680 A 
ATOM     32  HN  UNL     1     -12.484 -15.665  -7.884  1.00  0.00     0.186 HD
HETATM   33  N   UNL     1     -15.020 -15.992 -10.082  1.00  0.00    -0.154 N 
ATOM     34  HN  UNL     1     -15.138 -15.991 -11.095  1.00  0.00     0.187 HD
HETATM   35  O   UNL     1     -17.250 -16.300  -9.828  1.00  0.00    -0.265 OA
BRANCH  31  36
HETATM   36  N   UNL     1     -12.710 -15.700 -10.456  1.00  0.00    -0.234 N 
ATOM     37  HN2 UNL     1     -12.225 -14.803 -10.475  1.00  0.00     0.174 HD
ATOM     38  HN1 UNL     1     -12.478 -16.508 -11.033  1.00  0.00     0.174 HD
ENDBRANCH  31  36
ENDBRANCH  11  23
BRANCH  10  39
HETATM   39  O   UNL     1     -12.378 -14.718  -3.451  1.00  0.00    -0.388 OA
ATOM     40  HO  UNL     1     -11.614 -15.262  -3.299  1.00  0.00     0.210 HD
ENDBRANCH  10  39
BRANCH  21  41
HETATM   41  O   UNL     1     -16.469 -23.211  -1.236  1.00  0.00    -0.388 OA
ATOM     42  HO  UNL     1     -15.665 -23.374  -1.714  1.00  0.00     0.210 HD
ENDBRANCH  21  41
BRANCH  22  43
HETATM   43  N   UNL     1     -18.792 -20.449  -0.723  1.00  0.00    -0.297 N 
HETATM   44  C   UNL     1     -18.890 -19.145  -0.291  1.00  0.00     0.159 A 
HETATM   45  N   UNL     1     -18.012 -18.528   0.560  1.00  0.00    -0.174 N 
HETATM   46  C   UNL     1     -20.029 -18.601  -0.903  1.00  0.00     0.147 A 
HETATM   47  C   UNL     1     -18.337 -17.227   0.776  1.00  0.00     0.680 A 
ATOM     48  HN  UNL     1     -17.207 -18.991   0.983  1.00  0.00     0.186 HD
HETATM   49  N   UNL     1     -19.432 -16.577   0.220  1.00  0.00    -0.154 N 
HETATM   50  C   UNL     1     -20.362 -17.228  -0.669  1.00  0.00     0.290 A 
ATOM     51  HN  UNL     1     -19.586 -15.596   0.452  1.00  0.00     0.187 HD
HETATM   52  O   UNL     1     -21.256 -16.532  -1.125  1.00  0.00    -0.265 OA
HETATM   53  N   UNL     1     -20.673 -19.564  -1.708  1.00  0.00    -0.345 N 
HETATM   54  C   UNL     1     -19.903 -20.683  -1.581  1.00  0.00     0.188 A 
ATOM     55  HN  UNL     1     -21.523 -19.450  -2.260  1.00  0.00     0.167 HD
BRANCH  47  56
HETATM   56  N   UNL     1     -17.499 -16.509   1.598  1.00  0.00    -0.234 N 
ATOM     57  HN2 UNL     1     -17.140 -16.961   2.439  1.00  0.00     0.174 HD
ATOM     58  HN1 UNL     1     -17.294 -15.549   1.317  1.00  0.00     0.174 HD
ENDBRANCH  47  56
ENDBRANCH  22  43
TORSDOF 6
ENDMDL
MODEL 19
REMARK VINA RESULT:    -7.005      3.181      5.568
REMARK INTER + INTRA:         -10.488
REMARK INTER:                  -8.621
REMARK INTRA:                  -1.867
REMARK UNBOUND:                -1.845
REMARK  6 active torsions:
REMARK  status: ('A' for Active; 'I' for Inactive)
REMARK    1  A    between atoms: C_10  and  O_11 
REMARK    2  A    between atoms: C_13  and  N_14 
REMARK    3  A    between atoms: C_23  and  N_24 
REMARK    4  A    between atoms: C_39  and  O_40 
REMARK    5  A    between atoms: C_42  and  N_43 
REMARK    6  A    between atoms: C_52  and  N_53 
ROOT
HETATM    1  P   UNL     1     -27.190 -25.114   0.595  1.00  0.00     0.408 P 
HETATM    2  O   UNL     1     -26.864 -26.620   0.733  1.00  0.00    -0.624 OA
HETATM    3  O   UNL     1     -28.500 -24.715   1.154  1.00  0.00    -0.624 OA
HETATM    4  O   UNL     1     -25.938 -24.344   1.203  1.00  0.00    -0.287 OA
HETATM    5  C   UNL     1     -25.959 -22.943   1.482  1.00  0.00     0.216 C 
HETATM    6  C   UNL     1     -24.702 -22.497   2.180  1.00  0.00     0.180 C 
HETATM    7  O   UNL     1     -24.640 -23.093   3.494  1.00  0.00    -0.353 OA
HETATM    8  C   UNL     1     -23.390 -22.941   1.555  1.00  0.00     0.198 C 
HETATM    9  O   UNL     1     -23.047 -22.177   0.413  1.00  0.00    -0.279 OA
HETATM   10  C   UNL     1     -22.421 -22.762   2.721  1.00  0.00     0.199 C 
HETATM   11  C   UNL     1     -23.287 -23.284   3.876  1.00  0.00     0.262 C 
HETATM   12  P   UNL     1     -22.418 -22.808  -0.904  1.00  0.00     0.408 P 
HETATM   13  O   UNL     1     -21.312 -23.813  -0.503  1.00  0.00    -0.624 OA
HETATM   14  O   UNL     1     -22.069 -21.721  -1.893  1.00  0.00    -0.624 OA
HETATM   15  O   UNL     1     -23.576 -23.741  -1.452  1.00  0.00    -0.287 OA
HETATM   16  C   UNL     1     -24.655 -23.194  -2.215  1.00  0.00     0.216 C 
HETATM   17  C   UNL     1     -25.542 -24.278  -2.763  1.00  0.00     0.180 C 
HETATM   18  O   UNL     1     -24.810 -25.086  -3.710  1.00  0.00    -0.353 OA
HETATM   19  C   UNL     1     -26.006 -25.307  -1.751  1.00  0.00     0.198 C 
HETATM   20  O   UNL     1     -27.048 -24.786  -0.965  1.00  0.00    -0.279 OA
HETATM   21  C   UNL     1     -26.445 -26.455  -2.655  1.00  0.00     0.199 C 
HETATM   22  C   UNL     1     -25.345 -26.400  -3.727  1.00  0.00     0.262 C 
ENDROOT
BRANCH  11  23
HETATM   23  N   UNL     1     -23.098 -24.710   4.165  1.00  0.00    -0.297 N 
HETATM   24  C   UNL     1     -21.913 -25.465   4.388  1.00  0.00     0.188 A 
HETATM   25  N   UNL     1     -22.188 -26.785   4.562  1.00  0.00    -0.345 N 
HETATM   26  C   UNL     1     -23.590 -26.868   4.451  1.00  0.00     0.147 A 
ATOM     27  HN  UNL     1     -21.528 -27.544   4.733  1.00  0.00     0.167 HD
HETATM   28  C   UNL     1     -24.154 -25.608   4.216  1.00  0.00     0.159 A 
HETATM   29  C   UNL     1     -24.438 -28.014   4.536  1.00  0.00     0.290 A 
HETATM   30  N   UNL     1     -25.483 -25.290   4.053  1.00  0.00    -0.174 N 
HETATM   31  C   UNL     1     -26.272 -26.395   4.125  1.00  0.00     0.680 A 
ATOM     32  HN  UNL     1     -25.832 -24.344   3.897  1.00  0.00     0.186 HD
HETATM   33  N   UNL     1     -25.825 -27.684   4.352  1.00  0.00    -0.154 N 
ATOM     34  HN  UNL     1     -26.513 -28.436   4.391  1.00  0.00     0.187 HD
HETATM   35  O   UNL     1     -24.171 -29.186   4.728  1.00  0.00    -0.265 OA
BRANCH  31  36
HETATM   36  N   UNL     1     -27.618 -26.210   3.938  1.00  0.00    -0.234 N 
ATOM     37  HN2 UNL     1     -27.989 -26.429   3.014  1.00  0.00     0.174 HD
ATOM     38  HN1 UNL     1     -28.166 -25.879   4.732  1.00  0.00     0.174 HD
ENDBRANCH  31  36
ENDBRANCH  11  23
BRANCH  10  39
HETATM   39  O   UNL     1     -22.105 -21.399   3.009  1.00  0.00    -0.388 OA
ATOM     40  HO  UNL     1     -22.187 -21.170   3.927  1.00  0.00     0.210 HD
ENDBRANCH  10  39
BRANCH  21  41
HETATM   41  O   UNL     1     -27.708 -26.200  -3.263  1.00  0.00    -0.388 OA
ATOM     42  HO  UNL     1     -27.986 -26.969  -3.746  1.00  0.00     0.210 HD
ENDBRANCH  21  41
BRANCH  22  43
HETATM   43  N   UNL     1     -24.246 -27.326  -3.450  1.00  0.00    -0.297 N 
HETATM   44  C   UNL     1     -24.301 -28.652  -3.818  1.00  0.00     0.159 A 
HETATM   45  N   UNL     1     -25.376 -29.263  -4.407  1.00  0.00    -0.174 N 
HETATM   46  C   UNL     1     -23.058 -29.213  -3.490  1.00  0.00     0.147 A 
HETATM   47  C   UNL     1     -25.128 -30.566  -4.697  1.00  0.00     0.680 A 
ATOM     48  HN  UNL     1     -26.261 -28.794  -4.604  1.00  0.00     0.186 HD
HETATM   49  N   UNL     1     -23.936 -31.229  -4.429  1.00  0.00    -0.154 N 
HETATM   50  C   UNL     1     -22.807 -30.588  -3.802  1.00  0.00     0.290 A 
ATOM     51  HN  UNL     1     -23.857 -32.212  -4.688  1.00  0.00     0.187 HD
HETATM   52  O   UNL     1     -21.803 -31.271  -3.666  1.00  0.00    -0.265 OA
HETATM   53  N   UNL     1     -22.217 -28.253  -2.890  1.00  0.00    -0.345 N 
HETATM   54  C   UNL     1     -22.962 -27.112  -2.874  1.00  0.00     0.188 A 
ATOM     55  HN  UNL     1     -21.265 -28.384  -2.547  1.00  0.00     0.167 HD
BRANCH  47  56
HETATM   56  N   UNL     1     -26.139 -31.264  -5.318  1.00  0.00    -0.234 N 
ATOM     57  HN2 UNL     1     -26.491 -32.110  -4.869  1.00  0.00     0.174 HD
ATOM     58  HN1 UNL     1     -26.471 -30.893  -6.208  1.00  0.00     0.174 HD
ENDBRANCH  47  56
ENDBRANCH  22  43
TORSDOF 6
ENDMDL
MODEL 20
REMARK VINA RESULT:    -6.944      3.296      5.428
REMARK INTER + INTRA:         -10.413
REMARK INTER:                  -8.533
REMARK INTRA:                  -1.880
REMARK UNBOUND:                -1.845
REMARK  6 active torsions:
REMARK  status: ('A' for Active; 'I' for Inactive)
REMARK    1  A    between atoms: C_10  and  O_11 
REMARK    2  A    between atoms: C_13  and  N_14 
REMARK    3  A    between atoms: C_23  and  N_24 
REMARK    4  A    between atoms: C_39  and  O_40 
REMARK    5  A    between atoms: C_42  and  N_43 
REMARK    6  A    between atoms: C_52  and  N_53 
ROOT
HETATM    1  P   UNL     1     -27.988 -26.943  -0.472  1.00  0.00     0.408 P 
HETATM    2  O   UNL     1     -27.178 -28.181  -0.018  1.00  0.00    -0.624 OA
HETATM    3  O   UNL     1     -29.452 -27.074  -0.314  1.00  0.00    -0.624 OA
HETATM    4  O   UNL     1     -27.340 -25.703   0.287  1.00  0.00    -0.287 OA
HETATM    5  C   UNL     1     -27.958 -24.416   0.323  1.00  0.00     0.216 C 
HETATM    6  C   UNL     1     -27.211 -23.465   1.220  1.00  0.00     0.180 C 
HETATM    7  O   UNL     1     -27.308 -23.915   2.589  1.00  0.00    -0.353 OA
HETATM    8  C   UNL     1     -25.710 -23.378   1.008  1.00  0.00     0.198 C 
HETATM    9  O   UNL     1     -25.366 -22.603  -0.127  1.00  0.00    -0.279 OA
HETATM   10  C   UNL     1     -25.251 -22.763   2.327  1.00  0.00     0.199 C 
HETATM   11  C   UNL     1     -26.150 -23.525   3.310  1.00  0.00     0.262 C 
HETATM   12  P   UNL     1     -24.201 -22.997  -1.135  1.00  0.00     0.408 P 
HETATM   13  O   UNL     1     -22.965 -23.451  -0.324  1.00  0.00    -0.624 OA
HETATM   14  O   UNL     1     -24.017 -21.917  -2.174  1.00  0.00    -0.624 OA
HETATM   15  O   UNL     1     -24.723 -24.345  -1.787  1.00  0.00    -0.287 OA
HETATM   16  C   UNL     1     -25.663 -24.319  -2.864  1.00  0.00     0.216 C 
HETATM   17  C   UNL     1     -25.889 -25.697  -3.426  1.00  0.00     0.180 C 
HETATM   18  O   UNL     1     -24.672 -26.191  -4.027  1.00  0.00    -0.353 OA
HETATM   19  C   UNL     1     -26.203 -26.770  -2.403  1.00  0.00     0.198 C 
HETATM   20  O   UNL     1     -27.541 -26.669  -1.984  1.00  0.00    -0.279 OA
HETATM   21  C   UNL     1     -25.908 -28.044  -3.188  1.00  0.00     0.199 C 
HETATM   22  C   UNL     1     -24.652 -27.608  -3.959  1.00  0.00     0.262 C 
ENDROOT
BRANCH  11  23
HETATM   23  N   UNL     1     -25.535 -24.738   3.862  1.00  0.00    -0.297 N 
HETATM   24  C   UNL     1     -24.267 -24.941   4.476  1.00  0.00     0.188 A 
HETATM   25  N   UNL     1     -24.071 -26.249   4.792  1.00  0.00    -0.345 N 
HETATM   26  C   UNL     1     -25.251 -26.893   4.369  1.00  0.00     0.147 A 
ATOM     27  HN  UNL     1     -23.253 -26.669   5.234  1.00  0.00     0.167 HD
HETATM   28  C   UNL     1     -26.151 -25.979   3.807  1.00  0.00     0.159 A 
HETATM   29  C   UNL     1     -25.600 -28.276   4.437  1.00  0.00     0.290 A 
HETATM   30  N   UNL     1     -27.400 -26.230   3.286  1.00  0.00    -0.174 N 
HETATM   31  C   UNL     1     -27.709 -27.552   3.349  1.00  0.00     0.680 A 
ATOM     32  HN  UNL     1     -28.016 -25.514   2.902  1.00  0.00     0.186 HD
HETATM   33  N   UNL     1     -26.899 -28.540   3.880  1.00  0.00    -0.154 N 
ATOM     34  HN  UNL     1     -27.240 -29.501   3.877  1.00  0.00     0.187 HD
HETATM   35  O   UNL     1     -24.983 -29.230   4.873  1.00  0.00    -0.265 OA
BRANCH  31  36
HETATM   36  N   UNL     1     -28.917 -27.933   2.822  1.00  0.00    -0.234 N 
ATOM     37  HN2 UNL     1     -29.311 -28.812   3.159  1.00  0.00     0.174 HD
ATOM     38  HN1 UNL     1     -29.354 -27.312   2.141  1.00  0.00     0.174 HD
ENDBRANCH  31  36
ENDBRANCH  11  23
BRANCH  10  39
HETATM   39  O   UNL     1     -25.560 -21.375   2.458  1.00  0.00    -0.388 OA
ATOM     40  HO  UNL     1     -26.371 -21.202   2.922  1.00  0.00     0.210 HD
ENDBRANCH  10  39
BRANCH  21  41
HETATM   41  O   UNL     1     -26.947 -28.350  -4.114  1.00  0.00    -0.388 OA
ATOM     42  HO  UNL     1     -27.134 -27.583  -4.641  1.00  0.00     0.210 HD
ENDBRANCH  21  41
BRANCH  22  43
HETATM   43  N   UNL     1     -23.415 -27.999  -3.281  1.00  0.00    -0.297 N 
HETATM   44  C   UNL     1     -22.830 -29.229  -3.484  1.00  0.00     0.159 A 
HETATM   45  N   UNL     1     -23.348 -30.229  -4.264  1.00  0.00    -0.174 N 
HETATM   46  C   UNL     1     -21.627 -29.228  -2.763  1.00  0.00     0.147 A 
HETATM   47  C   UNL     1     -22.532 -31.314  -4.313  1.00  0.00     0.680 A 
ATOM     48  HN  UNL     1     -24.243 -30.167  -4.751  1.00  0.00     0.186 HD
HETATM   49  N   UNL     1     -21.316 -31.426  -3.651  1.00  0.00    -0.154 N 
HETATM   50  C   UNL     1     -20.774 -30.377  -2.823  1.00  0.00     0.290 A 
ATOM     51  HN  UNL     1     -20.782 -32.289  -3.755  1.00  0.00     0.187 HD
HETATM   52  O   UNL     1     -19.674 -30.584  -2.335  1.00  0.00    -0.265 OA
HETATM   53  N   UNL     1     -21.453 -28.006  -2.080  1.00  0.00    -0.345 N 
HETATM   54  C   UNL     1     -22.556 -27.274  -2.408  1.00  0.00     0.188 A 
ATOM     55  HN  UNL     1     -20.678 -27.733  -1.476  1.00  0.00     0.167 HD
BRANCH  47  56
HETATM   56  N   UNL     1     -22.951 -32.367  -5.094  1.00  0.00    -0.234 N 
ATOM     57  HN2 UNL     1     -22.364 -32.651  -5.879  1.00  0.00     0.174 HD
ATOM     58  HN1 UNL     1     -23.841 -32.797  -4.844  1.00  0.00     0.174 HD
ENDBRANCH  47  56
ENDBRANCH  22  43
TORSDOF 6
ENDMDL
