REMARK  6 active torsions:
REMARK  status: ('A' for Active; 'I' for Inactive)
REMARK    1  A    between atoms: C_3  and  S_13 
REMARK    2  A    between atoms: C_9  and  O_10 
REMARK    3  A    between atoms: C_9  and  C_11 
REMARK    4  A    between atoms: C_11  and  C_12 
REMARK    5  A    between atoms: C_12  and  S_13 
REMARK    6  A    between atoms: C_17  and  C_18 
ROOT
HETATM    1  C   UNL     1      -1.463   1.067  -3.532  1.00  0.00     0.088 A 
HETATM    2  C   UNL     1      -1.232   0.649  -2.232  1.00  0.00     0.043 A 
HETATM    3  C   UNL     1      -0.804   1.617  -1.301  1.00  0.00     0.084 A 
HETATM    4  N   UNL     1      -0.668   2.907  -1.720  1.00  0.00    -0.346 N 
ATOM      5  HN  UNL     1      -0.366   3.615  -1.051  1.00  0.00     0.167 HD
HETATM    6  N   UNL     1      -1.318   2.353  -3.923  1.00  0.00    -0.346 N 
ATOM      7  HN  UNL     1      -1.501   2.625  -4.889  1.00  0.00     0.167 HD
HETATM    8  C   UNL     1      -0.924   3.279  -3.007  1.00  0.00     0.182 A 
HETATM    9  S   UNL     1      -1.907  -0.222  -4.504  1.00  0.00    -0.082 SA
HETATM   10  C   UNL     1      -1.816  -1.369  -3.269  1.00  0.00     0.065 A 
HETATM   11  C   UNL     1      -1.442  -0.742  -2.077  1.00  0.00    -0.004 A 
ENDROOT
BRANCH   3  12
HETATM   12  S   UNL     1      -0.400   1.235   0.406  1.00  0.00    -0.111 SA
BRANCH  12  13
HETATM   13  C   UNL     1       1.347   0.847   0.041  1.00  0.00     0.091 C 
BRANCH  13  14
HETATM   14  C   UNL     1       2.029   0.216   1.255  1.00  0.00     0.120 C 
BRANCH  14  15
HETATM   15  C   UNL     1       2.161   1.193   2.381  1.00  0.00     0.140 C 
HETATM   16  O   UNL     1       3.089   2.045   2.373  1.00  0.00    -0.650 OA
BRANCH  15  17
HETATM   17  O   UNL     1       1.237   1.181   3.422  1.00  0.00    -0.776 OA
HETATM   18  H   UNL     1       1.305   1.845   4.184  1.00  0.00     0.167 HD
ENDBRANCH  15  17
ENDBRANCH  14  15
ENDBRANCH  13  14
ENDBRANCH  12  13
ENDBRANCH   3  12
BRANCH  11  19
HETATM   19  C   UNL     1      -1.318  -1.501  -0.824  1.00  0.00    -0.024 A 
HETATM   20  C   UNL     1      -0.235  -2.370  -0.634  1.00  0.00     0.013 A 
HETATM   21  C   UNL     1      -0.111  -3.088   0.559  1.00  0.00     0.007 A 
HETATM   22  C   UNL     1      -1.070  -2.945   1.574  1.00  0.00    -0.062 A 
HETATM   23  C   UNL     1      -0.951  -3.737   2.842  1.00  0.00     0.048 C 
HETATM   24  C   UNL     1      -2.176  -2.106   1.365  1.00  0.00     0.007 A 
HETATM   25  C   UNL     1      -2.300  -1.388   0.171  1.00  0.00     0.013 A 
ENDBRANCH  11  19
TORSDOF 6
