REMARK  5 active torsions:
REMARK  status: ('A' for Active; 'I' for Inactive)
REMARK    1  A    between atoms: C_3  and  S_13 
REMARK    2  A    between atoms: C_9  and  C_11 
REMARK    3  A    between atoms: C_11  and  C_12 
REMARK    4  A    between atoms: C_12  and  S_13 
REMARK    5  A    between atoms: C_17  and  C_18 
ROOT
HETATM    1  C   UNL     1      10.155  -7.137  21.541  1.00  0.00     0.084 A 
HETATM    2  C   UNL     1       9.289  -6.089  21.892  1.00  0.00     0.039 A 
HETATM    3  C   UNL     1       8.722  -5.285  20.976  1.00  0.00     0.084 A 
HETATM    4  N   UNL     1       9.017  -5.468  19.682  1.00  0.00    -0.346 N 
ATOM      5  HN  UNL     1       8.626  -4.851  18.970  1.00  0.00     0.167 HD
HETATM    6  N   UNL     1      10.427  -7.336  20.262  1.00  0.00    -0.346 N 
ATOM      7  HN  UNL     1      11.048  -8.093  19.976  1.00  0.00     0.167 HD
HETATM    8  C   UNL     1       9.861  -6.508  19.325  1.00  0.00     0.182 A 
HETATM    9  S   UNL     1      10.566  -7.882  22.874  1.00  0.00    -0.107 SA
HETATM   10  C   UNL     1       9.890  -7.102  24.045  1.00  0.00     0.121 A 
HETATM   11  C   UNL     1       9.086  -6.049  23.469  1.00  0.00    -0.022 A 
ENDROOT
BRANCH  11  12
HETATM   12  C   UNL     1       8.343  -5.168  24.458  1.00  0.00    -0.028 A 
HETATM   13  C   UNL     1       7.430  -5.603  25.391  1.00  0.00     0.012 A 
HETATM   14  C   UNL     1       6.818  -4.670  26.210  1.00  0.00     0.007 A 
HETATM   15  C   UNL     1       7.087  -3.319  26.092  1.00  0.00    -0.062 A 
HETATM   16  C   UNL     1       6.392  -2.324  27.017  1.00  0.00     0.048 C 
HETATM   17  C   UNL     1       7.996  -2.882  25.151  1.00  0.00     0.007 A 
HETATM   18  C   UNL     1       8.608  -3.809  24.339  1.00  0.00     0.012 A 
ENDBRANCH  11  12
BRANCH   3  19
HETATM   19  S   UNL     1       7.544  -3.961  21.349  1.00  0.00    -0.111 SA
BRANCH  19  20
HETATM   20  C   UNL     1       6.687  -3.670  19.779  1.00  0.00     0.091 C 
BRANCH  20  21
HETATM   21  C   UNL     1       7.493  -2.677  18.944  1.00  0.00     0.123 C 
BRANCH  21  22
HETATM   22  C   UNL     1       7.111  -1.219  19.189  1.00  0.00     0.173 C 
HETATM   23  O   UNL     1       7.623  -0.345  18.438  1.00  0.00    -0.648 OA
HETATM   24  O   UNL     1       6.311  -0.885  20.103  1.00  0.00    -0.648 OA
ENDBRANCH  21  22
ENDBRANCH  20  21
ENDBRANCH  19  20
ENDBRANCH   3  19
TORSDOF 5
