MODEL 1
REMARK VINA RESULT:    -7.760      0.000      0.000
REMARK INTER + INTRA:         -12.771
REMARK INTER:                 -11.163
REMARK INTRA:                  -1.608
REMARK UNBOUND:                -1.608
REMARK  9 active torsions:
REMARK  status: ('A' for Active; 'I' for Inactive)
REMARK    1  A    between atoms: C_2  and  C_5 
REMARK    2  A    between atoms: C_11  and  N_12 
REMARK    3  A    between atoms: C_19  and  C_20 
REMARK    4  A    between atoms: C_21  and  O_22 
REMARK    5  A    between atoms: C_25  and  C_26 
REMARK    6  A    between atoms: C_26  and  O_27 
REMARK    7  A    between atoms: C_29  and  O_30 
REMARK    8  A    between atoms: C_32  and  N_33 
REMARK    9  A    between atoms: C_38  and  C_39 
ROOT
HETATM    1  C   UNL     1     -10.958  -7.630   1.041  1.00  0.00     0.222 C 
HETATM    2  C   UNL     1     -12.453  -7.339   0.932  1.00  0.00     0.181 C 
HETATM    3  O   UNL     1     -10.397  -7.831  -0.276  1.00  0.00    -0.365 OA
HETATM    4  C   UNL     1     -10.967  -9.002  -0.877  1.00  0.00     0.177 C 
HETATM    5  C   UNL     1     -12.451  -8.781  -1.117  1.00  0.00     0.176 C 
HETATM    6  C   UNL     1     -13.111  -8.508   0.231  1.00  0.00     0.168 C 
ENDROOT
BRANCH   1   7
HETATM    7  C   UNL     1     -10.161  -6.513   1.658  1.00  0.00     0.137 A 
HETATM    8  N   UNL     1     -10.053  -5.277   1.190  1.00  0.00    -0.331 N 
HETATM    9  C   UNL     1      -9.205  -4.669   2.032  1.00  0.00     0.093 A 
ATOM     10  HN  UNL     1     -10.513  -4.878   0.372  1.00  0.00     0.168 HD
HETATM   11  C   UNL     1      -8.778  -3.209   1.958  1.00  0.00     0.090 C 
HETATM   12  N   UNL     1      -8.783  -5.489   2.990  1.00  0.00    -0.281 N 
HETATM   13  N   UNL     1      -9.376  -6.682   2.728  1.00  0.00    -0.239 N 
ATOM     14  HN  UNL     1      -8.149  -5.269   3.758  1.00  0.00     0.189 HD
BRANCH  13  15
HETATM   15  C   UNL     1      -9.169  -7.816   3.434  1.00  0.00     0.075 A 
HETATM   16  C   UNL     1     -10.077  -8.126   4.462  1.00  0.00     0.056 A 
HETATM   17  C   UNL     1      -9.930  -9.284   5.239  1.00  0.00     0.036 A 
HETATM   18  C   UNL     1      -8.865 -10.145   4.993  1.00  0.00     0.025 A 
HETATM   19 CL   UNL     1     -11.036  -9.644   6.522  1.00  0.00    -0.084 Cl
HETATM   20  C   UNL     1      -7.934  -9.833   4.004  1.00  0.00     0.020 A 
HETATM   21  C   UNL     1      -8.065  -8.678   3.200  1.00  0.00     0.076 A 
BRANCH  21  22
HETATM   22  C   UNL     1      -7.092  -8.381   2.179  1.00  0.00     0.419 C 
HETATM   23  F   UNL     1      -6.529  -7.257   2.361  1.00  0.00    -0.166 F 
HETATM   24  F   UNL     1      -6.134  -9.290   2.162  1.00  0.00    -0.166 F 
HETATM   25  F   UNL     1      -7.668  -8.377   0.926  1.00  0.00    -0.166 F 
ENDBRANCH  21  22
ENDBRANCH  13  15
ENDBRANCH   1   7
BRANCH   2  26
HETATM   26  O   UNL     1     -12.966  -7.242   2.269  1.00  0.00    -0.390 OA
ATOM     27  HO  UNL     1     -13.752  -7.770   2.341  1.00  0.00     0.210 HD
ENDBRANCH   2  26
BRANCH   4  28
HETATM   28  C   UNL     1     -10.220  -9.197  -2.205  1.00  0.00     0.198 C 
BRANCH  28  29
HETATM   29  O   UNL     1     -10.105  -7.972  -2.938  1.00  0.00    -0.398 OA
ATOM     30  HO  UNL     1     -10.955  -7.619  -3.174  1.00  0.00     0.209 HD
ENDBRANCH  28  29
ENDBRANCH   4  28
BRANCH   6  31
HETATM   31  N   UNL     1     -14.555  -8.322   0.092  1.00  0.00    -0.275 N 
HETATM   32  C   UNL     1     -15.517  -8.068   1.006  1.00  0.00     0.140 A 
HETATM   33  C   UNL     1     -16.681  -7.988   0.327  1.00  0.00     0.073 A 
HETATM   34  N   UNL     1     -16.398  -8.206  -0.974  1.00  0.00    -0.282 N 
HETATM   35  N   UNL     1     -15.096  -8.402  -1.134  1.00  0.00    -0.020 NA
ATOM     36  HN  UNL     1     -17.087  -8.219  -1.726  1.00  0.00     0.184 HD
BRANCH  33  37
HETATM   37  C   UNL     1     -17.942  -7.734   0.793  1.00  0.00    -0.001 A 
HETATM   38  C   UNL     1     -18.646  -6.559   0.462  1.00  0.00     0.058 A 
HETATM   39  C   UNL     1     -19.957  -6.368   0.909  1.00  0.00     0.142 A 
HETATM   40  F   UNL     1     -20.601  -5.231   0.566  1.00  0.00    -0.204 F 
HETATM   41  C   UNL     1     -20.577  -7.350   1.686  1.00  0.00     0.111 A 
HETATM   42 CL   UNL     1     -22.116  -7.235   2.347  1.00  0.00    -0.078 Cl
HETATM   43  C   UNL     1     -19.896  -8.501   2.020  1.00  0.00     0.142 A 
HETATM   44  F   UNL     1     -20.516  -9.436   2.790  1.00  0.00    -0.204 F 
HETATM   45  C   UNL     1     -18.602  -8.713   1.566  1.00  0.00     0.058 A 
ENDBRANCH  33  37
ENDBRANCH   6  31
BRANCH   5  46
HETATM   46  O   UNL     1     -12.635  -7.669  -1.998  1.00  0.00    -0.391 OA
ATOM     47  HO  UNL     1     -12.798  -6.883  -1.489  1.00  0.00     0.210 HD
ENDBRANCH   5  46
TORSDOF 9
ENDMDL
MODEL 2
REMARK VINA RESULT:    -7.583      5.801      9.536
REMARK INTER + INTRA:         -12.516
REMARK INTER:                 -10.611
REMARK INTRA:                  -1.904
REMARK UNBOUND:                -1.608
REMARK  9 active torsions:
REMARK  status: ('A' for Active; 'I' for Inactive)
REMARK    1  A    between atoms: C_2  and  C_5 
REMARK    2  A    between atoms: C_11  and  N_12 
REMARK    3  A    between atoms: C_19  and  C_20 
REMARK    4  A    between atoms: C_21  and  O_22 
REMARK    5  A    between atoms: C_25  and  C_26 
REMARK    6  A    between atoms: C_26  and  O_27 
REMARK    7  A    between atoms: C_29  and  O_30 
REMARK    8  A    between atoms: C_32  and  N_33 
REMARK    9  A    between atoms: C_38  and  C_39 
ROOT
HETATM    1  C   UNL     1     -16.789  -9.024   0.446  1.00  0.00     0.222 C 
HETATM    2  C   UNL     1     -16.963  -9.915  -0.783  1.00  0.00     0.181 C 
HETATM    3  O   UNL     1     -15.580  -8.243   0.322  1.00  0.00    -0.365 OA
HETATM    4  C   UNL     1     -14.436  -9.108   0.318  1.00  0.00     0.177 C 
HETATM    5  C   UNL     1     -14.462  -9.982  -0.925  1.00  0.00     0.176 C 
HETATM    6  C   UNL     1     -15.746 -10.807  -0.894  1.00  0.00     0.168 C 
ENDROOT
BRANCH   1   7
HETATM    7  C   UNL     1     -17.900  -8.029   0.641  1.00  0.00     0.137 A 
HETATM    8  N   UNL     1     -18.151  -6.975  -0.124  1.00  0.00    -0.331 N 
HETATM    9  C   UNL     1     -19.186  -6.364   0.471  1.00  0.00     0.093 A 
ATOM     10  HN  UNL     1     -17.664  -6.693  -0.974  1.00  0.00     0.168 HD
HETATM   11  C   UNL     1     -19.890  -5.115  -0.042  1.00  0.00     0.090 C 
HETATM   12  N   UNL     1     -19.570  -6.999   1.574  1.00  0.00    -0.281 N 
HETATM   13  N   UNL     1     -18.722  -8.051   1.696  1.00  0.00    -0.239 N 
ATOM     14  HN  UNL     1     -20.340  -6.749   2.196  1.00  0.00     0.189 HD
BRANCH  13  15
HETATM   15  C   UNL     1     -18.728  -8.928   2.725  1.00  0.00     0.075 A 
HETATM   16  C   UNL     1     -17.650  -8.892   3.628  1.00  0.00     0.056 A 
HETATM   17  C   UNL     1     -17.585  -9.770   4.720  1.00  0.00     0.036 A 
HETATM   18  C   UNL     1     -18.603 -10.698   4.917  1.00  0.00     0.025 A 
HETATM   19 CL   UNL     1     -16.240  -9.738   5.810  1.00  0.00    -0.084 Cl
HETATM   20  C   UNL     1     -19.659 -10.773   4.010  1.00  0.00     0.020 A 
HETATM   21  C   UNL     1     -19.754  -9.894   2.907  1.00  0.00     0.076 A 
BRANCH  21  22
HETATM   22  C   UNL     1     -20.860  -9.988   1.987  1.00  0.00     0.419 C 
HETATM   23  F   UNL     1     -20.480  -9.977   0.776  1.00  0.00    -0.166 F 
HETATM   24  F   UNL     1     -21.529 -11.111   2.169  1.00  0.00    -0.166 F 
HETATM   25  F   UNL     1     -21.750  -8.952   2.170  1.00  0.00    -0.166 F 
ENDBRANCH  21  22
ENDBRANCH  13  15
ENDBRANCH   1   7
BRANCH   2  26
HETATM   26  O   UNL     1     -18.124 -10.728  -0.558  1.00  0.00    -0.390 OA
ATOM     27  HO  UNL     1     -17.963 -11.305   0.179  1.00  0.00     0.210 HD
ENDBRANCH   2  26
BRANCH   4  28
HETATM   28  C   UNL     1     -13.211  -8.182   0.312  1.00  0.00     0.198 C 
BRANCH  28  29
HETATM   29  O   UNL     1     -12.095  -8.778  -0.360  1.00  0.00    -0.398 OA
ATOM     30  HO  UNL     1     -11.961  -8.404  -1.223  1.00  0.00     0.209 HD
ENDBRANCH  28  29
ENDBRANCH   4  28
BRANCH   6  31
HETATM   31  N   UNL     1     -15.829 -11.708  -2.043  1.00  0.00    -0.275 N 
HETATM   32  C   UNL     1     -15.582 -13.031  -2.162  1.00  0.00     0.140 A 
HETATM   33  C   UNL     1     -15.823 -13.353  -3.450  1.00  0.00     0.073 A 
HETATM   34  N   UNL     1     -16.197 -12.219  -4.080  1.00  0.00    -0.282 N 
HETATM   35  N   UNL     1     -16.216 -11.205  -3.226  1.00  0.00    -0.020 NA
ATOM     36  HN  UNL     1     -16.432 -12.152  -5.070  1.00  0.00     0.184 HD
BRANCH  33  37
HETATM   37  C   UNL     1     -15.733 -14.568  -4.074  1.00  0.00    -0.001 A 
HETATM   38  C   UNL     1     -15.670 -15.780  -3.357  1.00  0.00     0.058 A 
HETATM   39  C   UNL     1     -15.642 -17.003  -4.034  1.00  0.00     0.142 A 
HETATM   40  F   UNL     1     -15.588 -18.144  -3.312  1.00  0.00    -0.204 F 
HETATM   41  C   UNL     1     -15.679 -17.026  -5.430  1.00  0.00     0.111 A 
HETATM   42 CL   UNL     1     -15.587 -18.408  -6.380  1.00  0.00    -0.078 Cl
HETATM   43  C   UNL     1     -15.735 -15.847  -6.141  1.00  0.00     0.142 A 
HETATM   44  F   UNL     1     -15.756 -15.894  -7.501  1.00  0.00    -0.204 F 
HETATM   45  C   UNL     1     -15.785 -14.627  -5.482  1.00  0.00     0.058 A 
ENDBRANCH  33  37
ENDBRANCH   6  31
BRANCH   5  46
HETATM   46  O   UNL     1     -14.426  -9.157  -2.093  1.00  0.00    -0.391 OA
ATOM     47  HO  UNL     1     -13.546  -9.151  -2.450  1.00  0.00     0.210 HD
ENDBRANCH   5  46
TORSDOF 9
ENDMDL
MODEL 3
REMARK VINA RESULT:    -7.576      1.840      2.241
REMARK INTER + INTRA:         -12.505
REMARK INTER:                 -10.852
REMARK INTRA:                  -1.653
REMARK UNBOUND:                -1.608
REMARK  9 active torsions:
REMARK  status: ('A' for Active; 'I' for Inactive)
REMARK    1  A    between atoms: C_2  and  C_5 
REMARK    2  A    between atoms: C_11  and  N_12 
REMARK    3  A    between atoms: C_19  and  C_20 
REMARK    4  A    between atoms: C_21  and  O_22 
REMARK    5  A    between atoms: C_25  and  C_26 
REMARK    6  A    between atoms: C_26  and  O_27 
REMARK    7  A    between atoms: C_29  and  O_30 
REMARK    8  A    between atoms: C_32  and  N_33 
REMARK    9  A    between atoms: C_38  and  C_39 
ROOT
HETATM    1  C   UNL     1     -11.074  -7.701   1.056  1.00  0.00     0.222 C 
HETATM    2  C   UNL     1     -12.571  -7.418   0.949  1.00  0.00     0.181 C 
HETATM    3  O   UNL     1     -10.503  -7.848  -0.263  1.00  0.00    -0.365 OA
HETATM    4  C   UNL     1     -11.060  -9.000  -0.912  1.00  0.00     0.177 C 
HETATM    5  C   UNL     1     -12.545  -8.782  -1.153  1.00  0.00     0.176 C 
HETATM    6  C   UNL     1     -13.215  -8.564   0.200  1.00  0.00     0.168 C 
ENDROOT
BRANCH   1   7
HETATM    7  C   UNL     1     -10.290  -6.602   1.720  1.00  0.00     0.137 A 
HETATM    8  N   UNL     1     -10.630  -5.321   1.776  1.00  0.00    -0.331 N 
HETATM    9  C   UNL     1      -9.608  -4.727   2.408  1.00  0.00     0.093 A 
ATOM     10  HN  UNL     1     -11.480  -4.886   1.417  1.00  0.00     0.168 HD
HETATM   11  C   UNL     1      -9.527  -3.248   2.765  1.00  0.00     0.090 C 
HETATM   12  N   UNL     1      -8.653  -5.593   2.732  1.00  0.00    -0.281 N 
HETATM   13  N   UNL     1      -9.081  -6.792   2.260  1.00  0.00    -0.239 N 
ATOM     14  HN  UNL     1      -7.783  -5.398   3.229  1.00  0.00     0.189 HD
BRANCH  13  15
HETATM   15  C   UNL     1      -8.374  -7.942   2.329  1.00  0.00     0.075 A 
HETATM   16  C   UNL     1      -7.520  -8.255   1.256  1.00  0.00     0.056 A 
HETATM   17  C   UNL     1      -6.754  -9.429   1.254  1.00  0.00     0.036 A 
HETATM   18  C   UNL     1      -6.839 -10.307   2.330  1.00  0.00     0.025 A 
HETATM   19 CL   UNL     1      -5.727  -9.821  -0.084  1.00  0.00    -0.084 Cl
HETATM   20  C   UNL     1      -7.709 -10.031   3.384  1.00  0.00     0.020 A 
HETATM   21  C   UNL     1      -8.485  -8.850   3.416  1.00  0.00     0.076 A 
BRANCH  21  22
HETATM   22  C   UNL     1      -9.373  -8.585   4.520  1.00  0.00     0.419 C 
HETATM   23  F   UNL     1      -9.155  -7.453   5.052  1.00  0.00    -0.166 F 
HETATM   24  F   UNL     1     -10.632  -8.584   4.122  1.00  0.00    -0.166 F 
HETATM   25  F   UNL     1      -9.258  -9.551   5.495  1.00  0.00    -0.166 F 
ENDBRANCH  21  22
ENDBRANCH  13  15
ENDBRANCH   1   7
BRANCH   2  26
HETATM   26  O   UNL     1     -13.093  -7.375   2.285  1.00  0.00    -0.390 OA
ATOM     27  HO  UNL     1     -13.946  -6.959   2.274  1.00  0.00     0.210 HD
ENDBRANCH   2  26
BRANCH   4  28
HETATM   28  C   UNL     1     -10.303  -9.139  -2.241  1.00  0.00     0.198 C 
BRANCH  28  29
HETATM   29  O   UNL     1     -10.108  -7.872  -2.880  1.00  0.00    -0.398 OA
ATOM     30  HO  UNL     1      -9.214  -7.759  -3.178  1.00  0.00     0.209 HD
ENDBRANCH  28  29
ENDBRANCH   4  28
BRANCH   6  31
HETATM   31  N   UNL     1     -14.659  -8.385   0.059  1.00  0.00    -0.275 N 
HETATM   32  C   UNL     1     -15.614  -8.067   0.959  1.00  0.00     0.140 A 
HETATM   33  C   UNL     1     -16.783  -8.030   0.285  1.00  0.00     0.073 A 
HETATM   34  N   UNL     1     -16.510  -8.338  -1.000  1.00  0.00    -0.282 N 
HETATM   35  N   UNL     1     -15.210  -8.547  -1.155  1.00  0.00    -0.020 NA
ATOM     36  HN  UNL     1     -17.203  -8.400  -1.745  1.00  0.00     0.184 HD
BRANCH  33  37
HETATM   37  C   UNL     1     -18.040  -7.742   0.742  1.00  0.00    -0.001 A 
HETATM   38  C   UNL     1     -18.701  -6.540   0.420  1.00  0.00     0.058 A 
HETATM   39  C   UNL     1     -20.011  -6.313   0.857  1.00  0.00     0.142 A 
HETATM   40  F   UNL     1     -20.614  -5.150   0.524  1.00  0.00    -0.204 F 
HETATM   41  C   UNL     1     -20.671  -7.285   1.612  1.00  0.00     0.111 A 
HETATM   42 CL   UNL     1     -22.213  -7.129   2.258  1.00  0.00    -0.078 Cl
HETATM   43  C   UNL     1     -20.032  -8.462   1.935  1.00  0.00     0.142 A 
HETATM   44  F   UNL     1     -20.691  -9.388   2.684  1.00  0.00    -0.204 F 
HETATM   45  C   UNL     1     -18.740  -8.710   1.492  1.00  0.00     0.058 A 
ENDBRANCH  33  37
ENDBRANCH   6  31
BRANCH   5  46
HETATM   46  O   UNL     1     -12.732  -7.639  -1.993  1.00  0.00    -0.391 OA
ATOM     47  HO  UNL     1     -12.538  -6.848  -1.503  1.00  0.00     0.210 HD
ENDBRANCH   5  46
TORSDOF 9
ENDMDL
MODEL 4
REMARK VINA RESULT:    -7.554      4.211     11.202
REMARK INTER + INTRA:         -12.475
REMARK INTER:                 -10.936
REMARK INTRA:                  -1.538
REMARK UNBOUND:                -1.608
REMARK  9 active torsions:
REMARK  status: ('A' for Active; 'I' for Inactive)
REMARK    1  A    between atoms: C_2  and  C_5 
REMARK    2  A    between atoms: C_11  and  N_12 
REMARK    3  A    between atoms: C_19  and  C_20 
REMARK    4  A    between atoms: C_21  and  O_22 
REMARK    5  A    between atoms: C_25  and  C_26 
REMARK    6  A    between atoms: C_26  and  O_27 
REMARK    7  A    between atoms: C_29  and  O_30 
REMARK    8  A    between atoms: C_32  and  N_33 
REMARK    9  A    between atoms: C_38  and  C_39 
ROOT
HETATM    1  C   UNL     1     -20.198  -8.443   1.693  1.00  0.00     0.222 C 
HETATM    2  C   UNL     1     -18.776  -8.987   1.575  1.00  0.00     0.181 C 
HETATM    3  O   UNL     1     -20.444  -7.472   0.652  1.00  0.00    -0.365 OA
HETATM    4  C   UNL     1     -19.588  -6.335   0.832  1.00  0.00     0.177 C 
HETATM    5  C   UNL     1     -18.139  -6.752   0.640  1.00  0.00     0.176 C 
HETATM    6  C   UNL     1     -17.815  -7.823   1.677  1.00  0.00     0.168 C 
ENDROOT
BRANCH   1   7
HETATM    7  C   UNL     1     -21.268  -9.490   1.536  1.00  0.00     0.137 A 
HETATM    8  N   UNL     1     -21.513 -10.201   0.444  1.00  0.00    -0.331 N 
HETATM    9  C   UNL     1     -22.580 -10.949   0.760  1.00  0.00     0.093 A 
ATOM     10  HN  UNL     1     -21.002 -10.183  -0.438  1.00  0.00     0.168 HD
HETATM   11  C   UNL     1     -23.238 -11.981  -0.146  1.00  0.00     0.090 C 
HETATM   12  N   UNL     1     -23.001 -10.714   1.999  1.00  0.00    -0.281 N 
HETATM   13  N   UNL     1     -22.175  -9.753   2.483  1.00  0.00    -0.239 N 
ATOM     14  HN  UNL     1     -23.781 -11.161   2.483  1.00  0.00     0.189 HD
BRANCH  13  15
HETATM   15  C   UNL     1     -22.292  -9.180   3.702  1.00  0.00     0.075 A 
HETATM   16  C   UNL     1     -21.604  -9.770   4.777  1.00  0.00     0.056 A 
HETATM   17  C   UNL     1     -21.676  -9.233   6.070  1.00  0.00     0.036 A 
HETATM   18  C   UNL     1     -22.444  -8.096   6.301  1.00  0.00     0.025 A 
HETATM   19 CL   UNL     1     -20.848  -9.983   7.394  1.00  0.00    -0.084 Cl
HETATM   20  C   UNL     1     -23.163  -7.521   5.254  1.00  0.00     0.020 A 
HETATM   21  C   UNL     1     -23.100  -8.036   3.939  1.00  0.00     0.076 A 
BRANCH  21  22
HETATM   22  C   UNL     1     -23.849  -7.419   2.873  1.00  0.00     0.419 C 
HETATM   23  F   UNL     1     -24.543  -8.260   2.223  1.00  0.00    -0.166 F 
HETATM   24  F   UNL     1     -24.688  -6.516   3.348  1.00  0.00    -0.166 F 
HETATM   25  F   UNL     1     -23.015  -6.769   1.988  1.00  0.00    -0.166 F 
ENDBRANCH  21  22
ENDBRANCH  13  15
ENDBRANCH   1   7
BRANCH   2  26
HETATM   26  O   UNL     1     -18.565  -9.871   2.685  1.00  0.00    -0.390 OA
ATOM     27  HO  UNL     1     -17.843  -9.547   3.210  1.00  0.00     0.210 HD
ENDBRANCH   2  26
BRANCH   4  28
HETATM   28  C   UNL     1     -20.012  -5.319  -0.239  1.00  0.00     0.198 C 
BRANCH  28  29
HETATM   29  O   UNL     1     -21.434  -5.148  -0.280  1.00  0.00    -0.398 OA
ATOM     30  HO  UNL     1     -21.856  -5.506   0.492  1.00  0.00     0.209 HD
ENDBRANCH  28  29
ENDBRANCH   4  28
BRANCH   6  31
HETATM   31  N   UNL     1     -16.421  -8.252   1.586  1.00  0.00    -0.275 N 
HETATM   32  C   UNL     1     -15.525  -8.174   0.578  1.00  0.00     0.140 A 
HETATM   33  C   UNL     1     -14.380  -8.722   1.037  1.00  0.00     0.073 A 
HETATM   34  N   UNL     1     -14.613  -9.128   2.302  1.00  0.00    -0.282 N 
HETATM   35  N   UNL     1     -15.858  -8.837   2.655  1.00  0.00    -0.020 NA
ATOM     36  HN  UNL     1     -13.931  -9.593   2.901  1.00  0.00     0.184 HD
BRANCH  33  37
HETATM   37  C   UNL     1     -13.174  -8.870   0.407  1.00  0.00    -0.001 A 
HETATM   38  C   UNL     1     -13.036  -8.759  -0.992  1.00  0.00     0.058 A 
HETATM   39  C   UNL     1     -11.775  -8.856  -1.589  1.00  0.00     0.142 A 
HETATM   40  F   UNL     1     -11.682  -8.737  -2.931  1.00  0.00    -0.204 F 
HETATM   41  C   UNL     1     -10.644  -9.061  -0.795  1.00  0.00     0.111 A 
HETATM   42 CL   UNL     1      -9.079  -9.262  -1.372  1.00  0.00    -0.078 Cl
HETATM   43  C   UNL     1     -10.768  -9.176   0.572  1.00  0.00     0.142 A 
HETATM   44  F   UNL     1      -9.653  -9.390   1.322  1.00  0.00    -0.204 F 
HETATM   45  C   UNL     1     -12.010  -9.061   1.180  1.00  0.00     0.058 A 
ENDBRANCH  33  37
ENDBRANCH   6  31
BRANCH   5  46
HETATM   46  O   UNL     1     -17.958  -7.266  -0.682  1.00  0.00    -0.391 OA
ATOM     47  HO  UNL     1     -18.804  -7.474  -1.062  1.00  0.00     0.210 HD
ENDBRANCH   5  46
TORSDOF 9
ENDMDL
MODEL 5
REMARK VINA RESULT:    -7.363      4.206     11.199
REMARK INTER + INTRA:         -12.199
REMARK INTER:                 -10.691
REMARK INTRA:                  -1.508
REMARK UNBOUND:                -1.608
REMARK  9 active torsions:
REMARK  status: ('A' for Active; 'I' for Inactive)
REMARK    1  A    between atoms: C_2  and  C_5 
REMARK    2  A    between atoms: C_11  and  N_12 
REMARK    3  A    between atoms: C_19  and  C_20 
REMARK    4  A    between atoms: C_21  and  O_22 
REMARK    5  A    between atoms: C_25  and  C_26 
REMARK    6  A    between atoms: C_26  and  O_27 
REMARK    7  A    between atoms: C_29  and  O_30 
REMARK    8  A    between atoms: C_32  and  N_33 
REMARK    9  A    between atoms: C_38  and  C_39 
ROOT
HETATM    1  C   UNL     1     -20.124  -8.449   1.749  1.00  0.00     0.222 C 
HETATM    2  C   UNL     1     -18.683  -8.950   1.672  1.00  0.00     0.181 C 
HETATM    3  O   UNL     1     -20.384  -7.527   0.667  1.00  0.00    -0.365 OA
HETATM    4  C   UNL     1     -19.568  -6.357   0.814  1.00  0.00     0.177 C 
HETATM    5  C   UNL     1     -18.104  -6.734   0.659  1.00  0.00     0.176 C 
HETATM    6  C   UNL     1     -17.762  -7.753   1.742  1.00  0.00     0.168 C 
ENDROOT
BRANCH   1   7
HETATM    7  C   UNL     1     -21.158  -9.534   1.618  1.00  0.00     0.137 A 
HETATM    8  N   UNL     1     -21.368 -10.290   0.549  1.00  0.00    -0.331 N 
HETATM    9  C   UNL     1     -22.413 -11.062   0.881  1.00  0.00     0.093 A 
ATOM     10  HN  UNL     1     -20.850 -10.285  -0.330  1.00  0.00     0.168 HD
HETATM   11  C   UNL     1     -23.028 -12.144   0.004  1.00  0.00     0.090 C 
HETATM   12  N   UNL     1     -22.854 -10.800   2.107  1.00  0.00    -0.281 N 
HETATM   13  N   UNL     1     -22.064  -9.796   2.566  1.00  0.00    -0.239 N 
ATOM     14  HN  UNL     1     -23.623 -11.256   2.599  1.00  0.00     0.189 HD
BRANCH  13  15
HETATM   15  C   UNL     1     -22.212  -9.186   3.763  1.00  0.00     0.075 A 
HETATM   16  C   UNL     1     -21.520  -9.721   4.864  1.00  0.00     0.056 A 
HETATM   17  C   UNL     1     -21.622  -9.144   6.139  1.00  0.00     0.036 A 
HETATM   18  C   UNL     1     -22.425  -8.023   6.323  1.00  0.00     0.025 A 
HETATM   19 CL   UNL     1     -20.789  -9.826   7.496  1.00  0.00    -0.084 Cl
HETATM   20  C   UNL     1     -23.148  -7.503   5.251  1.00  0.00     0.020 A 
HETATM   21  C   UNL     1     -23.055  -8.059   3.954  1.00  0.00     0.076 A 
BRANCH  21  22
HETATM   22  C   UNL     1     -23.808  -7.499   2.860  1.00  0.00     0.419 C 
HETATM   23  F   UNL     1     -23.060  -6.974   1.979  1.00  0.00    -0.166 F 
HETATM   24  F   UNL     1     -24.519  -8.431   2.252  1.00  0.00    -0.166 F 
HETATM   25  F   UNL     1     -24.694  -6.540   3.303  1.00  0.00    -0.166 F 
ENDBRANCH  21  22
ENDBRANCH  13  15
ENDBRANCH   1   7
BRANCH   2  26
HETATM   26  O   UNL     1     -18.461  -9.784   2.819  1.00  0.00    -0.390 OA
ATOM     27  HO  UNL     1     -18.576  -9.266   3.608  1.00  0.00     0.210 HD
ENDBRANCH   2  26
BRANCH   4  28
HETATM   28  C   UNL     1     -20.008  -5.397  -0.301  1.00  0.00     0.198 C 
BRANCH  28  29
HETATM   29  O   UNL     1     -21.423  -5.178  -0.290  1.00  0.00    -0.398 OA
ATOM     30  HO  UNL     1     -21.831  -5.534   0.491  1.00  0.00     0.209 HD
ENDBRANCH  28  29
ENDBRANCH   4  28
BRANCH   6  31
HETATM   31  N   UNL     1     -16.353  -8.140   1.687  1.00  0.00    -0.275 N 
HETATM   32  C   UNL     1     -15.447  -8.077   0.688  1.00  0.00     0.140 A 
HETATM   33  C   UNL     1     -14.291  -8.566   1.185  1.00  0.00     0.073 A 
HETATM   34  N   UNL     1     -14.529  -8.924   2.465  1.00  0.00    -0.282 N 
HETATM   35  N   UNL     1     -15.787  -8.657   2.789  1.00  0.00    -0.020 NA
ATOM     36  HN  UNL     1     -13.840  -9.338   3.092  1.00  0.00     0.184 HD
BRANCH  33  37
HETATM   37  C   UNL     1     -13.073  -8.703   0.577  1.00  0.00    -0.001 A 
HETATM   38  C   UNL     1     -11.888  -8.931   1.307  1.00  0.00     0.058 A 
HETATM   39  C   UNL     1     -10.673  -9.127   0.641  1.00  0.00     0.142 A 
HETATM   40  F   UNL     1      -9.561  -9.349   1.375  1.00  0.00    -0.204 F 
HETATM   41  C   UNL     1     -10.633  -9.101  -0.755  1.00  0.00     0.111 A 
HETATM   42 CL   UNL     1      -9.244  -9.256  -1.686  1.00  0.00    -0.078 Cl
HETATM   43  C   UNL     1     -11.784  -8.875  -1.477  1.00  0.00     0.142 A 
HETATM   44  F   UNL     1     -11.716  -8.840  -2.836  1.00  0.00    -0.204 F 
HETATM   45  C   UNL     1     -13.000  -8.699  -0.831  1.00  0.00     0.058 A 
ENDBRANCH  33  37
ENDBRANCH   6  31
BRANCH   5  46
HETATM   46  O   UNL     1     -17.886  -7.293  -0.639  1.00  0.00    -0.391 OA
ATOM     47  HO  UNL     1     -17.213  -7.961  -0.590  1.00  0.00     0.210 HD
ENDBRANCH   5  46
TORSDOF 9
ENDMDL
MODEL 6
REMARK VINA RESULT:    -7.331      3.976     11.195
REMARK INTER + INTRA:         -12.154
REMARK INTER:                 -10.628
REMARK INTRA:                  -1.526
REMARK UNBOUND:                -1.608
REMARK  9 active torsions:
REMARK  status: ('A' for Active; 'I' for Inactive)
REMARK    1  A    between atoms: C_2  and  C_5 
REMARK    2  A    between atoms: C_11  and  N_12 
REMARK    3  A    between atoms: C_19  and  C_20 
REMARK    4  A    between atoms: C_21  and  O_22 
REMARK    5  A    between atoms: C_25  and  C_26 
REMARK    6  A    between atoms: C_26  and  O_27 
REMARK    7  A    between atoms: C_29  and  O_30 
REMARK    8  A    between atoms: C_32  and  N_33 
REMARK    9  A    between atoms: C_38  and  C_39 
ROOT
HETATM    1  C   UNL     1     -19.894  -8.769   1.709  1.00  0.00     0.222 C 
HETATM    2  C   UNL     1     -18.402  -9.077   1.594  1.00  0.00     0.181 C 
HETATM    3  O   UNL     1     -20.287  -7.838   0.676  1.00  0.00    -0.365 OA
HETATM    4  C   UNL     1     -19.625  -6.581   0.872  1.00  0.00     0.177 C 
HETATM    5  C   UNL     1     -18.127  -6.759   0.685  1.00  0.00     0.176 C 
HETATM    6  C   UNL     1     -17.641  -7.776   1.714  1.00  0.00     0.168 C 
ENDROOT
BRANCH   1   7
HETATM    7  C   UNL     1     -20.782  -9.971   1.536  1.00  0.00     0.137 A 
HETATM    8  N   UNL     1     -20.502 -11.055   0.826  1.00  0.00    -0.331 N 
HETATM    9  C   UNL     1     -21.604 -11.815   0.920  1.00  0.00     0.093 A 
ATOM     10  HN  UNL     1     -19.642 -11.264   0.320  1.00  0.00     0.168 HD
HETATM   11  C   UNL     1     -21.779 -13.198   0.309  1.00  0.00     0.090 C 
HETATM   12  N   UNL     1     -22.547 -11.232   1.652  1.00  0.00    -0.281 N 
HETATM   13  N   UNL     1     -22.027 -10.034   2.021  1.00  0.00    -0.239 N 
ATOM     14  HN  UNL     1     -23.467 -11.606   1.888  1.00  0.00     0.189 HD
BRANCH  13  15
HETATM   15  C   UNL     1     -22.688  -9.094   2.734  1.00  0.00     0.075 A 
HETATM   16  C   UNL     1     -23.486  -8.175   2.031  1.00  0.00     0.056 A 
HETATM   17  C   UNL     1     -24.203  -7.172   2.700  1.00  0.00     0.036 A 
HETATM   18  C   UNL     1     -24.124  -7.079   4.086  1.00  0.00     0.025 A 
HETATM   19 CL   UNL     1     -25.160  -6.025   1.823  1.00  0.00    -0.084 Cl
HETATM   20  C   UNL     1     -23.308  -7.959   4.795  1.00  0.00     0.020 A 
HETATM   21  C   UNL     1     -22.583  -8.985   4.146  1.00  0.00     0.076 A 
BRANCH  21  22
HETATM   22  C   UNL     1     -21.751  -9.886   4.903  1.00  0.00     0.419 C 
HETATM   23  F   UNL     1     -21.956 -11.101   4.599  1.00  0.00    -0.166 F 
HETATM   24  F   UNL     1     -20.471  -9.646   4.679  1.00  0.00    -0.166 F 
HETATM   25  F   UNL     1     -21.958  -9.738   6.258  1.00  0.00    -0.166 F 
ENDBRANCH  21  22
ENDBRANCH  13  15
ENDBRANCH   1   7
BRANCH   2  26
HETATM   26  O   UNL     1     -18.058  -9.928   2.697  1.00  0.00    -0.390 OA
ATOM     27  HO  UNL     1     -18.654 -10.667   2.720  1.00  0.00     0.210 HD
ENDBRANCH   2  26
BRANCH   4  28
HETATM   28  C   UNL     1     -20.202  -5.635  -0.191  1.00  0.00     0.198 C 
BRANCH  28  29
HETATM   29  O   UNL     1     -21.535  -5.221   0.129  1.00  0.00    -0.398 OA
ATOM     30  HO  UNL     1     -21.977  -5.850   0.687  1.00  0.00     0.209 HD
ENDBRANCH  28  29
ENDBRANCH   4  28
BRANCH   6  31
HETATM   31  N   UNL     1     -16.195  -7.976   1.626  1.00  0.00    -0.275 N 
HETATM   32  C   UNL     1     -15.399  -8.302   0.585  1.00  0.00     0.140 A 
HETATM   33  C   UNL     1     -14.138  -8.352   1.065  1.00  0.00     0.073 A 
HETATM   34  N   UNL     1     -14.204  -8.067   2.383  1.00  0.00    -0.282 N 
HETATM   35  N   UNL     1     -15.458  -7.823   2.737  1.00  0.00    -0.020 NA
ATOM     36  HN  UNL     1     -13.404  -8.042   3.015  1.00  0.00     0.184 HD
BRANCH  33  37
HETATM   37  C   UNL     1     -12.969  -8.625   0.410  1.00  0.00    -0.001 A 
HETATM   38  C   UNL     1     -12.867  -8.591  -0.996  1.00  0.00     0.058 A 
HETATM   39  C   UNL     1     -11.637  -8.817  -1.623  1.00  0.00     0.142 A 
HETATM   40  F   UNL     1     -11.578  -8.769  -2.972  1.00  0.00    -0.204 F 
HETATM   41  C   UNL     1     -10.501  -9.074  -0.852  1.00  0.00     0.111 A 
HETATM   42 CL   UNL     1      -8.976  -9.426  -1.462  1.00  0.00    -0.078 Cl
HETATM   43  C   UNL     1     -10.590  -9.114   0.522  1.00  0.00     0.142 A 
HETATM   44  F   UNL     1      -9.472  -9.381   1.250  1.00  0.00    -0.204 F 
HETATM   45  C   UNL     1     -11.799  -8.872   1.158  1.00  0.00     0.058 A 
ENDBRANCH  33  37
ENDBRANCH   6  31
BRANCH   5  46
HETATM   46  O   UNL     1     -17.861  -7.224  -0.642  1.00  0.00    -0.391 OA
ATOM     47  HO  UNL     1     -18.416  -7.970  -0.835  1.00  0.00     0.210 HD
ENDBRANCH   5  46
TORSDOF 9
ENDMDL
MODEL 7
REMARK VINA RESULT:    -7.308      6.885     10.530
REMARK INTER + INTRA:         -12.120
REMARK INTER:                 -10.272
REMARK INTRA:                  -1.848
REMARK UNBOUND:                -1.608
REMARK  9 active torsions:
REMARK  status: ('A' for Active; 'I' for Inactive)
REMARK    1  A    between atoms: C_2  and  C_5 
REMARK    2  A    between atoms: C_11  and  N_12 
REMARK    3  A    between atoms: C_19  and  C_20 
REMARK    4  A    between atoms: C_21  and  O_22 
REMARK    5  A    between atoms: C_25  and  C_26 
REMARK    6  A    between atoms: C_26  and  O_27 
REMARK    7  A    between atoms: C_29  and  O_30 
REMARK    8  A    between atoms: C_32  and  N_33 
REMARK    9  A    between atoms: C_38  and  C_39 
ROOT
HETATM    1  C   UNL     1     -16.863 -13.418  -2.064  1.00  0.00     0.222 C 
HETATM    2  C   UNL     1     -16.778 -11.964  -1.603  1.00  0.00     0.181 C 
HETATM    3  O   UNL     1     -16.532 -14.302  -0.970  1.00  0.00    -0.365 OA
HETATM    4  C   UNL     1     -15.166 -14.107  -0.579  1.00  0.00     0.177 C 
HETATM    5  C   UNL     1     -14.991 -12.708  -0.014  1.00  0.00     0.176 C 
HETATM    6  C   UNL     1     -15.375 -11.708  -1.101  1.00  0.00     0.168 C 
ENDROOT
BRANCH   1   7
HETATM    7  C   UNL     1     -18.232 -13.835  -2.526  1.00  0.00     0.137 A 
HETATM    8  N   UNL     1     -19.387 -13.360  -2.080  1.00  0.00    -0.331 N 
HETATM    9  C   UNL     1     -20.319 -14.065  -2.738  1.00  0.00     0.093 A 
ATOM     10  HN  UNL     1     -19.533 -12.622  -1.391  1.00  0.00     0.168 HD
HETATM   11  C   UNL     1     -21.825 -13.873  -2.614  1.00  0.00     0.090 C 
HETATM   12  N   UNL     1     -19.778 -14.959  -3.559  1.00  0.00    -0.281 N 
HETATM   13  N   UNL     1     -18.437 -14.829  -3.398  1.00  0.00    -0.239 N 
ATOM     14  HN  UNL     1     -20.266 -15.605  -4.180  1.00  0.00     0.189 HD
BRANCH  13  15
HETATM   15  C   UNL     1     -17.509 -15.597  -4.012  1.00  0.00     0.075 A 
HETATM   16  C   UNL     1     -17.123 -16.793  -3.381  1.00  0.00     0.056 A 
HETATM   17  C   UNL     1     -16.168 -17.644  -3.956  1.00  0.00     0.036 A 
HETATM   18  C   UNL     1     -15.586 -17.301  -5.173  1.00  0.00     0.025 A 
HETATM   19 CL   UNL     1     -15.676 -19.100  -3.159  1.00  0.00    -0.084 Cl
HETATM   20  C   UNL     1     -15.929 -16.101  -5.793  1.00  0.00     0.020 A 
HETATM   21  C   UNL     1     -16.897 -15.230  -5.240  1.00  0.00     0.076 A 
BRANCH  21  22
HETATM   22  C   UNL     1     -17.239 -13.998  -5.904  1.00  0.00     0.419 C 
HETATM   23  F   UNL     1     -16.738 -12.984  -5.326  1.00  0.00    -0.166 F 
HETATM   24  F   UNL     1     -16.789 -13.991  -7.146  1.00  0.00    -0.166 F 
HETATM   25  F   UNL     1     -18.605 -13.828  -5.968  1.00  0.00    -0.166 F 
ENDBRANCH  21  22
ENDBRANCH  13  15
ENDBRANCH   1   7
BRANCH   2  26
HETATM   26  O   UNL     1     -17.025 -11.140  -2.752  1.00  0.00    -0.390 OA
ATOM     27  HO  UNL     1     -17.914 -11.284  -3.055  1.00  0.00     0.210 HD
ENDBRANCH   2  26
BRANCH   4  28
HETATM   28  C   UNL     1     -14.881 -15.171   0.492  1.00  0.00     0.198 C 
BRANCH  28  29
HETATM   29  O   UNL     1     -13.830 -14.769   1.378  1.00  0.00    -0.398 OA
ATOM     30  HO  UNL     1     -13.186 -14.226   0.940  1.00  0.00     0.209 HD
ENDBRANCH  28  29
ENDBRANCH   4  28
BRANCH   6  31
HETATM   31  N   UNL     1     -15.196 -10.330  -0.647  1.00  0.00    -0.275 N 
HETATM   32  C   UNL     1     -14.264  -9.763   0.148  1.00  0.00     0.140 A 
HETATM   33  C   UNL     1     -14.575  -8.453   0.234  1.00  0.00     0.073 A 
HETATM   34  N   UNL     1     -15.692  -8.261  -0.498  1.00  0.00    -0.282 N 
HETATM   35  N   UNL     1     -16.078  -9.402  -1.053  1.00  0.00    -0.020 NA
ATOM     36  HN  UNL     1     -16.171  -7.368  -0.609  1.00  0.00     0.184 HD
BRANCH  33  37
HETATM   37  C   UNL     1     -13.934  -7.450   0.908  1.00  0.00    -0.001 A 
HETATM   38  C   UNL     1     -14.477  -6.850   2.062  1.00  0.00     0.058 A 
HETATM   39  C   UNL     1     -13.759  -5.870   2.757  1.00  0.00     0.142 A 
HETATM   40  F   UNL     1     -14.311  -5.323   3.862  1.00  0.00    -0.204 F 
HETATM   41  C   UNL     1     -12.494  -5.486   2.307  1.00  0.00     0.111 A 
HETATM   42 CL   UNL     1     -11.545  -4.284   2.995  1.00  0.00    -0.078 Cl
HETATM   43  C   UNL     1     -11.956  -6.063   1.177  1.00  0.00     0.142 A 
HETATM   44  F   UNL     1     -10.727  -5.661   0.751  1.00  0.00    -0.204 F 
HETATM   45  C   UNL     1     -12.647  -7.050   0.490  1.00  0.00     0.058 A 
ENDBRANCH  33  37
ENDBRANCH   6  31
BRANCH   5  46
HETATM   46  O   UNL     1     -15.831 -12.545   1.133  1.00  0.00    -0.391 OA
ATOM     47  HO  UNL     1     -15.335 -12.142   1.836  1.00  0.00     0.210 HD
ENDBRANCH   5  46
TORSDOF 9
ENDMDL
MODEL 8
REMARK VINA RESULT:    -7.299      3.985      5.025
REMARK INTER + INTRA:         -12.107
REMARK INTER:                  -9.757
REMARK INTRA:                  -2.351
REMARK UNBOUND:                -1.608
REMARK  9 active torsions:
REMARK  status: ('A' for Active; 'I' for Inactive)
REMARK    1  A    between atoms: C_2  and  C_5 
REMARK    2  A    between atoms: C_11  and  N_12 
REMARK    3  A    between atoms: C_19  and  C_20 
REMARK    4  A    between atoms: C_21  and  O_22 
REMARK    5  A    between atoms: C_25  and  C_26 
REMARK    6  A    between atoms: C_26  and  O_27 
REMARK    7  A    between atoms: C_29  and  O_30 
REMARK    8  A    between atoms: C_32  and  N_33 
REMARK    9  A    between atoms: C_38  and  C_39 
ROOT
HETATM    1  C   UNL     1     -10.923  -6.749   2.496  1.00  0.00     0.222 C 
HETATM    2  C   UNL     1     -11.691  -7.191   1.251  1.00  0.00     0.181 C 
HETATM    3  O   UNL     1     -10.040  -7.806   2.932  1.00  0.00    -0.365 OA
HETATM    4  C   UNL     1     -10.807  -8.945   3.346  1.00  0.00     0.177 C 
HETATM    5  C   UNL     1     -11.545  -9.524   2.150  1.00  0.00     0.176 C 
HETATM    6  C   UNL     1     -12.467  -8.443   1.596  1.00  0.00     0.168 C 
ENDROOT
BRANCH   1   7
HETATM    7  C   UNL     1     -10.045  -5.547   2.278  1.00  0.00     0.137 A 
HETATM    8  N   UNL     1      -9.403  -5.239   1.159  1.00  0.00    -0.331 N 
HETATM    9  C   UNL     1      -8.714  -4.128   1.459  1.00  0.00     0.093 A 
ATOM     10  HN  UNL     1      -9.429  -5.736   0.269  1.00  0.00     0.168 HD
HETATM   11  C   UNL     1      -7.839  -3.341   0.493  1.00  0.00     0.090 C 
HETATM   12  N   UNL     1      -8.903  -3.752   2.720  1.00  0.00    -0.281 N 
HETATM   13  N   UNL     1      -9.735  -4.684   3.252  1.00  0.00    -0.239 N 
ATOM     14  HN  UNL     1      -8.507  -2.937   3.189  1.00  0.00     0.189 HD
BRANCH  13  15
HETATM   15  C   UNL     1     -10.138  -4.709   4.542  1.00  0.00     0.075 A 
HETATM   16  C   UNL     1      -9.365  -5.444   5.459  1.00  0.00     0.056 A 
HETATM   17  C   UNL     1      -9.718  -5.517   6.814  1.00  0.00     0.036 A 
HETATM   18  C   UNL     1     -10.855  -4.854   7.265  1.00  0.00     0.025 A 
HETATM   19 CL   UNL     1      -8.777  -6.449   7.931  1.00  0.00    -0.084 Cl
HETATM   20  C   UNL     1     -11.653  -4.153   6.363  1.00  0.00     0.020 A 
HETATM   21  C   UNL     1     -11.315  -4.055   4.993  1.00  0.00     0.076 A 
BRANCH  21  22
HETATM   22  C   UNL     1     -12.154  -3.318   4.082  1.00  0.00     0.419 C 
HETATM   23  F   UNL     1     -12.585  -4.042   3.133  1.00  0.00    -0.166 F 
HETATM   24  F   UNL     1     -13.212  -2.832   4.704  1.00  0.00    -0.166 F 
HETATM   25  F   UNL     1     -11.478  -2.248   3.536  1.00  0.00    -0.166 F 
ENDBRANCH  21  22
ENDBRANCH  13  15
ENDBRANCH   1   7
BRANCH   2  26
HETATM   26  O   UNL     1     -12.613  -6.140   0.925  1.00  0.00    -0.390 OA
ATOM     27  HO  UNL     1     -13.478  -6.511   0.799  1.00  0.00     0.210 HD
ENDBRANCH   2  26
BRANCH   4  28
HETATM   28  C   UNL     1      -9.792  -9.953   3.905  1.00  0.00     0.198 C 
BRANCH  28  29
HETATM   29  O   UNL     1      -8.525  -9.857   3.243  1.00  0.00    -0.398 OA
ATOM     30  HO  UNL     1      -7.831 -10.266   3.747  1.00  0.00     0.209 HD
ENDBRANCH  28  29
ENDBRANCH   4  28
BRANCH   6  31
HETATM   31  N   UNL     1     -13.247  -8.935   0.461  1.00  0.00    -0.275 N 
HETATM   32  C   UNL     1     -14.283  -9.799   0.394  1.00  0.00     0.140 A 
HETATM   33  C   UNL     1     -14.623  -9.892  -0.909  1.00  0.00     0.073 A 
HETATM   34  N   UNL     1     -13.780  -9.095  -1.598  1.00  0.00    -0.282 N 
HETATM   35  N   UNL     1     -12.938  -8.493  -0.769  1.00  0.00    -0.020 NA
ATOM     36  HN  UNL     1     -13.790  -8.972  -2.610  1.00  0.00     0.184 HD
BRANCH  33  37
HETATM   37  C   UNL     1     -15.618 -10.625  -1.496  1.00  0.00    -0.001 A 
HETATM   38  C   UNL     1     -15.485 -11.178  -2.786  1.00  0.00     0.058 A 
HETATM   39  C   UNL     1     -16.502 -11.974  -3.324  1.00  0.00     0.142 A 
HETATM   40  F   UNL     1     -16.335 -12.491  -4.561  1.00  0.00    -0.204 F 
HETATM   41  C   UNL     1     -17.655 -12.226  -2.578  1.00  0.00     0.111 A 
HETATM   42 CL   UNL     1     -18.982 -13.105  -3.114  1.00  0.00    -0.078 Cl
HETATM   43  C   UNL     1     -17.797 -11.687  -1.319  1.00  0.00     0.142 A 
HETATM   44  F   UNL     1     -18.937 -11.936  -0.617  1.00  0.00    -0.204 F 
HETATM   45  C   UNL     1     -16.788 -10.913  -0.764  1.00  0.00     0.058 A 
ENDBRANCH  33  37
ENDBRANCH   6  31
BRANCH   5  46
HETATM   46  O   UNL     1     -10.602  -9.935   1.157  1.00  0.00    -0.391 OA
ATOM     47  HO  UNL     1     -11.008 -10.564   0.572  1.00  0.00     0.210 HD
ENDBRANCH   5  46
TORSDOF 9
ENDMDL
MODEL 9
REMARK VINA RESULT:    -7.273      2.024      2.494
REMARK INTER + INTRA:         -12.070
REMARK INTER:                 -10.998
REMARK INTRA:                  -1.072
REMARK UNBOUND:                -1.608
REMARK  9 active torsions:
REMARK  status: ('A' for Active; 'I' for Inactive)
REMARK    1  A    between atoms: C_2  and  C_5 
REMARK    2  A    between atoms: C_11  and  N_12 
REMARK    3  A    between atoms: C_19  and  C_20 
REMARK    4  A    between atoms: C_21  and  O_22 
REMARK    5  A    between atoms: C_25  and  C_26 
REMARK    6  A    between atoms: C_26  and  O_27 
REMARK    7  A    between atoms: C_29  and  O_30 
REMARK    8  A    between atoms: C_32  and  N_33 
REMARK    9  A    between atoms: C_38  and  C_39 
ROOT
HETATM    1  C   UNL     1     -10.959  -7.304   1.324  1.00  0.00     0.222 C 
HETATM    2  C   UNL     1     -12.450  -7.042   1.123  1.00  0.00     0.181 C 
HETATM    3  O   UNL     1     -10.353  -7.694   0.071  1.00  0.00    -0.365 OA
HETATM    4  C   UNL     1     -10.901  -8.944  -0.370  1.00  0.00     0.177 C 
HETATM    5  C   UNL     1     -12.377  -8.769  -0.690  1.00  0.00     0.176 C 
HETATM    6  C   UNL     1     -13.083  -8.304   0.580  1.00  0.00     0.168 C 
ENDROOT
BRANCH   1   7
HETATM    7  C   UNL     1     -10.184  -6.104   1.796  1.00  0.00     0.137 A 
HETATM    8  N   UNL     1      -9.752  -5.104   1.040  1.00  0.00    -0.331 N 
HETATM    9  C   UNL     1      -9.073  -4.312   1.882  1.00  0.00     0.093 A 
ATOM     10  HN  UNL     1      -9.903  -4.969   0.040  1.00  0.00     0.168 HD
HETATM   11  C   UNL     1      -8.408  -2.993   1.514  1.00  0.00     0.090 C 
HETATM   12  N   UNL     1      -9.067  -4.795   3.121  1.00  0.00    -0.281 N 
HETATM   13  N   UNL     1      -9.755  -5.962   3.055  1.00  0.00    -0.239 N 
ATOM     14  HN  UNL     1      -8.635  -4.376   3.946  1.00  0.00     0.189 HD
BRANCH  13  15
HETATM   15  C   UNL     1      -9.936  -6.808   4.094  1.00  0.00     0.075 A 
HETATM   16  C   UNL     1      -9.294  -8.058   4.044  1.00  0.00     0.056 A 
HETATM   17  C   UNL     1      -9.432  -8.990   5.083  1.00  0.00     0.036 A 
HETATM   18  C   UNL     1     -10.222  -8.677   6.185  1.00  0.00     0.025 A 
HETATM   19 CL   UNL     1      -8.660 -10.538   5.001  1.00  0.00    -0.084 Cl
HETATM   20  C   UNL     1     -10.896  -7.459   6.233  1.00  0.00     0.020 A 
HETATM   21  C   UNL     1     -10.766  -6.498   5.204  1.00  0.00     0.076 A 
BRANCH  21  22
HETATM   22  C   UNL     1     -11.470  -5.242   5.279  1.00  0.00     0.419 C 
HETATM   23  F   UNL     1     -12.039  -4.942   4.185  1.00  0.00    -0.166 F 
HETATM   24  F   UNL     1     -12.414  -5.286   6.202  1.00  0.00    -0.166 F 
HETATM   25  F   UNL     1     -10.619  -4.213   5.620  1.00  0.00    -0.166 F 
ENDBRANCH  21  22
ENDBRANCH  13  15
ENDBRANCH   1   7
BRANCH   2  26
HETATM   26  O   UNL     1     -13.008  -6.751   2.413  1.00  0.00    -0.390 OA
ATOM     27  HO  UNL     1     -13.063  -5.810   2.525  1.00  0.00     0.210 HD
ENDBRANCH   2  26
BRANCH   4  28
HETATM   28  C   UNL     1     -10.109  -9.328  -1.628  1.00  0.00     0.198 C 
BRANCH  28  29
HETATM   29  O   UNL     1      -9.983  -8.228  -2.536  1.00  0.00    -0.398 OA
ATOM     30  HO  UNL     1      -9.374  -8.418  -3.240  1.00  0.00     0.209 HD
ENDBRANCH  28  29
ENDBRANCH   4  28
BRANCH   6  31
HETATM   31  N   UNL     1     -14.521  -8.149   0.366  1.00  0.00    -0.275 N 
HETATM   32  C   UNL     1     -15.534  -7.919   1.229  1.00  0.00     0.140 A 
HETATM   33  C   UNL     1     -16.663  -7.862   0.491  1.00  0.00     0.073 A 
HETATM   34  N   UNL     1     -16.308  -8.070  -0.794  1.00  0.00    -0.282 N 
HETATM   35  N   UNL     1     -14.996  -8.237  -0.886  1.00  0.00    -0.020 NA
ATOM     36  HN  UNL     1     -16.956  -8.096  -1.581  1.00  0.00     0.184 HD
BRANCH  33  37
HETATM   37  C   UNL     1     -17.952  -7.637   0.891  1.00  0.00    -0.001 A 
HETATM   38  C   UNL     1     -18.672  -6.489   0.503  1.00  0.00     0.058 A 
HETATM   39  C   UNL     1     -20.009  -6.329   0.883  1.00  0.00     0.142 A 
HETATM   40  F   UNL     1     -20.667  -5.218   0.487  1.00  0.00    -0.204 F 
HETATM   41  C   UNL     1     -20.637  -7.314   1.650  1.00  0.00     0.111 A 
HETATM   42 CL   UNL     1     -22.209  -7.231   2.233  1.00  0.00    -0.078 Cl
HETATM   43  C   UNL     1     -19.940  -8.437   2.038  1.00  0.00     0.142 A 
HETATM   44  F   UNL     1     -20.570  -9.376   2.797  1.00  0.00    -0.204 F 
HETATM   45  C   UNL     1     -18.620  -8.619   1.651  1.00  0.00     0.058 A 
ENDBRANCH  33  37
ENDBRANCH   6  31
BRANCH   5  46
HETATM   46  O   UNL     1     -12.531  -7.800  -1.731  1.00  0.00    -0.391 OA
ATOM     47  HO  UNL     1     -12.719  -8.241  -2.551  1.00  0.00     0.210 HD
ENDBRANCH   5  46
TORSDOF 9
ENDMDL
MODEL 10
REMARK VINA RESULT:    -7.233      5.688      7.427
REMARK INTER + INTRA:         -12.013
REMARK INTER:                 -10.011
REMARK INTRA:                  -2.002
REMARK UNBOUND:                -1.608
REMARK  9 active torsions:
REMARK  status: ('A' for Active; 'I' for Inactive)
REMARK    1  A    between atoms: C_2  and  C_5 
REMARK    2  A    between atoms: C_11  and  N_12 
REMARK    3  A    between atoms: C_19  and  C_20 
REMARK    4  A    between atoms: C_21  and  O_22 
REMARK    5  A    between atoms: C_25  and  C_26 
REMARK    6  A    between atoms: C_26  and  O_27 
REMARK    7  A    between atoms: C_29  and  O_30 
REMARK    8  A    between atoms: C_32  and  N_33 
REMARK    9  A    between atoms: C_38  and  C_39 
ROOT
HETATM    1  C   UNL     1     -15.225  -8.584   1.803  1.00  0.00     0.222 C 
HETATM    2  C   UNL     1     -15.332  -9.957   1.142  1.00  0.00     0.181 C 
HETATM    3  O   UNL     1     -16.533  -7.975   1.892  1.00  0.00    -0.365 OA
HETATM    4  C   UNL     1     -17.045  -7.722   0.576  1.00  0.00     0.177 C 
HETATM    5  C   UNL     1     -17.278  -9.041  -0.142  1.00  0.00     0.176 C 
HETATM    6  C   UNL     1     -15.943  -9.773  -0.230  1.00  0.00     0.168 C 
ENDROOT
BRANCH   1   7
HETATM    7  C   UNL     1     -14.696  -8.622   3.211  1.00  0.00     0.137 A 
HETATM    8  N   UNL     1     -15.381  -8.960   4.295  1.00  0.00    -0.331 N 
HETATM    9  C   UNL     1     -14.517  -8.790   5.307  1.00  0.00     0.093 A 
ATOM     10  HN  UNL     1     -16.348  -9.278   4.348  1.00  0.00     0.168 HD
HETATM   11  C   UNL     1     -14.803  -9.085   6.774  1.00  0.00     0.090 C 
HETATM   12  N   UNL     1     -13.336  -8.352   4.883  1.00  0.00    -0.281 N 
HETATM   13  N   UNL     1     -13.465  -8.217   3.539  1.00  0.00    -0.239 N 
ATOM     14  HN  UNL     1     -12.508  -8.159   5.448  1.00  0.00     0.189 HD
BRANCH  13  15
HETATM   15  C   UNL     1     -12.503  -7.737   2.719  1.00  0.00     0.075 A 
HETATM   16  C   UNL     1     -11.552  -8.643   2.218  1.00  0.00     0.056 A 
HETATM   17  C   UNL     1     -10.525  -8.222   1.362  1.00  0.00     0.036 A 
HETATM   18  C   UNL     1     -10.439  -6.881   0.998  1.00  0.00     0.025 A 
HETATM   19 CL   UNL     1      -9.339  -9.339   0.773  1.00  0.00    -0.084 Cl
HETATM   20  C   UNL     1     -11.351  -5.963   1.516  1.00  0.00     0.020 A 
HETATM   21  C   UNL     1     -12.402  -6.363   2.373  1.00  0.00     0.076 A 
BRANCH  21  22
HETATM   22  C   UNL     1     -13.336  -5.394   2.890  1.00  0.00     0.419 C 
HETATM   23  F   UNL     1     -13.498  -5.502   4.144  1.00  0.00    -0.166 F 
HETATM   24  F   UNL     1     -12.913  -4.164   2.663  1.00  0.00    -0.166 F 
HETATM   25  F   UNL     1     -14.568  -5.516   2.283  1.00  0.00    -0.166 F 
ENDBRANCH  21  22
ENDBRANCH  13  15
ENDBRANCH   1   7
BRANCH   2  26
HETATM   26  O   UNL     1     -13.998 -10.465   1.000  1.00  0.00    -0.390 OA
ATOM     27  HO  UNL     1     -13.502 -10.264   1.785  1.00  0.00     0.210 HD
ENDBRANCH   2  26
BRANCH   4  28
HETATM   28  C   UNL     1     -18.366  -6.967   0.780  1.00  0.00     0.198 C 
BRANCH  28  29
HETATM   29  O   UNL     1     -18.929  -6.530  -0.462  1.00  0.00    -0.398 OA
ATOM     30  HO  UNL     1     -19.569  -7.147  -0.798  1.00  0.00     0.209 HD
ENDBRANCH  28  29
ENDBRANCH   4  28
BRANCH   6  31
HETATM   31  N   UNL     1     -16.074 -11.041  -0.946  1.00  0.00    -0.275 N 
HETATM   32  C   UNL     1     -15.745 -11.394  -2.207  1.00  0.00     0.140 A 
HETATM   33  C   UNL     1     -16.082 -12.694  -2.343  1.00  0.00     0.073 A 
HETATM   34  N   UNL     1     -16.617 -13.091  -1.169  1.00  0.00    -0.282 N 
HETATM   35  N   UNL     1     -16.608 -12.090  -0.300  1.00  0.00    -0.020 NA
ATOM     36  HN  UNL     1     -16.976 -14.026  -0.979  1.00  0.00     0.184 HD
BRANCH  33  37
HETATM   37  C   UNL     1     -15.940 -13.520  -3.425  1.00  0.00    -0.001 A 
HETATM   38  C   UNL     1     -15.089 -14.644  -3.408  1.00  0.00     0.058 A 
HETATM   39  C   UNL     1     -15.020 -15.497  -4.514  1.00  0.00     0.142 A 
HETATM   40  F   UNL     1     -14.197 -16.567  -4.458  1.00  0.00    -0.204 F 
HETATM   41  C   UNL     1     -15.802 -15.238  -5.642  1.00  0.00     0.111 A 
HETATM   42 CL   UNL     1     -15.778 -16.132  -7.064  1.00  0.00    -0.078 Cl
HETATM   43  C   UNL     1     -16.633 -14.140  -5.671  1.00  0.00     0.142 A 
HETATM   44  F   UNL     1     -17.374 -13.900  -6.787  1.00  0.00    -0.204 F 
HETATM   45  C   UNL     1     -16.727 -13.296  -4.573  1.00  0.00     0.058 A 
ENDBRANCH  33  37
ENDBRANCH   6  31
BRANCH   5  46
HETATM   46  O   UNL     1     -18.230  -9.822   0.586  1.00  0.00    -0.391 OA
ATOM     47  HO  UNL     1     -17.982 -10.739   0.552  1.00  0.00     0.210 HD
ENDBRANCH   5  46
TORSDOF 9
ENDMDL
MODEL 11
REMARK VINA RESULT:    -7.105      3.887      4.403
REMARK INTER + INTRA:         -11.828
REMARK INTER:                  -9.763
REMARK INTRA:                  -2.065
REMARK UNBOUND:                -1.608
REMARK  9 active torsions:
REMARK  status: ('A' for Active; 'I' for Inactive)
REMARK    1  A    between atoms: C_2  and  C_5 
REMARK    2  A    between atoms: C_11  and  N_12 
REMARK    3  A    between atoms: C_19  and  C_20 
REMARK    4  A    between atoms: C_21  and  O_22 
REMARK    5  A    between atoms: C_25  and  C_26 
REMARK    6  A    between atoms: C_26  and  O_27 
REMARK    7  A    between atoms: C_29  and  O_30 
REMARK    8  A    between atoms: C_32  and  N_33 
REMARK    9  A    between atoms: C_38  and  C_39 
ROOT
HETATM    1  C   UNL     1     -12.335  -7.995   1.046  1.00  0.00     0.222 C 
HETATM    2  C   UNL     1     -13.718  -8.418   0.557  1.00  0.00     0.181 C 
HETATM    3  O   UNL     1     -11.515  -7.595  -0.075  1.00  0.00    -0.365 OA
HETATM    4  C   UNL     1     -11.284  -8.718  -0.937  1.00  0.00     0.177 C 
HETATM    5  C   UNL     1     -12.598  -9.165  -1.556  1.00  0.00     0.176 C 
HETATM    6  C   UNL     1     -13.544  -9.556  -0.425  1.00  0.00     0.168 C 
ENDROOT
BRANCH   1   7
HETATM    7  C   UNL     1     -12.351  -6.816   1.981  1.00  0.00     0.137 A 
HETATM    8  N   UNL     1     -13.245  -5.837   1.991  1.00  0.00    -0.331 N 
HETATM    9  C   UNL     1     -12.819  -4.998   2.946  1.00  0.00     0.093 A 
ATOM     10  HN  UNL     1     -14.073  -5.744   1.403  1.00  0.00     0.168 HD
HETATM   11  C   UNL     1     -13.526  -3.723   3.386  1.00  0.00     0.090 C 
HETATM   12  N   UNL     1     -11.693  -5.423   3.513  1.00  0.00    -0.281 N 
HETATM   13  N   UNL     1     -11.380  -6.575   2.869  1.00  0.00    -0.239 N 
ATOM     14  HN  UNL     1     -11.176  -4.977   4.271  1.00  0.00     0.189 HD
BRANCH  13  15
HETATM   15  C   UNL     1     -10.267  -7.308   3.100  1.00  0.00     0.075 A 
HETATM   16  C   UNL     1     -10.416  -8.542   3.758  1.00  0.00     0.056 A 
HETATM   17  C   UNL     1      -9.310  -9.359   4.032  1.00  0.00     0.036 A 
HETATM   18  C   UNL     1      -8.037  -8.943   3.651  1.00  0.00     0.025 A 
HETATM   19 CL   UNL     1      -9.498 -10.863   4.869  1.00  0.00    -0.084 Cl
HETATM   20  C   UNL     1      -7.868  -7.706   3.033  1.00  0.00     0.020 A 
HETATM   21  C   UNL     1      -8.967  -6.868   2.735  1.00  0.00     0.076 A 
BRANCH  21  22
HETATM   22  C   UNL     1      -8.765  -5.595   2.089  1.00  0.00     0.419 C 
HETATM   23  F   UNL     1      -8.878  -4.622   2.896  1.00  0.00    -0.166 F 
HETATM   24  F   UNL     1      -7.555  -5.520   1.565  1.00  0.00    -0.166 F 
HETATM   25  F   UNL     1      -9.663  -5.410   1.060  1.00  0.00    -0.166 F 
ENDBRANCH  21  22
ENDBRANCH  13  15
ENDBRANCH   1   7
BRANCH   2  26
HETATM   26  O   UNL     1     -14.448  -8.889   1.699  1.00  0.00    -0.390 OA
ATOM     27  HO  UNL     1     -15.241  -8.376   1.796  1.00  0.00     0.210 HD
ENDBRANCH   2  26
BRANCH   4  28
HETATM   28  C   UNL     1     -10.309  -8.223  -2.016  1.00  0.00     0.198 C 
BRANCH  28  29
HETATM   29  O   UNL     1     -10.693  -8.662  -3.324  1.00  0.00    -0.398 OA
ATOM     30  HO  UNL     1      -9.945  -8.948  -3.835  1.00  0.00     0.209 HD
ENDBRANCH  28  29
ENDBRANCH   4  28
BRANCH   6  31
HETATM   31  N   UNL     1     -14.824 -10.037  -0.941  1.00  0.00    -0.275 N 
HETATM   32  C   UNL     1     -15.194 -11.236  -1.441  1.00  0.00     0.140 A 
HETATM   33  C   UNL     1     -16.499 -11.132  -1.766  1.00  0.00     0.073 A 
HETATM   34  N   UNL     1     -16.884  -9.873  -1.467  1.00  0.00    -0.282 N 
HETATM   35  N   UNL     1     -15.869  -9.195  -0.950  1.00  0.00    -0.020 NA
ATOM     36  HN  UNL     1     -17.820  -9.498  -1.618  1.00  0.00     0.184 HD
BRANCH  33  37
HETATM   37  C   UNL     1     -17.341 -12.072  -2.296  1.00  0.00    -0.001 A 
HETATM   38  C   UNL     1     -18.557 -12.428  -1.679  1.00  0.00     0.058 A 
HETATM   39  C   UNL     1     -19.417 -13.349  -2.287  1.00  0.00     0.142 A 
HETATM   40  F   UNL     1     -20.577 -13.660  -1.668  1.00  0.00    -0.204 F 
HETATM   41  C   UNL     1     -19.071 -13.918  -3.515  1.00  0.00     0.111 A 
HETATM   42 CL   UNL     1     -19.967 -15.081  -4.330  1.00  0.00    -0.078 Cl
HETATM   43  C   UNL     1     -17.882 -13.581  -4.124  1.00  0.00     0.142 A 
HETATM   44  F   UNL     1     -17.561 -14.159  -5.313  1.00  0.00    -0.204 F 
HETATM   45  C   UNL     1     -17.029 -12.653  -3.543  1.00  0.00     0.058 A 
ENDBRANCH  33  37
ENDBRANCH   6  31
BRANCH   5  46
HETATM   46  O   UNL     1     -13.155  -8.094  -2.325  1.00  0.00    -0.391 OA
ATOM     47  HO  UNL     1     -13.317  -8.391  -3.213  1.00  0.00     0.210 HD
ENDBRANCH   5  46
TORSDOF 9
ENDMDL
MODEL 12
REMARK VINA RESULT:    -7.040      6.468     10.347
REMARK INTER + INTRA:         -11.735
REMARK INTER:                 -10.126
REMARK INTRA:                  -1.608
REMARK UNBOUND:                -1.608
REMARK  9 active torsions:
REMARK  status: ('A' for Active; 'I' for Inactive)
REMARK    1  A    between atoms: C_2  and  C_5 
REMARK    2  A    between atoms: C_11  and  N_12 
REMARK    3  A    between atoms: C_19  and  C_20 
REMARK    4  A    between atoms: C_21  and  O_22 
REMARK    5  A    between atoms: C_25  and  C_26 
REMARK    6  A    between atoms: C_26  and  O_27 
REMARK    7  A    between atoms: C_29  and  O_30 
REMARK    8  A    between atoms: C_32  and  N_33 
REMARK    9  A    between atoms: C_38  and  C_39 
ROOT
HETATM    1  C   UNL     1     -18.013 -10.134   0.299  1.00  0.00     0.222 C 
HETATM    2  C   UNL     1     -17.218 -10.868  -0.779  1.00  0.00     0.181 C 
HETATM    3  O   UNL     1     -18.319 -11.035   1.386  1.00  0.00    -0.365 OA
HETATM    4  C   UNL     1     -19.184 -12.082   0.925  1.00  0.00     0.177 C 
HETATM    5  C   UNL     1     -18.451 -12.938  -0.095  1.00  0.00     0.176 C 
HETATM    6  C   UNL     1     -18.044 -12.040  -1.259  1.00  0.00     0.168 C 
ENDROOT
BRANCH   1   7
HETATM    7  C   UNL     1     -17.277  -8.978   0.922  1.00  0.00     0.137 A 
HETATM    8  N   UNL     1     -15.962  -8.810   0.947  1.00  0.00    -0.331 N 
HETATM    9  C   UNL     1     -15.779  -7.683   1.651  1.00  0.00     0.093 A 
ATOM     10  HN  UNL     1     -15.249  -9.406   0.526  1.00  0.00     0.168 HD
HETATM   11  C   UNL     1     -14.435  -7.026   1.935  1.00  0.00     0.090 C 
HETATM   12  N   UNL     1     -16.931  -7.163   2.063  1.00  0.00    -0.281 N 
HETATM   13  N   UNL     1     -17.889  -8.015   1.619  1.00  0.00    -0.239 N 
ATOM     14  HN  UNL     1     -17.065  -6.306   2.600  1.00  0.00     0.189 HD
BRANCH  13  15
HETATM   15  C   UNL     1     -19.211  -7.886   1.873  1.00  0.00     0.075 A 
HETATM   16  C   UNL     1     -19.769  -8.693   2.879  1.00  0.00     0.056 A 
HETATM   17  C   UNL     1     -21.132  -8.617   3.201  1.00  0.00     0.036 A 
HETATM   18  C   UNL     1     -21.952  -7.729   2.512  1.00  0.00     0.025 A 
HETATM   19 CL   UNL     1     -21.818  -9.635   4.423  1.00  0.00    -0.084 Cl
HETATM   20  C   UNL     1     -21.423  -6.949   1.485  1.00  0.00     0.020 A 
HETATM   21  C   UNL     1     -20.051  -6.999   1.147  1.00  0.00     0.076 A 
BRANCH  21  22
HETATM   22  C   UNL     1     -19.526  -6.178   0.085  1.00  0.00     0.419 C 
HETATM   23  F   UNL     1     -18.793  -6.836  -0.715  1.00  0.00    -0.166 F 
HETATM   24  F   UNL     1     -20.504  -5.656  -0.633  1.00  0.00    -0.166 F 
HETATM   25  F   UNL     1     -18.787  -5.128   0.585  1.00  0.00    -0.166 F 
ENDBRANCH  21  22
ENDBRANCH  13  15
ENDBRANCH   1   7
BRANCH   2  26
HETATM   26  O   UNL     1     -17.027  -9.949  -1.866  1.00  0.00    -0.390 OA
ATOM     27  HO  UNL     1     -16.731 -10.428  -2.631  1.00  0.00     0.210 HD
ENDBRANCH   2  26
BRANCH   4  28
HETATM   28  C   UNL     1     -19.548 -12.904   2.170  1.00  0.00     0.198 C 
BRANCH  28  29
HETATM   29  O   UNL     1     -19.574 -14.309   1.894  1.00  0.00    -0.398 OA
ATOM     30  HO  UNL     1     -19.596 -14.826   2.691  1.00  0.00     0.209 HD
ENDBRANCH  28  29
ENDBRANCH   4  28
BRANCH   6  31
HETATM   31  N   UNL     1     -17.364 -12.799  -2.308  1.00  0.00    -0.275 N 
HETATM   32  C   UNL     1     -17.604 -14.023  -2.826  1.00  0.00     0.140 A 
HETATM   33  C   UNL     1     -16.667 -14.230  -3.775  1.00  0.00     0.073 A 
HETATM   34  N   UNL     1     -15.877 -13.136  -3.799  1.00  0.00    -0.282 N 
HETATM   35  N   UNL     1     -16.300 -12.246  -2.912  1.00  0.00    -0.020 NA
ATOM     36  HN  UNL     1     -15.072 -13.011  -4.412  1.00  0.00     0.184 HD
BRANCH  33  37
HETATM   37  C   UNL     1     -16.487 -15.309  -4.597  1.00  0.00    -0.001 A 
HETATM   38  C   UNL     1     -16.038 -15.176  -5.927  1.00  0.00     0.058 A 
HETATM   39  C   UNL     1     -15.808 -16.310  -6.713  1.00  0.00     0.142 A 
HETATM   40  F   UNL     1     -15.372 -16.143  -7.981  1.00  0.00    -0.204 F 
HETATM   41  C   UNL     1     -16.020 -17.583  -6.177  1.00  0.00     0.111 A 
HETATM   42 CL   UNL     1     -15.849 -19.028  -7.016  1.00  0.00    -0.078 Cl
HETATM   43  C   UNL     1     -16.463 -17.723  -4.880  1.00  0.00     0.142 A 
HETATM   44  F   UNL     1     -16.675 -18.973  -4.385  1.00  0.00    -0.204 F 
HETATM   45  C   UNL     1     -16.675 -16.608  -4.082  1.00  0.00     0.058 A 
ENDBRANCH  33  37
ENDBRANCH   6  31
BRANCH   5  46
HETATM   46  O   UNL     1     -17.295 -13.523   0.512  1.00  0.00    -0.391 OA
ATOM     47  HO  UNL     1     -17.238 -13.248   1.420  1.00  0.00     0.210 HD
ENDBRANCH   5  46
TORSDOF 9
ENDMDL
MODEL 13
REMARK VINA RESULT:    -6.998      7.244     11.996
REMARK INTER + INTRA:         -11.674
REMARK INTER:                 -10.225
REMARK INTRA:                  -1.449
REMARK UNBOUND:                -1.608
REMARK  9 active torsions:
REMARK  status: ('A' for Active; 'I' for Inactive)
REMARK    1  A    between atoms: C_2  and  C_5 
REMARK    2  A    between atoms: C_11  and  N_12 
REMARK    3  A    between atoms: C_19  and  C_20 
REMARK    4  A    between atoms: C_21  and  O_22 
REMARK    5  A    between atoms: C_25  and  C_26 
REMARK    6  A    between atoms: C_26  and  O_27 
REMARK    7  A    between atoms: C_29  and  O_30 
REMARK    8  A    between atoms: C_32  and  N_33 
REMARK    9  A    between atoms: C_38  and  C_39 
ROOT
HETATM    1  C   UNL     1     -18.231 -14.784  -2.855  1.00  0.00     0.222 C 
HETATM    2  C   UNL     1     -17.575 -13.667  -2.046  1.00  0.00     0.181 C 
HETATM    3  O   UNL     1     -17.358 -15.192  -3.933  1.00  0.00    -0.365 OA
HETATM    4  C   UNL     1     -17.182 -14.109  -4.856  1.00  0.00     0.177 C 
HETATM    5  C   UNL     1     -16.447 -12.968  -4.171  1.00  0.00     0.176 C 
HETATM    6  C   UNL     1     -17.287 -12.513  -2.981  1.00  0.00     0.168 C 
ENDROOT
BRANCH   1   7
HETATM    7  C   UNL     1     -18.510 -16.032  -2.062  1.00  0.00     0.137 A 
HETATM    8  N   UNL     1     -17.623 -16.955  -1.718  1.00  0.00    -0.331 N 
HETATM    9  C   UNL     1     -18.340 -17.891  -1.079  1.00  0.00     0.093 A 
ATOM     10  HN  UNL     1     -16.619 -16.954  -1.899  1.00  0.00     0.168 HD
HETATM   11  C   UNL     1     -17.778 -19.155  -0.442  1.00  0.00     0.090 C 
HETATM   12  N   UNL     1     -19.631 -17.579  -1.028  1.00  0.00    -0.281 N 
HETATM   13  N   UNL     1     -19.741 -16.398  -1.688  1.00  0.00    -0.239 N 
ATOM     14  HN  UNL     1     -20.380 -18.113  -0.587  1.00  0.00     0.189 HD
BRANCH  13  15
HETATM   15  C   UNL     1     -20.905 -15.751  -1.919  1.00  0.00     0.075 A 
HETATM   16  C   UNL     1     -21.376 -14.868  -0.931  1.00  0.00     0.056 A 
HETATM   17  C   UNL     1     -22.575 -14.160  -1.099  1.00  0.00     0.036 A 
HETATM   18  C   UNL     1     -23.318 -14.333  -2.262  1.00  0.00     0.025 A 
HETATM   19 CL   UNL     1     -23.163 -13.097   0.136  1.00  0.00    -0.084 Cl
HETATM   20  C   UNL     1     -22.886 -15.233  -3.235  1.00  0.00     0.020 A 
HETATM   21  C   UNL     1     -21.676 -15.952  -3.096  1.00  0.00     0.076 A 
BRANCH  21  22
HETATM   22  C   UNL     1     -21.247 -16.872  -4.119  1.00  0.00     0.419 C 
HETATM   23  F   UNL     1     -20.914 -18.000  -3.643  1.00  0.00    -0.166 F 
HETATM   24  F   UNL     1     -22.217 -17.094  -4.988  1.00  0.00    -0.166 F 
HETATM   25  F   UNL     1     -20.177 -16.368  -4.826  1.00  0.00    -0.166 F 
ENDBRANCH  21  22
ENDBRANCH  13  15
ENDBRANCH   1   7
BRANCH   2  26
HETATM   26  O   UNL     1     -18.524 -13.245  -1.056  1.00  0.00    -0.390 OA
ATOM     27  HO  UNL     1     -18.401 -12.321  -0.879  1.00  0.00     0.210 HD
ENDBRANCH   2  26
BRANCH   4  28
HETATM   28  C   UNL     1     -16.351 -14.678  -6.016  1.00  0.00     0.198 C 
BRANCH  28  29
HETATM   29  O   UNL     1     -16.713 -14.092  -7.271  1.00  0.00    -0.398 OA
ATOM     30  HO  UNL     1     -16.980 -14.747  -7.905  1.00  0.00     0.209 HD
ENDBRANCH  28  29
ENDBRANCH   4  28
BRANCH   6  31
HETATM   31  N   UNL     1     -16.665 -11.386  -2.288  1.00  0.00    -0.275 N 
HETATM   32  C   UNL     1     -15.369 -11.071  -2.076  1.00  0.00     0.140 A 
HETATM   33  C   UNL     1     -15.363  -9.915  -1.379  1.00  0.00     0.073 A 
HETATM   34  N   UNL     1     -16.651  -9.568  -1.175  1.00  0.00    -0.282 N 
HETATM   35  N   UNL     1     -17.460 -10.455  -1.736  1.00  0.00    -0.020 NA
ATOM     36  HN  UNL     1     -16.958  -8.741  -0.662  1.00  0.00     0.184 HD
BRANCH  33  37
HETATM   37  C   UNL     1     -14.302  -9.176  -0.931  1.00  0.00    -0.001 A 
HETATM   38  C   UNL     1     -13.041  -9.211  -1.560  1.00  0.00     0.058 A 
HETATM   39  C   UNL     1     -12.001  -8.392  -1.108  1.00  0.00     0.142 A 
HETATM   40  F   UNL     1     -10.809  -8.449  -1.741  1.00  0.00    -0.204 F 
HETATM   41  C   UNL     1     -12.213  -7.531  -0.029  1.00  0.00     0.111 A 
HETATM   42 CL   UNL     1     -11.047  -6.540   0.664  1.00  0.00    -0.078 Cl
HETATM   43  C   UNL     1     -13.440  -7.493   0.596  1.00  0.00     0.142 A 
HETATM   44  F   UNL     1     -13.618  -6.656   1.655  1.00  0.00    -0.204 F 
HETATM   45  C   UNL     1     -14.487  -8.284   0.145  1.00  0.00     0.058 A 
ENDBRANCH  33  37
ENDBRANCH   6  31
BRANCH   5  46
HETATM   46  O   UNL     1     -15.162 -13.419  -3.733  1.00  0.00    -0.391 OA
ATOM     47  HO  UNL     1     -15.233 -13.779  -2.857  1.00  0.00     0.210 HD
ENDBRANCH   5  46
TORSDOF 9
ENDMDL
MODEL 14
REMARK VINA RESULT:    -6.964      4.308      4.862
REMARK INTER + INTRA:         -11.626
REMARK INTER:                  -9.271
REMARK INTRA:                  -2.355
REMARK UNBOUND:                -1.608
REMARK  9 active torsions:
REMARK  status: ('A' for Active; 'I' for Inactive)
REMARK    1  A    between atoms: C_2  and  C_5 
REMARK    2  A    between atoms: C_11  and  N_12 
REMARK    3  A    between atoms: C_19  and  C_20 
REMARK    4  A    between atoms: C_21  and  O_22 
REMARK    5  A    between atoms: C_25  and  C_26 
REMARK    6  A    between atoms: C_26  and  O_27 
REMARK    7  A    between atoms: C_29  and  O_30 
REMARK    8  A    between atoms: C_32  and  N_33 
REMARK    9  A    between atoms: C_38  and  C_39 
ROOT
HETATM    1  C   UNL     1     -12.394  -7.999   1.041  1.00  0.00     0.222 C 
HETATM    2  C   UNL     1     -13.771  -8.433   0.541  1.00  0.00     0.181 C 
HETATM    3  O   UNL     1     -11.566  -7.604  -0.076  1.00  0.00    -0.365 OA
HETATM    4  C   UNL     1     -11.322  -8.732  -0.927  1.00  0.00     0.177 C 
HETATM    5  C   UNL     1     -12.628  -9.190  -1.555  1.00  0.00     0.176 C 
HETATM    6  C   UNL     1     -13.582  -9.578  -0.430  1.00  0.00     0.168 C 
ENDROOT
BRANCH   1   7
HETATM    7  C   UNL     1     -12.425  -6.814   1.966  1.00  0.00     0.137 A 
HETATM    8  N   UNL     1     -13.292  -5.812   1.926  1.00  0.00    -0.331 N 
HETATM    9  C   UNL     1     -12.890  -4.977   2.896  1.00  0.00     0.093 A 
ATOM     10  HN  UNL     1     -14.088  -5.701   1.297  1.00  0.00     0.168 HD
HETATM   11  C   UNL     1     -13.584  -3.681   3.292  1.00  0.00     0.090 C 
HETATM   12  N   UNL     1     -11.806  -5.427   3.520  1.00  0.00    -0.281 N 
HETATM   13  N   UNL     1     -11.492  -6.592   2.899  1.00  0.00    -0.239 N 
ATOM     14  HN  UNL     1     -11.314  -4.989   4.300  1.00  0.00     0.189 HD
BRANCH  13  15
HETATM   15  C   UNL     1     -10.412  -7.352   3.189  1.00  0.00     0.075 A 
HETATM   16  C   UNL     1      -9.239  -7.140   2.444  1.00  0.00     0.056 A 
HETATM   17  C   UNL     1      -8.077  -7.888   2.686  1.00  0.00     0.036 A 
HETATM   18  C   UNL     1      -8.082  -8.861   3.680  1.00  0.00     0.025 A 
HETATM   19 CL   UNL     1      -6.645  -7.642   1.743  1.00  0.00    -0.084 Cl
HETATM   20  C   UNL     1      -9.247  -9.110   4.402  1.00  0.00     0.020 A 
HETATM   21  C   UNL     1     -10.429  -8.364   4.185  1.00  0.00     0.076 A 
BRANCH  21  22
HETATM   22  C   UNL     1     -11.620  -8.637   4.950  1.00  0.00     0.419 C 
HETATM   23  F   UNL     1     -12.597  -8.977   4.215  1.00  0.00    -0.166 F 
HETATM   24  F   UNL     1     -11.417  -9.628   5.800  1.00  0.00    -0.166 F 
HETATM   25  F   UNL     1     -11.998  -7.539   5.692  1.00  0.00    -0.166 F 
ENDBRANCH  21  22
ENDBRANCH  13  15
ENDBRANCH   1   7
BRANCH   2  26
HETATM   26  O   UNL     1     -14.509  -8.899   1.681  1.00  0.00    -0.390 OA
ATOM     27  HO  UNL     1     -15.399  -8.568   1.633  1.00  0.00     0.210 HD
ENDBRANCH   2  26
BRANCH   4  28
HETATM   28  C   UNL     1     -10.339  -8.241  -2.000  1.00  0.00     0.198 C 
BRANCH  28  29
HETATM   29  O   UNL     1     -10.718  -8.677  -3.311  1.00  0.00    -0.398 OA
ATOM     30  HO  UNL     1     -10.623  -9.617  -3.413  1.00  0.00     0.209 HD
ENDBRANCH  28  29
ENDBRANCH   4  28
BRANCH   6  31
HETATM   31  N   UNL     1     -14.856 -10.069  -0.954  1.00  0.00    -0.275 N 
HETATM   32  C   UNL     1     -15.204 -11.260  -1.487  1.00  0.00     0.140 A 
HETATM   33  C   UNL     1     -16.513 -11.172  -1.803  1.00  0.00     0.073 A 
HETATM   34  N   UNL     1     -16.920  -9.930  -1.468  1.00  0.00    -0.282 N 
HETATM   35  N   UNL     1     -15.917  -9.246  -0.935  1.00  0.00    -0.020 NA
ATOM     36  HN  UNL     1     -17.865  -9.569  -1.603  1.00  0.00     0.184 HD
BRANCH  33  37
HETATM   37  C   UNL     1     -17.338 -12.113  -2.356  1.00  0.00    -0.001 A 
HETATM   38  C   UNL     1     -18.576 -12.462  -1.779  1.00  0.00     0.058 A 
HETATM   39  C   UNL     1     -19.417 -13.385  -2.410  1.00  0.00     0.142 A 
HETATM   40  F   UNL     1     -20.598 -13.690  -1.829  1.00  0.00    -0.204 F 
HETATM   41  C   UNL     1     -19.032 -13.961  -3.623  1.00  0.00     0.111 A 
HETATM   42 CL   UNL     1     -19.903 -15.126  -4.462  1.00  0.00    -0.078 Cl
HETATM   43  C   UNL     1     -17.822 -13.630  -4.193  1.00  0.00     0.142 A 
HETATM   44  F   UNL     1     -17.463 -14.215  -5.368  1.00  0.00    -0.204 F 
HETATM   45  C   UNL     1     -16.987 -12.701  -3.589  1.00  0.00     0.058 A 
ENDBRANCH  33  37
ENDBRANCH   6  31
BRANCH   5  46
HETATM   46  O   UNL     1     -13.182  -8.128  -2.337  1.00  0.00    -0.391 OA
ATOM     47  HO  UNL     1     -12.704  -8.052  -3.154  1.00  0.00     0.210 HD
ENDBRANCH   5  46
TORSDOF 9
ENDMDL
MODEL 15
REMARK VINA RESULT:    -6.824      8.243     10.990
REMARK INTER + INTRA:         -11.425
REMARK INTER:                  -9.853
REMARK INTRA:                  -1.572
REMARK UNBOUND:                -1.608
REMARK  9 active torsions:
REMARK  status: ('A' for Active; 'I' for Inactive)
REMARK    1  A    between atoms: C_2  and  C_5 
REMARK    2  A    between atoms: C_11  and  N_12 
REMARK    3  A    between atoms: C_19  and  C_20 
REMARK    4  A    between atoms: C_21  and  O_22 
REMARK    5  A    between atoms: C_25  and  C_26 
REMARK    6  A    between atoms: C_26  and  O_27 
REMARK    7  A    between atoms: C_29  and  O_30 
REMARK    8  A    between atoms: C_32  and  N_33 
REMARK    9  A    between atoms: C_38  and  C_39 
ROOT
HETATM    1  C   UNL     1     -15.731 -15.189  -3.156  1.00  0.00     0.222 C 
HETATM    2  C   UNL     1     -15.322 -13.854  -2.536  1.00  0.00     0.181 C 
HETATM    3  O   UNL     1     -16.128 -14.994  -4.531  1.00  0.00    -0.365 OA
HETATM    4  C   UNL     1     -17.303 -14.174  -4.590  1.00  0.00     0.177 C 
HETATM    5  C   UNL     1     -16.978 -12.780  -4.078  1.00  0.00     0.176 C 
HETATM    6  C   UNL     1     -16.498 -12.908  -2.635  1.00  0.00     0.168 C 
ENDROOT
BRANCH   1   7
HETATM    7  C   UNL     1     -14.628 -16.212  -3.190  1.00  0.00     0.137 A 
HETATM    8  N   UNL     1     -13.327 -15.961  -3.143  1.00  0.00    -0.331 N 
HETATM    9  C   UNL     1     -12.746 -17.164  -3.260  1.00  0.00     0.093 A 
ATOM     10  HN  UNL     1     -12.870 -15.054  -3.040  1.00  0.00     0.168 HD
HETATM   11  C   UNL     1     -11.247 -17.431  -3.220  1.00  0.00     0.090 C 
HETATM   12  N   UNL     1     -13.642 -18.137  -3.386  1.00  0.00    -0.281 N 
HETATM   13  N   UNL     1     -14.850 -17.518  -3.372  1.00  0.00    -0.239 N 
ATOM     14  HN  UNL     1     -13.461 -19.138  -3.475  1.00  0.00     0.189 HD
BRANCH  13  15
HETATM   15  C   UNL     1     -16.037 -18.143  -3.534  1.00  0.00     0.075 A 
HETATM   16  C   UNL     1     -16.819 -18.378  -2.389  1.00  0.00     0.056 A 
HETATM   17  C   UNL     1     -18.063 -19.020  -2.476  1.00  0.00     0.036 A 
HETATM   18  C   UNL     1     -18.535 -19.438  -3.716  1.00  0.00     0.025 A 
HETATM   19 CL   UNL     1     -19.006 -19.332  -1.057  1.00  0.00    -0.084 Cl
HETATM   20  C   UNL     1     -17.756 -19.247  -4.856  1.00  0.00     0.020 A 
HETATM   21  C   UNL     1     -16.504 -18.594  -4.797  1.00  0.00     0.076 A 
BRANCH  21  22
HETATM   22  C   UNL     1     -15.719 -18.403  -5.992  1.00  0.00     0.419 C 
HETATM   23  F   UNL     1     -14.634 -19.061  -5.965  1.00  0.00    -0.166 F 
HETATM   24  F   UNL     1     -16.384 -18.804  -7.060  1.00  0.00    -0.166 F 
HETATM   25  F   UNL     1     -15.414 -17.072  -6.181  1.00  0.00    -0.166 F 
ENDBRANCH  21  22
ENDBRANCH  13  15
ENDBRANCH   1   7
BRANCH   2  26
HETATM   26  O   UNL     1     -15.030 -14.099  -1.152  1.00  0.00    -0.390 OA
ATOM     27  HO  UNL     1     -14.215 -14.583  -1.086  1.00  0.00     0.210 HD
ENDBRANCH   2  26
BRANCH   4  28
HETATM   28  C   UNL     1     -17.712 -14.133  -6.070  1.00  0.00     0.198 C 
BRANCH  28  29
HETATM   29  O   UNL     1     -16.579 -14.236  -6.940  1.00  0.00    -0.398 OA
ATOM     30  HO  UNL     1     -16.338 -15.140  -7.102  1.00  0.00     0.209 HD
ENDBRANCH  28  29
ENDBRANCH   4  28
BRANCH   6  31
HETATM   31  N   UNL     1     -16.200 -11.600  -2.053  1.00  0.00    -0.275 N 
HETATM   32  C   UNL     1     -15.074 -11.104  -1.496  1.00  0.00     0.140 A 
HETATM   33  C   UNL     1     -15.354  -9.837  -1.125  1.00  0.00     0.073 A 
HETATM   34  N   UNL     1     -16.642  -9.602  -1.454  1.00  0.00    -0.282 N 
HETATM   35  N   UNL     1     -17.169 -10.671  -2.034  1.00  0.00    -0.020 NA
ATOM     36  HN  UNL     1     -17.138  -8.727  -1.282  1.00  0.00     0.184 HD
BRANCH  33  37
HETATM   37  C   UNL     1     -14.546  -8.907  -0.529  1.00  0.00    -0.001 A 
HETATM   38  C   UNL     1     -14.987  -8.097   0.537  1.00  0.00     0.058 A 
HETATM   39  C   UNL     1     -14.109  -7.203   1.158  1.00  0.00     0.142 A 
HETATM   40  F   UNL     1     -14.567  -6.449   2.181  1.00  0.00    -0.204 F 
HETATM   41  C   UNL     1     -12.785  -7.113   0.723  1.00  0.00     0.111 A 
HETATM   42 CL   UNL     1     -11.637  -6.046   1.325  1.00  0.00    -0.078 Cl
HETATM   43  C   UNL     1     -12.345  -7.897  -0.322  1.00  0.00     0.142 A 
HETATM   44  F   UNL     1     -11.054  -7.781  -0.737  1.00  0.00    -0.204 F 
HETATM   45  C   UNL     1     -13.199  -8.803  -0.934  1.00  0.00     0.058 A 
ENDBRANCH  33  37
ENDBRANCH   6  31
BRANCH   5  46
HETATM   46  O   UNL     1     -15.960 -12.194  -4.894  1.00  0.00    -0.391 OA
ATOM     47  HO  UNL     1     -15.159 -12.698  -4.815  1.00  0.00     0.210 HD
ENDBRANCH   5  46
TORSDOF 9
ENDMDL
MODEL 16
REMARK VINA RESULT:    -6.752      3.073      4.020
REMARK INTER + INTRA:         -11.320
REMARK INTER:                  -9.169
REMARK INTRA:                  -2.152
REMARK UNBOUND:                -1.608
REMARK  9 active torsions:
REMARK  status: ('A' for Active; 'I' for Inactive)
REMARK    1  A    between atoms: C_2  and  C_5 
REMARK    2  A    between atoms: C_11  and  N_12 
REMARK    3  A    between atoms: C_19  and  C_20 
REMARK    4  A    between atoms: C_21  and  O_22 
REMARK    5  A    between atoms: C_25  and  C_26 
REMARK    6  A    between atoms: C_26  and  O_27 
REMARK    7  A    between atoms: C_29  and  O_30 
REMARK    8  A    between atoms: C_32  and  N_33 
REMARK    9  A    between atoms: C_38  and  C_39 
ROOT
HETATM    1  C   UNL     1     -14.647  -8.002   1.999  1.00  0.00     0.222 C 
HETATM    2  C   UNL     1     -16.121  -7.604   2.070  1.00  0.00     0.181 C 
HETATM    3  O   UNL     1     -14.254  -8.196   0.622  1.00  0.00    -0.365 OA
HETATM    4  C   UNL     1     -14.971  -9.302   0.059  1.00  0.00     0.177 C 
HETATM    5  C   UNL     1     -16.453  -8.970  -0.004  1.00  0.00     0.176 C 
HETATM    6  C   UNL     1     -16.936  -8.698   1.418  1.00  0.00     0.168 C 
ENDROOT
BRANCH   1   7
HETATM    7  C   UNL     1     -13.707  -6.965   2.551  1.00  0.00     0.137 A 
HETATM    8  N   UNL     1     -13.941  -5.663   2.638  1.00  0.00    -0.331 N 
HETATM    9  C   UNL     1     -12.806  -5.148   3.134  1.00  0.00     0.093 A 
ATOM     10  HN  UNL     1     -14.794  -5.165   2.385  1.00  0.00     0.168 HD
HETATM   11  C   UNL     1     -12.571  -3.680   3.466  1.00  0.00     0.090 C 
HETATM   12  N   UNL     1     -11.886  -6.084   3.343  1.00  0.00    -0.281 N 
HETATM   13  N   UNL     1     -12.458  -7.246   2.939  1.00  0.00    -0.239 N 
ATOM     14  HN  UNL     1     -10.949  -5.956   3.726  1.00  0.00     0.189 HD
BRANCH  13  15
HETATM   15  C   UNL     1     -11.836  -8.447   2.928  1.00  0.00     0.075 A 
HETATM   16  C   UNL     1     -12.160  -9.365   3.942  1.00  0.00     0.056 A 
HETATM   17  C   UNL     1     -11.558 -10.631   3.998  1.00  0.00     0.036 A 
HETATM   18  C   UNL     1     -10.620 -10.988   3.035  1.00  0.00     0.025 A 
HETATM   19 CL   UNL     1     -11.941 -11.745   5.268  1.00  0.00    -0.084 Cl
HETATM   20  C   UNL     1     -10.259 -10.076   2.045  1.00  0.00     0.020 A 
HETATM   21  C   UNL     1     -10.858  -8.798   1.960  1.00  0.00     0.076 A 
BRANCH  21  22
HETATM   22  C   UNL     1     -10.472  -7.875   0.922  1.00  0.00     0.419 C 
HETATM   23  F   UNL     1      -9.839  -6.874   1.379  1.00  0.00    -0.166 F 
HETATM   24  F   UNL     1      -9.679  -8.460   0.043  1.00  0.00    -0.166 F 
HETATM   25  F   UNL     1     -11.571  -7.413   0.231  1.00  0.00    -0.166 F 
ENDBRANCH  21  22
ENDBRANCH  13  15
ENDBRANCH   1   7
BRANCH   2  26
HETATM   26  O   UNL     1     -16.472  -7.518   3.459  1.00  0.00    -0.390 OA
ATOM     27  HO  UNL     1     -15.915  -6.876   3.882  1.00  0.00     0.210 HD
ENDBRANCH   2  26
BRANCH   4  28
HETATM   28  C   UNL     1     -14.394  -9.502  -1.350  1.00  0.00     0.198 C 
BRANCH  28  29
HETATM   29  O   UNL     1     -15.412  -9.824  -2.304  1.00  0.00    -0.398 OA
ATOM     30  HO  UNL     1     -15.750 -10.703  -2.178  1.00  0.00     0.209 HD
ENDBRANCH  28  29
ENDBRANCH   4  28
BRANCH   6  31
HETATM   31  N   UNL     1     -18.369  -8.407   1.449  1.00  0.00    -0.275 N 
HETATM   32  C   UNL     1     -19.448  -9.220   1.430  1.00  0.00     0.140 A 
HETATM   33  C   UNL     1     -20.534  -8.420   1.481  1.00  0.00     0.073 A 
HETATM   34  N   UNL     1     -20.088  -7.147   1.516  1.00  0.00    -0.282 N 
HETATM   35  N   UNL     1     -18.762  -7.125   1.508  1.00  0.00    -0.020 NA
ATOM     36  HN  UNL     1     -20.684  -6.320   1.546  1.00  0.00     0.184 HD
BRANCH  33  37
HETATM   37  C   UNL     1     -21.860  -8.756   1.500  1.00  0.00    -0.001 A 
HETATM   38  C   UNL     1     -22.814  -8.015   2.226  1.00  0.00     0.058 A 
HETATM   39  C   UNL     1     -24.170  -8.356   2.168  1.00  0.00     0.142 A 
HETATM   40  F   UNL     1     -25.055  -7.618   2.873  1.00  0.00    -0.204 F 
HETATM   41  C   UNL     1     -24.582  -9.435   1.383  1.00  0.00     0.111 A 
HETATM   42 CL   UNL     1     -26.159 -10.002   1.266  1.00  0.00    -0.078 Cl
HETATM   43  C   UNL     1     -23.657 -10.169   0.673  1.00  0.00     0.142 A 
HETATM   44  F   UNL     1     -24.082 -11.225  -0.073  1.00  0.00    -0.204 F 
HETATM   45  C   UNL     1     -22.312  -9.829   0.705  1.00  0.00     0.058 A 
ENDBRANCH  33  37
ENDBRANCH   6  31
BRANCH   5  46
HETATM   46  O   UNL     1     -16.652  -7.818  -0.828  1.00  0.00    -0.391 OA
ATOM     47  HO  UNL     1     -15.828  -7.358  -0.937  1.00  0.00     0.210 HD
ENDBRANCH   5  46
TORSDOF 9
ENDMDL
MODEL 17
REMARK VINA RESULT:    -6.720      6.324      9.014
REMARK INTER + INTRA:         -11.275
REMARK INTER:                  -9.974
REMARK INTRA:                  -1.301
REMARK UNBOUND:                -1.608
REMARK  9 active torsions:
REMARK  status: ('A' for Active; 'I' for Inactive)
REMARK    1  A    between atoms: C_2  and  C_5 
REMARK    2  A    between atoms: C_11  and  N_12 
REMARK    3  A    between atoms: C_19  and  C_20 
REMARK    4  A    between atoms: C_21  and  O_22 
REMARK    5  A    between atoms: C_25  and  C_26 
REMARK    6  A    between atoms: C_26  and  O_27 
REMARK    7  A    between atoms: C_29  and  O_30 
REMARK    8  A    between atoms: C_32  and  N_33 
REMARK    9  A    between atoms: C_38  and  C_39 
ROOT
HETATM    1  C   UNL     1     -16.640  -9.556   0.056  1.00  0.00     0.222 C 
HETATM    2  C   UNL     1     -17.152 -10.517  -1.016  1.00  0.00     0.181 C 
HETATM    3  O   UNL     1     -15.477  -8.848  -0.430  1.00  0.00    -0.365 OA
HETATM    4  C   UNL     1     -14.402  -9.770  -0.657  1.00  0.00     0.177 C 
HETATM    5  C   UNL     1     -14.775 -10.723  -1.781  1.00  0.00     0.176 C 
HETATM    6  C   UNL     1     -16.034 -11.476  -1.362  1.00  0.00     0.168 C 
ENDROOT
BRANCH   1   7
HETATM    7  C   UNL     1     -17.630  -8.494   0.449  1.00  0.00     0.137 A 
HETATM    8  N   UNL     1     -17.950  -7.421  -0.261  1.00  0.00    -0.331 N 
HETATM    9  C   UNL     1     -18.817  -6.750   0.511  1.00  0.00     0.093 A 
ATOM     10  HN  UNL     1     -17.612  -7.164  -1.188  1.00  0.00     0.168 HD
HETATM   11  C   UNL     1     -19.522  -5.455   0.132  1.00  0.00     0.090 C 
HETATM   12  N   UNL     1     -19.031  -7.368   1.669  1.00  0.00    -0.281 N 
HETATM   13  N   UNL     1     -18.243  -8.472   1.638  1.00  0.00    -0.239 N 
ATOM     14  HN  UNL     1     -19.655  -7.074   2.421  1.00  0.00     0.189 HD
BRANCH  13  15
HETATM   15  C   UNL     1     -18.115  -9.355   2.653  1.00  0.00     0.075 A 
HETATM   16  C   UNL     1     -19.118 -10.328   2.811  1.00  0.00     0.056 A 
HETATM   17  C   UNL     1     -19.056 -11.279   3.840  1.00  0.00     0.036 A 
HETATM   18  C   UNL     1     -17.984 -11.262   4.727  1.00  0.00     0.025 A 
HETATM   19 CL   UNL     1     -20.310 -12.455   4.044  1.00  0.00    -0.084 Cl
HETATM   20  C   UNL     1     -17.001 -10.281   4.608  1.00  0.00     0.020 A 
HETATM   21  C   UNL     1     -17.034  -9.317   3.574  1.00  0.00     0.076 A 
BRANCH  21  22
HETATM   22  C   UNL     1     -16.002  -8.317   3.470  1.00  0.00     0.419 C 
HETATM   23  F   UNL     1     -16.445  -7.210   3.034  1.00  0.00    -0.166 F 
HETATM   24  F   UNL     1     -15.461  -8.074   4.650  1.00  0.00    -0.166 F 
HETATM   25  F   UNL     1     -14.985  -8.734   2.637  1.00  0.00    -0.166 F 
ENDBRANCH  21  22
ENDBRANCH  13  15
ENDBRANCH   1   7
BRANCH   2  26
HETATM   26  O   UNL     1     -18.242 -11.252  -0.441  1.00  0.00    -0.390 OA
ATOM     27  HO  UNL     1     -19.062 -10.850  -0.703  1.00  0.00     0.210 HD
ENDBRANCH   2  26
BRANCH   4  28
HETATM   28  C   UNL     1     -13.190  -8.911  -1.045  1.00  0.00     0.198 C 
BRANCH  28  29
HETATM   29  O   UNL     1     -13.123  -8.689  -2.458  1.00  0.00    -0.398 OA
ATOM     30  HO  UNL     1     -13.958  -8.852  -2.882  1.00  0.00     0.209 HD
ENDBRANCH  28  29
ENDBRANCH   4  28
BRANCH   6  31
HETATM   31  N   UNL     1     -16.439 -12.446  -2.378  1.00  0.00    -0.275 N 
HETATM   32  C   UNL     1     -15.802 -13.519  -2.895  1.00  0.00     0.140 A 
HETATM   33  C   UNL     1     -16.640 -14.064  -3.802  1.00  0.00     0.073 A 
HETATM   34  N   UNL     1     -17.754 -13.304  -3.821  1.00  0.00    -0.282 N 
HETATM   35  N   UNL     1     -17.649 -12.314  -2.945  1.00  0.00    -0.020 NA
ATOM     36  HN  UNL     1     -18.562 -13.467  -4.423  1.00  0.00     0.184 HD
BRANCH  33  37
HETATM   37  C   UNL     1     -16.468 -15.172  -4.587  1.00  0.00    -0.001 A 
HETATM   38  C   UNL     1     -16.032 -15.087  -5.925  1.00  0.00     0.058 A 
HETATM   39  C   UNL     1     -15.810 -16.249  -6.672  1.00  0.00     0.142 A 
HETATM   40  F   UNL     1     -15.386 -16.127  -7.949  1.00  0.00    -0.204 F 
HETATM   41  C   UNL     1     -16.019 -17.501  -6.090  1.00  0.00     0.111 A 
HETATM   42 CL   UNL     1     -15.857 -18.975  -6.878  1.00  0.00    -0.078 Cl
HETATM   43  C   UNL     1     -16.450 -17.595  -4.785  1.00  0.00     0.142 A 
HETATM   44  F   UNL     1     -16.660 -18.826  -4.244  1.00  0.00    -0.204 F 
HETATM   45  C   UNL     1     -16.654 -16.452  -4.025  1.00  0.00     0.058 A 
ENDBRANCH  33  37
ENDBRANCH   6  31
BRANCH   5  46
HETATM   46  O   UNL     1     -15.012  -9.980  -2.980  1.00  0.00    -0.391 OA
ATOM     47  HO  UNL     1     -14.501 -10.350  -3.690  1.00  0.00     0.210 HD
ENDBRANCH   5  46
TORSDOF 9
ENDMDL
MODEL 18
REMARK VINA RESULT:    -6.710      5.728      7.292
REMARK INTER + INTRA:         -11.260
REMARK INTER:                  -9.111
REMARK INTRA:                  -2.149
REMARK UNBOUND:                -1.608
REMARK  9 active torsions:
REMARK  status: ('A' for Active; 'I' for Inactive)
REMARK    1  A    between atoms: C_2  and  C_5 
REMARK    2  A    between atoms: C_11  and  N_12 
REMARK    3  A    between atoms: C_19  and  C_20 
REMARK    4  A    between atoms: C_21  and  O_22 
REMARK    5  A    between atoms: C_25  and  C_26 
REMARK    6  A    between atoms: C_26  and  O_27 
REMARK    7  A    between atoms: C_29  and  O_30 
REMARK    8  A    between atoms: C_32  and  N_33 
REMARK    9  A    between atoms: C_38  and  C_39 
ROOT
HETATM    1  C   UNL     1     -15.126  -9.140   2.033  1.00  0.00     0.222 C 
HETATM    2  C   UNL     1     -15.429 -10.439   1.289  1.00  0.00     0.181 C 
HETATM    3  O   UNL     1     -16.293  -8.288   2.035  1.00  0.00    -0.365 OA
HETATM    4  C   UNL     1     -16.610  -7.890   0.694  1.00  0.00     0.177 C 
HETATM    5  C   UNL     1     -17.020  -9.109  -0.116  1.00  0.00     0.176 C 
HETATM    6  C   UNL     1     -15.850 -10.088  -0.121  1.00  0.00     0.168 C 
ENDROOT
BRANCH   1   7
HETATM    7  C   UNL     1     -14.760  -9.334   3.480  1.00  0.00     0.137 A 
HETATM    8  N   UNL     1     -15.310 -10.204   4.316  1.00  0.00    -0.331 N 
HETATM    9  C   UNL     1     -14.707  -9.972   5.491  1.00  0.00     0.093 A 
ATOM     10  HN  UNL     1     -16.031 -10.896   4.110  1.00  0.00     0.168 HD
HETATM   11  C   UNL     1     -14.955 -10.742   6.781  1.00  0.00     0.090 C 
HETATM   12  N   UNL     1     -13.818  -8.987   5.406  1.00  0.00    -0.281 N 
HETATM   13  N   UNL     1     -13.877  -8.560   4.120  1.00  0.00    -0.239 N 
ATOM     14  HN  UNL     1     -13.219  -8.629   6.150  1.00  0.00     0.189 HD
BRANCH  13  15
HETATM   15  C   UNL     1     -13.168  -7.523   3.620  1.00  0.00     0.075 A 
HETATM   16  C   UNL     1     -13.713  -6.233   3.743  1.00  0.00     0.056 A 
HETATM   17  C   UNL     1     -13.038  -5.107   3.251  1.00  0.00     0.036 A 
HETATM   18  C   UNL     1     -11.805  -5.264   2.625  1.00  0.00     0.025 A 
HETATM   19 CL   UNL     1     -13.729  -3.524   3.381  1.00  0.00    -0.084 Cl
HETATM   20  C   UNL     1     -11.269  -6.540   2.460  1.00  0.00     0.020 A 
HETATM   21  C   UNL     1     -11.924  -7.691   2.956  1.00  0.00     0.076 A 
BRANCH  21  22
HETATM   22  C   UNL     1     -11.345  -8.998   2.778  1.00  0.00     0.419 C 
HETATM   23  F   UNL     1     -11.907  -9.651   1.846  1.00  0.00    -0.166 F 
HETATM   24  F   UNL     1     -10.065  -8.908   2.464  1.00  0.00    -0.166 F 
HETATM   25  F   UNL     1     -11.426  -9.742   3.936  1.00  0.00    -0.166 F 
ENDBRANCH  21  22
ENDBRANCH  13  15
ENDBRANCH   1   7
BRANCH   2  26
HETATM   26  O   UNL     1     -14.211 -11.197   1.243  1.00  0.00    -0.390 OA
ATOM     27  HO  UNL     1     -13.482 -10.607   1.088  1.00  0.00     0.210 HD
ENDBRANCH   2  26
BRANCH   4  28
HETATM   28  C   UNL     1     -17.774  -6.896   0.816  1.00  0.00     0.198 C 
BRANCH  28  29
HETATM   29  O   UNL     1     -18.514  -6.787  -0.405  1.00  0.00    -0.398 OA
ATOM     30  HO  UNL     1     -19.078  -6.023  -0.410  1.00  0.00     0.209 HD
ENDBRANCH  28  29
ENDBRANCH   4  28
BRANCH   6  31
HETATM   31  N   UNL     1     -16.151 -11.278  -0.916  1.00  0.00    -0.275 N 
HETATM   32  C   UNL     1     -15.793 -11.630  -2.170  1.00  0.00     0.140 A 
HETATM   33  C   UNL     1     -16.347 -12.838  -2.403  1.00  0.00     0.073 A 
HETATM   34  N   UNL     1     -17.034 -13.181  -1.293  1.00  0.00    -0.282 N 
HETATM   35  N   UNL     1     -16.913 -12.238  -0.369  1.00  0.00    -0.020 NA
ATOM     36  HN  UNL     1     -17.569 -14.042  -1.182  1.00  0.00     0.184 HD
BRANCH  33  37
HETATM   37  C   UNL     1     -16.271 -13.628  -3.518  1.00  0.00    -0.001 A 
HETATM   38  C   UNL     1     -16.995 -13.344  -4.694  1.00  0.00     0.058 A 
HETATM   39  C   UNL     1     -16.840 -14.142  -5.832  1.00  0.00     0.142 A 
HETATM   40  F   UNL     1     -17.547 -13.834  -6.941  1.00  0.00    -0.204 F 
HETATM   41  C   UNL     1     -15.960 -15.227  -5.806  1.00  0.00     0.111 A 
HETATM   42 CL   UNL     1     -15.718 -16.309  -7.067  1.00  0.00    -0.078 Cl
HETATM   43  C   UNL     1     -15.251 -15.516  -4.660  1.00  0.00     0.142 A 
HETATM   44  F   UNL     1     -14.410 -16.586  -4.655  1.00  0.00    -0.204 F 
HETATM   45  C   UNL     1     -15.379 -14.720  -3.531  1.00  0.00     0.058 A 
ENDBRANCH  33  37
ENDBRANCH   6  31
BRANCH   5  46
HETATM   46  O   UNL     1     -18.174  -9.713   0.476  1.00  0.00    -0.391 OA
ATOM     47  HO  UNL     1     -18.238 -10.619   0.198  1.00  0.00     0.210 HD
ENDBRANCH   5  46
TORSDOF 9
ENDMDL
MODEL 19
REMARK VINA RESULT:    -6.659      4.044     10.911
REMARK INTER + INTRA:         -11.186
REMARK INTER:                  -9.133
REMARK INTRA:                  -2.053
REMARK UNBOUND:                -1.608
REMARK  9 active torsions:
REMARK  status: ('A' for Active; 'I' for Inactive)
REMARK    1  A    between atoms: C_2  and  C_5 
REMARK    2  A    between atoms: C_11  and  N_12 
REMARK    3  A    between atoms: C_19  and  C_20 
REMARK    4  A    between atoms: C_21  and  O_22 
REMARK    5  A    between atoms: C_25  and  C_26 
REMARK    6  A    between atoms: C_26  and  O_27 
REMARK    7  A    between atoms: C_29  and  O_30 
REMARK    8  A    between atoms: C_32  and  N_33 
REMARK    9  A    between atoms: C_38  and  C_39 
ROOT
HETATM    1  C   UNL     1     -18.989  -9.938   1.175  1.00  0.00     0.222 C 
HETATM    2  C   UNL     1     -17.539  -9.588   0.846  1.00  0.00     0.181 C 
HETATM    3  O   UNL     1     -19.864  -8.867   0.756  1.00  0.00    -0.365 OA
HETATM    4  C   UNL     1     -19.581  -7.681   1.510  1.00  0.00     0.177 C 
HETATM    5  C   UNL     1     -18.180  -7.190   1.182  1.00  0.00     0.176 C 
HETATM    6  C   UNL     1     -17.195  -8.295   1.551  1.00  0.00     0.168 C 
ENDROOT
BRANCH   1   7
HETATM    7  C   UNL     1     -19.493 -11.174   0.479  1.00  0.00     0.137 A 
HETATM    8  N   UNL     1     -18.983 -11.718  -0.616  1.00  0.00    -0.331 N 
HETATM    9  C   UNL     1     -19.791 -12.753  -0.889  1.00  0.00     0.093 A 
ATOM     10  HN  UNL     1     -18.159 -11.416  -1.136  1.00  0.00     0.168 HD
HETATM   11  C   UNL     1     -19.613 -13.738  -2.036  1.00  0.00     0.090 C 
HETATM   12  N   UNL     1     -20.780 -12.855  -0.007  1.00  0.00    -0.281 N 
HETATM   13  N   UNL     1     -20.603 -11.820   0.853  1.00  0.00    -0.239 N 
ATOM     14  HN  UNL     1     -21.517 -13.561   0.019  1.00  0.00     0.189 HD
BRANCH  13  15
HETATM   15  C   UNL     1     -21.433 -11.520   1.878  1.00  0.00     0.075 A 
HETATM   16  C   UNL     1     -21.037 -11.892   3.175  1.00  0.00     0.056 A 
HETATM   17  C   UNL     1     -21.843 -11.615   4.289  1.00  0.00     0.036 A 
HETATM   18  C   UNL     1     -23.059 -10.962   4.113  1.00  0.00     0.025 A 
HETATM   19 CL   UNL     1     -21.362 -12.102   5.880  1.00  0.00    -0.084 Cl
HETATM   20  C   UNL     1     -23.484 -10.621   2.830  1.00  0.00     0.020 A 
HETATM   21  C   UNL     1     -22.687 -10.879   1.691  1.00  0.00     0.076 A 
BRANCH  21  22
HETATM   22  C   UNL     1     -23.146 -10.511   0.375  1.00  0.00     0.419 C 
HETATM   23  F   UNL     1     -24.200  -9.805   0.413  1.00  0.00    -0.166 F 
HETATM   24  F   UNL     1     -22.232  -9.799  -0.260  1.00  0.00    -0.166 F 
HETATM   25  F   UNL     1     -23.398 -11.625  -0.396  1.00  0.00    -0.166 F 
ENDBRANCH  21  22
ENDBRANCH  13  15
ENDBRANCH   1   7
BRANCH   2  26
HETATM   26  O   UNL     1     -16.718 -10.643   1.368  1.00  0.00    -0.390 OA
ATOM     27  HO  UNL     1     -15.828 -10.327   1.465  1.00  0.00     0.210 HD
ENDBRANCH   2  26
BRANCH   4  28
HETATM   28  C   UNL     1     -20.637  -6.651   1.082  1.00  0.00     0.198 C 
BRANCH  28  29
HETATM   29  O   UNL     1     -20.774  -6.587  -0.342  1.00  0.00    -0.398 OA
ATOM     30  HO  UNL     1     -21.395  -7.228  -0.667  1.00  0.00     0.209 HD
ENDBRANCH  28  29
ENDBRANCH   4  28
BRANCH   6  31
HETATM   31  N   UNL     1     -15.814  -7.885   1.301  1.00  0.00    -0.275 N 
HETATM   32  C   UNL     1     -14.961  -7.125   2.023  1.00  0.00     0.140 A 
HETATM   33  C   UNL     1     -13.808  -7.070   1.324  1.00  0.00     0.073 A 
HETATM   34  N   UNL     1     -13.994  -7.785   0.194  1.00  0.00    -0.282 N 
HETATM   35  N   UNL     1     -15.216  -8.299   0.172  1.00  0.00    -0.020 NA
ATOM     36  HN  UNL     1     -13.295  -7.911  -0.538  1.00  0.00     0.184 HD
BRANCH  33  37
HETATM   37  C   UNL     1     -12.634  -6.439   1.633  1.00  0.00    -0.001 A 
HETATM   38  C   UNL     1     -12.598  -5.219   2.337  1.00  0.00     0.058 A 
HETATM   39  C   UNL     1     -11.374  -4.639   2.687  1.00  0.00     0.142 A 
HETATM   40  F   UNL     1     -11.380  -3.472   3.368  1.00  0.00    -0.204 F 
HETATM   41  C   UNL     1     -10.179  -5.274   2.340  1.00  0.00     0.111 A 
HETATM   42 CL   UNL     1      -8.640  -4.670   2.633  1.00  0.00    -0.078 Cl
HETATM   43  C   UNL     1     -10.204  -6.464   1.647  1.00  0.00     0.142 A 
HETATM   44  F   UNL     1      -9.026  -7.057   1.308  1.00  0.00    -0.204 F 
HETATM   45  C   UNL     1     -11.410  -7.062   1.312  1.00  0.00     0.058 A 
ENDBRANCH  33  37
ENDBRANCH   6  31
BRANCH   5  46
HETATM   46  O   UNL     1     -18.092  -6.886  -0.213  1.00  0.00    -0.391 OA
ATOM     47  HO  UNL     1     -18.917  -7.094  -0.637  1.00  0.00     0.210 HD
ENDBRANCH   5  46
TORSDOF 9
ENDMDL
MODEL 20
REMARK VINA RESULT:    -6.528      6.763      9.155
REMARK INTER + INTRA:         -10.998
REMARK INTER:                  -8.687
REMARK INTRA:                  -2.312
REMARK UNBOUND:                -1.608
REMARK  9 active torsions:
REMARK  status: ('A' for Active; 'I' for Inactive)
REMARK    1  A    between atoms: C_2  and  C_5 
REMARK    2  A    between atoms: C_11  and  N_12 
REMARK    3  A    between atoms: C_19  and  C_20 
REMARK    4  A    between atoms: C_21  and  O_22 
REMARK    5  A    between atoms: C_25  and  C_26 
REMARK    6  A    between atoms: C_26  and  O_27 
REMARK    7  A    between atoms: C_29  and  O_30 
REMARK    8  A    between atoms: C_32  and  N_33 
REMARK    9  A    between atoms: C_38  and  C_39 
ROOT
HETATM    1  C   UNL     1     -16.781 -12.352  -0.861  1.00  0.00     0.222 C 
HETATM    2  C   UNL     1     -17.679 -11.970   0.314  1.00  0.00     0.181 C 
HETATM    3  O   UNL     1     -15.644 -11.462  -0.924  1.00  0.00    -0.365 OA
HETATM    4  C   UNL     1     -16.084 -10.126  -1.203  1.00  0.00     0.177 C 
HETATM    5  C   UNL     1     -16.918  -9.610  -0.042  1.00  0.00     0.176 C 
HETATM    6  C   UNL     1     -18.120 -10.535   0.124  1.00  0.00     0.168 C 
ENDROOT
BRANCH   1   7
HETATM    7  C   UNL     1     -16.208 -13.740  -0.766  1.00  0.00     0.137 A 
HETATM    8  N   UNL     1     -15.300 -14.154   0.107  1.00  0.00    -0.331 N 
HETATM    9  C   UNL     1     -15.063 -15.430  -0.231  1.00  0.00     0.093 A 
ATOM     10  HN  UNL     1     -14.877 -13.621   0.867  1.00  0.00     0.168 HD
HETATM   11  C   UNL     1     -14.118 -16.378   0.497  1.00  0.00     0.090 C 
HETATM   12  N   UNL     1     -15.783 -15.807  -1.282  1.00  0.00    -0.281 N 
HETATM   13  N   UNL     1     -16.495 -14.709  -1.642  1.00  0.00    -0.239 N 
ATOM     14  HN  UNL     1     -15.798 -16.727  -1.725  1.00  0.00     0.189 HD
BRANCH  13  15
HETATM   15  C   UNL     1     -17.320 -14.643  -2.711  1.00  0.00     0.075 A 
HETATM   16  C   UNL     1     -18.663 -15.020  -2.531  1.00  0.00     0.056 A 
HETATM   17  C   UNL     1     -19.579 -14.979  -3.591  1.00  0.00     0.036 A 
HETATM   18  C   UNL     1     -19.157 -14.559  -4.849  1.00  0.00     0.025 A 
HETATM   19 CL   UNL     1     -21.224 -15.473  -3.368  1.00  0.00    -0.084 Cl
HETATM   20  C   UNL     1     -17.821 -14.218  -5.054  1.00  0.00     0.020 A 
HETATM   21  C   UNL     1     -16.879 -14.242  -4.000  1.00  0.00     0.076 A 
BRANCH  21  22
HETATM   22  C   UNL     1     -15.504 -13.879  -4.237  1.00  0.00     0.419 C 
HETATM   23  F   UNL     1     -14.697 -14.793  -3.885  1.00  0.00    -0.166 F 
HETATM   24  F   UNL     1     -15.291 -13.654  -5.521  1.00  0.00    -0.166 F 
HETATM   25  F   UNL     1     -15.170 -12.724  -3.563  1.00  0.00    -0.166 F 
ENDBRANCH  21  22
ENDBRANCH  13  15
ENDBRANCH   1   7
BRANCH   2  26
HETATM   26  O   UNL     1     -18.830 -12.827   0.266  1.00  0.00    -0.390 OA
ATOM     27  HO  UNL     1     -19.541 -12.421   0.746  1.00  0.00     0.210 HD
ENDBRANCH   2  26
BRANCH   4  28
HETATM   28  C   UNL     1     -14.806  -9.292  -1.374  1.00  0.00     0.198 C 
BRANCH  28  29
HETATM   29  O   UNL     1     -15.069  -7.887  -1.280  1.00  0.00    -0.398 OA
ATOM     30  HO  UNL     1     -15.879  -7.648  -1.714  1.00  0.00     0.209 HD
ENDBRANCH  28  29
ENDBRANCH   4  28
BRANCH   6  31
HETATM   31  N   UNL     1     -18.998 -10.083   1.201  1.00  0.00    -0.275 N 
HETATM   32  C   UNL     1     -20.074  -9.266   1.196  1.00  0.00     0.140 A 
HETATM   33  C   UNL     1     -20.509  -9.194   2.472  1.00  0.00     0.073 A 
HETATM   34  N   UNL     1     -19.682  -9.957   3.217  1.00  0.00    -0.282 N 
HETATM   35  N   UNL     1     -18.758 -10.517   2.449  1.00  0.00    -0.020 NA
ATOM     36  HN  UNL     1     -19.758 -10.084   4.226  1.00  0.00     0.184 HD
BRANCH  33  37
HETATM   37  C   UNL     1     -21.574  -8.508   2.989  1.00  0.00    -0.001 A 
HETATM   38  C   UNL     1     -22.405  -7.694   2.192  1.00  0.00     0.058 A 
HETATM   39  C   UNL     1     -23.520  -7.060   2.749  1.00  0.00     0.142 A 
HETATM   40  F   UNL     1     -24.296  -6.293   1.952  1.00  0.00    -0.204 F 
HETATM   41  C   UNL     1     -23.816  -7.236   4.103  1.00  0.00     0.111 A 
HETATM   42 CL   UNL     1     -25.077  -6.491   4.924  1.00  0.00    -0.078 Cl
HETATM   43  C   UNL     1     -23.007  -8.025   4.892  1.00  0.00     0.142 A 
HETATM   44  F   UNL     1     -23.308  -8.169   6.211  1.00  0.00    -0.204 F 
HETATM   45  C   UNL     1     -21.910  -8.677   4.348  1.00  0.00     0.058 A 
ENDBRANCH  33  37
ENDBRANCH   6  31
BRANCH   5  46
HETATM   46  O   UNL     1     -16.127  -9.600   1.150  1.00  0.00    -0.391 OA
ATOM     47  HO  UNL     1     -16.690  -9.471   1.904  1.00  0.00     0.210 HD
ENDBRANCH   5  46
TORSDOF 9
ENDMDL
