REMARK  7 active torsions:
REMARK  status: ('A' for Active; 'I' for Inactive)
REMARK    1  A    between atoms: C_1  and  O_7 
REMARK    2  A    between atoms: C_2  and  N_13 
REMARK    3  A    between atoms: C_3  and  O_9 
REMARK    4  A    between atoms: C_4  and  O_22 
REMARK    5  A    between atoms: C_5  and  C_6 
REMARK    6  A    between atoms: C_6  and  O_12 
REMARK    7  A    between atoms: O_12  and  S_18 
REMARK       I    between atoms: N_13  and  C_15 
ROOT
HETATM    1  C   UNL     1      24.661  -7.080  -4.963  1.00  0.00     0.282 C 
HETATM    2  C   UNL     1      25.322  -6.242  -6.056  1.00  0.00     0.170 C 
HETATM    3  C   UNL     1      24.431  -5.052  -6.393  1.00  0.00     0.177 C 
HETATM    4  C   UNL     1      22.983  -5.290  -5.996  1.00  0.00     0.180 C 
HETATM    5  C   UNL     1      22.866  -5.519  -4.491  1.00  0.00     0.181 C 
HETATM    6  O   UNL     1      23.696  -6.603  -4.035  1.00  0.00    -0.349 OA
ENDROOT
BRANCH   5   7
HETATM    7  C   UNL     1      21.464  -5.852  -4.066  1.00  0.00     0.227 C 
BRANCH   7   8
HETATM    8  O   UNL     1      21.421  -5.773  -2.654  1.00  0.00    -0.254 OA
BRANCH   8   9
HETATM    9  S   UNL     1      20.263  -6.544  -1.941  1.00  0.00     0.251 S 
HETATM   10  O   UNL     1      20.601  -7.925  -2.076  1.00  0.00    -0.572 OA
HETATM   11  O   UNL     1      20.295  -6.129  -0.580  1.00  0.00    -0.572 OA
HETATM   12  O   UNL     1      19.074  -6.200  -2.665  1.00  0.00    -0.572 OA
ENDBRANCH   8   9
ENDBRANCH   7   8
ENDBRANCH   5   7
BRANCH   4  13
HETATM   13  O   UNL     1      22.216  -4.151  -6.370  1.00  0.00    -0.390 OA
ATOM     14  HO  UNL     1      22.289  -4.009  -7.306  1.00  0.00     0.210 HD
ENDBRANCH   4  13
BRANCH   3  15
HETATM   15  O   UNL     1      24.524  -4.855  -7.797  1.00  0.00    -0.391 OA
ATOM     16  HO  UNL     1      25.429  -4.706  -8.045  1.00  0.00     0.210 HD
ENDBRANCH   3  15
BRANCH   1  17
HETATM   17  O   UNL     1      23.865  -7.934  -5.727  1.00  0.00    -0.369 OA
ATOM     18  HO  UNL     1      24.510  -8.253  -6.347  1.00  0.00     0.212 HD
ENDBRANCH   1  17
BRANCH   2  19
HETATM   19  N   UNL     1      26.668  -5.791  -5.787  1.00  0.00    -0.349 N 
HETATM   20  C   UNL     1      26.982  -5.312  -4.569  1.00  0.00     0.214 C 
HETATM   21  O   UNL     1      26.149  -5.280  -3.659  1.00  0.00    -0.274 OA
HETATM   22  C   UNL     1      28.405  -4.874  -4.368  1.00  0.00     0.117 C 
ATOM     23  HN  UNL     1      27.378  -5.835  -6.518  1.00  0.00     0.163 HD
ENDBRANCH   2  19
TORSDOF 7
