REMARK  6 active torsions:
REMARK  status: ('A' for Active; 'I' for Inactive)
REMARK    1  A    between atoms: S_3  and  N_5 
REMARK    2  A    between atoms: S_3  and  C_6 
REMARK    3  A    between atoms: C_8  and  S_9 
REMARK    4  A    between atoms: S_9  and  N_11 
REMARK    5  A    between atoms: C_13  and  N_14 
REMARK    6  A    between atoms: C_16  and  C_17 
ROOT
HETATM    1  C   UNL     1      -0.883   0.145   0.498  1.00  0.00     0.087 A 
HETATM    2  C   UNL     1       0.472   0.500   0.427  1.00  0.00     0.052 A 
HETATM    3  C   UNL     1       1.177   0.448  -0.786  1.00  0.00     0.102 A 
HETATM    4  C   UNL     1       0.506   0.037  -1.960  1.00  0.00     0.049 A 
HETATM    5  C   UNL     1      -0.851  -0.302  -1.892  1.00  0.00     0.045 A 
HETATM    6  C   UNL     1      -1.552  -0.250  -0.680  1.00  0.00     0.013 A 
ENDROOT
BRANCH   1   7
HETATM    7  S   UNL     1      -1.720   0.212   2.063  1.00  0.00     0.240 S 
HETATM    8  O   UNL     1      -2.566   1.452   2.121  1.00  0.00    -0.206 OA
HETATM    9  O   UNL     1      -2.597  -0.998   2.223  1.00  0.00    -0.206 OA
BRANCH   7  10
HETATM   10  N   UNL     1      -0.600   0.234   3.383  1.00  0.00    -0.225 NA
HETATM   11  H   UNL     1      -0.111   1.156   3.369  1.00  0.00     0.136 HD
HETATM   12  H   UNL     1       0.114  -0.507   3.203  1.00  0.00     0.136 HD
ENDBRANCH   7  10
ENDBRANCH   1   7
BRANCH   6  13
HETATM   13  C   UNL     1      -2.989  -0.590  -0.687  1.00  0.00     0.079 C 
HETATM   14 CL   UNL     1      -4.139   0.743  -0.667  1.00  0.00    -0.081 Cl
HETATM   15  C   UNL     1      -3.408  -1.865  -0.747  1.00  0.00     0.126 C 
HETATM   16 CL   UNL     1      -2.272  -3.210  -0.763  1.00  0.00    -0.069 Cl
HETATM   17 CL   UNL     1      -5.120  -2.265  -0.780  1.00  0.00    -0.069 Cl
ENDBRANCH   6  13
BRANCH   3  18
HETATM   18  S   UNL     1       2.889   0.896  -0.801  1.00  0.00     0.241 S 
HETATM   19  O   UNL     1       3.338   1.304   0.575  1.00  0.00    -0.206 OA
HETATM   20  O   UNL     1       3.098   2.054  -1.737  1.00  0.00    -0.206 OA
BRANCH  18  21
HETATM   21  N   UNL     1       3.836  -0.455  -1.319  1.00  0.00    -0.225 NA
HETATM   22  H   UNL     1       4.839  -0.171  -1.248  1.00  0.00     0.136 HD
HETATM   23  H   UNL     1       3.687  -1.218  -0.621  1.00  0.00     0.136 HD
ENDBRANCH  18  21
ENDBRANCH   3  18
BRANCH   4  24
HETATM   24  N   UNL     1       1.173  -0.039  -3.228  1.00  0.00    -0.398 N 
HETATM   25  H   UNL     1       2.180   0.200  -3.350  1.00  0.00     0.156 HD
HETATM   26  H   UNL     1       0.653  -0.345  -4.080  1.00  0.00     0.156 HD
ENDBRANCH   4  24
TORSDOF 6
