REMARK  11 active torsions:
REMARK  status: ('A' for Active; 'I' for Inactive)
REMARK    1  A    between atoms: N_1  and  C_12 
REMARK       I    between atoms: N_1  and  C_15 
REMARK    2  A    between atoms: P_3  and  O_7 
REMARK    3  A    between atoms: O_7  and  C_8 
REMARK    4  A    between atoms: C_8  and  C_12 
REMARK    5  A    between atoms: C_9  and  C_12 
REMARK    6  A    between atoms: C_15  and  C_16 
REMARK    7  A    between atoms: C_16  and  C_17 
REMARK    8  A    between atoms: C_17  and  C_18 
REMARK    9  A    between atoms: C_18  and  C_19 
REMARK   10  A    between atoms: C_19  and  C_20 
REMARK   11  A    between atoms: C_20  and  C_21 
ROOT
HETATM    1  N   UNK A   1       1.778   1.359  44.777  1.00  0.00    -0.344 N 
ATOM      2  HN  UNK A   1       1.064   0.669  45.013  1.00  0.00     0.163 HD
HETATM    3  O   UNK A   0       2.366   3.501  44.714  1.00  0.00    -0.274 OA
HETATM    4  C   UNK A   0       1.542   2.639  44.987  1.00  0.00     0.218 C 
ENDROOT
BRANCH   1   5
HETATM    5  C   UNK A   1       3.041   0.920  44.214  1.00  0.00     0.214 C 
BRANCH   5   6
HETATM    6  C   UNK A   1       3.919   0.301  45.313  1.00  0.00     0.164 C 
HETATM    7  C   UNK A   1       4.091   1.267  46.496  1.00  0.00     0.043 C 
BRANCH   6   8
HETATM    8  O   UNK A   1       3.335  -0.925  45.786  1.00  0.00    -0.275 OA
BRANCH   8   9
HETATM    9  P   UNK A   1       4.297  -2.145  46.204  1.00  0.00     0.422 P 
HETATM   10  O   UNK A   1       5.228  -2.326  45.028  1.00  0.00    -0.617 OA
HETATM   11  O   UNK A   1       4.972  -1.713  47.484  1.00  0.00    -0.617 OA
HETATM   12  O   UNK A   1       3.307  -3.282  46.414  1.00  0.00    -0.617 OA
ENDBRANCH   8   9
ENDBRANCH   6   8
ENDBRANCH   5   6
BRANCH   5  13
HETATM   13  C   UNK A   1       2.835   0.006  43.029  1.00  0.00     0.199 C 
HETATM   14  O   UNK A   1       1.712  -0.507  42.857  1.00  0.00    -0.646 OA
HETATM   15  O   UNK A   1       3.797  -0.213  42.248  1.00  0.00    -0.646 OA
ENDBRANCH   5  13
ENDBRANCH   1   5
BRANCH   4  16
HETATM   16  C   UNK A   0       0.190   2.972  45.577  1.00  0.00     0.103 C 
BRANCH  16  17
HETATM   17  C   UNK A   0      -0.163   4.440  45.355  1.00  0.00     0.009 C 
BRANCH  17  18
HETATM   18  C   UNK A   0      -1.581   4.748  45.826  1.00  0.00     0.000 C 
BRANCH  18  19
HETATM   19  C   UNK A   0      -1.734   4.570  47.337  1.00  0.00     0.001 C 
BRANCH  19  20
HETATM   20  C   UNK A   0      -1.232   5.794  48.114  1.00  0.00     0.011 C 
BRANCH  20  21
HETATM   21  C   UNK A   0      -2.196   6.968  48.004  1.00  0.00     0.086 C 
HETATM   22  S   UNK A   0      -1.486   8.384  48.923  1.00  0.00    -0.098 SA
ENDBRANCH  20  21
ENDBRANCH  19  20
ENDBRANCH  18  19
ENDBRANCH  17  18
ENDBRANCH  16  17
ENDBRANCH   4  16
TORSDOF 11
