REMARK  8 active torsions:
REMARK  status: ('A' for Active; 'I' for Inactive)
REMARK    1  A    between atoms: C_3  and  S_4 
REMARK    2  A    between atoms: S_4  and  N_33 
REMARK    3  A    between atoms: C_9  and  N_10 
REMARK       I    between atoms: N_10  and  C_11 
REMARK    4  A    between atoms: C_11  and  C_13 
REMARK    5  A    between atoms: C_13  and  N_14 
REMARK    6  A    between atoms: N_19  and  C_20 
REMARK    7  A    between atoms: C_20  and  C_21 
REMARK    8  A    between atoms: C_20  and  C_27 
ROOT
HETATM    1  N   UNL     1      -1.960  -2.033  -0.580  1.00  0.00     0.100 N 
HETATM    2  C   UNL     1      -0.643  -2.361   0.026  1.00  0.00     0.303 C 
HETATM    3  C   UNL     1       0.519  -2.314  -0.981  1.00  0.00     0.304 C 
HETATM    4  C   UNL     1      -2.039  -2.505  -1.974  1.00  0.00     0.303 C 
HETATM    5  C   UNL     1      -0.928  -1.896  -2.865  1.00  0.00     0.304 C 
HETATM    6  N   UNL     1       0.205  -1.364  -2.067  1.00  0.00     0.105 N 
ENDROOT
BRANCH   1   7
HETATM    7  C   UNL     1      -2.313  -0.601  -0.458  1.00  0.00     0.375 C 
BRANCH   7   8
HETATM    8  C   UNL     1      -2.707  -0.287   0.952  1.00  0.00     0.250 C 
HETATM    9  N   UNL     1      -1.778   0.364   1.832  1.00  0.00    -0.326 N 
HETATM   10  H   UNL     1      -1.109   1.046   1.409  1.00  0.00     0.169 HD
HETATM   11  O   UNL     1      -3.848  -0.629   1.368  1.00  0.00    -0.271 OA
BRANCH   9  12
HETATM   12  C   UNL     1      -1.636   0.052   3.232  1.00  0.00     0.034 A 
HETATM   13  C   UNL     1      -0.923   0.929   4.062  1.00  0.00     0.031 A 
HETATM   14  C   UNL     1      -0.712   0.619   5.409  1.00  0.00     0.027 A 
HETATM   15  C   UNL     1      -1.203  -0.584   5.937  1.00  0.00     0.074 A 
HETATM   16  C   UNL     1      -1.916  -1.462   5.117  1.00  0.00     0.027 A 
HETATM   17  C   UNL     1      -2.124  -1.155   3.770  1.00  0.00     0.031 A 
BRANCH  15  18
HETATM   18  S   UNL     1      -0.921  -1.005   7.621  1.00  0.00     0.239 S 
HETATM   19  O   UNL     1      -0.541  -2.456   7.712  1.00  0.00    -0.206 OA
HETATM   20  O   UNL     1       0.201  -0.176   8.179  1.00  0.00    -0.206 OA
BRANCH  18  21
HETATM   21  N   UNL     1      -2.354  -0.723   8.540  1.00  0.00    -0.225 NA
HETATM   22  H   UNL     1      -3.096  -1.332   8.133  1.00  0.00     0.136 HD
HETATM   23  H   UNL     1      -2.646   0.266   8.361  1.00  0.00     0.136 HD
ENDBRANCH  18  21
ENDBRANCH  15  18
ENDBRANCH   9  12
ENDBRANCH   7   8
ENDBRANCH   1   7
BRANCH   6  24
HETATM   24  C   UNL     1       1.405  -1.074  -2.900  1.00  0.00     0.289 C 
BRANCH  24  25
HETATM   25  C   UNL     1       2.461  -0.313  -2.114  1.00  0.00    -0.021 A 
HETATM   26  C   UNL     1       2.104   0.621  -1.119  1.00  0.00     0.010 A 
HETATM   27  C   UNL     1       3.090   1.331  -0.431  1.00  0.00     0.001 A 
HETATM   28  C   UNL     1       4.438   1.134  -0.737  1.00  0.00     0.000 A 
HETATM   29  C   UNL     1       4.804   0.228  -1.736  1.00  0.00     0.001 A 
HETATM   30  C   UNL     1       3.822  -0.490  -2.423  1.00  0.00     0.010 A 
ENDBRANCH  24  25
BRANCH  24  31
HETATM   31  C   UNL     1       1.063  -0.257  -4.137  1.00  0.00    -0.021 A 
HETATM   32  C   UNL     1       0.388   0.972  -4.029  1.00  0.00     0.010 A 
HETATM   33  C   UNL     1       0.060   1.706  -5.172  1.00  0.00     0.001 A 
HETATM   34  C   UNL     1       0.408   1.223  -6.435  1.00  0.00     0.000 A 
HETATM   35  C   UNL     1       1.094   0.007  -6.557  1.00  0.00     0.001 A 
HETATM   36  C   UNL     1       1.420  -0.730  -5.415  1.00  0.00     0.010 A 
ENDBRANCH  24  31
ENDBRANCH   6  24
TORSDOF 8
