MODEL 1
REMARK VINA RESULT:   -10.577      0.000      0.000
REMARK INTER + INTRA:         -13.793
REMARK INTER:                 -13.668
REMARK INTRA:                  -0.125
REMARK UNBOUND:                -0.125
REMARK  5 active torsions:
REMARK  status: ('A' for Active; 'I' for Inactive)
REMARK    1  A    between atoms: C_1  and  C_16 
REMARK    2  A    between atoms: C_2  and  C_15 
REMARK    3  A    between atoms: C_10  and  C_12 
REMARK    4  A    between atoms: C_13  and  C_15 
REMARK    5  A    between atoms: C_16  and  O_26 
ROOT
HETATM    1  C   UNL     1     -33.499   3.832   1.604  1.00  0.00     0.177 C 
HETATM    2  C   UNL     1     -30.021   3.646   0.905  1.00  0.00     0.083 A 
HETATM    3  C   UNL     1     -30.393   2.360   0.509  1.00  0.00    -0.007 A 
HETATM    4  C   UNL     1     -31.738   2.291   0.692  1.00  0.00     0.119 A 
HETATM    5  N   UNL     1     -32.143   3.479   1.193  1.00  0.00    -0.307 N 
HETATM    6  N   UNL     1     -31.064   4.307   1.349  1.00  0.00    -0.297 N 
ATOM      7  HN  UNL     1     -31.069   5.252   1.734  1.00  0.00     0.187 HD
ENDROOT
BRANCH   3   8
HETATM    8  C   UNL     1     -29.498   1.252  -0.095  1.00  0.00     0.077 C 
BRANCH   8   9
HETATM    9  C   UNL     1     -29.094   0.263   0.967  1.00  0.00    -0.063 A 
HETATM   10  C   UNL     1     -28.059   0.650   1.958  1.00  0.00     0.035 A 
HETATM   11  C   UNL     1     -27.690  -0.319   3.035  1.00  0.00     0.005 A 
HETATM   12  C   UNL     1     -28.355  -1.632   3.146  1.00  0.00     0.005 A 
HETATM   13  C   UNL     1     -29.395  -2.022   2.198  1.00  0.00     0.045 A 
HETATM   14  C   UNL     1     -29.761  -1.062   1.109  1.00  0.00     0.020 A 
BRANCH  14  15
HETATM   15  C   UNL     1     -30.772  -1.560   0.138  1.00  0.00     0.289 C 
HETATM   16  O   UNL     1     -31.389  -0.808  -0.468  1.00  0.00    -0.260 OA
BRANCH  15  17
HETATM   17  O   UNL     1     -30.858  -2.963  -0.020  1.00  0.00    -0.323 OA
HETATM   18  C   UNL     1     -32.051  -3.439  -0.592  1.00  0.00     0.213 C 
ENDBRANCH  15  17
ENDBRANCH  14  15
ENDBRANCH   8   9
ENDBRANCH   3   8
BRANCH   2  19
HETATM   19  C   UNL     1     -28.660   4.276   0.930  1.00  0.00     0.066 A 
HETATM   20  N   UNL     1     -27.535   3.627   0.441  1.00  0.00    -0.328 N 
HETATM   21  C   UNL     1     -26.248   4.218   0.525  1.00  0.00     0.194 A 
ATOM     22  HN  UNL     1     -27.635   2.707   0.012  1.00  0.00     0.168 HD
HETATM   23  N   UNL     1     -26.087   5.475   1.122  1.00  0.00    -0.321 N 
HETATM   24  N   UNL     1     -25.077   3.597   0.050  1.00  0.00    -0.063 NA
HETATM   25  C   UNL     1     -27.213   6.045   1.638  1.00  0.00     0.107 A 
ATOM     26  HN  UNL     1     -25.179   5.937   1.168  1.00  0.00     0.169 HD
HETATM   27  C   UNL     1     -28.503   5.539   1.560  1.00  0.00     0.074 A 
HETATM   28 CL   UNL     1     -27.056   7.645   2.325  1.00  0.00    -0.064 Cl
ENDBRANCH   2  19
TORSDOF 5
ENDMDL
MODEL 2
REMARK VINA RESULT:   -10.232      1.674      2.781
REMARK INTER + INTRA:         -13.348
REMARK INTER:                 -12.723
REMARK INTRA:                  -0.624
REMARK UNBOUND:                -0.125
REMARK  5 active torsions:
REMARK  status: ('A' for Active; 'I' for Inactive)
REMARK    1  A    between atoms: C_1  and  C_16 
REMARK    2  A    between atoms: C_2  and  C_15 
REMARK    3  A    between atoms: C_10  and  C_12 
REMARK    4  A    between atoms: C_13  and  C_15 
REMARK    5  A    between atoms: C_16  and  O_26 
ROOT
HETATM    1  C   UNL     1     -33.433   3.867   1.626  1.00  0.00     0.177 C 
HETATM    2  C   UNL     1     -29.962   3.703   0.892  1.00  0.00     0.083 A 
HETATM    3  C   UNL     1     -30.340   2.436   0.445  1.00  0.00    -0.007 A 
HETATM    4  C   UNL     1     -31.683   2.363   0.636  1.00  0.00     0.119 A 
HETATM    5  N   UNL     1     -32.082   3.529   1.190  1.00  0.00    -0.307 N 
HETATM    6  N   UNL     1     -31.000   4.347   1.372  1.00  0.00    -0.297 N 
ATOM      7  HN  UNL     1     -30.999   5.274   1.797  1.00  0.00     0.187 HD
ENDROOT
BRANCH   3   8
HETATM    8  C   UNL     1     -29.452   1.352  -0.212  1.00  0.00     0.077 C 
BRANCH   8   9
HETATM    9  C   UNL     1     -29.640   0.027   0.478  1.00  0.00    -0.063 A 
HETATM   10  C   UNL     1     -30.657  -0.920  -0.043  1.00  0.00     0.035 A 
HETATM   11  C   UNL     1     -30.813  -2.252   0.619  1.00  0.00     0.005 A 
HETATM   12  C   UNL     1     -29.957  -2.649   1.754  1.00  0.00     0.005 A 
HETATM   13  C   UNL     1     -28.932  -1.743   2.266  1.00  0.00     0.045 A 
HETATM   14  C   UNL     1     -28.779  -0.402   1.616  1.00  0.00     0.020 A 
BRANCH  14  15
HETATM   15  C   UNL     1     -27.769   0.494   2.240  1.00  0.00     0.289 C 
HETATM   16  O   UNL     1     -27.045   1.078   1.571  1.00  0.00    -0.260 OA
BRANCH  15  17
HETATM   17  O   UNL     1     -27.815   0.612   3.650  1.00  0.00    -0.323 OA
HETATM   18  C   UNL     1     -26.613   1.001   4.267  1.00  0.00     0.213 C 
ENDBRANCH  15  17
ENDBRANCH  14  15
ENDBRANCH   8   9
ENDBRANCH   3   8
BRANCH   2  19
HETATM   19  C   UNL     1     -28.599   4.328   0.934  1.00  0.00     0.066 A 
HETATM   20  N   UNL     1     -27.472   3.679   0.448  1.00  0.00    -0.328 N 
HETATM   21  C   UNL     1     -26.183   4.265   0.548  1.00  0.00     0.194 A 
ATOM     22  HN  UNL     1     -27.572   2.763   0.011  1.00  0.00     0.168 HD
HETATM   23  N   UNL     1     -26.023   5.516   1.157  1.00  0.00    -0.321 N 
HETATM   24  N   UNL     1     -25.011   3.645   0.077  1.00  0.00    -0.063 NA
HETATM   25  C   UNL     1     -27.152   6.086   1.669  1.00  0.00     0.107 A 
ATOM     26  HN  UNL     1     -25.114   5.975   1.215  1.00  0.00     0.169 HD
HETATM   27  C   UNL     1     -28.443   5.584   1.576  1.00  0.00     0.074 A 
HETATM   28 CL   UNL     1     -26.995   7.679   2.371  1.00  0.00    -0.064 Cl
ENDBRANCH   2  19
TORSDOF 5
ENDMDL
MODEL 3
REMARK VINA RESULT:    -9.342      2.072      3.127
REMARK INTER + INTRA:         -12.198
REMARK INTER:                 -11.900
REMARK INTRA:                  -0.297
REMARK UNBOUND:                -0.125
REMARK  5 active torsions:
REMARK  status: ('A' for Active; 'I' for Inactive)
REMARK    1  A    between atoms: C_1  and  C_16 
REMARK    2  A    between atoms: C_2  and  C_15 
REMARK    3  A    between atoms: C_10  and  C_12 
REMARK    4  A    between atoms: C_13  and  C_15 
REMARK    5  A    between atoms: C_16  and  O_26 
ROOT
HETATM    1  C   UNL     1     -33.440   3.960   1.653  1.00  0.00     0.177 C 
HETATM    2  C   UNL     1     -29.933   3.905   1.096  1.00  0.00     0.083 A 
HETATM    3  C   UNL     1     -30.248   2.630   0.626  1.00  0.00    -0.007 A 
HETATM    4  C   UNL     1     -31.597   2.514   0.748  1.00  0.00     0.119 A 
HETATM    5  N   UNL     1     -32.059   3.666   1.285  1.00  0.00    -0.307 N 
HETATM    6  N   UNL     1     -31.013   4.515   1.525  1.00  0.00    -0.297 N 
ATOM      7  HN  UNL     1     -31.063   5.440   1.952  1.00  0.00     0.187 HD
ENDROOT
BRANCH   3   8
HETATM    8  C   UNL     1     -29.296   1.577   0.012  1.00  0.00     0.077 C 
BRANCH   8   9
HETATM    9  C   UNL     1     -29.717   0.187   0.412  1.00  0.00    -0.063 A 
HETATM   10  C   UNL     1     -30.700  -0.540  -0.431  1.00  0.00     0.035 A 
HETATM   11  C   UNL     1     -31.084  -1.935  -0.054  1.00  0.00     0.005 A 
HETATM   12  C   UNL     1     -30.484  -2.606   1.115  1.00  0.00     0.005 A 
HETATM   13  C   UNL     1     -29.495  -1.919   1.942  1.00  0.00     0.045 A 
HETATM   14  C   UNL     1     -29.115  -0.517   1.578  1.00  0.00     0.020 A 
BRANCH  14  15
HETATM   15  C   UNL     1     -28.161   0.143   2.510  1.00  0.00     0.289 C 
HETATM   16  O   UNL     1     -28.565   0.725   3.410  1.00  0.00    -0.260 OA
BRANCH  15  17
HETATM   17  O   UNL     1     -26.784  -0.052   2.246  1.00  0.00    -0.323 OA
HETATM   18  C   UNL     1     -26.247  -1.272   2.695  1.00  0.00     0.213 C 
ENDBRANCH  15  17
ENDBRANCH  14  15
ENDBRANCH   8   9
ENDBRANCH   3   8
BRANCH   2  19
HETATM   19  C   UNL     1     -28.593   4.572   1.208  1.00  0.00     0.066 A 
HETATM   20  N   UNL     1     -28.441   5.838   1.755  1.00  0.00    -0.328 N 
HETATM   21  C   UNL     1     -27.173   6.474   1.800  1.00  0.00     0.194 A 
ATOM     22  HN  UNL     1     -29.256   6.322   2.131  1.00  0.00     0.168 HD
HETATM   23  N   UNL     1     -26.043   5.832   1.276  1.00  0.00    -0.321 N 
HETATM   24  N   UNL     1     -26.968   7.758   2.337  1.00  0.00    -0.063 NA
HETATM   25  C   UNL     1     -26.256   4.615   0.699  1.00  0.00     0.107 A 
ATOM     26  HN  UNL     1     -25.115   6.252   1.323  1.00  0.00     0.169 HD
HETATM   27  C   UNL     1     -27.459   3.925   0.651  1.00  0.00     0.074 A 
HETATM   28 CL   UNL     1     -24.854   3.759   0.100  1.00  0.00    -0.064 Cl
ENDBRANCH   2  19
TORSDOF 5
ENDMDL
MODEL 4
REMARK VINA RESULT:    -8.759      2.965      5.467
REMARK INTER + INTRA:         -11.444
REMARK INTER:                 -10.712
REMARK INTRA:                  -0.733
REMARK UNBOUND:                -0.125
REMARK  5 active torsions:
REMARK  status: ('A' for Active; 'I' for Inactive)
REMARK    1  A    between atoms: C_1  and  C_16 
REMARK    2  A    between atoms: C_2  and  C_15 
REMARK    3  A    between atoms: C_10  and  C_12 
REMARK    4  A    between atoms: C_13  and  C_15 
REMARK    5  A    between atoms: C_16  and  O_26 
ROOT
HETATM    1  C   UNL     1     -30.651  -3.124   0.993  1.00  0.00     0.177 C 
HETATM    2  C   UNL     1     -29.070   0.054   1.128  1.00  0.00     0.083 A 
HETATM    3  C   UNL     1     -30.031   0.329   0.154  1.00  0.00    -0.007 A 
HETATM    4  C   UNL     1     -30.753  -0.813   0.014  1.00  0.00     0.119 A 
HETATM    5  N   UNL     1     -30.231  -1.733   0.856  1.00  0.00    -0.307 N 
HETATM    6  N   UNL     1     -29.166  -1.193   1.526  1.00  0.00    -0.297 N 
ATOM      7  HN  UNL     1     -28.565  -1.667   2.200  1.00  0.00     0.187 HD
ENDROOT
BRANCH   3   8
HETATM    8  C   UNL     1     -30.296   1.669  -0.572  1.00  0.00     0.077 C 
BRANCH   8   9
HETATM    9  C   UNL     1     -31.277   2.507   0.206  1.00  0.00    -0.063 A 
HETATM   10  C   UNL     1     -32.681   2.039   0.334  1.00  0.00     0.035 A 
HETATM   11  C   UNL     1     -33.643   2.852   1.141  1.00  0.00     0.005 A 
HETATM   12  C   UNL     1     -33.215   4.085   1.831  1.00  0.00     0.005 A 
HETATM   13  C   UNL     1     -31.832   4.548   1.739  1.00  0.00     0.045 A 
HETATM   14  C   UNL     1     -30.867   3.746   0.922  1.00  0.00     0.020 A 
BRANCH  14  15
HETATM   15  C   UNL     1     -29.499   4.320   0.814  1.00  0.00     0.289 C 
HETATM   16  O   UNL     1     -28.871   4.106  -0.120  1.00  0.00    -0.260 OA
BRANCH  15  17
HETATM   17  O   UNL     1     -29.083   5.165   1.870  1.00  0.00    -0.323 OA
HETATM   18  C   UNL     1     -27.973   5.983   1.593  1.00  0.00     0.213 C 
ENDBRANCH  15  17
ENDBRANCH  14  15
ENDBRANCH   8   9
ENDBRANCH   3   8
BRANCH   2  19
HETATM   19  C   UNL     1     -27.993   0.942   1.678  1.00  0.00     0.066 A 
HETATM   20  N   UNL     1     -27.301   1.845   0.883  1.00  0.00    -0.328 N 
HETATM   21  C   UNL     1     -26.247   2.635   1.412  1.00  0.00     0.194 A 
ATOM     22  HN  UNL     1     -27.554   1.942  -0.100  1.00  0.00     0.168 HD
HETATM   23  N   UNL     1     -25.875   2.506   2.756  1.00  0.00    -0.321 N 
HETATM   24  N   UNL     1     -25.512   3.559   0.645  1.00  0.00    -0.063 NA
HETATM   25  C   UNL     1     -26.547   1.566   3.479  1.00  0.00     0.107 A 
ATOM     26  HN  UNL     1     -25.143   3.084   3.170  1.00  0.00     0.169 HD
HETATM   27  C   UNL     1     -27.606   0.786   3.035  1.00  0.00     0.074 A 
HETATM   28 CL   UNL     1     -26.153   1.432   5.178  1.00  0.00    -0.064 Cl
ENDBRANCH   2  19
TORSDOF 5
ENDMDL
MODEL 5
REMARK VINA RESULT:    -8.591      4.707      8.040
REMARK INTER + INTRA:         -11.227
REMARK INTER:                 -11.010
REMARK INTRA:                  -0.217
REMARK UNBOUND:                -0.125
REMARK  5 active torsions:
REMARK  status: ('A' for Active; 'I' for Inactive)
REMARK    1  A    between atoms: C_1  and  C_16 
REMARK    2  A    between atoms: C_2  and  C_15 
REMARK    3  A    between atoms: C_10  and  C_12 
REMARK    4  A    between atoms: C_13  and  C_15 
REMARK    5  A    between atoms: C_16  and  O_26 
ROOT
HETATM    1  C   UNL     1     -28.839  -2.245   3.319  1.00  0.00     0.177 C 
HETATM    2  C   UNL     1     -31.046  -2.193   0.537  1.00  0.00     0.083 A 
HETATM    3  C   UNL     1     -30.483  -0.925   0.393  1.00  0.00    -0.007 A 
HETATM    4  C   UNL     1     -29.571  -0.809   1.393  1.00  0.00     0.119 A 
HETATM    5  N   UNL     1     -29.605  -1.954   2.112  1.00  0.00    -0.307 N 
HETATM    6  N   UNL     1     -30.546  -2.799   1.588  1.00  0.00    -0.297 N 
ATOM      7  HN  UNL     1     -30.807  -3.718   1.945  1.00  0.00     0.187 HD
ENDROOT
BRANCH   3   8
HETATM    8  C   UNL     1     -30.760   0.121  -0.713  1.00  0.00     0.077 C 
BRANCH   8   9
HETATM    9  C   UNL     1     -31.096   1.457  -0.104  1.00  0.00    -0.063 A 
HETATM   10  C   UNL     1     -32.522   1.842   0.047  1.00  0.00     0.035 A 
HETATM   11  C   UNL     1     -32.854   3.151   0.689  1.00  0.00     0.005 A 
HETATM   12  C   UNL     1     -31.796   4.046   1.198  1.00  0.00     0.005 A 
HETATM   13  C   UNL     1     -30.388   3.675   1.083  1.00  0.00     0.045 A 
HETATM   14  C   UNL     1     -30.048   2.371   0.429  1.00  0.00     0.020 A 
BRANCH  14  15
HETATM   15  C   UNL     1     -28.593   2.097   0.280  1.00  0.00     0.289 C 
HETATM   16  O   UNL     1     -28.192   1.714  -0.723  1.00  0.00    -0.260 OA
BRANCH  15  17
HETATM   17  O   UNL     1     -27.777   2.397   1.397  1.00  0.00    -0.323 OA
HETATM   18  C   UNL     1     -26.643   3.185   1.126  1.00  0.00     0.213 C 
ENDBRANCH  15  17
ENDBRANCH  14  15
ENDBRANCH   8   9
ENDBRANCH   3   8
BRANCH   2  19
HETATM   19  C   UNL     1     -32.115  -2.857  -0.280  1.00  0.00     0.066 A 
HETATM   20  N   UNL     1     -33.450  -2.849   0.101  1.00  0.00    -0.328 N 
HETATM   21  C   UNL     1     -34.437  -3.531  -0.657  1.00  0.00     0.194 A 
ATOM     22  HN  UNL     1     -33.726  -2.344   0.943  1.00  0.00     0.168 HD
HETATM   23  N   UNL     1     -34.075  -4.243  -1.807  1.00  0.00    -0.321 N 
HETATM   24  N   UNL     1     -35.800  -3.558  -0.308  1.00  0.00    -0.063 NA
HETATM   25  C   UNL     1     -32.745  -4.268  -2.107  1.00  0.00     0.107 A 
ATOM     26  HN  UNL     1     -34.768  -4.716  -2.388  1.00  0.00     0.169 HD
HETATM   27  C   UNL     1     -31.735  -3.597  -1.430  1.00  0.00     0.074 A 
HETATM   28 CL   UNL     1     -32.272  -5.087  -3.577  1.00  0.00    -0.064 Cl
ENDBRANCH   2  19
TORSDOF 5
ENDMDL
MODEL 6
REMARK VINA RESULT:    -7.806      1.831      2.064
REMARK INTER + INTRA:         -10.213
REMARK INTER:                 -10.292
REMARK INTRA:                   0.079
REMARK UNBOUND:                -0.125
REMARK  5 active torsions:
REMARK  status: ('A' for Active; 'I' for Inactive)
REMARK    1  A    between atoms: C_1  and  C_16 
REMARK    2  A    between atoms: C_2  and  C_15 
REMARK    3  A    between atoms: C_10  and  C_12 
REMARK    4  A    between atoms: C_13  and  C_15 
REMARK    5  A    between atoms: C_16  and  O_26 
ROOT
HETATM    1  C   UNL     1     -33.322   4.060   1.236  1.00  0.00     0.177 C 
HETATM    2  C   UNL     1     -30.048   2.713   0.942  1.00  0.00     0.083 A 
HETATM    3  C   UNL     1     -30.750   1.737   0.235  1.00  0.00    -0.007 A 
HETATM    4  C   UNL     1     -32.047   2.142   0.233  1.00  0.00     0.119 A 
HETATM    5  N   UNL     1     -32.114   3.301   0.927  1.00  0.00    -0.307 N 
HETATM    6  N   UNL     1     -30.869   3.635   1.388  1.00  0.00    -0.297 N 
ATOM      7  HN  UNL     1     -30.628   4.440   1.965  1.00  0.00     0.187 HD
ENDROOT
BRANCH   3   8
HETATM    8  C   UNL     1     -30.186   0.487  -0.480  1.00  0.00     0.077 C 
BRANCH   8   9
HETATM    9  C   UNL     1     -29.862  -0.593   0.519  1.00  0.00    -0.063 A 
HETATM   10  C   UNL     1     -28.685  -0.423   1.408  1.00  0.00     0.035 A 
HETATM   11  C   UNL     1     -28.390  -1.477   2.427  1.00  0.00     0.005 A 
HETATM   12  C   UNL     1     -29.261  -2.658   2.582  1.00  0.00     0.005 A 
HETATM   13  C   UNL     1     -30.439  -2.832   1.736  1.00  0.00     0.045 A 
HETATM   14  C   UNL     1     -30.733  -1.787   0.705  1.00  0.00     0.020 A 
BRANCH  14  15
HETATM   15  C   UNL     1     -31.903  -2.070  -0.169  1.00  0.00     0.289 C 
HETATM   16  O   UNL     1     -32.839  -1.415  -0.087  1.00  0.00    -0.260 OA
BRANCH  15  17
HETATM   17  O   UNL     1     -31.749  -3.116  -1.110  1.00  0.00    -0.323 OA
HETATM   18  C   UNL     1     -32.894  -3.900  -1.340  1.00  0.00     0.213 C 
ENDBRANCH  15  17
ENDBRANCH  14  15
ENDBRANCH   8   9
ENDBRANCH   3   8
BRANCH   2  19
HETATM   19  C   UNL     1     -28.585   2.783   1.269  1.00  0.00     0.066 A 
HETATM   20  N   UNL     1     -27.667   3.395   0.428  1.00  0.00    -0.328 N 
HETATM   21  C   UNL     1     -26.280   3.401   0.729  1.00  0.00     0.194 A 
ATOM     22  HN  UNL     1     -27.996   3.851  -0.424  1.00  0.00     0.168 HD
HETATM   23  N   UNL     1     -25.808   2.768   1.886  1.00  0.00    -0.321 N 
HETATM   24  N   UNL     1     -25.311   4.002  -0.095  1.00  0.00    -0.063 NA
HETATM   25  C   UNL     1     -26.742   2.132   2.649  1.00  0.00     0.107 A 
ATOM     26  HN  UNL     1     -24.821   2.783   2.143  1.00  0.00     0.169 HD
HETATM   27  C   UNL     1     -28.112   2.117   2.431  1.00  0.00     0.074 A 
HETATM   28 CL   UNL     1     -26.192   1.396   4.136  1.00  0.00    -0.064 Cl
ENDBRANCH   2  19
TORSDOF 5
ENDMDL
MODEL 7
REMARK VINA RESULT:    -7.782      4.003      6.916
REMARK INTER + INTRA:         -10.182
REMARK INTER:                 -10.282
REMARK INTRA:                   0.100
REMARK UNBOUND:                -0.125
REMARK  5 active torsions:
REMARK  status: ('A' for Active; 'I' for Inactive)
REMARK    1  A    between atoms: C_1  and  C_16 
REMARK    2  A    between atoms: C_2  and  C_15 
REMARK    3  A    between atoms: C_10  and  C_12 
REMARK    4  A    between atoms: C_13  and  C_15 
REMARK    5  A    between atoms: C_16  and  O_26 
ROOT
HETATM    1  C   UNL     1     -25.249   2.842   2.571  1.00  0.00     0.177 C 
HETATM    2  C   UNL     1     -28.041   0.848   1.652  1.00  0.00     0.083 A 
HETATM    3  C   UNL     1     -28.239   1.917   0.777  1.00  0.00    -0.007 A 
HETATM    4  C   UNL     1     -27.202   2.769   0.994  1.00  0.00     0.119 A 
HETATM    5  N   UNL     1     -26.433   2.237   1.970  1.00  0.00    -0.307 N 
HETATM    6  N   UNL     1     -26.978   1.054   2.394  1.00  0.00    -0.297 N 
ATOM      7  HN  UNL     1     -26.627   0.452   3.139  1.00  0.00     0.187 HD
ENDROOT
BRANCH   3   8
HETATM    8  C   UNL     1     -29.349   2.086  -0.287  1.00  0.00     0.077 C 
BRANCH   8   9
HETATM    9  C   UNL     1     -30.576   2.709   0.325  1.00  0.00    -0.063 A 
HETATM   10  C   UNL     1     -31.823   1.907   0.415  1.00  0.00     0.035 A 
HETATM   11  C   UNL     1     -33.028   2.514   1.059  1.00  0.00     0.005 A 
HETATM   12  C   UNL     1     -32.989   3.875   1.630  1.00  0.00     0.005 A 
HETATM   13  C   UNL     1     -31.765   4.671   1.575  1.00  0.00     0.045 A 
HETATM   14  C   UNL     1     -30.558   4.074   0.919  1.00  0.00     0.020 A 
BRANCH  14  15
HETATM   15  C   UNL     1     -29.375   4.971   0.834  1.00  0.00     0.289 C 
HETATM   16  O   UNL     1     -28.917   5.204  -0.191  1.00  0.00    -0.260 OA
BRANCH  15  17
HETATM   17  O   UNL     1     -28.925   5.540   2.049  1.00  0.00    -0.323 OA
HETATM   18  C   UNL     1     -27.759   6.322   1.959  1.00  0.00     0.213 C 
ENDBRANCH  15  17
ENDBRANCH  14  15
ENDBRANCH   8   9
ENDBRANCH   3   8
BRANCH   2  19
HETATM   19  C   UNL     1     -28.880  -0.379   1.858  1.00  0.00     0.066 A 
HETATM   20  N   UNL     1     -28.908  -1.061   3.067  1.00  0.00    -0.328 N 
HETATM   21  C   UNL     1     -29.664  -2.252   3.223  1.00  0.00     0.194 A 
ATOM     22  HN  UNL     1     -28.375  -0.700   3.857  1.00  0.00     0.168 HD
HETATM   23  N   UNL     1     -30.392  -2.772   2.145  1.00  0.00    -0.321 N 
HETATM   24  N   UNL     1     -29.720  -2.982   4.424  1.00  0.00    -0.063 NA
HETATM   25  C   UNL     1     -30.285  -2.097   0.965  1.00  0.00     0.107 A 
ATOM     26  HN  UNL     1     -30.968  -3.608   2.237  1.00  0.00     0.169 HD
HETATM   27  C   UNL     1     -29.593  -0.912   0.752  1.00  0.00     0.074 A 
HETATM   28 CL   UNL     1     -31.238  -2.681  -0.380  1.00  0.00    -0.064 Cl
ENDBRANCH   2  19
TORSDOF 5
ENDMDL
MODEL 8
REMARK VINA RESULT:    -7.599      4.689      7.883
REMARK INTER + INTRA:          -9.946
REMARK INTER:                  -9.840
REMARK INTRA:                  -0.105
REMARK UNBOUND:                -0.125
REMARK  5 active torsions:
REMARK  status: ('A' for Active; 'I' for Inactive)
REMARK    1  A    between atoms: C_1  and  C_16 
REMARK    2  A    between atoms: C_2  and  C_15 
REMARK    3  A    between atoms: C_10  and  C_12 
REMARK    4  A    between atoms: C_13  and  C_15 
REMARK    5  A    between atoms: C_16  and  O_26 
ROOT
HETATM    1  C   UNL     1     -28.958  -2.471   3.491  1.00  0.00     0.177 C 
HETATM    2  C   UNL     1     -31.070  -2.279   0.641  1.00  0.00     0.083 A 
HETATM    3  C   UNL     1     -30.468  -1.023   0.552  1.00  0.00    -0.007 A 
HETATM    4  C   UNL     1     -29.587  -0.961   1.584  1.00  0.00     0.119 A 
HETATM    5  N   UNL     1     -29.676  -2.124   2.268  1.00  0.00    -0.307 N 
HETATM    6  N   UNL     1     -30.621  -2.928   1.690  1.00  0.00    -0.297 N 
ATOM      7  HN  UNL     1     -30.919  -3.849   2.011  1.00  0.00     0.187 HD
ENDROOT
BRANCH   3   8
HETATM    8  C   UNL     1     -30.679   0.061  -0.532  1.00  0.00     0.077 C 
BRANCH   8   9
HETATM    9  C   UNL     1     -30.018   1.352  -0.123  1.00  0.00    -0.063 A 
HETATM   10  C   UNL     1     -28.547   1.487  -0.272  1.00  0.00     0.035 A 
HETATM   11  C   UNL     1     -27.899   2.783   0.096  1.00  0.00     0.005 A 
HETATM   12  C   UNL     1     -28.697   3.931   0.571  1.00  0.00     0.005 A 
HETATM   13  C   UNL     1     -30.148   3.828   0.699  1.00  0.00     0.045 A 
HETATM   14  C   UNL     1     -30.802   2.528   0.345  1.00  0.00     0.020 A 
BRANCH  14  15
HETATM   15  C   UNL     1     -32.271   2.475   0.573  1.00  0.00     0.289 C 
HETATM   16  O   UNL     1     -32.943   1.961  -0.200  1.00  0.00    -0.260 OA
BRANCH  15  17
HETATM   17  O   UNL     1     -32.740   3.021   1.791  1.00  0.00    -0.323 OA
HETATM   18  C   UNL     1     -33.288   4.314   1.706  1.00  0.00     0.213 C 
ENDBRANCH  15  17
ENDBRANCH  14  15
ENDBRANCH   8   9
ENDBRANCH   3   8
BRANCH   2  19
HETATM   19  C   UNL     1     -32.129  -2.889  -0.229  1.00  0.00     0.066 A 
HETATM   20  N   UNL     1     -33.471  -2.881   0.124  1.00  0.00    -0.328 N 
HETATM   21  C   UNL     1     -34.450  -3.513  -0.686  1.00  0.00     0.194 A 
ATOM     22  HN  UNL     1     -33.760  -2.413   0.983  1.00  0.00     0.168 HD
HETATM   23  N   UNL     1     -34.073  -4.175  -1.861  1.00  0.00    -0.321 N 
HETATM   24  N   UNL     1     -35.821  -3.539  -0.367  1.00  0.00    -0.063 NA
HETATM   25  C   UNL     1     -32.737  -4.203  -2.134  1.00  0.00     0.107 A 
ATOM     26  HN  UNL     1     -34.758  -4.610  -2.479  1.00  0.00     0.169 HD
HETATM   27  C   UNL     1     -31.734  -3.579  -1.405  1.00  0.00     0.074 A 
HETATM   28 CL   UNL     1     -32.242  -4.958  -3.631  1.00  0.00    -0.064 Cl
ENDBRANCH   2  19
TORSDOF 5
ENDMDL
