MODEL 1
REMARK VINA RESULT:    -5.178      0.000      0.000
REMARK INTER + INTRA:          -5.784
REMARK INTER:                  -5.784
REMARK INTRA:                   0.000
REMARK UNBOUND:                 0.000
REMARK  4 active torsions:
REMARK  status: ('A' for Active; 'I' for Inactive)
REMARK    1  A    between atoms: C_1  and  O_6 
REMARK    2  A    between atoms: C_2  and  O_8 
REMARK    3  A    between atoms: C_3  and  O_10 
REMARK    4  A    between atoms: C_4  and  O_12 
ROOT
HETATM    1  C   UNL     1      23.275  -0.611  71.245  1.00  0.00     0.288 C 
HETATM    2  C   UNL     1      22.713   0.385  70.265  1.00  0.00     0.204 C 
HETATM    3  C   UNL     1      21.245   0.282  70.144  1.00  0.00     0.182 C 
HETATM    4  C   UNL     1      20.855  -1.128  69.802  1.00  0.00     0.173 C 
HETATM    5  C   UNL     1      21.489  -2.124  70.772  1.00  0.00     0.205 C 
HETATM    6  O   UNL     1      22.920  -1.965  70.813  1.00  0.00    -0.356 OA
ENDROOT
BRANCH   1   7
HETATM    7  O   UNL     1      24.630  -0.552  71.231  1.00  0.00    -0.369 OA
ATOM      8  HO  UNL     1      24.980  -1.331  70.814  1.00  0.00     0.212 HD
ENDBRANCH   1   7
BRANCH   2   9
HETATM    9  O   UNL     1      23.132   1.690  70.644  1.00  0.00    -0.388 OA
ATOM     10  HO  UNL     1      24.069   1.765  70.506  1.00  0.00     0.210 HD
ENDBRANCH   2   9
BRANCH   3  11
HETATM   11  O   UNL     1      20.751   1.229  69.134  1.00  0.00    -0.390 OA
ATOM     12  HO  UNL     1      20.970   0.922  68.262  1.00  0.00     0.210 HD
ENDBRANCH   3  11
BRANCH   4  13
HETATM   13  O   UNL     1      21.167  -1.414  68.438  1.00  0.00    -0.391 OA
ATOM     14  HO  UNL     1      21.795  -0.784  68.104  1.00  0.00     0.210 HD
ENDBRANCH   4  13
TORSDOF 4
ENDMDL
MODEL 2
REMARK VINA RESULT:    -5.101      1.461      3.006
REMARK INTER + INTRA:          -5.697
REMARK INTER:                  -5.697
REMARK INTRA:                   0.000
REMARK UNBOUND:                 0.000
REMARK  4 active torsions:
REMARK  status: ('A' for Active; 'I' for Inactive)
REMARK    1  A    between atoms: C_1  and  O_6 
REMARK    2  A    between atoms: C_2  and  O_8 
REMARK    3  A    between atoms: C_3  and  O_10 
REMARK    4  A    between atoms: C_4  and  O_12 
ROOT
HETATM    1  C   UNL     1      22.716  -2.578  71.188  1.00  0.00     0.288 C 
HETATM    2  C   UNL     1      23.925  -1.679  71.223  1.00  0.00     0.204 C 
HETATM    3  C   UNL     1      23.566  -0.269  71.476  1.00  0.00     0.182 C 
HETATM    4  C   UNL     1      22.548   0.191  70.471  1.00  0.00     0.173 C 
HETATM    5  C   UNL     1      21.363  -0.771  70.408  1.00  0.00     0.205 C 
HETATM    6  O   UNL     1      21.803  -2.116  70.139  1.00  0.00    -0.356 OA
ENDROOT
BRANCH   1   7
HETATM    7  O   UNL     1      23.090  -3.834  70.838  1.00  0.00    -0.369 OA
ATOM      8  HO  UNL     1      22.567  -4.131  70.103  1.00  0.00     0.212 HD
ENDBRANCH   1   7
BRANCH   2   9
HETATM    9  O   UNL     1      24.845  -2.182  72.184  1.00  0.00    -0.388 OA
ATOM     10  HO  UNL     1      25.711  -1.847  71.986  1.00  0.00     0.210 HD
ENDBRANCH   2   9
BRANCH   3  11
HETATM   11  O   UNL     1      24.768   0.575  71.441  1.00  0.00    -0.390 OA
ATOM     12  HO  UNL     1      24.849   0.995  70.592  1.00  0.00     0.210 HD
ENDBRANCH   3  11
BRANCH   4  13
HETATM   13  O   UNL     1      23.163   0.390  69.197  1.00  0.00    -0.391 OA
ATOM     14  HO  UNL     1      22.531   0.255  68.500  1.00  0.00     0.210 HD
ENDBRANCH   4  13
TORSDOF 4
ENDMDL
MODEL 3
REMARK VINA RESULT:    -4.958      1.580      3.354
REMARK INTER + INTRA:          -5.538
REMARK INTER:                  -5.538
REMARK INTRA:                   0.000
REMARK UNBOUND:                 0.000
REMARK  4 active torsions:
REMARK  status: ('A' for Active; 'I' for Inactive)
REMARK    1  A    between atoms: C_1  and  O_6 
REMARK    2  A    between atoms: C_2  and  O_8 
REMARK    3  A    between atoms: C_3  and  O_10 
REMARK    4  A    between atoms: C_4  and  O_12 
ROOT
HETATM    1  C   UNL     1      21.148   0.302  69.966  1.00  0.00     0.288 C 
HETATM    2  C   UNL     1      22.556   0.577  70.427  1.00  0.00     0.204 C 
HETATM    3  C   UNL     1      23.090  -0.510  71.271  1.00  0.00     0.182 C 
HETATM    4  C   UNL     1      22.159  -0.771  72.422  1.00  0.00     0.173 C 
HETATM    5  C   UNL     1      20.727  -0.984  71.934  1.00  0.00     0.205 C 
HETATM    6  O   UNL     1      20.283   0.130  71.136  1.00  0.00    -0.356 OA
ENDROOT
BRANCH   1   7
HETATM    7  O   UNL     1      20.667   1.378  69.294  1.00  0.00    -0.369 OA
ATOM      8  HO  UNL     1      21.104   2.165  69.597  1.00  0.00     0.212 HD
ENDBRANCH   1   7
BRANCH   2   9
HETATM    9  O   UNL     1      23.372   0.826  69.289  1.00  0.00    -0.388 OA
ATOM     10  HO  UNL     1      23.541   1.759  69.229  1.00  0.00     0.210 HD
ENDBRANCH   2   9
BRANCH   3  11
HETATM   11  O   UNL     1      24.438  -0.168  71.745  1.00  0.00    -0.390 OA
ATOM     12  HO  UNL     1      24.385   0.398  72.506  1.00  0.00     0.210 HD
ENDBRANCH   3  11
BRANCH   4  13
HETATM   13  O   UNL     1      22.261   0.274  73.390  1.00  0.00    -0.391 OA
ATOM     14  HO  UNL     1      21.437   0.742  73.459  1.00  0.00     0.210 HD
ENDBRANCH   4  13
TORSDOF 4
ENDMDL
MODEL 4
REMARK VINA RESULT:    -4.769      1.340      3.074
REMARK INTER + INTRA:          -5.327
REMARK INTER:                  -5.327
REMARK INTRA:                   0.000
REMARK UNBOUND:                 0.000
REMARK  4 active torsions:
REMARK  status: ('A' for Active; 'I' for Inactive)
REMARK    1  A    between atoms: C_1  and  O_6 
REMARK    2  A    between atoms: C_2  and  O_8 
REMARK    3  A    between atoms: C_3  and  O_10 
REMARK    4  A    between atoms: C_4  and  O_12 
ROOT
HETATM    1  C   UNL     1      22.703   0.449  70.317  1.00  0.00     0.288 C 
HETATM    2  C   UNL     1      23.539  -0.243  71.364  1.00  0.00     0.204 C 
HETATM    3  C   UNL     1      23.536  -1.711  71.200  1.00  0.00     0.182 C 
HETATM    4  C   UNL     1      22.124  -2.223  71.175  1.00  0.00     0.173 C 
HETATM    5  C   UNL     1      21.281  -1.463  70.152  1.00  0.00     0.205 C 
HETATM    6  O   UNL     1      21.326  -0.044  70.398  1.00  0.00    -0.356 OA
ENDROOT
BRANCH   1   7
HETATM    7  O   UNL     1      22.647   1.778  70.582  1.00  0.00    -0.369 OA
ATOM      8  HO  UNL     1      23.284   2.238  70.048  1.00  0.00     0.212 HD
ENDBRANCH   1   7
BRANCH   2   9
HETATM    9  O   UNL     1      24.853   0.300  71.335  1.00  0.00    -0.388 OA
ATOM     10  HO  UNL     1      24.938   0.938  72.034  1.00  0.00     0.210 HD
ENDBRANCH   2   9
BRANCH   3  11
HETATM   11  O   UNL     1      24.312  -2.343  72.276  1.00  0.00    -0.390 OA
ATOM     12  HO  UNL     1      25.190  -2.543  71.974  1.00  0.00     0.210 HD
ENDBRANCH   3  11
BRANCH   4  13
HETATM   13  O   UNL     1      21.559  -2.188  72.486  1.00  0.00    -0.391 OA
ATOM     14  HO  UNL     1      21.891  -1.441  72.969  1.00  0.00     0.210 HD
ENDBRANCH   4  13
TORSDOF 4
ENDMDL
MODEL 5
REMARK VINA RESULT:    -4.691      1.946      3.103
REMARK INTER + INTRA:          -5.239
REMARK INTER:                  -5.239
REMARK INTRA:                   0.000
REMARK UNBOUND:                 0.000
REMARK  4 active torsions:
REMARK  status: ('A' for Active; 'I' for Inactive)
REMARK    1  A    between atoms: C_1  and  O_6 
REMARK    2  A    between atoms: C_2  and  O_8 
REMARK    3  A    between atoms: C_3  and  O_10 
REMARK    4  A    between atoms: C_4  and  O_12 
ROOT
HETATM    1  C   UNL     1      21.461  -0.740  72.365  1.00  0.00     0.288 C 
HETATM    2  C   UNL     1      21.769   0.132  71.175  1.00  0.00     0.204 C 
HETATM    3  C   UNL     1      22.823  -0.447  70.316  1.00  0.00     0.182 C 
HETATM    4  C   UNL     1      24.049  -0.740  71.135  1.00  0.00     0.173 C 
HETATM    5  C   UNL     1      23.700  -1.571  72.369  1.00  0.00     0.205 C 
HETATM    6  O   UNL     1      22.680  -0.924  73.155  1.00  0.00    -0.356 OA
ENDROOT
BRANCH   1   7
HETATM    7  O   UNL     1      20.575  -0.110  73.176  1.00  0.00    -0.369 OA
ATOM      8  HO  UNL     1      19.877   0.269  72.655  1.00  0.00     0.212 HD
ENDBRANCH   1   7
BRANCH   2   9
HETATM    9  O   UNL     1      20.564   0.375  70.459  1.00  0.00    -0.388 OA
ATOM     10  HO  UNL     1      20.118   1.116  70.851  1.00  0.00     0.210 HD
ENDBRANCH   2   9
BRANCH   3  11
HETATM   11  O   UNL     1      23.130   0.465  69.207  1.00  0.00    -0.390 OA
ATOM     12  HO  UNL     1      22.804   1.337  69.398  1.00  0.00     0.210 HD
ENDBRANCH   3  11
BRANCH   4  13
HETATM   13  O   UNL     1      24.730   0.472  71.462  1.00  0.00    -0.391 OA
ATOM     14  HO  UNL     1      25.662   0.314  71.548  1.00  0.00     0.210 HD
ENDBRANCH   4  13
TORSDOF 4
ENDMDL
MODEL 6
REMARK VINA RESULT:    -4.586      1.279      3.041
REMARK INTER + INTRA:          -5.122
REMARK INTER:                  -5.122
REMARK INTRA:                   0.000
REMARK UNBOUND:                 0.000
REMARK  4 active torsions:
REMARK  status: ('A' for Active; 'I' for Inactive)
REMARK    1  A    between atoms: C_1  and  O_6 
REMARK    2  A    between atoms: C_2  and  O_8 
REMARK    3  A    between atoms: C_3  and  O_10 
REMARK    4  A    between atoms: C_4  and  O_12 
ROOT
HETATM    1  C   UNL     1      20.928  -1.108  69.587  1.00  0.00     0.288 C 
HETATM    2  C   UNL     1      21.341   0.319  69.841  1.00  0.00     0.204 C 
HETATM    3  C   UNL     1      22.739   0.422  70.305  1.00  0.00     0.182 C 
HETATM    4  C   UNL     1      22.946  -0.450  71.512  1.00  0.00     0.173 C 
HETATM    5  C   UNL     1      22.461  -1.876  71.250  1.00  0.00     0.205 C 
HETATM    6  O   UNL     1      21.086  -1.882  70.820  1.00  0.00    -0.356 OA
ENDROOT
BRANCH   1   7
HETATM    7  O   UNL     1      19.609  -1.155  69.276  1.00  0.00    -0.369 OA
ATOM      8  HO  UNL     1      19.188  -1.848  69.771  1.00  0.00     0.212 HD
ENDBRANCH   1   7
BRANCH   2   9
HETATM    9  O   UNL     1      21.106   1.082  68.664  1.00  0.00    -0.388 OA
ATOM     10  HO  UNL     1      20.884   1.971  68.913  1.00  0.00     0.210 HD
ENDBRANCH   2   9
BRANCH   3  11
HETATM   11  O   UNL     1      23.075   1.822  70.597  1.00  0.00    -0.390 OA
ATOM     12  HO  UNL     1      23.653   2.168  69.927  1.00  0.00     0.210 HD
ENDBRANCH   3  11
BRANCH   4  13
HETATM   13  O   UNL     1      22.332   0.137  72.660  1.00  0.00    -0.391 OA
ATOM     14  HO  UNL     1      22.210   1.070  72.529  1.00  0.00     0.210 HD
ENDBRANCH   4  13
TORSDOF 4
ENDMDL
MODEL 7
REMARK VINA RESULT:    -4.400      1.874      2.961
REMARK INTER + INTRA:          -4.914
REMARK INTER:                  -4.914
REMARK INTRA:                   0.000
REMARK UNBOUND:                 0.000
REMARK  4 active torsions:
REMARK  status: ('A' for Active; 'I' for Inactive)
REMARK    1  A    between atoms: C_1  and  O_6 
REMARK    2  A    between atoms: C_2  and  O_8 
REMARK    3  A    between atoms: C_3  and  O_10 
REMARK    4  A    between atoms: C_4  and  O_12 
ROOT
HETATM    1  C   UNL     1      20.893  -0.608  71.693  1.00  0.00     0.288 C 
HETATM    2  C   UNL     1      22.342  -0.404  72.055  1.00  0.00     0.204 C 
HETATM    3  C   UNL     1      23.056   0.417  71.056  1.00  0.00     0.182 C 
HETATM    4  C   UNL     1      22.893  -0.183  69.687  1.00  0.00     0.173 C 
HETATM    5  C   UNL     1      21.421  -0.439  69.370  1.00  0.00     0.205 C 
HETATM    6  O   UNL     1      20.810  -1.261  70.385  1.00  0.00    -0.356 OA
ENDROOT
BRANCH   1   7
HETATM    7  O   UNL     1      20.317  -1.459  72.578  1.00  0.00    -0.369 OA
ATOM      8  HO  UNL     1      19.525  -1.826  72.201  1.00  0.00     0.212 HD
ENDBRANCH   1   7
BRANCH   2   9
HETATM    9  O   UNL     1      22.416   0.153  73.361  1.00  0.00    -0.388 OA
ATOM     10  HO  UNL     1      22.405  -0.553  73.998  1.00  0.00     0.210 HD
ENDBRANCH   2   9
BRANCH   3  11
HETATM   11  O   UNL     1      24.474   0.537  71.418  1.00  0.00    -0.390 OA
ATOM     12  HO  UNL     1      24.819  -0.309  71.681  1.00  0.00     0.210 HD
ENDBRANCH   3  11
BRANCH   4  13
HETATM   13  O   UNL     1      23.696  -1.357  69.561  1.00  0.00    -0.391 OA
ATOM     14  HO  UNL     1      23.409  -2.021  70.176  1.00  0.00     0.210 HD
ENDBRANCH   4  13
TORSDOF 4
ENDMDL
MODEL 8
REMARK VINA RESULT:    -4.385      1.574      3.176
REMARK INTER + INTRA:          -4.898
REMARK INTER:                  -4.898
REMARK INTRA:                   0.000
REMARK UNBOUND:                 0.000
REMARK  4 active torsions:
REMARK  status: ('A' for Active; 'I' for Inactive)
REMARK    1  A    between atoms: C_1  and  O_6 
REMARK    2  A    between atoms: C_2  and  O_8 
REMARK    3  A    between atoms: C_3  and  O_10 
REMARK    4  A    between atoms: C_4  and  O_12 
ROOT
HETATM    1  C   UNL     1      21.244  -0.490  70.813  1.00  0.00     0.288 C 
HETATM    2  C   UNL     1      22.458   0.329  71.169  1.00  0.00     0.204 C 
HETATM    3  C   UNL     1      23.717  -0.394  70.897  1.00  0.00     0.182 C 
HETATM    4  C   UNL     1      23.708  -1.724  71.595  1.00  0.00     0.173 C 
HETATM    5  C   UNL     1      22.437  -2.508  71.270  1.00  0.00     0.205 C 
HETATM    6  O   UNL     1      21.261  -1.736  71.582  1.00  0.00    -0.356 OA
ENDROOT
BRANCH   1   7
HETATM    7  O   UNL     1      20.121   0.171  71.189  1.00  0.00    -0.369 OA
ATOM      8  HO  UNL     1      19.491  -0.444  71.545  1.00  0.00     0.212 HD
ENDBRANCH   1   7
BRANCH   2   9
HETATM    9  O   UNL     1      22.392   1.572  70.482  1.00  0.00    -0.388 OA
ATOM     10  HO  UNL     1      23.058   1.586  69.805  1.00  0.00     0.210 HD
ENDBRANCH   2   9
BRANCH   3  11
HETATM   11  O   UNL     1      24.868   0.418  71.315  1.00  0.00    -0.390 OA
ATOM     12  HO  UNL     1      25.409   0.633  70.564  1.00  0.00     0.210 HD
ENDBRANCH   3  11
BRANCH   4  13
HETATM   13  O   UNL     1      23.901  -1.550  72.999  1.00  0.00    -0.391 OA
ATOM     14  HO  UNL     1      23.260  -0.942  73.348  1.00  0.00     0.210 HD
ENDBRANCH   4  13
TORSDOF 4
ENDMDL
MODEL 9
REMARK VINA RESULT:    -4.217      7.855      9.171
REMARK INTER + INTRA:          -4.710
REMARK INTER:                  -4.710
REMARK INTRA:                   0.000
REMARK UNBOUND:                 0.000
REMARK  4 active torsions:
REMARK  status: ('A' for Active; 'I' for Inactive)
REMARK    1  A    between atoms: C_1  and  O_6 
REMARK    2  A    between atoms: C_2  and  O_8 
REMARK    3  A    between atoms: C_3  and  O_10 
REMARK    4  A    between atoms: C_4  and  O_12 
ROOT
HETATM    1  C   UNL     1      19.258   4.472  76.436  1.00  0.00     0.288 C 
HETATM    2  C   UNL     1      20.497   3.623  76.312  1.00  0.00     0.204 C 
HETATM    3  C   UNL     1      21.081   3.292  77.627  1.00  0.00     0.182 C 
HETATM    4  C   UNL     1      21.334   4.551  78.409  1.00  0.00     0.173 C 
HETATM    5  C   UNL     1      20.082   5.424  78.466  1.00  0.00     0.205 C 
HETATM    6  O   UNL     1      19.592   5.712  77.141  1.00  0.00    -0.356 OA
ENDROOT
BRANCH   1   7
HETATM    7  O   UNL     1      18.831   4.841  75.203  1.00  0.00    -0.369 OA
ATOM      8  HO  UNL     1      18.607   5.765  75.205  1.00  0.00     0.212 HD
ENDBRANCH   1   7
BRANCH   2   9
HETATM    9  O   UNL     1      20.184   2.461  75.554  1.00  0.00    -0.388 OA
ATOM     10  HO  UNL     1      19.542   2.689  74.892  1.00  0.00     0.210 HD
ENDBRANCH   2   9
BRANCH   3  11
HETATM   11  O   UNL     1      22.317   2.518  77.453  1.00  0.00    -0.390 OA
ATOM     12  HO  UNL     1      23.062   3.010  77.777  1.00  0.00     0.210 HD
ENDBRANCH   3  11
BRANCH   4  13
HETATM   13  O   UNL     1      22.465   5.245  77.880  1.00  0.00    -0.391 OA
ATOM     14  HO  UNL     1      22.551   6.097  78.290  1.00  0.00     0.210 HD
ENDBRANCH   4  13
TORSDOF 4
ENDMDL
MODEL 10
REMARK VINA RESULT:    -4.104      2.190      3.248
REMARK INTER + INTRA:          -4.583
REMARK INTER:                  -4.583
REMARK INTRA:                   0.000
REMARK UNBOUND:                 0.000
REMARK  4 active torsions:
REMARK  status: ('A' for Active; 'I' for Inactive)
REMARK    1  A    between atoms: C_1  and  O_6 
REMARK    2  A    between atoms: C_2  and  O_8 
REMARK    3  A    between atoms: C_3  and  O_10 
REMARK    4  A    between atoms: C_4  and  O_12 
ROOT
HETATM    1  C   UNL     1      23.052  -3.024  71.543  1.00  0.00     0.288 C 
HETATM    2  C   UNL     1      23.846  -1.873  70.982  1.00  0.00     0.204 C 
HETATM    3  C   UNL     1      23.848  -0.704  71.885  1.00  0.00     0.182 C 
HETATM    4  C   UNL     1      22.436  -0.308  72.217  1.00  0.00     0.173 C 
HETATM    5  C   UNL     1      21.634  -1.507  72.722  1.00  0.00     0.205 C 
HETATM    6  O   UNL     1      21.672  -2.591  71.774  1.00  0.00    -0.356 OA
ENDROOT
BRANCH   1   7
HETATM    7  O   UNL     1      22.987  -4.023  70.628  1.00  0.00    -0.369 OA
ATOM      8  HO  UNL     1      23.537  -4.747  70.905  1.00  0.00     0.212 HD
ENDBRANCH   1   7
BRANCH   2   9
HETATM    9  O   UNL     1      25.162  -2.324  70.683  1.00  0.00    -0.388 OA
ATOM     10  HO  UNL     1      25.110  -3.195  70.309  1.00  0.00     0.210 HD
ENDBRANCH   2   9
BRANCH   3  11
HETATM   11  O   UNL     1      24.581   0.411  71.270  1.00  0.00    -0.390 OA
ATOM     12  HO  UNL     1      24.070   1.210  71.324  1.00  0.00     0.210 HD
ENDBRANCH   3  11
BRANCH   4  13
HETATM   13  O   UNL     1      21.823   0.331  71.097  1.00  0.00    -0.391 OA
ATOM     14  HO  UNL     1      21.833  -0.245  70.341  1.00  0.00     0.210 HD
ENDBRANCH   4  13
TORSDOF 4
ENDMDL
MODEL 11
REMARK VINA RESULT:    -4.069      7.723      8.365
REMARK INTER + INTRA:          -4.545
REMARK INTER:                  -4.545
REMARK INTRA:                   0.000
REMARK UNBOUND:                 0.000
REMARK  4 active torsions:
REMARK  status: ('A' for Active; 'I' for Inactive)
REMARK    1  A    between atoms: C_1  and  O_6 
REMARK    2  A    between atoms: C_2  and  O_8 
REMARK    3  A    between atoms: C_3  and  O_10 
REMARK    4  A    between atoms: C_4  and  O_12 
ROOT
HETATM    1  C   UNL     1      21.163   2.761  77.643  1.00  0.00     0.288 C 
HETATM    2  C   UNL     1      21.301   4.235  77.364  1.00  0.00     0.204 C 
HETATM    3  C   UNL     1      20.008   4.943  77.454  1.00  0.00     0.182 C 
HETATM    4  C   UNL     1      18.999   4.289  76.554  1.00  0.00     0.173 C 
HETATM    5  C   UNL     1      18.924   2.785  76.812  1.00  0.00     0.205 C 
HETATM    6  O   UNL     1      20.223   2.174  76.685  1.00  0.00    -0.356 OA
ENDROOT
BRANCH   1   7
HETATM    7  O   UNL     1      22.353   2.143  77.434  1.00  0.00    -0.369 OA
ATOM      8  HO  UNL     1      22.868   2.161  78.232  1.00  0.00     0.212 HD
ENDBRANCH   1   7
BRANCH   2   9
HETATM    9  O   UNL     1      22.277   4.781  78.243  1.00  0.00    -0.388 OA
ATOM     10  HO  UNL     1      22.019   5.664  78.479  1.00  0.00     0.210 HD
ENDBRANCH   2   9
BRANCH   3  11
HETATM   11  O   UNL     1      20.182   6.362  77.115  1.00  0.00    -0.390 OA
ATOM     12  HO  UNL     1      19.368   6.833  77.244  1.00  0.00     0.210 HD
ENDBRANCH   3  11
BRANCH   4  13
HETATM   13  O   UNL     1      19.277   4.598  75.188  1.00  0.00    -0.391 OA
ATOM     14  HO  UNL     1      18.596   4.250  74.624  1.00  0.00     0.210 HD
ENDBRANCH   4  13
TORSDOF 4
ENDMDL
MODEL 12
REMARK VINA RESULT:    -4.060      8.292      9.070
REMARK INTER + INTRA:          -4.535
REMARK INTER:                  -4.535
REMARK INTRA:                   0.000
REMARK UNBOUND:                 0.000
REMARK  4 active torsions:
REMARK  status: ('A' for Active; 'I' for Inactive)
REMARK    1  A    between atoms: C_1  and  O_6 
REMARK    2  A    between atoms: C_2  and  O_8 
REMARK    3  A    between atoms: C_3  and  O_10 
REMARK    4  A    between atoms: C_4  and  O_12 
ROOT
HETATM    1  C   UNL     1      21.606   4.931  79.066  1.00  0.00     0.288 C 
HETATM    2  C   UNL     1      21.479   4.871  77.566  1.00  0.00     0.204 C 
HETATM    3  C   UNL     1      20.546   3.813  77.127  1.00  0.00     0.182 C 
HETATM    4  C   UNL     1      20.955   2.491  77.713  1.00  0.00     0.173 C 
HETATM    5  C   UNL     1      21.140   2.594  79.227  1.00  0.00     0.205 C 
HETATM    6  O   UNL     1      22.077   3.636  79.562  1.00  0.00    -0.356 OA
ENDROOT
BRANCH   1   7
HETATM    7  O   UNL     1      22.557   5.836  79.408  1.00  0.00    -0.369 OA
ATOM      8  HO  UNL     1      22.610   5.902  80.354  1.00  0.00     0.212 HD
ENDBRANCH   1   7
BRANCH   2   9
HETATM    9  O   UNL     1      21.102   6.155  77.084  1.00  0.00    -0.388 OA
ATOM     10  HO  UNL     1      21.717   6.424  76.411  1.00  0.00     0.210 HD
ENDBRANCH   2   9
BRANCH   3  11
HETATM   11  O   UNL     1      20.502   3.753  75.660  1.00  0.00    -0.390 OA
ATOM     12  HO  UNL     1      21.326   3.425  75.319  1.00  0.00     0.210 HD
ENDBRANCH   3  11
BRANCH   4  13
HETATM   13  O   UNL     1      22.117   1.991  77.050  1.00  0.00    -0.391 OA
ATOM     14  HO  UNL     1      22.592   2.702  76.636  1.00  0.00     0.210 HD
ENDBRANCH   4  13
TORSDOF 4
ENDMDL
MODEL 13
REMARK VINA RESULT:    -4.039      1.327      2.803
REMARK INTER + INTRA:          -4.512
REMARK INTER:                  -4.512
REMARK INTRA:                   0.000
REMARK UNBOUND:                 0.000
REMARK  4 active torsions:
REMARK  status: ('A' for Active; 'I' for Inactive)
REMARK    1  A    between atoms: C_1  and  O_6 
REMARK    2  A    between atoms: C_2  and  O_8 
REMARK    3  A    between atoms: C_3  and  O_10 
REMARK    4  A    between atoms: C_4  and  O_12 
ROOT
HETATM    1  C   UNL     1      21.128  -1.946  70.574  1.00  0.00     0.288 C 
HETATM    2  C   UNL     1      22.289  -1.198  69.969  1.00  0.00     0.204 C 
HETATM    3  C   UNL     1      22.262   0.240  70.306  1.00  0.00     0.182 C 
HETATM    4  C   UNL     1      20.940   0.835  69.913  1.00  0.00     0.173 C 
HETATM    5  C   UNL     1      19.779   0.023  70.484  1.00  0.00     0.205 C 
HETATM    6  O   UNL     1      19.875  -1.360  70.092  1.00  0.00    -0.356 OA
ENDROOT
BRANCH   1   7
HETATM    7  O   UNL     1      21.137  -3.231  70.140  1.00  0.00    -0.369 OA
ATOM      8  HO  UNL     1      20.873  -3.809  70.847  1.00  0.00     0.212 HD
ENDBRANCH   1   7
BRANCH   2   9
HETATM    9  O   UNL     1      23.500  -1.824  70.374  1.00  0.00    -0.388 OA
ATOM     10  HO  UNL     1      24.021  -1.199  70.864  1.00  0.00     0.210 HD
ENDBRANCH   2   9
BRANCH   3  11
HETATM   11  O   UNL     1      23.375   0.935  69.646  1.00  0.00    -0.390 OA
ATOM     12  HO  UNL     1      23.914   1.378  70.291  1.00  0.00     0.210 HD
ENDBRANCH   3  11
BRANCH   4  13
HETATM   13  O   UNL     1      20.862   0.982  68.495  1.00  0.00    -0.391 OA
ATOM     14  HO  UNL     1      21.437   0.359  68.066  1.00  0.00     0.210 HD
ENDBRANCH   4  13
TORSDOF 4
ENDMDL
MODEL 14
REMARK VINA RESULT:    -3.934      7.796      8.902
REMARK INTER + INTRA:          -4.394
REMARK INTER:                  -4.394
REMARK INTRA:                   0.000
REMARK UNBOUND:                 0.000
REMARK  4 active torsions:
REMARK  status: ('A' for Active; 'I' for Inactive)
REMARK    1  A    between atoms: C_1  and  O_6 
REMARK    2  A    between atoms: C_2  and  O_8 
REMARK    3  A    between atoms: C_3  and  O_10 
REMARK    4  A    between atoms: C_4  and  O_12 
ROOT
HETATM    1  C   UNL     1      20.417   2.767  76.511  1.00  0.00     0.288 C 
HETATM    2  C   UNL     1      21.569   3.355  77.285  1.00  0.00     0.204 C 
HETATM    3  C   UNL     1      21.116   4.291  78.334  1.00  0.00     0.182 C 
HETATM    4  C   UNL     1      20.238   5.352  77.732  1.00  0.00     0.173 C 
HETATM    5  C   UNL     1      19.117   4.732  76.900  1.00  0.00     0.205 C 
HETATM    6  O   UNL     1      19.649   3.850  75.892  1.00  0.00    -0.356 OA
ENDROOT
BRANCH   1   7
HETATM    7  O   UNL     1      20.891   2.009  75.491  1.00  0.00    -0.369 OA
ATOM      8  HO  UNL     1      20.165   1.640  75.002  1.00  0.00     0.212 HD
ENDBRANCH   1   7
BRANCH   2   9
HETATM    9  O   UNL     1      22.357   2.296  77.812  1.00  0.00    -0.388 OA
ATOM     10  HO  UNL     1      23.039   2.664  78.362  1.00  0.00     0.210 HD
ENDBRANCH   2   9
BRANCH   3  11
HETATM   11  O   UNL     1      22.273   4.883  79.018  1.00  0.00    -0.390 OA
ATOM     12  HO  UNL     1      22.102   4.954  79.950  1.00  0.00     0.210 HD
ENDBRANCH   3  11
BRANCH   4  13
HETATM   13  O   UNL     1      21.024   6.284  76.988  1.00  0.00    -0.391 OA
ATOM     14  HO  UNL     1      21.788   6.546  77.488  1.00  0.00     0.210 HD
ENDBRANCH   4  13
TORSDOF 4
ENDMDL
MODEL 15
REMARK VINA RESULT:    -3.925      1.537      3.285
REMARK INTER + INTRA:          -4.384
REMARK INTER:                  -4.384
REMARK INTRA:                   0.000
REMARK UNBOUND:                 0.000
REMARK  4 active torsions:
REMARK  status: ('A' for Active; 'I' for Inactive)
REMARK    1  A    between atoms: C_1  and  O_6 
REMARK    2  A    between atoms: C_2  and  O_8 
REMARK    3  A    between atoms: C_3  and  O_10 
REMARK    4  A    between atoms: C_4  and  O_12 
ROOT
HETATM    1  C   UNL     1      20.723  -1.943  69.929  1.00  0.00     0.288 C 
HETATM    2  C   UNL     1      21.722  -1.538  70.982  1.00  0.00     0.204 C 
HETATM    3  C   UNL     1      21.716  -0.082  71.227  1.00  0.00     0.182 C 
HETATM    4  C   UNL     1      21.923   0.658  69.935  1.00  0.00     0.173 C 
HETATM    5  C   UNL     1      20.941   0.184  68.865  1.00  0.00     0.205 C 
HETATM    6  O   UNL     1      21.028  -1.242  68.680  1.00  0.00    -0.356 OA
ENDROOT
BRANCH   1   7
HETATM    7  O   UNL     1      20.851  -3.267  69.662  1.00  0.00    -0.369 OA
ATOM      8  HO  UNL     1      19.994  -3.677  69.657  1.00  0.00     0.212 HD
ENDBRANCH   1   7
BRANCH   2   9
HETATM    9  O   UNL     1      21.471  -2.285  72.166  1.00  0.00    -0.388 OA
ATOM     10  HO  UNL     1      22.087  -2.014  72.837  1.00  0.00     0.210 HD
ENDBRANCH   2   9
BRANCH   3  11
HETATM   11  O   UNL     1      22.746   0.271  72.213  1.00  0.00    -0.390 OA
ATOM     12  HO  UNL     1      22.425   0.951  72.794  1.00  0.00     0.210 HD
ENDBRANCH   3  11
BRANCH   4  13
HETATM   13  O   UNL     1      23.285   0.553  69.516  1.00  0.00    -0.391 OA
ATOM     14  HO  UNL     1      23.837   0.300  70.246  1.00  0.00     0.210 HD
ENDBRANCH   4  13
TORSDOF 4
ENDMDL
MODEL 16
REMARK VINA RESULT:    -3.908      2.859      3.847
REMARK INTER + INTRA:          -4.365
REMARK INTER:                  -4.365
REMARK INTRA:                   0.000
REMARK UNBOUND:                 0.000
REMARK  4 active torsions:
REMARK  status: ('A' for Active; 'I' for Inactive)
REMARK    1  A    between atoms: C_1  and  O_6 
REMARK    2  A    between atoms: C_2  and  O_8 
REMARK    3  A    between atoms: C_3  and  O_10 
REMARK    4  A    between atoms: C_4  and  O_12 
ROOT
HETATM    1  C   UNL     1      24.524  -2.812  73.041  1.00  0.00     0.288 C 
HETATM    2  C   UNL     1      23.793  -1.587  73.529  1.00  0.00     0.204 C 
HETATM    3  C   UNL     1      22.904  -1.019  72.495  1.00  0.00     0.182 C 
HETATM    4  C   UNL     1      23.683  -0.750  71.239  1.00  0.00     0.173 C 
HETATM    5  C   UNL     1      24.466  -1.987  70.800  1.00  0.00     0.205 C 
HETATM    6  O   UNL     1      25.318  -2.461  71.861  1.00  0.00    -0.356 OA
ENDROOT
BRANCH   1   7
HETATM    7  O   UNL     1      25.408  -3.223  73.984  1.00  0.00    -0.369 OA
ATOM      8  HO  UNL     1      24.942  -3.471  74.774  1.00  0.00     0.212 HD
ENDBRANCH   1   7
BRANCH   2   9
HETATM    9  O   UNL     1      23.092  -1.915  74.722  1.00  0.00    -0.388 OA
ATOM     10  HO  UNL     1      23.708  -1.935  75.445  1.00  0.00     0.210 HD
ENDBRANCH   2   9
BRANCH   3  11
HETATM   11  O   UNL     1      22.263   0.204  72.995  1.00  0.00    -0.390 OA
ATOM     12  HO  UNL     1      22.531   0.374  73.891  1.00  0.00     0.210 HD
ENDBRANCH   3  11
BRANCH   4  13
HETATM   13  O   UNL     1      24.518   0.397  71.407  1.00  0.00    -0.391 OA
ATOM     14  HO  UNL     1      24.077   1.051  71.937  1.00  0.00     0.210 HD
ENDBRANCH   4  13
TORSDOF 4
ENDMDL
MODEL 17
REMARK VINA RESULT:    -3.790      1.409      1.888
REMARK INTER + INTRA:          -4.233
REMARK INTER:                  -4.233
REMARK INTRA:                   0.000
REMARK UNBOUND:                 0.000
REMARK  4 active torsions:
REMARK  status: ('A' for Active; 'I' for Inactive)
REMARK    1  A    between atoms: C_1  and  O_6 
REMARK    2  A    between atoms: C_2  and  O_8 
REMARK    3  A    between atoms: C_3  and  O_10 
REMARK    4  A    between atoms: C_4  and  O_12 
ROOT
HETATM    1  C   UNL     1      22.696  -0.078  70.173  1.00  0.00     0.288 C 
HETATM    2  C   UNL     1      21.233  -0.003  69.820  1.00  0.00     0.204 C 
HETATM    3  C   UNL     1      20.394  -0.789  70.747  1.00  0.00     0.182 C 
HETATM    4  C   UNL     1      20.888  -2.207  70.812  1.00  0.00     0.173 C 
HETATM    5  C   UNL     1      22.387  -2.254  71.108  1.00  0.00     0.205 C 
HETATM    6  O   UNL     1      23.127  -1.477  70.146  1.00  0.00    -0.356 OA
ENDROOT
BRANCH   1   7
HETATM    7  O   UNL     1      23.428   0.563  69.228  1.00  0.00    -0.369 OA
ATOM      8  HO  UNL     1      23.249   0.185  68.374  1.00  0.00     0.212 HD
ENDBRANCH   1   7
BRANCH   2   9
HETATM    9  O   UNL     1      20.842   1.363  69.766  1.00  0.00    -0.388 OA
ATOM     10  HO  UNL     1      20.694   1.605  68.859  1.00  0.00     0.210 HD
ENDBRANCH   2   9
BRANCH   3  11
HETATM   11  O   UNL     1      18.987  -0.736  70.327  1.00  0.00    -0.390 OA
ATOM     12  HO  UNL     1      18.669   0.159  70.357  1.00  0.00     0.210 HD
ENDBRANCH   3  11
BRANCH   4  13
HETATM   13  O   UNL     1      20.542  -2.909  69.617  1.00  0.00    -0.391 OA
ATOM     14  HO  UNL     1      20.580  -2.326  68.868  1.00  0.00     0.210 HD
ENDBRANCH   4  13
TORSDOF 4
ENDMDL
MODEL 18
REMARK VINA RESULT:    -3.740      9.630     10.599
REMARK INTER + INTRA:          -4.177
REMARK INTER:                  -4.177
REMARK INTRA:                   0.000
REMARK UNBOUND:                 0.000
REMARK  4 active torsions:
REMARK  status: ('A' for Active; 'I' for Inactive)
REMARK    1  A    between atoms: C_1  and  O_6 
REMARK    2  A    between atoms: C_2  and  O_8 
REMARK    3  A    between atoms: C_3  and  O_10 
REMARK    4  A    between atoms: C_4  and  O_12 
ROOT
HETATM    1  C   UNL     1      18.012   7.325  77.723  1.00  0.00     0.288 C 
HETATM    2  C   UNL     1      17.096   7.185  76.536  1.00  0.00     0.204 C 
HETATM    3  C   UNL     1      16.684   5.784  76.310  1.00  0.00     0.182 C 
HETATM    4  C   UNL     1      17.898   4.904  76.196  1.00  0.00     0.173 C 
HETATM    5  C   UNL     1      18.842   5.112  77.379  1.00  0.00     0.205 C 
HETATM    6  O   UNL     1      19.204   6.500  77.512  1.00  0.00    -0.356 OA
ENDROOT
BRANCH   1   7
HETATM    7  O   UNL     1      18.450   8.606  77.815  1.00  0.00    -0.369 OA
ATOM      8  HO  UNL     1      19.284   8.692  77.368  1.00  0.00     0.212 HD
ENDBRANCH   1   7
BRANCH   2   9
HETATM    9  O   UNL     1      15.982   8.052  76.709  1.00  0.00    -0.388 OA
ATOM     10  HO  UNL     1      16.241   8.936  76.477  1.00  0.00     0.210 HD
ENDBRANCH   2   9
BRANCH   3  11
HETATM   11  O   UNL     1      15.844   5.689  75.109  1.00  0.00    -0.390 OA
ATOM     12  HO  UNL     1      15.960   6.459  74.565  1.00  0.00     0.210 HD
ENDBRANCH   3  11
BRANCH   4  13
HETATM   13  O   UNL     1      18.541   5.107  74.937  1.00  0.00    -0.391 OA
ATOM     14  HO  UNL     1      18.639   4.280  74.479  1.00  0.00     0.210 HD
ENDBRANCH   4  13
TORSDOF 4
ENDMDL
MODEL 19
REMARK VINA RESULT:    -3.646      8.978     10.079
REMARK INTER + INTRA:          -4.072
REMARK INTER:                  -4.072
REMARK INTRA:                   0.000
REMARK UNBOUND:                 0.000
REMARK  4 active torsions:
REMARK  status: ('A' for Active; 'I' for Inactive)
REMARK    1  A    between atoms: C_1  and  O_6 
REMARK    2  A    between atoms: C_2  and  O_8 
REMARK    3  A    between atoms: C_3  and  O_10 
REMARK    4  A    between atoms: C_4  and  O_12 
ROOT
HETATM    1  C   UNL     1      18.226   3.969  77.153  1.00  0.00     0.288 C 
HETATM    2  C   UNL     1      19.422   4.691  76.588  1.00  0.00     0.204 C 
HETATM    3  C   UNL     1      20.165   5.437  77.624  1.00  0.00     0.182 C 
HETATM    4  C   UNL     1      19.236   6.367  78.354  1.00  0.00     0.173 C 
HETATM    5  C   UNL     1      18.000   5.624  78.861  1.00  0.00     0.205 C 
HETATM    6  O   UNL     1      17.330   4.941  77.784  1.00  0.00    -0.356 OA
ENDROOT
BRANCH   1   7
HETATM    7  O   UNL     1      17.518   3.399  76.147  1.00  0.00    -0.369 OA
ATOM      8  HO  UNL     1      16.796   3.965  75.903  1.00  0.00     0.212 HD
ENDBRANCH   1   7
BRANCH   2   9
HETATM    9  O   UNL     1      20.245   3.753  75.906  1.00  0.00    -0.388 OA
ATOM     10  HO  UNL     1      20.838   3.352  76.530  1.00  0.00     0.210 HD
ENDBRANCH   2   9
BRANCH   3  11
HETATM   11  O   UNL     1      21.282   6.172  77.017  1.00  0.00    -0.390 OA
ATOM     12  HO  UNL     1      21.210   6.156  76.070  1.00  0.00     0.210 HD
ENDBRANCH   3  11
BRANCH   4  13
HETATM   13  O   UNL     1      18.904   7.485  77.530  1.00  0.00    -0.391 OA
ATOM     14  HO  UNL     1      18.074   7.339  77.091  1.00  0.00     0.210 HD
ENDBRANCH   4  13
TORSDOF 4
ENDMDL
MODEL 20
REMARK VINA RESULT:    -3.496      7.412      8.227
REMARK INTER + INTRA:          -3.905
REMARK INTER:                  -3.905
REMARK INTRA:                   0.000
REMARK UNBOUND:                 0.000
REMARK  4 active torsions:
REMARK  status: ('A' for Active; 'I' for Inactive)
REMARK    1  A    between atoms: C_1  and  O_6 
REMARK    2  A    between atoms: C_2  and  O_8 
REMARK    3  A    between atoms: C_3  and  O_10 
REMARK    4  A    between atoms: C_4  and  O_12 
ROOT
HETATM    1  C   UNL     1      19.761   4.919  77.231  1.00  0.00     0.288 C 
HETATM    2  C   UNL     1      19.511   4.226  75.917  1.00  0.00     0.204 C 
HETATM    3  C   UNL     1      19.049   2.835  76.098  1.00  0.00     0.182 C 
HETATM    4  C   UNL     1      20.020   2.079  76.960  1.00  0.00     0.173 C 
HETATM    5  C   UNL     1      20.307   2.833  78.258  1.00  0.00     0.205 C 
HETATM    6  O   UNL     1      20.769   4.171  77.987  1.00  0.00    -0.356 OA
ENDROOT
BRANCH   1   7
HETATM    7  O   UNL     1      20.291   6.148  77.007  1.00  0.00    -0.369 OA
ATOM      8  HO  UNL     1      21.226   6.070  76.857  1.00  0.00     0.212 HD
ENDBRANCH   1   7
BRANCH   2   9
HETATM    9  O   UNL     1      18.595   5.003  75.155  1.00  0.00    -0.388 OA
ATOM     10  HO  UNL     1      18.515   5.862  75.552  1.00  0.00     0.210 HD
ENDBRANCH   2   9
BRANCH   3  11
HETATM   11  O   UNL     1      18.878   2.183  74.793  1.00  0.00    -0.390 OA
ATOM     12  HO  UNL     1      19.627   2.361  74.237  1.00  0.00     0.210 HD
ENDBRANCH   3  11
BRANCH   4  13
HETATM   13  O   UNL     1      21.208   1.779  76.225  1.00  0.00    -0.391 OA
ATOM     14  HO  UNL     1      21.964   2.175  76.643  1.00  0.00     0.210 HD
ENDBRANCH   4  13
TORSDOF 4
ENDMDL
