REMARK  2 active torsions:
REMARK  status: ('A' for Active; 'I' for Inactive)
REMARK    1  A    between atoms: C_2  and  C_3 
REMARK    2  A    between atoms: C_2  and  N_8 
ROOT
HETATM    1  C   UNL     1      11.200  26.093  -6.291  1.00  0.00     0.017 A 
HETATM    2  C   UNL     1      12.205  25.445  -5.595  1.00  0.00     0.102 A 
HETATM    3  C   UNL     1      13.699  27.097  -6.119  1.00  0.00     0.087 A 
HETATM    4  C   UNL     1      12.742  27.801  -6.833  1.00  0.00     0.018 A 
HETATM    5  C   UNL     1      11.463  27.287  -6.926  1.00  0.00     0.017 A 
HETATM    6  N   UNL     1      13.427  25.949  -5.519  1.00  0.00    -0.374 N 
ATOM      7  HN  UNL     1      14.154  25.456  -5.001  1.00  0.00     0.164 HD
ENDROOT
BRANCH   1   8
HETATM    8  C   UNL     1       9.821  25.482  -6.350  1.00  0.00     0.107 C 
HETATM    9  S   UNL     1       8.486  26.366  -6.510  1.00  0.00    -0.060 SA
BRANCH   8  10
HETATM   10  N   UNL     1       9.814  24.052  -6.253  1.00  0.00    -0.385 N 
HETATM   11  C   UNL     1       8.567  23.324  -6.241  1.00  0.00     0.147 C 
ATOM     12  HN  UNL     1      10.697  23.545  -6.192  1.00  0.00     0.160 HD
ENDBRANCH   8  10
ENDBRANCH   1   8
TORSDOF 2
