MODEL 1
REMARK VINA RESULT:   -11.232      0.000      0.000
REMARK INTER + INTRA:         -11.560
REMARK INTER:                 -11.560
REMARK INTRA:                   0.000
REMARK UNBOUND:                 0.000
REMARK  1 active torsions:
REMARK  status: ('A' for Active; 'I' for Inactive)
REMARK    1  A    between atoms: C_18  and  O_19 
ROOT
HETATM    1  C   UNL     1     -27.426   5.030  -4.845  1.00  0.00     0.017 C 
HETATM    2  C   UNL     1     -26.673   6.288  -5.314  1.00  0.00     0.079 C 
HETATM    3  C   UNL     1     -25.246   6.271  -4.842  1.00  0.00     0.127 C 
HETATM    4  O   UNL     1     -24.753   7.198  -4.230  1.00  0.00    -0.298 OA
HETATM    5  C   UNL     1     -24.482   5.000  -5.063  1.00  0.00     0.083 C 
HETATM    6  C   UNL     1     -25.290   3.782  -4.568  1.00  0.00     0.001 C 
HETATM    7  C   UNL     1     -24.530   2.453  -4.718  1.00  0.00     0.006 C 
HETATM    8  C   UNL     1     -25.317   1.285  -4.120  1.00  0.00     0.006 C 
HETATM    9  C   UNL     1     -26.708   1.163  -4.749  1.00  0.00    -0.005 C 
HETATM   10  C   UNL     1     -27.484   2.507  -4.649  1.00  0.00    -0.002 C 
HETATM   11  C   UNL     1     -26.693   3.720  -5.214  1.00  0.00    -0.036 C 
HETATM   12  C   UNL     1     -28.906   2.398  -5.232  1.00  0.00     0.007 C 
HETATM   13  C   UNL     1     -29.705   1.243  -4.584  1.00  0.00     0.012 C 
HETATM   14  C   UNL     1     -28.941  -0.068  -4.693  1.00  0.00    -0.014 C 
HETATM   15  C   UNL     1     -27.557   0.110  -4.048  1.00  0.00     0.001 C 
HETATM   16  C   UNL     1     -27.021  -1.327  -3.942  1.00  0.00     0.008 C 
HETATM   17  C   UNL     1     -28.285  -2.168  -3.635  1.00  0.00     0.033 C 
HETATM   18  C   UNL     1     -29.473  -1.211  -3.810  1.00  0.00     0.126 C 
HETATM   19  C   UNL     1     -28.854  -0.515  -6.164  1.00  0.00     0.018 C 
HETATM   20  C   UNL     1     -26.574   3.640  -6.751  1.00  0.00     0.016 C 
ENDROOT
BRANCH  18  21
HETATM   21  O   UNL     1     -30.630  -1.884  -4.316  1.00  0.00    -0.395 OA
ATOM     22  HO  UNL     1     -30.764  -1.809  -5.254  1.00  0.00     0.210 HD
ENDBRANCH  18  21
TORSDOF 1
ENDMDL
MODEL 2
REMARK VINA RESULT:    -9.313      1.560      2.860
REMARK INTER + INTRA:          -9.586
REMARK INTER:                  -9.586
REMARK INTRA:                   0.000
REMARK UNBOUND:                 0.000
REMARK  1 active torsions:
REMARK  status: ('A' for Active; 'I' for Inactive)
REMARK    1  A    between atoms: C_18  and  O_19 
ROOT
HETATM    1  C   UNL     1     -24.614   4.574  -4.600  1.00  0.00     0.017 C 
HETATM    2  C   UNL     1     -24.475   6.091  -4.386  1.00  0.00     0.079 C 
HETATM    3  C   UNL     1     -25.283   6.856  -5.395  1.00  0.00     0.127 C 
HETATM    4  O   UNL     1     -24.800   7.733  -6.084  1.00  0.00    -0.298 OA
HETATM    5  C   UNL     1     -26.699   6.410  -5.598  1.00  0.00     0.083 C 
HETATM    6  C   UNL     1     -26.768   4.883  -5.810  1.00  0.00     0.001 C 
HETATM    7  C   UNL     1     -28.194   4.376  -6.079  1.00  0.00     0.006 C 
HETATM    8  C   UNL     1     -28.207   2.877  -6.391  1.00  0.00     0.006 C 
HETATM    9  C   UNL     1     -27.569   2.062  -5.263  1.00  0.00    -0.005 C 
HETATM   10  C   UNL     1     -26.139   2.582  -4.941  1.00  0.00    -0.002 C 
HETATM   11  C   UNL     1     -26.088   4.110  -4.657  1.00  0.00    -0.036 C 
HETATM   12  C   UNL     1     -25.455   1.748  -3.841  1.00  0.00     0.007 C 
HETATM   13  C   UNL     1     -25.435   0.242  -4.192  1.00  0.00     0.012 C 
HETATM   14  C   UNL     1     -26.838  -0.260  -4.499  1.00  0.00    -0.014 C 
HETATM   15  C   UNL     1     -27.430   0.591  -5.634  1.00  0.00     0.001 C 
HETATM   16  C   UNL     1     -28.685  -0.191  -6.055  1.00  0.00     0.008 C 
HETATM   17  C   UNL     1     -28.267  -1.673  -5.883  1.00  0.00     0.033 C 
HETATM   18  C   UNL     1     -26.907  -1.642  -5.171  1.00  0.00     0.126 C 
HETATM   19  C   UNL     1     -27.706  -0.232  -3.226  1.00  0.00     0.018 C 
HETATM   20  C   UNL     1     -26.763   4.449  -3.311  1.00  0.00     0.016 C 
ENDROOT
BRANCH  18  21
HETATM   21  O   UNL     1     -26.740  -2.757  -4.291  1.00  0.00    -0.395 OA
ATOM     22  HO  UNL     1     -27.500  -3.322  -4.204  1.00  0.00     0.210 HD
ENDBRANCH  18  21
TORSDOF 1
ENDMDL
MODEL 3
REMARK VINA RESULT:    -8.796      1.036      6.576
REMARK INTER + INTRA:          -9.053
REMARK INTER:                  -9.053
REMARK INTRA:                   0.000
REMARK UNBOUND:                 0.000
REMARK  1 active torsions:
REMARK  status: ('A' for Active; 'I' for Inactive)
REMARK    1  A    between atoms: C_18  and  O_19 
ROOT
HETATM    1  C   UNL     1     -27.632  -0.119  -3.153  1.00  0.00     0.017 C 
HETATM    2  C   UNL     1     -27.937  -1.620  -3.301  1.00  0.00     0.079 C 
HETATM    3  C   UNL     1     -29.145  -1.844  -4.166  1.00  0.00     0.127 C 
HETATM    4  O   UNL     1     -30.087  -2.521  -3.804  1.00  0.00    -0.298 OA
HETATM    5  C   UNL     1     -29.188  -1.095  -5.464  1.00  0.00     0.083 C 
HETATM    6  C   UNL     1     -28.878   0.401  -5.245  1.00  0.00     0.001 C 
HETATM    7  C   UNL     1     -28.964   1.229  -6.537  1.00  0.00     0.006 C 
HETATM    8  C   UNL     1     -28.757   2.721  -6.262  1.00  0.00     0.006 C 
HETATM    9  C   UNL     1     -27.421   2.984  -5.563  1.00  0.00    -0.005 C 
HETATM   10  C   UNL     1     -27.289   2.126  -4.273  1.00  0.00    -0.002 C 
HETATM   11  C   UNL     1     -27.532   0.609  -4.513  1.00  0.00    -0.036 C 
HETATM   12  C   UNL     1     -25.973   2.407  -3.523  1.00  0.00     0.007 C 
HETATM   13  C   UNL     1     -25.801   3.912  -3.211  1.00  0.00     0.012 C 
HETATM   14  C   UNL     1     -25.924   4.743  -4.479  1.00  0.00    -0.014 C 
HETATM   15  C   UNL     1     -27.280   4.440  -5.139  1.00  0.00     0.001 C 
HETATM   16  C   UNL     1     -27.415   5.541  -6.205  1.00  0.00     0.008 C 
HETATM   17  C   UNL     1     -26.758   6.777  -5.541  1.00  0.00     0.033 C 
HETATM   18  C   UNL     1     -26.096   6.256  -4.257  1.00  0.00     0.126 C 
HETATM   19  C   UNL     1     -24.735   4.465  -5.418  1.00  0.00     0.018 C 
HETATM   20  C   UNL     1     -26.378  -0.018  -5.323  1.00  0.00     0.016 C 
ENDROOT
BRANCH  18  21
HETATM   21  O   UNL     1     -24.893   6.968  -3.951  1.00  0.00    -0.395 OA
ATOM     22  HO  UNL     1     -24.473   6.719  -3.135  1.00  0.00     0.210 HD
ENDBRANCH  18  21
TORSDOF 1
ENDMDL
MODEL 4
REMARK VINA RESULT:    -8.663      1.431      6.258
REMARK INTER + INTRA:          -8.916
REMARK INTER:                  -8.916
REMARK INTRA:                   0.000
REMARK UNBOUND:                 0.000
REMARK  1 active torsions:
REMARK  status: ('A' for Active; 'I' for Inactive)
REMARK    1  A    between atoms: C_18  and  O_19 
ROOT
HETATM    1  C   UNL     1     -28.293  -0.204  -5.430  1.00  0.00     0.017 C 
HETATM    2  C   UNL     1     -28.687  -1.614  -4.955  1.00  0.00     0.079 C 
HETATM    3  C   UNL     1     -27.469  -2.445  -4.661  1.00  0.00     0.127 C 
HETATM    4  O   UNL     1     -27.299  -3.544  -5.151  1.00  0.00    -0.298 OA
HETATM    5  C   UNL     1     -26.409  -1.805  -3.817  1.00  0.00     0.083 C 
HETATM    6  C   UNL     1     -26.059  -0.399  -4.349  1.00  0.00     0.001 C 
HETATM    7  C   UNL     1     -24.934   0.284  -3.553  1.00  0.00     0.006 C 
HETATM    8  C   UNL     1     -24.543   1.627  -4.174  1.00  0.00     0.006 C 
HETATM    9  C   UNL     1     -25.746   2.567  -4.286  1.00  0.00    -0.005 C 
HETATM   10  C   UNL     1     -26.916   1.886  -5.051  1.00  0.00    -0.002 C 
HETATM   11  C   UNL     1     -27.312   0.500  -4.466  1.00  0.00    -0.036 C 
HETATM   12  C   UNL     1     -28.123   2.828  -5.219  1.00  0.00     0.007 C 
HETATM   13  C   UNL     1     -27.720   4.162  -5.890  1.00  0.00     0.012 C 
HETATM   14  C   UNL     1     -26.580   4.825  -5.131  1.00  0.00    -0.014 C 
HETATM   15  C   UNL     1     -25.402   3.840  -5.049  1.00  0.00     0.001 C 
HETATM   16  C   UNL     1     -24.237   4.712  -4.553  1.00  0.00     0.008 C 
HETATM   17  C   UNL     1     -24.490   6.081  -5.232  1.00  0.00     0.033 C 
HETATM   18  C   UNL     1     -25.880   5.976  -5.875  1.00  0.00     0.126 C 
HETATM   19  C   UNL     1     -27.060   5.289  -3.743  1.00  0.00     0.018 C 
HETATM   20  C   UNL     1     -27.995   0.651  -3.091  1.00  0.00     0.016 C 
ENDROOT
BRANCH  18  21
HETATM   21  O   UNL     1     -26.574   7.227  -5.853  1.00  0.00    -0.395 OA
ATOM     22  HO  UNL     1     -26.597   7.692  -6.681  1.00  0.00     0.210 HD
ENDBRANCH  18  21
TORSDOF 1
ENDMDL
MODEL 5
REMARK VINA RESULT:    -8.634      1.182      6.627
REMARK INTER + INTRA:          -8.887
REMARK INTER:                  -8.887
REMARK INTRA:                   0.000
REMARK UNBOUND:                 0.000
REMARK  1 active torsions:
REMARK  status: ('A' for Active; 'I' for Inactive)
REMARK    1  A    between atoms: C_18  and  O_19 
ROOT
HETATM    1  C   UNL     1     -26.896  -1.483  -4.252  1.00  0.00     0.017 C 
HETATM    2  C   UNL     1     -27.821  -2.704  -4.399  1.00  0.00     0.079 C 
HETATM    3  C   UNL     1     -29.179  -2.426  -3.817  1.00  0.00     0.127 C 
HETATM    4  O   UNL     1     -29.695  -3.157  -2.995  1.00  0.00    -0.298 OA
HETATM    5  C   UNL     1     -29.827  -1.135  -4.216  1.00  0.00     0.083 C 
HETATM    6  C   UNL     1     -28.850   0.046  -4.041  1.00  0.00     0.001 C 
HETATM    7  C   UNL     1     -29.481   1.407  -4.382  1.00  0.00     0.006 C 
HETATM    8  C   UNL     1     -28.517   2.560  -4.095  1.00  0.00     0.006 C 
HETATM    9  C   UNL     1     -27.197   2.394  -4.854  1.00  0.00    -0.005 C 
HETATM   10  C   UNL     1     -26.558   1.008  -4.560  1.00  0.00    -0.002 C 
HETATM   11  C   UNL     1     -27.526  -0.184  -4.806  1.00  0.00    -0.036 C 
HETATM   12  C   UNL     1     -25.204   0.833  -5.274  1.00  0.00     0.007 C 
HETATM   13  C   UNL     1     -24.225   1.982  -4.937  1.00  0.00     0.012 C 
HETATM   14  C   UNL     1     -24.857   3.333  -5.234  1.00  0.00    -0.014 C 
HETATM   15  C   UNL     1     -26.174   3.447  -4.449  1.00  0.00     0.001 C 
HETATM   16  C   UNL     1     -26.545   4.934  -4.580  1.00  0.00     0.008 C 
HETATM   17  C   UNL     1     -25.175   5.656  -4.555  1.00  0.00     0.033 C 
HETATM   18  C   UNL     1     -24.118   4.546  -4.641  1.00  0.00     0.126 C 
HETATM   19  C   UNL     1     -25.056   3.508  -6.751  1.00  0.00     0.018 C 
HETATM   20  C   UNL     1     -27.802  -0.375  -6.312  1.00  0.00     0.016 C 
ENDROOT
BRANCH  18  21
HETATM   21  O   UNL     1     -22.959   4.969  -5.368  1.00  0.00    -0.395 OA
ATOM     22  HO  UNL     1     -22.376   4.270  -5.641  1.00  0.00     0.210 HD
ENDBRANCH  18  21
TORSDOF 1
ENDMDL
