REMARK  5 active torsions:
REMARK  status: ('A' for Active; 'I' for Inactive)
REMARK    1  A    between atoms: C_6  and  C_7 
REMARK    2  A    between atoms: C_10  and  N_26 
REMARK    3  A    between atoms: C_11  and  C_12 
REMARK       I    between atoms: C_11  and  N_26 
REMARK    4  A    between atoms: N_13  and  C_16 
REMARK    5  A    between atoms: C_17  and  C_20 
ROOT
HETATM    1  C   UNL     1      -2.093   3.781   1.625  1.00  0.00     0.092 A 
HETATM    2  C   UNL     1      -0.849   3.224   1.849  1.00  0.00     0.065 A 
HETATM    3  N   UNL     1      -2.048   1.964   0.472  1.00  0.00    -0.252 N 
HETATM    4  C   UNL     1      -0.855   2.057   1.107  1.00  0.00     0.077 A 
HETATM    5  N   UNL     1      -2.799   3.010   0.777  1.00  0.00    -0.292 N 
ATOM      6  HN  UNL     1      -3.741   3.198   0.433  1.00  0.00     0.187 HD
ENDROOT
BRANCH   4   7
HETATM    7  C   UNL     1       0.256   1.080   1.044  1.00  0.00     0.052 A 
HETATM    8  C   UNL     1       1.551   1.292   1.518  1.00  0.00     0.111 A 
HETATM    9  N   UNL     1       2.398   0.237   1.373  1.00  0.00    -0.345 N 
HETATM   10  C   UNL     1       1.794  -0.824   0.796  1.00  0.00     0.151 A 
ATOM     11  HN  UNL     1       3.375   0.246   1.666  1.00  0.00     0.167 HD
HETATM   12  S   UNL     1       0.183  -0.491   0.440  1.00  0.00    -0.050 SA
BRANCH  10  13
HETATM   13  N   UNL     1       2.490  -2.051   0.526  1.00  0.00    -0.307 N 
HETATM   14  C   UNL     1       1.896  -3.228  -0.048  1.00  0.00     0.227 C 
HETATM   15  O   UNL     1       0.655  -3.282  -0.266  1.00  0.00    -0.273 OA
HETATM   16  H   UNL     1       3.507  -2.079   0.766  1.00  0.00     0.171 HD
BRANCH  14  17
HETATM   17  C   UNL     1       2.753  -4.429  -0.361  1.00  0.00     0.070 C 
HETATM   18  C   UNL     1       2.582  -4.849  -1.824  1.00  0.00     0.019 C 
HETATM   19  C   UNL     1       2.412  -5.585   0.584  1.00  0.00     0.019 C 
ENDBRANCH  14  17
ENDBRANCH  10  13
ENDBRANCH   4   7
BRANCH   3  20
HETATM   20  C   UNL     1      -2.475   0.952  -0.448  1.00  0.00     0.100 A 
HETATM   21  C   UNL     1      -1.996   0.948  -1.772  1.00  0.00     0.064 A 
HETATM   22  C   UNL     1      -2.414  -0.047  -2.662  1.00  0.00     0.026 A 
HETATM   23 CL   UNL     1      -0.877   2.182  -2.335  1.00  0.00    -0.082 Cl
HETATM   24  C   UNL     1      -3.309  -1.034  -2.243  1.00  0.00     0.003 A 
HETATM   25  C   UNL     1      -3.795  -1.029  -0.933  1.00  0.00     0.026 A 
HETATM   26  C   UNL     1      -3.384  -0.038  -0.034  1.00  0.00     0.064 A 
HETATM   27 CL   UNL     1      -3.997  -0.070   1.613  1.00  0.00    -0.082 Cl
ENDBRANCH   3  20
BRANCH   1  28
HETATM   28  C   UNL     1      -2.573   5.091   2.157  1.00  0.00     0.404 C 
HETATM   29  F   UNL     1      -2.389   6.071   1.201  1.00  0.00    -0.207 F 
HETATM   30  F   UNL     1      -3.917   5.005   2.473  1.00  0.00    -0.207 F 
ENDBRANCH   1  28
TORSDOF 5
