REMARK  5 active torsions:
REMARK  status: ('A' for Active; 'I' for Inactive)
REMARK    1  A    between atoms: C_6  and  C_7 
REMARK    2  A    between atoms: C_10  and  N_26 
REMARK       I    between atoms: C_11  and  N_26 
REMARK    3  A    between atoms: C_11  and  C_12 
REMARK    4  A    between atoms: N_13  and  C_16 
REMARK    5  A    between atoms: C_17  and  C_20 
ROOT
HETATM    1  C   UNL     1     -12.851  39.861 -12.434  1.00  0.00     0.092 A 
HETATM    2  C   UNL     1     -13.964  40.131 -13.257  1.00  0.00     0.065 A 
HETATM    3  N   UNL     1     -12.971  41.996 -12.619  1.00  0.00    -0.252 N 
HETATM    4  C   UNL     1     -14.002  41.521 -13.375  1.00  0.00     0.077 A 
HETATM    5  N   UNL     1     -12.247  40.980 -12.016  1.00  0.00    -0.292 N 
ATOM      6  HN  UNL     1     -11.441  41.065 -11.397  1.00  0.00     0.187 HD
ENDROOT
BRANCH   4   7
HETATM    7  C   UNL     1     -14.956  42.330 -14.110  1.00  0.00     0.052 A 
HETATM    8  S   UNL     1     -14.663  43.974 -14.592  1.00  0.00    -0.050 SA
HETATM    9  C   UNL     1     -16.180  43.982 -15.420  1.00  0.00     0.151 A 
HETATM   10  N   UNL     1     -16.863  42.873 -15.356  1.00  0.00    -0.345 N 
HETATM   11  C   UNL     1     -16.159  41.940 -14.626  1.00  0.00     0.111 A 
ATOM     12  HN  UNL     1     -17.778  42.720 -15.781  1.00  0.00     0.167 HD
BRANCH   9  13
HETATM   13  N   UNL     1     -16.649  45.069 -16.134  1.00  0.00    -0.307 N 
HETATM   14  C   UNL     1     -15.980  46.246 -16.271  1.00  0.00     0.227 C 
HETATM   15  O   UNL     1     -14.877  46.452 -15.769  1.00  0.00    -0.273 OA
ATOM     16  HN  UNL     1     -17.558  44.983 -16.589  1.00  0.00     0.171 HD
BRANCH  14  17
HETATM   17  C   UNL     1     -16.712  47.310 -17.056  1.00  0.00     0.070 C 
HETATM   18  C   UNL     1     -15.726  48.047 -17.948  1.00  0.00     0.019 C 
HETATM   19  C   UNL     1     -17.378  48.265 -16.080  1.00  0.00     0.019 C 
ENDBRANCH  14  17
ENDBRANCH   9  13
ENDBRANCH   4   7
BRANCH   3  20
HETATM   20  C   UNL     1     -12.494  43.344 -12.434  1.00  0.00     0.100 A 
HETATM   21  C   UNL     1     -13.027  44.172 -11.452  1.00  0.00     0.064 A 
HETATM   22  C   UNL     1     -12.573  45.467 -11.278  1.00  0.00     0.026 A 
HETATM   23 CL   UNL     1     -14.225  43.576 -10.361  1.00  0.00    -0.082 Cl
HETATM   24  C   UNL     1     -11.560  45.947 -12.090  1.00  0.00     0.003 A 
HETATM   25  C   UNL     1     -11.005  45.140 -13.067  1.00  0.00     0.026 A 
HETATM   26  C   UNL     1     -11.477  43.847 -13.227  1.00  0.00     0.064 A 
HETATM   27 CL   UNL     1     -10.746  42.825 -14.406  1.00  0.00    -0.082 Cl
ENDBRANCH   3  20
BRANCH   1  28
HETATM   28  C   UNL     1     -12.219  38.493 -12.052  1.00  0.00     0.404 C 
HETATM   29  F   UNL     1     -11.913  37.805 -13.149  1.00  0.00    -0.207 F 
HETATM   30  F   UNL     1     -13.080  37.766 -11.363  1.00  0.00    -0.207 F 
ENDBRANCH   1  28
TORSDOF 5
