MODEL 1
REMARK VINA RESULT:   -15.169      0.000      0.000
REMARK INTER + INTRA:         -20.534
REMARK INTER:                 -19.602
REMARK INTRA:                  -0.932
REMARK UNBOUND:                -0.932
REMARK  5 active torsions:
REMARK  status: ('A' for Active; 'I' for Inactive)
REMARK    1  A    between atoms: C_4  and  C_23 
REMARK    2  A    between atoms: C_10  and  C_15 
REMARK    3  A    between atoms: C_11  and  C_35 
REMARK    4  A    between atoms: C_26  and  C_29 
REMARK       I    between atoms: C_35  and  N_41 
REMARK    5  A    between atoms: C_37  and  C_39 
ROOT
HETATM    1  C   UNL     1     -33.713   8.007  22.519  1.00  0.00     0.149 A 
HETATM    2  C   UNL     1     -32.127   8.780  20.909  1.00  0.00     0.049 A 
HETATM    3  N   UNL     1     -33.285   8.949  21.644  1.00  0.00    -0.339 N 
ATOM      4  HN  UNL     1     -33.831   9.802  21.525  1.00  0.00     0.167 HD
HETATM    5  C   UNL     1     -31.362   7.662  21.124  1.00  0.00     0.106 A 
HETATM    6  C   UNL     1     -34.627   6.621  23.973  1.00  0.00     0.097 A 
HETATM    7  C   UNL     1     -34.799   7.892  23.354  1.00  0.00     0.108 A 
HETATM    8  N   UNL     1     -32.980   6.879  22.660  1.00  0.00    -0.202 N 
HETATM    9  N   UNL     1     -33.527   6.028  23.550  1.00  0.00    -0.286 N 
ATOM     10  HN  UNL     1     -33.167   5.117  23.835  1.00  0.00     0.188 HD
HETATM   11  O   UNL     1     -31.105   5.663  22.324  1.00  0.00    -0.266 OA
HETATM   12  C   UNL     1     -31.746   6.654  22.048  1.00  0.00     0.270 A 
ENDROOT
BRANCH   2  13
HETATM   13  C   UNL     1     -31.794   9.823  19.909  1.00  0.00    -0.009 A 
HETATM   14  C   UNL     1     -30.550   9.837  19.293  1.00  0.00     0.014 A 
HETATM   15  C   UNL     1     -30.271  10.730  18.287  1.00  0.00     0.008 A 
HETATM   16  C   UNL     1     -31.207  11.656  17.877  1.00  0.00    -0.054 A 
HETATM   17  C   UNL     1     -32.422  11.678  18.524  1.00  0.00     0.008 A 
HETATM   18  C   UNL     1     -32.722  10.777  19.511  1.00  0.00     0.014 A 
BRANCH  16  19
HETATM   19  C   UNL     1     -30.970  12.587  16.711  1.00  0.00     0.018 C 
HETATM   20  C   UNL     1     -29.656  13.336  16.766  1.00  0.00     0.009 C 
HETATM   21  C   UNL     1     -29.583  14.381  15.669  1.00  0.00     0.001 C 
HETATM   22  C   UNL     1     -29.784  13.772  14.301  1.00  0.00     0.000 C 
HETATM   23  C   UNL     1     -31.054  12.960  14.239  1.00  0.00     0.001 C 
HETATM   24  C   UNL     1     -31.099  11.926  15.353  1.00  0.00     0.009 C 
ENDBRANCH  16  19
ENDBRANCH   2  13
BRANCH   7  25
HETATM   25  C   UNL     1     -35.912   8.837  23.549  1.00  0.00     0.260 C 
HETATM   26  N   UNL     1     -36.394   9.499  22.496  1.00  0.00    -0.347 N 
HETATM   27  C   UNL     1     -37.504  10.455  22.409  1.00  0.00     0.134 C 
HETATM   28  C   UNL     1     -36.222   9.399  21.048  1.00  0.00     0.134 C 
HETATM   29  C   UNL     1     -37.273  10.518  20.906  1.00  0.00     0.050 C 
HETATM   30  O   UNL     1     -36.359   8.960  24.654  1.00  0.00    -0.267 OA
BRANCH  29  31
HETATM   31  C   UNL     1     -36.710  11.811  20.411  1.00  0.00     0.230 C 
HETATM   32  F   UNL     1     -36.693  11.806  19.121  1.00  0.00    -0.255 F 
ENDBRANCH  29  31
ENDBRANCH   7  25
BRANCH   6  33
HETATM   33  C   UNL     1     -35.530   5.938  24.871  1.00  0.00     0.084 A 
HETATM   34  N   UNL     1     -36.388   5.072  24.320  1.00  0.00    -0.361 N 
HETATM   35  C   UNL     1     -37.099   4.312  25.152  1.00  0.00     0.105 A 
ATOM     36  HN  UNL     1     -36.493   4.998  23.308  1.00  0.00     0.165 HD
HETATM   37  C   UNL     1     -36.992   4.428  26.506  1.00  0.00     0.105 A 
HETATM   38  N   UNL     1     -36.159   5.300  27.075  1.00  0.00    -0.366 N 
HETATM   39  C   UNL     1     -35.411   6.066  26.279  1.00  0.00     0.034 A 
ATOM     40  HN  UNL     1     -36.095   5.379  28.090  1.00  0.00     0.165 HD
HETATM   41  C   UNL     1     -34.457   6.994  26.965  1.00  0.00     0.070 C 
ENDBRANCH   6  33
TORSDOF 5
ENDMDL
MODEL 2
REMARK VINA RESULT:   -13.256      2.118      2.620
REMARK INTER + INTRA:         -18.063
REMARK INTER:                 -17.660
REMARK INTRA:                  -0.403
REMARK UNBOUND:                -0.932
REMARK  5 active torsions:
REMARK  status: ('A' for Active; 'I' for Inactive)
REMARK    1  A    between atoms: C_4  and  C_23 
REMARK    2  A    between atoms: C_10  and  C_15 
REMARK    3  A    between atoms: C_11  and  C_35 
REMARK    4  A    between atoms: C_26  and  C_29 
REMARK       I    between atoms: C_35  and  N_41 
REMARK    5  A    between atoms: C_37  and  C_39 
ROOT
HETATM    1  C   UNL     1     -33.648   7.803  22.467  1.00  0.00     0.149 A 
HETATM    2  C   UNL     1     -32.132   8.713  20.862  1.00  0.00     0.049 A 
HETATM    3  N   UNL     1     -33.309   8.773  21.584  1.00  0.00    -0.339 N 
ATOM      4  HN  UNL     1     -33.937   9.565  21.449  1.00  0.00     0.167 HD
HETATM    5  C   UNL     1     -31.260   7.681  21.099  1.00  0.00     0.106 A 
HETATM    6  C   UNL     1     -34.433   6.349  23.930  1.00  0.00     0.097 A 
HETATM    7  C   UNL     1     -34.726   7.589  23.294  1.00  0.00     0.108 A 
HETATM    8  N   UNL     1     -32.807   6.757  22.630  1.00  0.00    -0.202 N 
HETATM    9  N   UNL     1     -33.275   5.865  23.525  1.00  0.00    -0.286 N 
ATOM     10  HN  UNL     1     -32.828   4.999  23.826  1.00  0.00     0.188 HD
HETATM   11  O   UNL     1     -30.816   5.732  22.327  1.00  0.00    -0.266 OA
HETATM   12  C   UNL     1     -31.550   6.650  22.032  1.00  0.00     0.270 A 
ENDROOT
BRANCH   2  13
HETATM   13  C   UNL     1     -31.895   9.772  19.852  1.00  0.00    -0.009 A 
HETATM   14  C   UNL     1     -30.664   9.881  19.220  1.00  0.00     0.014 A 
HETATM   15  C   UNL     1     -30.469  10.786  18.204  1.00  0.00     0.008 A 
HETATM   16  C   UNL     1     -31.481  11.632  17.802  1.00  0.00    -0.054 A 
HETATM   17  C   UNL     1     -32.686  11.562  18.464  1.00  0.00     0.008 A 
HETATM   18  C   UNL     1     -32.901  10.647  19.460  1.00  0.00     0.014 A 
BRANCH  16  19
HETATM   19  C   UNL     1     -31.334  12.571  16.627  1.00  0.00     0.018 C 
HETATM   20  C   UNL     1     -30.242  13.606  16.788  1.00  0.00     0.009 C 
HETATM   21  C   UNL     1     -30.287  14.620  15.659  1.00  0.00     0.001 C 
HETATM   22  C   UNL     1     -30.185  13.955  14.307  1.00  0.00     0.000 C 
HETATM   23  C   UNL     1     -31.219  12.868  14.146  1.00  0.00     0.001 C 
HETATM   24  C   UNL     1     -31.151  11.873  15.293  1.00  0.00     0.009 C 
ENDBRANCH  16  19
ENDBRANCH   2  13
BRANCH   7  25
HETATM   25  C   UNL     1     -35.930   8.419  23.466  1.00  0.00     0.260 C 
HETATM   26  N   UNL     1     -36.437   8.581  24.690  1.00  0.00    -0.347 N 
HETATM   27  C   UNL     1     -37.589   9.372  25.138  1.00  0.00     0.134 C 
HETATM   28  C   UNL     1     -35.978   8.278  26.044  1.00  0.00     0.134 C 
HETATM   29  C   UNL     1     -37.258   8.963  26.566  1.00  0.00     0.050 C 
HETATM   30  O   UNL     1     -36.401   8.939  22.495  1.00  0.00    -0.267 OA
BRANCH  29  31
HETATM   31  C   UNL     1     -38.232   8.018  27.191  1.00  0.00     0.230 C 
HETATM   32  F   UNL     1     -38.090   8.038  28.473  1.00  0.00    -0.255 F 
ENDBRANCH  29  31
ENDBRANCH   7  25
BRANCH   6  33
HETATM   33  C   UNL     1     -35.272   5.590  24.829  1.00  0.00     0.084 A 
HETATM   34  N   UNL     1     -36.427   5.132  24.333  1.00  0.00    -0.361 N 
HETATM   35  C   UNL     1     -37.120   4.286  25.096  1.00  0.00     0.105 A 
ATOM     36  HN  UNL     1     -36.762   5.418  23.413  1.00  0.00     0.165 HD
HETATM   37  C   UNL     1     -36.699   3.926  26.340  1.00  0.00     0.105 A 
HETATM   38  N   UNL     1     -35.562   4.389  26.862  1.00  0.00    -0.366 N 
HETATM   39  C   UNL     1     -34.825   5.220  26.124  1.00  0.00     0.034 A 
ATOM     40  HN  UNL     1     -35.265   4.114  27.799  1.00  0.00     0.165 HD
HETATM   41  C   UNL     1     -33.535   5.674  26.734  1.00  0.00     0.070 C 
ENDBRANCH   6  33
TORSDOF 5
ENDMDL
