REMARK  8 active torsions:
REMARK  status: ('A' for Active; 'I' for Inactive)
REMARK    1  A    between atoms: C_1  and  C_2 
REMARK    2  A    between atoms: C_1  and  O_9 
REMARK    3  A    between atoms: C_2  and  N_7 
REMARK    4  A    between atoms: C_3  and  C_4 
REMARK    5  A    between atoms: C_3  and  N_7 
REMARK       I    between atoms: C_4  and  N_8 
REMARK    6  A    between atoms: C_5  and  C_6 
REMARK    7  A    between atoms: C_5  and  N_8 
REMARK    8  A    between atoms: C_6  and  O_11 
ROOT
HETATM    1  C   UNL     1      -0.243  -0.777   1.264  1.00  0.00     0.245 C 
HETATM    2  N   UNL     1       0.882   0.060   1.564  1.00  0.00    -0.358 N 
HETATM    3  O   UNL     1      -0.237  -1.997   1.584  1.00  0.00    -0.272 OA
HETATM    4  H   UNL     1       0.865   1.057   1.250  1.00  0.00     0.162 HD
ENDROOT
BRANCH   1   5
HETATM    5  C   UNL     1      -1.417  -0.214   0.523  1.00  0.00     0.371 C 
BRANCH   5   6
HETATM    6  N   UNL     1      -1.072  -0.048  -0.892  1.00  0.00     0.094 N 
HETATM    7  H   UNL     1      -0.912  -1.002  -1.293  1.00  0.00     0.316 HD
BRANCH   6   8
HETATM    8  C   UNL     1      -2.189   0.566  -1.621  1.00  0.00     0.295 C 
BRANCH   8   9
HETATM    9  C   UNL     1      -1.772   0.911  -3.051  1.00  0.00     0.194 C 
BRANCH   9  10
HETATM   10  O   UNL     1      -1.546  -0.256  -3.796  1.00  0.00    -0.399 OA
HETATM   11  H   UNL     1      -0.589  -0.494  -3.675  1.00  0.00     0.209 HD
ENDBRANCH   9  10
ENDBRANCH   8   9
ENDBRANCH   6   8
ENDBRANCH   5   6
ENDBRANCH   1   5
BRANCH   2  12
HETATM   12  C   UNL     1       2.119  -0.457   2.146  1.00  0.00     0.148 C 
BRANCH  12  13
HETATM   13  C   UNL     1       3.126  -0.804   1.050  1.00  0.00     0.183 C 
BRANCH  13  14
HETATM   14  O   UNL     1       2.666  -1.880   0.277  1.00  0.00    -0.399 OA
HETATM   15  H   UNL     1       2.082  -1.496  -0.429  1.00  0.00     0.209 HD
ENDBRANCH  13  14
ENDBRANCH  12  13
ENDBRANCH   2  12
TORSDOF 8
