MODEL 1
REMARK VINA RESULT:    -4.687      0.000      0.000
REMARK INTER + INTRA:          -4.687
REMARK INTER:                  -4.687
REMARK INTRA:                   0.000
REMARK UNBOUND:                 0.000
REMARK  0 active torsions:
REMARK  status: ('A' for Active; 'I' for Inactive)
ROOT
HETATM    1  C   UNL     1       4.800  -4.332  18.692  1.00  0.00     0.115 A 
HETATM    2  N   UNL     1       5.254  -5.373  17.967  1.00  0.00    -0.385 N 
ATOM      3  HN1 UNL     1       6.196  -5.345  17.576  1.00  0.00     0.157 HD
ATOM      4  HN2 UNL     1       4.660  -6.175  17.761  1.00  0.00     0.157 HD
HETATM    5  C   UNL     1       3.108  -3.329  19.925  1.00  0.00     0.183 A 
HETATM    6  N   UNL     1       3.568  -4.369  19.203  1.00  0.00    -0.338 N 
ATOM      7  HN  UNL     1       2.976  -5.185  19.049  1.00  0.00     0.168 HD
HETATM    8  C   UNL     1       5.088  -2.181  19.700  1.00  0.00     0.136 A 
HETATM    9  N   UNL     1       3.833  -2.233  20.170  1.00  0.00    -0.337 N 
ATOM     10  HN  UNL     1       3.442  -1.455  20.702  1.00  0.00     0.168 HD
HETATM   11  C   UNL     1       5.618  -3.226  18.975  1.00  0.00     0.070 A 
HETATM   12  N   UNL     1       7.162  -1.646  19.076  1.00  0.00    -0.309 N 
ATOM     13  HN  UNL     1       8.033  -1.124  18.982  1.00  0.00     0.186 HD
HETATM   14  C   UNL     1       6.920  -2.846  18.573  1.00  0.00     0.126 A 
HETATM   15  N   UNL     1       6.033  -1.223  19.749  1.00  0.00    -0.285 N 
ATOM     16  HN  UNL     1       5.931  -0.320  20.213  1.00  0.00     0.188 HD
ENDROOT
TORSDOF 0
ENDMDL
MODEL 2
REMARK VINA RESULT:    -4.665      1.308      2.837
REMARK INTER + INTRA:          -4.665
REMARK INTER:                  -4.665
REMARK INTRA:                   0.000
REMARK UNBOUND:                 0.000
REMARK  0 active torsions:
REMARK  status: ('A' for Active; 'I' for Inactive)
ROOT
HETATM    1  C   UNL     1       4.344  -5.135  18.266  1.00  0.00     0.115 A 
HETATM    2  N   UNL     1       3.366  -6.014  17.973  1.00  0.00    -0.385 N 
ATOM      3  HN1 UNL     1       2.451  -5.920  18.414  1.00  0.00     0.157 HD
ATOM      4  HN2 UNL     1       3.533  -6.803  17.349  1.00  0.00     0.157 HD
HETATM    5  C   UNL     1       6.522  -4.383  17.983  1.00  0.00     0.183 A 
HETATM    6  N   UNL     1       5.540  -5.257  17.688  1.00  0.00    -0.338 N 
ATOM      7  HN  UNL     1       5.712  -6.012  17.024  1.00  0.00     0.168 HD
HETATM    8  C   UNL     1       5.162  -3.196  19.407  1.00  0.00     0.136 A 
HETATM    9  N   UNL     1       6.363  -3.368  18.838  1.00  0.00    -0.337 N 
ATOM     10  HN  UNL     1       7.138  -2.739  19.052  1.00  0.00     0.168 HD
HETATM   11  C   UNL     1       4.115  -4.047  19.126  1.00  0.00     0.070 A 
HETATM   12  N   UNL     1       3.386  -2.577  20.608  1.00  0.00    -0.309 N 
ATOM     13  HN  UNL     1       2.796  -2.042  21.245  1.00  0.00     0.186 HD
HETATM   14  C   UNL     1       3.016  -3.645  19.921  1.00  0.00     0.126 A 
HETATM   15  N   UNL     1       4.709  -2.311  20.316  1.00  0.00    -0.285 N 
ATOM     16  HN  UNL     1       5.260  -1.556  20.726  1.00  0.00     0.188 HD
ENDROOT
TORSDOF 0
ENDMDL
MODEL 3
REMARK VINA RESULT:    -4.629      1.083      3.341
REMARK INTER + INTRA:          -4.629
REMARK INTER:                  -4.629
REMARK INTRA:                   0.000
REMARK UNBOUND:                 0.000
REMARK  0 active torsions:
REMARK  status: ('A' for Active; 'I' for Inactive)
ROOT
HETATM    1  C   UNL     1       6.729  -2.791  18.779  1.00  0.00     0.115 A 
HETATM    2  N   UNL     1       7.554  -1.763  19.057  1.00  0.00    -0.385 N 
ATOM      3  HN1 UNL     1       7.246  -1.022  19.687  1.00  0.00     0.157 HD
ATOM      4  HN2 UNL     1       8.470  -1.684  18.616  1.00  0.00     0.157 HD
HETATM    5  C   UNL     1       6.309  -4.788  17.672  1.00  0.00     0.183 A 
HETATM    6  N   UNL     1       7.133  -3.761  17.956  1.00  0.00    -0.338 N 
ATOM      7  HN  UNL     1       8.065  -3.725  17.543  1.00  0.00     0.168 HD
HETATM    8  C   UNL     1       4.658  -3.961  19.042  1.00  0.00     0.136 A 
HETATM    9  N   UNL     1       5.079  -4.900  18.184  1.00  0.00    -0.337 N 
ATOM     10  HN  UNL     1       4.476  -5.682  17.927  1.00  0.00     0.168 HD
HETATM   11  C   UNL     1       5.467  -2.900  19.387  1.00  0.00     0.070 A 
HETATM   12  N   UNL     1       3.541  -2.626  20.439  1.00  0.00    -0.309 N 
ATOM     13  HN  UNL     1       2.799  -2.270  21.041  1.00  0.00     0.186 HD
HETATM   14  C   UNL     1       4.723  -2.061  20.249  1.00  0.00     0.126 A 
HETATM   15  N   UNL     1       3.487  -3.780  19.683  1.00  0.00    -0.285 N 
ATOM     16  HN  UNL     1       2.681  -4.402  19.619  1.00  0.00     0.188 HD
ENDROOT
TORSDOF 0
ENDMDL
MODEL 4
REMARK VINA RESULT:    -4.589      1.620      2.275
REMARK INTER + INTRA:          -4.589
REMARK INTER:                  -4.589
REMARK INTRA:                   0.000
REMARK UNBOUND:                 0.000
REMARK  0 active torsions:
REMARK  status: ('A' for Active; 'I' for Inactive)
ROOT
HETATM    1  C   UNL     1       3.228  -5.310  18.509  1.00  0.00     0.115 A 
HETATM    2  N   UNL     1       4.016  -6.341  18.148  1.00  0.00    -0.385 N 
ATOM      3  HN1 UNL     1       5.025  -6.278  18.283  1.00  0.00     0.157 HD
ATOM      4  HN2 UNL     1       3.631  -7.172  17.699  1.00  0.00     0.157 HD
HETATM    5  C   UNL     1       1.116  -4.363  18.689  1.00  0.00     0.183 A 
HETATM    6  N   UNL     1       1.907  -5.394  18.334  1.00  0.00    -0.338 N 
ATOM      7  HN  UNL     1       1.498  -6.236  17.931  1.00  0.00     0.168 HD
HETATM    8  C   UNL     1       2.904  -3.134  19.450  1.00  0.00     0.136 A 
HETATM    9  N   UNL     1       1.586  -3.234  19.227  1.00  0.00    -0.337 N 
ATOM     10  HN  UNL     1       0.956  -2.466  19.463  1.00  0.00     0.168 HD
HETATM   11  C   UNL     1       3.758  -4.166  19.127  1.00  0.00     0.070 A 
HETATM   12  N   UNL     1       4.993  -2.519  19.935  1.00  0.00    -0.309 N 
ATOM     13  HN  UNL     1       5.777  -1.961  20.274  1.00  0.00     0.186 HD
HETATM   14  C   UNL     1       5.074  -3.736  19.421  1.00  0.00     0.126 A 
HETATM   15  N   UNL     1       3.667  -2.135  19.934  1.00  0.00    -0.285 N 
ATOM     16  HN  UNL     1       3.318  -1.231  20.252  1.00  0.00     0.188 HD
ENDROOT
TORSDOF 0
ENDMDL
MODEL 5
REMARK VINA RESULT:    -4.575      0.945      2.871
REMARK INTER + INTRA:          -4.575
REMARK INTER:                  -4.575
REMARK INTRA:                   0.000
REMARK UNBOUND:                 0.000
REMARK  0 active torsions:
REMARK  status: ('A' for Active; 'I' for Inactive)
ROOT
HETATM    1  C   UNL     1       6.071  -3.872  18.381  1.00  0.00     0.115 A 
HETATM    2  N   UNL     1       6.076  -5.087  17.799  1.00  0.00    -0.385 N 
ATOM      3  HN1 UNL     1       5.280  -5.713  17.927  1.00  0.00     0.157 HD
ATOM      4  HN2 UNL     1       6.879  -5.416  17.265  1.00  0.00     0.157 HD
HETATM    5  C   UNL     1       7.113  -1.839  18.797  1.00  0.00     0.183 A 
HETATM    6  N   UNL     1       7.111  -3.053  18.212  1.00  0.00    -0.338 N 
ATOM      7  HN  UNL     1       7.904  -3.346  17.642  1.00  0.00     0.168 HD
HETATM    8  C   UNL     1       5.030  -2.175  19.710  1.00  0.00     0.136 A 
HETATM    9  N   UNL     1       6.105  -1.391  19.551  1.00  0.00    -0.337 N 
ATOM     10  HN  UNL     1       6.153  -0.474  19.996  1.00  0.00     0.168 HD
HETATM   11  C   UNL     1       4.964  -3.418  19.117  1.00  0.00     0.070 A 
HETATM   12  N   UNL     1       3.104  -3.147  20.283  1.00  0.00    -0.309 N 
ATOM     13  HN  UNL     1       2.182  -3.283  20.697  1.00  0.00     0.186 HD
HETATM   14  C   UNL     1       3.747  -4.017  19.520  1.00  0.00     0.126 A 
HETATM   15  N   UNL     1       3.896  -2.025  20.422  1.00  0.00    -0.285 N 
ATOM     16  HN  UNL     1       3.659  -1.205  20.981  1.00  0.00     0.188 HD
ENDROOT
TORSDOF 0
ENDMDL
MODEL 6
REMARK VINA RESULT:    -4.555      1.886      3.650
REMARK INTER + INTRA:          -4.555
REMARK INTER:                  -4.555
REMARK INTRA:                   0.000
REMARK UNBOUND:                 0.000
REMARK  0 active torsions:
REMARK  status: ('A' for Active; 'I' for Inactive)
ROOT
HETATM    1  C   UNL     1       6.923  -4.451  17.275  1.00  0.00     0.115 A 
HETATM    2  N   UNL     1       6.012  -5.437  17.394  1.00  0.00    -0.385 N 
ATOM      3  HN1 UNL     1       5.272  -5.361  18.092  1.00  0.00     0.157 HD
ATOM      4  HN2 UNL     1       6.070  -6.283  16.829  1.00  0.00     0.157 HD
HETATM    5  C   UNL     1       8.805  -3.568  16.242  1.00  0.00     0.183 A 
HETATM    6  N   UNL     1       7.890  -4.549  16.361  1.00  0.00    -0.338 N 
ATOM      7  HN  UNL     1       7.936  -5.366  15.752  1.00  0.00     0.168 HD
HETATM    8  C   UNL     1       7.819  -2.323  17.905  1.00  0.00     0.136 A 
HETATM    9  N   UNL     1       8.799  -2.469  17.002  1.00  0.00    -0.337 N 
ATOM     10  HN  UNL     1       9.523  -1.757  16.897  1.00  0.00     0.168 HD
HETATM   11  C   UNL     1       6.843  -3.285  18.054  1.00  0.00     0.070 A 
HETATM   12  N   UNL     1       6.438  -1.701  19.544  1.00  0.00    -0.309 N 
ATOM     13  HN  UNL     1       6.013  -1.139  20.281  1.00  0.00     0.186 HD
HETATM   14  C   UNL     1       6.002  -2.874  19.115  1.00  0.00     0.126 A 
HETATM   15  N   UNL     1       7.566  -1.368  18.821  1.00  0.00    -0.285 N 
ATOM     16  HN  UNL     1       8.125  -0.525  18.960  1.00  0.00     0.188 HD
ENDROOT
TORSDOF 0
ENDMDL
MODEL 7
REMARK VINA RESULT:    -4.538      2.074      4.077
REMARK INTER + INTRA:          -4.538
REMARK INTER:                  -4.538
REMARK INTRA:                   0.000
REMARK UNBOUND:                 0.000
REMARK  0 active torsions:
REMARK  status: ('A' for Active; 'I' for Inactive)
ROOT
HETATM    1  C   UNL     1       2.426  -2.996  18.860  1.00  0.00     0.115 A 
HETATM    2  N   UNL     1       1.313  -2.357  18.452  1.00  0.00    -0.385 N 
ATOM      3  HN1 UNL     1       0.676  -2.814  17.800  1.00  0.00     0.157 HD
ATOM      4  HN2 UNL     1       1.111  -1.402  18.748  1.00  0.00     0.157 HD
HETATM    5  C   UNL     1       4.375  -3.032  20.121  1.00  0.00     0.183 A 
HETATM    6  N   UNL     1       3.258  -2.398  19.715  1.00  0.00    -0.338 N 
ATOM      7  HN  UNL     1       3.049  -1.461  20.059  1.00  0.00     0.168 HD
HETATM    8  C   UNL     1       3.872  -4.904  18.884  1.00  0.00     0.136 A 
HETATM    9  N   UNL     1       4.706  -4.261  19.714  1.00  0.00    -0.337 N 
ATOM     10  HN  UNL     1       5.572  -4.700  20.027  1.00  0.00     0.168 HD
HETATM   11  C   UNL     1       2.703  -4.312  18.453  1.00  0.00     0.070 A 
HETATM   12  N   UNL     1       2.831  -6.296  17.485  1.00  0.00    -0.309 N 
ATOM     13  HN  UNL     1       2.622  -7.132  16.939  1.00  0.00     0.186 HD
HETATM   14  C   UNL     1       2.083  -5.207  17.550  1.00  0.00     0.126 A 
HETATM   15  N   UNL     1       3.942  -6.107  18.283  1.00  0.00    -0.285 N 
ATOM     16  HN  UNL     1       4.701  -6.778  18.400  1.00  0.00     0.188 HD
ENDROOT
TORSDOF 0
ENDMDL
MODEL 8
REMARK VINA RESULT:    -4.458      1.170      1.540
REMARK INTER + INTRA:          -4.458
REMARK INTER:                  -4.458
REMARK INTRA:                   0.000
REMARK UNBOUND:                 0.000
REMARK  0 active torsions:
REMARK  status: ('A' for Active; 'I' for Inactive)
ROOT
HETATM    1  C   UNL     1       6.251  -4.631  17.655  1.00  0.00     0.115 A 
HETATM    2  N   UNL     1       6.951  -5.328  16.739  1.00  0.00    -0.385 N 
ATOM      3  HN1 UNL     1       7.863  -4.990  16.434  1.00  0.00     0.157 HD
ATOM      4  HN2 UNL     1       6.568  -6.169  16.307  1.00  0.00     0.157 HD
HETATM    5  C   UNL     1       4.351  -4.378  18.966  1.00  0.00     0.183 A 
HETATM    6  N   UNL     1       5.057  -5.074  18.054  1.00  0.00    -0.338 N 
ATOM      7  HN  UNL     1       4.679  -5.939  17.669  1.00  0.00     0.168 HD
HETATM    8  C   UNL     1       6.002  -2.789  19.163  1.00  0.00     0.136 A 
HETATM    9  N   UNL     1       4.791  -3.241  19.516  1.00  0.00    -0.337 N 
ATOM     10  HN  UNL     1       4.217  -2.730  20.187  1.00  0.00     0.168 HD
HETATM   11  C   UNL     1       6.777  -3.473  18.251  1.00  0.00     0.070 A 
HETATM   12  N   UNL     1       7.897  -1.657  18.834  1.00  0.00    -0.309 N 
ATOM     13  HN  UNL     1       8.619  -0.943  18.930  1.00  0.00     0.186 HD
HETATM   14  C   UNL     1       7.956  -2.718  18.045  1.00  0.00     0.126 A 
HETATM   15  N   UNL     1       6.691  -1.683  19.505  1.00  0.00    -0.285 N 
ATOM     16  HN  UNL     1       6.369  -0.971  20.161  1.00  0.00     0.188 HD
ENDROOT
TORSDOF 0
ENDMDL
MODEL 9
REMARK VINA RESULT:    -4.448      2.043      3.749
REMARK INTER + INTRA:          -4.448
REMARK INTER:                  -4.448
REMARK INTRA:                   0.000
REMARK UNBOUND:                 0.000
REMARK  0 active torsions:
REMARK  status: ('A' for Active; 'I' for Inactive)
ROOT
HETATM    1  C   UNL     1       2.996  -3.284  19.854  1.00  0.00     0.115 A 
HETATM    2  N   UNL     1       3.801  -2.323  20.347  1.00  0.00    -0.385 N 
ATOM      3  HN1 UNL     1       4.797  -2.333  20.125  1.00  0.00     0.157 HD
ATOM      4  HN2 UNL     1       3.445  -1.604  20.977  1.00  0.00     0.157 HD
HETATM    5  C   UNL     1       0.885  -4.231  19.657  1.00  0.00     0.183 A 
HETATM    6  N   UNL     1       1.693  -3.269  20.144  1.00  0.00    -0.338 N 
ATOM      7  HN  UNL     1       1.310  -2.531  20.733  1.00  0.00     0.168 HD
HETATM    8  C   UNL     1       2.618  -5.245  18.535  1.00  0.00     0.136 A 
HETATM    9  N   UNL     1       1.321  -5.223  18.874  1.00  0.00    -0.337 N 
ATOM     10  HN  UNL     1       0.682  -5.946  18.543  1.00  0.00     0.168 HD
HETATM   11  C   UNL     1       3.486  -4.274  18.986  1.00  0.00     0.070 A 
HETATM   12  N   UNL     1       4.667  -5.702  17.780  1.00  0.00    -0.309 N 
ATOM     13  HN  UNL     1       5.426  -6.165  17.280  1.00  0.00     0.186 HD
HETATM   14  C   UNL     1       4.777  -4.606  18.514  1.00  0.00     0.126 A 
HETATM   15  N   UNL     1       3.349  -6.112  17.809  1.00  0.00    -0.285 N 
ATOM     16  HN  UNL     1       2.984  -6.946  17.349  1.00  0.00     0.188 HD
ENDROOT
TORSDOF 0
ENDMDL
MODEL 10
REMARK VINA RESULT:    -4.448      9.690      9.935
REMARK INTER + INTRA:          -4.448
REMARK INTER:                  -4.448
REMARK INTRA:                   0.000
REMARK UNBOUND:                 0.000
REMARK  0 active torsions:
REMARK  status: ('A' for Active; 'I' for Inactive)
ROOT
HETATM    1  C   UNL     1       4.411   5.391  23.868  1.00  0.00     0.115 A 
HETATM    2  N   UNL     1       4.198   6.172  22.791  1.00  0.00    -0.385 N 
ATOM      3  HN1 UNL     1       4.973   6.697  22.385  1.00  0.00     0.157 HD
ATOM      4  HN2 UNL     1       3.266   6.287  22.394  1.00  0.00     0.157 HD
HETATM    5  C   UNL     1       3.604   3.925  25.478  1.00  0.00     0.183 A 
HETATM    6  N   UNL     1       3.397   4.704  24.398  1.00  0.00    -0.338 N 
ATOM      7  HN  UNL     1       2.466   4.767  23.986  1.00  0.00     0.168 HD
HETATM    8  C   UNL     1       5.844   4.441  25.532  1.00  0.00     0.136 A 
HETATM    9  N   UNL     1       4.798   3.792  26.063  1.00  0.00    -0.337 N 
ATOM     10  HN  UNL     1       4.911   3.210  26.893  1.00  0.00     0.168 HD
HETATM   11  C   UNL     1       5.695   5.233  24.414  1.00  0.00     0.070 A 
HETATM   12  N   UNL     1       7.814   5.363  25.034  1.00  0.00    -0.309 N 
ATOM     13  HN  UNL     1       8.809   5.585  25.072  1.00  0.00     0.186 HD
HETATM   14  C   UNL     1       6.952   5.823  24.141  1.00  0.00     0.126 A 
HETATM   15  N   UNL     1       7.136   4.533  25.904  1.00  0.00    -0.285 N 
ATOM     16  HN  UNL     1       7.550   4.061  26.708  1.00  0.00     0.188 HD
ENDROOT
TORSDOF 0
ENDMDL
MODEL 11
REMARK VINA RESULT:    -4.438      1.369      2.998
REMARK INTER + INTRA:          -4.438
REMARK INTER:                  -4.438
REMARK INTRA:                   0.000
REMARK UNBOUND:                 0.000
REMARK  0 active torsions:
REMARK  status: ('A' for Active; 'I' for Inactive)
ROOT
HETATM    1  C   UNL     1       6.150  -3.953  18.489  1.00  0.00     0.115 A 
HETATM    2  N   UNL     1       7.340  -3.327  18.572  1.00  0.00    -0.385 N 
ATOM      3  HN1 UNL     1       7.436  -2.497  19.157  1.00  0.00     0.157 HD
ATOM      4  HN2 UNL     1       8.142  -3.639  18.025  1.00  0.00     0.157 HD
HETATM    5  C   UNL     1       4.835  -5.665  17.634  1.00  0.00     0.183 A 
HETATM    6  N   UNL     1       6.025  -5.039  17.724  1.00  0.00    -0.338 N 
ATOM      7  HN  UNL     1       6.829  -5.395  17.207  1.00  0.00     0.168 HD
HETATM    8  C   UNL     1       3.847  -4.189  19.095  1.00  0.00     0.136 A 
HETATM    9  N   UNL     1       3.744  -5.256  18.289  1.00  0.00    -0.337 N 
ATOM     10  HN  UNL     1       2.855  -5.744  18.179  1.00  0.00     0.168 HD
HETATM   11  C   UNL     1       5.045  -3.524  19.242  1.00  0.00     0.070 A 
HETATM   12  N   UNL     1       3.546  -2.460  20.473  1.00  0.00    -0.309 N 
ATOM     13  HN  UNL     1       3.093  -1.812  21.117  1.00  0.00     0.186 HD
HETATM   14  C   UNL     1       4.815  -2.421  20.098  1.00  0.00     0.126 A 
HETATM   15  N   UNL     1       2.941  -3.529  19.843  1.00  0.00    -0.285 N 
ATOM     16  HN  UNL     1       1.956  -3.781  19.930  1.00  0.00     0.188 HD
ENDROOT
TORSDOF 0
ENDMDL
MODEL 12
REMARK VINA RESULT:    -4.405      9.615      9.994
REMARK INTER + INTRA:          -4.405
REMARK INTER:                  -4.405
REMARK INTRA:                   0.000
REMARK UNBOUND:                 0.000
REMARK  0 active torsions:
REMARK  status: ('A' for Active; 'I' for Inactive)
ROOT
HETATM    1  C   UNL     1       6.322   4.529  25.019  1.00  0.00     0.115 A 
HETATM    2  N   UNL     1       7.606   4.265  25.330  1.00  0.00    -0.385 N 
ATOM      3  HN1 UNL     1       8.355   4.785  24.873  1.00  0.00     0.157 HD
ATOM      4  HN2 UNL     1       7.852   3.522  25.984  1.00  0.00     0.157 HD
HETATM    5  C   UNL     1       4.058   4.106  25.305  1.00  0.00     0.183 A 
HETATM    6  N   UNL     1       5.343   3.849  25.617  1.00  0.00    -0.338 N 
ATOM      7  HN  UNL     1       5.566   3.135  26.310  1.00  0.00     0.168 HD
HETATM    8  C   UNL     1       4.654   5.757  23.819  1.00  0.00     0.136 A 
HETATM    9  N   UNL     1       3.695   5.031  24.411  1.00  0.00    -0.337 N 
ATOM     10  HN  UNL     1       2.711   5.182  24.185  1.00  0.00     0.168 HD
HETATM   11  C   UNL     1       5.985   5.552  24.117  1.00  0.00     0.070 A 
HETATM   12  N   UNL     1       5.893   7.132  22.572  1.00  0.00    -0.309 N 
ATOM     13  HN  UNL     1       6.142   7.865  21.908  1.00  0.00     0.186 HD
HETATM   14  C   UNL     1       6.742   6.417  23.293  1.00  0.00     0.126 A 
HETATM   15  N   UNL     1       4.612   6.715  22.873  1.00  0.00    -0.285 N 
ATOM     16  HN  UNL     1       3.760   7.078  22.444  1.00  0.00     0.188 HD
ENDROOT
TORSDOF 0
ENDMDL
MODEL 13
REMARK VINA RESULT:    -4.392      2.216      4.885
REMARK INTER + INTRA:          -4.392
REMARK INTER:                  -4.392
REMARK INTRA:                   0.000
REMARK UNBOUND:                 0.000
REMARK  0 active torsions:
REMARK  status: ('A' for Active; 'I' for Inactive)
ROOT
HETATM    1  C   UNL     1       7.761  -2.611  17.919  1.00  0.00     0.115 A 
HETATM    2  N   UNL     1       7.437  -1.781  18.929  1.00  0.00    -0.385 N 
ATOM      3  HN1 UNL     1       6.620  -1.981  19.507  1.00  0.00     0.157 HD
ATOM      4  HN2 UNL     1       7.965  -0.927  19.105  1.00  0.00     0.157 HD
HETATM    5  C   UNL     1       9.155  -3.174  16.150  1.00  0.00     0.183 A 
HETATM    6  N   UNL     1       8.830  -2.349  17.164  1.00  0.00    -0.338 N 
ATOM      7  HN  UNL     1       9.400  -1.525  17.354  1.00  0.00     0.168 HD
HETATM    8  C   UNL     1       7.398  -4.584  16.614  1.00  0.00     0.136 A 
HETATM    9  N   UNL     1       8.456  -4.273  15.851  1.00  0.00    -0.337 N 
ATOM     10  HN  UNL     1       8.720  -4.862  15.060  1.00  0.00     0.168 HD
HETATM   11  C   UNL     1       7.033  -3.788  17.678  1.00  0.00     0.070 A 
HETATM   12  N   UNL     1       5.566  -5.439  17.558  1.00  0.00    -0.309 N 
ATOM     13  HN  UNL     1       4.789  -6.071  17.750  1.00  0.00     0.186 HD
HETATM   14  C   UNL     1       5.856  -4.340  18.237  1.00  0.00     0.126 A 
HETATM   15  N   UNL     1       6.494  -5.581  16.546  1.00  0.00    -0.285 N 
ATOM     16  HN  UNL     1       6.496  -6.328  15.852  1.00  0.00     0.188 HD
ENDROOT
TORSDOF 0
ENDMDL
MODEL 14
REMARK VINA RESULT:    -4.378      5.249      6.909
REMARK INTER + INTRA:          -4.378
REMARK INTER:                  -4.378
REMARK INTRA:                   0.000
REMARK UNBOUND:                 0.000
REMARK  0 active torsions:
REMARK  status: ('A' for Active; 'I' for Inactive)
ROOT
HETATM    1  C   UNL     1       7.689  -5.886  15.387  1.00  0.00     0.115 A 
HETATM    2  N   UNL     1       8.014  -4.795  16.107  1.00  0.00    -0.385 N 
ATOM      3  HN1 UNL     1       7.447  -3.950  16.031  1.00  0.00     0.157 HD
ATOM      4  HN2 UNL     1       8.845  -4.777  16.698  1.00  0.00     0.157 HD
HETATM    5  C   UNL     1       8.111  -8.082  14.765  1.00  0.00     0.183 A 
HETATM    6  N   UNL     1       8.430  -6.991  15.487  1.00  0.00    -0.338 N 
ATOM      7  HN  UNL     1       9.238  -7.009  16.110  1.00  0.00     0.168 HD
HETATM    8  C   UNL     1       6.278  -7.046  13.840  1.00  0.00     0.136 A 
HETATM    9  N   UNL     1       7.064  -8.128  13.935  1.00  0.00    -0.337 N 
ATOM     10  HN  UNL     1       6.868  -8.967  13.388  1.00  0.00     0.168 HD
HETATM   11  C   UNL     1       6.544  -5.909  14.573  1.00  0.00     0.070 A 
HETATM   12  N   UNL     1       4.762  -5.490  13.332  1.00  0.00    -0.309 N 
ATOM     13  HN  UNL     1       3.948  -5.043  12.911  1.00  0.00     0.186 HD
HETATM   14  C   UNL     1       5.584  -4.936  14.209  1.00  0.00     0.126 A 
HETATM   15  N   UNL     1       5.197  -6.777  13.084  1.00  0.00    -0.285 N 
ATOM     16  HN  UNL     1       4.763  -7.426  12.427  1.00  0.00     0.188 HD
ENDROOT
TORSDOF 0
ENDMDL
MODEL 15
REMARK VINA RESULT:    -4.359      9.701     10.673
REMARK INTER + INTRA:          -4.359
REMARK INTER:                  -4.359
REMARK INTRA:                   0.000
REMARK UNBOUND:                 0.000
REMARK  0 active torsions:
REMARK  status: ('A' for Active; 'I' for Inactive)
ROOT
HETATM    1  C   UNL     1       6.968   5.321  25.284  1.00  0.00     0.115 A 
HETATM    2  N   UNL     1       7.395   4.607  26.344  1.00  0.00    -0.385 N 
ATOM      3  HN1 UNL     1       6.758   3.960  26.808  1.00  0.00     0.157 HD
ATOM      4  HN2 UNL     1       8.333   4.731  26.723  1.00  0.00     0.157 HD
HETATM    5  C   UNL     1       7.377   6.887  23.619  1.00  0.00     0.183 A 
HETATM    6  N   UNL     1       7.801   6.168  24.676  1.00  0.00    -0.338 N 
ATOM      7  HN  UNL     1       8.759   6.270  25.012  1.00  0.00     0.168 HD
HETATM    8  C   UNL     1       5.288   5.929  23.691  1.00  0.00     0.136 A 
HETATM    9  N   UNL     1       6.138   6.797  23.126  1.00  0.00    -0.337 N 
ATOM     10  HN  UNL     1       5.847   7.375  22.337  1.00  0.00     0.168 HD
HETATM   11  C   UNL     1       5.675   5.150  24.761  1.00  0.00     0.070 A 
HETATM   12  N   UNL     1       3.554   4.683  24.342  1.00  0.00    -0.309 N 
ATOM     13  HN  UNL     1       2.623   4.269  24.363  1.00  0.00     0.186 HD
HETATM   14  C   UNL     1       4.550   4.395  25.165  1.00  0.00     0.126 A 
HETATM   15  N   UNL     1       3.994   5.641  23.450  1.00  0.00    -0.285 N 
ATOM     16  HN  UNL     1       3.425   6.067  22.718  1.00  0.00     0.188 HD
ENDROOT
TORSDOF 0
ENDMDL
MODEL 16
REMARK VINA RESULT:    -4.343      2.504      4.366
REMARK INTER + INTRA:          -4.343
REMARK INTER:                  -4.343
REMARK INTRA:                   0.000
REMARK UNBOUND:                 0.000
REMARK  0 active torsions:
REMARK  status: ('A' for Active; 'I' for Inactive)
ROOT
HETATM    1  C   UNL     1       8.478  -2.849  17.018  1.00  0.00     0.115 A 
HETATM    2  N   UNL     1       9.461  -2.481  16.172  1.00  0.00    -0.385 N 
ATOM      3  HN1 UNL     1       9.664  -3.053  15.353  1.00  0.00     0.157 HD
ATOM      4  HN2 UNL     1      10.039  -1.661  16.356  1.00  0.00     0.157 HD
HETATM    5  C   UNL     1       7.234  -2.466  18.940  1.00  0.00     0.183 A 
HETATM    6  N   UNL     1       8.212  -2.099  18.089  1.00  0.00    -0.338 N 
ATOM      7  HN  UNL     1       8.748  -1.249  18.264  1.00  0.00     0.168 HD
HETATM    8  C   UNL     1       6.709  -4.317  17.681  1.00  0.00     0.136 A 
HETATM    9  N   UNL     1       6.490  -3.563  18.767  1.00  0.00    -0.337 N 
ATOM     10  HN  UNL     1       5.773  -3.820  19.446  1.00  0.00     0.168 HD
HETATM   11  C   UNL     1       7.681  -3.977  16.765  1.00  0.00     0.070 A 
HETATM   12  N   UNL     1       6.764  -5.869  16.078  1.00  0.00    -0.309 N 
ATOM     13  HN  UNL     1       6.522  -6.695  15.531  1.00  0.00     0.186 HD
HETATM   14  C   UNL     1       7.709  -4.992  15.779  1.00  0.00     0.126 A 
HETATM   15  N   UNL     1       6.163  -5.473  17.256  1.00  0.00    -0.285 N 
ATOM     16  HN  UNL     1       5.417  -5.980  17.733  1.00  0.00     0.188 HD
ENDROOT
TORSDOF 0
ENDMDL
MODEL 17
REMARK VINA RESULT:    -4.321      5.223      7.077
REMARK INTER + INTRA:          -4.321
REMARK INTER:                  -4.321
REMARK INTRA:                   0.000
REMARK UNBOUND:                 0.000
REMARK  0 active torsions:
REMARK  status: ('A' for Active; 'I' for Inactive)
ROOT
HETATM    1  C   UNL     1       6.007  -5.516  14.181  1.00  0.00     0.115 A 
HETATM    2  N   UNL     1       4.923  -5.002  13.568  1.00  0.00    -0.385 N 
ATOM      3  HN1 UNL     1       4.388  -5.578  12.917  1.00  0.00     0.157 HD
ATOM      4  HN2 UNL     1       4.647  -4.030  13.705  1.00  0.00     0.157 HD
HETATM    5  C   UNL     1       7.793  -5.272  15.643  1.00  0.00     0.183 A 
HETATM    6  N   UNL     1       6.706  -4.763  15.032  1.00  0.00    -0.338 N 
ATOM      7  HN  UNL     1       6.417  -3.803  15.220  1.00  0.00     0.168 HD
HETATM    8  C   UNL     1       7.520  -7.316  14.626  1.00  0.00     0.136 A 
HETATM    9  N   UNL     1       8.222  -6.522  15.447  1.00  0.00    -0.337 N 
ATOM     10  HN  UNL     1       9.064  -6.865  15.912  1.00  0.00     0.168 HD
HETATM   11  C   UNL     1       6.387  -6.856  13.991  1.00  0.00     0.070 A 
HETATM   12  N   UNL     1       6.713  -8.939  13.325  1.00  0.00    -0.309 N 
ATOM     13  HN  UNL     1       6.606  -9.850  12.879  1.00  0.00     0.186 HD
HETATM   14  C   UNL     1       5.916  -7.896  13.156  1.00  0.00     0.126 A 
HETATM   15  N   UNL     1       7.712  -8.582  14.207  1.00  0.00    -0.285 N 
ATOM     16  HN  UNL     1       8.481  -9.186  14.499  1.00  0.00     0.188 HD
ENDROOT
TORSDOF 0
ENDMDL
MODEL 18
REMARK VINA RESULT:    -4.317      9.952     10.674
REMARK INTER + INTRA:          -4.317
REMARK INTER:                  -4.317
REMARK INTRA:                   0.000
REMARK UNBOUND:                 0.000
REMARK  0 active torsions:
REMARK  status: ('A' for Active; 'I' for Inactive)
ROOT
HETATM    1  C   UNL     1       7.254   6.324  24.089  1.00  0.00     0.115 A 
HETATM    2  N   UNL     1       8.106   7.052  23.341  1.00  0.00    -0.385 N 
ATOM      3  HN1 UNL     1       7.798   7.428  22.444  1.00  0.00     0.157 HD
ATOM      4  HN2 UNL     1       9.072   7.200  23.630  1.00  0.00     0.157 HD
HETATM    5  C   UNL     1       6.810   5.100  26.011  1.00  0.00     0.183 A 
HETATM    6  N   UNL     1       7.657   5.832  25.262  1.00  0.00    -0.338 N 
ATOM      7  HN  UNL     1       8.606   6.011  25.592  1.00  0.00     0.168 HD
HETATM    8  C   UNL     1       5.107   5.344  24.486  1.00  0.00     0.136 A 
HETATM    9  N   UNL     1       5.554   4.834  25.642  1.00  0.00    -0.337 N 
ATOM     10  HN  UNL     1       4.949   4.256  26.227  1.00  0.00     0.168 HD
HETATM   11  C   UNL     1       5.923   6.119  23.690  1.00  0.00     0.070 A 
HETATM   12  N   UNL     1       3.981   5.926  22.650  1.00  0.00    -0.309 N 
ATOM     13  HN  UNL     1       3.217   6.023  21.981  1.00  0.00     0.186 HD
HETATM   14  C   UNL     1       5.190   6.448  22.525  1.00  0.00     0.126 A 
HETATM   15  N   UNL     1       3.931   5.227  23.840  1.00  0.00    -0.285 N 
ATOM     16  HN  UNL     1       3.124   4.702  24.178  1.00  0.00     0.188 HD
ENDROOT
TORSDOF 0
ENDMDL
MODEL 19
REMARK VINA RESULT:    -4.303      5.422      6.764
REMARK INTER + INTRA:          -4.303
REMARK INTER:                  -4.303
REMARK INTRA:                   0.000
REMARK UNBOUND:                 0.000
REMARK  0 active torsions:
REMARK  status: ('A' for Active; 'I' for Inactive)
ROOT
HETATM    1  C   UNL     1       7.510  -7.397  14.721  1.00  0.00     0.115 A 
HETATM    2  N   UNL     1       7.881  -8.692  14.689  1.00  0.00    -0.385 N 
ATOM      3  HN1 UNL     1       7.301  -9.373  14.199  1.00  0.00     0.157 HD
ATOM      4  HN2 UNL     1       8.711  -9.018  15.184  1.00  0.00     0.157 HD
HETATM    5  C   UNL     1       7.900  -5.211  15.399  1.00  0.00     0.183 A 
HETATM    6  N   UNL     1       8.270  -6.506  15.361  1.00  0.00    -0.338 N 
ATOM      7  HN  UNL     1       9.129  -6.805  15.821  1.00  0.00     0.168 HD
HETATM    8  C   UNL     1       6.025  -5.615  14.130  1.00  0.00     0.136 A 
HETATM    9  N   UNL     1       6.790  -4.752  14.813  1.00  0.00    -0.337 N 
ATOM     10  HN  UNL     1       6.532  -3.767  14.883  1.00  0.00     0.168 HD
HETATM   11  C   UNL     1       6.367  -6.948  14.039  1.00  0.00     0.070 A 
HETATM   12  N   UNL     1       4.454  -6.685  12.960  1.00  0.00    -0.309 N 
ATOM     13  HN  UNL     1       3.618  -6.849  12.401  1.00  0.00     0.186 HD
HETATM   14  C   UNL     1       5.341  -7.601  13.317  1.00  0.00     0.126 A 
HETATM   15  N   UNL     1       4.857  -5.469  13.477  1.00  0.00    -0.285 N 
ATOM     16  HN  UNL     1       4.345  -4.591  13.378  1.00  0.00     0.188 HD
ENDROOT
TORSDOF 0
ENDMDL
MODEL 20
REMARK VINA RESULT:    -4.222      1.928      4.082
REMARK INTER + INTRA:          -4.222
REMARK INTER:                  -4.222
REMARK INTRA:                   0.000
REMARK UNBOUND:                 0.000
REMARK  0 active torsions:
REMARK  status: ('A' for Active; 'I' for Inactive)
ROOT
HETATM    1  C   UNL     1       6.169  -3.353  18.872  1.00  0.00     0.115 A 
HETATM    2  N   UNL     1       5.100  -3.556  19.666  1.00  0.00    -0.385 N 
ATOM      3  HN1 UNL     1       4.488  -4.355  19.498  1.00  0.00     0.157 HD
ATOM      4  HN2 UNL     1       4.860  -2.901  20.410  1.00  0.00     0.157 HD
HETATM    5  C   UNL     1       8.036  -2.099  18.298  1.00  0.00     0.183 A 
HETATM    6  N   UNL     1       6.969  -2.308  19.093  1.00  0.00    -0.338 N 
ATOM      7  HN  UNL     1       6.773  -1.668  19.862  1.00  0.00     0.168 HD
HETATM    8  C   UNL     1       7.591  -3.979  17.052  1.00  0.00     0.136 A 
HETATM    9  N   UNL     1       8.354  -2.901  17.276  1.00  0.00    -0.337 N 
ATOM     10  HN  UNL     1       9.158  -2.697  16.683  1.00  0.00     0.168 HD
HETATM   11  C   UNL     1       6.500  -4.255  17.847  1.00  0.00     0.070 A 
HETATM   12  N   UNL     1       6.588  -5.821  16.288  1.00  0.00    -0.309 N 
ATOM     13  HN  UNL     1       6.401  -6.650  15.724  1.00  0.00     0.186 HD
HETATM   14  C   UNL     1       5.872  -5.409  17.322  1.00  0.00     0.126 A 
HETATM   15  N   UNL     1       7.630  -4.934  16.102  1.00  0.00    -0.285 N 
ATOM     16  HN  UNL     1       8.326  -4.994  15.358  1.00  0.00     0.188 HD
ENDROOT
TORSDOF 0
ENDMDL
