REMARK  13 active torsions:
REMARK  status: ('A' for Active; 'I' for Inactive)
REMARK    1  A    between atoms: C_1  and  C_4 
REMARK    2  A    between atoms: C_4  and  C_5 
REMARK    3  A    between atoms: C_5  and  C_8 
REMARK    4  A    between atoms: C_6  and  C_7 
REMARK    5  A    between atoms: C_6  and  C_8 
REMARK    6  A    between atoms: C_7  and  C_9 
REMARK    7  A    between atoms: C_9  and  C_10 
REMARK    8  A    between atoms: C_10  and  C_11 
REMARK    9  A    between atoms: C_11  and  C_12 
REMARK   10  A    between atoms: C_12  and  C_13 
REMARK   11  A    between atoms: C_13  and  C_14 
REMARK   12  A    between atoms: C_14  and  C_15 
REMARK   13  A    between atoms: C_15  and  C_16 
ROOT
HETATM    1  C   UNL     1      10.019 -20.045  -2.112  1.00  0.00     0.000 C 
ENDROOT
BRANCH   1   2
HETATM    2  C   UNL     1       9.968 -19.215  -3.362  1.00  0.00     0.000 C 
BRANCH   2   3
HETATM    3  C   UNL     1       8.645 -19.233  -4.116  1.00  0.00     0.000 C 
BRANCH   3   4
HETATM    4  C   UNL     1       8.174 -20.610  -4.499  1.00  0.00     0.001 C 
BRANCH   4   5
HETATM    5  C   UNL     1       6.940 -20.587  -5.382  1.00  0.00     0.010 C 
BRANCH   5   6
HETATM    6  C   UNL     1       6.324 -21.921  -5.643  1.00  0.00     0.113 C 
BRANCH   6   7
HETATM    7  C   UNL     1       5.097 -21.944  -6.513  1.00  0.00     0.172 C 
HETATM    8  O   UNL     1       4.481 -23.056  -6.622  1.00  0.00    -0.648 OA
HETATM    9  O   UNL     1       4.717 -20.893  -7.080  1.00  0.00    -0.648 OA
ENDBRANCH   6   7
ENDBRANCH   5   6
ENDBRANCH   4   5
ENDBRANCH   3   4
ENDBRANCH   2   3
ENDBRANCH   1   2
BRANCH   1  10
HETATM   10  C   UNL     1       9.011 -19.618  -1.086  1.00  0.00     0.000 C 
BRANCH  10  11
HETATM   11  C   UNL     1       9.051 -20.582   0.080  1.00  0.00     0.000 C 
BRANCH  11  12
HETATM   12  C   UNL     1       8.284 -20.177   1.283  1.00  0.00     0.000 C 
BRANCH  12  13
HETATM   13  C   UNL     1       6.839 -20.051   1.090  1.00  0.00     0.000 C 
BRANCH  13  14
HETATM   14  C   UNL     1       6.215 -20.973   0.105  1.00  0.00     0.000 C 
BRANCH  14  15
HETATM   15  C   UNL     1       4.756 -20.903   0.366  1.00  0.00    -0.000 C 
BRANCH  15  16
HETATM   16  C   UNL     1       3.828 -21.289  -0.768  1.00  0.00    -0.005 C 
HETATM   17  C   UNL     1       3.493 -20.056  -1.577  1.00  0.00     0.005 C 
ENDBRANCH  15  16
ENDBRANCH  14  15
ENDBRANCH  13  14
ENDBRANCH  12  13
ENDBRANCH  11  12
ENDBRANCH  10  11
ENDBRANCH   1  10
TORSDOF 13
