REMARK  1 active torsions:
REMARK  status: ('A' for Active; 'I' for Inactive)
REMARK    1  A    between atoms: C_4  and  O_7 
ROOT
HETATM    1  C   UNL     1       0.743   1.272  -0.837  1.00  0.00     0.030 A 
HETATM    2  C   UNL     1       1.545   1.276   0.310  1.00  0.00     0.075 A 
HETATM    3  C   UNL     1       1.153   0.547   1.441  1.00  0.00     0.174 A 
HETATM    4  C   UNL     1      -0.046  -0.186   1.423  1.00  0.00     0.145 A 
HETATM    5  C   UNL     1      -0.844  -0.185   0.271  1.00  0.00     0.152 A 
HETATM    6  C   UNL     1      -0.449   0.543  -0.856  1.00  0.00     0.047 A 
HETATM    7  F   UNL     1      -2.002  -0.890   0.245  1.00  0.00    -0.203 F 
HETATM    8  F   UNL     1       1.932   0.551   2.552  1.00  0.00    -0.201 F 
HETATM    9 CL   UNL     1       3.041   2.195   0.321  1.00  0.00    -0.081 Cl
ENDROOT
BRANCH   4  10
HETATM   10  O   UNL     1      -0.455  -0.918   2.537  1.00  0.00    -0.355 OA
HETATM   11  H   UNL     1       0.093  -0.946   3.389  1.00  0.00     0.218 HD
ENDBRANCH   4  10
TORSDOF 1
