REMARK  4 active torsions:
REMARK  status: ('A' for Active; 'I' for Inactive)
REMARK    1  A    between atoms: N_2  and  C_4 
REMARK    2  A    between atoms: N_8  and  C_10 
REMARK    3  A    between atoms: C_12  and  N_16 
REMARK       I    between atoms: N_16  and  C_17 
REMARK    4  A    between atoms: C_17  and  C_19 
ROOT
HETATM    1  N   UNL     1       1.557   0.396  -2.232  1.00  0.00    -0.322 N 
HETATM    2  C   UNL     1       1.306   1.338  -1.175  1.00  0.00     0.272 C 
HETATM    3  O   UNL     1       1.705   1.094  -0.004  1.00  0.00    -0.266 OA
HETATM    4  H   UNL     1       1.599   0.754  -3.212  1.00  0.00     0.169 HD
ENDROOT
BRANCH   1   5
HETATM    5  C   UNL     1       1.882  -0.987  -2.009  1.00  0.00     0.037 A 
HETATM    6  C   UNL     1       1.353  -1.697  -0.916  1.00  0.00     0.058 A 
HETATM    7  C   UNL     1       1.665  -3.054  -0.723  1.00  0.00     0.032 A 
HETATM    8  C   UNL     1       2.490  -3.706  -1.655  1.00  0.00     0.029 A 
HETATM    9  C   UNL     1       2.999  -3.011  -2.753  1.00  0.00     0.004 A 
HETATM   10  C   UNL     1       2.694  -1.660  -2.933  1.00  0.00     0.029 A 
BRANCH   7  11
HETATM   11  N   UNL     1       1.116  -3.776   0.397  1.00  0.00    -0.381 N 
HETATM   12  C   UNL     1       1.112  -3.186   1.744  1.00  0.00     0.125 C 
HETATM   13  C   UNL     1      -0.319  -3.111   2.305  1.00  0.00     0.055 C 
HETATM   14  C   UNL     1      -1.228  -4.272   1.800  1.00  0.00     0.225 C 
HETATM   15  C   UNL     1      -0.401  -5.497   1.357  1.00  0.00     0.055 C 
HETATM   16  C   UNL     1       0.525  -5.109   0.192  1.00  0.00     0.125 C 
BRANCH  14  17
HETATM   17  N   UNL     1      -2.315  -4.658   2.740  1.00  0.00     0.084 N 
HETATM   18  C   UNL     1      -3.337  -3.603   2.853  1.00  0.00     0.309 C 
HETATM   19  C   UNL     1      -1.869  -5.085   4.080  1.00  0.00     0.309 C 
ENDBRANCH  14  17
ENDBRANCH   7  11
ENDBRANCH   1   5
BRANCH   2  20
HETATM   20  C   UNL     1       0.620   2.614  -1.447  1.00  0.00     0.102 A 
HETATM   21  C   UNL     1       0.033   2.983  -2.656  1.00  0.00     0.052 A 
HETATM   22  C   UNL     1      -0.498   4.234  -2.429  1.00  0.00     0.032 A 
HETATM   23  C   UNL     1      -0.224   4.572  -1.128  1.00  0.00     0.052 A 
HETATM   24  C   UNL     1      -1.205   5.083  -3.277  1.00  0.00     0.129 A 
HETATM   25  C   UNL     1      -0.641   5.794  -0.582  1.00  0.00    -0.034 A 
HETATM   26  N   UNL     1       0.458   3.587  -0.517  1.00  0.00    -0.351 N 
HETATM   27  C   UNL     1      -0.342   6.154   0.844  1.00  0.00     0.050 C 
HETATM   28  C   UNL     1      -1.360   6.672  -1.424  1.00  0.00     0.012 A 
HETATM   29  C   UNL     1      -1.638   6.317  -2.762  1.00  0.00     0.044 A 
HETATM   30  H   UNL     1       0.791   3.571   0.473  1.00  0.00     0.166 HD
HETATM   31  F   UNL     1      -1.470   4.733  -4.560  1.00  0.00    -0.205 F 
ENDBRANCH   2  20
TORSDOF 4
