REMARK  4 active torsions:
REMARK  status: ('A' for Active; 'I' for Inactive)
REMARK    1  A    between atoms: N_2  and  C_4 
REMARK    2  A    between atoms: N_8  and  C_10 
REMARK    3  A    between atoms: C_12  and  N_16 
REMARK       I    between atoms: N_16  and  C_18 
REMARK    4  A    between atoms: C_18  and  C_20 
ROOT
HETATM    1  N   UNL     1      -4.482  29.844  10.582  1.00  0.00    -0.322 N 
ATOM      2  HN  UNL     1      -4.834  29.841   9.624  1.00  0.00     0.169 HD
HETATM    3  C   UNL     1      -4.850  30.860  11.386  1.00  0.00     0.272 C 
HETATM    4  O   UNL     1      -4.467  30.957  12.559  1.00  0.00    -0.266 OA
ENDROOT
BRANCH   1   5
HETATM    5  C   UNL     1      -3.649  28.794  10.977  1.00  0.00     0.037 A 
HETATM    6  C   UNL     1      -3.910  27.543  10.424  1.00  0.00     0.058 A 
HETATM    7  C   UNL     1      -3.117  26.403  10.705  1.00  0.00     0.032 A 
HETATM    8  C   UNL     1      -2.060  26.590  11.606  1.00  0.00     0.029 A 
HETATM    9  C   UNL     1      -1.815  27.829  12.164  1.00  0.00     0.004 A 
HETATM   10  C   UNL     1      -2.580  28.932  11.848  1.00  0.00     0.029 A 
BRANCH   7  11
HETATM   11  N   UNL     1      -3.405  25.147  10.083  1.00  0.00    -0.381 N 
HETATM   12  C   UNL     1      -2.667  23.960  10.564  1.00  0.00     0.125 C 
HETATM   13  C   UNL     1      -2.966  22.752   9.671  1.00  0.00     0.055 C 
HETATM   14  C   UNL     1      -4.453  22.379   9.724  1.00  0.00     0.225 C 
HETATM   15  C   UNL     1      -5.226  23.579   9.165  1.00  0.00     0.055 C 
HETATM   16  C   UNL     1      -4.840  24.897   9.838  1.00  0.00     0.125 C 
BRANCH  14  17
HETATM   17  N   UNL     1      -4.719  21.139   8.918  1.00  0.00     0.084 N 
HETATM   18  C   UNL     1      -4.166  19.895   9.524  1.00  0.00     0.309 C 
HETATM   19  C   UNL     1      -6.155  20.937   8.581  1.00  0.00     0.309 C 
ENDBRANCH  14  17
ENDBRANCH   7  11
ENDBRANCH   1   5
BRANCH   3  20
HETATM   20  C   UNL     1      -5.728  31.898  10.856  1.00  0.00     0.102 A 
HETATM   21  C   UNL     1      -6.467  31.907   9.713  1.00  0.00     0.052 A 
HETATM   22  C   UNL     1      -7.152  33.142   9.668  1.00  0.00     0.032 A 
HETATM   23  C   UNL     1      -6.789  33.857  10.827  1.00  0.00     0.052 A 
HETATM   24  C   UNL     1      -8.029  33.729   8.757  1.00  0.00     0.129 A 
HETATM   25  C   UNL     1      -7.306  35.125  11.089  1.00  0.00    -0.034 A 
HETATM   26  N   UNL     1      -5.938  33.073  11.543  1.00  0.00    -0.351 N 
HETATM   27  C   UNL     1      -6.859  35.832  12.356  1.00  0.00     0.050 C 
HETATM   28  C   UNL     1      -8.162  35.697  10.192  1.00  0.00     0.012 A 
HETATM   29  C   UNL     1      -8.526  34.988   9.031  1.00  0.00     0.044 A 
ATOM     30  HN  UNL     1      -5.523  33.316  12.442  1.00  0.00     0.166 HD
HETATM   31  F   UNL     1      -8.387  33.049   7.621  1.00  0.00    -0.205 F 
ENDBRANCH   3  20
TORSDOF 4
