MODEL 1
REMARK VINA RESULT:   -10.269      0.000      0.000
REMARK INTER + INTRA:         -12.305
REMARK INTER:                 -12.070
REMARK INTRA:                  -0.235
REMARK UNBOUND:                -0.235
REMARK  3 active torsions:
REMARK  status: ('A' for Active; 'I' for Inactive)
REMARK    1  A    between atoms: C_9  and  N_27 
REMARK    2  A    between atoms: C_11  and  C_18 
REMARK       I    between atoms: C_11  and  N_28 
REMARK    3  A    between atoms: C_18  and  N_29 
ROOT
HETATM    1  C   UNL     1     -13.408   7.728 -17.389  1.00  0.00     0.103 C 
HETATM    2  C   UNL     1     -12.668  10.015 -16.644  1.00  0.00     0.022 C 
HETATM    3  C   UNL     1     -12.997   7.894 -14.018  1.00  0.00     0.237 C 
HETATM    4  C   UNL     1     -11.790   9.343 -15.608  1.00  0.00     0.126 C 
HETATM    5  C   UNL     1     -12.513   7.122 -16.302  1.00  0.00     0.151 C 
HETATM    6  C   UNL     1     -12.876   9.085 -17.839  1.00  0.00     0.028 C 
HETATM    7  N   UNL     1     -12.419   8.083 -15.207  1.00  0.00    -0.349 N 
HETATM    8  O   UNL     1     -13.717   6.919 -13.799  1.00  0.00    -0.272 OA
ENDROOT
BRANCH   1   9
HETATM    9  N   UNL     1     -13.586   6.788 -18.503  1.00  0.00    -0.364 N 
HETATM   10  C   UNL     1     -12.479   6.685 -19.439  1.00  0.00     0.152 C 
HETATM   11  C   UNL     1     -14.736   6.106 -18.713  1.00  0.00     0.118 A 
HETATM   12  N   UNL     1     -14.934   5.643 -19.970  1.00  0.00    -0.338 N 
HETATM   13  C   UNL     1     -15.726   5.831 -17.729  1.00  0.00     0.053 A 
HETATM   14  C   UNL     1     -16.053   4.955 -20.231  1.00  0.00     0.183 A 
ATOM     15  HN  UNL     1     -14.245   5.815 -20.702  1.00  0.00     0.168 HD
HETATM   16  N   UNL     1     -17.053   4.657 -19.410  1.00  0.00    -0.338 N 
HETATM   17  C   UNL     1     -16.862   5.108 -18.159  1.00  0.00     0.120 A 
ATOM     18  HN  UNL     1     -17.882   4.138 -19.700  1.00  0.00     0.168 HD
HETATM   19  N   UNL     1     -17.703   4.945 -17.093  1.00  0.00    -0.351 N 
HETATM   20  C   UNL     1     -17.128   5.547 -15.996  1.00  0.00     0.091 A 
ATOM     21  HN  UNL     1     -18.601   4.460 -17.108  1.00  0.00     0.166 HD
HETATM   22  C   UNL     1     -15.927   6.091 -16.336  1.00  0.00     0.036 A 
ENDBRANCH   1   9
BRANCH   3  23
HETATM   23  C   UNL     1     -12.803   8.956 -12.952  1.00  0.00     0.222 C 
BRANCH  23  24
HETATM   24  N   UNL     1     -13.547   8.632 -11.752  1.00  0.00    -0.381 N 
HETATM   25  C   UNL     1     -13.147   7.716 -10.827  1.00  0.00     0.031 A 
HETATM   26  C   UNL     1     -13.853   7.594  -9.638  1.00  0.00     0.053 A 
HETATM   27  C   UNL     1     -12.024   6.928 -11.057  1.00  0.00     0.053 A 
HETATM   28  C   UNL     1     -13.431   6.664  -8.708  1.00  0.00     0.037 A 
HETATM   29 CL   UNL     1     -14.320   6.503  -7.228  1.00  0.00    -0.084 Cl
HETATM   30  C   UNL     1     -12.325   5.864  -8.901  1.00  0.00     0.048 A 
HETATM   31  C   UNL     1     -11.644   6.017 -10.091  1.00  0.00     0.037 A 
HETATM   32 CL   UNL     1     -10.256   5.013 -10.373  1.00  0.00    -0.084 Cl
ATOM     33  HN  UNL     1     -14.427   9.121 -11.590  1.00  0.00     0.160 HD
ENDBRANCH  23  24
ENDBRANCH   3  23
TORSDOF 3
ENDMDL
MODEL 2
REMARK VINA RESULT:    -9.585      5.057      8.924
REMARK INTER + INTRA:         -11.501
REMARK INTER:                 -10.407
REMARK INTRA:                  -1.093
REMARK UNBOUND:                -0.235
REMARK  3 active torsions:
REMARK  status: ('A' for Active; 'I' for Inactive)
REMARK    1  A    between atoms: C_9  and  N_27 
REMARK    2  A    between atoms: C_11  and  C_18 
REMARK       I    between atoms: C_11  and  N_28 
REMARK    3  A    between atoms: C_18  and  N_29 
ROOT
HETATM    1  C   UNL     1      -9.275  11.499 -11.410  1.00  0.00     0.103 C 
HETATM    2  C   UNL     1      -9.284   8.988 -11.229  1.00  0.00     0.022 C 
HETATM    3  C   UNL     1     -12.048  10.133 -12.825  1.00  0.00     0.237 C 
HETATM    4  C   UNL     1      -9.901   8.937 -12.612  1.00  0.00     0.126 C 
HETATM    5  C   UNL     1      -9.921  11.367 -12.793  1.00  0.00     0.151 C 
HETATM    6  C   UNL     1      -8.450  10.259 -11.073  1.00  0.00     0.028 C 
HETATM    7  N   UNL     1     -10.712  10.140 -12.807  1.00  0.00    -0.349 N 
HETATM    8  O   UNL     1     -12.699  11.176 -12.754  1.00  0.00    -0.272 OA
ENDROOT
BRANCH   1   9
HETATM    9  N   UNL     1      -8.501  12.743 -11.310  1.00  0.00    -0.364 N 
HETATM   10  C   UNL     1      -7.226  12.762 -12.009  1.00  0.00     0.152 C 
HETATM   11  C   UNL     1      -8.893  13.793 -10.553  1.00  0.00     0.118 A 
HETATM   12  N   UNL     1      -7.919  14.663 -10.192  1.00  0.00    -0.338 N 
HETATM   13  C   UNL     1     -10.225  14.057 -10.128  1.00  0.00     0.053 A 
HETATM   14  C   UNL     1      -8.253  15.725  -9.447  1.00  0.00     0.183 A 
ATOM     15  HN  UNL     1      -6.953  14.512 -10.481  1.00  0.00     0.168 HD
HETATM   16  N   UNL     1      -9.447  16.063  -8.973  1.00  0.00    -0.338 N 
HETATM   17  C   UNL     1     -10.419  15.208  -9.332  1.00  0.00     0.120 A 
ATOM     18  HN  UNL     1      -9.608  16.888  -8.396  1.00  0.00     0.168 HD
HETATM   19  N   UNL     1     -11.745  15.297  -9.013  1.00  0.00    -0.351 N 
HETATM   20  C   UNL     1     -12.398  14.229  -9.587  1.00  0.00     0.091 A 
ATOM     21  HN  UNL     1     -12.177  16.028  -8.447  1.00  0.00     0.166 HD
HETATM   22  C   UNL     1     -11.515  13.456 -10.277  1.00  0.00     0.036 A 
ENDBRANCH   1   9
BRANCH   3  23
HETATM   23  C   UNL     1     -12.756   8.791 -12.866  1.00  0.00     0.222 C 
BRANCH  23  24
HETATM   24  N   UNL     1     -13.478   8.547 -11.635  1.00  0.00    -0.381 N 
HETATM   25  C   UNL     1     -13.136   7.596 -10.721  1.00  0.00     0.031 A 
HETATM   26  C   UNL     1     -13.800   7.550  -9.503  1.00  0.00     0.053 A 
HETATM   27  C   UNL     1     -12.111   6.696 -10.992  1.00  0.00     0.053 A 
HETATM   28  C   UNL     1     -13.438   6.583  -8.585  1.00  0.00     0.037 A 
HETATM   29 CL   UNL     1     -14.276   6.517  -7.069  1.00  0.00    -0.084 Cl
HETATM   30  C   UNL     1     -12.429   5.673  -8.820  1.00  0.00     0.048 A 
HETATM   31  C   UNL     1     -11.786   5.753 -10.038  1.00  0.00     0.037 A 
HETATM   32 CL   UNL     1     -10.522   4.610 -10.372  1.00  0.00    -0.084 Cl
ATOM     33  HN  UNL     1     -14.296   9.124 -11.438  1.00  0.00     0.160 HD
ENDBRANCH  23  24
ENDBRANCH   3  23
TORSDOF 3
ENDMDL
MODEL 3
REMARK VINA RESULT:    -9.170      1.901      2.479
REMARK INTER + INTRA:         -11.013
REMARK INTER:                 -10.267
REMARK INTRA:                  -0.746
REMARK UNBOUND:                -0.235
REMARK  3 active torsions:
REMARK  status: ('A' for Active; 'I' for Inactive)
REMARK    1  A    between atoms: C_9  and  N_27 
REMARK    2  A    between atoms: C_11  and  C_18 
REMARK       I    between atoms: C_11  and  N_28 
REMARK    3  A    between atoms: C_18  and  N_29 
ROOT
HETATM    1  C   UNL     1     -12.618   7.791 -16.787  1.00  0.00     0.103 C 
HETATM    2  C   UNL     1     -12.910   9.296 -14.791  1.00  0.00     0.022 C 
HETATM    3  C   UNL     1      -9.895   7.744 -14.752  1.00  0.00     0.237 C 
HETATM    4  C   UNL     1     -11.443   9.658 -14.908  1.00  0.00     0.126 C 
HETATM    5  C   UNL     1     -11.138   8.187 -16.827  1.00  0.00     0.151 C 
HETATM    6  C   UNL     1     -13.462   8.896 -16.159  1.00  0.00     0.028 C 
HETATM    7  N   UNL     1     -10.721   8.513 -15.466  1.00  0.00    -0.349 N 
HETATM    8  O   UNL     1      -9.491   6.661 -15.179  1.00  0.00    -0.272 OA
ENDROOT
BRANCH   1   9
HETATM    9  N   UNL     1     -13.091   7.401 -18.122  1.00  0.00    -0.364 N 
HETATM   10  C   UNL     1     -12.191   7.683 -19.228  1.00  0.00     0.152 C 
HETATM   11  C   UNL     1     -14.321   6.883 -18.343  1.00  0.00     0.118 A 
HETATM   12  N   UNL     1     -14.792   6.987 -19.608  1.00  0.00    -0.338 N 
HETATM   13  C   UNL     1     -15.134   6.237 -17.371  1.00  0.00     0.053 A 
HETATM   14  C   UNL     1     -16.003   6.485 -19.885  1.00  0.00     0.183 A 
ATOM     15  HN  UNL     1     -14.237   7.439 -20.335  1.00  0.00     0.168 HD
HETATM   16  N   UNL     1     -16.858   5.885 -19.065  1.00  0.00    -0.338 N 
HETATM   17  C   UNL     1     -16.396   5.773 -17.809  1.00  0.00     0.120 A 
ATOM     18  HN  UNL     1     -17.773   5.544 -19.359  1.00  0.00     0.168 HD
HETATM   19  N   UNL     1     -17.036   5.192 -16.749  1.00  0.00    -0.351 N 
HETATM   20  C   UNL     1     -16.212   5.277 -15.649  1.00  0.00     0.091 A 
ATOM     21  HN  UNL     1     -17.965   4.769 -16.770  1.00  0.00     0.166 HD
HETATM   22  C   UNL     1     -15.047   5.897 -15.984  1.00  0.00     0.036 A 
ENDBRANCH   1   9
BRANCH   3  23
HETATM   23  C   UNL     1      -9.515   8.204 -13.357  1.00  0.00     0.222 C 
BRANCH  23  24
HETATM   24  N   UNL     1      -9.341   7.077 -12.466  1.00  0.00    -0.381 N 
HETATM   25  C   UNL     1     -10.255   6.688 -11.533  1.00  0.00     0.031 A 
HETATM   26  C   UNL     1     -10.059   5.502 -10.840  1.00  0.00     0.053 A 
HETATM   27  C   UNL     1     -11.389   7.457 -11.297  1.00  0.00     0.053 A 
HETATM   28  C   UNL     1     -10.998   5.119  -9.901  1.00  0.00     0.037 A 
HETATM   29 CL   UNL     1     -10.749   3.643  -9.026  1.00  0.00    -0.084 Cl
HETATM   30  C   UNL     1     -12.134   5.856  -9.639  1.00  0.00     0.048 A 
HETATM   31  C   UNL     1     -12.298   7.025 -10.352  1.00  0.00     0.037 A 
HETATM   32 CL   UNL     1     -13.709   7.986 -10.032  1.00  0.00    -0.084 Cl
ATOM     33  HN  UNL     1      -8.478   6.538 -12.541  1.00  0.00     0.160 HD
ENDBRANCH  23  24
ENDBRANCH   3  23
TORSDOF 3
ENDMDL
MODEL 4
REMARK VINA RESULT:    -9.091      4.814      9.292
REMARK INTER + INTRA:         -10.920
REMARK INTER:                 -10.134
REMARK INTRA:                  -0.786
REMARK UNBOUND:                -0.235
REMARK  3 active torsions:
REMARK  status: ('A' for Active; 'I' for Inactive)
REMARK    1  A    between atoms: C_9  and  N_27 
REMARK    2  A    between atoms: C_11  and  C_18 
REMARK       I    between atoms: C_11  and  N_28 
REMARK    3  A    between atoms: C_18  and  N_29 
ROOT
HETATM    1  C   UNL     1     -10.993  11.582 -12.316  1.00  0.00     0.103 C 
HETATM    2  C   UNL     1     -10.406   9.219 -11.678  1.00  0.00     0.022 C 
HETATM    3  C   UNL     1     -12.659   9.304 -14.211  1.00  0.00     0.237 C 
HETATM    4  C   UNL     1     -10.480   8.854 -13.147  1.00  0.00     0.126 C 
HETATM    5  C   UNL     1     -11.071  11.132 -13.779  1.00  0.00     0.151 C 
HETATM    6  C   UNL     1     -10.038  10.694 -11.523  1.00  0.00     0.028 C 
HETATM    7  N   UNL     1     -11.460   9.724 -13.797  1.00  0.00    -0.349 N 
HETATM    8  O   UNL     1     -13.544  10.097 -14.534  1.00  0.00    -0.272 OA
ENDROOT
BRANCH   1   9
HETATM    9  N   UNL     1     -10.653  13.008 -12.225  1.00  0.00    -0.364 N 
HETATM   10  C   UNL     1      -9.829  13.540 -13.297  1.00  0.00     0.152 C 
HETATM   11  C   UNL     1     -11.008  13.783 -11.174  1.00  0.00     0.118 A 
HETATM   12  N   UNL     1     -10.280  14.910 -10.992  1.00  0.00    -0.338 N 
HETATM   13  C   UNL     1     -12.076  13.516 -10.272  1.00  0.00     0.053 A 
HETATM   14  C   UNL     1     -10.593  15.717  -9.970  1.00  0.00     0.183 A 
ATOM     15  HN  UNL     1      -9.510  15.139 -11.620  1.00  0.00     0.168 HD
HETATM   16  N   UNL     1     -11.543  15.565  -9.055  1.00  0.00    -0.338 N 
HETATM   17  C   UNL     1     -12.274  14.452  -9.231  1.00  0.00     0.120 A 
ATOM     18  HN  UNL     1     -11.703  16.227  -8.296  1.00  0.00     0.168 HD
HETATM   19  N   UNL     1     -13.327  14.034  -8.466  1.00  0.00    -0.351 N 
HETATM   20  C   UNL     1     -13.802  12.855  -8.995  1.00  0.00     0.091 A 
ATOM     21  HN  UNL     1     -13.696  14.513  -7.644  1.00  0.00     0.166 HD
HETATM   22  C   UNL     1     -13.076  12.509 -10.094  1.00  0.00     0.036 A 
ENDBRANCH   1   9
BRANCH   3  23
HETATM   23  C   UNL     1     -12.934   7.812 -14.208  1.00  0.00     0.222 C 
BRANCH  23  24
HETATM   24  N   UNL     1     -12.795   7.254 -15.538  1.00  0.00    -0.381 N 
HETATM   25  C   UNL     1     -13.803   6.645 -16.222  1.00  0.00     0.031 A 
HETATM   26  C   UNL     1     -13.608   6.287 -17.548  1.00  0.00     0.053 A 
HETATM   27  C   UNL     1     -15.028   6.410 -15.608  1.00  0.00     0.053 A 
HETATM   28  C   UNL     1     -14.642   5.674 -18.230  1.00  0.00     0.037 A 
HETATM   29 CL   UNL     1     -14.394   5.215 -19.884  1.00  0.00    -0.084 Cl
HETATM   30  C   UNL     1     -15.869   5.423 -17.655  1.00  0.00     0.048 A 
HETATM   31  C   UNL     1     -16.030   5.799 -16.337  1.00  0.00     0.037 A 
HETATM   32 CL   UNL     1     -17.558   5.480 -15.576  1.00  0.00    -0.084 Cl
ATOM     33  HN  UNL     1     -11.884   7.322 -15.991  1.00  0.00     0.160 HD
ENDBRANCH  23  24
ENDBRANCH   3  23
TORSDOF 3
ENDMDL
MODEL 5
REMARK VINA RESULT:    -9.014      4.900      9.156
REMARK INTER + INTRA:         -10.830
REMARK INTER:                 -10.051
REMARK INTRA:                  -0.779
REMARK UNBOUND:                -0.235
REMARK  3 active torsions:
REMARK  status: ('A' for Active; 'I' for Inactive)
REMARK    1  A    between atoms: C_9  and  N_27 
REMARK    2  A    between atoms: C_11  and  C_18 
REMARK       I    between atoms: C_11  and  N_28 
REMARK    3  A    between atoms: C_18  and  N_29 
ROOT
HETATM    1  C   UNL     1     -10.559  11.637 -12.191  1.00  0.00     0.103 C 
HETATM    2  C   UNL     1      -9.783   9.330 -11.552  1.00  0.00     0.022 C 
HETATM    3  C   UNL     1     -12.249   9.217 -13.877  1.00  0.00     0.237 C 
HETATM    4  C   UNL     1      -9.964   8.918 -12.999  1.00  0.00     0.126 C 
HETATM    5  C   UNL     1     -10.738  11.141 -13.631  1.00  0.00     0.151 C 
HETATM    6  C   UNL     1      -9.489  10.827 -11.465  1.00  0.00     0.028 C 
HETATM    7  N   UNL     1     -11.046   9.714 -13.581  1.00  0.00    -0.349 N 
HETATM    8  O   UNL     1     -13.204   9.950 -14.139  1.00  0.00    -0.272 OA
ENDROOT
BRANCH   1   9
HETATM    9  N   UNL     1     -10.295  13.082 -12.165  1.00  0.00    -0.364 N 
HETATM   10  C   UNL     1      -9.419  13.592 -13.207  1.00  0.00     0.152 C 
HETATM   11  C   UNL     1     -10.763  13.897 -11.192  1.00  0.00     0.118 A 
HETATM   12  N   UNL     1     -10.105  15.069 -11.030  1.00  0.00    -0.338 N 
HETATM   13  C   UNL     1     -11.881  13.628 -10.354  1.00  0.00     0.053 A 
HETATM   14  C   UNL     1     -10.531  15.917 -10.084  1.00  0.00     0.183 A 
ATOM     15  HN  UNL     1      -9.302  15.301 -11.614  1.00  0.00     0.168 HD
HETATM   16  N   UNL     1     -11.538  15.770  -9.231  1.00  0.00    -0.338 N 
HETATM   17  C   UNL     1     -12.200  14.612  -9.390  1.00  0.00     0.120 A 
ATOM     18  HN  UNL     1     -11.784  16.466  -8.528  1.00  0.00     0.168 HD
HETATM   19  N   UNL     1     -13.285  14.184  -8.677  1.00  0.00    -0.351 N 
HETATM   20  C   UNL     1     -13.663  12.953  -9.164  1.00  0.00     0.091 A 
ATOM     21  HN  UNL     1     -13.737  14.691  -7.915  1.00  0.00     0.166 HD
HETATM   22  C   UNL     1     -12.842  12.582 -10.185  1.00  0.00     0.036 A 
ENDBRANCH   1   9
BRANCH   3  23
HETATM   23  C   UNL     1     -12.436   7.712 -13.814  1.00  0.00     0.222 C 
BRANCH  23  24
HETATM   24  N   UNL     1     -13.781   7.338 -14.199  1.00  0.00    -0.381 N 
HETATM   25  C   UNL     1     -14.120   6.854 -15.426  1.00  0.00     0.031 A 
HETATM   26  C   UNL     1     -15.406   6.379 -15.640  1.00  0.00     0.053 A 
HETATM   27  C   UNL     1     -13.179   6.808 -16.449  1.00  0.00     0.053 A 
HETATM   28  C   UNL     1     -15.733   5.887 -16.890  1.00  0.00     0.037 A 
HETATM   29 CL   UNL     1     -17.344   5.304 -17.161  1.00  0.00    -0.084 Cl
HETATM   30  C   UNL     1     -14.828   5.827 -17.928  1.00  0.00     0.048 A 
HETATM   31  C   UNL     1     -13.558   6.302 -17.677  1.00  0.00     0.037 A 
HETATM   32 CL   UNL     1     -12.398   6.258 -18.969  1.00  0.00    -0.084 Cl
ATOM     33  HN  UNL     1     -14.523   7.443 -13.506  1.00  0.00     0.160 HD
ENDBRANCH  23  24
ENDBRANCH   3  23
TORSDOF 3
ENDMDL
MODEL 6
REMARK VINA RESULT:    -8.829      1.771      2.496
REMARK INTER + INTRA:         -10.612
REMARK INTER:                 -10.523
REMARK INTRA:                  -0.089
REMARK UNBOUND:                -0.235
REMARK  3 active torsions:
REMARK  status: ('A' for Active; 'I' for Inactive)
REMARK    1  A    between atoms: C_9  and  N_27 
REMARK    2  A    between atoms: C_11  and  C_18 
REMARK       I    between atoms: C_11  and  N_28 
REMARK    3  A    between atoms: C_18  and  N_29 
ROOT
HETATM    1  C   UNL     1     -13.427   7.973 -17.599  1.00  0.00     0.103 C 
HETATM    2  C   UNL     1     -13.486  10.288 -16.613  1.00  0.00     0.022 C 
HETATM    3  C   UNL     1     -13.358   7.908 -14.201  1.00  0.00     0.237 C 
HETATM    4  C   UNL     1     -12.530   9.806 -15.541  1.00  0.00     0.126 C 
HETATM    5  C   UNL     1     -12.479   7.553 -16.470  1.00  0.00     0.151 C 
HETATM    6  C   UNL     1     -13.302   9.466 -17.888  1.00  0.00     0.028 C 
HETATM    7  N   UNL     1     -12.772   8.382 -15.304  1.00  0.00    -0.349 N 
HETATM    8  O   UNL     1     -13.760   6.745 -14.132  1.00  0.00    -0.272 OA
ENDROOT
BRANCH   1   9
HETATM    9  N   UNL     1     -13.219   7.142 -18.792  1.00  0.00    -0.364 N 
HETATM   10  C   UNL     1     -11.933   7.283 -19.455  1.00  0.00     0.152 C 
HETATM   11  C   UNL     1     -14.181   6.344 -19.309  1.00  0.00     0.118 A 
HETATM   12  N   UNL     1     -14.032   5.996 -20.609  1.00  0.00    -0.338 N 
HETATM   13  C   UNL     1     -15.308   5.840 -18.600  1.00  0.00     0.053 A 
HETATM   14  C   UNL     1     -14.953   5.202 -21.170  1.00  0.00     0.183 A 
ATOM     15  HN  UNL     1     -13.235   6.332 -21.150  1.00  0.00     0.168 HD
HETATM   16  N   UNL     1     -16.051   4.692 -20.623  1.00  0.00    -0.338 N 
HETATM   17  C   UNL     1     -16.204   5.027 -19.332  1.00  0.00     0.120 A 
ATOM     18  HN  UNL     1     -16.711   4.104 -21.133  1.00  0.00     0.168 HD
HETATM   19  N   UNL     1     -17.220   4.645 -18.501  1.00  0.00    -0.351 N 
HETATM   20  C   UNL     1     -16.991   5.196 -17.260  1.00  0.00     0.091 A 
ATOM     21  HN  UNL     1     -18.011   4.053 -18.756  1.00  0.00     0.166 HD
HETATM   22  C   UNL     1     -15.840   5.923 -17.275  1.00  0.00     0.036 A 
ENDBRANCH   1   9
BRANCH   3  23
HETATM   23  C   UNL     1     -13.585   8.864 -13.044  1.00  0.00     0.222 C 
BRANCH  23  24
HETATM   24  N   UNL     1     -12.358   9.542 -12.681  1.00  0.00    -0.381 N 
HETATM   25  C   UNL     1     -11.284   8.929 -12.111  1.00  0.00     0.031 A 
HETATM   26  C   UNL     1     -10.102   9.638 -11.947  1.00  0.00     0.053 A 
HETATM   27  C   UNL     1     -11.359   7.597 -11.722  1.00  0.00     0.053 A 
HETATM   28  C   UNL     1      -9.019   9.001 -11.372  1.00  0.00     0.037 A 
HETATM   29 CL   UNL     1      -7.546   9.890 -11.156  1.00  0.00    -0.084 Cl
HETATM   30  C   UNL     1      -9.056   7.682 -10.972  1.00  0.00     0.048 A 
HETATM   31  C   UNL     1     -10.245   7.007 -11.156  1.00  0.00     0.037 A 
HETATM   32 CL   UNL     1     -10.332   5.349 -10.647  1.00  0.00    -0.084 Cl
ATOM     33  HN  UNL     1     -12.295  10.544 -12.864  1.00  0.00     0.160 HD
ENDBRANCH  23  24
ENDBRANCH   3  23
TORSDOF 3
ENDMDL
MODEL 7
REMARK VINA RESULT:    -8.777      2.902      3.660
REMARK INTER + INTRA:         -10.551
REMARK INTER:                  -9.719
REMARK INTRA:                  -0.832
REMARK UNBOUND:                -0.235
REMARK  3 active torsions:
REMARK  status: ('A' for Active; 'I' for Inactive)
REMARK    1  A    between atoms: C_9  and  N_27 
REMARK    2  A    between atoms: C_11  and  C_18 
REMARK       I    between atoms: C_11  and  N_28 
REMARK    3  A    between atoms: C_18  and  N_29 
ROOT
HETATM    1  C   UNL     1     -13.497   7.899 -17.290  1.00  0.00     0.103 C 
HETATM    2  C   UNL     1     -13.028  10.260 -16.554  1.00  0.00     0.022 C 
HETATM    3  C   UNL     1     -12.939   8.099 -13.942  1.00  0.00     0.237 C 
HETATM    4  C   UNL     1     -12.017   9.704 -15.571  1.00  0.00     0.126 C 
HETATM    5  C   UNL     1     -12.475   7.411 -16.257  1.00  0.00     0.151 C 
HETATM    6  C   UNL     1     -13.172   9.319 -17.748  1.00  0.00     0.028 C 
HETATM    7  N   UNL     1     -12.453   8.370 -15.156  1.00  0.00    -0.349 N 
HETATM    8  O   UNL     1     -13.512   7.035 -13.699  1.00  0.00    -0.272 OA
ENDROOT
BRANCH   1   9
HETATM    9  N   UNL     1     -13.607   6.951 -18.406  1.00  0.00    -0.364 N 
HETATM   10  C   UNL     1     -12.470   6.890 -19.309  1.00  0.00     0.152 C 
HETATM   11  C   UNL     1     -14.722   6.224 -18.645  1.00  0.00     0.118 A 
HETATM   12  N   UNL     1     -14.866   5.752 -19.906  1.00  0.00    -0.338 N 
HETATM   13  C   UNL     1     -15.729   5.913 -17.689  1.00  0.00     0.053 A 
HETATM   14  C   UNL     1     -15.949   5.020 -20.197  1.00  0.00     0.183 A 
ATOM     15  HN  UNL     1     -14.164   5.949 -20.619  1.00  0.00     0.168 HD
HETATM   16  N   UNL     1     -16.960   4.685 -19.403  1.00  0.00    -0.338 N 
HETATM   17  C   UNL     1     -16.823   5.145 -18.149  1.00  0.00     0.120 A 
ATOM     18  HN  UNL     1     -17.760   4.133 -19.715  1.00  0.00     0.168 HD
HETATM   19  N   UNL     1     -17.686   4.952 -17.107  1.00  0.00    -0.351 N 
HETATM   20  C   UNL     1     -17.167   5.578 -15.996  1.00  0.00     0.091 A 
ATOM     21  HN  UNL     1     -18.564   4.432 -17.145  1.00  0.00     0.166 HD
HETATM   22  C   UNL     1     -15.979   6.168 -16.303  1.00  0.00     0.036 A 
ENDBRANCH   1   9
BRANCH   3  23
HETATM   23  C   UNL     1     -12.833   9.171 -12.873  1.00  0.00     0.222 C 
BRANCH  23  24
HETATM   24  N   UNL     1     -11.521   9.166 -12.259  1.00  0.00    -0.381 N 
HETATM   25  C   UNL     1     -10.828  10.289 -11.922  1.00  0.00     0.031 A 
HETATM   26  C   UNL     1      -9.651  10.172 -11.197  1.00  0.00     0.053 A 
HETATM   27  C   UNL     1     -11.310  11.545 -12.274  1.00  0.00     0.053 A 
HETATM   28  C   UNL     1      -8.962  11.321 -10.858  1.00  0.00     0.037 A 
HETATM   29 CL   UNL     1      -7.484  11.175  -9.963  1.00  0.00    -0.084 Cl
HETATM   30  C   UNL     1      -9.407  12.583 -11.192  1.00  0.00     0.048 A 
HETATM   31  C   UNL     1     -10.585  12.661 -11.906  1.00  0.00     0.037 A 
HETATM   32 CL   UNL     1     -11.164  14.234 -12.358  1.00  0.00    -0.084 Cl
ATOM     33  HN  UNL     1     -11.088   8.262 -12.067  1.00  0.00     0.160 HD
ENDBRANCH  23  24
ENDBRANCH   3  23
TORSDOF 3
ENDMDL
MODEL 8
REMARK VINA RESULT:    -8.752      3.771      4.518
REMARK INTER + INTRA:         -10.522
REMARK INTER:                  -9.905
REMARK INTRA:                  -0.616
REMARK UNBOUND:                -0.235
REMARK  3 active torsions:
REMARK  status: ('A' for Active; 'I' for Inactive)
REMARK    1  A    between atoms: C_9  and  N_27 
REMARK    2  A    between atoms: C_11  and  C_18 
REMARK       I    between atoms: C_11  and  N_28 
REMARK    3  A    between atoms: C_18  and  N_29 
ROOT
HETATM    1  C   UNL     1     -13.197   8.839 -16.006  1.00  0.00     0.103 C 
HETATM    2  C   UNL     1     -14.435  10.577 -14.671  1.00  0.00     0.022 C 
HETATM    3  C   UNL     1     -11.756   9.376 -12.974  1.00  0.00     0.237 C 
HETATM    4  C   UNL     1     -13.097  11.072 -14.161  1.00  0.00     0.126 C 
HETATM    5  C   UNL     1     -11.884   9.381 -15.430  1.00  0.00     0.151 C 
HETATM    6  C   UNL     1     -14.266   9.928 -16.044  1.00  0.00     0.028 C 
HETATM    7  N   UNL     1     -12.168   9.942 -14.112  1.00  0.00    -0.349 N 
HETATM    8  O   UNL     1     -11.171   8.292 -12.967  1.00  0.00    -0.272 OA
ENDROOT
BRANCH   1   9
HETATM    9  N   UNL     1     -12.975   8.213 -17.315  1.00  0.00    -0.364 N 
HETATM   10  C   UNL     1     -11.778   8.627 -18.028  1.00  0.00     0.152 C 
HETATM   11  C   UNL     1     -13.858   7.358 -17.881  1.00  0.00     0.118 A 
HETATM   12  N   UNL     1     -13.768   7.211 -19.224  1.00  0.00    -0.338 N 
HETATM   13  C   UNL     1     -14.845   6.607 -17.184  1.00  0.00     0.053 A 
HETATM   14  C   UNL     1     -14.615   6.373 -19.835  1.00  0.00     0.183 A 
ATOM     15  HN  UNL     1     -13.070   7.729 -19.759  1.00  0.00     0.168 HD
HETATM   16  N   UNL     1     -15.585   5.640 -19.301  1.00  0.00    -0.338 N 
HETATM   17  C   UNL     1     -15.678   5.776 -17.969  1.00  0.00     0.120 A 
ATOM     18  HN  UNL     1     -16.198   5.035 -19.848  1.00  0.00     0.168 HD
HETATM   19  N   UNL     1     -16.562   5.142 -17.140  1.00  0.00    -0.351 N 
HETATM   20  C   UNL     1     -16.312   5.551 -15.849  1.00  0.00     0.091 A 
ATOM     21  HN  UNL     1     -17.284   4.481 -17.429  1.00  0.00     0.166 HD
HETATM   22  C   UNL     1     -15.276   6.434 -15.831  1.00  0.00     0.036 A 
ENDBRANCH   1   9
BRANCH   3  23
HETATM   23  C   UNL     1     -12.091  10.072 -11.667  1.00  0.00     0.222 C 
BRANCH  23  24
HETATM   24  N   UNL     1     -11.218  11.204 -11.441  1.00  0.00    -0.381 N 
HETATM   25  C   UNL     1     -11.527  12.264 -10.643  1.00  0.00     0.031 A 
HETATM   26  C   UNL     1     -10.557  13.218 -10.370  1.00  0.00     0.053 A 
HETATM   27  C   UNL     1     -12.795  12.376 -10.083  1.00  0.00     0.053 A 
HETATM   28  C   UNL     1     -10.886  14.285  -9.556  1.00  0.00     0.037 A 
HETATM   29 CL   UNL     1      -9.678  15.484  -9.224  1.00  0.00    -0.084 Cl
HETATM   30  C   UNL     1     -12.132  14.430  -8.984  1.00  0.00     0.048 A 
HETATM   31  C   UNL     1     -13.068  13.459  -9.272  1.00  0.00     0.037 A 
HETATM   32 CL   UNL     1     -14.654  13.622  -8.582  1.00  0.00    -0.084 Cl
ATOM     33  HN  UNL     1     -10.311  11.208 -11.909  1.00  0.00     0.160 HD
ENDBRANCH  23  24
ENDBRANCH   3  23
TORSDOF 3
ENDMDL
MODEL 9
REMARK VINA RESULT:    -8.570      4.061      7.202
REMARK INTER + INTRA:         -10.307
REMARK INTER:                  -9.474
REMARK INTRA:                  -0.833
REMARK UNBOUND:                -0.235
REMARK  3 active torsions:
REMARK  status: ('A' for Active; 'I' for Inactive)
REMARK    1  A    between atoms: C_9  and  N_27 
REMARK    2  A    between atoms: C_11  and  C_18 
REMARK       I    between atoms: C_11  and  N_28 
REMARK    3  A    between atoms: C_18  and  N_29 
ROOT
HETATM    1  C   UNL     1     -11.339   9.489 -16.828  1.00  0.00     0.103 C 
HETATM    2  C   UNL     1     -10.562   7.100 -16.989  1.00  0.00     0.022 C 
HETATM    3  C   UNL     1     -12.321   8.028 -19.736  1.00  0.00     0.237 C 
HETATM    4  C   UNL     1     -10.325   7.326 -18.469  1.00  0.00     0.126 C 
HETATM    5  C   UNL     1     -11.095   9.634 -18.334  1.00  0.00     0.151 C 
HETATM    6  C   UNL     1     -10.429   8.420 -16.229  1.00  0.00     0.028 C 
HETATM    7  N   UNL     1     -11.282   8.323 -18.950  1.00  0.00    -0.349 N 
HETATM    8  O   UNL     1     -13.234   8.833 -19.929  1.00  0.00    -0.272 OA
ENDROOT
BRANCH   1   9
HETATM    9  N   UNL     1     -11.215  10.787 -16.151  1.00  0.00    -0.364 N 
HETATM   10  C   UNL     1     -10.071  11.600 -16.530  1.00  0.00     0.152 C 
HETATM   11  C   UNL     1     -12.058  11.188 -15.172  1.00  0.00     0.118 A 
HETATM   12  N   UNL     1     -11.592  12.155 -14.345  1.00  0.00    -0.338 N 
HETATM   13  C   UNL     1     -13.374  10.693 -14.958  1.00  0.00     0.053 A 
HETATM   14  C   UNL     1     -12.388  12.594 -13.361  1.00  0.00     0.183 A 
ATOM     15  HN  UNL     1     -10.656  12.539 -14.469  1.00  0.00     0.168 HD
HETATM   16  N   UNL     1     -13.617  12.197 -13.049  1.00  0.00    -0.338 N 
HETATM   17  C   UNL     1     -14.087  11.242 -13.868  1.00  0.00     0.120 A 
ATOM     18  HN  UNL     1     -14.148  12.578 -12.267  1.00  0.00     0.168 HD
HETATM   19  N   UNL     1     -15.317  10.647 -13.811  1.00  0.00    -0.351 N 
HETATM   20  C   UNL     1     -15.402   9.734 -14.837  1.00  0.00     0.091 A 
ATOM     21  HN  UNL     1     -16.047  10.847 -13.125  1.00  0.00     0.166 HD
HETATM   22  C   UNL     1     -14.248   9.734 -15.560  1.00  0.00     0.036 A 
ENDBRANCH   1   9
BRANCH   3  23
HETATM   23  C   UNL     1     -12.389   6.637 -20.339  1.00  0.00     0.222 C 
BRANCH  23  24
HETATM   24  N   UNL     1     -13.726   6.090 -20.235  1.00  0.00    -0.381 N 
HETATM   25  C   UNL     1     -14.406   5.943 -19.064  1.00  0.00     0.031 A 
HETATM   26  C   UNL     1     -15.738   5.556 -19.092  1.00  0.00     0.053 A 
HETATM   27  C   UNL     1     -13.781   6.207 -17.850  1.00  0.00     0.053 A 
HETATM   28  C   UNL     1     -16.415   5.416 -17.896  1.00  0.00     0.037 A 
HETATM   29 CL   UNL     1     -18.076   4.920 -17.930  1.00  0.00    -0.084 Cl
HETATM   30  C   UNL     1     -15.828   5.667 -16.673  1.00  0.00     0.048 A 
HETATM   31  C   UNL     1     -14.505   6.057 -16.684  1.00  0.00     0.037 A 
HETATM   32 CL   UNL     1     -13.731   6.363 -15.160  1.00  0.00    -0.084 Cl
ATOM     33  HN  UNL     1     -14.189   5.795 -21.095  1.00  0.00     0.160 HD
ENDBRANCH  23  24
ENDBRANCH   3  23
TORSDOF 3
ENDMDL
MODEL 10
REMARK VINA RESULT:    -8.444      3.183      4.282
REMARK INTER + INTRA:         -10.159
REMARK INTER:                  -9.768
REMARK INTRA:                  -0.392
REMARK UNBOUND:                -0.235
REMARK  3 active torsions:
REMARK  status: ('A' for Active; 'I' for Inactive)
REMARK    1  A    between atoms: C_9  and  N_27 
REMARK    2  A    between atoms: C_11  and  C_18 
REMARK       I    between atoms: C_11  and  N_28 
REMARK    3  A    between atoms: C_18  and  N_29 
ROOT
HETATM    1  C   UNL     1     -13.349   7.275 -16.731  1.00  0.00     0.103 C 
HETATM    2  C   UNL     1     -10.937   6.560 -16.642  1.00  0.00     0.022 C 
HETATM    3  C   UNL     1     -11.327   9.766 -15.609  1.00  0.00     0.237 C 
HETATM    4  C   UNL     1     -10.792   7.370 -15.370  1.00  0.00     0.126 C 
HETATM    5  C   UNL     1     -13.119   8.090 -15.453  1.00  0.00     0.151 C 
HETATM    6  C   UNL     1     -12.384   6.095 -16.806  1.00  0.00     0.028 C 
HETATM    7  N   UNL     1     -11.718   8.502 -15.428  1.00  0.00    -0.349 N 
HETATM    8  O   UNL     1     -12.130  10.657 -15.888  1.00  0.00    -0.272 OA
ENDROOT
BRANCH   1   9
HETATM    9  N   UNL     1     -14.756   6.868 -16.846  1.00  0.00    -0.364 N 
HETATM   10  C   UNL     1     -15.605   7.169 -15.705  1.00  0.00     0.152 C 
HETATM   11  C   UNL     1     -15.238   6.182 -17.907  1.00  0.00     0.118 A 
HETATM   12  N   UNL     1     -16.387   5.496 -17.700  1.00  0.00    -0.338 N 
HETATM   13  C   UNL     1     -14.650   6.140 -19.202  1.00  0.00     0.053 A 
HETATM   14  C   UNL     1     -16.912   4.804 -18.720  1.00  0.00     0.183 A 
ATOM     15  HN  UNL     1     -16.842   5.505 -16.787  1.00  0.00     0.168 HD
HETATM   16  N   UNL     1     -16.448   4.669 -19.957  1.00  0.00    -0.338 N 
HETATM   17  C   UNL     1     -15.312   5.352 -20.172  1.00  0.00     0.120 A 
ATOM     18  HN  UNL     1     -16.909   4.105 -20.671  1.00  0.00     0.168 HD
HETATM   19  N   UNL     1     -14.607   5.422 -21.341  1.00  0.00    -0.351 N 
HETATM   20  C   UNL     1     -13.514   6.234 -21.138  1.00  0.00     0.091 A 
ATOM     21  HN  UNL     1     -14.850   4.953 -22.215  1.00  0.00     0.166 HD
HETATM   22  C   UNL     1     -13.506   6.695 -19.857  1.00  0.00     0.036 A 
ENDBRANCH   1   9
BRANCH   3  23
HETATM   23  C   UNL     1      -9.842  10.073 -15.532  1.00  0.00     0.222 C 
BRANCH  23  24
HETATM   24  N   UNL     1      -9.544  10.920 -14.397  1.00  0.00    -0.381 N 
HETATM   25  C   UNL     1      -9.093  10.462 -13.195  1.00  0.00     0.031 A 
HETATM   26  C   UNL     1      -8.688  11.370 -12.228  1.00  0.00     0.053 A 
HETATM   27  C   UNL     1      -9.011   9.096 -12.950  1.00  0.00     0.053 A 
HETATM   28  C   UNL     1      -8.229  10.889 -11.016  1.00  0.00     0.037 A 
HETATM   29 CL   UNL     1      -7.735  12.024  -9.802  1.00  0.00    -0.084 Cl
HETATM   30  C   UNL     1      -8.136   9.543 -10.736  1.00  0.00     0.048 A 
HETATM   31  C   UNL     1      -8.540   8.669 -11.724  1.00  0.00     0.037 A 
HETATM   32 CL   UNL     1      -8.452   6.966 -11.396  1.00  0.00    -0.084 Cl
ATOM     33  HN  UNL     1      -9.679  11.926 -14.503  1.00  0.00     0.160 HD
ENDBRANCH  23  24
ENDBRANCH   3  23
TORSDOF 3
ENDMDL
MODEL 11
REMARK VINA RESULT:    -8.333      3.360      4.639
REMARK INTER + INTRA:         -10.029
REMARK INTER:                  -9.098
REMARK INTRA:                  -0.931
REMARK UNBOUND:                -0.235
REMARK  3 active torsions:
REMARK  status: ('A' for Active; 'I' for Inactive)
REMARK    1  A    between atoms: C_9  and  N_27 
REMARK    2  A    between atoms: C_11  and  C_18 
REMARK       I    between atoms: C_11  and  N_28 
REMARK    3  A    between atoms: C_18  and  N_29 
ROOT
HETATM    1  C   UNL     1      -8.701   9.289 -16.452  1.00  0.00     0.103 C 
HETATM    2  C   UNL     1      -8.602  10.802 -14.443  1.00  0.00     0.022 C 
HETATM    3  C   UNL     1      -8.349   7.537 -13.559  1.00  0.00     0.237 C 
HETATM    4  C   UNL     1      -7.575   9.861 -13.844  1.00  0.00     0.126 C 
HETATM    5  C   UNL     1      -7.676   8.374 -15.772  1.00  0.00     0.151 C 
HETATM    6  C   UNL     1      -8.553  10.729 -15.968  1.00  0.00     0.028 C 
HETATM    7  N   UNL     1      -7.843   8.506 -14.327  1.00  0.00    -0.349 N 
HETATM    8  O   UNL     1      -8.781   6.490 -14.044  1.00  0.00    -0.272 OA
ENDROOT
BRANCH   1   9
HETATM    9  N   UNL     1      -8.622   9.167 -17.913  1.00  0.00    -0.364 N 
HETATM   10  C   UNL     1      -7.492   9.824 -18.550  1.00  0.00     0.152 C 
HETATM   11  C   UNL     1      -9.574   8.554 -18.653  1.00  0.00     0.118 A 
HETATM   12  N   UNL     1      -9.619   8.891 -19.964  1.00  0.00    -0.338 N 
HETATM   13  C   UNL     1     -10.503   7.590 -18.171  1.00  0.00     0.053 A 
HETATM   14  C   UNL     1     -10.539   8.308 -20.743  1.00  0.00     0.183 A 
ATOM     15  HN  UNL     1      -8.967   9.574 -20.348  1.00  0.00     0.168 HD
HETATM   16  N   UNL     1     -11.468   7.420 -20.408  1.00  0.00    -0.338 N 
HETATM   17  C   UNL     1     -11.426   7.076 -19.110  1.00  0.00     0.120 A 
ATOM     18  HN  UNL     1     -12.144   7.037 -21.069  1.00  0.00     0.168 HD
HETATM   19  N   UNL     1     -12.238   6.178 -18.474  1.00  0.00    -0.351 N 
HETATM   20  C   UNL     1     -11.853   6.110 -17.154  1.00  0.00     0.091 A 
ATOM     21  HN  UNL     1     -12.998   5.650 -18.904  1.00  0.00     0.166 HD
HETATM   22  C   UNL     1     -10.802   6.945 -16.929  1.00  0.00     0.036 A 
ENDBRANCH   1   9
BRANCH   3  23
HETATM   23  C   UNL     1      -8.446   7.785 -12.065  1.00  0.00     0.222 C 
BRANCH  23  24
HETATM   24  N   UNL     1      -9.798   8.138 -11.684  1.00  0.00    -0.381 N 
HETATM   25  C   UNL     1     -10.642   7.314 -11.003  1.00  0.00     0.031 A 
HETATM   26  C   UNL     1     -11.858   7.807 -10.550  1.00  0.00     0.053 A 
HETATM   27  C   UNL     1     -10.279   5.999 -10.738  1.00  0.00     0.053 A 
HETATM   28  C   UNL     1     -12.701   6.960  -9.856  1.00  0.00     0.037 A 
HETATM   29 CL   UNL     1     -14.225   7.572  -9.301  1.00  0.00    -0.084 Cl
HETATM   30  C   UNL     1     -12.376   5.650  -9.576  1.00  0.00     0.048 A 
HETATM   31  C   UNL     1     -11.157   5.196 -10.036  1.00  0.00     0.037 A 
HETATM   32 CL   UNL     1     -10.725   3.545  -9.716  1.00  0.00    -0.084 Cl
ATOM     33  HN  UNL     1     -10.139   9.064 -11.941  1.00  0.00     0.160 HD
ENDBRANCH  23  24
ENDBRANCH   3  23
TORSDOF 3
ENDMDL
MODEL 12
REMARK VINA RESULT:    -8.328      2.758      3.891
REMARK INTER + INTRA:         -10.023
REMARK INTER:                  -9.194
REMARK INTRA:                  -0.830
REMARK UNBOUND:                -0.235
REMARK  3 active torsions:
REMARK  status: ('A' for Active; 'I' for Inactive)
REMARK    1  A    between atoms: C_9  and  N_27 
REMARK    2  A    between atoms: C_11  and  C_18 
REMARK       I    between atoms: C_11  and  N_28 
REMARK    3  A    between atoms: C_18  and  N_29 
ROOT
HETATM    1  C   UNL     1     -10.253   8.597 -17.071  1.00  0.00     0.103 C 
HETATM    2  C   UNL     1     -11.265   9.771 -15.087  1.00  0.00     0.022 C 
HETATM    3  C   UNL     1      -8.360   8.224 -14.272  1.00  0.00     0.237 C 
HETATM    4  C   UNL     1      -9.862  10.142 -14.650  1.00  0.00     0.126 C 
HETATM    5  C   UNL     1      -8.866   8.991 -16.553  1.00  0.00     0.151 C 
HETATM    6  C   UNL     1     -11.312   9.593 -16.604  1.00  0.00     0.028 C 
HETATM    7  N   UNL     1      -8.940   9.098 -15.098  1.00  0.00    -0.349 N 
HETATM    8  O   UNL     1      -7.784   7.220 -14.695  1.00  0.00    -0.272 OA
ENDROOT
BRANCH   1   9
HETATM    9  N   UNL     1     -10.237   8.424 -18.529  1.00  0.00    -0.364 N 
HETATM   10  C   UNL     1      -9.110   9.013 -19.232  1.00  0.00     0.152 C 
HETATM   11  C   UNL     1     -11.242   7.824 -19.209  1.00  0.00     0.118 A 
HETATM   12  N   UNL     1     -11.327   8.119 -20.528  1.00  0.00    -0.338 N 
HETATM   13  C   UNL     1     -12.187   6.915 -18.658  1.00  0.00     0.053 A 
HETATM   14  C   UNL     1     -12.299   7.548 -21.250  1.00  0.00     0.183 A 
ATOM     15  HN  UNL     1     -10.665   8.762 -20.961  1.00  0.00     0.168 HD
HETATM   16  N   UNL     1     -13.247   6.709 -20.848  1.00  0.00    -0.338 N 
HETATM   17  C   UNL     1     -13.167   6.407 -19.542  1.00  0.00     0.120 A 
ATOM     18  HN  UNL     1     -13.964   6.332 -21.468  1.00  0.00     0.168 HD
HETATM   19  N   UNL     1     -13.986   5.565 -18.844  1.00  0.00    -0.351 N 
HETATM   20  C   UNL     1     -13.552   5.526 -17.538  1.00  0.00     0.091 A 
ATOM     21  HN  UNL     1     -14.783   5.053 -19.225  1.00  0.00     0.166 HD
HETATM   22  C   UNL     1     -12.460   6.325 -17.383  1.00  0.00     0.036 A 
ENDBRANCH   1   9
BRANCH   3  23
HETATM   23  C   UNL     1      -8.487   8.458 -12.778  1.00  0.00     0.222 C 
BRANCH  23  24
HETATM   24  N   UNL     1      -8.610   7.205 -12.063  1.00  0.00    -0.381 N 
HETATM   25  C   UNL     1      -9.706   6.838 -11.342  1.00  0.00     0.031 A 
HETATM   26  C   UNL     1      -9.783   5.552 -10.827  1.00  0.00     0.053 A 
HETATM   27  C   UNL     1     -10.752   7.733 -11.147  1.00  0.00     0.053 A 
HETATM   28  C   UNL     1     -10.904   5.193 -10.101  1.00  0.00     0.037 A 
HETATM   29 CL   UNL     1     -10.996   3.590  -9.447  1.00  0.00    -0.084 Cl
HETATM   30  C   UNL     1     -11.959   6.053  -9.886  1.00  0.00     0.048 A 
HETATM   31  C   UNL     1     -11.851   7.321 -10.419  1.00  0.00     0.037 A 
HETATM   32 CL   UNL     1     -13.155   8.436 -10.151  1.00  0.00    -0.084 Cl
ATOM     33  HN  UNL     1      -7.825   6.555 -12.102  1.00  0.00     0.160 HD
ENDBRANCH  23  24
ENDBRANCH   3  23
TORSDOF 3
ENDMDL
MODEL 13
REMARK VINA RESULT:    -8.310      5.570      8.775
REMARK INTER + INTRA:         -10.002
REMARK INTER:                  -9.089
REMARK INTRA:                  -0.913
REMARK UNBOUND:                -0.235
REMARK  3 active torsions:
REMARK  status: ('A' for Active; 'I' for Inactive)
REMARK    1  A    between atoms: C_9  and  N_27 
REMARK    2  A    between atoms: C_11  and  C_18 
REMARK       I    between atoms: C_11  and  N_28 
REMARK    3  A    between atoms: C_18  and  N_29 
ROOT
HETATM    1  C   UNL     1     -13.229   7.284 -16.993  1.00  0.00     0.103 C 
HETATM    2  C   UNL     1     -10.781   6.705 -16.920  1.00  0.00     0.022 C 
HETATM    3  C   UNL     1     -11.469   8.904 -19.408  1.00  0.00     0.237 C 
HETATM    4  C   UNL     1     -10.477   8.145 -17.281  1.00  0.00     0.126 C 
HETATM    5  C   UNL     1     -12.844   8.717 -17.378  1.00  0.00     0.151 C 
HETATM    6  C   UNL     1     -12.118   6.620 -16.185  1.00  0.00     0.028 C 
HETATM    7  N   UNL     1     -11.575   8.664 -18.099  1.00  0.00    -0.349 N 
HETATM    8  O   UNL     1     -12.461   9.111 -20.109  1.00  0.00    -0.272 OA
ENDROOT
BRANCH   1   9
HETATM    9  N   UNL     1     -14.526   7.259 -16.305  1.00  0.00    -0.364 N 
HETATM   10  C   UNL     1     -14.632   8.072 -15.105  1.00  0.00     0.152 C 
HETATM   11  C   UNL     1     -15.553   6.471 -16.701  1.00  0.00     0.118 A 
HETATM   12  N   UNL     1     -16.493   6.202 -15.765  1.00  0.00    -0.338 N 
HETATM   13  C   UNL     1     -15.723   5.925 -18.004  1.00  0.00     0.053 A 
HETATM   14  C   UNL     1     -17.535   5.432 -16.105  1.00  0.00     0.183 A 
ATOM     15  HN  UNL     1     -16.410   6.579 -14.820  1.00  0.00     0.168 HD
HETATM   16  N   UNL     1     -17.790   4.851 -17.271  1.00  0.00    -0.338 N 
HETATM   17  C   UNL     1     -16.864   5.116 -18.208  1.00  0.00     0.120 A 
ATOM     18  HN  UNL     1     -18.606   4.263 -17.439  1.00  0.00     0.168 HD
HETATM   19  N   UNL     1     -16.859   4.677 -19.502  1.00  0.00    -0.351 N 
HETATM   20  C   UNL     1     -15.743   5.187 -20.126  1.00  0.00     0.091 A 
ATOM     21  HN  UNL     1     -17.562   4.075 -19.932  1.00  0.00     0.166 HD
HETATM   22  C   UNL     1     -15.030   5.954 -19.256  1.00  0.00     0.036 A 
ENDBRANCH   1   9
BRANCH   3  23
HETATM   23  C   UNL     1     -10.089   8.845 -20.037  1.00  0.00     0.222 C 
BRANCH  23  24
HETATM   24  N   UNL     1      -9.968   7.705 -20.922  1.00  0.00    -0.381 N 
HETATM   25  C   UNL     1      -9.889   7.793 -22.279  1.00  0.00     0.031 A 
HETATM   26  C   UNL     1      -9.618   6.652 -23.021  1.00  0.00     0.053 A 
HETATM   27  C   UNL     1     -10.051   9.018 -22.915  1.00  0.00     0.053 A 
HETATM   28  C   UNL     1      -9.537   6.759 -24.397  1.00  0.00     0.037 A 
HETATM   29 CL   UNL     1      -9.210   5.332 -25.326  1.00  0.00    -0.084 Cl
HETATM   30  C   UNL     1      -9.693   7.956 -25.062  1.00  0.00     0.048 A 
HETATM   31  C   UNL     1      -9.955   9.070 -24.291  1.00  0.00     0.037 A 
HETATM   32 CL   UNL     1     -10.175  10.590 -25.100  1.00  0.00    -0.084 Cl
ATOM     33  HN  UNL     1      -9.939   6.776 -20.501  1.00  0.00     0.160 HD
ENDBRANCH  23  24
ENDBRANCH   3  23
TORSDOF 3
ENDMDL
MODEL 14
REMARK VINA RESULT:    -8.273      4.126      8.721
REMARK INTER + INTRA:          -9.958
REMARK INTER:                  -9.310
REMARK INTRA:                  -0.648
REMARK UNBOUND:                -0.235
REMARK  3 active torsions:
REMARK  status: ('A' for Active; 'I' for Inactive)
REMARK    1  A    between atoms: C_9  and  N_27 
REMARK    2  A    between atoms: C_11  and  C_18 
REMARK       I    between atoms: C_11  and  N_28 
REMARK    3  A    between atoms: C_18  and  N_29 
ROOT
HETATM    1  C   UNL     1     -11.854  10.878 -13.781  1.00  0.00     0.103 C 
HETATM    2  C   UNL     1     -12.710  11.050 -16.142  1.00  0.00     0.022 C 
HETATM    3  C   UNL     1     -14.215   8.525 -14.450  1.00  0.00     0.237 C 
HETATM    4  C   UNL     1     -14.087  10.693 -15.619  1.00  0.00     0.126 C 
HETATM    5  C   UNL     1     -13.270  10.501 -13.331  1.00  0.00     0.151 C 
HETATM    6  C   UNL     1     -11.893  11.732 -15.045  1.00  0.00     0.028 C 
HETATM    7  N   UNL     1     -13.934   9.831 -14.446  1.00  0.00    -0.349 N 
HETATM    8  O   UNL     1     -13.857   7.786 -13.532  1.00  0.00    -0.272 OA
ENDROOT
BRANCH   1   9
HETATM    9  N   UNL     1     -11.110  11.514 -12.687  1.00  0.00    -0.364 N 
HETATM   10  C   UNL     1     -11.472  12.888 -12.379  1.00  0.00     0.152 C 
HETATM   11  C   UNL     1     -10.089  10.905 -12.041  1.00  0.00     0.118 A 
HETATM   12  N   UNL     1      -9.222  11.720 -11.395  1.00  0.00    -0.338 N 
HETATM   13  C   UNL     1      -9.869   9.501 -11.978  1.00  0.00     0.053 A 
HETATM   14  C   UNL     1      -8.196  11.170 -10.733  1.00  0.00     0.183 A 
ATOM     15  HN  UNL     1      -9.348  12.732 -11.412  1.00  0.00     0.168 HD
HETATM   16  N   UNL     1      -7.875   9.885 -10.622  1.00  0.00    -0.338 N 
HETATM   17  C   UNL     1      -8.733   9.070 -11.256  1.00  0.00     0.120 A 
ATOM     18  HN  UNL     1      -7.059   9.553 -10.107  1.00  0.00     0.168 HD
HETATM   19  N   UNL     1      -8.678   7.704 -11.308  1.00  0.00    -0.351 N 
HETATM   20  C   UNL     1      -9.751   7.258 -12.047  1.00  0.00     0.091 A 
ATOM     21  HN  UNL     1      -7.964   7.118 -10.875  1.00  0.00     0.166 HD
HETATM   22  C   UNL     1     -10.502   8.314 -12.466  1.00  0.00     0.036 A 
ENDBRANCH   1   9
BRANCH   3  23
HETATM   23  C   UNL     1     -14.933   7.952 -15.658  1.00  0.00     0.222 C 
BRANCH  23  24
HETATM   24  N   UNL     1     -13.999   7.648 -16.723  1.00  0.00    -0.381 N 
HETATM   25  C   UNL     1     -14.285   6.850 -17.789  1.00  0.00     0.031 A 
HETATM   26  C   UNL     1     -13.374   6.752 -18.830  1.00  0.00     0.053 A 
HETATM   27  C   UNL     1     -15.491   6.161 -17.847  1.00  0.00     0.053 A 
HETATM   28  C   UNL     1     -13.681   5.941 -19.907  1.00  0.00     0.037 A 
HETATM   29 CL   UNL     1     -12.538   5.808 -21.204  1.00  0.00    -0.084 Cl
HETATM   30  C   UNL     1     -14.865   5.241 -20.000  1.00  0.00     0.048 A 
HETATM   31  C   UNL     1     -15.750   5.368 -18.948  1.00  0.00     0.037 A 
HETATM   32 CL   UNL     1     -17.243   4.486 -19.025  1.00  0.00    -0.084 Cl
ATOM     33  HN  UNL     1     -13.067   8.060 -16.671  1.00  0.00     0.160 HD
ENDBRANCH  23  24
ENDBRANCH   3  23
TORSDOF 3
ENDMDL
MODEL 15
REMARK VINA RESULT:    -8.266      2.683      4.437
REMARK INTER + INTRA:          -9.950
REMARK INTER:                  -9.057
REMARK INTRA:                  -0.893
REMARK UNBOUND:                -0.235
REMARK  3 active torsions:
REMARK  status: ('A' for Active; 'I' for Inactive)
REMARK    1  A    between atoms: C_9  and  N_27 
REMARK    2  A    between atoms: C_11  and  C_18 
REMARK       I    between atoms: C_11  and  N_28 
REMARK    3  A    between atoms: C_18  and  N_29 
ROOT
HETATM    1  C   UNL     1     -13.635   6.570 -18.603  1.00  0.00     0.103 C 
HETATM    2  C   UNL     1     -11.659   6.075 -17.125  1.00  0.00     0.022 C 
HETATM    3  C   UNL     1     -12.720   9.276 -16.760  1.00  0.00     0.237 C 
HETATM    4  C   UNL     1     -12.295   6.949 -16.062  1.00  0.00     0.126 C 
HETATM    5  C   UNL     1     -14.204   7.456 -17.489  1.00  0.00     0.151 C 
HETATM    6  C   UNL     1     -12.738   5.478 -18.027  1.00  0.00     0.028 C 
HETATM    7  N   UNL     1     -13.083   7.991 -16.722  1.00  0.00    -0.349 N 
HETATM    8  O   UNL     1     -13.271  10.080 -17.515  1.00  0.00    -0.272 OA
ENDROOT
BRANCH   1   9
HETATM    9  N   UNL     1     -14.712   6.036 -19.448  1.00  0.00    -0.364 N 
HETATM   10  C   UNL     1     -15.990   5.814 -18.793  1.00  0.00     0.152 C 
HETATM   11  C   UNL     1     -14.527   5.689 -20.742  1.00  0.00     0.118 A 
HETATM   12  N   UNL     1     -15.428   4.821 -21.261  1.00  0.00    -0.338 N 
HETATM   13  C   UNL     1     -13.486   6.166 -21.587  1.00  0.00     0.053 A 
HETATM   14  C   UNL     1     -15.295   4.448 -22.540  1.00  0.00     0.183 A 
ATOM     15  HN  UNL     1     -16.191   4.459 -20.689  1.00  0.00     0.168 HD
HETATM   16  N   UNL     1     -14.362   4.804 -23.415  1.00  0.00    -0.338 N 
HETATM   17  C   UNL     1     -13.467   5.668 -22.910  1.00  0.00     0.120 A 
ATOM     18  HN  UNL     1     -14.328   4.456 -24.373  1.00  0.00     0.168 HD
HETATM   19  N   UNL     1     -12.405   6.225 -23.567  1.00  0.00    -0.351 N 
HETATM   20  C   UNL     1     -11.749   7.064 -22.694  1.00  0.00     0.091 A 
ATOM     21  HN  UNL     1     -12.143   6.049 -24.538  1.00  0.00     0.166 HD
HETATM   22  C   UNL     1     -12.375   7.062 -21.485  1.00  0.00     0.036 A 
ENDBRANCH   1   9
BRANCH   3  23
HETATM   23  C   UNL     1     -11.553   9.716 -15.895  1.00  0.00     0.222 C 
BRANCH  23  24
HETATM   24  N   UNL     1     -11.976  10.679 -14.901  1.00  0.00    -0.381 N 
HETATM   25  C   UNL     1     -11.986  10.443 -13.559  1.00  0.00     0.031 A 
HETATM   26  C   UNL     1     -12.260  11.485 -12.685  1.00  0.00     0.053 A 
HETATM   27  C   UNL     1     -11.697   9.175 -13.067  1.00  0.00     0.053 A 
HETATM   28  C   UNL     1     -12.262  11.230 -11.327  1.00  0.00     0.037 A 
HETATM   29 CL   UNL     1     -12.615  12.529 -10.235  1.00  0.00    -0.084 Cl
HETATM   30  C   UNL     1     -11.981   9.986 -10.802  1.00  0.00     0.048 A 
HETATM   31  C   UNL     1     -11.708   8.976 -11.700  1.00  0.00     0.037 A 
HETATM   32 CL   UNL     1     -11.368   7.393 -11.072  1.00  0.00    -0.084 Cl
ATOM     33  HN  UNL     1     -12.286  11.595 -15.226  1.00  0.00     0.160 HD
ENDBRANCH  23  24
ENDBRANCH   3  23
TORSDOF 3
ENDMDL
MODEL 16
REMARK VINA RESULT:    -8.243      3.741      4.939
REMARK INTER + INTRA:          -9.924
REMARK INTER:                  -9.279
REMARK INTRA:                  -0.644
REMARK UNBOUND:                -0.235
REMARK  3 active torsions:
REMARK  status: ('A' for Active; 'I' for Inactive)
REMARK    1  A    between atoms: C_9  and  N_27 
REMARK    2  A    between atoms: C_11  and  C_18 
REMARK       I    between atoms: C_11  and  N_28 
REMARK    3  A    between atoms: C_18  and  N_29 
ROOT
HETATM    1  C   UNL     1     -13.536   7.803 -16.007  1.00  0.00     0.103 C 
HETATM    2  C   UNL     1     -11.397   7.822 -14.680  1.00  0.00     0.022 C 
HETATM    3  C   UNL     1     -13.398  10.434 -13.857  1.00  0.00     0.237 C 
HETATM    4  C   UNL     1     -12.195   8.312 -13.488  1.00  0.00     0.126 C 
HETATM    5  C   UNL     1     -14.271   8.321 -14.765  1.00  0.00     0.151 C 
HETATM    6  C   UNL     1     -12.293   7.009 -15.613  1.00  0.00     0.028 C 
HETATM    7  N   UNL     1     -13.325   9.105 -13.975  1.00  0.00    -0.349 N 
HETATM    8  O   UNL     1     -14.235  11.091 -14.478  1.00  0.00    -0.272 OA
ENDROOT
BRANCH   1   9
HETATM    9  N   UNL     1     -14.445   7.045 -16.874  1.00  0.00    -0.364 N 
HETATM   10  C   UNL     1     -15.620   6.478 -16.232  1.00  0.00     0.152 C 
HETATM   11  C   UNL     1     -14.187   6.806 -18.181  1.00  0.00     0.118 A 
HETATM   12  N   UNL     1     -14.840   5.757 -18.735  1.00  0.00    -0.338 N 
HETATM   13  C   UNL     1     -13.310   7.567 -19.003  1.00  0.00     0.053 A 
HETATM   14  C   UNL     1     -14.626   5.480 -20.028  1.00  0.00     0.183 A 
ATOM     15  HN  UNL     1     -15.481   5.190 -18.180  1.00  0.00     0.168 HD
HETATM   16  N   UNL     1     -13.820   6.097 -20.886  1.00  0.00    -0.338 N 
HETATM   17  C   UNL     1     -13.173   7.142 -20.345  1.00  0.00     0.120 A 
ATOM     18  HN  UNL     1     -13.706   5.806 -21.857  1.00  0.00     0.168 HD
HETATM   19  N   UNL     1     -12.294   7.977 -20.977  1.00  0.00    -0.351 N 
HETATM   20  C   UNL     1     -11.869   8.921 -20.070  1.00  0.00     0.091 A 
ATOM     21  HN  UNL     1     -12.003   7.911 -21.953  1.00  0.00     0.166 HD
HETATM   22  C   UNL     1     -12.465   8.713 -18.863  1.00  0.00     0.036 A 
ENDBRANCH   1   9
BRANCH   3  23
HETATM   23  C   UNL     1     -12.371  11.132 -12.985  1.00  0.00     0.222 C 
BRANCH  23  24
HETATM   24  N   UNL     1     -12.792  11.153 -11.600  1.00  0.00    -0.381 N 
HETATM   25  C   UNL     1     -12.548  12.181 -10.740  1.00  0.00     0.031 A 
HETATM   26  C   UNL     1     -13.131  12.169  -9.480  1.00  0.00     0.053 A 
HETATM   27  C   UNL     1     -11.746  13.248 -11.128  1.00  0.00     0.053 A 
HETATM   28  C   UNL     1     -12.878  13.222  -8.621  1.00  0.00     0.037 A 
HETATM   29 CL   UNL     1     -13.596  13.202  -7.043  1.00  0.00    -0.084 Cl
HETATM   30  C   UNL     1     -12.086  14.295  -8.971  1.00  0.00     0.048 A 
HETATM   31  C   UNL     1     -11.529  14.276 -10.233  1.00  0.00     0.037 A 
HETATM   32 CL   UNL     1     -10.512  15.605 -10.698  1.00  0.00    -0.084 Cl
ATOM     33  HN  UNL     1     -13.306  10.346 -11.245  1.00  0.00     0.160 HD
ENDBRANCH  23  24
ENDBRANCH   3  23
TORSDOF 3
ENDMDL
MODEL 17
REMARK VINA RESULT:    -8.229      4.378      8.683
REMARK INTER + INTRA:          -9.907
REMARK INTER:                  -9.152
REMARK INTRA:                  -0.755
REMARK UNBOUND:                -0.235
REMARK  3 active torsions:
REMARK  status: ('A' for Active; 'I' for Inactive)
REMARK    1  A    between atoms: C_9  and  N_27 
REMARK    2  A    between atoms: C_11  and  C_18 
REMARK       I    between atoms: C_11  and  N_28 
REMARK    3  A    between atoms: C_18  and  N_29 
ROOT
HETATM    1  C   UNL     1      -9.266   9.057 -13.179  1.00  0.00     0.103 C 
HETATM    2  C   UNL     1      -9.063   6.559 -13.413  1.00  0.00     0.022 C 
HETATM    3  C   UNL     1     -10.990   7.889 -15.866  1.00  0.00     0.237 C 
HETATM    4  C   UNL     1      -9.020   6.750 -14.916  1.00  0.00     0.126 C 
HETATM    5  C   UNL     1      -9.238   9.168 -14.707  1.00  0.00     0.151 C 
HETATM    6  C   UNL     1      -8.528   7.806 -12.710  1.00  0.00     0.028 C 
HETATM    7  N   UNL     1      -9.801   7.939 -15.259  1.00  0.00    -0.349 N 
HETATM    8  O   UNL     1     -11.725   8.876 -15.928  1.00  0.00    -0.272 OA
ENDROOT
BRANCH   1   9
HETATM    9  N   UNL     1      -8.757  10.285 -12.556  1.00  0.00    -0.364 N 
HETATM   10  C   UNL     1      -7.311  10.437 -12.526  1.00  0.00     0.152 C 
HETATM   11  C   UNL     1      -9.562  11.199 -11.967  1.00  0.00     0.118 A 
HETATM   12  N   UNL     1      -8.972  12.021 -11.067  1.00  0.00    -0.338 N 
HETATM   13  C   UNL     1     -10.951  11.367 -12.226  1.00  0.00     0.053 A 
HETATM   14  C   UNL     1      -9.723  12.949 -10.459  1.00  0.00     0.183 A 
ATOM     15  HN  UNL     1      -7.978  11.936 -10.858  1.00  0.00     0.168 HD
HETATM   16  N   UNL     1     -11.022  13.186 -10.598  1.00  0.00    -0.338 N 
HETATM   17  C   UNL     1     -11.614  12.378 -11.493  1.00  0.00     0.120 A 
ATOM     18  HN  UNL     1     -11.520  13.909 -10.079  1.00  0.00     0.168 HD
HETATM   19  N   UNL     1     -12.930  12.391 -11.863  1.00  0.00    -0.351 N 
HETATM   20  C   UNL     1     -13.120  11.412 -12.813  1.00  0.00     0.091 A 
ATOM     21  HN  UNL     1     -13.648  13.017 -11.498  1.00  0.00     0.166 HD
HETATM   22  C   UNL     1     -11.945  10.772 -13.066  1.00  0.00     0.036 A 
ENDBRANCH   1   9
BRANCH   3  23
HETATM   23  C   UNL     1     -11.454   6.555 -16.422  1.00  0.00     0.222 C 
BRANCH  23  24
HETATM   24  N   UNL     1     -12.892   6.421 -16.321  1.00  0.00    -0.381 N 
HETATM   25  C   UNL     1     -13.711   6.125 -17.369  1.00  0.00     0.031 A 
HETATM   26  C   UNL     1     -15.053   5.864 -17.133  1.00  0.00     0.053 A 
HETATM   27  C   UNL     1     -13.201   6.055 -18.661  1.00  0.00     0.053 A 
HETATM   28  C   UNL     1     -15.869   5.561 -18.206  1.00  0.00     0.037 A 
HETATM   29 CL   UNL     1     -17.549   5.247 -17.914  1.00  0.00    -0.084 Cl
HETATM   30  C   UNL     1     -15.401   5.484 -19.501  1.00  0.00     0.048 A 
HETATM   31  C   UNL     1     -14.060   5.743 -19.696  1.00  0.00     0.037 A 
HETATM   32 CL   UNL     1     -13.441   5.673 -21.318  1.00  0.00    -0.084 Cl
ATOM     33  HN  UNL     1     -13.321   6.556 -15.405  1.00  0.00     0.160 HD
ENDBRANCH  23  24
ENDBRANCH   3  23
TORSDOF 3
ENDMDL
MODEL 18
REMARK VINA RESULT:    -8.058      3.390      4.745
REMARK INTER + INTRA:          -9.706
REMARK INTER:                  -8.845
REMARK INTRA:                  -0.861
REMARK UNBOUND:                -0.235
REMARK  3 active torsions:
REMARK  status: ('A' for Active; 'I' for Inactive)
REMARK    1  A    between atoms: C_9  and  N_27 
REMARK    2  A    between atoms: C_11  and  C_18 
REMARK       I    between atoms: C_11  and  N_28 
REMARK    3  A    between atoms: C_18  and  N_29 
ROOT
HETATM    1  C   UNL     1     -14.549   7.292 -16.027  1.00  0.00     0.103 C 
HETATM    2  C   UNL     1     -12.631   7.368 -14.398  1.00  0.00     0.022 C 
HETATM    3  C   UNL     1     -13.091  10.362 -15.924  1.00  0.00     0.237 C 
HETATM    4  C   UNL     1     -13.056   8.777 -14.035  1.00  0.00     0.126 C 
HETATM    5  C   UNL     1     -14.904   8.728 -15.624  1.00  0.00     0.151 C 
HETATM    6  C   UNL     1     -13.836   6.567 -14.889  1.00  0.00     0.028 C 
HETATM    7  N   UNL     1     -13.674   9.397 -15.208  1.00  0.00    -0.349 N 
HETATM    8  O   UNL     1     -13.521  10.695 -17.029  1.00  0.00    -0.272 OA
ENDROOT
BRANCH   1   9
HETATM    9  N   UNL     1     -15.737   6.574 -16.505  1.00  0.00    -0.364 N 
HETATM   10  C   UNL     1     -16.841   6.465 -15.565  1.00  0.00     0.152 C 
HETATM   11  C   UNL     1     -15.795   5.972 -17.715  1.00  0.00     0.118 A 
HETATM   12  N   UNL     1     -16.726   4.998 -17.852  1.00  0.00    -0.338 N 
HETATM   13  C   UNL     1     -14.978   6.288 -18.837  1.00  0.00     0.053 A 
HETATM   14  C   UNL     1     -16.830   4.373 -19.032  1.00  0.00     0.183 A 
ATOM     15  HN  UNL     1     -17.334   4.746 -17.073  1.00  0.00     0.168 HD
HETATM   16  N   UNL     1     -16.116   4.561 -20.136  1.00  0.00    -0.338 N 
HETATM   17  C   UNL     1     -15.194   5.529 -20.010  1.00  0.00     0.120 A 
ATOM     18  HN  UNL     1     -16.254   4.025 -20.992  1.00  0.00     0.168 HD
HETATM   19  N   UNL     1     -14.324   5.961 -20.972  1.00  0.00    -0.351 N 
HETATM   20  C   UNL     1     -13.560   6.975 -20.438  1.00  0.00     0.091 A 
ATOM     21  HN  UNL     1     -14.253   5.595 -21.922  1.00  0.00     0.166 HD
HETATM   22  C   UNL     1     -13.928   7.209 -19.148  1.00  0.00     0.036 A 
ENDBRANCH   1   9
BRANCH   3  23
HETATM   23  C   UNL     1     -11.829  10.999 -15.372  1.00  0.00     0.222 C 
BRANCH  23  24
HETATM   24  N   UNL     1     -12.145  12.123 -14.516  1.00  0.00    -0.381 N 
HETATM   25  C   UNL     1     -11.524  12.383 -13.331  1.00  0.00     0.031 A 
HETATM   26  C   UNL     1     -11.794  13.571 -12.667  1.00  0.00     0.053 A 
HETATM   27  C   UNL     1     -10.607  11.481 -12.805  1.00  0.00     0.053 A 
HETATM   28  C   UNL     1     -11.152  13.822 -11.469  1.00  0.00     0.037 A 
HETATM   29 CL   UNL     1     -11.498  15.301 -10.632  1.00  0.00    -0.084 Cl
HETATM   30  C   UNL     1     -10.238  12.951 -10.915  1.00  0.00     0.048 A 
HETATM   31  C   UNL     1      -9.990  11.784 -11.607  1.00  0.00     0.037 A 
HETATM   32 CL   UNL     1      -8.857  10.656 -10.928  1.00  0.00    -0.084 Cl
ATOM     33  HN  UNL     1     -12.880  12.762 -14.819  1.00  0.00     0.160 HD
ENDBRANCH  23  24
ENDBRANCH   3  23
TORSDOF 3
ENDMDL
MODEL 19
REMARK VINA RESULT:    -7.977      4.476      8.638
REMARK INTER + INTRA:          -9.611
REMARK INTER:                  -8.788
REMARK INTRA:                  -0.823
REMARK UNBOUND:                -0.235
REMARK  3 active torsions:
REMARK  status: ('A' for Active; 'I' for Inactive)
REMARK    1  A    between atoms: C_9  and  N_27 
REMARK    2  A    between atoms: C_11  and  C_18 
REMARK       I    between atoms: C_11  and  N_28 
REMARK    3  A    between atoms: C_18  and  N_29 
ROOT
HETATM    1  C   UNL     1     -12.224  10.959 -14.539  1.00  0.00     0.103 C 
HETATM    2  C   UNL     1     -14.540   9.978 -14.609  1.00  0.00     0.022 C 
HETATM    3  C   UNL     1     -12.180   7.655 -15.340  1.00  0.00     0.237 C 
HETATM    4  C   UNL     1     -13.970   8.708 -14.010  1.00  0.00     0.126 C 
HETATM    5  C   UNL     1     -11.717   9.635 -13.956  1.00  0.00     0.151 C 
HETATM    6  C   UNL     1     -13.694  11.180 -14.193  1.00  0.00     0.028 C 
HETATM    7  N   UNL     1     -12.581   8.566 -14.449  1.00  0.00    -0.349 N 
HETATM    8  O   UNL     1     -11.065   7.712 -15.863  1.00  0.00    -0.272 OA
ENDROOT
BRANCH   1   9
HETATM    9  N   UNL     1     -11.366  12.076 -14.121  1.00  0.00    -0.364 N 
HETATM   10  C   UNL     1     -11.268  12.308 -12.690  1.00  0.00     0.152 C 
HETATM   11  C   UNL     1     -10.756  12.903 -15.001  1.00  0.00     0.118 A 
HETATM   12  N   UNL     1     -10.384  14.114 -14.521  1.00  0.00    -0.338 N 
HETATM   13  C   UNL     1     -10.469  12.599 -16.361  1.00  0.00     0.053 A 
HETATM   14  C   UNL     1      -9.771  14.970 -15.348  1.00  0.00     0.183 A 
ATOM     15  HN  UNL     1     -10.568  14.367 -13.550  1.00  0.00     0.168 HD
HETATM   16  N   UNL     1      -9.471  14.811 -16.632  1.00  0.00    -0.338 N 
HETATM   17  C   UNL     1      -9.832  13.611 -17.115  1.00  0.00     0.120 A 
ATOM     18  HN  UNL     1      -9.013  15.528 -17.195  1.00  0.00     0.168 HD
HETATM   19  N   UNL     1      -9.644  13.150 -18.388  1.00  0.00    -0.351 N 
HETATM   20  C   UNL     1     -10.146  11.870 -18.462  1.00  0.00     0.091 A 
ATOM     21  HN  UNL     1      -9.206  13.666 -19.152  1.00  0.00     0.166 HD
HETATM   22  C   UNL     1     -10.650  11.495 -17.253  1.00  0.00     0.036 A 
ENDBRANCH   1   9
BRANCH   3  23
HETATM   23  C   UNL     1     -13.164   6.577 -15.754  1.00  0.00     0.222 C 
BRANCH  23  24
HETATM   24  N   UNL     1     -13.024   6.256 -17.159  1.00  0.00    -0.381 N 
HETATM   25  C   UNL     1     -14.059   5.898 -17.970  1.00  0.00     0.031 A 
HETATM   26  C   UNL     1     -13.841   5.765 -19.334  1.00  0.00     0.053 A 
HETATM   27  C   UNL     1     -15.328   5.694 -17.441  1.00  0.00     0.053 A 
HETATM   28  C   UNL     1     -14.902   5.405 -20.143  1.00  0.00     0.037 A 
HETATM   29 CL   UNL     1     -14.628   5.227 -21.846  1.00  0.00    -0.084 Cl
HETATM   30  C   UNL     1     -16.174   5.193 -19.656  1.00  0.00     0.048 A 
HETATM   31  C   UNL     1     -16.354   5.341 -18.296  1.00  0.00     0.037 A 
HETATM   32 CL   UNL     1     -17.940   5.063 -17.647  1.00  0.00    -0.084 Cl
ATOM     33  HN  UNL     1     -12.091   6.302 -17.568  1.00  0.00     0.160 HD
ENDBRANCH  23  24
ENDBRANCH   3  23
TORSDOF 3
ENDMDL
