MODEL 1
REMARK VINA RESULT:    -6.425      0.000      0.000
REMARK INTER + INTRA:          -8.744
REMARK INTER:                  -8.303
REMARK INTRA:                  -0.441
REMARK UNBOUND:                -0.441
REMARK  5 active torsions:
REMARK  status: ('A' for Active; 'I' for Inactive)
REMARK    1  A    between atoms: S_1  and  C_5 
REMARK    2  A    between atoms: C_5  and  C_6 
REMARK    3  A    between atoms: C_6  and  C_7 
REMARK    4  A    between atoms: C_7  and  N_8 
REMARK    5  A    between atoms: N_8  and  C_11 
ROOT
HETATM    1  N   UNL     1       6.528   7.289  18.249  1.00  0.00    -0.071 N 
ATOM      2  HN1 UNL     1       7.036   8.086  18.633  1.00  0.00     0.277 HD
ATOM      3  HN2 UNL     1       7.243   6.920  17.621  1.00  0.00     0.277 HD
ENDROOT
BRANCH   1   4
HETATM    4  C   UNL     1       5.348   7.739  17.489  1.00  0.00     0.233 C 
BRANCH   4   5
HETATM    5  C   UNL     1       5.533   9.184  17.024  1.00  0.00     0.045 C 
BRANCH   5   6
HETATM    6  C   UNL     1       5.653   9.303  15.501  1.00  0.00     0.167 C 
BRANCH   6   7
HETATM    7  S   UNL     1       7.256   9.548  15.079  1.00  0.00     0.101 S 
HETATM    8  O   UNL     1       7.687   8.406  14.290  1.00  0.00    -0.595 OA
HETATM    9  O   UNL     1       7.388  10.803  14.410  1.00  0.00    -0.595 OA
HETATM   10  O   UNL     1       8.099   9.567  16.459  1.00  0.00    -0.595 OA
ENDBRANCH   6   7
ENDBRANCH   5   6
ENDBRANCH   4   5
ENDBRANCH   1   4
BRANCH   1  11
HETATM   11  C   UNL     1       6.207   6.307  19.315  1.00  0.00     0.185 C 
HETATM   12  C   UNL     1       5.390   5.168  18.732  1.00  0.00     0.033 C 
HETATM   13  C   UNL     1       5.602   3.827  19.447  1.00  0.00     0.002 C 
HETATM   14  C   UNL     1       5.937   3.993  20.923  1.00  0.00     0.000 C 
HETATM   15  C   UNL     1       7.249   4.732  21.064  1.00  0.00     0.002 C 
HETATM   16  C   UNL     1       7.470   5.772  19.966  1.00  0.00     0.033 C 
ENDBRANCH   1  11
TORSDOF 5
ENDMDL
MODEL 2
REMARK VINA RESULT:    -6.401      0.742      1.838
REMARK INTER + INTRA:          -8.714
REMARK INTER:                  -8.189
REMARK INTRA:                  -0.524
REMARK UNBOUND:                -0.441
REMARK  5 active torsions:
REMARK  status: ('A' for Active; 'I' for Inactive)
REMARK    1  A    between atoms: S_1  and  C_5 
REMARK    2  A    between atoms: C_5  and  C_6 
REMARK    3  A    between atoms: C_6  and  C_7 
REMARK    4  A    between atoms: C_7  and  N_8 
REMARK    5  A    between atoms: N_8  and  C_11 
ROOT
HETATM    1  N   UNL     1       6.248   7.059  18.434  1.00  0.00    -0.071 N 
ATOM      2  HN1 UNL     1       6.693   7.656  19.132  1.00  0.00     0.277 HD
ATOM      3  HN2 UNL     1       6.903   7.185  17.662  1.00  0.00     0.277 HD
ENDROOT
BRANCH   1   4
HETATM    4  C   UNL     1       4.916   7.577  18.077  1.00  0.00     0.233 C 
BRANCH   4   5
HETATM    5  C   UNL     1       5.046   8.862  17.259  1.00  0.00     0.045 C 
BRANCH   5   6
HETATM    6  C   UNL     1       5.560   8.609  15.838  1.00  0.00     0.167 C 
BRANCH   6   7
HETATM    7  S   UNL     1       7.055   9.339  15.641  1.00  0.00     0.101 S 
HETATM    8  O   UNL     1       7.770   9.236  16.902  1.00  0.00    -0.595 OA
HETATM    9  O   UNL     1       7.735   8.743  14.534  1.00  0.00    -0.595 OA
HETATM   10  O   UNL     1       6.769  10.901  15.337  1.00  0.00    -0.595 OA
ENDBRANCH   6   7
ENDBRANCH   5   6
ENDBRANCH   4   5
ENDBRANCH   1   4
BRANCH   1  11
HETATM   11  C   UNL     1       6.233   5.645  18.886  1.00  0.00     0.185 C 
HETATM   12  C   UNL     1       7.014   5.513  20.182  1.00  0.00     0.033 C 
HETATM   13  C   UNL     1       6.509   4.388  21.095  1.00  0.00     0.002 C 
HETATM   14  C   UNL     1       5.906   3.226  20.318  1.00  0.00     0.000 C 
HETATM   15  C   UNL     1       4.686   3.702  19.561  1.00  0.00     0.002 C 
HETATM   16  C   UNL     1       4.812   5.145  19.072  1.00  0.00     0.033 C 
ENDBRANCH   1  11
TORSDOF 5
ENDMDL
MODEL 3
REMARK VINA RESULT:    -5.803      1.422      1.687
REMARK INTER + INTRA:          -7.941
REMARK INTER:                  -7.317
REMARK INTRA:                  -0.624
REMARK UNBOUND:                -0.441
REMARK  5 active torsions:
REMARK  status: ('A' for Active; 'I' for Inactive)
REMARK    1  A    between atoms: S_1  and  C_5 
REMARK    2  A    between atoms: C_5  and  C_6 
REMARK    3  A    between atoms: C_6  and  C_7 
REMARK    4  A    between atoms: C_7  and  N_8 
REMARK    5  A    between atoms: N_8  and  C_11 
ROOT
HETATM    1  N   UNL     1       6.152   7.255  18.401  1.00  0.00    -0.071 N 
ATOM      2  HN1 UNL     1       6.852   7.965  18.619  1.00  0.00     0.277 HD
ATOM      3  HN2 UNL     1       6.561   6.871  17.549  1.00  0.00     0.277 HD
ENDROOT
BRANCH   1   4
HETATM    4  C   UNL     1       4.847   7.879  18.118  1.00  0.00     0.233 C 
BRANCH   4   5
HETATM    5  C   UNL     1       4.951   8.803  16.905  1.00  0.00     0.045 C 
BRANCH   5   6
HETATM    6  C   UNL     1       4.563   8.106  15.596  1.00  0.00     0.167 C 
BRANCH   6   7
HETATM    7  S   UNL     1       5.902   7.333  14.951  1.00  0.00     0.101 S 
HETATM    8  O   UNL     1       5.910   5.967  15.447  1.00  0.00    -0.595 OA
HETATM    9  O   UNL     1       5.873   7.436  13.526  1.00  0.00    -0.595 OA
HETATM   10  O   UNL     1       7.203   8.099  15.533  1.00  0.00    -0.595 OA
ENDBRANCH   6   7
ENDBRANCH   5   6
ENDBRANCH   4   5
ENDBRANCH   1   4
BRANCH   1  11
HETATM   11  C   UNL     1       6.098   6.226  19.470  1.00  0.00     0.185 C 
HETATM   12  C   UNL     1       5.298   5.029  18.986  1.00  0.00     0.033 C 
HETATM   13  C   UNL     1       5.741   3.698  19.609  1.00  0.00     0.002 C 
HETATM   14  C   UNL     1       6.298   3.864  21.017  1.00  0.00     0.000 C 
HETATM   15  C   UNL     1       7.546   4.717  20.970  1.00  0.00     0.002 C 
HETATM   16  C   UNL     1       7.492   5.796  19.888  1.00  0.00     0.033 C 
ENDBRANCH   1  11
TORSDOF 5
ENDMDL
MODEL 4
REMARK VINA RESULT:    -5.758      2.591      3.143
REMARK INTER + INTRA:          -7.882
REMARK INTER:                  -7.313
REMARK INTRA:                  -0.569
REMARK UNBOUND:                -0.441
REMARK  5 active torsions:
REMARK  status: ('A' for Active; 'I' for Inactive)
REMARK    1  A    between atoms: S_1  and  C_5 
REMARK    2  A    between atoms: C_5  and  C_6 
REMARK    3  A    between atoms: C_6  and  C_7 
REMARK    4  A    between atoms: C_7  and  N_8 
REMARK    5  A    between atoms: N_8  and  C_11 
ROOT
HETATM    1  N   UNL     1       4.429   4.699  17.561  1.00  0.00    -0.071 N 
ATOM      2  HN1 UNL     1       3.815   3.887  17.507  1.00  0.00     0.277 HD
ATOM      3  HN2 UNL     1       3.769   5.388  17.922  1.00  0.00     0.277 HD
ENDROOT
BRANCH   1   4
HETATM    4  C   UNL     1       4.903   5.085  16.220  1.00  0.00     0.233 C 
BRANCH   4   5
HETATM    5  C   UNL     1       4.021   6.192  15.641  1.00  0.00     0.045 C 
BRANCH   5   6
HETATM    6  C   UNL     1       4.769   7.519  15.477  1.00  0.00     0.167 C 
BRANCH   6   7
HETATM    7  S   UNL     1       4.352   8.559  16.722  1.00  0.00     0.101 S 
HETATM    8  O   UNL     1       3.453   9.565  16.180  1.00  0.00    -0.595 OA
HETATM    9  O   UNL     1       3.802   7.810  17.808  1.00  0.00    -0.595 OA
HETATM   10  O   UNL     1       5.717   9.288  17.192  1.00  0.00    -0.595 OA
ENDBRANCH   6   7
ENDBRANCH   5   6
ENDBRANCH   4   5
ENDBRANCH   1   4
BRANCH   1  11
HETATM   11  C   UNL     1       5.527   4.465  18.532  1.00  0.00     0.185 C 
HETATM   12  C   UNL     1       6.358   5.728  18.679  1.00  0.00     0.033 C 
HETATM   13  C   UNL     1       6.999   5.887  20.065  1.00  0.00     0.002 C 
HETATM   14  C   UNL     1       7.317   4.551  20.723  1.00  0.00     0.000 C 
HETATM   15  C   UNL     1       6.034   3.787  20.962  1.00  0.00     0.002 C 
HETATM   16  C   UNL     1       4.982   4.031  19.881  1.00  0.00     0.033 C 
ENDBRANCH   1  11
TORSDOF 5
ENDMDL
MODEL 5
REMARK VINA RESULT:    -5.735      2.416      2.913
REMARK INTER + INTRA:          -7.852
REMARK INTER:                  -7.420
REMARK INTRA:                  -0.432
REMARK UNBOUND:                -0.441
REMARK  5 active torsions:
REMARK  status: ('A' for Active; 'I' for Inactive)
REMARK    1  A    between atoms: S_1  and  C_5 
REMARK    2  A    between atoms: C_5  and  C_6 
REMARK    3  A    between atoms: C_6  and  C_7 
REMARK    4  A    between atoms: C_7  and  N_8 
REMARK    5  A    between atoms: N_8  and  C_11 
ROOT
HETATM    1  N   UNL     1       6.039   7.087  18.476  1.00  0.00    -0.071 N 
ATOM      2  HN1 UNL     1       5.092   7.447  18.598  1.00  0.00     0.277 HD
ATOM      3  HN2 UNL     1       6.536   7.691  19.132  1.00  0.00     0.277 HD
ENDROOT
BRANCH   1   4
HETATM    4  C   UNL     1       6.510   7.315  17.099  1.00  0.00     0.233 C 
BRANCH   4   5
HETATM    5  C   UNL     1       6.402   8.796  16.737  1.00  0.00     0.045 C 
BRANCH   5   6
HETATM    6  C   UNL     1       5.421   9.054  15.588  1.00  0.00     0.167 C 
BRANCH   6   7
HETATM    7  S   UNL     1       3.851   9.041  16.173  1.00  0.00     0.101 S 
HETATM    8  O   UNL     1       3.238   7.786  15.773  1.00  0.00    -0.595 OA
HETATM    9  O   UNL     1       3.865   9.260  17.586  1.00  0.00    -0.595 OA
HETATM   10  O   UNL     1       3.074  10.252  15.436  1.00  0.00    -0.595 OA
ENDBRANCH   6   7
ENDBRANCH   5   6
ENDBRANCH   4   5
ENDBRANCH   1   4
BRANCH   1  11
HETATM   11  C   UNL     1       6.120   5.668  18.904  1.00  0.00     0.185 C 
HETATM   12  C   UNL     1       6.942   5.564  20.177  1.00  0.00     0.033 C 
HETATM   13  C   UNL     1       6.530   4.396  21.083  1.00  0.00     0.002 C 
HETATM   14  C   UNL     1       5.977   3.211  20.302  1.00  0.00     0.000 C 
HETATM   15  C   UNL     1       4.711   3.625  19.585  1.00  0.00     0.002 C 
HETATM   16  C   UNL     1       4.737   5.080  19.118  1.00  0.00     0.033 C 
ENDBRANCH   1  11
TORSDOF 5
ENDMDL
MODEL 6
REMARK VINA RESULT:    -5.573      3.870      6.314
REMARK INTER + INTRA:          -7.643
REMARK INTER:                  -7.306
REMARK INTRA:                  -0.337
REMARK UNBOUND:                -0.441
REMARK  5 active torsions:
REMARK  status: ('A' for Active; 'I' for Inactive)
REMARK    1  A    between atoms: S_1  and  C_5 
REMARK    2  A    between atoms: C_5  and  C_6 
REMARK    3  A    between atoms: C_6  and  C_7 
REMARK    4  A    between atoms: C_7  and  N_8 
REMARK    5  A    between atoms: N_8  and  C_11 
ROOT
HETATM    1  N   UNL     1       6.100   8.103  17.747  1.00  0.00    -0.071 N 
ATOM      2  HN1 UNL     1       6.726   7.414  17.332  1.00  0.00     0.277 HD
ATOM      3  HN2 UNL     1       6.609   8.297  18.610  1.00  0.00     0.277 HD
ENDROOT
BRANCH   1   4
HETATM    4  C   UNL     1       4.786   7.504  18.041  1.00  0.00     0.233 C 
BRANCH   4   5
HETATM    5  C   UNL     1       4.734   6.061  17.539  1.00  0.00     0.045 C 
BRANCH   5   6
HETATM    6  C   UNL     1       4.369   5.064  18.644  1.00  0.00     0.167 C 
BRANCH   6   7
HETATM    7  S   UNL     1       5.747   4.260  19.156  1.00  0.00     0.101 S 
HETATM    8  O   UNL     1       5.834   3.012  18.416  1.00  0.00    -0.595 OA
HETATM    9  O   UNL     1       6.884   5.112  18.999  1.00  0.00    -0.595 OA
HETATM   10  O   UNL     1       5.527   3.917  20.721  1.00  0.00    -0.595 OA
ENDBRANCH   6   7
ENDBRANCH   5   6
ENDBRANCH   4   5
ENDBRANCH   1   4
BRANCH   1  11
HETATM   11  C   UNL     1       6.020   9.319  16.899  1.00  0.00     0.185 C 
HETATM   12  C   UNL     1       7.317   9.489  16.126  1.00  0.00     0.033 C 
HETATM   13  C   UNL     1       7.140  10.186  14.770  1.00  0.00     0.002 C 
HETATM   14  C   UNL     1       5.985  11.178  14.764  1.00  0.00     0.000 C 
HETATM   15  C   UNL     1       4.686  10.441  15.006  1.00  0.00     0.002 C 
HETATM   16  C   UNL     1       4.843   9.245  15.944  1.00  0.00     0.033 C 
ENDBRANCH   1  11
TORSDOF 5
ENDMDL
MODEL 7
REMARK VINA RESULT:    -5.514      1.246      2.179
REMARK INTER + INTRA:          -7.566
REMARK INTER:                  -7.165
REMARK INTRA:                  -0.402
REMARK UNBOUND:                -0.441
REMARK  5 active torsions:
REMARK  status: ('A' for Active; 'I' for Inactive)
REMARK    1  A    between atoms: S_1  and  C_5 
REMARK    2  A    between atoms: C_5  and  C_6 
REMARK    3  A    between atoms: C_6  and  C_7 
REMARK    4  A    between atoms: C_7  and  N_8 
REMARK    5  A    between atoms: N_8  and  C_11 
ROOT
HETATM    1  N   UNL     1       5.163   5.361  16.663  1.00  0.00    -0.071 N 
ATOM      2  HN1 UNL     1       5.823   5.371  15.885  1.00  0.00     0.277 HD
ATOM      3  HN2 UNL     1       4.484   4.691  16.302  1.00  0.00     0.277 HD
ENDROOT
BRANCH   1   4
HETATM    4  C   UNL     1       4.545   6.687  16.839  1.00  0.00     0.233 C 
BRANCH   4   5
HETATM    5  C   UNL     1       4.982   7.632  15.719  1.00  0.00     0.045 C 
BRANCH   5   6
HETATM    6  C   UNL     1       5.327   9.035  16.230  1.00  0.00     0.167 C 
BRANCH   6   7
HETATM    7  S   UNL     1       6.927   9.385  15.880  1.00  0.00     0.101 S 
HETATM    8  O   UNL     1       6.976  10.724  15.317  1.00  0.00    -0.595 OA
HETATM    9  O   UNL     1       7.723   9.217  17.055  1.00  0.00    -0.595 OA
HETATM   10  O   UNL     1       7.393   8.332  14.744  1.00  0.00    -0.595 OA
ENDBRANCH   6   7
ENDBRANCH   5   6
ENDBRANCH   4   5
ENDBRANCH   1   4
BRANCH   1  11
HETATM   11  C   UNL     1       5.811   4.842  17.894  1.00  0.00     0.185 C 
HETATM   12  C   UNL     1       6.778   5.879  18.439  1.00  0.00     0.033 C 
HETATM   13  C   UNL     1       6.944   5.827  19.964  1.00  0.00     0.002 C 
HETATM   14  C   UNL     1       6.759   4.425  20.529  1.00  0.00     0.000 C 
HETATM   15  C   UNL     1       5.345   3.957  20.265  1.00  0.00     0.002 C 
HETATM   16  C   UNL     1       4.778   4.480  18.946  1.00  0.00     0.033 C 
ENDBRANCH   1  11
TORSDOF 5
ENDMDL
MODEL 8
REMARK VINA RESULT:    -5.465      4.286      6.698
REMARK INTER + INTRA:          -7.504
REMARK INTER:                  -7.292
REMARK INTRA:                  -0.212
REMARK UNBOUND:                -0.441
REMARK  5 active torsions:
REMARK  status: ('A' for Active; 'I' for Inactive)
REMARK    1  A    between atoms: S_1  and  C_5 
REMARK    2  A    between atoms: C_5  and  C_6 
REMARK    3  A    between atoms: C_6  and  C_7 
REMARK    4  A    between atoms: C_7  and  N_8 
REMARK    5  A    between atoms: N_8  and  C_11 
ROOT
HETATM    1  N   UNL     1       5.997   8.491  17.621  1.00  0.00    -0.071 N 
ATOM      2  HN1 UNL     1       6.747   9.001  18.089  1.00  0.00     0.277 HD
ATOM      3  HN2 UNL     1       5.216   8.745  18.226  1.00  0.00     0.277 HD
ENDROOT
BRANCH   1   4
HETATM    4  C   UNL     1       6.244   7.039  17.671  1.00  0.00     0.233 C 
BRANCH   4   5
HETATM    5  C   UNL     1       5.694   6.449  18.969  1.00  0.00     0.045 C 
BRANCH   5   6
HETATM    6  C   UNL     1       6.524   5.267  19.480  1.00  0.00     0.167 C 
BRANCH   6   7
HETATM    7  S   UNL     1       5.524   3.950  19.751  1.00  0.00     0.101 S 
HETATM    8  O   UNL     1       5.575   3.638  21.170  1.00  0.00    -0.595 OA
HETATM    9  O   UNL     1       4.212   4.238  19.264  1.00  0.00    -0.595 OA
HETATM   10  O   UNL     1       6.159   2.712  18.928  1.00  0.00    -0.595 OA
ENDBRANCH   6   7
ENDBRANCH   5   6
ENDBRANCH   4   5
ENDBRANCH   1   4
BRANCH   1  11
HETATM   11  C   UNL     1       5.788   9.010  16.246  1.00  0.00     0.185 C 
HETATM   12  C   UNL     1       4.306   9.234  16.004  1.00  0.00     0.033 C 
HETATM   13  C   UNL     1       4.007  10.368  15.014  1.00  0.00     0.002 C 
HETATM   14  C   UNL     1       5.097  10.537  13.965  1.00  0.00     0.000 C 
HETATM   15  C   UNL     1       6.392  10.929  14.640  1.00  0.00     0.002 C 
HETATM   16  C   UNL     1       6.561  10.297  16.022  1.00  0.00     0.033 C 
ENDBRANCH   1  11
TORSDOF 5
ENDMDL
MODEL 9
REMARK VINA RESULT:    -5.368      4.604      6.501
REMARK INTER + INTRA:          -7.378
REMARK INTER:                  -7.236
REMARK INTRA:                  -0.142
REMARK UNBOUND:                -0.441
REMARK  5 active torsions:
REMARK  status: ('A' for Active; 'I' for Inactive)
REMARK    1  A    between atoms: S_1  and  C_5 
REMARK    2  A    between atoms: C_5  and  C_6 
REMARK    3  A    between atoms: C_6  and  C_7 
REMARK    4  A    between atoms: C_7  and  N_8 
REMARK    5  A    between atoms: N_8  and  C_11 
ROOT
HETATM    1  N   UNL     1       5.685   7.412  18.593  1.00  0.00    -0.071 N 
ATOM      2  HN1 UNL     1       6.280   7.711  19.366  1.00  0.00     0.277 HD
ATOM      3  HN2 UNL     1       4.862   7.983  18.781  1.00  0.00     0.277 HD
ENDROOT
BRANCH   1   4
HETATM    4  C   UNL     1       5.363   5.979  18.706  1.00  0.00     0.233 C 
BRANCH   4   5
HETATM    5  C   UNL     1       6.488   5.235  19.425  1.00  0.00     0.045 C 
BRANCH   5   6
HETATM    6  C   UNL     1       5.986   4.412  20.617  1.00  0.00     0.167 C 
BRANCH   6   7
HETATM    7  S   UNL     1       5.223   3.027  20.064  1.00  0.00     0.101 S 
HETATM    8  O   UNL     1       5.784   2.699  18.764  1.00  0.00    -0.595 OA
HETATM    9  O   UNL     1       5.356   1.987  21.036  1.00  0.00    -0.595 OA
HETATM   10  O   UNL     1       3.663   3.404  19.872  1.00  0.00    -0.595 OA
ENDBRANCH   6   7
ENDBRANCH   5   6
ENDBRANCH   4   5
ENDBRANCH   1   4
BRANCH   1  11
HETATM   11  C   UNL     1       6.294   7.781  17.290  1.00  0.00     0.185 C 
HETATM   12  C   UNL     1       5.696   6.926  16.186  1.00  0.00     0.033 C 
HETATM   13  C   UNL     1       5.653   7.623  14.820  1.00  0.00     0.002 C 
HETATM   14  C   UNL     1       6.788   8.621  14.632  1.00  0.00     0.000 C 
HETATM   15  C   UNL     1       6.659   9.731  15.651  1.00  0.00     0.002 C 
HETATM   16  C   UNL     1       6.089   9.254  16.986  1.00  0.00     0.033 C 
ENDBRANCH   1  11
TORSDOF 5
ENDMDL
MODEL 10
REMARK VINA RESULT:    -5.357      2.223      2.631
REMARK INTER + INTRA:          -7.364
REMARK INTER:                  -6.935
REMARK INTRA:                  -0.430
REMARK UNBOUND:                -0.441
REMARK  5 active torsions:
REMARK  status: ('A' for Active; 'I' for Inactive)
REMARK    1  A    between atoms: S_1  and  C_5 
REMARK    2  A    between atoms: C_5  and  C_6 
REMARK    3  A    between atoms: C_6  and  C_7 
REMARK    4  A    between atoms: C_7  and  N_8 
REMARK    5  A    between atoms: N_8  and  C_11 
ROOT
HETATM    1  N   UNL     1       4.573   4.569  17.494  1.00  0.00    -0.071 N 
ATOM      2  HN1 UNL     1       4.899   4.270  16.575  1.00  0.00     0.277 HD
ATOM      3  HN2 UNL     1       3.819   3.896  17.633  1.00  0.00     0.277 HD
ENDROOT
BRANCH   1   4
HETATM    4  C   UNL     1       4.042   5.942  17.437  1.00  0.00     0.233 C 
BRANCH   4   5
HETATM    5  C   UNL     1       3.986   6.433  15.990  1.00  0.00     0.045 C 
BRANCH   5   6
HETATM    6  C   UNL     1       5.111   5.853  15.126  1.00  0.00     0.167 C 
BRANCH   6   7
HETATM    7  S   UNL     1       6.105   7.090  14.590  1.00  0.00     0.101 S 
HETATM    8  O   UNL     1       7.381   6.504  14.215  1.00  0.00    -0.595 OA
HETATM    9  O   UNL     1       5.456   7.802  13.534  1.00  0.00    -0.595 OA
HETATM   10  O   UNL     1       6.341   8.073  15.853  1.00  0.00    -0.595 OA
ENDBRANCH   6   7
ENDBRANCH   5   6
ENDBRANCH   4   5
ENDBRANCH   1   4
BRANCH   1  11
HETATM   11  C   UNL     1       5.636   4.386  18.513  1.00  0.00     0.185 C 
HETATM   12  C   UNL     1       6.446   5.665  18.641  1.00  0.00     0.033 C 
HETATM   13  C   UNL     1       7.032   5.886  20.043  1.00  0.00     0.002 C 
HETATM   14  C   UNL     1       7.342   4.582  20.764  1.00  0.00     0.000 C 
HETATM   15  C   UNL     1       6.060   3.810  20.986  1.00  0.00     0.002 C 
HETATM   16  C   UNL     1       5.046   3.998  19.857  1.00  0.00     0.033 C 
ENDBRANCH   1  11
TORSDOF 5
ENDMDL
MODEL 11
REMARK VINA RESULT:    -5.210      1.683      2.526
REMARK INTER + INTRA:          -7.174
REMARK INTER:                  -6.767
REMARK INTRA:                  -0.407
REMARK UNBOUND:                -0.441
REMARK  5 active torsions:
REMARK  status: ('A' for Active; 'I' for Inactive)
REMARK    1  A    between atoms: S_1  and  C_5 
REMARK    2  A    between atoms: C_5  and  C_6 
REMARK    3  A    between atoms: C_6  and  C_7 
REMARK    4  A    between atoms: C_7  and  N_8 
REMARK    5  A    between atoms: N_8  and  C_11 
ROOT
HETATM    1  N   UNL     1       5.335   5.532  15.493  1.00  0.00    -0.071 N 
ATOM      2  HN1 UNL     1       5.299   4.755  14.834  1.00  0.00     0.277 HD
ATOM      3  HN2 UNL     1       4.378   5.874  15.404  1.00  0.00     0.277 HD
ENDROOT
BRANCH   1   4
HETATM    4  C   UNL     1       6.297   6.554  15.044  1.00  0.00     0.233 C 
BRANCH   4   5
HETATM    5  C   UNL     1       5.560   7.771  14.484  1.00  0.00     0.045 C 
BRANCH   5   6
HETATM    6  C   UNL     1       5.707   9.011  15.371  1.00  0.00     0.167 C 
BRANCH   6   7
HETATM    7  S   UNL     1       7.056   9.885  14.900  1.00  0.00     0.101 S 
HETATM    8  O   UNL     1       8.130   9.581  15.831  1.00  0.00    -0.595 OA
HETATM    9  O   UNL     1       7.364   9.591  13.536  1.00  0.00    -0.595 OA
HETATM   10  O   UNL     1       6.670  11.448  15.054  1.00  0.00    -0.595 OA
ENDBRANCH   6   7
ENDBRANCH   5   6
ENDBRANCH   4   5
ENDBRANCH   1   4
BRANCH   1  11
HETATM   11  C   UNL     1       5.592   5.041  16.870  1.00  0.00     0.185 C 
HETATM   12  C   UNL     1       6.638   5.918  17.539  1.00  0.00     0.033 C 
HETATM   13  C   UNL     1       6.480   6.013  19.062  1.00  0.00     0.002 C 
HETATM   14  C   UNL     1       5.879   4.754  19.672  1.00  0.00     0.000 C 
HETATM   15  C   UNL     1       4.477   4.554  19.138  1.00  0.00     0.002 C 
HETATM   16  C   UNL     1       4.316   5.022  17.692  1.00  0.00     0.033 C 
ENDBRANCH   1  11
TORSDOF 5
ENDMDL
MODEL 12
REMARK VINA RESULT:    -5.179      3.185      3.656
REMARK INTER + INTRA:          -7.134
REMARK INTER:                  -6.803
REMARK INTRA:                  -0.330
REMARK UNBOUND:                -0.441
REMARK  5 active torsions:
REMARK  status: ('A' for Active; 'I' for Inactive)
REMARK    1  A    between atoms: S_1  and  C_5 
REMARK    2  A    between atoms: C_5  and  C_6 
REMARK    3  A    between atoms: C_6  and  C_7 
REMARK    4  A    between atoms: C_7  and  N_8 
REMARK    5  A    between atoms: N_8  and  C_11 
ROOT
HETATM    1  N   UNL     1       5.002   4.115  17.036  1.00  0.00    -0.071 N 
ATOM      2  HN1 UNL     1       5.306   3.356  16.426  1.00  0.00     0.277 HD
ATOM      3  HN2 UNL     1       4.068   3.779  17.271  1.00  0.00     0.277 HD
ENDROOT
BRANCH   1   4
HETATM    4  C   UNL     1       4.926   5.384  16.291  1.00  0.00     0.233 C 
BRANCH   4   5
HETATM    5  C   UNL     1       3.478   5.868  16.208  1.00  0.00     0.045 C 
BRANCH   5   6
HETATM    6  C   UNL     1       3.118   6.420  14.825  1.00  0.00     0.167 C 
BRANCH   6   7
HETATM    7  S   UNL     1       3.040   8.092  14.887  1.00  0.00     0.101 S 
HETATM    8  O   UNL     1       3.503   8.510  16.200  1.00  0.00    -0.595 OA
HETATM    9  O   UNL     1       3.786   8.647  13.801  1.00  0.00    -0.595 OA
HETATM   10  O   UNL     1       1.479   8.487  14.742  1.00  0.00    -0.595 OA
ENDBRANCH   6   7
ENDBRANCH   5   6
ENDBRANCH   4   5
ENDBRANCH   1   4
BRANCH   1  11
HETATM   11  C   UNL     1       5.856   4.189  18.248  1.00  0.00     0.185 C 
HETATM   12  C   UNL     1       6.539   5.544  18.310  1.00  0.00     0.033 C 
HETATM   13  C   UNL     1       6.824   6.026  19.739  1.00  0.00     0.002 C 
HETATM   14  C   UNL     1       7.072   4.879  20.709  1.00  0.00     0.000 C 
HETATM   15  C   UNL     1       5.826   4.029  20.816  1.00  0.00     0.002 C 
HETATM   16  C   UNL     1       5.042   3.949  19.507  1.00  0.00     0.033 C 
ENDBRANCH   1  11
TORSDOF 5
ENDMDL
MODEL 13
REMARK VINA RESULT:    -5.172      3.273      5.916
REMARK INTER + INTRA:          -7.125
REMARK INTER:                  -6.447
REMARK INTRA:                  -0.678
REMARK UNBOUND:                -0.441
REMARK  5 active torsions:
REMARK  status: ('A' for Active; 'I' for Inactive)
REMARK    1  A    between atoms: S_1  and  C_5 
REMARK    2  A    between atoms: C_5  and  C_6 
REMARK    3  A    between atoms: C_6  and  C_7 
REMARK    4  A    between atoms: C_7  and  N_8 
REMARK    5  A    between atoms: N_8  and  C_11 
ROOT
HETATM    1  N   UNL     1       5.017   6.969  15.523  1.00  0.00    -0.071 N 
ATOM      2  HN1 UNL     1       4.373   6.539  14.859  1.00  0.00     0.277 HD
ATOM      3  HN2 UNL     1       5.594   6.159  15.748  1.00  0.00     0.277 HD
ENDROOT
BRANCH   1   4
HETATM    4  C   UNL     1       4.296   7.443  16.717  1.00  0.00     0.233 C 
BRANCH   4   5
HETATM    5  C   UNL     1       4.453   6.445  17.865  1.00  0.00     0.045 C 
BRANCH   5   6
HETATM    6  C   UNL     1       5.686   6.729  18.730  1.00  0.00     0.167 C 
BRANCH   6   7
HETATM    7  S   UNL     1       6.814   5.507  18.521  1.00  0.00     0.101 S 
HETATM    8  O   UNL     1       7.885   5.723  19.480  1.00  0.00    -0.595 OA
HETATM    9  O   UNL     1       6.170   4.237  18.640  1.00  0.00    -0.595 OA
HETATM   10  O   UNL     1       7.414   5.683  17.030  1.00  0.00    -0.595 OA
ENDBRANCH   6   7
ENDBRANCH   5   6
ENDBRANCH   4   5
ENDBRANCH   1   4
BRANCH   1  11
HETATM   11  C   UNL     1       5.825   8.024  14.862  1.00  0.00     0.185 C 
HETATM   12  C   UNL     1       4.915   8.937  14.057  1.00  0.00     0.033 C 
HETATM   13  C   UNL     1       5.430  10.378  13.945  1.00  0.00     0.002 C 
HETATM   14  C   UNL     1       6.950  10.464  13.970  1.00  0.00     0.000 C 
HETATM   15  C   UNL     1       7.463   9.961  15.301  1.00  0.00     0.002 C 
HETATM   16  C   UNL     1       6.614   8.829  15.879  1.00  0.00     0.033 C 
ENDBRANCH   1  11
TORSDOF 5
ENDMDL
MODEL 14
REMARK VINA RESULT:    -5.150      4.427      6.425
REMARK INTER + INTRA:          -7.096
REMARK INTER:                  -6.780
REMARK INTRA:                  -0.315
REMARK UNBOUND:                -0.441
REMARK  5 active torsions:
REMARK  status: ('A' for Active; 'I' for Inactive)
REMARK    1  A    between atoms: S_1  and  C_5 
REMARK    2  A    between atoms: C_5  and  C_6 
REMARK    3  A    between atoms: C_6  and  C_7 
REMARK    4  A    between atoms: C_7  and  N_8 
REMARK    5  A    between atoms: N_8  and  C_11 
ROOT
HETATM    1  N   UNL     1       4.559   6.740  16.647  1.00  0.00    -0.071 N 
ATOM      2  HN1 UNL     1       4.095   6.988  17.520  1.00  0.00     0.277 HD
ATOM      3  HN2 UNL     1       3.751   6.427  16.108  1.00  0.00     0.277 HD
ENDROOT
BRANCH   1   4
HETATM    4  C   UNL     1       5.506   5.630  16.856  1.00  0.00     0.233 C 
BRANCH   4   5
HETATM    5  C   UNL     1       6.009   5.625  18.300  1.00  0.00     0.045 C 
BRANCH   5   6
HETATM    6  C   UNL     1       5.085   4.848  19.244  1.00  0.00     0.167 C 
BRANCH   6   7
HETATM    7  S   UNL     1       5.926   3.571  19.931  1.00  0.00     0.101 S 
HETATM    8  O   UNL     1       7.232   4.064  20.333  1.00  0.00    -0.595 OA
HETATM    9  O   UNL     1       5.158   3.013  21.000  1.00  0.00    -0.595 OA
HETATM   10  O   UNL     1       6.127   2.470  18.764  1.00  0.00    -0.595 OA
ENDBRANCH   6   7
ENDBRANCH   5   6
ENDBRANCH   4   5
ENDBRANCH   1   4
BRANCH   1  11
HETATM   11  C   UNL     1       5.177   7.936  16.021  1.00  0.00     0.185 C 
HETATM   12  C   UNL     1       5.619   8.907  17.102  1.00  0.00     0.033 C 
HETATM   13  C   UNL     1       6.837   9.754  16.710  1.00  0.00     0.002 C 
HETATM   14  C   UNL     1       6.910  10.023  15.213  1.00  0.00     0.000 C 
HETATM   15  C   UNL     1       7.079   8.715  14.472  1.00  0.00     0.002 C 
HETATM   16  C   UNL     1       6.354   7.550  15.145  1.00  0.00     0.033 C 
ENDBRANCH   1  11
TORSDOF 5
ENDMDL
MODEL 15
REMARK VINA RESULT:    -5.064      2.133      2.876
REMARK INTER + INTRA:          -6.985
REMARK INTER:                  -6.448
REMARK INTRA:                  -0.537
REMARK UNBOUND:                -0.441
REMARK  5 active torsions:
REMARK  status: ('A' for Active; 'I' for Inactive)
REMARK    1  A    between atoms: S_1  and  C_5 
REMARK    2  A    between atoms: C_5  and  C_6 
REMARK    3  A    between atoms: C_6  and  C_7 
REMARK    4  A    between atoms: C_7  and  N_8 
REMARK    5  A    between atoms: N_8  and  C_11 
ROOT
HETATM    1  N   UNL     1       5.826   8.211  17.965  1.00  0.00    -0.071 N 
ATOM      2  HN1 UNL     1       5.457   8.684  18.790  1.00  0.00     0.277 HD
ATOM      3  HN2 UNL     1       6.796   8.525  18.009  1.00  0.00     0.277 HD
ENDROOT
BRANCH   1   4
HETATM    4  C   UNL     1       5.172   8.708  16.741  1.00  0.00     0.233 C 
BRANCH   4   5
HETATM    5  C   UNL     1       6.145   8.668  15.563  1.00  0.00     0.045 C 
BRANCH   5   6
HETATM    6  C   UNL     1       5.522   8.062  14.302  1.00  0.00     0.167 C 
BRANCH   6   7
HETATM    7  S   UNL     1       5.932   6.441  14.193  1.00  0.00     0.101 S 
HETATM    8  O   UNL     1       4.905   5.675  14.879  1.00  0.00    -0.595 OA
HETATM    9  O   UNL     1       6.107   6.083  12.820  1.00  0.00    -0.595 OA
HETATM   10  O   UNL     1       7.327   6.263  14.991  1.00  0.00    -0.595 OA
ENDBRANCH   6   7
ENDBRANCH   5   6
ENDBRANCH   4   5
ENDBRANCH   1   4
BRANCH   1  11
HETATM   11  C   UNL     1       5.744   6.737  18.123  1.00  0.00     0.185 C 
HETATM   12  C   UNL     1       6.663   6.292  19.248  1.00  0.00     0.033 C 
HETATM   13  C   UNL     1       6.177   5.033  19.980  1.00  0.00     0.002 C 
HETATM   14  C   UNL     1       5.386   4.096  19.077  1.00  0.00     0.000 C 
HETATM   15  C   UNL     1       4.129   4.792  18.605  1.00  0.00     0.002 C 
HETATM   16  C   UNL     1       4.318   6.294  18.400  1.00  0.00     0.033 C 
ENDBRANCH   1  11
TORSDOF 5
ENDMDL
MODEL 16
REMARK VINA RESULT:    -5.064      4.157      5.803
REMARK INTER + INTRA:          -6.985
REMARK INTER:                  -6.300
REMARK INTRA:                  -0.684
REMARK UNBOUND:                -0.441
REMARK  5 active torsions:
REMARK  status: ('A' for Active; 'I' for Inactive)
REMARK    1  A    between atoms: S_1  and  C_5 
REMARK    2  A    between atoms: C_5  and  C_6 
REMARK    3  A    between atoms: C_6  and  C_7 
REMARK    4  A    between atoms: C_7  and  N_8 
REMARK    5  A    between atoms: N_8  and  C_11 
ROOT
HETATM    1  N   UNL     1       3.524   5.102  16.379  1.00  0.00    -0.071 N 
ATOM      2  HN1 UNL     1       2.603   4.677  16.491  1.00  0.00     0.277 HD
ATOM      3  HN2 UNL     1       4.079   4.452  16.936  1.00  0.00     0.277 HD
ENDROOT
BRANCH   1   4
HETATM    4  C   UNL     1       3.551   6.451  16.972  1.00  0.00     0.233 C 
BRANCH   4   5
HETATM    5  C   UNL     1       4.292   6.430  18.309  1.00  0.00     0.045 C 
BRANCH   5   6
HETATM    6  C   UNL     1       5.741   6.911  18.190  1.00  0.00     0.167 C 
BRANCH   6   7
HETATM    7  S   UNL     1       6.773   5.591  18.153  1.00  0.00     0.101 S 
HETATM    8  O   UNL     1       7.737   5.750  19.228  1.00  0.00    -0.595 OA
HETATM    9  O   UNL     1       6.009   4.385  18.227  1.00  0.00    -0.595 OA
HETATM   10  O   UNL     1       7.559   5.659  16.741  1.00  0.00    -0.595 OA
ENDBRANCH   6   7
ENDBRANCH   5   6
ENDBRANCH   4   5
ENDBRANCH   1   4
BRANCH   1  11
HETATM   11  C   UNL     1       3.947   5.071  14.957  1.00  0.00     0.185 C 
HETATM   12  C   UNL     1       2.723   5.106  14.058  1.00  0.00     0.033 C 
HETATM   13  C   UNL     1       2.971   5.783  12.703  1.00  0.00     0.002 C 
HETATM   14  C   UNL     1       4.405   5.620  12.218  1.00  0.00     0.000 C 
HETATM   15  C   UNL     1       5.347   6.305  13.184  1.00  0.00     0.002 C 
HETATM   16  C   UNL     1       4.872   6.231  14.635  1.00  0.00     0.033 C 
ENDBRANCH   1  11
TORSDOF 5
ENDMDL
MODEL 17
REMARK VINA RESULT:    -4.897     11.448     11.982
REMARK INTER + INTRA:          -6.769
REMARK INTER:                  -6.301
REMARK INTRA:                  -0.468
REMARK UNBOUND:                -0.441
REMARK  5 active torsions:
REMARK  status: ('A' for Active; 'I' for Inactive)
REMARK    1  A    between atoms: S_1  and  C_5 
REMARK    2  A    between atoms: C_5  and  C_6 
REMARK    3  A    between atoms: C_6  and  C_7 
REMARK    4  A    between atoms: C_7  and  N_8 
REMARK    5  A    between atoms: N_8  and  C_11 
ROOT
HETATM    1  N   UNL     1      -4.951   8.937  19.144  1.00  0.00    -0.071 N 
ATOM      2  HN1 UNL     1      -4.238   9.404  19.706  1.00  0.00     0.277 HD
ATOM      3  HN2 UNL     1      -4.490   8.959  18.234  1.00  0.00     0.277 HD
ENDROOT
BRANCH   1   4
HETATM    4  C   UNL     1      -6.194   9.727  19.118  1.00  0.00     0.233 C 
BRANCH   4   5
HETATM    5  C   UNL     1      -5.886  11.196  18.826  1.00  0.00     0.045 C 
BRANCH   5   6
HETATM    6  C   UNL     1      -4.572  11.383  18.060  1.00  0.00     0.167 C 
BRANCH   6   7
HETATM    7  S   UNL     1      -3.474  12.211  19.018  1.00  0.00     0.101 S 
HETATM    8  O   UNL     1      -4.214  13.190  19.796  1.00  0.00    -0.595 OA
HETATM    9  O   UNL     1      -2.730  11.280  19.806  1.00  0.00    -0.595 OA
HETATM   10  O   UNL     1      -2.483  12.996  18.010  1.00  0.00    -0.595 OA
ENDBRANCH   6   7
ENDBRANCH   5   6
ENDBRANCH   4   5
ENDBRANCH   1   4
BRANCH   1  11
HETATM   11  C   UNL     1      -5.147   7.538  19.601  1.00  0.00     0.185 C 
HETATM   12  C   UNL     1      -6.610   7.313  19.943  1.00  0.00     0.033 C 
HETATM   13  C   UNL     1      -7.079   5.868  19.722  1.00  0.00     0.002 C 
HETATM   14  C   UNL     1      -5.967   4.849  19.931  1.00  0.00     0.000 C 
HETATM   15  C   UNL     1      -4.876   5.075  18.908  1.00  0.00     0.002 C 
HETATM   16  C   UNL     1      -4.692   6.548  18.545  1.00  0.00     0.033 C 
ENDBRANCH   1  11
TORSDOF 5
ENDMDL
MODEL 18
REMARK VINA RESULT:    -4.854      3.587      6.069
REMARK INTER + INTRA:          -6.714
REMARK INTER:                  -6.313
REMARK INTRA:                  -0.401
REMARK UNBOUND:                -0.441
REMARK  5 active torsions:
REMARK  status: ('A' for Active; 'I' for Inactive)
REMARK    1  A    between atoms: S_1  and  C_5 
REMARK    2  A    between atoms: C_5  and  C_6 
REMARK    3  A    between atoms: C_6  and  C_7 
REMARK    4  A    between atoms: C_7  and  N_8 
REMARK    5  A    between atoms: N_8  and  C_11 
ROOT
HETATM    1  N   UNL     1       4.044   7.446  15.295  1.00  0.00    -0.071 N 
ATOM      2  HN1 UNL     1       3.699   7.281  16.241  1.00  0.00     0.277 HD
ATOM      3  HN2 UNL     1       3.177   7.315  14.773  1.00  0.00     0.277 HD
ENDROOT
BRANCH   1   4
HETATM    4  C   UNL     1       5.038   6.426  14.918  1.00  0.00     0.233 C 
BRANCH   4   5
HETATM    5  C   UNL     1       4.997   5.253  15.898  1.00  0.00     0.045 C 
BRANCH   5   6
HETATM    6  C   UNL     1       4.895   5.708  17.358  1.00  0.00     0.167 C 
BRANCH   6   7
HETATM    7  S   UNL     1       6.351   5.428  18.139  1.00  0.00     0.101 S 
HETATM    8  O   UNL     1       6.329   4.066  18.646  1.00  0.00    -0.595 OA
HETATM    9  O   UNL     1       7.433   5.701  17.246  1.00  0.00    -0.595 OA
HETATM   10  O   UNL     1       6.404   6.445  19.395  1.00  0.00    -0.595 OA
ENDBRANCH   6   7
ENDBRANCH   5   6
ENDBRANCH   4   5
ENDBRANCH   1   4
BRANCH   1  11
HETATM   11  C   UNL     1       4.540   8.838  15.152  1.00  0.00     0.185 C 
HETATM   12  C   UNL     1       5.522   9.148  16.268  1.00  0.00     0.033 C 
HETATM   13  C   UNL     1       6.599  10.169  15.877  1.00  0.00     0.002 C 
HETATM   14  C   UNL     1       6.110  11.173  14.841  1.00  0.00     0.000 C 
HETATM   15  C   UNL     1       5.763  10.448  13.559  1.00  0.00     0.002 C 
HETATM   16  C   UNL     1       5.194   9.050  13.799  1.00  0.00     0.033 C 
ENDBRANCH   1  11
TORSDOF 5
ENDMDL
MODEL 19
REMARK VINA RESULT:    -4.737     12.418     12.956
REMARK INTER + INTRA:          -6.562
REMARK INTER:                  -6.286
REMARK INTRA:                  -0.276
REMARK UNBOUND:                -0.441
REMARK  5 active torsions:
REMARK  status: ('A' for Active; 'I' for Inactive)
REMARK    1  A    between atoms: S_1  and  C_5 
REMARK    2  A    between atoms: C_5  and  C_6 
REMARK    3  A    between atoms: C_6  and  C_7 
REMARK    4  A    between atoms: C_7  and  N_8 
REMARK    5  A    between atoms: N_8  and  C_11 
ROOT
HETATM    1  N   UNL     1      -7.275   7.647  19.370  1.00  0.00    -0.071 N 
ATOM      2  HN1 UNL     1      -7.691   7.977  18.499  1.00  0.00     0.277 HD
ATOM      3  HN2 UNL     1      -8.054   7.820  20.006  1.00  0.00     0.277 HD
ENDROOT
BRANCH   1   4
HETATM    4  C   UNL     1      -6.110   8.472  19.737  1.00  0.00     0.233 C 
BRANCH   4   5
HETATM    5  C   UNL     1      -5.921   9.605  18.728  1.00  0.00     0.045 C 
BRANCH   5   6
HETATM    6  C   UNL     1      -6.216  10.985  19.327  1.00  0.00     0.167 C 
BRANCH   6   7
HETATM    7  S   UNL     1      -4.839  11.937  19.254  1.00  0.00     0.101 S 
HETATM    8  O   UNL     1      -4.706  12.624  20.528  1.00  0.00    -0.595 OA
HETATM    9  O   UNL     1      -3.714  11.126  18.908  1.00  0.00    -0.595 OA
HETATM   10  O   UNL     1      -5.101  13.039  18.100  1.00  0.00    -0.595 OA
ENDBRANCH   6   7
ENDBRANCH   5   6
ENDBRANCH   4   5
ENDBRANCH   1   4
BRANCH   1  11
HETATM   11  C   UNL     1      -6.972   6.196  19.291  1.00  0.00     0.185 C 
HETATM   12  C   UNL     1      -5.501   5.964  19.590  1.00  0.00     0.033 C 
HETATM   13  C   UNL     1      -5.210   4.604  20.237  1.00  0.00     0.002 C 
HETATM   14  C   UNL     1      -6.193   3.524  19.806  1.00  0.00     0.000 C 
HETATM   15  C   UNL     1      -7.585   3.895  20.266  1.00  0.00     0.002 C 
HETATM   16  C   UNL     1      -7.838   5.402  20.252  1.00  0.00     0.033 C 
ENDBRANCH   1  11
TORSDOF 5
ENDMDL
MODEL 20
REMARK VINA RESULT:    -4.717      3.106      6.174
REMARK INTER + INTRA:          -6.537
REMARK INTER:                  -5.912
REMARK INTRA:                  -0.625
REMARK UNBOUND:                -0.441
REMARK  5 active torsions:
REMARK  status: ('A' for Active; 'I' for Inactive)
REMARK    1  A    between atoms: S_1  and  C_5 
REMARK    2  A    between atoms: C_5  and  C_6 
REMARK    3  A    between atoms: C_6  and  C_7 
REMARK    4  A    between atoms: C_7  and  N_8 
REMARK    5  A    between atoms: N_8  and  C_11 
ROOT
HETATM    1  N   UNL     1       4.701   6.978  14.976  1.00  0.00    -0.071 N 
ATOM      2  HN1 UNL     1       4.749   6.736  13.986  1.00  0.00     0.277 HD
ATOM      3  HN2 UNL     1       5.692   7.135  15.159  1.00  0.00     0.277 HD
ENDROOT
BRANCH   1   4
HETATM    4  C   UNL     1       4.198   5.841  15.767  1.00  0.00     0.233 C 
BRANCH   4   5
HETATM    5  C   UNL     1       4.292   6.149  17.261  1.00  0.00     0.045 C 
BRANCH   5   6
HETATM    6  C   UNL     1       5.372   5.324  17.968  1.00  0.00     0.167 C 
BRANCH   6   7
HETATM    7  S   UNL     1       6.842   6.123  17.878  1.00  0.00     0.101 S 
HETATM    8  O   UNL     1       6.569   7.532  17.651  1.00  0.00    -0.595 OA
HETATM    9  O   UNL     1       7.604   5.858  19.057  1.00  0.00    -0.595 OA
HETATM   10  O   UNL     1       7.609   5.532  16.582  1.00  0.00    -0.595 OA
ENDBRANCH   6   7
ENDBRANCH   5   6
ENDBRANCH   4   5
ENDBRANCH   1   4
BRANCH   1  11
HETATM   11  C   UNL     1       3.924   8.228  15.175  1.00  0.00     0.185 C 
HETATM   12  C   UNL     1       4.861   9.423  15.139  1.00  0.00     0.033 C 
HETATM   13  C   UNL     1       4.203  10.707  14.616  1.00  0.00     0.002 C 
HETATM   14  C   UNL     1       2.714  10.774  14.928  1.00  0.00     0.000 C 
HETATM   15  C   UNL     1       1.998   9.644  14.222  1.00  0.00     0.002 C 
HETATM   16  C   UNL     1       2.841   8.373  14.121  1.00  0.00     0.033 C 
ENDBRANCH   1  11
TORSDOF 5
ENDMDL
