MODEL 1
REMARK VINA RESULT:   -14.837      0.000      0.000
REMARK INTER + INTRA:         -28.664
REMARK INTER:                 -23.510
REMARK INTRA:                  -5.154
REMARK UNBOUND:                -5.154
REMARK  10 active torsions:
REMARK  status: ('A' for Active; 'I' for Inactive)
REMARK    1  A    between atoms: C_3  and  C_4 
REMARK    2  A    between atoms: C_7  and  C_11 
REMARK       I    between atoms: C_10  and  N_46 
REMARK    3  A    between atoms: C_10  and  C_19 
REMARK    4  A    between atoms: C_12  and  C_24 
REMARK    5  A    between atoms: C_16  and  C_18 
REMARK    6  A    between atoms: C_23  and  C_25 
REMARK    7  A    between atoms: C_24  and  C_32 
REMARK    8  A    between atoms: C_24  and  N_46 
REMARK    9  A    between atoms: C_28  and  C_31 
REMARK       I    between atoms: C_32  and  N_50 
REMARK   10  A    between atoms: C_33  and  N_50 
ROOT
HETATM    1  C   UNL     1       6.965 -17.624  20.394  1.00  0.00     0.210 C 
ENDROOT
BRANCH   1   2
HETATM    2  C   UNL     1       6.863 -16.503  19.378  1.00  0.00    -0.026 A 
HETATM    3  C   UNL     1       6.736 -16.821  18.023  1.00  0.00     0.025 A 
HETATM    4  C   UNL     1       6.645 -15.819  17.055  1.00  0.00     0.048 A 
HETATM    5  C   UNL     1       6.678 -14.477  17.436  1.00  0.00     0.016 A 
HETATM    6  C   UNL     1       6.804 -14.143  18.785  1.00  0.00     0.001 A 
HETATM    7  C   UNL     1       6.897 -15.152  19.747  1.00  0.00     0.010 A 
BRANCH   4   8
HETATM    8  C   UNL     1       6.512 -16.221  15.631  1.00  0.00     0.417 C 
HETATM    9  F   UNL     1       5.727 -15.371  14.918  1.00  0.00    -0.166 F 
HETATM   10  F   UNL     1       5.947 -17.446  15.487  1.00  0.00    -0.166 F 
HETATM   11  F   UNL     1       7.698 -16.281  14.975  1.00  0.00    -0.166 F 
ENDBRANCH   4   8
ENDBRANCH   1   2
BRANCH   1  12
HETATM   12  C   UNL     1       8.335 -17.766  20.977  1.00  0.00     0.249 C 
HETATM   13  N   UNL     1       9.099 -18.554  20.132  1.00  0.00    -0.323 N 
ATOM     14  HN  UNL     1       8.681 -19.014  19.323  1.00  0.00     0.169 HD
HETATM   15  O   UNL     1       8.707 -17.070  21.913  1.00  0.00    -0.270 OA
BRANCH  13  16
HETATM   16  C   UNL     1      10.444 -18.699  20.416  1.00  0.00     0.061 A 
HETATM   17  C   UNL     1      10.772 -19.928  20.951  1.00  0.00     0.117 A 
HETATM   18  N   UNL     1      12.019 -20.271  21.331  1.00  0.00    -0.373 N 
HETATM   19  C   UNL     1      12.969 -19.326  21.152  1.00  0.00     0.088 A 
ATOM     20  HN  UNL     1      12.232 -21.186  21.730  1.00  0.00     0.164 HD
HETATM   21  C   UNL     1      12.734 -18.076  20.595  1.00  0.00     0.031 A 
HETATM   22  C   UNL     1      11.437 -17.736  20.218  1.00  0.00     0.004 A 
BRANCH  22  23
HETATM   23  C   UNL     1      11.229 -16.429  19.613  1.00  0.00    -0.024 A 
HETATM   24  C   UNL     1      10.540 -16.318  18.404  1.00  0.00     0.013 A 
HETATM   25  C   UNL     1      10.320 -15.069  17.823  1.00  0.00     0.017 A 
HETATM   26  C   UNL     1      10.788 -13.913  18.448  1.00  0.00     0.048 A 
HETATM   27  C   UNL     1      11.474 -14.025  19.660  1.00  0.00     0.017 A 
HETATM   28  C   UNL     1      11.696 -15.273  20.241  1.00  0.00     0.013 A 
BRANCH  26  29
HETATM   29  C   UNL     1      10.547 -12.577  17.845  1.00  0.00     0.417 C 
HETATM   30  F   UNL     1      10.474 -11.618  18.813  1.00  0.00    -0.166 F 
HETATM   31  F   UNL     1      11.548 -12.194  17.000  1.00  0.00    -0.166 F 
HETATM   32  F   UNL     1       9.393 -12.490  17.134  1.00  0.00    -0.166 F 
ENDBRANCH  26  29
ENDBRANCH  22  23
ENDBRANCH  13  16
ENDBRANCH   1  12
BRANCH   1  33
HETATM   33  N   UNL     1       6.032 -17.541  21.480  1.00  0.00    -0.340 N 
HETATM   34  C   UNL     1       5.246 -18.635  21.637  1.00  0.00     0.254 C 
HETATM   35  O   UNL     1       5.433 -19.687  21.052  1.00  0.00    -0.268 OA
ATOM     36  HN  UNL     1       5.965 -16.723  22.087  1.00  0.00     0.164 HD
BRANCH  34  37
HETATM   37  C   UNL     1       4.064 -18.539  22.497  1.00  0.00     0.058 A 
HETATM   38  C   UNL     1       4.172 -18.828  23.843  1.00  0.00     0.105 A 
HETATM   39  N   UNL     1       3.124 -18.792  24.691  1.00  0.00    -0.374 N 
HETATM   40  C   UNL     1       1.922 -18.470  24.154  1.00  0.00     0.088 A 
ATOM     41  HN  UNL     1       3.230 -18.996  25.685  1.00  0.00     0.164 HD
HETATM   42  C   UNL     1       1.723 -18.163  22.818  1.00  0.00     0.030 A 
HETATM   43  C   UNL     1       2.820 -18.199  21.966  1.00  0.00    -0.008 A 
BRANCH  43  44
HETATM   44  C   UNL     1       2.620 -17.851  20.576  1.00  0.00    -0.025 A 
HETATM   45  C   UNL     1       3.089 -16.636  20.076  1.00  0.00     0.013 A 
HETATM   46  C   UNL     1       2.890 -16.313  18.733  1.00  0.00     0.017 A 
HETATM   47  C   UNL     1       2.213 -17.201  17.899  1.00  0.00     0.048 A 
HETATM   48  C   UNL     1       1.743 -18.413  18.401  1.00  0.00     0.017 A 
HETATM   49  C   UNL     1       1.951 -18.742  19.738  1.00  0.00     0.013 A 
BRANCH  47  50
HETATM   50  C   UNL     1       1.999 -16.879  16.467  1.00  0.00     0.417 C 
HETATM   51  F   UNL     1       1.073 -15.908  16.266  1.00  0.00    -0.166 F 
HETATM   52  F   UNL     1       3.153 -16.412  15.922  1.00  0.00    -0.166 F 
HETATM   53  F   UNL     1       1.636 -17.970  15.730  1.00  0.00    -0.166 F 
ENDBRANCH  47  50
ENDBRANCH  43  44
ENDBRANCH  34  37
ENDBRANCH   1  33
TORSDOF 10
ENDMDL
MODEL 2
REMARK VINA RESULT:   -14.440      1.036      1.820
REMARK INTER + INTRA:         -28.037
REMARK INTER:                 -22.666
REMARK INTRA:                  -5.371
REMARK UNBOUND:                -5.154
REMARK  10 active torsions:
REMARK  status: ('A' for Active; 'I' for Inactive)
REMARK    1  A    between atoms: C_3  and  C_4 
REMARK    2  A    between atoms: C_7  and  C_11 
REMARK       I    between atoms: C_10  and  N_46 
REMARK    3  A    between atoms: C_10  and  C_19 
REMARK    4  A    between atoms: C_12  and  C_24 
REMARK    5  A    between atoms: C_16  and  C_18 
REMARK    6  A    between atoms: C_23  and  C_25 
REMARK    7  A    between atoms: C_24  and  C_32 
REMARK    8  A    between atoms: C_24  and  N_46 
REMARK    9  A    between atoms: C_28  and  C_31 
REMARK       I    between atoms: C_32  and  N_50 
REMARK   10  A    between atoms: C_33  and  N_50 
ROOT
HETATM    1  C   UNL     1       7.167 -17.956  20.556  1.00  0.00     0.210 C 
ENDROOT
BRANCH   1   2
HETATM    2  C   UNL     1       7.047 -16.961  19.418  1.00  0.00    -0.026 A 
HETATM    3  C   UNL     1       6.834 -15.612  19.712  1.00  0.00     0.025 A 
HETATM    4  C   UNL     1       6.712 -14.664  18.694  1.00  0.00     0.048 A 
HETATM    5  C   UNL     1       6.806 -15.060  17.359  1.00  0.00     0.016 A 
HETATM    6  C   UNL     1       7.020 -16.404  17.048  1.00  0.00     0.001 A 
HETATM    7  C   UNL     1       7.137 -17.345  18.074  1.00  0.00     0.010 A 
BRANCH   4   8
HETATM    8  C   UNL     1       6.485 -13.245  19.070  1.00  0.00     0.417 C 
HETATM    9  F   UNL     1       6.689 -13.015  20.394  1.00  0.00    -0.166 F 
HETATM   10  F   UNL     1       5.213 -12.839  18.823  1.00  0.00    -0.166 F 
HETATM   11  F   UNL     1       7.286 -12.376  18.405  1.00  0.00    -0.166 F 
ENDBRANCH   4   8
ENDBRANCH   1   2
BRANCH   1  12
HETATM   12  C   UNL     1       8.531 -17.987  21.167  1.00  0.00     0.249 C 
HETATM   13  N   UNL     1       9.333 -18.839  20.425  1.00  0.00    -0.323 N 
ATOM     14  HN  UNL     1       8.944 -19.400  19.668  1.00  0.00     0.169 HD
HETATM   15  O   UNL     1       8.866 -17.180  22.025  1.00  0.00    -0.270 OA
BRANCH  13  16
HETATM   16  C   UNL     1      10.677 -18.907  20.741  1.00  0.00     0.061 A 
HETATM   17  C   UNL     1      11.045 -20.082  21.364  1.00  0.00     0.117 A 
HETATM   18  N   UNL     1      12.297 -20.345  21.788  1.00  0.00    -0.373 N 
HETATM   19  C   UNL     1      13.212 -19.375  21.559  1.00  0.00     0.088 A 
ATOM     20  HN  UNL     1      12.540 -21.220  22.252  1.00  0.00     0.164 HD
HETATM   21  C   UNL     1      12.936 -18.177  20.914  1.00  0.00     0.031 A 
HETATM   22  C   UNL     1      11.633 -17.919  20.493  1.00  0.00     0.004 A 
BRANCH  22  23
HETATM   23  C   UNL     1      11.384 -16.666  19.796  1.00  0.00    -0.024 A 
HETATM   24  C   UNL     1      10.735 -16.669  18.559  1.00  0.00     0.013 A 
HETATM   25  C   UNL     1      10.476 -15.473  17.890  1.00  0.00     0.017 A 
HETATM   26  C   UNL     1      10.862 -14.257  18.453  1.00  0.00     0.048 A 
HETATM   27  C   UNL     1      11.507 -14.254  19.692  1.00  0.00     0.017 A 
HETATM   28  C   UNL     1      11.769 -15.449  20.362  1.00  0.00     0.013 A 
BRANCH  26  29
HETATM   29  C   UNL     1      10.578 -12.977  17.755  1.00  0.00     0.417 C 
HETATM   30  F   UNL     1       9.551 -13.129  16.868  1.00  0.00    -0.166 F 
HETATM   31  F   UNL     1      10.201 -11.984  18.610  1.00  0.00    -0.166 F 
HETATM   32  F   UNL     1      11.627 -12.490  17.042  1.00  0.00    -0.166 F 
ENDBRANCH  26  29
ENDBRANCH  22  23
ENDBRANCH  13  16
ENDBRANCH   1  12
BRANCH   1  33
HETATM   33  N   UNL     1       6.215 -17.782  21.613  1.00  0.00    -0.340 N 
HETATM   34  C   UNL     1       5.288 -18.768  21.709  1.00  0.00     0.254 C 
HETATM   35  O   UNL     1       5.357 -19.818  21.096  1.00  0.00    -0.268 OA
ATOM     36  HN  UNL     1       6.233 -16.980  22.244  1.00  0.00     0.164 HD
BRANCH  34  37
HETATM   37  C   UNL     1       4.098 -18.541  22.533  1.00  0.00     0.058 A 
HETATM   38  C   UNL     1       4.148 -18.792  23.890  1.00  0.00     0.105 A 
HETATM   39  N   UNL     1       3.087 -18.637  24.709  1.00  0.00    -0.374 N 
HETATM   40  C   UNL     1       1.932 -18.233  24.130  1.00  0.00     0.088 A 
ATOM     41  HN  UNL     1       3.152 -18.816  25.711  1.00  0.00     0.164 HD
HETATM   42  C   UNL     1       1.792 -17.955  22.779  1.00  0.00     0.030 A 
HETATM   43  C   UNL     1       2.902 -18.114  21.959  1.00  0.00    -0.008 A 
BRANCH  43  44
HETATM   44  C   UNL     1       2.765 -17.798  20.554  1.00  0.00    -0.025 A 
HETATM   45  C   UNL     1       3.286 -16.609  20.042  1.00  0.00     0.013 A 
HETATM   46  C   UNL     1       3.149 -16.316  18.684  1.00  0.00     0.017 A 
HETATM   47  C   UNL     1       2.482 -17.207  17.847  1.00  0.00     0.048 A 
HETATM   48  C   UNL     1       1.959 -18.394  18.361  1.00  0.00     0.017 A 
HETATM   49  C   UNL     1       2.106 -18.692  19.713  1.00  0.00     0.013 A 
BRANCH  47  50
HETATM   50  C   UNL     1       2.332 -16.918  16.400  1.00  0.00     0.417 C 
HETATM   51  F   UNL     1       1.319 -16.060  16.124  1.00  0.00    -0.166 F 
HETATM   52  F   UNL     1       3.461 -16.324  15.930  1.00  0.00    -0.166 F 
HETATM   53  F   UNL     1       2.148 -18.046  15.653  1.00  0.00    -0.166 F 
ENDBRANCH  47  50
ENDBRANCH  43  44
ENDBRANCH  34  37
ENDBRANCH   1  33
TORSDOF 10
ENDMDL
MODEL 3
REMARK VINA RESULT:   -14.403      0.705      7.753
REMARK INTER + INTRA:         -27.977
REMARK INTER:                 -22.558
REMARK INTRA:                  -5.420
REMARK UNBOUND:                -5.154
REMARK  10 active torsions:
REMARK  status: ('A' for Active; 'I' for Inactive)
REMARK    1  A    between atoms: C_3  and  C_4 
REMARK    2  A    between atoms: C_7  and  C_11 
REMARK       I    between atoms: C_10  and  N_46 
REMARK    3  A    between atoms: C_10  and  C_19 
REMARK    4  A    between atoms: C_12  and  C_24 
REMARK    5  A    between atoms: C_16  and  C_18 
REMARK    6  A    between atoms: C_23  and  C_25 
REMARK    7  A    between atoms: C_24  and  C_32 
REMARK    8  A    between atoms: C_24  and  N_46 
REMARK    9  A    between atoms: C_28  and  C_31 
REMARK       I    between atoms: C_32  and  N_50 
REMARK   10  A    between atoms: C_33  and  N_50 
ROOT
HETATM    1  C   UNL     1       6.939 -17.600  20.712  1.00  0.00     0.210 C 
ENDROOT
BRANCH   1   2
HETATM    2  C   UNL     1       6.606 -16.705  19.534  1.00  0.00    -0.026 A 
HETATM    3  C   UNL     1       6.512 -17.264  18.257  1.00  0.00     0.025 A 
HETATM    4  C   UNL     1       6.213 -16.475  17.146  1.00  0.00     0.048 A 
HETATM    5  C   UNL     1       5.999 -15.105  17.302  1.00  0.00     0.016 A 
HETATM    6  C   UNL     1       6.088 -14.530  18.571  1.00  0.00     0.001 A 
HETATM    7  C   UNL     1       6.391 -15.328  19.677  1.00  0.00     0.010 A 
BRANCH   4   8
HETATM    8  C   UNL     1       6.128 -17.128  15.814  1.00  0.00     0.417 C 
HETATM    9  F   UNL     1       7.283 -17.752  15.463  1.00  0.00    -0.166 F 
HETATM   10  F   UNL     1       5.875 -16.244  14.817  1.00  0.00    -0.166 F 
HETATM   11  F   UNL     1       5.151 -18.066  15.735  1.00  0.00    -0.166 F 
ENDBRANCH   4   8
ENDBRANCH   1   2
BRANCH   1  12
HETATM   12  C   UNL     1       5.775 -18.411  21.182  1.00  0.00     0.249 C 
HETATM   13  N   UNL     1       4.938 -17.598  21.930  1.00  0.00    -0.323 N 
ATOM     14  HN  UNL     1       5.208 -16.644  22.166  1.00  0.00     0.169 HD
HETATM   15  O   UNL     1       5.550 -19.527  20.732  1.00  0.00    -0.270 OA
BRANCH  13  16
HETATM   16  C   UNL     1       3.728 -18.119  22.347  1.00  0.00     0.061 A 
HETATM   17  C   UNL     1       3.709 -18.493  23.675  1.00  0.00     0.117 A 
HETATM   18  N   UNL     1       2.643 -19.053  24.281  1.00  0.00    -0.373 N 
HETATM   19  C   UNL     1       1.551 -19.231  23.504  1.00  0.00     0.088 A 
ATOM     20  HN  UNL     1       2.660 -19.326  25.264  1.00  0.00     0.164 HD
HETATM   21  C   UNL     1       1.472 -18.857  22.169  1.00  0.00     0.031 A 
HETATM   22  C   UNL     1       2.588 -18.290  21.558  1.00  0.00     0.004 A 
BRANCH  22  23
HETATM   23  C   UNL     1       2.463 -17.885  20.165  1.00  0.00    -0.024 A 
HETATM   24  C   UNL     1       1.938 -18.772  19.222  1.00  0.00     0.013 A 
HETATM   25  C   UNL     1       1.798 -18.390  17.888  1.00  0.00     0.017 A 
HETATM   26  C   UNL     1       2.181 -17.112  17.482  1.00  0.00     0.048 A 
HETATM   27  C   UNL     1       2.702 -16.224  18.426  1.00  0.00     0.017 A 
HETATM   28  C   UNL     1       2.844 -16.605  19.760  1.00  0.00     0.013 A 
BRANCH  26  29
HETATM   29  C   UNL     1       2.023 -16.690  16.066  1.00  0.00     0.417 C 
HETATM   30  F   UNL     1       0.966 -15.837  15.932  1.00  0.00    -0.166 F 
HETATM   31  F   UNL     1       3.115 -16.024  15.591  1.00  0.00    -0.166 F 
HETATM   32  F   UNL     1       1.797 -17.715  15.204  1.00  0.00    -0.166 F 
ENDBRANCH  26  29
ENDBRANCH  22  23
ENDBRANCH  13  16
ENDBRANCH   1  12
BRANCH   1  33
HETATM   33  N   UNL     1       8.040 -18.494  20.498  1.00  0.00    -0.340 N 
HETATM   34  C   UNL     1       9.131 -18.242  21.264  1.00  0.00     0.254 C 
HETATM   35  O   UNL     1       9.132 -17.462  22.199  1.00  0.00    -0.268 OA
ATOM     36  HN  UNL     1       8.005 -19.258  19.823  1.00  0.00     0.164 HD
BRANCH  34  37
HETATM   37  C   UNL     1      10.403 -18.880  20.913  1.00  0.00     0.058 A 
HETATM   38  C   UNL     1      10.663 -20.167  21.341  1.00  0.00     0.105 A 
HETATM   39  N   UNL     1      11.822 -20.809  21.085  1.00  0.00    -0.374 N 
HETATM   40  C   UNL     1      12.755 -20.117  20.388  1.00  0.00     0.088 A 
ATOM     41  HN  UNL     1      11.986 -21.765  21.399  1.00  0.00     0.164 HD
HETATM   42  C   UNL     1      12.577 -18.825  19.917  1.00  0.00     0.030 A 
HETATM   43  C   UNL     1      11.372 -18.189  20.187  1.00  0.00    -0.008 A 
BRANCH  43  44
HETATM   44  C   UNL     1      11.175 -16.851  19.673  1.00  0.00    -0.025 A 
HETATM   45  C   UNL     1      10.393 -16.638  18.537  1.00  0.00     0.013 A 
HETATM   46  C   UNL     1      10.209 -15.342  18.052  1.00  0.00     0.017 A 
HETATM   47  C   UNL     1      10.816 -14.267  18.698  1.00  0.00     0.048 A 
HETATM   48  C   UNL     1      11.599 -14.483  19.831  1.00  0.00     0.017 A 
HETATM   49  C   UNL     1      11.774 -15.774  20.323  1.00  0.00     0.013 A 
BRANCH  47  50
HETATM   50  C   UNL     1      10.627 -12.883  18.202  1.00  0.00     0.417 C 
HETATM   51  F   UNL     1      10.716 -11.944  19.177  1.00  0.00    -0.166 F 
HETATM   52  F   UNL     1      11.599 -12.577  17.302  1.00  0.00    -0.166 F 
HETATM   53  F   UNL     1       9.435 -12.712  17.557  1.00  0.00    -0.166 F 
ENDBRANCH  47  50
ENDBRANCH  43  44
ENDBRANCH  34  37
ENDBRANCH   1  33
TORSDOF 10
ENDMDL
MODEL 4
REMARK VINA RESULT:   -13.951      1.198      7.892
REMARK INTER + INTRA:         -27.262
REMARK INTER:                 -22.030
REMARK INTRA:                  -5.232
REMARK UNBOUND:                -5.154
REMARK  10 active torsions:
REMARK  status: ('A' for Active; 'I' for Inactive)
REMARK    1  A    between atoms: C_3  and  C_4 
REMARK    2  A    between atoms: C_7  and  C_11 
REMARK       I    between atoms: C_10  and  N_46 
REMARK    3  A    between atoms: C_10  and  C_19 
REMARK    4  A    between atoms: C_12  and  C_24 
REMARK    5  A    between atoms: C_16  and  C_18 
REMARK    6  A    between atoms: C_23  and  C_25 
REMARK    7  A    between atoms: C_24  and  C_32 
REMARK    8  A    between atoms: C_24  and  N_46 
REMARK    9  A    between atoms: C_28  and  C_31 
REMARK       I    between atoms: C_32  and  N_50 
REMARK   10  A    between atoms: C_33  and  N_50 
ROOT
HETATM    1  C   UNL     1       6.920 -17.712  20.811  1.00  0.00     0.210 C 
ENDROOT
BRANCH   1   2
HETATM    2  C   UNL     1       6.586 -16.884  19.585  1.00  0.00    -0.026 A 
HETATM    3  C   UNL     1       6.426 -15.503  19.718  1.00  0.00     0.025 A 
HETATM    4  C   UNL     1       6.112 -14.705  18.617  1.00  0.00     0.048 A 
HETATM    5  C   UNL     1       5.957 -15.287  17.358  1.00  0.00     0.016 A 
HETATM    6  C   UNL     1       6.114 -16.665  17.207  1.00  0.00     0.001 A 
HETATM    7  C   UNL     1       6.425 -17.455  18.316  1.00  0.00     0.010 A 
BRANCH   4   8
HETATM    8  C   UNL     1       5.953 -13.242  18.823  1.00  0.00     0.417 C 
HETATM    9  F   UNL     1       5.010 -12.944  19.753  1.00  0.00    -0.166 F 
HETATM   10  F   UNL     1       5.567 -12.598  17.693  1.00  0.00    -0.166 F 
HETATM   11  F   UNL     1       7.093 -12.628  19.228  1.00  0.00    -0.166 F 
ENDBRANCH   4   8
ENDBRANCH   1   2
BRANCH   1  12
HETATM   12  C   UNL     1       5.764 -18.520  21.307  1.00  0.00     0.249 C 
HETATM   13  N   UNL     1       4.947 -17.704  22.074  1.00  0.00    -0.323 N 
ATOM     14  HN  UNL     1       5.225 -16.751  22.304  1.00  0.00     0.169 HD
HETATM   15  O   UNL     1       5.525 -19.635  20.862  1.00  0.00    -0.270 OA
BRANCH  13  16
HETATM   16  C   UNL     1       3.745 -18.221  22.518  1.00  0.00     0.061 A 
HETATM   17  C   UNL     1       3.754 -18.593  23.847  1.00  0.00     0.117 A 
HETATM   18  N   UNL     1       2.701 -19.149  24.478  1.00  0.00    -0.373 N 
HETATM   19  C   UNL     1       1.591 -19.326  23.725  1.00  0.00     0.088 A 
ATOM     20  HN  UNL     1       2.738 -19.421  25.460  1.00  0.00     0.164 HD
HETATM   21  C   UNL     1       1.484 -18.954  22.391  1.00  0.00     0.031 A 
HETATM   22  C   UNL     1       2.587 -18.391  21.754  1.00  0.00     0.004 A 
BRANCH  22  23
HETATM   23  C   UNL     1       2.433 -17.988  20.364  1.00  0.00    -0.024 A 
HETATM   24  C   UNL     1       2.806 -16.704  19.961  1.00  0.00     0.013 A 
HETATM   25  C   UNL     1       2.678 -16.313  18.629  1.00  0.00     0.017 A 
HETATM   26  C   UNL     1       2.177 -17.205  17.681  1.00  0.00     0.048 A 
HETATM   27  C   UNL     1       1.808 -18.491  18.084  1.00  0.00     0.017 A 
HETATM   28  C   UNL     1       1.934 -18.883  19.417  1.00  0.00     0.013 A 
BRANCH  26  29
HETATM   29  C   UNL     1       2.050 -16.802  16.257  1.00  0.00     0.417 C 
HETATM   30  F   UNL     1       1.073 -15.860  16.108  1.00  0.00    -0.166 F 
HETATM   31  F   UNL     1       3.195 -16.248  15.763  1.00  0.00    -0.166 F 
HETATM   32  F   UNL     1       1.727 -17.821  15.419  1.00  0.00    -0.166 F 
ENDBRANCH  26  29
ENDBRANCH  22  23
ENDBRANCH  13  16
ENDBRANCH   1  12
BRANCH   1  33
HETATM   33  N   UNL     1       8.039 -18.596  20.655  1.00  0.00    -0.340 N 
HETATM   34  C   UNL     1       9.149 -18.230  21.344  1.00  0.00     0.254 C 
HETATM   35  O   UNL     1       9.160 -17.348  22.184  1.00  0.00    -0.268 OA
ATOM     36  HN  UNL     1       8.002 -19.433  20.073  1.00  0.00     0.164 HD
BRANCH  34  37
HETATM   37  C   UNL     1      10.426 -18.870  21.018  1.00  0.00     0.058 A 
HETATM   38  C   UNL     1      10.688 -20.146  21.476  1.00  0.00     0.105 A 
HETATM   39  N   UNL     1      11.851 -20.789  21.243  1.00  0.00    -0.374 N 
HETATM   40  C   UNL     1      12.787 -20.109  20.538  1.00  0.00     0.088 A 
ATOM     41  HN  UNL     1      12.017 -21.737  21.580  1.00  0.00     0.164 HD
HETATM   42  C   UNL     1      12.608 -18.829  20.037  1.00  0.00     0.030 A 
HETATM   43  C   UNL     1      11.398 -18.192  20.284  1.00  0.00    -0.008 A 
BRANCH  43  44
HETATM   44  C   UNL     1      11.199 -16.867  19.739  1.00  0.00    -0.025 A 
HETATM   45  C   UNL     1      11.811 -15.760  20.328  1.00  0.00     0.013 A 
HETATM   46  C   UNL     1      11.613 -14.486  19.792  1.00  0.00     0.017 A 
HETATM   47  C   UNL     1      10.794 -14.324  18.676  1.00  0.00     0.048 A 
HETATM   48  C   UNL     1      10.181 -15.431  18.090  1.00  0.00     0.017 A 
HETATM   49  C   UNL     1      10.388 -16.703  18.617  1.00  0.00     0.013 A 
BRANCH  47  50
HETATM   50  C   UNL     1      10.577 -12.980  18.088  1.00  0.00     0.417 C 
HETATM   51  F   UNL     1      10.538 -11.987  19.011  1.00  0.00    -0.166 F 
HETATM   52  F   UNL     1      11.603 -12.672  17.252  1.00  0.00    -0.166 F 
HETATM   53  F   UNL     1       9.435 -12.910  17.341  1.00  0.00    -0.166 F 
ENDBRANCH  47  50
ENDBRANCH  43  44
ENDBRANCH  34  37
ENDBRANCH   1  33
TORSDOF 10
ENDMDL
MODEL 5
REMARK VINA RESULT:   -13.937      1.145      7.963
REMARK INTER + INTRA:         -27.239
REMARK INTER:                 -22.692
REMARK INTRA:                  -4.546
REMARK UNBOUND:                -5.154
REMARK  10 active torsions:
REMARK  status: ('A' for Active; 'I' for Inactive)
REMARK    1  A    between atoms: C_3  and  C_4 
REMARK    2  A    between atoms: C_7  and  C_11 
REMARK       I    between atoms: C_10  and  N_46 
REMARK    3  A    between atoms: C_10  and  C_19 
REMARK    4  A    between atoms: C_12  and  C_24 
REMARK    5  A    between atoms: C_16  and  C_18 
REMARK    6  A    between atoms: C_23  and  C_25 
REMARK    7  A    between atoms: C_24  and  C_32 
REMARK    8  A    between atoms: C_24  and  N_46 
REMARK    9  A    between atoms: C_28  and  C_31 
REMARK       I    between atoms: C_32  and  N_50 
REMARK   10  A    between atoms: C_33  and  N_50 
ROOT
HETATM    1  C   UNL     1       6.604 -17.830  20.288  1.00  0.00     0.210 C 
ENDROOT
BRANCH   1   2
HETATM    2  C   UNL     1       5.974 -17.674  18.918  1.00  0.00    -0.026 A 
HETATM    3  C   UNL     1       6.603 -16.869  17.965  1.00  0.00     0.025 A 
HETATM    4  C   UNL     1       6.053 -16.694  16.694  1.00  0.00     0.048 A 
HETATM    5  C   UNL     1       4.859 -17.333  16.358  1.00  0.00     0.016 A 
HETATM    6  C   UNL     1       4.218 -18.142  17.298  1.00  0.00     0.001 A 
HETATM    7  C   UNL     1       4.774 -18.308  18.568  1.00  0.00     0.010 A 
BRANCH   4   8
HETATM    8  C   UNL     1       6.769 -15.824  15.726  1.00  0.00     0.417 C 
HETATM    9  F   UNL     1       7.808 -16.457  15.121  1.00  0.00    -0.166 F 
HETATM   10  F   UNL     1       7.305 -14.724  16.313  1.00  0.00    -0.166 F 
HETATM   11  F   UNL     1       5.974 -15.361  14.729  1.00  0.00    -0.166 F 
ENDBRANCH   4   8
ENDBRANCH   1   2
BRANCH   1  12
HETATM   12  C   UNL     1       5.708 -18.511  21.272  1.00  0.00     0.249 C 
HETATM   13  N   UNL     1       4.814 -17.582  21.779  1.00  0.00    -0.323 N 
ATOM     14  HN  UNL     1       4.898 -16.592  21.547  1.00  0.00     0.169 HD
HETATM   15  O   UNL     1       5.676 -19.731  21.370  1.00  0.00    -0.270 OA
BRANCH  13  16
HETATM   16  C   UNL     1       3.805 -18.034  22.607  1.00  0.00     0.061 A 
HETATM   17  C   UNL     1       4.181 -18.159  23.929  1.00  0.00     0.117 A 
HETATM   18  N   UNL     1       3.366 -18.614  24.901  1.00  0.00    -0.373 N 
HETATM   19  C   UNL     1       2.114 -18.947  24.511  1.00  0.00     0.088 A 
ATOM     20  HN  UNL     1       3.673 -18.702  25.870  1.00  0.00     0.164 HD
HETATM   21  C   UNL     1       1.642 -18.825  23.210  1.00  0.00     0.031 A 
HETATM   22  C   UNL     1       2.504 -18.364  22.218  1.00  0.00     0.004 A 
BRANCH  22  23
HETATM   23  C   UNL     1       1.969 -18.223  20.871  1.00  0.00    -0.024 A 
HETATM   24  C   UNL     1       1.559 -19.352  20.159  1.00  0.00     0.013 A 
HETATM   25  C   UNL     1       1.030 -19.228  18.875  1.00  0.00     0.017 A 
HETATM   26  C   UNL     1       0.904 -17.969  18.287  1.00  0.00     0.048 A 
HETATM   27  C   UNL     1       1.311 -16.840  19.002  1.00  0.00     0.017 A 
HETATM   28  C   UNL     1       1.841 -16.963  20.286  1.00  0.00     0.013 A 
BRANCH  26  29
HETATM   29  C   UNL     1       0.329 -17.825  16.925  1.00  0.00     0.417 C 
HETATM   30  F   UNL     1       1.052 -16.932  16.189  1.00  0.00    -0.166 F 
HETATM   31  F   UNL     1       0.339 -18.995  16.224  1.00  0.00    -0.166 F 
HETATM   32  F   UNL     1      -0.954 -17.381  16.909  1.00  0.00    -0.166 F 
ENDBRANCH  26  29
ENDBRANCH  22  23
ENDBRANCH  13  16
ENDBRANCH   1  12
BRANCH   1  33
HETATM   33  N   UNL     1       7.867 -18.510  20.299  1.00  0.00    -0.340 N 
HETATM   34  C   UNL     1       8.765 -18.022  21.190  1.00  0.00     0.254 C 
HETATM   35  O   UNL     1       8.483 -17.213  22.056  1.00  0.00    -0.268 OA
ATOM     36  HN  UNL     1       8.072 -19.298  19.684  1.00  0.00     0.164 HD
BRANCH  34  37
HETATM   37  C   UNL     1      10.168 -18.425  21.071  1.00  0.00     0.058 A 
HETATM   38  C   UNL     1      10.599 -19.591  21.673  1.00  0.00     0.105 A 
HETATM   39  N   UNL     1      11.880 -20.013  21.634  1.00  0.00    -0.374 N 
HETATM   40  C   UNL     1      12.758 -19.216  20.979  1.00  0.00     0.088 A 
ATOM     41  HN  UNL     1      12.172 -20.885  22.075  1.00  0.00     0.164 HD
HETATM   42  C   UNL     1      12.414 -18.033  20.344  1.00  0.00     0.030 A 
HETATM   43  C   UNL     1      11.086 -17.625  20.392  1.00  0.00    -0.008 A 
BRANCH  43  44
HETATM   44  C   UNL     1      10.720 -16.405  19.707  1.00  0.00    -0.025 A 
HETATM   45  C   UNL     1      10.809 -15.174  20.358  1.00  0.00     0.013 A 
HETATM   46  C   UNL     1      10.454 -14.003  19.685  1.00  0.00     0.017 A 
HETATM   47  C   UNL     1      10.001 -14.070  18.369  1.00  0.00     0.048 A 
HETATM   48  C   UNL     1       9.910 -15.302  17.721  1.00  0.00     0.017 A 
HETATM   49  C   UNL     1      10.276 -16.468  18.387  1.00  0.00     0.013 A 
BRANCH  47  50
HETATM   50  C   UNL     1       9.626 -12.838  17.635  1.00  0.00     0.417 C 
HETATM   51  F   UNL     1       9.651 -12.984  16.287  1.00  0.00    -0.166 F 
HETATM   52  F   UNL     1       8.351 -12.484  17.948  1.00  0.00    -0.166 F 
HETATM   53  F   UNL     1      10.414 -11.771  17.960  1.00  0.00    -0.166 F 
ENDBRANCH  47  50
ENDBRANCH  43  44
ENDBRANCH  34  37
ENDBRANCH   1  33
TORSDOF 10
ENDMDL
MODEL 6
REMARK VINA RESULT:   -13.141      1.261      7.749
REMARK INTER + INTRA:         -25.978
REMARK INTER:                 -21.426
REMARK INTRA:                  -4.552
REMARK UNBOUND:                -5.154
REMARK  10 active torsions:
REMARK  status: ('A' for Active; 'I' for Inactive)
REMARK    1  A    between atoms: C_3  and  C_4 
REMARK    2  A    between atoms: C_7  and  C_11 
REMARK       I    between atoms: C_10  and  N_46 
REMARK    3  A    between atoms: C_10  and  C_19 
REMARK    4  A    between atoms: C_12  and  C_24 
REMARK    5  A    between atoms: C_16  and  C_18 
REMARK    6  A    between atoms: C_23  and  C_25 
REMARK    7  A    between atoms: C_24  and  C_32 
REMARK    8  A    between atoms: C_24  and  N_46 
REMARK    9  A    between atoms: C_28  and  C_31 
REMARK       I    between atoms: C_32  and  N_50 
REMARK   10  A    between atoms: C_33  and  N_50 
ROOT
HETATM    1  C   UNL     1       6.575 -17.493  20.271  1.00  0.00     0.210 C 
ENDROOT
BRANCH   1   2
HETATM    2  C   UNL     1       6.012 -16.884  19.002  1.00  0.00    -0.026 A 
HETATM    3  C   UNL     1       5.199 -17.662  18.174  1.00  0.00     0.025 A 
HETATM    4  C   UNL     1       4.665 -17.142  16.994  1.00  0.00     0.048 A 
HETATM    5  C   UNL     1       4.940 -15.824  16.628  1.00  0.00     0.016 A 
HETATM    6  C   UNL     1       5.750 -15.032  17.443  1.00  0.00     0.001 A 
HETATM    7  C   UNL     1       6.282 -15.563  18.621  1.00  0.00     0.010 A 
BRANCH   4   8
HETATM    8  C   UNL     1       3.809 -18.020  16.156  1.00  0.00     0.417 C 
HETATM    9  F   UNL     1       3.064 -17.323  15.258  1.00  0.00    -0.166 F 
HETATM   10  F   UNL     1       2.918 -18.732  16.892  1.00  0.00    -0.166 F 
HETATM   11  F   UNL     1       4.511 -18.933  15.439  1.00  0.00    -0.166 F 
ENDBRANCH   4   8
ENDBRANCH   1   2
BRANCH   1  12
HETATM   12  C   UNL     1       5.607 -18.393  20.970  1.00  0.00     0.249 C 
HETATM   13  N   UNL     1       4.893 -17.647  21.895  1.00  0.00    -0.323 N 
ATOM     14  HN  UNL     1       5.133 -16.674  22.082  1.00  0.00     0.169 HD
HETATM   15  O   UNL     1       5.377 -19.524  20.563  1.00  0.00    -0.270 OA
BRANCH  13  16
HETATM   16  C   UNL     1       3.847 -18.261  22.557  1.00  0.00     0.061 A 
HETATM   17  C   UNL     1       4.190 -18.770  23.793  1.00  0.00     0.117 A 
HETATM   18  N   UNL     1       3.334 -19.436  24.594  1.00  0.00    -0.373 N 
HETATM   19  C   UNL     1       2.077 -19.582  24.118  1.00  0.00     0.088 A 
ATOM     20  HN  UNL     1       3.617 -19.806  25.501  1.00  0.00     0.164 HD
HETATM   21  C   UNL     1       1.638 -19.078  22.900  1.00  0.00     0.031 A 
HETATM   22  C   UNL     1       2.540 -18.402  22.083  1.00  0.00     0.004 A 
BRANCH  22  23
HETATM   23  C   UNL     1       2.041 -17.863  20.826  1.00  0.00    -0.024 A 
HETATM   24  C   UNL     1       1.146 -18.605  20.053  1.00  0.00     0.013 A 
HETATM   25  C   UNL     1       0.648 -18.093  18.855  1.00  0.00     0.017 A 
HETATM   26  C   UNL     1       1.039 -16.827  18.417  1.00  0.00     0.048 A 
HETATM   27  C   UNL     1       1.931 -16.084  19.194  1.00  0.00     0.017 A 
HETATM   28  C   UNL     1       2.432 -16.596  20.391  1.00  0.00     0.013 A 
BRANCH  26  29
HETATM   29  C   UNL     1       0.504 -16.267  17.150  1.00  0.00     0.417 C 
HETATM   30  F   UNL     1      -0.176 -17.222  16.450  1.00  0.00    -0.166 F 
HETATM   31  F   UNL     1      -0.376 -15.245  17.357  1.00  0.00    -0.166 F 
HETATM   32  F   UNL     1       1.457 -15.785  16.311  1.00  0.00    -0.166 F 
ENDBRANCH  26  29
ENDBRANCH  22  23
ENDBRANCH  13  16
ENDBRANCH   1  12
BRANCH   1  33
HETATM   33  N   UNL     1       7.803 -18.214  20.102  1.00  0.00    -0.340 N 
HETATM   34  C   UNL     1       8.667 -18.113  21.142  1.00  0.00     0.254 C 
HETATM   35  O   UNL     1       8.370 -17.628  22.219  1.00  0.00    -0.268 OA
ATOM     36  HN  UNL     1       8.009 -18.760  19.265  1.00  0.00     0.164 HD
BRANCH  34  37
HETATM   37  C   UNL     1      10.056 -18.540  20.951  1.00  0.00     0.058 A 
HETATM   38  C   UNL     1      10.488 -19.729  21.504  1.00  0.00     0.105 A 
HETATM   39  N   UNL     1      11.758 -20.173  21.398  1.00  0.00    -0.374 N 
HETATM   40  C   UNL     1      12.622 -19.377  20.724  1.00  0.00     0.088 A 
ATOM     41  HN  UNL     1      12.051 -21.062  21.803  1.00  0.00     0.164 HD
HETATM   42  C   UNL     1      12.274 -18.172  20.135  1.00  0.00     0.030 A 
HETATM   43  C   UNL     1      10.959 -17.740  20.251  1.00  0.00    -0.008 A 
BRANCH  43  44
HETATM   44  C   UNL     1      10.587 -16.496  19.614  1.00  0.00    -0.025 A 
HETATM   45  C   UNL     1      10.702 -15.287  20.301  1.00  0.00     0.013 A 
HETATM   46  C   UNL     1      10.342 -14.093  19.674  1.00  0.00     0.017 A 
HETATM   47  C   UNL     1       9.858 -14.115  18.367  1.00  0.00     0.048 A 
HETATM   48  C   UNL     1       9.741 -15.324  17.684  1.00  0.00     0.017 A 
HETATM   49  C   UNL     1      10.111 -16.514  18.304  1.00  0.00     0.013 A 
BRANCH  47  50
HETATM   50  C   UNL     1       9.477 -12.856  17.682  1.00  0.00     0.417 C 
HETATM   51  F   UNL     1       8.223 -12.437  17.983  1.00  0.00    -0.166 F 
HETATM   52  F   UNL     1      10.308 -11.851  18.067  1.00  0.00    -0.166 F 
HETATM   53  F   UNL     1       9.580 -12.944  16.323  1.00  0.00    -0.166 F 
ENDBRANCH  47  50
ENDBRANCH  43  44
ENDBRANCH  34  37
ENDBRANCH   1  33
TORSDOF 10
ENDMDL
MODEL 7
REMARK VINA RESULT:   -12.959      2.958      8.417
REMARK INTER + INTRA:         -25.690
REMARK INTER:                 -21.379
REMARK INTRA:                  -4.311
REMARK UNBOUND:                -5.154
REMARK  10 active torsions:
REMARK  status: ('A' for Active; 'I' for Inactive)
REMARK    1  A    between atoms: C_3  and  C_4 
REMARK    2  A    between atoms: C_7  and  C_11 
REMARK       I    between atoms: C_10  and  N_46 
REMARK    3  A    between atoms: C_10  and  C_19 
REMARK    4  A    between atoms: C_12  and  C_24 
REMARK    5  A    between atoms: C_16  and  C_18 
REMARK    6  A    between atoms: C_23  and  C_25 
REMARK    7  A    between atoms: C_24  and  C_32 
REMARK    8  A    between atoms: C_24  and  N_46 
REMARK    9  A    between atoms: C_28  and  C_31 
REMARK       I    between atoms: C_32  and  N_50 
REMARK   10  A    between atoms: C_33  and  N_50 
ROOT
HETATM    1  C   UNL     1       6.539 -17.334  20.426  1.00  0.00     0.210 C 
ENDROOT
BRANCH   1   2
HETATM    2  C   UNL     1       6.696 -16.209  19.421  1.00  0.00    -0.026 A 
HETATM    3  C   UNL     1       6.774 -16.516  18.060  1.00  0.00     0.025 A 
HETATM    4  C   UNL     1       6.925 -15.511  17.104  1.00  0.00     0.048 A 
HETATM    5  C   UNL     1       6.997 -14.175  17.502  1.00  0.00     0.016 A 
HETATM    6  C   UNL     1       6.921 -13.852  18.858  1.00  0.00     0.001 A 
HETATM    7  C   UNL     1       6.772 -14.865  19.807  1.00  0.00     0.010 A 
BRANCH   4   8
HETATM    8  C   UNL     1       7.003 -15.901  15.672  1.00  0.00     0.417 C 
HETATM    9  F   UNL     1       6.982 -17.248  15.494  1.00  0.00    -0.166 F 
HETATM   10  F   UNL     1       8.146 -15.473  15.079  1.00  0.00    -0.166 F 
HETATM   11  F   UNL     1       5.988 -15.403  14.922  1.00  0.00    -0.166 F 
ENDBRANCH   4   8
ENDBRANCH   1   2
BRANCH   1  12
HETATM   12  C   UNL     1       5.316 -18.163  20.193  1.00  0.00     0.249 C 
HETATM   13  N   UNL     1       4.269 -17.325  19.846  1.00  0.00    -0.323 N 
ATOM     14  HN  UNL     1       4.375 -16.311  19.878  1.00  0.00     0.169 HD
HETATM   15  O   UNL     1       5.378 -19.382  20.103  1.00  0.00    -0.270 OA
BRANCH  13  16
HETATM   16  C   UNL     1       3.076 -17.902  19.454  1.00  0.00     0.061 A 
HETATM   17  C   UNL     1       2.853 -17.852  18.093  1.00  0.00     0.117 A 
HETATM   18  N   UNL     1       1.740 -18.326  17.498  1.00  0.00    -0.373 N 
HETATM   19  C   UNL     1       0.823 -18.880  18.323  1.00  0.00     0.088 A 
ATOM     20  HN  UNL     1       1.598 -18.270  16.490  1.00  0.00     0.164 HD
HETATM   21  C   UNL     1       0.978 -18.999  19.698  1.00  0.00     0.031 A 
HETATM   22  C   UNL     1       2.131 -18.494  20.295  1.00  0.00     0.004 A 
BRANCH  22  23
HETATM   23  C   UNL     1       2.274 -18.658  21.734  1.00  0.00    -0.024 A 
HETATM   24  C   UNL     1       2.076 -17.571  22.587  1.00  0.00     0.013 A 
HETATM   25  C   UNL     1       2.194 -17.720  23.968  1.00  0.00     0.017 A 
HETATM   26  C   UNL     1       2.511 -18.964  24.514  1.00  0.00     0.048 A 
HETATM   27  C   UNL     1       2.705 -20.053  23.660  1.00  0.00     0.017 A 
HETATM   28  C   UNL     1       2.589 -19.904  22.279  1.00  0.00     0.013 A 
BRANCH  26  29
HETATM   29  C   UNL     1       2.626 -19.137  25.985  1.00  0.00     0.417 C 
HETATM   30  F   UNL     1       3.258 -18.066  26.548  1.00  0.00    -0.166 F 
HETATM   31  F   UNL     1       1.412 -19.231  26.600  1.00  0.00    -0.166 F 
HETATM   32  F   UNL     1       3.331 -20.236  26.361  1.00  0.00    -0.166 F 
ENDBRANCH  26  29
ENDBRANCH  22  23
ENDBRANCH  13  16
ENDBRANCH   1  12
BRANCH   1  33
HETATM   33  N   UNL     1       7.661 -18.222  20.518  1.00  0.00    -0.340 N 
HETATM   34  C   UNL     1       8.730 -17.716  21.183  1.00  0.00     0.254 C 
HETATM   35  O   UNL     1       8.695 -16.683  21.827  1.00  0.00    -0.268 OA
ATOM     36  HN  UNL     1       7.655 -19.160  20.116  1.00  0.00     0.164 HD
BRANCH  34  37
HETATM   37  C   UNL     1      10.021 -18.399  21.068  1.00  0.00     0.058 A 
HETATM   38  C   UNL     1      10.214 -19.609  21.705  1.00  0.00     0.105 A 
HETATM   39  N   UNL     1      11.382 -20.283  21.672  1.00  0.00    -0.374 N 
HETATM   40  C   UNL     1      12.395 -19.702  20.985  1.00  0.00     0.088 A 
ATOM     41  HN  UNL     1      11.497 -21.182  22.139  1.00  0.00     0.164 HD
HETATM   42  C   UNL     1      12.290 -18.494  20.314  1.00  0.00     0.030 A 
HETATM   43  C   UNL     1      11.073 -17.824  20.356  1.00  0.00    -0.008 A 
BRANCH  43  44
HETATM   44  C   UNL     1      10.953 -16.577  19.634  1.00  0.00    -0.025 A 
HETATM   45  C   UNL     1      11.352 -15.376  20.223  1.00  0.00     0.013 A 
HETATM   46  C   UNL     1      11.232 -14.179  19.515  1.00  0.00     0.017 A 
HETATM   47  C   UNL     1      10.703 -14.187  18.225  1.00  0.00     0.048 A 
HETATM   48  C   UNL     1      10.303 -15.387  17.639  1.00  0.00     0.017 A 
HETATM   49  C   UNL     1      10.433 -16.583  18.341  1.00  0.00     0.013 A 
BRANCH  47  50
HETATM   50  C   UNL     1      10.575 -12.927  17.454  1.00  0.00     0.417 C 
HETATM   51  F   UNL     1       9.835 -13.059  16.325  1.00  0.00    -0.166 F 
HETATM   52  F   UNL     1       9.941 -11.988  18.206  1.00  0.00    -0.166 F 
HETATM   53  F   UNL     1      11.784 -12.395  17.109  1.00  0.00    -0.166 F 
ENDBRANCH  47  50
ENDBRANCH  43  44
ENDBRANCH  34  37
ENDBRANCH   1  33
TORSDOF 10
ENDMDL
MODEL 8
REMARK VINA RESULT:   -12.433      2.859      8.579
REMARK INTER + INTRA:         -24.855
REMARK INTER:                 -20.284
REMARK INTRA:                  -4.572
REMARK UNBOUND:                -5.154
REMARK  10 active torsions:
REMARK  status: ('A' for Active; 'I' for Inactive)
REMARK    1  A    between atoms: C_3  and  C_4 
REMARK    2  A    between atoms: C_7  and  C_11 
REMARK       I    between atoms: C_10  and  N_46 
REMARK    3  A    between atoms: C_10  and  C_19 
REMARK    4  A    between atoms: C_12  and  C_24 
REMARK    5  A    between atoms: C_16  and  C_18 
REMARK    6  A    between atoms: C_23  and  C_25 
REMARK    7  A    between atoms: C_24  and  C_32 
REMARK    8  A    between atoms: C_24  and  N_46 
REMARK    9  A    between atoms: C_28  and  C_31 
REMARK       I    between atoms: C_32  and  N_50 
REMARK   10  A    between atoms: C_33  and  N_50 
ROOT
HETATM    1  C   UNL     1       6.765 -17.195  19.697  1.00  0.00     0.210 C 
ENDROOT
BRANCH   1   2
HETATM    2  C   UNL     1       7.091 -16.053  18.754  1.00  0.00    -0.026 A 
HETATM    3  C   UNL     1       7.238 -14.763  19.271  1.00  0.00     0.025 A 
HETATM    4  C   UNL     1       7.532 -13.683  18.437  1.00  0.00     0.048 A 
HETATM    5  C   UNL     1       7.687 -13.885  17.065  1.00  0.00     0.016 A 
HETATM    6  C   UNL     1       7.544 -15.167  16.533  1.00  0.00     0.001 A 
HETATM    7  C   UNL     1       7.247 -16.241  17.375  1.00  0.00     0.010 A 
BRANCH   4   8
HETATM    8  C   UNL     1       7.674 -12.335  19.046  1.00  0.00     0.417 C 
HETATM    9  F   UNL     1       6.585 -11.970  19.771  1.00  0.00    -0.166 F 
HETATM   10  F   UNL     1       7.836 -11.360  18.116  1.00  0.00    -0.166 F 
HETATM   11  F   UNL     1       8.739 -12.231  19.881  1.00  0.00    -0.166 F 
ENDBRANCH   4   8
ENDBRANCH   1   2
BRANCH   1  12
HETATM   12  C   UNL     1       5.573 -17.989  19.267  1.00  0.00     0.249 C 
HETATM   13  N   UNL     1       4.548 -17.114  18.945  1.00  0.00    -0.323 N 
ATOM     14  HN  UNL     1       4.641 -16.112  19.111  1.00  0.00     0.169 HD
HETATM   15  O   UNL     1       5.654 -19.188  19.033  1.00  0.00    -0.270 OA
BRANCH  13  16
HETATM   16  C   UNL     1       3.396 -17.638  18.391  1.00  0.00     0.061 A 
HETATM   17  C   UNL     1       3.324 -17.505  17.020  1.00  0.00     0.117 A 
HETATM   18  N   UNL     1       2.275 -17.916  16.280  1.00  0.00    -0.373 N 
HETATM   19  C   UNL     1       1.263 -18.494  16.965  1.00  0.00     0.088 A 
ATOM     20  HN  UNL     1       2.247 -17.799  15.267  1.00  0.00     0.164 HD
HETATM   21  C   UNL     1       1.264 -18.696  18.340  1.00  0.00     0.031 A 
HETATM   22  C   UNL     1       2.352 -18.254  19.088  1.00  0.00     0.004 A 
BRANCH  22  23
HETATM   23  C   UNL     1       2.334 -18.505  20.521  1.00  0.00    -0.024 A 
HETATM   24  C   UNL     1       2.760 -19.736  21.023  1.00  0.00     0.013 A 
HETATM   25  C   UNL     1       2.762 -19.982  22.395  1.00  0.00     0.017 A 
HETATM   26  C   UNL     1       2.338 -18.995  23.285  1.00  0.00     0.048 A 
HETATM   27  C   UNL     1       1.916 -17.762  22.783  1.00  0.00     0.017 A 
HETATM   28  C   UNL     1       1.912 -17.515  21.410  1.00  0.00     0.013 A 
BRANCH  26  29
HETATM   29  C   UNL     1       2.350 -19.242  24.750  1.00  0.00     0.417 C 
HETATM   30  F   UNL     1       1.613 -20.350  25.057  1.00  0.00    -0.166 F 
HETATM   31  F   UNL     1       3.605 -19.471  25.235  1.00  0.00    -0.166 F 
HETATM   32  F   UNL     1       1.835 -18.225  25.488  1.00  0.00    -0.166 F 
ENDBRANCH  26  29
ENDBRANCH  22  23
ENDBRANCH  13  16
ENDBRANCH   1  12
BRANCH   1  33
HETATM   33  N   UNL     1       7.843 -18.112  19.930  1.00  0.00    -0.340 N 
HETATM   34  C   UNL     1       8.684 -17.754  20.933  1.00  0.00     0.254 C 
HETATM   35  O   UNL     1       8.454 -16.848  21.713  1.00  0.00    -0.268 OA
ATOM     36  HN  UNL     1       7.967 -18.965  19.385  1.00  0.00     0.164 HD
BRANCH  34  37
HETATM   37  C   UNL     1       9.975 -18.437  21.050  1.00  0.00     0.058 A 
HETATM   38  C   UNL     1      10.041 -19.677  21.654  1.00  0.00     0.105 A 
HETATM   39  N   UNL     1      11.195 -20.354  21.826  1.00  0.00    -0.374 N 
HETATM   40  C   UNL     1      12.323 -19.745  21.388  1.00  0.00     0.088 A 
ATOM     41  HN  UNL     1      11.217 -21.275  22.263  1.00  0.00     0.164 HD
HETATM   42  C   UNL     1      12.350 -18.506  20.768  1.00  0.00     0.030 A 
HETATM   43  C   UNL     1      11.147 -17.833  20.595  1.00  0.00    -0.008 A 
BRANCH  43  44
HETATM   44  C   UNL     1      11.169 -16.552  19.923  1.00  0.00    -0.025 A 
HETATM   45  C   UNL     1      11.537 -15.397  20.615  1.00  0.00     0.013 A 
HETATM   46  C   UNL     1      11.556 -14.167  19.955  1.00  0.00     0.017 A 
HETATM   47  C   UNL     1      11.197 -14.095  18.611  1.00  0.00     0.048 A 
HETATM   48  C   UNL     1      10.827 -15.250  17.923  1.00  0.00     0.017 A 
HETATM   49  C   UNL     1      10.819 -16.479  18.577  1.00  0.00     0.013 A 
BRANCH  47  50
HETATM   50  C   UNL     1      11.218 -12.799  17.891  1.00  0.00     0.417 C 
HETATM   51  F   UNL     1      10.328 -12.736  16.869  1.00  0.00    -0.166 F 
HETATM   52  F   UNL     1      10.880 -11.794  18.741  1.00  0.00    -0.166 F 
HETATM   53  F   UNL     1      12.454 -12.491  17.398  1.00  0.00    -0.166 F 
ENDBRANCH  47  50
ENDBRANCH  43  44
ENDBRANCH  34  37
ENDBRANCH   1  33
TORSDOF 10
ENDMDL
MODEL 9
REMARK VINA RESULT:   -12.428      2.879      4.277
REMARK INTER + INTRA:         -24.848
REMARK INTER:                 -20.786
REMARK INTRA:                  -4.062
REMARK UNBOUND:                -5.154
REMARK  10 active torsions:
REMARK  status: ('A' for Active; 'I' for Inactive)
REMARK    1  A    between atoms: C_3  and  C_4 
REMARK    2  A    between atoms: C_7  and  C_11 
REMARK       I    between atoms: C_10  and  N_46 
REMARK    3  A    between atoms: C_10  and  C_19 
REMARK    4  A    between atoms: C_12  and  C_24 
REMARK    5  A    between atoms: C_16  and  C_18 
REMARK    6  A    between atoms: C_23  and  C_25 
REMARK    7  A    between atoms: C_24  and  C_32 
REMARK    8  A    between atoms: C_24  and  N_46 
REMARK    9  A    between atoms: C_28  and  C_31 
REMARK       I    between atoms: C_32  and  N_50 
REMARK   10  A    between atoms: C_33  and  N_50 
ROOT
HETATM    1  C   UNL     1       6.653 -17.796  20.614  1.00  0.00     0.210 C 
ENDROOT
BRANCH   1   2
HETATM    2  C   UNL     1       5.923 -16.847  19.684  1.00  0.00    -0.026 A 
HETATM    3  C   UNL     1       5.525 -17.299  18.423  1.00  0.00     0.025 A 
HETATM    4  C   UNL     1       4.857 -16.456  17.534  1.00  0.00     0.048 A 
HETATM    5  C   UNL     1       4.573 -15.140  17.902  1.00  0.00     0.016 A 
HETATM    6  C   UNL     1       4.963 -14.673  19.158  1.00  0.00     0.001 A 
HETATM    7  C   UNL     1       5.634 -15.523  20.039  1.00  0.00     0.010 A 
BRANCH   4   8
HETATM    8  C   UNL     1       4.461 -16.995  16.207  1.00  0.00     0.417 C 
HETATM    9  F   UNL     1       3.779 -16.091  15.456  1.00  0.00    -0.166 F 
HETATM   10  F   UNL     1       3.644 -18.074  16.308  1.00  0.00    -0.166 F 
HETATM   11  F   UNL     1       5.514 -17.398  15.453  1.00  0.00    -0.166 F 
ENDBRANCH   4   8
ENDBRANCH   1   2
BRANCH   1  12
HETATM   12  C   UNL     1       8.009 -17.304  21.009  1.00  0.00     0.249 C 
HETATM   13  N   UNL     1       8.665 -16.850  19.876  1.00  0.00    -0.323 N 
ATOM     14  HN  UNL     1       8.258 -16.973  18.949  1.00  0.00     0.169 HD
HETATM   15  O   UNL     1       8.312 -17.138  22.183  1.00  0.00    -0.270 OA
BRANCH  13  16
HETATM   16  C   UNL     1       9.887 -16.225  20.039  1.00  0.00     0.061 A 
HETATM   17  C   UNL     1       9.828 -14.850  19.941  1.00  0.00     0.117 A 
HETATM   18  N   UNL     1      10.905 -14.045  20.036  1.00  0.00    -0.373 N 
HETATM   19  C   UNL     1      12.087 -14.667  20.247  1.00  0.00     0.088 A 
ATOM     20  HN  UNL     1      10.832 -13.031  19.954  1.00  0.00     0.164 HD
HETATM   21  C   UNL     1      12.234 -16.040  20.387  1.00  0.00     0.031 A 
HETATM   22  C   UNL     1      11.111 -16.856  20.275  1.00  0.00     0.004 A 
BRANCH  22  23
HETATM   23  C   UNL     1      11.296 -18.289  20.454  1.00  0.00    -0.024 A 
HETATM   24  C   UNL     1      11.559 -19.104  19.351  1.00  0.00     0.013 A 
HETATM   25  C   UNL     1      11.754 -20.475  19.512  1.00  0.00     0.017 A 
HETATM   26  C   UNL     1      11.691 -21.048  20.782  1.00  0.00     0.048 A 
HETATM   27  C   UNL     1      11.432 -20.232  21.885  1.00  0.00     0.017 A 
HETATM   28  C   UNL     1      11.234 -18.860  21.726  1.00  0.00     0.013 A 
BRANCH  26  29
HETATM   29  C   UNL     1      11.911 -22.506  20.966  1.00  0.00     0.417 C 
HETATM   30  F   UNL     1      12.918 -22.947  20.156  1.00  0.00    -0.166 F 
HETATM   31  F   UNL     1      12.277 -22.826  22.240  1.00  0.00    -0.166 F 
HETATM   32  F   UNL     1      10.827 -23.271  20.676  1.00  0.00    -0.166 F 
ENDBRANCH  26  29
ENDBRANCH  22  23
ENDBRANCH  13  16
ENDBRANCH   1  12
BRANCH   1  33
HETATM   33  N   UNL     1       5.941 -18.132  21.813  1.00  0.00    -0.340 N 
HETATM   34  C   UNL     1       4.973 -19.069  21.653  1.00  0.00     0.254 C 
HETATM   35  O   UNL     1       4.835 -19.727  20.638  1.00  0.00    -0.268 OA
ATOM     36  HN  UNL     1       6.147 -17.701  22.715  1.00  0.00     0.164 HD
BRANCH  34  37
HETATM   37  C   UNL     1       3.988 -19.257  22.721  1.00  0.00     0.058 A 
HETATM   38  C   UNL     1       4.408 -19.649  23.977  1.00  0.00     0.105 A 
HETATM   39  N   UNL     1       3.559 -19.872  25.002  1.00  0.00    -0.374 N 
HETATM   40  C   UNL     1       2.240 -19.710  24.740  1.00  0.00     0.088 A 
ATOM     41  HN  UNL     1       3.894 -20.148  25.925  1.00  0.00     0.164 HD
HETATM   42  C   UNL     1       1.731 -19.316  23.513  1.00  0.00     0.030 A 
HETATM   43  C   UNL     1       2.626 -19.084  22.476  1.00  0.00    -0.008 A 
BRANCH  43  44
HETATM   44  C   UNL     1       2.099 -18.646  21.202  1.00  0.00    -0.025 A 
HETATM   45  C   UNL     1       1.413 -19.537  20.376  1.00  0.00     0.013 A 
HETATM   46  C   UNL     1       0.908 -19.102  19.149  1.00  0.00     0.017 A 
HETATM   47  C   UNL     1       1.101 -17.781  18.750  1.00  0.00     0.048 A 
HETATM   48  C   UNL     1       1.789 -16.893  19.576  1.00  0.00     0.017 A 
HETATM   49  C   UNL     1       2.282 -17.323  20.805  1.00  0.00     0.013 A 
BRANCH  47  50
HETATM   50  C   UNL     1       0.566 -17.298  17.455  1.00  0.00     0.417 C 
HETATM   51  F   UNL     1       1.199 -16.193  16.988  1.00  0.00    -0.166 F 
HETATM   52  F   UNL     1       0.732 -18.252  16.501  1.00  0.00    -0.166 F 
HETATM   53  F   UNL     1      -0.773 -17.029  17.505  1.00  0.00    -0.166 F 
ENDBRANCH  47  50
ENDBRANCH  43  44
ENDBRANCH  34  37
ENDBRANCH   1  33
TORSDOF 10
ENDMDL
