MODEL 1
REMARK VINA RESULT:    -5.731      0.000      0.000
REMARK INTER + INTRA:          -6.529
REMARK INTER:                  -6.402
REMARK INTRA:                  -0.128
REMARK UNBOUND:                -0.128
REMARK  2 active torsions:
REMARK  status: ('A' for Active; 'I' for Inactive)
REMARK    1  A    between atoms: C_7  and  C_9 
REMARK    2  A    between atoms: C_9  and  C_10 
ROOT
HETATM    1  C   UNL     1      -3.447  46.309  37.748  1.00  0.00     0.042 A 
HETATM    2  C   UNL     1      -2.572  46.770  38.728  1.00  0.00    -0.001 A 
HETATM    3  C   UNL     1      -1.913  48.005  38.559  1.00  0.00     0.014 A 
HETATM    4  C   UNL     1      -2.165  48.755  37.409  1.00  0.00     0.001 A 
HETATM    5  C   UNL     1      -3.052  48.276  36.431  1.00  0.00     0.002 A 
HETATM    6  C   UNL     1      -3.700  47.067  36.602  1.00  0.00     0.030 A 
HETATM    7  C   UNL     1      -2.568  45.762  39.729  1.00  0.00    -0.020 A 
HETATM    8  C   UNL     1      -3.437  44.782  39.312  1.00  0.00     0.097 A 
HETATM    9  N   UNL     1      -3.946  45.120  38.122  1.00  0.00    -0.365 N 
ATOM     10  HN  UNL     1      -4.609  44.561  37.584  1.00  0.00     0.165 HD
ENDROOT
BRANCH   7  11
HETATM   11  C   UNL     1      -1.749  45.712  41.017  1.00  0.00     0.154 C 
BRANCH  11  12
HETATM   12  C   UNL     1      -2.234  46.627  42.118  1.00  0.00     0.177 C 
HETATM   13  O   UNL     1      -2.647  46.116  43.184  1.00  0.00    -0.648 OA
HETATM   14  O   UNL     1      -2.193  47.866  41.958  1.00  0.00    -0.648 OA
ENDBRANCH  11  12
ENDBRANCH   7  11
TORSDOF 2
ENDMDL
MODEL 2
REMARK VINA RESULT:    -5.712      1.977      2.760
REMARK INTER + INTRA:          -6.507
REMARK INTER:                  -6.316
REMARK INTRA:                  -0.191
REMARK UNBOUND:                -0.128
REMARK  2 active torsions:
REMARK  status: ('A' for Active; 'I' for Inactive)
REMARK    1  A    between atoms: C_7  and  C_9 
REMARK    2  A    between atoms: C_9  and  C_10 
ROOT
HETATM    1  C   UNL     1      -2.963  45.983  38.893  1.00  0.00     0.042 A 
HETATM    2  C   UNL     1      -2.322  45.863  40.124  1.00  0.00    -0.001 A 
HETATM    3  C   UNL     1      -1.275  44.933  40.284  1.00  0.00     0.014 A 
HETATM    4  C   UNL     1      -0.886  44.156  39.191  1.00  0.00     0.001 A 
HETATM    5  C   UNL     1      -1.541  44.292  37.957  1.00  0.00     0.002 A 
HETATM    6  C   UNL     1      -2.566  45.207  37.802  1.00  0.00     0.030 A 
HETATM    7  C   UNL     1      -2.974  46.795  40.976  1.00  0.00    -0.020 A 
HETATM    8  C   UNL     1      -3.936  47.422  40.221  1.00  0.00     0.097 A 
HETATM    9  N   UNL     1      -3.922  46.919  38.982  1.00  0.00    -0.365 N 
ATOM     10  HN  UNL     1      -4.544  47.201  38.224  1.00  0.00     0.165 HD
ENDROOT
BRANCH   7  11
HETATM   11  C   UNL     1      -2.718  47.058  42.458  1.00  0.00     0.154 C 
BRANCH  11  12
HETATM   12  C   UNL     1      -1.354  47.625  42.779  1.00  0.00     0.177 C 
HETATM   13  O   UNL     1      -0.705  47.126  43.727  1.00  0.00    -0.648 OA
HETATM   14  O   UNL     1      -0.890  48.555  42.086  1.00  0.00    -0.648 OA
ENDBRANCH  11  12
ENDBRANCH   7  11
TORSDOF 2
ENDMDL
MODEL 3
REMARK VINA RESULT:    -5.512      2.362      3.129
REMARK INTER + INTRA:          -6.284
REMARK INTER:                  -6.188
REMARK INTRA:                  -0.096
REMARK UNBOUND:                -0.128
REMARK  2 active torsions:
REMARK  status: ('A' for Active; 'I' for Inactive)
REMARK    1  A    between atoms: C_7  and  C_9 
REMARK    2  A    between atoms: C_9  and  C_10 
ROOT
HETATM    1  C   UNL     1      -1.799  44.383  38.296  1.00  0.00     0.042 A 
HETATM    2  C   UNL     1      -1.252  44.800  39.506  1.00  0.00    -0.001 A 
HETATM    3  C   UNL     1       0.116  44.591  39.770  1.00  0.00     0.014 A 
HETATM    4  C   UNL     1       0.908  43.979  38.797  1.00  0.00     0.001 A 
HETATM    5  C   UNL     1       0.341  43.566  37.581  1.00  0.00     0.002 A 
HETATM    6  C   UNL     1      -1.000  43.776  37.323  1.00  0.00     0.030 A 
HETATM    7  C   UNL     1      -2.337  45.369  40.228  1.00  0.00    -0.020 A 
HETATM    8  C   UNL     1      -3.444  45.281  39.419  1.00  0.00     0.097 A 
HETATM    9  N   UNL     1      -3.108  44.681  38.273  1.00  0.00    -0.365 N 
ATOM     10  HN  UNL     1      -3.746  44.480  37.502  1.00  0.00     0.165 HD
ENDROOT
BRANCH   7  11
HETATM   11  C   UNL     1      -2.331  45.946  41.642  1.00  0.00     0.154 C 
BRANCH  11  12
HETATM   12  C   UNL     1      -2.149  47.444  41.720  1.00  0.00     0.177 C 
HETATM   13  O   UNL     1      -1.755  47.945  42.798  1.00  0.00    -0.648 OA
HETATM   14  O   UNL     1      -2.369  48.149  40.712  1.00  0.00    -0.648 OA
ENDBRANCH  11  12
ENDBRANCH   7  11
TORSDOF 2
ENDMDL
MODEL 4
REMARK VINA RESULT:    -5.479      4.053      5.471
REMARK INTER + INTRA:          -6.248
REMARK INTER:                  -6.146
REMARK INTRA:                  -0.102
REMARK UNBOUND:                -0.128
REMARK  2 active torsions:
REMARK  status: ('A' for Active; 'I' for Inactive)
REMARK    1  A    between atoms: C_7  and  C_9 
REMARK    2  A    between atoms: C_9  and  C_10 
ROOT
HETATM    1  C   UNL     1      -1.251  47.332  42.585  1.00  0.00     0.042 A 
HETATM    2  C   UNL     1      -0.088  46.790  42.046  1.00  0.00    -0.001 A 
HETATM    3  C   UNL     1      -0.170  45.802  41.043  1.00  0.00     0.014 A 
HETATM    4  C   UNL     1      -1.428  45.395  40.596  1.00  0.00     0.001 A 
HETATM    5  C   UNL     1      -2.591  45.954  41.149  1.00  0.00     0.002 A 
HETATM    6  C   UNL     1      -2.507  46.925  42.128  1.00  0.00     0.030 A 
HETATM    7  C   UNL     1       0.977  47.434  42.732  1.00  0.00    -0.020 A 
HETATM    8  C   UNL     1       0.405  48.322  43.612  1.00  0.00     0.097 A 
HETATM    9  N   UNL     1      -0.926  48.241  43.518  1.00  0.00    -0.365 N 
ATOM     10  HN  UNL     1      -1.591  48.785  44.070  1.00  0.00     0.165 HD
ENDROOT
BRANCH   7  11
HETATM   11  C   UNL     1       2.478  47.196  42.583  1.00  0.00     0.154 C 
BRANCH  11  12
HETATM   12  C   UNL     1       2.989  45.927  43.225  1.00  0.00     0.177 C 
HETATM   13  O   UNL     1       4.226  45.777  43.355  1.00  0.00    -0.648 OA
HETATM   14  O   UNL     1       2.179  45.067  43.633  1.00  0.00    -0.648 OA
ENDBRANCH  11  12
ENDBRANCH   7  11
TORSDOF 2
ENDMDL
MODEL 5
REMARK VINA RESULT:    -5.287      4.245      4.949
REMARK INTER + INTRA:          -6.033
REMARK INTER:                  -5.876
REMARK INTRA:                  -0.156
REMARK UNBOUND:                -0.128
REMARK  2 active torsions:
REMARK  status: ('A' for Active; 'I' for Inactive)
REMARK    1  A    between atoms: C_7  and  C_9 
REMARK    2  A    between atoms: C_9  and  C_10 
ROOT
HETATM    1  C   UNL     1      -1.927  44.514  38.080  1.00  0.00     0.042 A 
HETATM    2  C   UNL     1      -1.084  44.315  39.171  1.00  0.00    -0.001 A 
HETATM    3  C   UNL     1      -1.392  44.902  40.415  1.00  0.00     0.014 A 
HETATM    4  C   UNL     1      -2.554  45.665  40.534  1.00  0.00     0.001 A 
HETATM    5  C   UNL     1      -3.395  45.854  39.426  1.00  0.00     0.002 A 
HETATM    6  C   UNL     1      -3.093  45.274  38.208  1.00  0.00     0.030 A 
HETATM    7  C   UNL     1      -0.026  43.503  38.680  1.00  0.00    -0.020 A 
HETATM    8  C   UNL     1      -0.298  43.250  37.357  1.00  0.00     0.097 A 
HETATM    9  N   UNL     1      -1.432  43.869  37.012  1.00  0.00    -0.365 N 
ATOM     10  HN  UNL     1      -1.853  43.854  36.083  1.00  0.00     0.165 HD
ENDROOT
BRANCH   7  11
HETATM   11  C   UNL     1       1.212  43.012  39.428  1.00  0.00     0.154 C 
BRANCH  11  12
HETATM   12  C   UNL     1       1.729  41.661  38.988  1.00  0.00     0.177 C 
HETATM   13  O   UNL     1       2.793  41.613  38.329  1.00  0.00    -0.648 OA
HETATM   14  O   UNL     1       1.108  40.625  39.307  1.00  0.00    -0.648 OA
ENDBRANCH  11  12
ENDBRANCH   7  11
TORSDOF 2
ENDMDL
MODEL 6
REMARK VINA RESULT:    -5.269      3.253      3.532
REMARK INTER + INTRA:          -6.013
REMARK INTER:                  -5.860
REMARK INTRA:                  -0.153
REMARK UNBOUND:                -0.128
REMARK  2 active torsions:
REMARK  status: ('A' for Active; 'I' for Inactive)
REMARK    1  A    between atoms: C_7  and  C_9 
REMARK    2  A    between atoms: C_9  and  C_10 
ROOT
HETATM    1  C   UNL     1      -3.470  46.143  37.671  1.00  0.00     0.042 A 
HETATM    2  C   UNL     1      -2.092  45.946  37.636  1.00  0.00    -0.001 A 
HETATM    3  C   UNL     1      -1.292  46.719  36.771  1.00  0.00     0.014 A 
HETATM    4  C   UNL     1      -1.901  47.687  35.970  1.00  0.00     0.001 A 
HETATM    5  C   UNL     1      -3.291  47.874  36.019  1.00  0.00     0.002 A 
HETATM    6  C   UNL     1      -4.073  47.117  36.871  1.00  0.00     0.030 A 
HETATM    7  C   UNL     1      -1.841  44.902  38.568  1.00  0.00    -0.020 A 
HETATM    8  C   UNL     1      -3.055  44.552  39.111  1.00  0.00     0.097 A 
HETATM    9  N   UNL     1      -4.018  45.296  38.558  1.00  0.00    -0.365 N 
ATOM     10  HN  UNL     1      -5.013  45.230  38.775  1.00  0.00     0.165 HD
ENDROOT
BRANCH   7  11
HETATM   11  C   UNL     1      -0.508  44.239  38.907  1.00  0.00     0.154 C 
BRANCH  11  12
HETATM   12  C   UNL     1      -0.105  43.109  37.989  1.00  0.00     0.177 C 
HETATM   13  O   UNL     1      -0.743  42.946  36.923  1.00  0.00    -0.648 OA
HETATM   14  O   UNL     1       0.863  42.379  38.291  1.00  0.00    -0.648 OA
ENDBRANCH  11  12
ENDBRANCH   7  11
TORSDOF 2
ENDMDL
MODEL 7
REMARK VINA RESULT:    -5.260      4.282      5.409
REMARK INTER + INTRA:          -6.003
REMARK INTER:                  -5.808
REMARK INTRA:                  -0.195
REMARK UNBOUND:                -0.128
REMARK  2 active torsions:
REMARK  status: ('A' for Active; 'I' for Inactive)
REMARK    1  A    between atoms: C_7  and  C_9 
REMARK    2  A    between atoms: C_9  and  C_10 
ROOT
HETATM    1  C   UNL     1       0.116  42.155  37.533  1.00  0.00     0.042 A 
HETATM    2  C   UNL     1       0.460  43.015  38.573  1.00  0.00    -0.001 A 
HETATM    3  C   UNL     1       1.386  42.601  39.551  1.00  0.00     0.014 A 
HETATM    4  C   UNL     1       1.959  41.332  39.448  1.00  0.00     0.001 A 
HETATM    5  C   UNL     1       1.603  40.479  38.392  1.00  0.00     0.002 A 
HETATM    6  C   UNL     1       0.697  40.888  37.432  1.00  0.00     0.030 A 
HETATM    7  C   UNL     1      -0.306  44.192  38.352  1.00  0.00    -0.020 A 
HETATM    8  C   UNL     1      -1.036  43.984  37.206  1.00  0.00     0.097 A 
HETATM    9  N   UNL     1      -0.779  42.759  36.735  1.00  0.00    -0.365 N 
ATOM     10  HN  UNL     1      -1.198  42.348  35.900  1.00  0.00     0.165 HD
ENDROOT
BRANCH   7  11
HETATM   11  C   UNL     1      -0.369  45.453  39.211  1.00  0.00     0.154 C 
BRANCH  11  12
HETATM   12  C   UNL     1      -1.119  45.301  40.514  1.00  0.00     0.177 C 
HETATM   13  O   UNL     1      -2.244  44.751  40.497  1.00  0.00    -0.648 OA
HETATM   14  O   UNL     1      -0.601  45.700  41.579  1.00  0.00    -0.648 OA
ENDBRANCH  11  12
ENDBRANCH   7  11
TORSDOF 2
ENDMDL
MODEL 8
REMARK VINA RESULT:    -5.234      2.810      4.604
REMARK INTER + INTRA:          -5.973
REMARK INTER:                  -5.835
REMARK INTRA:                  -0.139
REMARK UNBOUND:                -0.128
REMARK  2 active torsions:
REMARK  status: ('A' for Active; 'I' for Inactive)
REMARK    1  A    between atoms: C_7  and  C_9 
REMARK    2  A    between atoms: C_9  and  C_10 
ROOT
HETATM    1  C   UNL     1      -2.393  45.387  39.758  1.00  0.00     0.042 A 
HETATM    2  C   UNL     1      -3.161  46.447  39.285  1.00  0.00    -0.001 A 
HETATM    3  C   UNL     1      -3.545  47.484  40.159  1.00  0.00     0.014 A 
HETATM    4  C   UNL     1      -3.131  47.436  41.491  1.00  0.00     0.001 A 
HETATM    5  C   UNL     1      -2.354  46.360  41.952  1.00  0.00     0.002 A 
HETATM    6  C   UNL     1      -1.976  45.347  41.091  1.00  0.00     0.030 A 
HETATM    7  C   UNL     1      -3.385  46.161  37.911  1.00  0.00    -0.020 A 
HETATM    8  C   UNL     1      -2.737  44.980  37.639  1.00  0.00     0.097 A 
HETATM    9  N   UNL     1      -2.157  44.526  38.755  1.00  0.00    -0.365 N 
ATOM     10  HN  UNL     1      -1.621  43.662  38.832  1.00  0.00     0.165 HD
ENDROOT
BRANCH   7  11
HETATM   11  C   UNL     1      -4.209  46.958  36.902  1.00  0.00     0.154 C 
BRANCH  11  12
HETATM   12  C   UNL     1      -3.405  47.846  35.981  1.00  0.00     0.177 C 
HETATM   13  O   UNL     1      -3.992  48.413  35.032  1.00  0.00    -0.648 OA
HETATM   14  O   UNL     1      -2.186  48.019  36.194  1.00  0.00    -0.648 OA
ENDBRANCH  11  12
ENDBRANCH   7  11
TORSDOF 2
ENDMDL
MODEL 9
REMARK VINA RESULT:    -5.205      3.178      5.215
REMARK INTER + INTRA:          -5.942
REMARK INTER:                  -5.797
REMARK INTRA:                  -0.145
REMARK UNBOUND:                -0.128
REMARK  2 active torsions:
REMARK  status: ('A' for Active; 'I' for Inactive)
REMARK    1  A    between atoms: C_7  and  C_9 
REMARK    2  A    between atoms: C_9  and  C_10 
ROOT
HETATM    1  C   UNL     1      -0.670  47.692  42.906  1.00  0.00     0.042 A 
HETATM    2  C   UNL     1      -0.465  46.607  42.058  1.00  0.00    -0.001 A 
HETATM    3  C   UNL     1       0.846  46.210  41.726  1.00  0.00     0.014 A 
HETATM    4  C   UNL     1       1.924  46.909  42.271  1.00  0.00     0.001 A 
HETATM    5  C   UNL     1       1.700  48.001  43.126  1.00  0.00     0.002 A 
HETATM    6  C   UNL     1       0.414  48.385  43.453  1.00  0.00     0.030 A 
HETATM    7  C   UNL     1      -1.767  46.155  41.710  1.00  0.00    -0.020 A 
HETATM    8  C   UNL     1      -2.660  46.966  42.370  1.00  0.00     0.097 A 
HETATM    9  N   UNL     1      -1.988  47.885  43.072  1.00  0.00    -0.365 N 
ATOM     10  HN  UNL     1      -2.411  48.617  43.643  1.00  0.00     0.165 HD
ENDROOT
BRANCH   7  11
HETATM   11  C   UNL     1      -2.152  45.020  40.764  1.00  0.00     0.154 C 
BRANCH  11  12
HETATM   12  C   UNL     1      -2.806  45.458  39.474  1.00  0.00     0.177 C 
HETATM   13  O   UNL     1      -2.448  46.541  38.958  1.00  0.00    -0.648 OA
HETATM   14  O   UNL     1      -3.667  44.729  38.937  1.00  0.00    -0.648 OA
ENDBRANCH  11  12
ENDBRANCH   7  11
TORSDOF 2
ENDMDL
MODEL 10
REMARK VINA RESULT:    -5.201      2.175      3.400
REMARK INTER + INTRA:          -5.937
REMARK INTER:                  -5.741
REMARK INTRA:                  -0.195
REMARK UNBOUND:                -0.128
REMARK  2 active torsions:
REMARK  status: ('A' for Active; 'I' for Inactive)
REMARK    1  A    between atoms: C_7  and  C_9 
REMARK    2  A    between atoms: C_9  and  C_10 
ROOT
HETATM    1  C   UNL     1      -2.469  47.142  39.437  1.00  0.00     0.042 A 
HETATM    2  C   UNL     1      -1.572  46.713  40.413  1.00  0.00    -0.001 A 
HETATM    3  C   UNL     1      -1.573  45.367  40.828  1.00  0.00     0.014 A 
HETATM    4  C   UNL     1      -2.471  44.476  40.237  1.00  0.00     0.001 A 
HETATM    5  C   UNL     1      -3.368  44.924  39.253  1.00  0.00     0.002 A 
HETATM    6  C   UNL     1      -3.361  46.244  38.845  1.00  0.00     0.030 A 
HETATM    7  C   UNL     1      -0.832  47.873  40.772  1.00  0.00    -0.020 A 
HETATM    8  C   UNL     1      -1.303  48.904  39.995  1.00  0.00     0.097 A 
HETATM    9  N   UNL     1      -2.287  48.452  39.211  1.00  0.00    -0.365 N 
ATOM     10  HN  UNL     1      -2.817  49.016  38.545  1.00  0.00     0.165 HD
ENDROOT
BRANCH   7  11
HETATM   11  C   UNL     1       0.258  48.005  41.834  1.00  0.00     0.154 C 
BRANCH  11  12
HETATM   12  C   UNL     1      -0.246  48.190  43.246  1.00  0.00     0.177 C 
HETATM   13  O   UNL     1      -0.267  47.198  44.010  1.00  0.00    -0.648 OA
HETATM   14  O   UNL     1      -0.607  49.322  43.634  1.00  0.00    -0.648 OA
ENDBRANCH  11  12
ENDBRANCH   7  11
TORSDOF 2
ENDMDL
MODEL 11
REMARK VINA RESULT:    -5.171      2.605      3.820
REMARK INTER + INTRA:          -5.903
REMARK INTER:                  -5.741
REMARK INTRA:                  -0.162
REMARK UNBOUND:                -0.128
REMARK  2 active torsions:
REMARK  status: ('A' for Active; 'I' for Inactive)
REMARK    1  A    between atoms: C_7  and  C_9 
REMARK    2  A    between atoms: C_9  and  C_10 
ROOT
HETATM    1  C   UNL     1      -1.444  48.252  35.094  1.00  0.00     0.042 A 
HETATM    2  C   UNL     1      -2.766  48.152  35.517  1.00  0.00    -0.001 A 
HETATM    3  C   UNL     1      -3.775  48.879  34.853  1.00  0.00     0.014 A 
HETATM    4  C   UNL     1      -3.427  49.681  33.765  1.00  0.00     0.001 A 
HETATM    5  C   UNL     1      -2.089  49.769  33.350  1.00  0.00     0.002 A 
HETATM    6  C   UNL     1      -1.103  49.052  33.999  1.00  0.00     0.030 A 
HETATM    7  C   UNL     1      -2.736  47.263  36.626  1.00  0.00    -0.020 A 
HETATM    8  C   UNL     1      -1.428  46.874  36.790  1.00  0.00     0.097 A 
HETATM    9  N   UNL     1      -0.668  47.481  35.873  1.00  0.00    -0.365 N 
ATOM     10  HN  UNL     1       0.342  47.375  35.780  1.00  0.00     0.165 HD
ENDROOT
BRANCH   7  11
HETATM   11  C   UNL     1      -3.897  46.824  37.516  1.00  0.00     0.154 C 
BRANCH  11  12
HETATM   12  C   UNL     1      -3.615  46.868  39.000  1.00  0.00     0.177 C 
HETATM   13  O   UNL     1      -3.426  45.789  39.606  1.00  0.00    -0.648 OA
HETATM   14  O   UNL     1      -3.551  47.969  39.588  1.00  0.00    -0.648 OA
ENDBRANCH  11  12
ENDBRANCH   7  11
TORSDOF 2
ENDMDL
MODEL 12
REMARK VINA RESULT:    -5.153      2.045      3.741
REMARK INTER + INTRA:          -5.884
REMARK INTER:                  -5.808
REMARK INTRA:                  -0.076
REMARK UNBOUND:                -0.128
REMARK  2 active torsions:
REMARK  status: ('A' for Active; 'I' for Inactive)
REMARK    1  A    between atoms: C_7  and  C_9 
REMARK    2  A    between atoms: C_9  and  C_10 
ROOT
HETATM    1  C   UNL     1      -3.241  45.706  38.616  1.00  0.00     0.042 A 
HETATM    2  C   UNL     1      -2.402  46.790  38.865  1.00  0.00    -0.001 A 
HETATM    3  C   UNL     1      -1.482  46.738  39.931  1.00  0.00     0.014 A 
HETATM    4  C   UNL     1      -1.417  45.584  40.715  1.00  0.00     0.001 A 
HETATM    5  C   UNL     1      -2.269  44.500  40.450  1.00  0.00     0.002 A 
HETATM    6  C   UNL     1      -3.167  44.552  39.401  1.00  0.00     0.030 A 
HETATM    7  C   UNL     1      -2.746  47.760  37.884  1.00  0.00    -0.020 A 
HETATM    8  C   UNL     1      -3.737  47.207  37.108  1.00  0.00     0.097 A 
HETATM    9  N   UNL     1      -4.027  45.985  37.564  1.00  0.00    -0.365 N 
ATOM     10  HN  UNL     1      -4.735  45.362  37.175  1.00  0.00     0.165 HD
ENDROOT
BRANCH   7  11
HETATM   11  C   UNL     1      -2.181  49.167  37.709  1.00  0.00     0.154 C 
BRANCH  11  12
HETATM   12  C   UNL     1      -2.004  49.948  38.991  1.00  0.00     0.177 C 
HETATM   13  O   UNL     1      -0.842  50.225  39.369  1.00  0.00    -0.648 OA
HETATM   14  O   UNL     1      -3.008  50.322  39.634  1.00  0.00    -0.648 OA
ENDBRANCH  11  12
ENDBRANCH   7  11
TORSDOF 2
ENDMDL
MODEL 13
REMARK VINA RESULT:    -5.150      2.280      3.319
REMARK INTER + INTRA:          -5.880
REMARK INTER:                  -5.713
REMARK INTRA:                  -0.167
REMARK UNBOUND:                -0.128
REMARK  2 active torsions:
REMARK  status: ('A' for Active; 'I' for Inactive)
REMARK    1  A    between atoms: C_7  and  C_9 
REMARK    2  A    between atoms: C_9  and  C_10 
ROOT
HETATM    1  C   UNL     1      -1.716  47.000  39.112  1.00  0.00     0.042 A 
HETATM    2  C   UNL     1      -1.974  46.491  40.382  1.00  0.00    -0.001 A 
HETATM    3  C   UNL     1      -2.649  45.262  40.525  1.00  0.00     0.014 A 
HETATM    4  C   UNL     1      -3.037  44.566  39.379  1.00  0.00     0.001 A 
HETATM    5  C   UNL     1      -2.768  45.092  38.105  1.00  0.00     0.002 A 
HETATM    6  C   UNL     1      -2.101  46.295  37.969  1.00  0.00     0.030 A 
HETATM    7  C   UNL     1      -1.443  47.454  41.284  1.00  0.00    -0.020 A 
HETATM    8  C   UNL     1      -0.893  48.455  40.520  1.00  0.00     0.097 A 
HETATM    9  N   UNL     1      -1.073  48.173  39.225  1.00  0.00    -0.365 N 
ATOM     10  HN  UNL     1      -0.770  48.758  38.446  1.00  0.00     0.165 HD
ENDROOT
BRANCH   7  11
HETATM   11  C   UNL     1      -1.485  47.441  42.810  1.00  0.00     0.154 C 
BRANCH  11  12
HETATM   12  C   UNL     1      -0.136  47.530  43.486  1.00  0.00     0.177 C 
HETATM   13  O   UNL     1       0.702  46.624  43.272  1.00  0.00    -0.648 OA
HETATM   14  O   UNL     1       0.127  48.506  44.220  1.00  0.00    -0.648 OA
ENDBRANCH  11  12
ENDBRANCH   7  11
TORSDOF 2
ENDMDL
MODEL 14
REMARK VINA RESULT:    -5.052      3.197      4.577
REMARK INTER + INTRA:          -5.770
REMARK INTER:                  -5.573
REMARK INTRA:                  -0.198
REMARK UNBOUND:                -0.128
REMARK  2 active torsions:
REMARK  status: ('A' for Active; 'I' for Inactive)
REMARK    1  A    between atoms: C_7  and  C_9 
REMARK    2  A    between atoms: C_9  and  C_10 
ROOT
HETATM    1  C   UNL     1       0.586  45.637  41.147  1.00  0.00     0.042 A 
HETATM    2  C   UNL     1      -0.769  45.642  40.827  1.00  0.00    -0.001 A 
HETATM    3  C   UNL     1      -1.262  44.771  39.834  1.00  0.00     0.014 A 
HETATM    4  C   UNL     1      -0.376  43.901  39.196  1.00  0.00     0.001 A 
HETATM    5  C   UNL     1       0.988  43.908  39.532  1.00  0.00     0.002 A 
HETATM    6  C   UNL     1       1.467  44.760  40.509  1.00  0.00     0.030 A 
HETATM    7  C   UNL     1      -1.346  46.635  41.664  1.00  0.00    -0.020 A 
HETATM    8  C   UNL     1      -0.330  47.146  42.436  1.00  0.00     0.097 A 
HETATM    9  N   UNL     1       0.819  46.546  42.107  1.00  0.00    -0.365 N 
ATOM     10  HN  UNL     1       1.730  46.748  42.521  1.00  0.00     0.165 HD
ENDROOT
BRANCH   7  11
HETATM   11  C   UNL     1      -2.798  47.106  41.709  1.00  0.00     0.154 C 
BRANCH  11  12
HETATM   12  C   UNL     1      -3.293  47.773  40.447  1.00  0.00     0.177 C 
HETATM   13  O   UNL     1      -4.178  47.199  39.773  1.00  0.00    -0.648 OA
HETATM   14  O   UNL     1      -2.833  48.885  40.112  1.00  0.00    -0.648 OA
ENDBRANCH  11  12
ENDBRANCH   7  11
TORSDOF 2
ENDMDL
MODEL 15
REMARK VINA RESULT:    -5.032      6.009      7.272
REMARK INTER + INTRA:          -5.748
REMARK INTER:                  -5.617
REMARK INTRA:                  -0.131
REMARK UNBOUND:                -0.128
REMARK  2 active torsions:
REMARK  status: ('A' for Active; 'I' for Inactive)
REMARK    1  A    between atoms: C_7  and  C_9 
REMARK    2  A    between atoms: C_9  and  C_10 
ROOT
HETATM    1  C   UNL     1       1.538  47.157  43.203  1.00  0.00     0.042 A 
HETATM    2  C   UNL     1       2.277  48.337  43.227  1.00  0.00    -0.001 A 
HETATM    3  C   UNL     1       3.684  48.287  43.275  1.00  0.00     0.014 A 
HETATM    4  C   UNL     1       4.317  47.043  43.282  1.00  0.00     0.001 A 
HETATM    5  C   UNL     1       3.558  45.862  43.255  1.00  0.00     0.002 A 
HETATM    6  C   UNL     1       2.178  45.914  43.204  1.00  0.00     0.030 A 
HETATM    7  C   UNL     1       1.311  49.381  43.209  1.00  0.00    -0.020 A 
HETATM    8  C   UNL     1       0.076  48.780  43.157  1.00  0.00     0.097 A 
HETATM    9  N   UNL     1       0.229  47.452  43.164  1.00  0.00    -0.365 N 
ATOM     10  HN  UNL     1      -0.530  46.770  43.143  1.00  0.00     0.165 HD
ENDROOT
BRANCH   7  11
HETATM   11  C   UNL     1       1.549  50.888  43.271  1.00  0.00     0.154 C 
BRANCH  11  12
HETATM   12  C   UNL     1       0.336  51.738  42.971  1.00  0.00     0.177 C 
HETATM   13  O   UNL     1       0.073  52.008  41.777  1.00  0.00    -0.648 OA
HETATM   14  O   UNL     1      -0.392  52.132  43.907  1.00  0.00    -0.648 OA
ENDBRANCH  11  12
ENDBRANCH   7  11
TORSDOF 2
ENDMDL
MODEL 16
REMARK VINA RESULT:    -5.001      3.557      5.260
REMARK INTER + INTRA:          -5.713
REMARK INTER:                  -5.573
REMARK INTRA:                  -0.141
REMARK UNBOUND:                -0.128
REMARK  2 active torsions:
REMARK  status: ('A' for Active; 'I' for Inactive)
REMARK    1  A    between atoms: C_7  and  C_9 
REMARK    2  A    between atoms: C_9  and  C_10 
ROOT
HETATM    1  C   UNL     1      -2.111  47.028  39.261  1.00  0.00     0.042 A 
HETATM    2  C   UNL     1      -2.926  46.605  38.213  1.00  0.00    -0.001 A 
HETATM    3  C   UNL     1      -3.489  45.313  38.237  1.00  0.00     0.014 A 
HETATM    4  C   UNL     1      -3.230  44.481  39.327  1.00  0.00     0.001 A 
HETATM    5  C   UNL     1      -2.408  44.924  40.376  1.00  0.00     0.002 A 
HETATM    6  C   UNL     1      -1.861  46.192  40.352  1.00  0.00     0.030 A 
HETATM    7  C   UNL     1      -2.961  47.697  37.304  1.00  0.00    -0.020 A 
HETATM    8  C   UNL     1      -2.197  48.699  37.855  1.00  0.00     0.097 A 
HETATM    9  N   UNL     1      -1.689  48.279  39.018  1.00  0.00    -0.365 N 
ATOM     10  HN  UNL     1      -1.077  48.824  39.626  1.00  0.00     0.165 HD
ENDROOT
BRANCH   7  11
HETATM   11  C   UNL     1      -3.664  47.778  35.951  1.00  0.00     0.154 C 
BRANCH  11  12
HETATM   12  C   UNL     1      -3.130  48.838  35.016  1.00  0.00     0.177 C 
HETATM   13  O   UNL     1      -3.728  49.937  34.952  1.00  0.00    -0.648 OA
HETATM   14  O   UNL     1      -2.098  48.614  34.348  1.00  0.00    -0.648 OA
ENDBRANCH  11  12
ENDBRANCH   7  11
TORSDOF 2
ENDMDL
MODEL 17
REMARK VINA RESULT:    -4.968      4.691      6.812
REMARK INTER + INTRA:          -5.677
REMARK INTER:                  -5.471
REMARK INTRA:                  -0.206
REMARK UNBOUND:                -0.128
REMARK  2 active torsions:
REMARK  status: ('A' for Active; 'I' for Inactive)
REMARK    1  A    between atoms: C_7  and  C_9 
REMARK    2  A    between atoms: C_9  and  C_10 
ROOT
HETATM    1  C   UNL     1       2.529  48.289  43.217  1.00  0.00     0.042 A 
HETATM    2  C   UNL     1       1.507  47.345  43.276  1.00  0.00    -0.001 A 
HETATM    3  C   UNL     1       1.814  45.970  43.242  1.00  0.00     0.014 A 
HETATM    4  C   UNL     1       3.151  45.577  43.166  1.00  0.00     0.001 A 
HETATM    5  C   UNL     1       4.171  46.541  43.110  1.00  0.00     0.002 A 
HETATM    6  C   UNL     1       3.866  47.889  43.148  1.00  0.00     0.030 A 
HETATM    7  C   UNL     1       0.305  48.102  43.347  1.00  0.00    -0.020 A 
HETATM    8  C   UNL     1       0.668  49.428  43.346  1.00  0.00     0.097 A 
HETATM    9  N   UNL     1       1.999  49.522  43.259  1.00  0.00    -0.365 N 
ATOM     10  HN  UNL     1       2.528  50.393  43.228  1.00  0.00     0.165 HD
ENDROOT
BRANCH   7  11
HETATM   11  C   UNL     1      -1.133  47.590  43.381  1.00  0.00     0.154 C 
BRANCH  11  12
HETATM   12  C   UNL     1      -1.669  47.102  42.055  1.00  0.00     0.177 C 
HETATM   13  O   UNL     1      -2.257  47.918  41.310  1.00  0.00    -0.648 OA
HETATM   14  O   UNL     1      -1.496  45.911  41.716  1.00  0.00    -0.648 OA
ENDBRANCH  11  12
ENDBRANCH   7  11
TORSDOF 2
ENDMDL
MODEL 18
REMARK VINA RESULT:    -4.938      1.518      2.227
REMARK INTER + INTRA:          -5.643
REMARK INTER:                  -5.446
REMARK INTRA:                  -0.197
REMARK UNBOUND:                -0.128
REMARK  2 active torsions:
REMARK  status: ('A' for Active; 'I' for Inactive)
REMARK    1  A    between atoms: C_7  and  C_9 
REMARK    2  A    between atoms: C_9  and  C_10 
ROOT
HETATM    1  C   UNL     1      -3.711  47.474  36.525  1.00  0.00     0.042 A 
HETATM    2  C   UNL     1      -2.591  47.978  37.181  1.00  0.00    -0.001 A 
HETATM    3  C   UNL     1      -1.890  49.073  36.637  1.00  0.00     0.014 A 
HETATM    4  C   UNL     1      -2.345  49.646  35.449  1.00  0.00     0.001 A 
HETATM    5  C   UNL     1      -3.477  49.127  34.801  1.00  0.00     0.002 A 
HETATM    6  C   UNL     1      -4.166  48.057  35.339  1.00  0.00     0.030 A 
HETATM    7  C   UNL     1      -2.434  47.158  38.332  1.00  0.00    -0.020 A 
HETATM    8  C   UNL     1      -3.458  46.242  38.312  1.00  0.00     0.097 A 
HETATM    9  N   UNL     1      -4.206  46.438  37.221  1.00  0.00    -0.365 N 
ATOM     10  HN  UNL     1      -5.023  45.887  36.959  1.00  0.00     0.165 HD
ENDROOT
BRANCH   7  11
HETATM   11  C   UNL     1      -1.338  47.221  39.393  1.00  0.00     0.154 C 
BRANCH  11  12
HETATM   12  C   UNL     1      -1.561  48.244  40.483  1.00  0.00     0.177 C 
HETATM   13  O   UNL     1      -1.004  49.361  40.379  1.00  0.00    -0.648 OA
HETATM   14  O   UNL     1      -2.309  47.972  41.446  1.00  0.00    -0.648 OA
ENDBRANCH  11  12
ENDBRANCH   7  11
TORSDOF 2
ENDMDL
MODEL 19
REMARK VINA RESULT:    -4.923      3.337      4.973
REMARK INTER + INTRA:          -5.627
REMARK INTER:                  -5.488
REMARK INTRA:                  -0.139
REMARK UNBOUND:                -0.128
REMARK  2 active torsions:
REMARK  status: ('A' for Active; 'I' for Inactive)
REMARK    1  A    between atoms: C_7  and  C_9 
REMARK    2  A    between atoms: C_9  and  C_10 
ROOT
HETATM    1  C   UNL     1      -3.242  45.833  38.359  1.00  0.00     0.042 A 
HETATM    2  C   UNL     1      -1.965  46.183  37.925  1.00  0.00    -0.001 A 
HETATM    3  C   UNL     1      -0.832  45.692  38.603  1.00  0.00     0.014 A 
HETATM    4  C   UNL     1      -1.012  44.844  39.698  1.00  0.00     0.001 A 
HETATM    5  C   UNL     1      -2.306  44.500  40.121  1.00  0.00     0.002 A 
HETATM    6  C   UNL     1      -3.416  44.980  39.451  1.00  0.00     0.030 A 
HETATM    7  C   UNL     1      -2.173  47.039  36.809  1.00  0.00    -0.020 A 
HETATM    8  C   UNL     1      -3.532  47.137  36.629  1.00  0.00     0.097 A 
HETATM    9  N   UNL     1      -4.156  46.419  37.569  1.00  0.00    -0.365 N 
ATOM     10  HN  UNL     1      -5.167  46.331  37.669  1.00  0.00     0.165 HD
ENDROOT
BRANCH   7  11
HETATM   11  C   UNL     1      -1.125  47.762  35.966  1.00  0.00     0.154 C 
BRANCH  11  12
HETATM   12  C   UNL     1      -1.667  48.852  35.071  1.00  0.00     0.177 C 
HETATM   13  O   UNL     1      -1.843  49.993  35.555  1.00  0.00    -0.648 OA
HETATM   14  O   UNL     1      -1.904  48.607  33.869  1.00  0.00    -0.648 OA
ENDBRANCH  11  12
ENDBRANCH   7  11
TORSDOF 2
ENDMDL
MODEL 20
REMARK VINA RESULT:    -4.907      2.682      4.041
REMARK INTER + INTRA:          -5.609
REMARK INTER:                  -5.460
REMARK INTRA:                  -0.149
REMARK UNBOUND:                -0.128
REMARK  2 active torsions:
REMARK  status: ('A' for Active; 'I' for Inactive)
REMARK    1  A    between atoms: C_7  and  C_9 
REMARK    2  A    between atoms: C_9  and  C_10 
ROOT
HETATM    1  C   UNL     1      -2.634  50.529  36.035  1.00  0.00     0.042 A 
HETATM    2  C   UNL     1      -2.698  49.177  36.364  1.00  0.00    -0.001 A 
HETATM    3  C   UNL     1      -3.175  48.245  35.420  1.00  0.00     0.014 A 
HETATM    4  C   UNL     1      -3.561  48.697  34.157  1.00  0.00     0.001 A 
HETATM    5  C   UNL     1      -3.488  50.063  33.841  1.00  0.00     0.002 A 
HETATM    6  C   UNL     1      -3.016  50.974  34.767  1.00  0.00     0.030 A 
HETATM    7  C   UNL     1      -2.232  49.097  37.704  1.00  0.00    -0.020 A 
HETATM    8  C   UNL     1      -1.903  50.374  38.089  1.00  0.00     0.097 A 
HETATM    9  N   UNL     1      -2.158  51.219  37.084  1.00  0.00    -0.365 N 
ATOM     10  HN  UNL     1      -2.014  52.228  37.111  1.00  0.00     0.165 HD
ENDROOT
BRANCH   7  11
HETATM   11  C   UNL     1      -2.132  47.862  38.597  1.00  0.00     0.154 C 
BRANCH  11  12
HETATM   12  C   UNL     1      -2.913  47.942  39.888  1.00  0.00     0.177 C 
HETATM   13  O   UNL     1      -4.120  47.608  39.880  1.00  0.00    -0.648 OA
HETATM   14  O   UNL     1      -2.344  48.313  40.936  1.00  0.00    -0.648 OA
ENDBRANCH  11  12
ENDBRANCH   7  11
TORSDOF 2
ENDMDL
