MODEL 1
REMARK VINA RESULT:    -6.511      0.000      0.000
REMARK INTER + INTRA:          -8.107
REMARK INTER:                  -7.653
REMARK INTRA:                  -0.454
REMARK UNBOUND:                -0.454
REMARK  3 active torsions:
REMARK  status: ('A' for Active; 'I' for Inactive)
REMARK    1  A    between atoms: S_2  and  N_5 
REMARK    2  A    between atoms: N_5  and  C_7 
REMARK    3  A    between atoms: C_13  and  C_14 
ROOT
HETATM    1  C   UNL     1     -20.603  35.558   4.559  1.00  0.00     0.059 A 
HETATM    2  C   UNL     1     -21.657  35.352   3.677  1.00  0.00     0.034 A 
HETATM    3  C   UNL     1     -22.646  34.420   3.973  1.00  0.00     0.044 A 
HETATM    4  C   UNL     1     -22.590  33.701   5.162  1.00  0.00     0.117 A 
HETATM    5  F   UNL     1     -23.544  32.799   5.459  1.00  0.00    -0.206 F 
HETATM    6  C   UNL     1     -21.541  33.910   6.047  1.00  0.00     0.063 A 
HETATM    7  C   UNL     1     -20.551  34.840   5.751  1.00  0.00     0.070 A 
ENDROOT
BRANCH   1   8
HETATM    8  N   UNL     1     -19.660  36.454   4.274  1.00  0.00    -0.284 N 
ATOM      9  HN  UNL     1     -19.661  37.359   4.745  1.00  0.00     0.178 HD
BRANCH   8  10
HETATM   10  S   UNL     1     -18.505  36.111   3.174  1.00  0.00     0.227 S 
HETATM   11  O   UNL     1     -19.001  36.454   1.801  1.00  0.00    -0.206 OA
HETATM   12  O   UNL     1     -18.171  34.652   3.239  1.00  0.00    -0.206 OA
HETATM   13  C   UNL     1     -17.045  37.068   3.529  1.00  0.00     0.186 C 
ENDBRANCH   8  10
ENDBRANCH   1   8
BRANCH   7  14
HETATM   14  C   UNL     1     -19.412  35.055   6.744  1.00  0.00     0.211 C 
HETATM   15  O   UNL     1     -18.974  34.050   7.344  1.00  0.00    -0.644 OA
HETATM   16  O   UNL     1     -19.007  36.223   6.930  1.00  0.00    -0.644 OA
ENDBRANCH   7  14
TORSDOF 3
ENDMDL
MODEL 2
REMARK VINA RESULT:    -6.182      3.287      5.338
REMARK INTER + INTRA:          -7.720
REMARK INTER:                  -7.196
REMARK INTRA:                  -0.524
REMARK UNBOUND:                -0.454
REMARK  3 active torsions:
REMARK  status: ('A' for Active; 'I' for Inactive)
REMARK    1  A    between atoms: S_2  and  N_5 
REMARK    2  A    between atoms: N_5  and  C_7 
REMARK    3  A    between atoms: C_13  and  C_14 
ROOT
HETATM    1  C   UNL     1     -17.932  35.282   4.247  1.00  0.00     0.059 A 
HETATM    2  C   UNL     1     -16.542  35.288   4.225  1.00  0.00     0.034 A 
HETATM    3  C   UNL     1     -15.855  36.377   3.699  1.00  0.00     0.044 A 
HETATM    4  C   UNL     1     -16.558  37.471   3.206  1.00  0.00     0.117 A 
HETATM    5  F   UNL     1     -15.902  38.531   2.698  1.00  0.00    -0.206 F 
HETATM    6  C   UNL     1     -17.946  37.469   3.233  1.00  0.00     0.063 A 
HETATM    7  C   UNL     1     -18.634  36.380   3.757  1.00  0.00     0.070 A 
ENDROOT
BRANCH   1   8
HETATM    8  N   UNL     1     -18.586  34.240   4.755  1.00  0.00    -0.284 N 
ATOM      9  HN  UNL     1     -18.903  33.490   4.140  1.00  0.00     0.178 HD
BRANCH   8  10
HETATM   10  S   UNL     1     -18.884  34.157   6.357  1.00  0.00     0.227 S 
HETATM   11  O   UNL     1     -18.375  35.398   7.027  1.00  0.00    -0.206 OA
HETATM   12  O   UNL     1     -18.194  32.956   6.931  1.00  0.00    -0.206 OA
HETATM   13  C   UNL     1     -20.638  34.017   6.629  1.00  0.00     0.186 C 
ENDBRANCH   8  10
ENDBRANCH   1   8
BRANCH   7  14
HETATM   14  C   UNL     1     -20.160  36.406   3.780  1.00  0.00     0.211 C 
HETATM   15  O   UNL     1     -20.712  36.964   4.753  1.00  0.00    -0.644 OA
HETATM   16  O   UNL     1     -20.772  35.838   2.849  1.00  0.00    -0.644 OA
ENDBRANCH   7  14
TORSDOF 3
ENDMDL
MODEL 3
REMARK VINA RESULT:    -6.177      3.326      4.280
REMARK INTER + INTRA:          -7.714
REMARK INTER:                  -7.255
REMARK INTRA:                  -0.459
REMARK UNBOUND:                -0.454
REMARK  3 active torsions:
REMARK  status: ('A' for Active; 'I' for Inactive)
REMARK    1  A    between atoms: S_2  and  N_5 
REMARK    2  A    between atoms: N_5  and  C_7 
REMARK    3  A    between atoms: C_13  and  C_14 
ROOT
HETATM    1  C   UNL     1     -20.453  35.369   5.241  1.00  0.00     0.059 A 
HETATM    2  C   UNL     1     -20.721  36.351   4.293  1.00  0.00     0.034 A 
HETATM    3  C   UNL     1     -19.678  37.033   3.677  1.00  0.00     0.044 A 
HETATM    4  C   UNL     1     -18.360  36.724   3.999  1.00  0.00     0.117 A 
HETATM    5  F   UNL     1     -17.343  37.377   3.405  1.00  0.00    -0.206 F 
HETATM    6  C   UNL     1     -18.091  35.740   4.940  1.00  0.00     0.063 A 
HETATM    7  C   UNL     1     -19.133  35.059   5.558  1.00  0.00     0.070 A 
ENDROOT
BRANCH   1   8
HETATM    8  N   UNL     1     -21.455  34.716   5.826  1.00  0.00    -0.284 N 
ATOM      9  HN  UNL     1     -21.729  34.953   6.779  1.00  0.00     0.178 HD
BRANCH   8  10
HETATM   10  S   UNL     1     -22.247  33.536   5.023  1.00  0.00     0.227 S 
HETATM   11  O   UNL     1     -23.307  34.144   4.154  1.00  0.00    -0.206 OA
HETATM   12  O   UNL     1     -22.879  32.600   6.008  1.00  0.00    -0.206 OA
HETATM   13  C   UNL     1     -21.096  32.635   4.006  1.00  0.00     0.186 C 
ENDBRANCH   8  10
ENDBRANCH   1   8
BRANCH   7  14
HETATM   14  C   UNL     1     -18.810  33.977   6.585  1.00  0.00     0.211 C 
HETATM   15  O   UNL     1     -19.335  34.082   7.715  1.00  0.00    -0.644 OA
HETATM   16  O   UNL     1     -18.012  33.073   6.255  1.00  0.00    -0.644 OA
ENDBRANCH   7  14
TORSDOF 3
ENDMDL
MODEL 4
REMARK VINA RESULT:    -6.153      3.259      4.402
REMARK INTER + INTRA:          -7.686
REMARK INTER:                  -7.187
REMARK INTRA:                  -0.499
REMARK UNBOUND:                -0.454
REMARK  3 active torsions:
REMARK  status: ('A' for Active; 'I' for Inactive)
REMARK    1  A    between atoms: S_2  and  N_5 
REMARK    2  A    between atoms: N_5  and  C_7 
REMARK    3  A    between atoms: C_13  and  C_14 
ROOT
HETATM    1  C   UNL     1     -20.419  35.275   5.200  1.00  0.00     0.059 A 
HETATM    2  C   UNL     1     -20.692  36.264   4.262  1.00  0.00     0.034 A 
HETATM    3  C   UNL     1     -19.654  36.982   3.679  1.00  0.00     0.044 A 
HETATM    4  C   UNL     1     -18.336  36.702   4.023  1.00  0.00     0.117 A 
HETATM    5  F   UNL     1     -17.323  37.389   3.462  1.00  0.00    -0.206 F 
HETATM    6  C   UNL     1     -18.061  35.710   4.955  1.00  0.00     0.063 A 
HETATM    7  C   UNL     1     -19.099  34.993   5.540  1.00  0.00     0.070 A 
ENDROOT
BRANCH   1   8
HETATM    8  N   UNL     1     -21.416  34.587   5.753  1.00  0.00    -0.284 N 
ATOM      9  HN  UNL     1     -21.718  34.805   6.702  1.00  0.00     0.178 HD
BRANCH   8  10
HETATM   10  S   UNL     1     -22.156  33.397   4.918  1.00  0.00     0.227 S 
HETATM   11  O   UNL     1     -21.131  32.594   4.173  1.00  0.00    -0.206 OA
HETATM   12  O   UNL     1     -23.129  33.996   3.948  1.00  0.00    -0.206 OA
HETATM   13  C   UNL     1     -23.028  32.333   6.049  1.00  0.00     0.186 C 
ENDBRANCH   8  10
ENDBRANCH   1   8
BRANCH   7  14
HETATM   14  C   UNL     1     -18.769  33.904   6.558  1.00  0.00     0.211 C 
HETATM   15  O   UNL     1     -19.280  34.006   7.694  1.00  0.00    -0.644 OA
HETATM   16  O   UNL     1     -17.981  32.997   6.214  1.00  0.00    -0.644 OA
ENDBRANCH   7  14
TORSDOF 3
ENDMDL
MODEL 5
REMARK VINA RESULT:    -6.003      3.362      3.900
REMARK INTER + INTRA:          -7.509
REMARK INTER:                  -6.979
REMARK INTRA:                  -0.531
REMARK UNBOUND:                -0.454
REMARK  3 active torsions:
REMARK  status: ('A' for Active; 'I' for Inactive)
REMARK    1  A    between atoms: S_2  and  N_5 
REMARK    2  A    between atoms: N_5  and  C_7 
REMARK    3  A    between atoms: C_13  and  C_14 
ROOT
HETATM    1  C   UNL     1     -18.722  33.832   4.390  1.00  0.00     0.059 A 
HETATM    2  C   UNL     1     -18.346  32.902   3.427  1.00  0.00     0.034 A 
HETATM    3  C   UNL     1     -17.663  31.749   3.797  1.00  0.00     0.044 A 
HETATM    4  C   UNL     1     -17.367  31.516   5.136  1.00  0.00     0.117 A 
HETATM    5  F   UNL     1     -16.709  30.400   5.504  1.00  0.00    -0.206 F 
HETATM    6  C   UNL     1     -17.748  32.440   6.099  1.00  0.00     0.063 A 
HETATM    7  C   UNL     1     -18.429  33.594   5.730  1.00  0.00     0.070 A 
ENDROOT
BRANCH   1   8
HETATM    8  N   UNL     1     -19.380  34.933   4.032  1.00  0.00    -0.284 N 
ATOM      9  HN  UNL     1     -18.872  35.807   3.897  1.00  0.00     0.178 HD
BRANCH   8  10
HETATM   10  S   UNL     1     -20.996  34.890   3.808  1.00  0.00     0.227 S 
HETATM   11  O   UNL     1     -21.617  36.121   4.399  1.00  0.00    -0.206 OA
HETATM   12  O   UNL     1     -21.560  33.672   4.474  1.00  0.00    -0.206 OA
HETATM   13  C   UNL     1     -21.352  34.830   2.064  1.00  0.00     0.186 C 
ENDBRANCH   8  10
ENDBRANCH   1   8
BRANCH   7  14
HETATM   14  C   UNL     1     -18.842  34.592   6.809  1.00  0.00     0.211 C 
HETATM   15  O   UNL     1     -19.513  34.156   7.769  1.00  0.00    -0.644 OA
HETATM   16  O   UNL     1     -18.520  35.790   6.656  1.00  0.00    -0.644 OA
ENDBRANCH   7  14
TORSDOF 3
ENDMDL
MODEL 6
REMARK VINA RESULT:    -5.888      2.232      3.043
REMARK INTER + INTRA:          -7.375
REMARK INTER:                  -6.820
REMARK INTRA:                  -0.555
REMARK UNBOUND:                -0.454
REMARK  3 active torsions:
REMARK  status: ('A' for Active; 'I' for Inactive)
REMARK    1  A    between atoms: S_2  and  N_5 
REMARK    2  A    between atoms: N_5  and  C_7 
REMARK    3  A    between atoms: C_13  and  C_14 
ROOT
HETATM    1  C   UNL     1     -19.507  35.303   4.649  1.00  0.00     0.059 A 
HETATM    2  C   UNL     1     -19.166  35.734   5.927  1.00  0.00     0.034 A 
HETATM    3  C   UNL     1     -20.080  35.624   6.969  1.00  0.00     0.044 A 
HETATM    4  C   UNL     1     -21.334  35.069   6.739  1.00  0.00     0.117 A 
HETATM    5  F   UNL     1     -22.224  34.956   7.742  1.00  0.00    -0.206 F 
HETATM    6  C   UNL     1     -21.673  34.632   5.465  1.00  0.00     0.063 A 
HETATM    7  C   UNL     1     -20.761  34.743   4.422  1.00  0.00     0.070 A 
ENDROOT
BRANCH   1   8
HETATM    8  N   UNL     1     -18.627  35.406   3.655  1.00  0.00    -0.284 N 
ATOM      9  HN  UNL     1     -18.058  34.601   3.395  1.00  0.00     0.178 HD
BRANCH   8  10
HETATM   10  S   UNL     1     -18.456  36.815   2.850  1.00  0.00     0.227 S 
HETATM   11  O   UNL     1     -19.490  37.793   3.324  1.00  0.00    -0.206 OA
HETATM   12  O   UNL     1     -18.626  36.575   1.380  1.00  0.00    -0.206 OA
HETATM   13  C   UNL     1     -16.833  37.480   3.156  1.00  0.00     0.186 C 
ENDBRANCH   8  10
ENDBRANCH   1   8
BRANCH   7  14
HETATM   14  C   UNL     1     -21.156  34.251   3.032  1.00  0.00     0.211 C 
HETATM   15  O   UNL     1     -20.886  33.065   2.743  1.00  0.00    -0.644 OA
HETATM   16  O   UNL     1     -21.692  35.066   2.250  1.00  0.00    -0.644 OA
ENDBRANCH   7  14
TORSDOF 3
ENDMDL
MODEL 7
REMARK VINA RESULT:    -5.874      2.931      3.403
REMARK INTER + INTRA:          -7.358
REMARK INTER:                  -6.883
REMARK INTRA:                  -0.475
REMARK UNBOUND:                -0.454
REMARK  3 active torsions:
REMARK  status: ('A' for Active; 'I' for Inactive)
REMARK    1  A    between atoms: S_2  and  N_5 
REMARK    2  A    between atoms: N_5  and  C_7 
REMARK    3  A    between atoms: C_13  and  C_14 
ROOT
HETATM    1  C   UNL     1     -18.878  34.021   4.299  1.00  0.00     0.059 A 
HETATM    2  C   UNL     1     -18.507  33.149   3.281  1.00  0.00     0.034 A 
HETATM    3  C   UNL     1     -17.790  31.994   3.576  1.00  0.00     0.044 A 
HETATM    4  C   UNL     1     -17.454  31.701   4.893  1.00  0.00     0.117 A 
HETATM    5  F   UNL     1     -16.763  30.584   5.188  1.00  0.00    -0.206 F 
HETATM    6  C   UNL     1     -17.830  32.567   5.911  1.00  0.00     0.063 A 
HETATM    7  C   UNL     1     -18.545  33.723   5.618  1.00  0.00     0.070 A 
ENDROOT
BRANCH   1   8
HETATM    8  N   UNL     1     -19.568  35.123   4.014  1.00  0.00    -0.284 N 
ATOM      9  HN  UNL     1     -20.538  35.208   4.316  1.00  0.00     0.178 HD
BRANCH   8  10
HETATM   10  S   UNL     1     -18.868  36.340   3.181  1.00  0.00     0.227 S 
HETATM   11  O   UNL     1     -19.547  37.634   3.517  1.00  0.00    -0.206 OA
HETATM   12  O   UNL     1     -18.989  36.074   1.711  1.00  0.00    -0.206 OA
HETATM   13  C   UNL     1     -17.146  36.447   3.622  1.00  0.00     0.186 C 
ENDBRANCH   8  10
ENDBRANCH   1   8
BRANCH   7  14
HETATM   14  C   UNL     1     -18.950  34.656   6.756  1.00  0.00     0.211 C 
HETATM   15  O   UNL     1     -18.563  35.843   6.692  1.00  0.00    -0.644 OA
HETATM   16  O   UNL     1     -19.610  34.176   7.702  1.00  0.00    -0.644 OA
ENDBRANCH   7  14
TORSDOF 3
ENDMDL
MODEL 8
REMARK VINA RESULT:    -5.870      3.452      4.389
REMARK INTER + INTRA:          -7.354
REMARK INTER:                  -6.806
REMARK INTRA:                  -0.547
REMARK UNBOUND:                -0.454
REMARK  3 active torsions:
REMARK  status: ('A' for Active; 'I' for Inactive)
REMARK    1  A    between atoms: S_2  and  N_5 
REMARK    2  A    between atoms: N_5  and  C_7 
REMARK    3  A    between atoms: C_13  and  C_14 
ROOT
HETATM    1  C   UNL     1     -20.589  34.332   4.364  1.00  0.00     0.059 A 
HETATM    2  C   UNL     1     -20.463  34.632   3.012  1.00  0.00     0.034 A 
HETATM    3  C   UNL     1     -20.000  35.882   2.614  1.00  0.00     0.044 A 
HETATM    4  C   UNL     1     -19.648  36.830   3.568  1.00  0.00     0.117 A 
HETATM    5  F   UNL     1     -19.196  38.041   3.192  1.00  0.00    -0.206 F 
HETATM    6  C   UNL     1     -19.766  36.528   4.918  1.00  0.00     0.063 A 
HETATM    7  C   UNL     1     -20.230  35.280   5.318  1.00  0.00     0.070 A 
ENDROOT
BRANCH   1   8
HETATM    8  N   UNL     1     -21.028  33.133   4.742  1.00  0.00    -0.284 N 
ATOM      9  HN  UNL     1     -20.389  32.475   5.188  1.00  0.00     0.178 HD
BRANCH   8  10
HETATM   10  S   UNL     1     -22.585  32.711   4.493  1.00  0.00     0.227 S 
HETATM   11  O   UNL     1     -22.679  31.832   3.282  1.00  0.00    -0.206 OA
HETATM   12  O   UNL     1     -23.410  33.945   4.285  1.00  0.00    -0.206 OA
HETATM   13  C   UNL     1     -23.194  31.826   5.913  1.00  0.00     0.186 C 
ENDBRANCH   8  10
ENDBRANCH   1   8
BRANCH   7  14
HETATM   14  C   UNL     1     -20.347  34.972   6.808  1.00  0.00     0.211 C 
HETATM   15  O   UNL     1     -19.285  34.788   7.442  1.00  0.00    -0.644 OA
HETATM   16  O   UNL     1     -21.491  34.883   7.303  1.00  0.00    -0.644 OA
ENDBRANCH   7  14
TORSDOF 3
ENDMDL
MODEL 9
REMARK VINA RESULT:    -5.817      3.511      4.710
REMARK INTER + INTRA:          -7.292
REMARK INTER:                  -6.718
REMARK INTRA:                  -0.574
REMARK UNBOUND:                -0.454
REMARK  3 active torsions:
REMARK  status: ('A' for Active; 'I' for Inactive)
REMARK    1  A    between atoms: S_2  and  N_5 
REMARK    2  A    between atoms: N_5  and  C_7 
REMARK    3  A    between atoms: C_13  and  C_14 
ROOT
HETATM    1  C   UNL     1     -18.997  34.589   4.742  1.00  0.00     0.059 A 
HETATM    2  C   UNL     1     -17.646  34.442   4.447  1.00  0.00     0.034 A 
HETATM    3  C   UNL     1     -16.916  35.518   3.954  1.00  0.00     0.044 A 
HETATM    4  C   UNL     1     -17.534  36.750   3.767  1.00  0.00     0.117 A 
HETATM    5  F   UNL     1     -16.836  37.799   3.292  1.00  0.00    -0.206 F 
HETATM    6  C   UNL     1     -18.881  36.900   4.067  1.00  0.00     0.063 A 
HETATM    7  C   UNL     1     -19.612  35.824   4.559  1.00  0.00     0.070 A 
ENDROOT
BRANCH   1   8
HETATM    8  N   UNL     1     -19.691  33.557   5.218  1.00  0.00    -0.284 N 
ATOM      9  HN  UNL     1     -19.830  33.460   6.224  1.00  0.00     0.178 HD
BRANCH   8  10
HETATM   10  S   UNL     1     -20.320  32.448   4.200  1.00  0.00     0.227 S 
HETATM   11  O   UNL     1     -20.330  32.997   2.804  1.00  0.00    -0.206 OA
HETATM   12  O   UNL     1     -21.720  32.119   4.622  1.00  0.00    -0.206 OA
HETATM   13  C   UNL     1     -19.326  30.971   4.244  1.00  0.00     0.186 C 
ENDBRANCH   8  10
ENDBRANCH   1   8
BRANCH   7  14
HETATM   14  C   UNL     1     -21.091  36.017   4.886  1.00  0.00     0.211 C 
HETATM   15  O   UNL     1     -21.383  36.348   6.055  1.00  0.00    -0.644 OA
HETATM   16  O   UNL     1     -21.926  35.797   3.982  1.00  0.00    -0.644 OA
ENDBRANCH   7  14
TORSDOF 3
ENDMDL
MODEL 10
REMARK VINA RESULT:    -5.804      3.603      4.758
REMARK INTER + INTRA:          -7.276
REMARK INTER:                  -6.730
REMARK INTRA:                  -0.545
REMARK UNBOUND:                -0.454
REMARK  3 active torsions:
REMARK  status: ('A' for Active; 'I' for Inactive)
REMARK    1  A    between atoms: S_2  and  N_5 
REMARK    2  A    between atoms: N_5  and  C_7 
REMARK    3  A    between atoms: C_13  and  C_14 
ROOT
HETATM    1  C   UNL     1     -19.627  33.705   5.115  1.00  0.00     0.059 A 
HETATM    2  C   UNL     1     -18.543  32.881   4.834  1.00  0.00     0.034 A 
HETATM    3  C   UNL     1     -17.308  33.434   4.516  1.00  0.00     0.044 A 
HETATM    4  C   UNL     1     -17.150  34.816   4.492  1.00  0.00     0.117 A 
HETATM    5  F   UNL     1     -15.957  35.361   4.188  1.00  0.00    -0.206 F 
HETATM    6  C   UNL     1     -18.230  35.640   4.780  1.00  0.00     0.063 A 
HETATM    7  C   UNL     1     -19.466  35.087   5.096  1.00  0.00     0.070 A 
ENDROOT
BRANCH   1   8
HETATM    8  N   UNL     1     -20.807  33.171   5.423  1.00  0.00    -0.284 N 
ATOM      9  HN  UNL     1     -21.065  33.039   6.401  1.00  0.00     0.178 HD
BRANCH   8  10
HETATM   10  S   UNL     1     -21.842  32.724   4.243  1.00  0.00     0.227 S 
HETATM   11  O   UNL     1     -22.095  31.248   4.329  1.00  0.00    -0.206 OA
HETATM   12  O   UNL     1     -21.250  33.057   2.907  1.00  0.00    -0.206 OA
HETATM   13  C   UNL     1     -23.381  33.598   4.442  1.00  0.00     0.186 C 
ENDBRANCH   8  10
ENDBRANCH   1   8
BRANCH   7  14
HETATM   14  C   UNL     1     -20.636  36.015   5.413  1.00  0.00     0.211 C 
HETATM   15  O   UNL     1     -21.073  36.728   4.485  1.00  0.00    -0.644 OA
HETATM   16  O   UNL     1     -21.066  36.038   6.587  1.00  0.00    -0.644 OA
ENDBRANCH   7  14
TORSDOF 3
ENDMDL
MODEL 11
REMARK VINA RESULT:    -5.778      1.663      3.332
REMARK INTER + INTRA:          -7.245
REMARK INTER:                  -6.729
REMARK INTRA:                  -0.516
REMARK UNBOUND:                -0.454
REMARK  3 active torsions:
REMARK  status: ('A' for Active; 'I' for Inactive)
REMARK    1  A    between atoms: S_2  and  N_5 
REMARK    2  A    between atoms: N_5  and  C_7 
REMARK    3  A    between atoms: C_13  and  C_14 
ROOT
HETATM    1  C   UNL     1     -20.502  34.255   4.598  1.00  0.00     0.059 A 
HETATM    2  C   UNL     1     -21.088  34.051   5.843  1.00  0.00     0.034 A 
HETATM    3  C   UNL     1     -22.385  33.558   5.932  1.00  0.00     0.044 A 
HETATM    4  C   UNL     1     -23.095  33.253   4.775  1.00  0.00     0.117 A 
HETATM    5  F   UNL     1     -24.350  32.772   4.852  1.00  0.00    -0.206 F 
HETATM    6  C   UNL     1     -22.508  33.450   3.533  1.00  0.00     0.063 A 
HETATM    7  C   UNL     1     -21.212  33.945   3.442  1.00  0.00     0.070 A 
ENDROOT
BRANCH   1   8
HETATM    8  N   UNL     1     -19.258  34.724   4.517  1.00  0.00    -0.284 N 
ATOM      9  HN  UNL     1     -18.495  34.098   4.261  1.00  0.00     0.178 HD
BRANCH   8  10
HETATM   10  S   UNL     1     -18.949  36.296   4.827  1.00  0.00     0.227 S 
HETATM   11  O   UNL     1     -18.695  36.478   6.294  1.00  0.00    -0.206 OA
HETATM   12  O   UNL     1     -20.125  37.127   4.413  1.00  0.00    -0.206 OA
HETATM   13  C   UNL     1     -17.511  36.809   3.911  1.00  0.00     0.186 C 
ENDBRANCH   8  10
ENDBRANCH   1   8
BRANCH   7  14
HETATM   14  C   UNL     1     -20.588  34.148   2.064  1.00  0.00     0.211 C 
HETATM   15  O   UNL     1     -21.307  34.653   1.175  1.00  0.00    -0.644 OA
HETATM   16  O   UNL     1     -19.410  33.765   1.890  1.00  0.00    -0.644 OA
ENDBRANCH   7  14
TORSDOF 3
ENDMDL
MODEL 12
REMARK VINA RESULT:    -5.695      2.698      3.629
REMARK INTER + INTRA:          -7.148
REMARK INTER:                  -6.770
REMARK INTRA:                  -0.378
REMARK UNBOUND:                -0.454
REMARK  3 active torsions:
REMARK  status: ('A' for Active; 'I' for Inactive)
REMARK    1  A    between atoms: S_2  and  N_5 
REMARK    2  A    between atoms: N_5  and  C_7 
REMARK    3  A    between atoms: C_13  and  C_14 
ROOT
HETATM    1  C   UNL     1     -20.409  33.659   4.607  1.00  0.00     0.059 A 
HETATM    2  C   UNL     1     -20.400  32.494   3.847  1.00  0.00     0.034 A 
HETATM    3  C   UNL     1     -20.819  32.522   2.521  1.00  0.00     0.044 A 
HETATM    4  C   UNL     1     -21.234  33.718   1.947  1.00  0.00     0.117 A 
HETATM    5  F   UNL     1     -21.638  33.755   0.663  1.00  0.00    -0.206 F 
HETATM    6  C   UNL     1     -21.237  34.883   2.703  1.00  0.00     0.063 A 
HETATM    7  C   UNL     1     -20.821  34.857   4.030  1.00  0.00     0.070 A 
ENDROOT
BRANCH   1   8
HETATM    8  N   UNL     1     -20.004  33.629   5.875  1.00  0.00    -0.284 N 
ATOM      9  HN  UNL     1     -20.677  33.444   6.619  1.00  0.00     0.178 HD
BRANCH   8  10
HETATM   10  S   UNL     1     -18.436  33.888   6.244  1.00  0.00     0.227 S 
HETATM   11  O   UNL     1     -17.848  32.644   6.839  1.00  0.00    -0.206 OA
HETATM   12  O   UNL     1     -18.333  35.014   7.229  1.00  0.00    -0.206 OA
HETATM   13  C   UNL     1     -17.541  34.314   4.765  1.00  0.00     0.186 C 
ENDBRANCH   8  10
ENDBRANCH   1   8
BRANCH   7  14
HETATM   14  C   UNL     1     -20.828  36.152   4.837  1.00  0.00     0.211 C 
HETATM   15  O   UNL     1     -21.453  36.151   5.920  1.00  0.00    -0.644 OA
HETATM   16  O   UNL     1     -20.245  37.148   4.356  1.00  0.00    -0.644 OA
ENDBRANCH   7  14
TORSDOF 3
ENDMDL
MODEL 13
REMARK VINA RESULT:    -5.679      2.134      3.212
REMARK INTER + INTRA:          -7.129
REMARK INTER:                  -6.579
REMARK INTRA:                  -0.550
REMARK UNBOUND:                -0.454
REMARK  3 active torsions:
REMARK  status: ('A' for Active; 'I' for Inactive)
REMARK    1  A    between atoms: S_2  and  N_5 
REMARK    2  A    between atoms: N_5  and  C_7 
REMARK    3  A    between atoms: C_13  and  C_14 
ROOT
HETATM    1  C   UNL     1     -20.470  33.429   4.066  1.00  0.00     0.059 A 
HETATM    2  C   UNL     1     -21.015  32.166   4.274  1.00  0.00     0.034 A 
HETATM    3  C   UNL     1     -22.375  32.023   4.525  1.00  0.00     0.044 A 
HETATM    4  C   UNL     1     -23.198  33.144   4.556  1.00  0.00     0.117 A 
HETATM    5  F   UNL     1     -24.516  33.016   4.796  1.00  0.00    -0.206 F 
HETATM    6  C   UNL     1     -22.657  34.405   4.342  1.00  0.00     0.063 A 
HETATM    7  C   UNL     1     -21.296  34.549   4.092  1.00  0.00     0.070 A 
ENDROOT
BRANCH   1   8
HETATM    8  N   UNL     1     -19.168  33.560   3.821  1.00  0.00    -0.284 N 
ATOM      9  HN  UNL     1     -18.835  33.610   2.858  1.00  0.00     0.178 HD
BRANCH   8  10
HETATM   10  S   UNL     1     -18.103  33.642   5.054  1.00  0.00     0.227 S 
HETATM   11  O   UNL     1     -18.811  34.081   6.301  1.00  0.00    -0.206 OA
HETATM   12  O   UNL     1     -17.022  34.624   4.716  1.00  0.00    -0.206 OA
HETATM   13  C   UNL     1     -17.380  32.037   5.321  1.00  0.00     0.186 C 
ENDBRANCH   8  10
ENDBRANCH   1   8
BRANCH   7  14
HETATM   14  C   UNL     1     -20.728  35.945   3.854  1.00  0.00     0.211 C 
HETATM   15  O   UNL     1     -20.160  36.157   2.761  1.00  0.00    -0.644 OA
HETATM   16  O   UNL     1     -20.825  36.784   4.776  1.00  0.00    -0.644 OA
ENDBRANCH   7  14
TORSDOF 3
ENDMDL
MODEL 14
REMARK VINA RESULT:    -5.664      3.178      3.986
REMARK INTER + INTRA:          -7.111
REMARK INTER:                  -6.541
REMARK INTRA:                  -0.570
REMARK UNBOUND:                -0.454
REMARK  3 active torsions:
REMARK  status: ('A' for Active; 'I' for Inactive)
REMARK    1  A    between atoms: S_2  and  N_5 
REMARK    2  A    between atoms: N_5  and  C_7 
REMARK    3  A    between atoms: C_13  and  C_14 
ROOT
HETATM    1  C   UNL     1     -20.070  33.686   4.438  1.00  0.00     0.059 A 
HETATM    2  C   UNL     1     -20.562  34.230   3.257  1.00  0.00     0.034 A 
HETATM    3  C   UNL     1     -20.456  35.596   3.018  1.00  0.00     0.044 A 
HETATM    4  C   UNL     1     -19.845  36.420   3.957  1.00  0.00     0.117 A 
HETATM    5  F   UNL     1     -19.736  37.744   3.733  1.00  0.00    -0.206 F 
HETATM    6  C   UNL     1     -19.347  35.878   5.134  1.00  0.00     0.063 A 
HETATM    7  C   UNL     1     -19.453  34.512   5.374  1.00  0.00     0.070 A 
ENDROOT
BRANCH   1   8
HETATM    8  N   UNL     1     -20.168  32.377   4.661  1.00  0.00    -0.284 N 
ATOM      9  HN  UNL     1     -20.863  32.025   5.320  1.00  0.00     0.178 HD
BRANCH   8  10
HETATM   10  S   UNL     1     -19.183  31.334   3.885  1.00  0.00     0.227 S 
HETATM   11  O   UNL     1     -18.838  30.195   4.798  1.00  0.00    -0.206 OA
HETATM   12  O   UNL     1     -17.929  32.044   3.471  1.00  0.00    -0.206 OA
HETATM   13  C   UNL     1     -20.008  30.701   2.439  1.00  0.00     0.186 C 
ENDBRANCH   8  10
ENDBRANCH   1   8
BRANCH   7  14
HETATM   14  C   UNL     1     -18.894  33.940   6.673  1.00  0.00     0.211 C 
HETATM   15  O   UNL     1     -17.869  33.229   6.594  1.00  0.00    -0.644 OA
HETATM   16  O   UNL     1     -19.509  34.181   7.735  1.00  0.00    -0.644 OA
ENDBRANCH   7  14
TORSDOF 3
ENDMDL
MODEL 15
REMARK VINA RESULT:    -5.599      2.298      3.199
REMARK INTER + INTRA:          -7.035
REMARK INTER:                  -6.604
REMARK INTRA:                  -0.431
REMARK UNBOUND:                -0.454
REMARK  3 active torsions:
REMARK  status: ('A' for Active; 'I' for Inactive)
REMARK    1  A    between atoms: S_2  and  N_5 
REMARK    2  A    between atoms: N_5  and  C_7 
REMARK    3  A    between atoms: C_13  and  C_14 
ROOT
HETATM    1  C   UNL     1     -20.383  35.518   4.192  1.00  0.00     0.059 A 
HETATM    2  C   UNL     1     -21.485  35.036   4.889  1.00  0.00     0.034 A 
HETATM    3  C   UNL     1     -21.362  34.668   6.225  1.00  0.00     0.044 A 
HETATM    4  C   UNL     1     -20.136  34.794   6.870  1.00  0.00     0.117 A 
HETATM    5  F   UNL     1     -20.007  34.443   8.163  1.00  0.00    -0.206 F 
HETATM    6  C   UNL     1     -19.037  35.281   6.177  1.00  0.00     0.063 A 
HETATM    7  C   UNL     1     -19.159  35.648   4.841  1.00  0.00     0.070 A 
ENDROOT
BRANCH   1   8
HETATM    8  N   UNL     1     -20.507  35.874   2.915  1.00  0.00    -0.284 N 
ATOM      9  HN  UNL     1     -20.773  36.829   2.677  1.00  0.00     0.178 HD
BRANCH   8  10
HETATM   10  S   UNL     1     -20.235  34.788   1.728  1.00  0.00     0.227 S 
HETATM   11  O   UNL     1     -19.169  35.306   0.808  1.00  0.00    -0.206 OA
HETATM   12  O   UNL     1     -21.500  34.563   0.956  1.00  0.00    -0.206 OA
HETATM   13  C   UNL     1     -19.698  33.248   2.444  1.00  0.00     0.186 C 
ENDBRANCH   8  10
ENDBRANCH   1   8
BRANCH   7  14
HETATM   14  C   UNL     1     -17.936  36.186   4.103  1.00  0.00     0.211 C 
HETATM   15  O   UNL     1     -18.020  37.331   3.608  1.00  0.00    -0.644 OA
HETATM   16  O   UNL     1     -16.937  35.441   4.000  1.00  0.00    -0.644 OA
ENDBRANCH   7  14
TORSDOF 3
ENDMDL
MODEL 16
REMARK VINA RESULT:    -5.581      2.748      3.749
REMARK INTER + INTRA:          -7.014
REMARK INTER:                  -6.449
REMARK INTRA:                  -0.565
REMARK UNBOUND:                -0.454
REMARK  3 active torsions:
REMARK  status: ('A' for Active; 'I' for Inactive)
REMARK    1  A    between atoms: S_2  and  N_5 
REMARK    2  A    between atoms: N_5  and  C_7 
REMARK    3  A    between atoms: C_13  and  C_14 
ROOT
HETATM    1  C   UNL     1     -19.126  34.636   4.926  1.00  0.00     0.059 A 
HETATM    2  C   UNL     1     -19.342  34.114   6.197  1.00  0.00     0.034 A 
HETATM    3  C   UNL     1     -20.361  34.619   6.996  1.00  0.00     0.044 A 
HETATM    4  C   UNL     1     -21.178  35.639   6.520  1.00  0.00     0.117 A 
HETATM    5  F   UNL     1     -22.170  36.132   7.286  1.00  0.00    -0.206 F 
HETATM    6  C   UNL     1     -20.968  36.156   5.249  1.00  0.00     0.063 A 
HETATM    7  C   UNL     1     -19.948  35.653   4.449  1.00  0.00     0.070 A 
ENDROOT
BRANCH   1   8
HETATM    8  N   UNL     1     -18.151  34.147   4.162  1.00  0.00    -0.284 N 
ATOM      9  HN  UNL     1     -17.305  34.695   4.005  1.00  0.00     0.178 HD
BRANCH   8  10
HETATM   10  S   UNL     1     -18.305  32.675   3.475  1.00  0.00     0.227 S 
HETATM   11  O   UNL     1     -17.614  32.668   2.143  1.00  0.00    -0.206 OA
HETATM   12  O   UNL     1     -19.758  32.359   3.289  1.00  0.00    -0.206 OA
HETATM   13  C   UNL     1     -17.562  31.447   4.530  1.00  0.00     0.186 C 
ENDBRANCH   8  10
ENDBRANCH   1   8
BRANCH   7  14
HETATM   14  C   UNL     1     -19.742  36.235   3.053  1.00  0.00     0.211 C 
HETATM   15  O   UNL     1     -19.331  37.414   2.977  1.00  0.00    -0.644 OA
HETATM   16  O   UNL     1     -20.029  35.520   2.070  1.00  0.00    -0.644 OA
ENDBRANCH   7  14
TORSDOF 3
ENDMDL
MODEL 17
REMARK VINA RESULT:    -5.542      3.580      4.920
REMARK INTER + INTRA:          -6.968
REMARK INTER:                  -6.487
REMARK INTRA:                  -0.480
REMARK UNBOUND:                -0.454
REMARK  3 active torsions:
REMARK  status: ('A' for Active; 'I' for Inactive)
REMARK    1  A    between atoms: S_2  and  N_5 
REMARK    2  A    between atoms: N_5  and  C_7 
REMARK    3  A    between atoms: C_13  and  C_14 
ROOT
HETATM    1  C   UNL     1     -20.822  34.147   4.987  1.00  0.00     0.059 A 
HETATM    2  C   UNL     1     -21.250  35.290   5.652  1.00  0.00     0.034 A 
HETATM    3  C   UNL     1     -20.871  36.548   5.197  1.00  0.00     0.044 A 
HETATM    4  C   UNL     1     -20.072  36.666   4.064  1.00  0.00     0.117 A 
HETATM    5  F   UNL     1     -19.702  37.879   3.614  1.00  0.00    -0.206 F 
HETATM    6  C   UNL     1     -19.650  35.525   3.395  1.00  0.00     0.063 A 
HETATM    7  C   UNL     1     -20.027  34.267   3.850  1.00  0.00     0.070 A 
ENDROOT
BRANCH   1   8
HETATM    8  N   UNL     1     -21.191  32.944   5.424  1.00  0.00    -0.284 N 
ATOM      9  HN  UNL     1     -20.543  32.384   5.977  1.00  0.00     0.178 HD
BRANCH   8  10
HETATM   10  S   UNL     1     -22.676  32.363   5.077  1.00  0.00     0.227 S 
HETATM   11  O   UNL     1     -23.442  33.383   4.288  1.00  0.00    -0.206 OA
HETATM   12  O   UNL     1     -23.404  32.062   6.352  1.00  0.00    -0.206 OA
HETATM   13  C   UNL     1     -22.521  30.871   4.118  1.00  0.00     0.186 C 
ENDBRANCH   8  10
ENDBRANCH   1   8
BRANCH   7  14
HETATM   14  C   UNL     1     -19.553  33.029   3.093  1.00  0.00     0.211 C 
HETATM   15  O   UNL     1     -18.883  32.187   3.729  1.00  0.00    -0.644 OA
HETATM   16  O   UNL     1     -19.828  32.943   1.877  1.00  0.00    -0.644 OA
ENDBRANCH   7  14
TORSDOF 3
ENDMDL
MODEL 18
REMARK VINA RESULT:    -5.491      3.515      4.532
REMARK INTER + INTRA:          -6.908
REMARK INTER:                  -6.399
REMARK INTRA:                  -0.509
REMARK UNBOUND:                -0.454
REMARK  3 active torsions:
REMARK  status: ('A' for Active; 'I' for Inactive)
REMARK    1  A    between atoms: S_2  and  N_5 
REMARK    2  A    between atoms: N_5  and  C_7 
REMARK    3  A    between atoms: C_13  and  C_14 
ROOT
HETATM    1  C   UNL     1     -19.524  34.161   4.815  1.00  0.00     0.059 A 
HETATM    2  C   UNL     1     -18.527  35.049   5.205  1.00  0.00     0.034 A 
HETATM    3  C   UNL     1     -18.549  36.366   4.758  1.00  0.00     0.044 A 
HETATM    4  C   UNL     1     -19.577  36.802   3.929  1.00  0.00     0.117 A 
HETATM    5  F   UNL     1     -19.608  38.075   3.494  1.00  0.00    -0.206 F 
HETATM    6  C   UNL     1     -20.576  35.918   3.544  1.00  0.00     0.063 A 
HETATM    7  C   UNL     1     -20.555  34.601   3.989  1.00  0.00     0.070 A 
ENDROOT
BRANCH   1   8
HETATM    8  N   UNL     1     -19.501  32.903   5.248  1.00  0.00    -0.284 N 
ATOM      9  HN  UNL     1     -20.220  32.575   5.894  1.00  0.00     0.178 HD
BRANCH   8  10
HETATM   10  S   UNL     1     -18.329  31.882   4.752  1.00  0.00     0.227 S 
HETATM   11  O   UNL     1     -18.861  30.479   4.732  1.00  0.00    -0.206 OA
HETATM   12  O   UNL     1     -17.164  31.965   5.691  1.00  0.00    -0.206 OA
HETATM   13  C   UNL     1     -17.802  32.335   3.113  1.00  0.00     0.186 C 
ENDBRANCH   8  10
ENDBRANCH   1   8
BRANCH   7  14
HETATM   14  C   UNL     1     -21.668  33.651   3.556  1.00  0.00     0.211 C 
HETATM   15  O   UNL     1     -21.342  32.658   2.869  1.00  0.00    -0.644 OA
HETATM   16  O   UNL     1     -22.842  33.937   3.876  1.00  0.00    -0.644 OA
ENDBRANCH   7  14
TORSDOF 3
ENDMDL
MODEL 19
REMARK VINA RESULT:    -5.472      1.984      2.584
REMARK INTER + INTRA:          -6.886
REMARK INTER:                  -6.361
REMARK INTRA:                  -0.526
REMARK UNBOUND:                -0.454
REMARK  3 active torsions:
REMARK  status: ('A' for Active; 'I' for Inactive)
REMARK    1  A    between atoms: S_2  and  N_5 
REMARK    2  A    between atoms: N_5  and  C_7 
REMARK    3  A    between atoms: C_13  and  C_14 
ROOT
HETATM    1  C   UNL     1     -20.082  34.480   3.412  1.00  0.00     0.059 A 
HETATM    2  C   UNL     1     -21.135  35.372   3.242  1.00  0.00     0.034 A 
HETATM    3  C   UNL     1     -22.421  35.020   3.637  1.00  0.00     0.044 A 
HETATM    4  C   UNL     1     -22.654  33.779   4.218  1.00  0.00     0.117 A 
HETATM    5  F   UNL     1     -23.896  33.430   4.607  1.00  0.00    -0.206 F 
HETATM    6  C   UNL     1     -21.603  32.889   4.395  1.00  0.00     0.063 A 
HETATM    7  C   UNL     1     -20.317  33.239   3.999  1.00  0.00     0.070 A 
ENDROOT
BRANCH   1   8
HETATM    8  N   UNL     1     -18.851  34.822   3.037  1.00  0.00    -0.284 N 
ATOM      9  HN  UNL     1     -18.492  34.514   2.133  1.00  0.00     0.178 HD
BRANCH   8  10
HETATM   10  S   UNL     1     -17.915  35.732   4.015  1.00  0.00     0.227 S 
HETATM   11  O   UNL     1     -16.649  34.992   4.329  1.00  0.00    -0.206 OA
HETATM   12  O   UNL     1     -18.655  36.023   5.286  1.00  0.00    -0.206 OA
HETATM   13  C   UNL     1     -17.516  37.263   3.199  1.00  0.00     0.186 C 
ENDBRANCH   8  10
ENDBRANCH   1   8
BRANCH   7  14
HETATM   14  C   UNL     1     -19.178  32.246   4.209  1.00  0.00     0.211 C 
HETATM   15  O   UNL     1     -18.528  32.332   5.273  1.00  0.00    -0.644 OA
HETATM   16  O   UNL     1     -18.933  31.429   3.294  1.00  0.00    -0.644 OA
ENDBRANCH   7  14
TORSDOF 3
ENDMDL
MODEL 20
REMARK VINA RESULT:    -5.459      3.582      4.358
REMARK INTER + INTRA:          -6.870
REMARK INTER:                  -6.327
REMARK INTRA:                  -0.543
REMARK UNBOUND:                -0.454
REMARK  3 active torsions:
REMARK  status: ('A' for Active; 'I' for Inactive)
REMARK    1  A    between atoms: S_2  and  N_5 
REMARK    2  A    between atoms: N_5  and  C_7 
REMARK    3  A    between atoms: C_13  and  C_14 
ROOT
HETATM    1  C   UNL     1     -19.617  34.085   4.781  1.00  0.00     0.059 A 
HETATM    2  C   UNL     1     -18.409  34.730   4.534  1.00  0.00     0.034 A 
HETATM    3  C   UNL     1     -18.397  36.058   4.122  1.00  0.00     0.044 A 
HETATM    4  C   UNL     1     -19.594  36.749   3.968  1.00  0.00     0.117 A 
HETATM    5  F   UNL     1     -19.593  38.036   3.572  1.00  0.00    -0.206 F 
HETATM    6  C   UNL     1     -20.800  36.109   4.221  1.00  0.00     0.063 A 
HETATM    7  C   UNL     1     -20.813  34.780   4.632  1.00  0.00     0.070 A 
ENDROOT
BRANCH   1   8
HETATM    8  N   UNL     1     -19.624  32.815   5.180  1.00  0.00    -0.284 N 
ATOM      9  HN  UNL     1     -19.728  32.594   6.171  1.00  0.00     0.178 HD
BRANCH   8  10
HETATM   10  S   UNL     1     -19.465  31.609   4.092  1.00  0.00     0.227 S 
HETATM   11  O   UNL     1     -19.630  32.159   2.707  1.00  0.00    -0.206 OA
HETATM   12  O   UNL     1     -20.510  30.566   4.347  1.00  0.00    -0.206 OA
HETATM   13  C   UNL     1     -17.849  30.878   4.248  1.00  0.00     0.186 C 
ENDBRANCH   8  10
ENDBRANCH   1   8
BRANCH   7  14
HETATM   14  C   UNL     1     -22.152  34.101   4.909  1.00  0.00     0.211 C 
HETATM   15  O   UNL     1     -22.338  33.643   6.057  1.00  0.00    -0.644 OA
HETATM   16  O   UNL     1     -22.968  34.006   3.967  1.00  0.00    -0.644 OA
ENDBRANCH   7  14
TORSDOF 3
ENDMDL
