MODEL 1
REMARK VINA RESULT:    -7.240      0.000      0.000
REMARK INTER + INTRA:          -8.765
REMARK INTER:                  -8.510
REMARK INTRA:                  -0.255
REMARK UNBOUND:                -0.255
REMARK  5 active torsions:
REMARK  status: ('A' for Active; 'I' for Inactive)
REMARK    1  A    between atoms: C_2  and  O_8 
REMARK    2  A    between atoms: C_3  and  O_10 
REMARK    3  A    between atoms: C_4  and  O_12 
REMARK    4  A    between atoms: C_5  and  C_6 
REMARK    5  A    between atoms: C_6  and  O_15 
ROOT
HETATM    1  C   UNL     1      57.157  66.836  61.926  1.00  0.00     0.338 C 
HETATM    2  C   UNL     1      56.491  66.663  60.566  1.00  0.00     0.209 C 
HETATM    3  C   UNL     1      57.528  66.239  59.518  1.00  0.00     0.183 C 
HETATM    4  C   UNL     1      58.618  67.298  59.453  1.00  0.00     0.180 C 
HETATM    5  C   UNL     1      59.207  67.569  60.842  1.00  0.00     0.179 C 
HETATM    6  F   UNL     1      57.661  65.633  62.331  1.00  0.00    -0.217 F 
HETATM    7  O   UNL     1      58.191  67.800  61.838  1.00  0.00    -0.344 OA
ENDROOT
BRANCH   5   8
HETATM    8  C   UNL     1      60.164  68.748  60.822  1.00  0.00     0.198 C 
BRANCH   8   9
HETATM    9  O   UNL     1      59.903  69.580  59.680  1.00  0.00    -0.398 OA
ATOM     10  HO  UNL     1      59.282  69.156  59.100  1.00  0.00     0.209 HD
ENDBRANCH   8   9
ENDBRANCH   5   8
BRANCH   4  11
HETATM   11  O   UNL     1      59.650  66.893  58.547  1.00  0.00    -0.390 OA
ATOM     12  HO  UNL     1      59.286  66.357  57.853  1.00  0.00     0.210 HD
ENDBRANCH   4  11
BRANCH   3  13
HETATM   13  O   UNL     1      56.949  66.121  58.217  1.00  0.00    -0.390 OA
ATOM     14  HO  UNL     1      57.156  65.287  57.814  1.00  0.00     0.210 HD
ENDBRANCH   3  13
BRANCH   2  15
HETATM   15  O   UNL     1      55.423  65.716  60.666  1.00  0.00    -0.388 OA
ATOM     16  HO  UNL     1      55.777  64.837  60.742  1.00  0.00     0.210 HD
ENDBRANCH   2  15
TORSDOF 5
ENDMDL
MODEL 2
REMARK VINA RESULT:    -6.517      1.475      3.695
REMARK INTER + INTRA:          -7.915
REMARK INTER:                  -7.662
REMARK INTRA:                  -0.253
REMARK UNBOUND:                -0.255
REMARK  5 active torsions:
REMARK  status: ('A' for Active; 'I' for Inactive)
REMARK    1  A    between atoms: C_2  and  O_8 
REMARK    2  A    between atoms: C_3  and  O_10 
REMARK    3  A    between atoms: C_4  and  O_12 
REMARK    4  A    between atoms: C_5  and  C_6 
REMARK    5  A    between atoms: C_6  and  O_15 
ROOT
HETATM    1  C   UNL     1      58.598  67.787  61.783  1.00  0.00     0.338 C 
HETATM    2  C   UNL     1      59.550  67.215  60.740  1.00  0.00     0.209 C 
HETATM    3  C   UNL     1      58.793  66.918  59.438  1.00  0.00     0.183 C 
HETATM    4  C   UNL     1      57.671  65.936  59.740  1.00  0.00     0.180 C 
HETATM    5  C   UNL     1      56.781  66.448  60.878  1.00  0.00     0.179 C 
HETATM    6  F   UNL     1      58.104  68.978  61.331  1.00  0.00    -0.217 F 
HETATM    7  O   UNL     1      57.542  66.875  62.025  1.00  0.00    -0.344 OA
ENDROOT
BRANCH   5   8
HETATM    8  C   UNL     1      55.770  65.399  61.310  1.00  0.00     0.198 C 
BRANCH   8   9
HETATM    9  O   UNL     1      56.253  64.084  60.994  1.00  0.00    -0.398 OA
ATOM     10  HO  UNL     1      56.481  63.618  61.790  1.00  0.00     0.209 HD
ENDBRANCH   8   9
ENDBRANCH   5   8
BRANCH   4  11
HETATM   11  O   UNL     1      56.887  65.702  58.564  1.00  0.00    -0.390 OA
ATOM     12  HO  UNL     1      55.969  65.619  58.793  1.00  0.00     0.210 HD
ENDBRANCH   4  11
BRANCH   3  13
HETATM   13  O   UNL     1      59.644  66.327  58.454  1.00  0.00    -0.390 OA
ATOM     14  HO  UNL     1      60.322  65.793  58.851  1.00  0.00     0.210 HD
ENDBRANCH   3  13
BRANCH   2  15
HETATM   15  O   UNL     1      60.635  68.123  60.525  1.00  0.00    -0.388 OA
ATOM     16  HO  UNL     1      61.119  68.244  61.333  1.00  0.00     0.210 HD
ENDBRANCH   2  15
TORSDOF 5
ENDMDL
MODEL 3
REMARK VINA RESULT:    -5.372      1.650      2.666
REMARK INTER + INTRA:          -6.570
REMARK INTER:                  -6.331
REMARK INTRA:                  -0.239
REMARK UNBOUND:                -0.255
REMARK  5 active torsions:
REMARK  status: ('A' for Active; 'I' for Inactive)
REMARK    1  A    between atoms: C_2  and  O_8 
REMARK    2  A    between atoms: C_3  and  O_10 
REMARK    3  A    between atoms: C_4  and  O_12 
REMARK    4  A    between atoms: C_5  and  C_6 
REMARK    5  A    between atoms: C_6  and  O_15 
ROOT
HETATM    1  C   UNL     1      57.297  66.674  59.019  1.00  0.00     0.338 C 
HETATM    2  C   UNL     1      57.393  65.646  60.140  1.00  0.00     0.209 C 
HETATM    3  C   UNL     1      57.582  66.352  61.490  1.00  0.00     0.183 C 
HETATM    4  C   UNL     1      58.844  67.199  61.426  1.00  0.00     0.180 C 
HETATM    5  C   UNL     1      58.809  68.149  60.223  1.00  0.00     0.179 C 
HETATM    6  F   UNL     1      56.191  67.449  59.219  1.00  0.00    -0.217 F 
HETATM    7  O   UNL     1      58.465  67.475  58.997  1.00  0.00    -0.344 OA
ENDROOT
BRANCH   5   8
HETATM    8  C   UNL     1      60.135  68.869  60.043  1.00  0.00     0.198 C 
BRANCH   8   9
HETATM    9  O   UNL     1      60.275  69.905  61.028  1.00  0.00    -0.398 OA
ATOM     10  HO  UNL     1      59.486  69.969  61.552  1.00  0.00     0.209 HD
ENDBRANCH   8   9
ENDBRANCH   5   8
BRANCH   4  11
HETATM   11  O   UNL     1      59.005  67.942  62.640  1.00  0.00    -0.390 OA
ATOM     12  HO  UNL     1      59.896  68.260  62.714  1.00  0.00     0.210 HD
ENDBRANCH   4  11
BRANCH   3  13
HETATM   13  O   UNL     1      57.732  65.416  62.559  1.00  0.00    -0.390 OA
ATOM     14  HO  UNL     1      56.892  65.117  62.885  1.00  0.00     0.210 HD
ENDBRANCH   3  13
BRANCH   2  15
HETATM   15  O   UNL     1      56.229  64.814  60.137  1.00  0.00    -0.388 OA
ATOM     16  HO  UNL     1      56.424  63.989  59.708  1.00  0.00     0.210 HD
ENDBRANCH   2  15
TORSDOF 5
ENDMDL
MODEL 4
REMARK VINA RESULT:    -5.120      1.850      4.350
REMARK INTER + INTRA:          -6.274
REMARK INTER:                  -6.030
REMARK INTRA:                  -0.244
REMARK UNBOUND:                -0.255
REMARK  5 active torsions:
REMARK  status: ('A' for Active; 'I' for Inactive)
REMARK    1  A    between atoms: C_2  and  O_8 
REMARK    2  A    between atoms: C_3  and  O_10 
REMARK    3  A    between atoms: C_4  and  O_12 
REMARK    4  A    between atoms: C_5  and  C_6 
REMARK    5  A    between atoms: C_6  and  O_15 
ROOT
HETATM    1  C   UNL     1      57.749  67.560  59.180  1.00  0.00     0.338 C 
HETATM    2  C   UNL     1      58.518  68.155  60.354  1.00  0.00     0.209 C 
HETATM    3  C   UNL     1      58.941  67.046  61.327  1.00  0.00     0.183 C 
HETATM    4  C   UNL     1      57.696  66.321  61.812  1.00  0.00     0.180 C 
HETATM    5  C   UNL     1      56.850  65.828  60.632  1.00  0.00     0.179 C 
HETATM    6  F   UNL     1      58.572  66.719  58.488  1.00  0.00    -0.217 F 
HETATM    7  O   UNL     1      56.612  66.859  59.654  1.00  0.00    -0.344 OA
ENDROOT
BRANCH   5   8
HETATM    8  C   UNL     1      55.518  65.264  61.098  1.00  0.00     0.198 C 
BRANCH   8   9
HETATM    9  O   UNL     1      55.669  63.889  61.484  1.00  0.00    -0.398 OA
ATOM     10  HO  UNL     1      56.203  63.825  62.268  1.00  0.00     0.209 HD
ENDBRANCH   8   9
ENDBRANCH   5   8
BRANCH   4  11
HETATM   11  O   UNL     1      58.059  65.221  62.655  1.00  0.00    -0.390 OA
ATOM     12  HO  UNL     1      57.961  65.462  63.568  1.00  0.00     0.210 HD
ENDBRANCH   4  11
BRANCH   3  13
HETATM   13  O   UNL     1      59.618  67.575  62.469  1.00  0.00    -0.390 OA
ATOM     14  HO  UNL     1      59.921  66.886  63.048  1.00  0.00     0.210 HD
ENDBRANCH   3  13
BRANCH   2  15
HETATM   15  O   UNL     1      59.645  68.893  59.870  1.00  0.00    -0.388 OA
ATOM     16  HO  UNL     1      59.587  68.987  58.926  1.00  0.00     0.210 HD
ENDBRANCH   2  15
TORSDOF 5
ENDMDL
MODEL 5
REMARK VINA RESULT:    -5.022      1.838      3.193
REMARK INTER + INTRA:          -6.159
REMARK INTER:                  -5.905
REMARK INTRA:                  -0.254
REMARK UNBOUND:                -0.255
REMARK  5 active torsions:
REMARK  status: ('A' for Active; 'I' for Inactive)
REMARK    1  A    between atoms: C_2  and  O_8 
REMARK    2  A    between atoms: C_3  and  O_10 
REMARK    3  A    between atoms: C_4  and  O_12 
REMARK    4  A    between atoms: C_5  and  C_6 
REMARK    5  A    between atoms: C_6  and  O_15 
ROOT
HETATM    1  C   UNL     1      56.335  64.865  61.027  1.00  0.00     0.338 C 
HETATM    2  C   UNL     1      57.659  65.117  61.738  1.00  0.00     0.209 C 
HETATM    3  C   UNL     1      57.911  66.625  61.869  1.00  0.00     0.183 C 
HETATM    4  C   UNL     1      57.920  67.242  60.479  1.00  0.00     0.180 C 
HETATM    5  C   UNL     1      56.643  66.886  59.710  1.00  0.00     0.179 C 
HETATM    6  F   UNL     1      55.319  65.372  61.786  1.00  0.00    -0.217 F 
HETATM    7  O   UNL     1      56.348  65.476  59.749  1.00  0.00    -0.344 OA
ENDROOT
BRANCH   5   8
HETATM    8  C   UNL     1      56.718  67.341  58.262  1.00  0.00     0.198 C 
BRANCH   8   9
HETATM    9  O   UNL     1      58.089  67.449  57.846  1.00  0.00    -0.398 OA
ATOM     10  HO  UNL     1      58.213  68.233  57.324  1.00  0.00     0.209 HD
ENDBRANCH   8   9
ENDBRANCH   5   8
BRANCH   4  11
HETATM   11  O   UNL     1      58.066  68.664  60.567  1.00  0.00    -0.390 OA
ATOM     12  HO  UNL     1      58.908  68.885  60.946  1.00  0.00     0.210 HD
ENDBRANCH   4  11
BRANCH   3  13
HETATM   13  O   UNL     1      59.173  66.899  62.482  1.00  0.00    -0.390 OA
ATOM     14  HO  UNL     1      59.282  66.416  63.292  1.00  0.00     0.210 HD
ENDBRANCH   3  13
BRANCH   2  15
HETATM   15  O   UNL     1      57.656  64.468  63.013  1.00  0.00    -0.388 OA
ATOM     16  HO  UNL     1      57.182  63.647  62.956  1.00  0.00     0.210 HD
ENDBRANCH   2  15
TORSDOF 5
ENDMDL
MODEL 6
REMARK VINA RESULT:    -4.482      7.871      9.298
REMARK INTER + INTRA:          -5.523
REMARK INTER:                  -5.326
REMARK INTRA:                  -0.197
REMARK UNBOUND:                -0.255
REMARK  5 active torsions:
REMARK  status: ('A' for Active; 'I' for Inactive)
REMARK    1  A    between atoms: C_2  and  O_8 
REMARK    2  A    between atoms: C_3  and  O_10 
REMARK    3  A    between atoms: C_4  and  O_12 
REMARK    4  A    between atoms: C_5  and  C_6 
REMARK    5  A    between atoms: C_6  and  O_15 
ROOT
HETATM    1  C   UNL     1      51.670  69.246  64.041  1.00  0.00     0.338 C 
HETATM    2  C   UNL     1      52.068  70.507  64.799  1.00  0.00     0.209 C 
HETATM    3  C   UNL     1      52.914  70.141  66.027  1.00  0.00     0.183 C 
HETATM    4  C   UNL     1      52.105  69.210  66.917  1.00  0.00     0.180 C 
HETATM    5  C   UNL     1      51.594  68.000  66.129  1.00  0.00     0.179 C 
HETATM    6  F   UNL     1      52.797  68.630  63.577  1.00  0.00    -0.217 F 
HETATM    7  O   UNL     1      50.949  68.376  64.896  1.00  0.00    -0.344 OA
ENDROOT
BRANCH   5   8
HETATM    8  C   UNL     1      50.637  67.159  66.957  1.00  0.00     0.198 C 
BRANCH   8   9
HETATM    9  O   UNL     1      51.336  66.054  67.553  1.00  0.00    -0.398 OA
ATOM     10  HO  UNL     1      50.810  65.667  68.243  1.00  0.00     0.209 HD
ENDBRANCH   8   9
ENDBRANCH   5   8
BRANCH   4  11
HETATM   11  O   UNL     1      52.896  68.778  68.030  1.00  0.00    -0.390 OA
ATOM     12  HO  UNL     1      52.503  68.014  68.436  1.00  0.00     0.210 HD
ENDBRANCH   4  11
BRANCH   3  13
HETATM   13  O   UNL     1      53.259  71.296  66.794  1.00  0.00    -0.390 OA
ATOM     14  HO  UNL     1      53.866  71.859  66.328  1.00  0.00     0.210 HD
ENDBRANCH   3  13
BRANCH   2  15
HETATM   15  O   UNL     1      52.765  71.399  63.924  1.00  0.00    -0.388 OA
ATOM     16  HO  UNL     1      53.532  70.967  63.567  1.00  0.00     0.210 HD
ENDBRANCH   2  15
TORSDOF 5
ENDMDL
MODEL 7
REMARK VINA RESULT:    -4.379      7.574      8.534
REMARK INTER + INTRA:          -5.402
REMARK INTER:                  -5.166
REMARK INTRA:                  -0.236
REMARK UNBOUND:                -0.255
REMARK  5 active torsions:
REMARK  status: ('A' for Active; 'I' for Inactive)
REMARK    1  A    between atoms: C_2  and  O_8 
REMARK    2  A    between atoms: C_3  and  O_10 
REMARK    3  A    between atoms: C_4  and  O_12 
REMARK    4  A    between atoms: C_5  and  C_6 
REMARK    5  A    between atoms: C_6  and  O_15 
ROOT
HETATM    1  C   UNL     1      52.014  68.537  63.815  1.00  0.00     0.338 C 
HETATM    2  C   UNL     1      50.639  69.161  63.607  1.00  0.00     0.209 C 
HETATM    3  C   UNL     1      50.746  70.692  63.610  1.00  0.00     0.183 C 
HETATM    4  C   UNL     1      51.345  71.137  64.936  1.00  0.00     0.180 C 
HETATM    5  C   UNL     1      52.670  70.417  65.211  1.00  0.00     0.179 C 
HETATM    6  F   UNL     1      52.821  68.880  62.768  1.00  0.00    -0.217 F 
HETATM    7  O   UNL     1      52.570  68.990  65.036  1.00  0.00    -0.344 OA
ENDROOT
BRANCH   5   8
HETATM    8  C   UNL     1      53.186  70.715  66.609  1.00  0.00     0.198 C 
BRANCH   8   9
HETATM    9  O   UNL     1      54.001  71.897  66.596  1.00  0.00    -0.398 OA
ATOM     10  HO  UNL     1      54.908  71.668  66.429  1.00  0.00     0.209 HD
ENDBRANCH   8   9
ENDBRANCH   5   8
BRANCH   4  11
HETATM   11  O   UNL     1      51.541  72.555  64.940  1.00  0.00    -0.390 OA
ATOM     12  HO  UNL     1      51.172  72.941  64.154  1.00  0.00     0.210 HD
ENDBRANCH   4  11
BRANCH   3  13
HETATM   13  O   UNL     1      49.466  71.312  63.474  1.00  0.00    -0.390 OA
ATOM     14  HO  UNL     1      49.263  71.503  62.566  1.00  0.00     0.210 HD
ENDBRANCH   3  13
BRANCH   2  15
HETATM   15  O   UNL     1      50.064  68.673  62.391  1.00  0.00    -0.388 OA
ATOM     16  HO  UNL     1      50.459  69.116  61.648  1.00  0.00     0.210 HD
ENDBRANCH   2  15
TORSDOF 5
ENDMDL
MODEL 8
REMARK VINA RESULT:    -4.275      7.914      8.990
REMARK INTER + INTRA:          -5.281
REMARK INTER:                  -5.247
REMARK INTRA:                  -0.034
REMARK UNBOUND:                -0.255
REMARK  5 active torsions:
REMARK  status: ('A' for Active; 'I' for Inactive)
REMARK    1  A    between atoms: C_2  and  O_8 
REMARK    2  A    between atoms: C_3  and  O_10 
REMARK    3  A    between atoms: C_4  and  O_12 
REMARK    4  A    between atoms: C_5  and  C_6 
REMARK    5  A    between atoms: C_6  and  O_15 
ROOT
HETATM    1  C   UNL     1      51.239  68.122  66.535  1.00  0.00     0.338 C 
HETATM    2  C   UNL     1      52.467  68.908  66.981  1.00  0.00     0.209 C 
HETATM    3  C   UNL     1      52.513  70.267  66.269  1.00  0.00     0.183 C 
HETATM    4  C   UNL     1      52.541  70.030  64.767  1.00  0.00     0.180 C 
HETATM    5  C   UNL     1      51.377  69.134  64.328  1.00  0.00     0.179 C 
HETATM    6  F   UNL     1      50.116  68.803  66.908  1.00  0.00    -0.217 F 
HETATM    7  O   UNL     1      51.265  67.942  65.130  1.00  0.00    -0.344 OA
ENDROOT
BRANCH   5   8
HETATM    8  C   UNL     1      51.495  68.743  62.865  1.00  0.00     0.198 C 
BRANCH   8   9
HETATM    9  O   UNL     1      50.190  68.591  62.284  1.00  0.00    -0.398 OA
ATOM     10  HO  UNL     1      49.657  69.354  62.472  1.00  0.00     0.209 HD
ENDBRANCH   8   9
ENDBRANCH   5   8
BRANCH   4  11
HETATM   11  O   UNL     1      52.495  71.279  64.067  1.00  0.00    -0.390 OA
ATOM     12  HO  UNL     1      52.159  71.962  64.635  1.00  0.00     0.210 HD
ENDBRANCH   4  11
BRANCH   3  13
HETATM   13  O   UNL     1      53.683  71.009  66.621  1.00  0.00    -0.390 OA
ATOM     14  HO  UNL     1      54.243  70.521  67.213  1.00  0.00     0.210 HD
ENDBRANCH   3  13
BRANCH   2  15
HETATM   15  O   UNL     1      52.458  69.056  68.404  1.00  0.00    -0.388 OA
ATOM     16  HO  UNL     1      53.309  68.825  68.757  1.00  0.00     0.210 HD
ENDBRANCH   2  15
TORSDOF 5
ENDMDL
MODEL 9
REMARK VINA RESULT:    -4.260      9.885     10.662
REMARK INTER + INTRA:          -5.262
REMARK INTER:                  -5.072
REMARK INTRA:                  -0.190
REMARK UNBOUND:                -0.255
REMARK  5 active torsions:
REMARK  status: ('A' for Active; 'I' for Inactive)
REMARK    1  A    between atoms: C_2  and  O_8 
REMARK    2  A    between atoms: C_3  and  O_10 
REMARK    3  A    between atoms: C_4  and  O_12 
REMARK    4  A    between atoms: C_5  and  C_6 
REMARK    5  A    between atoms: C_6  and  O_15 
ROOT
HETATM    1  C   UNL     1      53.211  70.547  68.292  1.00  0.00     0.338 C 
HETATM    2  C   UNL     1      53.790  69.453  69.182  1.00  0.00     0.209 C 
HETATM    3  C   UNL     1      54.418  70.071  70.439  1.00  0.00     0.183 C 
HETATM    4  C   UNL     1      55.502  71.049  70.012  1.00  0.00     0.180 C 
HETATM    5  C   UNL     1      54.955  72.078  69.017  1.00  0.00     0.179 C 
HETATM    6  F   UNL     1      52.207  71.184  68.964  1.00  0.00    -0.217 F 
HETATM    7  O   UNL     1      54.227  71.467  67.934  1.00  0.00    -0.344 OA
ENDROOT
BRANCH   5   8
HETATM    8  C   UNL     1      56.065  72.946  68.446  1.00  0.00     0.198 C 
BRANCH   8   9
HETATM    9  O   UNL     1      57.239  72.154  68.203  1.00  0.00    -0.398 OA
ATOM     10  HO  UNL     1      57.314  71.955  67.278  1.00  0.00     0.209 HD
ENDBRANCH   8   9
ENDBRANCH   5   8
BRANCH   4  11
HETATM   11  O   UNL     1      56.051  71.711  71.158  1.00  0.00    -0.390 OA
ATOM     12  HO  UNL     1      56.461  72.527  70.900  1.00  0.00     0.210 HD
ENDBRANCH   4  11
BRANCH   3  13
HETATM   13  O   UNL     1      55.021  69.078  71.271  1.00  0.00    -0.390 OA
ATOM     14  HO  UNL     1      54.801  68.199  70.985  1.00  0.00     0.210 HD
ENDBRANCH   3  13
BRANCH   2  15
HETATM   15  O   UNL     1      52.770  68.506  69.511  1.00  0.00    -0.388 OA
ATOM     16  HO  UNL     1      52.194  68.870  70.173  1.00  0.00     0.210 HD
ENDBRANCH   2  15
TORSDOF 5
ENDMDL
MODEL 10
REMARK VINA RESULT:    -4.248      7.837      9.400
REMARK INTER + INTRA:          -5.249
REMARK INTER:                  -5.005
REMARK INTRA:                  -0.244
REMARK UNBOUND:                -0.255
REMARK  5 active torsions:
REMARK  status: ('A' for Active; 'I' for Inactive)
REMARK    1  A    between atoms: C_2  and  O_8 
REMARK    2  A    between atoms: C_3  and  O_10 
REMARK    3  A    between atoms: C_4  and  O_12 
REMARK    4  A    between atoms: C_5  and  C_6 
REMARK    5  A    between atoms: C_6  and  O_15 
ROOT
HETATM    1  C   UNL     1      52.448  69.702  66.244  1.00  0.00     0.338 C 
HETATM    2  C   UNL     1      52.241  71.207  66.120  1.00  0.00     0.209 C 
HETATM    3  C   UNL     1      50.910  71.502  65.413  1.00  0.00     0.183 C 
HETATM    4  C   UNL     1      50.931  70.846  64.041  1.00  0.00     0.180 C 
HETATM    5  C   UNL     1      51.264  69.354  64.148  1.00  0.00     0.179 C 
HETATM    6  F   UNL     1      51.459  69.179  67.027  1.00  0.00    -0.217 F 
HETATM    7  O   UNL     1      52.429  69.105  64.960  1.00  0.00    -0.344 OA
ENDROOT
BRANCH   5   8
HETATM    8  C   UNL     1      51.466  68.727  62.779  1.00  0.00     0.198 C 
BRANCH   8   9
HETATM    9  O   UNL     1      50.196  68.467  62.160  1.00  0.00    -0.398 OA
ATOM     10  HO  UNL     1      50.145  67.559  61.886  1.00  0.00     0.209 HD
ENDBRANCH   8   9
ENDBRANCH   5   8
BRANCH   4  11
HETATM   11  O   UNL     1      49.669  71.025  63.387  1.00  0.00    -0.390 OA
ATOM     12  HO  UNL     1      49.014  71.314  64.011  1.00  0.00     0.210 HD
ENDBRANCH   4  11
BRANCH   3  13
HETATM   13  O   UNL     1      50.708  72.904  65.229  1.00  0.00    -0.390 OA
ATOM     14  HO  UNL     1      50.633  73.130  64.310  1.00  0.00     0.210 HD
ENDBRANCH   3  13
BRANCH   2  15
HETATM   15  O   UNL     1      52.297  71.813  67.415  1.00  0.00    -0.388 OA
ATOM     16  HO  UNL     1      52.291  72.759  67.329  1.00  0.00     0.210 HD
ENDBRANCH   2  15
TORSDOF 5
ENDMDL
