MODEL 1
REMARK VINA RESULT:    -7.609      0.000      0.000
REMARK INTER + INTRA:         -14.298
REMARK INTER:                 -12.947
REMARK INTRA:                  -1.352
REMARK UNBOUND:                -1.352
REMARK  12 active torsions:
REMARK  status: ('A' for Active; 'I' for Inactive)
REMARK    1  A    between atoms: C_1  and  C_2 
REMARK    2  A    between atoms: C_3  and  S_36 
REMARK    3  A    between atoms: C_7  and  N_30 
REMARK    4  A    between atoms: C_9  and  C_10 
REMARK    5  A    between atoms: C_9  and  N_25 
REMARK    6  A    between atoms: C_10  and  C_11 
REMARK    7  A    between atoms: C_11  and  O_35 
REMARK    8  A    between atoms: C_12  and  O_35 
REMARK    9  A    between atoms: C_15  and  N_30 
REMARK   10  A    between atoms: C_15  and  C_16 
REMARK   11  A    between atoms: C_16  and  C_17 
REMARK   12  A    between atoms: C_17  and  N_32 
ROOT
HETATM    1  C   UNL     1      -7.763   3.562   3.532  1.00  0.00     0.048 A 
HETATM    2  C   UNL     1      -6.430   2.936   5.294  1.00  0.00     0.204 A 
HETATM    3  C   UNL     1      -5.524   4.372   3.824  1.00  0.00     0.105 A 
HETATM    4  C   UNL     1      -6.707   4.370   3.087  1.00  0.00     0.078 A 
HETATM    5  N   UNL     1      -7.600   2.853   4.665  1.00  0.00    -0.332 N 
ATOM      6  HN  UNL     1      -8.352   2.269   5.030  1.00  0.00     0.168 HD
HETATM    7  N   UNL     1      -5.399   3.674   4.932  1.00  0.00    -0.319 N 
ATOM      8  HN  UNL     1      -4.543   3.702   5.486  1.00  0.00     0.169 HD
ENDROOT
BRANCH   1   9
HETATM    9  C   UNL     1      -9.036   3.540   2.880  1.00  0.00    -0.009 A 
HETATM   10  C   UNL     1      -9.672   2.356   2.508  1.00  0.00     0.016 A 
HETATM   11  C   UNL     1     -10.864   2.369   1.810  1.00  0.00     0.037 A 
HETATM   12  C   UNL     1     -11.443   3.565   1.437  1.00  0.00     0.068 A 
HETATM   13  C   UNL     1     -10.838   4.753   1.781  1.00  0.00     0.037 A 
HETATM   14  C   UNL     1      -9.645   4.735   2.488  1.00  0.00     0.016 A 
BRANCH  12  15
HETATM   15  O   UNL     1     -12.628   3.497   0.718  1.00  0.00    -0.351 OA
BRANCH  15  16
HETATM   16  C   UNL     1     -12.871   2.359  -0.061  1.00  0.00     0.177 C 
BRANCH  16  17
HETATM   17  C   UNL     1     -14.143   1.703   0.469  1.00  0.00     0.057 C 
BRANCH  17  18
HETATM   18  C   UNL     1     -14.259   0.280  -0.061  1.00  0.00     0.273 C 
BRANCH  18  19
HETATM   19  N   UNL     1     -13.279  -0.637   0.514  1.00  0.00     0.080 N 
HETATM   20  C   UNL     1     -13.529  -0.835   1.934  1.00  0.00     0.309 C 
HETATM   21  C   UNL     1     -13.325  -1.926  -0.175  1.00  0.00     0.309 C 
ENDBRANCH  18  19
ENDBRANCH  17  18
ENDBRANCH  16  17
ENDBRANCH  15  16
ENDBRANCH  12  15
ENDBRANCH   1   9
BRANCH   2  22
HETATM   22  S   UNL     1      -6.226   1.986   6.808  1.00  0.00     0.203 S 
HETATM   23  C   UNL     1      -4.490   1.962   7.091  1.00  0.00     0.170 C 
HETATM   24  O   UNL     1      -6.926   2.671   7.906  1.00  0.00    -0.220 OA
HETATM   25  O   UNL     1      -6.707   0.657   6.570  1.00  0.00    -0.220 OA
ENDBRANCH   2  22
BRANCH   3  26
HETATM   26  N   UNL     1      -4.392   5.129   3.470  1.00  0.00    -0.376 N 
ATOM     27  HN  UNL     1      -3.464   4.755   3.669  1.00  0.00     0.161 HD
BRANCH  26  28
HETATM   28  C   UNL     1      -4.506   6.423   2.832  1.00  0.00     0.123 C 
BRANCH  28  29
HETATM   29  C   UNL     1      -3.635   6.589   1.594  1.00  0.00     0.041 C 
BRANCH  29  30
HETATM   30  C   UNL     1      -4.012   5.586   0.507  1.00  0.00     0.150 C 
BRANCH  30  31
HETATM   31  N   UNL     1      -4.734   6.290  -0.537  1.00  0.00    -0.304 N 
HETATM   32  N   UNL     1      -4.197   7.151  -1.443  1.00  0.00    -0.310 N 
HETATM   33  C   UNL     1      -5.174   7.541  -2.241  1.00  0.00     0.108 A 
ATOM     34  HN  UNL     1      -3.221   7.442  -1.496  1.00  0.00     0.186 HD
HETATM   35  C   UNL     1      -6.342   6.932  -1.828  1.00  0.00     0.037 A 
HETATM   36  C   UNL     1      -6.031   6.147  -0.748  1.00  0.00     0.111 A 
ENDBRANCH  30  31
ENDBRANCH  29  30
ENDBRANCH  28  29
ENDBRANCH  26  28
ENDBRANCH   3  26
TORSDOF 12
ENDMDL
MODEL 2
REMARK VINA RESULT:    -7.554      1.906      2.402
REMARK INTER + INTRA:         -14.205
REMARK INTER:                 -12.788
REMARK INTRA:                  -1.417
REMARK UNBOUND:                -1.352
REMARK  12 active torsions:
REMARK  status: ('A' for Active; 'I' for Inactive)
REMARK    1  A    between atoms: C_1  and  C_2 
REMARK    2  A    between atoms: C_3  and  S_36 
REMARK    3  A    between atoms: C_7  and  N_30 
REMARK    4  A    between atoms: C_9  and  C_10 
REMARK    5  A    between atoms: C_9  and  N_25 
REMARK    6  A    between atoms: C_10  and  C_11 
REMARK    7  A    between atoms: C_11  and  O_35 
REMARK    8  A    between atoms: C_12  and  O_35 
REMARK    9  A    between atoms: C_15  and  N_30 
REMARK   10  A    between atoms: C_15  and  C_16 
REMARK   11  A    between atoms: C_16  and  C_17 
REMARK   12  A    between atoms: C_17  and  N_32 
ROOT
HETATM    1  C   UNL     1      -7.713   3.547   3.536  1.00  0.00     0.048 A 
HETATM    2  C   UNL     1      -6.361   2.873   5.263  1.00  0.00     0.204 A 
HETATM    3  C   UNL     1      -5.495   4.399   3.862  1.00  0.00     0.105 A 
HETATM    4  C   UNL     1      -6.679   4.402   3.127  1.00  0.00     0.078 A 
HETATM    5  N   UNL     1      -7.530   2.790   4.633  1.00  0.00    -0.332 N 
ATOM      6  HN  UNL     1      -8.266   2.170   4.971  1.00  0.00     0.168 HD
HETATM    7  N   UNL     1      -5.350   3.653   4.935  1.00  0.00    -0.319 N 
ATOM      8  HN  UNL     1      -4.493   3.676   5.489  1.00  0.00     0.169 HD
ENDROOT
BRANCH   1   9
HETATM    9  C   UNL     1      -8.988   3.524   2.884  1.00  0.00    -0.009 A 
HETATM   10  C   UNL     1      -9.651   2.339   2.569  1.00  0.00     0.016 A 
HETATM   11  C   UNL     1     -10.844   2.346   1.872  1.00  0.00     0.037 A 
HETATM   12  C   UNL     1     -11.395   3.536   1.442  1.00  0.00     0.068 A 
HETATM   13  C   UNL     1     -10.762   4.725   1.730  1.00  0.00     0.037 A 
HETATM   14  C   UNL     1      -9.569   4.713   2.436  1.00  0.00     0.016 A 
BRANCH  12  15
HETATM   15  O   UNL     1     -12.582   3.462   0.727  1.00  0.00    -0.351 OA
BRANCH  15  16
HETATM   16  C   UNL     1     -13.746   3.081   1.406  1.00  0.00     0.177 C 
BRANCH  16  17
HETATM   17  C   UNL     1     -14.267   4.310   2.148  1.00  0.00     0.057 C 
BRANCH  17  18
HETATM   18  C   UNL     1     -14.488   3.979   3.618  1.00  0.00     0.273 C 
BRANCH  18  19
HETATM   19  N   UNL     1     -15.847   4.254   4.077  1.00  0.00     0.080 N 
HETATM   20  C   UNL     1     -16.515   5.186   3.181  1.00  0.00     0.309 C 
HETATM   21  C   UNL     1     -16.617   3.013   4.154  1.00  0.00     0.309 C 
ENDBRANCH  18  19
ENDBRANCH  17  18
ENDBRANCH  16  17
ENDBRANCH  15  16
ENDBRANCH  12  15
ENDBRANCH   1   9
BRANCH   2  22
HETATM   22  S   UNL     1      -6.128   1.858   6.730  1.00  0.00     0.203 S 
HETATM   23  C   UNL     1      -4.420   2.014   7.118  1.00  0.00     0.170 C 
HETATM   24  O   UNL     1      -6.963   2.386   7.820  1.00  0.00    -0.220 OA
HETATM   25  O   UNL     1      -6.435   0.500   6.387  1.00  0.00    -0.220 OA
ENDBRANCH   2  22
BRANCH   3  26
HETATM   26  N   UNL     1      -4.384   5.200   3.543  1.00  0.00    -0.376 N 
ATOM     27  HN  UNL     1      -3.454   4.897   3.835  1.00  0.00     0.161 HD
BRANCH  26  28
HETATM   28  C   UNL     1      -4.520   6.442   2.811  1.00  0.00     0.123 C 
BRANCH  28  29
HETATM   29  C   UNL     1      -3.611   6.553   1.593  1.00  0.00     0.041 C 
BRANCH  29  30
HETATM   30  C   UNL     1      -3.997   5.546   0.514  1.00  0.00     0.150 C 
BRANCH  30  31
HETATM   31  N   UNL     1      -4.736   6.244  -0.522  1.00  0.00    -0.304 N 
HETATM   32  N   UNL     1      -4.218   7.117  -1.427  1.00  0.00    -0.310 N 
HETATM   33  C   UNL     1      -5.206   7.496  -2.217  1.00  0.00     0.108 A 
ATOM     34  HN  UNL     1      -3.247   7.422  -1.486  1.00  0.00     0.186 HD
HETATM   35  C   UNL     1      -6.362   6.868  -1.800  1.00  0.00     0.037 A 
HETATM   36  C   UNL     1      -6.032   6.083  -0.726  1.00  0.00     0.111 A 
ENDBRANCH  30  31
ENDBRANCH  29  30
ENDBRANCH  28  29
ENDBRANCH  26  28
ENDBRANCH   3  26
TORSDOF 12
ENDMDL
MODEL 3
REMARK VINA RESULT:    -7.297      2.020      2.847
REMARK INTER + INTRA:         -13.768
REMARK INTER:                 -12.319
REMARK INTRA:                  -1.449
REMARK UNBOUND:                -1.352
REMARK  12 active torsions:
REMARK  status: ('A' for Active; 'I' for Inactive)
REMARK    1  A    between atoms: C_1  and  C_2 
REMARK    2  A    between atoms: C_3  and  S_36 
REMARK    3  A    between atoms: C_7  and  N_30 
REMARK    4  A    between atoms: C_9  and  C_10 
REMARK    5  A    between atoms: C_9  and  N_25 
REMARK    6  A    between atoms: C_10  and  C_11 
REMARK    7  A    between atoms: C_11  and  O_35 
REMARK    8  A    between atoms: C_12  and  O_35 
REMARK    9  A    between atoms: C_15  and  N_30 
REMARK   10  A    between atoms: C_15  and  C_16 
REMARK   11  A    between atoms: C_16  and  C_17 
REMARK   12  A    between atoms: C_17  and  N_32 
ROOT
HETATM    1  C   UNL     1      -6.494   3.375   4.700  1.00  0.00     0.048 A 
HETATM    2  C   UNL     1      -4.562   3.353   5.940  1.00  0.00     0.204 A 
HETATM    3  C   UNL     1      -4.731   4.972   4.394  1.00  0.00     0.105 A 
HETATM    4  C   UNL     1      -5.994   4.504   4.034  1.00  0.00     0.078 A 
HETATM    5  N   UNL     1      -5.751   2.817   5.674  1.00  0.00    -0.332 N 
ATOM      6  HN  UNL     1      -6.090   2.007   6.193  1.00  0.00     0.168 HD
HETATM    7  N   UNL     1      -4.033   4.410   5.356  1.00  0.00    -0.319 N 
ATOM      8  HN  UNL     1      -3.123   4.775   5.637  1.00  0.00     0.169 HD
ENDROOT
BRANCH   1   9
HETATM    9  C   UNL     1      -7.803   2.856   4.446  1.00  0.00    -0.009 A 
HETATM   10  C   UNL     1      -8.585   2.266   5.439  1.00  0.00     0.016 A 
HETATM   11  C   UNL     1      -9.814   1.706   5.148  1.00  0.00     0.037 A 
HETATM   12  C   UNL     1     -10.286   1.691   3.850  1.00  0.00     0.068 A 
HETATM   13  C   UNL     1      -9.536   2.258   2.845  1.00  0.00     0.037 A 
HETATM   14  C   UNL     1      -8.307   2.826   3.143  1.00  0.00     0.016 A 
BRANCH  12  15
HETATM   15  O   UNL     1     -11.517   1.089   3.632  1.00  0.00    -0.351 OA
BRANCH  15  16
HETATM   16  C   UNL     1     -11.891   0.794   2.315  1.00  0.00     0.177 C 
BRANCH  16  17
HETATM   17  C   UNL     1     -13.369   1.147   2.169  1.00  0.00     0.057 C 
BRANCH  17  18
HETATM   18  C   UNL     1     -13.528   2.387   1.299  1.00  0.00     0.273 C 
BRANCH  18  19
HETATM   19  N   UNL     1     -13.112   3.620   1.962  1.00  0.00     0.080 N 
HETATM   20  C   UNL     1     -12.076   4.294   1.194  1.00  0.00     0.309 C 
HETATM   21  C   UNL     1     -14.256   4.516   2.131  1.00  0.00     0.309 C 
ENDBRANCH  18  19
ENDBRANCH  17  18
ENDBRANCH  16  17
ENDBRANCH  15  16
ENDBRANCH  12  15
ENDBRANCH   1   9
BRANCH   2  22
HETATM   22  S   UNL     1      -3.579   2.601   7.246  1.00  0.00     0.203 S 
HETATM   23  C   UNL     1      -2.988   3.955   8.199  1.00  0.00     0.170 C 
HETATM   24  O   UNL     1      -4.441   1.727   8.056  1.00  0.00    -0.220 OA
HETATM   25  O   UNL     1      -2.481   1.909   6.636  1.00  0.00    -0.220 OA
ENDBRANCH   2  22
BRANCH   3  26
HETATM   26  N   UNL     1      -4.118   6.085   3.789  1.00  0.00    -0.376 N 
ATOM     27  HN  UNL     1      -3.316   6.518   4.247  1.00  0.00     0.161 HD
BRANCH  26  28
HETATM   28  C   UNL     1      -4.591   6.634   2.536  1.00  0.00     0.123 C 
BRANCH  28  29
HETATM   29  C   UNL     1      -3.684   6.349   1.346  1.00  0.00     0.041 C 
BRANCH  29  30
HETATM   30  C   UNL     1      -4.288   5.294   0.422  1.00  0.00     0.150 C 
BRANCH  30  31
HETATM   31  N   UNL     1      -5.085   5.969  -0.585  1.00  0.00    -0.304 N 
HETATM   32  N   UNL     1      -6.431   5.863  -0.746  1.00  0.00    -0.310 N 
HETATM   33  C   UNL     1      -6.773   6.663  -1.739  1.00  0.00     0.108 A 
ATOM     34  HN  UNL     1      -7.061   5.275  -0.201  1.00  0.00     0.186 HD
HETATM   35  C   UNL     1      -5.630   7.270  -2.220  1.00  0.00     0.037 A 
HETATM   36  C   UNL     1      -4.580   6.812  -1.470  1.00  0.00     0.111 A 
ENDBRANCH  30  31
ENDBRANCH  29  30
ENDBRANCH  28  29
ENDBRANCH  26  28
ENDBRANCH   3  26
TORSDOF 12
ENDMDL
MODEL 4
REMARK VINA RESULT:    -7.226      3.533      9.182
REMARK INTER + INTRA:         -13.647
REMARK INTER:                 -12.131
REMARK INTRA:                  -1.516
REMARK UNBOUND:                -1.352
REMARK  12 active torsions:
REMARK  status: ('A' for Active; 'I' for Inactive)
REMARK    1  A    between atoms: C_1  and  C_2 
REMARK    2  A    between atoms: C_3  and  S_36 
REMARK    3  A    between atoms: C_7  and  N_30 
REMARK    4  A    between atoms: C_9  and  C_10 
REMARK    5  A    between atoms: C_9  and  N_25 
REMARK    6  A    between atoms: C_10  and  C_11 
REMARK    7  A    between atoms: C_11  and  O_35 
REMARK    8  A    between atoms: C_12  and  O_35 
REMARK    9  A    between atoms: C_15  and  N_30 
REMARK   10  A    between atoms: C_15  and  C_16 
REMARK   11  A    between atoms: C_16  and  C_17 
REMARK   12  A    between atoms: C_17  and  N_32 
ROOT
HETATM    1  C   UNL     1      -5.762   3.928   4.283  1.00  0.00     0.048 A 
HETATM    2  C   UNL     1      -5.619   4.765   2.150  1.00  0.00     0.204 A 
HETATM    3  C   UNL     1      -7.512   3.672   2.662  1.00  0.00     0.105 A 
HETATM    4  C   UNL     1      -7.040   3.450   3.955  1.00  0.00     0.078 A 
HETATM    5  N   UNL     1      -5.066   4.605   3.351  1.00  0.00    -0.332 N 
ATOM      6  HN  UNL     1      -4.142   4.983   3.558  1.00  0.00     0.168 HD
HETATM    7  N   UNL     1      -6.811   4.344   1.776  1.00  0.00    -0.319 N 
ATOM      8  HN  UNL     1      -7.173   4.532   0.841  1.00  0.00     0.169 HD
ENDROOT
BRANCH   1   9
HETATM    9  C   UNL     1      -5.215   3.805   5.600  1.00  0.00    -0.009 A 
HETATM   10  C   UNL     1      -5.636   2.829   6.502  1.00  0.00     0.016 A 
HETATM   11  C   UNL     1      -5.145   2.783   7.792  1.00  0.00     0.037 A 
HETATM   12  C   UNL     1      -4.240   3.729   8.230  1.00  0.00     0.068 A 
HETATM   13  C   UNL     1      -3.809   4.711   7.367  1.00  0.00     0.037 A 
HETATM   14  C   UNL     1      -4.299   4.749   6.071  1.00  0.00     0.016 A 
BRANCH  12  15
HETATM   15  O   UNL     1      -3.810   3.631   9.546  1.00  0.00    -0.351 OA
BRANCH  15  16
HETATM   16  C   UNL     1      -2.439   3.743   9.809  1.00  0.00     0.177 C 
BRANCH  16  17
HETATM   17  C   UNL     1      -1.959   2.388  10.321  1.00  0.00     0.057 C 
BRANCH  17  18
HETATM   18  C   UNL     1      -1.318   1.596   9.190  1.00  0.00     0.273 C 
BRANCH  18  19
HETATM   19  N   UNL     1      -1.058   2.396   7.995  1.00  0.00     0.080 N 
HETATM   20  C   UNL     1       0.361   2.696   7.875  1.00  0.00     0.309 C 
HETATM   21  C   UNL     1      -1.510   1.685   6.799  1.00  0.00     0.309 C 
ENDBRANCH  18  19
ENDBRANCH  17  18
ENDBRANCH  16  17
ENDBRANCH  15  16
ENDBRANCH  12  15
ENDBRANCH   1   9
BRANCH   2  22
HETATM   22  S   UNL     1      -4.681   5.674   0.913  1.00  0.00     0.203 S 
HETATM   23  C   UNL     1      -5.812   5.931  -0.409  1.00  0.00     0.170 C 
HETATM   24  O   UNL     1      -4.243   6.957   1.485  1.00  0.00    -0.220 OA
HETATM   25  O   UNL     1      -3.594   4.845   0.479  1.00  0.00    -0.220 OA
ENDBRANCH   2  22
BRANCH   3  26
HETATM   26  N   UNL     1      -8.769   3.229   2.211  1.00  0.00    -0.376 N 
ATOM     27  HN  UNL     1      -8.870   2.931   1.241  1.00  0.00     0.161 HD
BRANCH  26  28
HETATM   28  C   UNL     1      -9.923   3.184   3.084  1.00  0.00     0.123 C 
BRANCH  28  29
HETATM   29  C   UNL     1     -10.798   4.430   3.029  1.00  0.00     0.041 C 
BRANCH  29  30
HETATM   30  C   UNL     1     -11.048   4.875   1.590  1.00  0.00     0.150 C 
BRANCH  30  31
HETATM   31  N   UNL     1     -11.895   3.889   0.946  1.00  0.00    -0.304 N 
HETATM   32  N   UNL     1     -11.581   3.160  -0.158  1.00  0.00    -0.310 N 
HETATM   33  C   UNL     1     -12.596   2.351  -0.398  1.00  0.00     0.108 A 
ATOM     34  HN  UNL     1     -10.720   3.225  -0.701  1.00  0.00     0.186 HD
HETATM   35  C   UNL     1     -13.568   2.580   0.555  1.00  0.00     0.037 A 
HETATM   36  C   UNL     1     -13.095   3.558   1.390  1.00  0.00     0.111 A 
ENDBRANCH  30  31
ENDBRANCH  29  30
ENDBRANCH  28  29
ENDBRANCH  26  28
ENDBRANCH   3  26
TORSDOF 12
ENDMDL
MODEL 5
REMARK VINA RESULT:    -7.197      4.008      9.820
REMARK INTER + INTRA:         -13.597
REMARK INTER:                 -12.270
REMARK INTRA:                  -1.327
REMARK UNBOUND:                -1.352
REMARK  12 active torsions:
REMARK  status: ('A' for Active; 'I' for Inactive)
REMARK    1  A    between atoms: C_1  and  C_2 
REMARK    2  A    between atoms: C_3  and  S_36 
REMARK    3  A    between atoms: C_7  and  N_30 
REMARK    4  A    between atoms: C_9  and  C_10 
REMARK    5  A    between atoms: C_9  and  N_25 
REMARK    6  A    between atoms: C_10  and  C_11 
REMARK    7  A    between atoms: C_11  and  O_35 
REMARK    8  A    between atoms: C_12  and  O_35 
REMARK    9  A    between atoms: C_15  and  N_30 
REMARK   10  A    between atoms: C_15  and  C_16 
REMARK   11  A    between atoms: C_16  and  C_17 
REMARK   12  A    between atoms: C_17  and  N_32 
ROOT
HETATM    1  C   UNL     1      -5.705   4.001   4.188  1.00  0.00     0.048 A 
HETATM    2  C   UNL     1      -5.708   4.804   2.038  1.00  0.00     0.204 A 
HETATM    3  C   UNL     1      -7.579   3.761   2.710  1.00  0.00     0.105 A 
HETATM    4  C   UNL     1      -7.013   3.547   3.966  1.00  0.00     0.078 A 
HETATM    5  N   UNL     1      -5.069   4.649   3.195  1.00  0.00    -0.332 N 
ATOM      6  HN  UNL     1      -4.124   5.010   3.326  1.00  0.00     0.168 HD
HETATM    7  N   UNL     1      -6.934   4.405   1.763  1.00  0.00    -0.319 N 
ATOM      8  HN  UNL     1      -7.363   4.587   0.855  1.00  0.00     0.169 HD
ENDROOT
BRANCH   1   9
HETATM    9  C   UNL     1      -5.061   3.884   5.461  1.00  0.00    -0.009 A 
HETATM   10  C   UNL     1      -4.160   4.834   5.940  1.00  0.00     0.016 A 
HETATM   11  C   UNL     1      -3.496   4.656   7.138  1.00  0.00     0.037 A 
HETATM   12  C   UNL     1      -3.690   3.509   7.881  1.00  0.00     0.068 A 
HETATM   13  C   UNL     1      -4.568   2.546   7.434  1.00  0.00     0.037 A 
HETATM   14  C   UNL     1      -5.238   2.733   6.234  1.00  0.00     0.016 A 
BRANCH  12  15
HETATM   15  O   UNL     1      -2.971   3.391   9.062  1.00  0.00    -0.351 OA
BRANCH  15  16
HETATM   16  C   UNL     1      -1.576   3.505   9.007  1.00  0.00     0.177 C 
BRANCH  16  17
HETATM   17  C   UNL     1      -1.035   2.219   8.389  1.00  0.00     0.057 C 
BRANCH  17  18
HETATM   18  C   UNL     1       0.254   1.804   9.086  1.00  0.00     0.273 C 
BRANCH  18  19
HETATM   19  N   UNL     1       1.191   2.907   9.279  1.00  0.00     0.080 N 
HETATM   20  C   UNL     1       1.885   2.777  10.552  1.00  0.00     0.309 C 
HETATM   21  C   UNL     1       2.169   2.939   8.191  1.00  0.00     0.309 C 
ENDBRANCH  18  19
ENDBRANCH  17  18
ENDBRANCH  16  17
ENDBRANCH  15  16
ENDBRANCH  12  15
ENDBRANCH   1   9
BRANCH   2  22
HETATM   22  S   UNL     1      -4.849   5.675   0.719  1.00  0.00     0.203 S 
HETATM   23  C   UNL     1      -6.085   5.989  -0.492  1.00  0.00     0.170 C 
HETATM   24  O   UNL     1      -4.302   6.934   1.247  1.00  0.00    -0.220 OA
HETATM   25  O   UNL     1      -3.846   4.800   0.185  1.00  0.00    -0.220 OA
ENDBRANCH   2  22
BRANCH   3  26
HETATM   26  N   UNL     1      -8.876   3.339   2.363  1.00  0.00    -0.376 N 
ATOM     27  HN  UNL     1      -9.044   2.976   1.425  1.00  0.00     0.161 HD
BRANCH  26  28
HETATM   28  C   UNL     1      -9.978   3.405   3.299  1.00  0.00     0.123 C 
BRANCH  28  29
HETATM   29  C   UNL     1     -11.014   4.472   2.971  1.00  0.00     0.041 C 
BRANCH  29  30
HETATM   30  C   UNL     1     -11.053   4.773   1.475  1.00  0.00     0.150 C 
BRANCH  30  31
HETATM   31  N   UNL     1     -11.906   3.792   0.831  1.00  0.00    -0.304 N 
HETATM   32  N   UNL     1     -11.600   3.068  -0.278  1.00  0.00    -0.310 N 
HETATM   33  C   UNL     1     -12.618   2.262  -0.515  1.00  0.00     0.108 A 
ATOM     34  HN  UNL     1     -10.742   3.134  -0.826  1.00  0.00     0.186 HD
HETATM   35  C   UNL     1     -13.584   2.489   0.445  1.00  0.00     0.037 A 
HETATM   36  C   UNL     1     -13.104   3.461   1.282  1.00  0.00     0.111 A 
ENDBRANCH  30  31
ENDBRANCH  29  30
ENDBRANCH  28  29
ENDBRANCH  26  28
ENDBRANCH   3  26
TORSDOF 12
ENDMDL
MODEL 6
REMARK VINA RESULT:    -7.114      3.754      9.288
REMARK INTER + INTRA:         -13.456
REMARK INTER:                 -11.351
REMARK INTRA:                  -2.104
REMARK UNBOUND:                -1.352
REMARK  12 active torsions:
REMARK  status: ('A' for Active; 'I' for Inactive)
REMARK    1  A    between atoms: C_1  and  C_2 
REMARK    2  A    between atoms: C_3  and  S_36 
REMARK    3  A    between atoms: C_7  and  N_30 
REMARK    4  A    between atoms: C_9  and  C_10 
REMARK    5  A    between atoms: C_9  and  N_25 
REMARK    6  A    between atoms: C_10  and  C_11 
REMARK    7  A    between atoms: C_11  and  O_35 
REMARK    8  A    between atoms: C_12  and  O_35 
REMARK    9  A    between atoms: C_15  and  N_30 
REMARK   10  A    between atoms: C_15  and  C_16 
REMARK   11  A    between atoms: C_16  and  C_17 
REMARK   12  A    between atoms: C_17  and  N_32 
ROOT
HETATM    1  C   UNL     1      -5.806   4.141   4.182  1.00  0.00     0.048 A 
HETATM    2  C   UNL     1      -5.641   4.934   2.034  1.00  0.00     0.204 A 
HETATM    3  C   UNL     1      -7.606   4.011   2.603  1.00  0.00     0.105 A 
HETATM    4  C   UNL     1      -7.126   3.768   3.889  1.00  0.00     0.078 A 
HETATM    5  N   UNL     1      -5.077   4.744   3.225  1.00  0.00    -0.332 N 
ATOM      6  HN  UNL     1      -4.120   5.047   3.408  1.00  0.00     0.168 HD
HETATM    7  N   UNL     1      -6.872   4.610   1.692  1.00  0.00    -0.319 N 
ATOM      8  HN  UNL     1      -7.238   4.814   0.762  1.00  0.00     0.169 HD
ENDROOT
BRANCH   1   9
HETATM    9  C   UNL     1      -5.242   3.991   5.489  1.00  0.00    -0.009 A 
HETATM   10  C   UNL     1      -5.800   3.159   6.459  1.00  0.00     0.016 A 
HETATM   11  C   UNL     1      -5.278   3.093   7.736  1.00  0.00     0.037 A 
HETATM   12  C   UNL     1      -4.199   3.878   8.092  1.00  0.00     0.068 A 
HETATM   13  C   UNL     1      -3.628   4.716   7.161  1.00  0.00     0.037 A 
HETATM   14  C   UNL     1      -4.152   4.773   5.878  1.00  0.00     0.016 A 
BRANCH  12  15
HETATM   15  O   UNL     1      -3.745   3.774   9.399  1.00  0.00    -0.351 OA
BRANCH  15  16
HETATM   16  C   UNL     1      -3.597   2.497   9.954  1.00  0.00     0.177 C 
BRANCH  16  17
HETATM   17  C   UNL     1      -2.117   2.131   9.874  1.00  0.00     0.057 C 
BRANCH  17  18
HETATM   18  C   UNL     1      -1.904   1.038   8.836  1.00  0.00     0.273 C 
BRANCH  18  19
HETATM   19  N   UNL     1      -1.016   1.436   7.746  1.00  0.00     0.080 N 
HETATM   20  C   UNL     1      -1.744   1.503   6.488  1.00  0.00     0.309 C 
HETATM   21  C   UNL     1      -0.415   2.739   8.032  1.00  0.00     0.309 C 
ENDBRANCH  18  19
ENDBRANCH  17  18
ENDBRANCH  16  17
ENDBRANCH  15  16
ENDBRANCH  12  15
ENDBRANCH   1   9
BRANCH   2  22
HETATM   22  S   UNL     1      -4.658   5.744   0.764  1.00  0.00     0.203 S 
HETATM   23  C   UNL     1      -5.815   6.187  -0.485  1.00  0.00     0.170 C 
HETATM   24  O   UNL     1      -4.021   6.941   1.335  1.00  0.00    -0.220 OA
HETATM   25  O   UNL     1      -3.717   4.791   0.251  1.00  0.00    -0.220 OA
ENDBRANCH   2  22
BRANCH   3  26
HETATM   26  N   UNL     1      -8.906   3.668   2.185  1.00  0.00    -0.376 N 
ATOM     27  HN  UNL     1      -9.086   2.721   1.854  1.00  0.00     0.161 HD
BRANCH  26  28
HETATM   28  C   UNL     1      -9.995   4.622   2.212  1.00  0.00     0.123 C 
BRANCH  28  29
HETATM   29  C   UNL     1     -10.706   4.721   3.556  1.00  0.00     0.041 C 
BRANCH  29  30
HETATM   30  C   UNL     1     -11.456   3.434   3.888  1.00  0.00     0.150 C 
BRANCH  30  31
HETATM   31  N   UNL     1     -10.652   2.661   4.817  1.00  0.00    -0.304 N 
HETATM   32  N   UNL     1     -10.404   1.326   4.745  1.00  0.00    -0.310 N 
HETATM   33  C   UNL     1      -9.600   1.021   5.746  1.00  0.00     0.108 A 
ATOM     34  HN  UNL     1     -10.771   0.680   4.046  1.00  0.00     0.186 HD
HETATM   35  C   UNL     1      -9.348   2.171   6.467  1.00  0.00     0.037 A 
HETATM   36  C   UNL     1     -10.027   3.191   5.854  1.00  0.00     0.111 A 
ENDBRANCH  30  31
ENDBRANCH  29  30
ENDBRANCH  28  29
ENDBRANCH  26  28
ENDBRANCH   3  26
TORSDOF 12
ENDMDL
MODEL 7
REMARK VINA RESULT:    -7.101      1.660      2.078
REMARK INTER + INTRA:         -13.434
REMARK INTER:                 -12.096
REMARK INTRA:                  -1.339
REMARK UNBOUND:                -1.352
REMARK  12 active torsions:
REMARK  status: ('A' for Active; 'I' for Inactive)
REMARK    1  A    between atoms: C_1  and  C_2 
REMARK    2  A    between atoms: C_3  and  S_36 
REMARK    3  A    between atoms: C_7  and  N_30 
REMARK    4  A    between atoms: C_9  and  C_10 
REMARK    5  A    between atoms: C_9  and  N_25 
REMARK    6  A    between atoms: C_10  and  C_11 
REMARK    7  A    between atoms: C_11  and  O_35 
REMARK    8  A    between atoms: C_12  and  O_35 
REMARK    9  A    between atoms: C_15  and  N_30 
REMARK   10  A    between atoms: C_15  and  C_16 
REMARK   11  A    between atoms: C_16  and  C_17 
REMARK   12  A    between atoms: C_17  and  N_32 
ROOT
HETATM    1  C   UNL     1      -7.773   3.132   4.038  1.00  0.00     0.048 A 
HETATM    2  C   UNL     1      -5.895   3.422   5.326  1.00  0.00     0.204 A 
HETATM    3  C   UNL     1      -6.145   4.838   3.602  1.00  0.00     0.105 A 
HETATM    4  C   UNL     1      -7.348   4.220   3.263  1.00  0.00     0.078 A 
HETATM    5  N   UNL     1      -7.023   2.754   5.089  1.00  0.00    -0.332 N 
ATOM      6  HN  UNL     1      -7.310   1.979   5.687  1.00  0.00     0.168 HD
HETATM    7  N   UNL     1      -5.438   4.451   4.641  1.00  0.00    -0.319 N 
ATOM      8  HN  UNL     1      -4.574   4.925   4.905  1.00  0.00     0.169 HD
ENDROOT
BRANCH   1   9
HETATM    9  C   UNL     1      -9.023   2.472   3.808  1.00  0.00    -0.009 A 
HETATM   10  C   UNL     1      -9.681   2.512   2.580  1.00  0.00     0.016 A 
HETATM   11  C   UNL     1     -10.922   1.930   2.410  1.00  0.00     0.037 A 
HETATM   12  C   UNL     1     -11.558   1.316   3.471  1.00  0.00     0.068 A 
HETATM   13  C   UNL     1     -10.939   1.266   4.700  1.00  0.00     0.037 A 
HETATM   14  C   UNL     1      -9.690   1.844   4.863  1.00  0.00     0.016 A 
BRANCH  12  15
HETATM   15  O   UNL     1     -12.813   0.776   3.229  1.00  0.00    -0.351 OA
BRANCH  15  16
HETATM   16  C   UNL     1     -13.939   1.482   3.668  1.00  0.00     0.177 C 
BRANCH  16  17
HETATM   17  C   UNL     1     -14.864   1.663   2.467  1.00  0.00     0.057 C 
BRANCH  17  18
HETATM   18  C   UNL     1     -14.588   0.587   1.427  1.00  0.00     0.273 C 
BRANCH  18  19
HETATM   19  N   UNL     1     -14.685   1.069   0.051  1.00  0.00     0.080 N 
HETATM   20  C   UNL     1     -13.484   1.801  -0.324  1.00  0.00     0.309 C 
HETATM   21  C   UNL     1     -14.880  -0.053  -0.867  1.00  0.00     0.309 C 
ENDBRANCH  18  19
ENDBRANCH  17  18
ENDBRANCH  16  17
ENDBRANCH  15  16
ENDBRANCH  12  15
ENDBRANCH   1   9
BRANCH   2  22
HETATM   22  S   UNL     1      -4.902   2.910   6.736  1.00  0.00     0.203 S 
HETATM   23  C   UNL     1      -4.918   4.292   7.822  1.00  0.00     0.170 C 
HETATM   24  O   UNL     1      -5.529   1.739   7.369  1.00  0.00    -0.220 OA
HETATM   25  O   UNL     1      -3.567   2.659   6.275  1.00  0.00    -0.220 OA
ENDBRANCH   2  22
BRANCH   3  26
HETATM   26  N   UNL     1      -5.608   5.928   2.893  1.00  0.00    -0.376 N 
ATOM     27  HN  UNL     1      -6.233   6.519   2.345  1.00  0.00     0.161 HD
BRANCH  26  28
HETATM   28  C   UNL     1      -4.193   6.235   2.918  1.00  0.00     0.123 C 
BRANCH  28  29
HETATM   29  C   UNL     1      -3.614   6.628   1.565  1.00  0.00     0.041 C 
BRANCH  29  30
HETATM   30  C   UNL     1      -3.989   5.620   0.483  1.00  0.00     0.150 C 
BRANCH  30  31
HETATM   31  N   UNL     1      -4.715   6.318  -0.563  1.00  0.00    -0.304 N 
HETATM   32  N   UNL     1      -4.183   7.181  -1.469  1.00  0.00    -0.310 N 
HETATM   33  C   UNL     1      -5.161   7.563  -2.269  1.00  0.00     0.108 A 
ATOM     34  HN  UNL     1      -3.209   7.479  -1.521  1.00  0.00     0.186 HD
HETATM   35  C   UNL     1      -6.325   6.946  -1.857  1.00  0.00     0.037 A 
HETATM   36  C   UNL     1      -6.010   6.165  -0.776  1.00  0.00     0.111 A 
ENDBRANCH  30  31
ENDBRANCH  29  30
ENDBRANCH  28  29
ENDBRANCH  26  28
ENDBRANCH   3  26
TORSDOF 12
ENDMDL
MODEL 8
REMARK VINA RESULT:    -7.069      3.345      6.988
REMARK INTER + INTRA:         -13.379
REMARK INTER:                 -11.660
REMARK INTRA:                  -1.719
REMARK UNBOUND:                -1.352
REMARK  12 active torsions:
REMARK  status: ('A' for Active; 'I' for Inactive)
REMARK    1  A    between atoms: C_1  and  C_2 
REMARK    2  A    between atoms: C_3  and  S_36 
REMARK    3  A    between atoms: C_7  and  N_30 
REMARK    4  A    between atoms: C_9  and  C_10 
REMARK    5  A    between atoms: C_9  and  N_25 
REMARK    6  A    between atoms: C_10  and  C_11 
REMARK    7  A    between atoms: C_11  and  O_35 
REMARK    8  A    between atoms: C_12  and  O_35 
REMARK    9  A    between atoms: C_15  and  N_30 
REMARK   10  A    between atoms: C_15  and  C_16 
REMARK   11  A    between atoms: C_16  and  C_17 
REMARK   12  A    between atoms: C_17  and  N_32 
ROOT
HETATM    1  C   UNL     1      -5.516   3.560   5.076  1.00  0.00     0.048 A 
HETATM    2  C   UNL     1      -4.705   2.625   7.009  1.00  0.00     0.204 A 
HETATM    3  C   UNL     1      -6.786   2.029   6.416  1.00  0.00     0.105 A 
HETATM    4  C   UNL     1      -6.698   2.832   5.280  1.00  0.00     0.078 A 
HETATM    5  N   UNL     1      -4.513   3.427   5.964  1.00  0.00    -0.332 N 
ATOM      6  HN  UNL     1      -3.633   3.925   5.839  1.00  0.00     0.168 HD
HETATM    7  N   UNL     1      -5.786   1.913   7.261  1.00  0.00    -0.319 N 
ATOM      8  HN  UNL     1      -5.843   1.300   8.074  1.00  0.00     0.169 HD
ENDROOT
BRANCH   1   9
HETATM    9  C   UNL     1      -5.305   4.363   3.910  1.00  0.00    -0.009 A 
HETATM   10  C   UNL     1      -4.600   5.565   3.941  1.00  0.00     0.016 A 
HETATM   11  C   UNL     1      -4.478   6.356   2.814  1.00  0.00     0.037 A 
HETATM   12  C   UNL     1      -5.082   5.984   1.630  1.00  0.00     0.068 A 
HETATM   13  C   UNL     1      -5.793   4.806   1.567  1.00  0.00     0.037 A 
HETATM   14  C   UNL     1      -5.906   4.012   2.698  1.00  0.00     0.016 A 
BRANCH  12  15
HETATM   15  O   UNL     1      -4.935   6.841   0.549  1.00  0.00    -0.351 OA
BRANCH  15  16
HETATM   16  C   UNL     1      -4.244   6.380  -0.578  1.00  0.00     0.177 C 
BRANCH  16  17
HETATM   17  C   UNL     1      -4.886   7.023  -1.805  1.00  0.00     0.057 C 
BRANCH  17  18
HETATM   18  C   UNL     1      -6.272   7.547  -1.457  1.00  0.00     0.273 C 
BRANCH  18  19
HETATM   19  N   UNL     1      -7.349   6.631  -1.822  1.00  0.00     0.080 N 
HETATM   20  C   UNL     1      -8.647   7.211  -1.512  1.00  0.00     0.309 C 
HETATM   21  C   UNL     1      -7.284   6.315  -3.249  1.00  0.00     0.309 C 
ENDBRANCH  18  19
ENDBRANCH  17  18
ENDBRANCH  16  17
ENDBRANCH  15  16
ENDBRANCH  12  15
ENDBRANCH   1   9
BRANCH   2  22
HETATM   22  S   UNL     1      -3.356   2.452   8.188  1.00  0.00     0.203 S 
HETATM   23  C   UNL     1      -2.702   0.848   7.888  1.00  0.00     0.170 C 
HETATM   24  O   UNL     1      -2.346   3.488   7.921  1.00  0.00    -0.220 OA
HETATM   25  O   UNL     1      -3.906   2.523   9.510  1.00  0.00    -0.220 OA
ENDBRANCH   2  22
BRANCH   3  26
HETATM   26  N   UNL     1      -7.923   1.265   6.736  1.00  0.00    -0.376 N 
ATOM     27  HN  UNL     1      -7.798   0.344   7.157  1.00  0.00     0.161 HD
BRANCH  26  28
HETATM   28  C   UNL     1      -9.266   1.747   6.486  1.00  0.00     0.123 C 
BRANCH  28  29
HETATM   29  C   UNL     1      -9.951   1.098   5.291  1.00  0.00     0.041 C 
BRANCH  29  30
HETATM   30  C   UNL     1     -11.098   1.958   4.769  1.00  0.00     0.150 C 
BRANCH  30  31
HETATM   31  N   UNL     1     -10.536   3.089   4.054  1.00  0.00    -0.304 N 
HETATM   32  N   UNL     1     -10.675   4.400   4.389  1.00  0.00    -0.310 N 
HETATM   33  C   UNL     1      -9.981   5.105   3.515  1.00  0.00     0.108 A 
ATOM     34  HN  UNL     1     -11.216   4.770   5.170  1.00  0.00     0.186 HD
HETATM   35  C   UNL     1      -9.408   4.233   2.611  1.00  0.00     0.037 A 
HETATM   36  C   UNL     1      -9.777   2.966   2.978  1.00  0.00     0.111 A 
ENDBRANCH  30  31
ENDBRANCH  29  30
ENDBRANCH  28  29
ENDBRANCH  26  28
ENDBRANCH   3  26
TORSDOF 12
ENDMDL
MODEL 9
REMARK VINA RESULT:    -7.053      3.070      5.639
REMARK INTER + INTRA:         -13.353
REMARK INTER:                 -11.293
REMARK INTRA:                  -2.060
REMARK UNBOUND:                -1.352
REMARK  12 active torsions:
REMARK  status: ('A' for Active; 'I' for Inactive)
REMARK    1  A    between atoms: C_1  and  C_2 
REMARK    2  A    between atoms: C_3  and  S_36 
REMARK    3  A    between atoms: C_7  and  N_30 
REMARK    4  A    between atoms: C_9  and  C_10 
REMARK    5  A    between atoms: C_9  and  N_25 
REMARK    6  A    between atoms: C_10  and  C_11 
REMARK    7  A    between atoms: C_11  and  O_35 
REMARK    8  A    between atoms: C_12  and  O_35 
REMARK    9  A    between atoms: C_15  and  N_30 
REMARK   10  A    between atoms: C_15  and  C_16 
REMARK   11  A    between atoms: C_16  and  C_17 
REMARK   12  A    between atoms: C_17  and  N_32 
ROOT
HETATM    1  C   UNL     1      -7.129   4.390   3.228  1.00  0.00     0.048 A 
HETATM    2  C   UNL     1      -5.304   5.166   2.071  1.00  0.00     0.204 A 
HETATM    3  C   UNL     1      -4.937   4.528   4.192  1.00  0.00     0.105 A 
HETATM    4  C   UNL     1      -6.281   4.183   4.326  1.00  0.00     0.078 A 
HETATM    5  N   UNL     1      -6.605   4.879   2.089  1.00  0.00    -0.332 N 
ATOM      6  HN  UNL     1      -7.186   5.026   1.265  1.00  0.00     0.168 HD
HETATM    7  N   UNL     1      -4.453   4.996   3.062  1.00  0.00    -0.319 N 
ATOM      8  HN  UNL     1      -3.462   5.218   2.958  1.00  0.00     0.169 HD
ENDROOT
BRANCH   1   9
HETATM    9  C   UNL     1      -8.509   4.011   3.247  1.00  0.00    -0.009 A 
HETATM   10  C   UNL     1      -9.520   4.867   3.682  1.00  0.00     0.016 A 
HETATM   11  C   UNL     1     -10.833   4.447   3.761  1.00  0.00     0.037 A 
HETATM   12  C   UNL     1     -11.173   3.148   3.435  1.00  0.00     0.068 A 
HETATM   13  C   UNL     1     -10.198   2.275   3.009  1.00  0.00     0.037 A 
HETATM   14  C   UNL     1      -8.882   2.704   2.924  1.00  0.00     0.016 A 
BRANCH  12  15
HETATM   15  O   UNL     1     -12.508   2.793   3.562  1.00  0.00    -0.351 OA
BRANCH  15  16
HETATM   16  C   UNL     1     -13.483   3.702   3.132  1.00  0.00     0.177 C 
BRANCH  16  17
HETATM   17  C   UNL     1     -13.746   3.427   1.653  1.00  0.00     0.057 C 
BRANCH  17  18
HETATM   18  C   UNL     1     -14.316   2.027   1.474  1.00  0.00     0.273 C 
BRANCH  18  19
HETATM   19  N   UNL     1     -13.466   1.150   0.673  1.00  0.00     0.080 N 
HETATM   20  C   UNL     1     -13.038  -0.003   1.452  1.00  0.00     0.309 C 
HETATM   21  C   UNL     1     -14.183   0.696  -0.518  1.00  0.00     0.309 C 
ENDBRANCH  18  19
ENDBRANCH  17  18
ENDBRANCH  16  17
ENDBRANCH  15  16
ENDBRANCH  12  15
ENDBRANCH   1   9
BRANCH   2  22
HETATM   22  S   UNL     1      -4.614   5.817   0.542  1.00  0.00     0.203 S 
HETATM   23  C   UNL     1      -6.012   6.233  -0.440  1.00  0.00     0.170 C 
HETATM   24  O   UNL     1      -3.812   7.013   0.845  1.00  0.00    -0.220 OA
HETATM   25  O   UNL     1      -3.860   4.773  -0.087  1.00  0.00    -0.220 OA
ENDBRANCH   2  22
BRANCH   3  26
HETATM   26  N   UNL     1      -3.993   4.380   5.225  1.00  0.00    -0.376 N 
ATOM     27  HN  UNL     1      -3.054   4.056   4.995  1.00  0.00     0.161 HD
BRANCH  26  28
HETATM   28  C   UNL     1      -4.316   4.674   6.605  1.00  0.00     0.123 C 
BRANCH  28  29
HETATM   29  C   UNL     1      -4.542   3.442   7.471  1.00  0.00     0.041 C 
BRANCH  29  30
HETATM   30  C   UNL     1      -5.912   3.475   8.144  1.00  0.00     0.150 C 
BRANCH  30  31
HETATM   31  N   UNL     1      -6.810   2.611   7.399  1.00  0.00    -0.304 N 
HETATM   32  N   UNL     1      -8.141   2.813   7.207  1.00  0.00    -0.310 N 
HETATM   33  C   UNL     1      -8.581   1.829   6.445  1.00  0.00     0.108 A 
ATOM     34  HN  UNL     1      -8.696   3.582   7.582  1.00  0.00     0.186 HD
HETATM   35  C   UNL     1      -7.522   0.990   6.164  1.00  0.00     0.037 A 
HETATM   36  C   UNL     1      -6.416   1.511   6.781  1.00  0.00     0.111 A 
ENDBRANCH  30  31
ENDBRANCH  29  30
ENDBRANCH  28  29
ENDBRANCH  26  28
ENDBRANCH   3  26
TORSDOF 12
ENDMDL
MODEL 10
REMARK VINA RESULT:    -7.051      2.672      7.039
REMARK INTER + INTRA:         -13.349
REMARK INTER:                 -12.005
REMARK INTRA:                  -1.344
REMARK UNBOUND:                -1.352
REMARK  12 active torsions:
REMARK  status: ('A' for Active; 'I' for Inactive)
REMARK    1  A    between atoms: C_1  and  C_2 
REMARK    2  A    between atoms: C_3  and  S_36 
REMARK    3  A    between atoms: C_7  and  N_30 
REMARK    4  A    between atoms: C_9  and  C_10 
REMARK    5  A    between atoms: C_9  and  N_25 
REMARK    6  A    between atoms: C_10  and  C_11 
REMARK    7  A    between atoms: C_11  and  O_35 
REMARK    8  A    between atoms: C_12  and  O_35 
REMARK    9  A    between atoms: C_15  and  N_30 
REMARK   10  A    between atoms: C_15  and  C_16 
REMARK   11  A    between atoms: C_16  and  C_17 
REMARK   12  A    between atoms: C_17  and  N_32 
ROOT
HETATM    1  C   UNL     1      -6.063   3.825   4.347  1.00  0.00     0.048 A 
HETATM    2  C   UNL     1      -5.697   2.755   6.344  1.00  0.00     0.204 A 
HETATM    3  C   UNL     1      -7.629   2.281   5.304  1.00  0.00     0.105 A 
HETATM    4  C   UNL     1      -7.283   3.139   4.260  1.00  0.00     0.078 A 
HETATM    5  N   UNL     1      -5.269   3.602   5.410  1.00  0.00    -0.332 N 
ATOM      6  HN  UNL     1      -4.366   4.068   5.498  1.00  0.00     0.168 HD
HETATM    7  N   UNL     1      -6.828   2.078   6.326  1.00  0.00    -0.319 N 
ATOM      8  HN  UNL     1      -7.070   1.426   7.072  1.00  0.00     0.169 HD
ENDROOT
BRANCH   1   9
HETATM    9  C   UNL     1      -5.591   4.678   3.299  1.00  0.00    -0.009 A 
HETATM   10  C   UNL     1      -5.804   4.403   1.949  1.00  0.00     0.016 A 
HETATM   11  C   UNL     1      -5.271   5.204   0.958  1.00  0.00     0.037 A 
HETATM   12  C   UNL     1      -4.482   6.289   1.285  1.00  0.00     0.068 A 
HETATM   13  C   UNL     1      -4.245   6.585   2.609  1.00  0.00     0.037 A 
HETATM   14  C   UNL     1      -4.789   5.782   3.600  1.00  0.00     0.016 A 
BRANCH  12  15
HETATM   15  O   UNL     1      -3.963   7.032   0.235  1.00  0.00    -0.351 OA
BRANCH  15  16
HETATM   16  C   UNL     1      -4.065   6.516  -1.062  1.00  0.00     0.177 C 
BRANCH  16  17
HETATM   17  C   UNL     1      -5.060   7.386  -1.825  1.00  0.00     0.057 C 
BRANCH  17  18
HETATM   18  C   UNL     1      -6.324   6.595  -2.128  1.00  0.00     0.273 C 
BRANCH  18  19
HETATM   19  N   UNL     1      -7.500   7.080  -1.411  1.00  0.00     0.080 N 
HETATM   20  C   UNL     1      -7.486   8.533  -1.323  1.00  0.00     0.309 C 
HETATM   21  C   UNL     1      -8.723   6.644  -2.086  1.00  0.00     0.309 C 
ENDBRANCH  18  19
ENDBRANCH  17  18
ENDBRANCH  16  17
ENDBRANCH  15  16
ENDBRANCH  12  15
ENDBRANCH   1   9
BRANCH   2  22
HETATM   22  S   UNL     1      -4.626   2.462   7.760  1.00  0.00     0.203 S 
HETATM   23  C   UNL     1      -3.485   1.240   7.215  1.00  0.00     0.170 C 
HETATM   24  O   UNL     1      -3.929   3.711   8.105  1.00  0.00    -0.220 OA
HETATM   25  O   UNL     1      -5.430   1.947   8.829  1.00  0.00    -0.220 OA
ENDBRANCH   2  22
BRANCH   3  26
HETATM   26  N   UNL     1      -8.831   1.550   5.338  1.00  0.00    -0.376 N 
ATOM     27  HN  UNL     1      -8.810   0.578   5.646  1.00  0.00     0.161 HD
BRANCH  26  28
HETATM   28  C   UNL     1     -10.096   2.137   4.950  1.00  0.00     0.123 C 
BRANCH  28  29
HETATM   29  C   UNL     1     -10.736   1.492   3.727  1.00  0.00     0.041 C 
BRANCH  29  30
HETATM   30  C   UNL     1     -10.245   2.136   2.434  1.00  0.00     0.150 C 
BRANCH  30  31
HETATM   31  N   UNL     1     -11.399   2.464   1.618  1.00  0.00    -0.304 N 
HETATM   32  N   UNL     1     -11.429   2.530   0.260  1.00  0.00    -0.310 N 
HETATM   33  C   UNL     1     -12.669   2.815  -0.093  1.00  0.00     0.108 A 
ATOM     34  HN  UNL     1     -10.640   2.386  -0.370  1.00  0.00     0.186 HD
HETATM   35  C   UNL     1     -13.428   2.945   1.053  1.00  0.00     0.037 A 
HETATM   36  C   UNL     1     -12.597   2.717   2.118  1.00  0.00     0.111 A 
ENDBRANCH  30  31
ENDBRANCH  29  30
ENDBRANCH  28  29
ENDBRANCH  26  28
ENDBRANCH   3  26
TORSDOF 12
ENDMDL
MODEL 11
REMARK VINA RESULT:    -7.011      4.111      9.743
REMARK INTER + INTRA:         -13.282
REMARK INTER:                 -12.083
REMARK INTRA:                  -1.199
REMARK UNBOUND:                -1.352
REMARK  12 active torsions:
REMARK  status: ('A' for Active; 'I' for Inactive)
REMARK    1  A    between atoms: C_1  and  C_2 
REMARK    2  A    between atoms: C_3  and  S_36 
REMARK    3  A    between atoms: C_7  and  N_30 
REMARK    4  A    between atoms: C_9  and  C_10 
REMARK    5  A    between atoms: C_9  and  N_25 
REMARK    6  A    between atoms: C_10  and  C_11 
REMARK    7  A    between atoms: C_11  and  O_35 
REMARK    8  A    between atoms: C_12  and  O_35 
REMARK    9  A    between atoms: C_15  and  N_30 
REMARK   10  A    between atoms: C_15  and  C_16 
REMARK   11  A    between atoms: C_16  and  C_17 
REMARK   12  A    between atoms: C_17  and  N_32 
ROOT
HETATM    1  C   UNL     1      -5.763   4.025   4.356  1.00  0.00     0.048 A 
HETATM    2  C   UNL     1      -5.649   4.783   2.192  1.00  0.00     0.204 A 
HETATM    3  C   UNL     1      -7.518   3.677   2.759  1.00  0.00     0.105 A 
HETATM    4  C   UNL     1      -7.034   3.513   4.056  1.00  0.00     0.078 A 
HETATM    5  N   UNL     1      -5.086   4.679   3.395  1.00  0.00    -0.332 N 
ATOM      6  HN  UNL     1      -4.168   5.081   3.581  1.00  0.00     0.168 HD
HETATM    7  N   UNL     1      -6.836   4.327   1.843  1.00  0.00    -0.319 N 
ATOM      8  HN  UNL     1      -7.207   4.473   0.904  1.00  0.00     0.169 HD
ENDROOT
BRANCH   1   9
HETATM    9  C   UNL     1      -5.206   3.962   5.673  1.00  0.00    -0.009 A 
HETATM   10  C   UNL     1      -5.817   3.270   6.717  1.00  0.00     0.016 A 
HETATM   11  C   UNL     1      -5.295   3.291   7.996  1.00  0.00     0.037 A 
HETATM   12  C   UNL     1      -4.162   4.028   8.278  1.00  0.00     0.068 A 
HETATM   13  C   UNL     1      -3.538   4.730   7.271  1.00  0.00     0.037 A 
HETATM   14  C   UNL     1      -4.061   4.700   5.987  1.00  0.00     0.016 A 
BRANCH  12  15
HETATM   15  O   UNL     1      -3.712   4.019   9.590  1.00  0.00    -0.351 OA
BRANCH  15  16
HETATM   16  C   UNL     1      -3.643   5.236  10.280  1.00  0.00     0.177 C 
BRANCH  16  17
HETATM   17  C   UNL     1      -2.179   5.476  10.641  1.00  0.00     0.057 C 
BRANCH  17  18
HETATM   18  C   UNL     1      -1.681   6.756   9.984  1.00  0.00     0.273 C 
BRANCH  18  19
HETATM   19  N   UNL     1      -0.317   6.653   9.471  1.00  0.00     0.080 N 
HETATM   20  C   UNL     1      -0.252   5.709   8.365  1.00  0.00     0.309 C 
HETATM   21  C   UNL     1       0.157   7.963   9.024  1.00  0.00     0.309 C 
ENDBRANCH  18  19
ENDBRANCH  17  18
ENDBRANCH  16  17
ENDBRANCH  15  16
ENDBRANCH  12  15
ENDBRANCH   1   9
BRANCH   2  22
HETATM   22  S   UNL     1      -4.735   5.661   0.915  1.00  0.00     0.203 S 
HETATM   23  C   UNL     1      -5.881   5.853  -0.405  1.00  0.00     0.170 C 
HETATM   24  O   UNL     1      -4.313   6.970   1.437  1.00  0.00    -0.220 OA
HETATM   25  O   UNL     1      -3.639   4.834   0.502  1.00  0.00    -0.220 OA
ENDBRANCH   2  22
BRANCH   3  26
HETATM   26  N   UNL     1      -8.770   3.195   2.334  1.00  0.00    -0.376 N 
ATOM     27  HN  UNL     1      -8.828   2.669   1.462  1.00  0.00     0.161 HD
BRANCH  26  28
HETATM   28  C   UNL     1      -9.978   3.423   3.098  1.00  0.00     0.123 C 
BRANCH  28  29
HETATM   29  C   UNL     1     -10.603   4.796   2.886  1.00  0.00     0.041 C 
BRANCH  29  30
HETATM   30  C   UNL     1     -12.097   4.692   2.594  1.00  0.00     0.150 C 
BRANCH  30  31
HETATM   31  N   UNL     1     -12.284   3.799   1.466  1.00  0.00    -0.304 N 
HETATM   32  N   UNL     1     -11.628   3.863   0.276  1.00  0.00    -0.310 N 
HETATM   33  C   UNL     1     -12.051   2.853  -0.461  1.00  0.00     0.108 A 
ATOM     34  HN  UNL     1     -10.937   4.562   0.003  1.00  0.00     0.186 HD
HETATM   35  C   UNL     1     -12.993   2.151   0.265  1.00  0.00     0.037 A 
HETATM   36  C   UNL     1     -13.118   2.774   1.479  1.00  0.00     0.111 A 
ENDBRANCH  30  31
ENDBRANCH  29  30
ENDBRANCH  28  29
ENDBRANCH  26  28
ENDBRANCH   3  26
TORSDOF 12
ENDMDL
MODEL 12
REMARK VINA RESULT:    -7.001      2.737      7.163
REMARK INTER + INTRA:         -13.264
REMARK INTER:                 -11.687
REMARK INTRA:                  -1.577
REMARK UNBOUND:                -1.352
REMARK  12 active torsions:
REMARK  status: ('A' for Active; 'I' for Inactive)
REMARK    1  A    between atoms: C_1  and  C_2 
REMARK    2  A    between atoms: C_3  and  S_36 
REMARK    3  A    between atoms: C_7  and  N_30 
REMARK    4  A    between atoms: C_9  and  C_10 
REMARK    5  A    between atoms: C_9  and  N_25 
REMARK    6  A    between atoms: C_10  and  C_11 
REMARK    7  A    between atoms: C_11  and  O_35 
REMARK    8  A    between atoms: C_12  and  O_35 
REMARK    9  A    between atoms: C_15  and  N_30 
REMARK   10  A    between atoms: C_15  and  C_16 
REMARK   11  A    between atoms: C_16  and  C_17 
REMARK   12  A    between atoms: C_17  and  N_32 
ROOT
HETATM    1  C   UNL     1      -8.569   2.986   4.675  1.00  0.00     0.048 A 
HETATM    2  C   UNL     1      -9.917   3.772   2.992  1.00  0.00     0.204 A 
HETATM    3  C   UNL     1      -7.706   3.988   2.675  1.00  0.00     0.105 A 
HETATM    4  C   UNL     1      -7.465   3.377   3.904  1.00  0.00     0.078 A 
HETATM    5  N   UNL     1      -9.805   3.186   4.183  1.00  0.00    -0.332 N 
ATOM      6  HN  UNL     1     -10.632   2.898   4.706  1.00  0.00     0.168 HD
HETATM    7  N   UNL     1      -8.925   4.163   2.217  1.00  0.00    -0.319 N 
ATOM      8  HN  UNL     1      -9.097   4.582   1.303  1.00  0.00     0.169 HD
ENDROOT
BRANCH   1   9
HETATM    9  C   UNL     1      -8.425   2.296   5.921  1.00  0.00    -0.009 A 
HETATM   10  C   UNL     1      -9.027   2.735   7.099  1.00  0.00     0.016 A 
HETATM   11  C   UNL     1      -8.807   2.091   8.302  1.00  0.00     0.037 A 
HETATM   12  C   UNL     1      -7.956   1.006   8.369  1.00  0.00     0.068 A 
HETATM   13  C   UNL     1      -7.339   0.551   7.225  1.00  0.00     0.037 A 
HETATM   14  C   UNL     1      -7.569   1.196   6.020  1.00  0.00     0.016 A 
BRANCH  12  15
HETATM   15  O   UNL     1      -7.767   0.427   9.616  1.00  0.00    -0.351 OA
BRANCH  15  16
HETATM   16  C   UNL     1      -7.222   1.211  10.640  1.00  0.00     0.177 C 
BRANCH  16  17
HETATM   17  C   UNL     1      -5.736   1.391  10.337  1.00  0.00     0.057 C 
BRANCH  17  18
HETATM   18  C   UNL     1      -5.404   2.870  10.203  1.00  0.00     0.273 C 
BRANCH  18  19
HETATM   19  N   UNL     1      -4.674   3.194   8.980  1.00  0.00     0.080 N 
HETATM   20  C   UNL     1      -4.128   1.990   8.372  1.00  0.00     0.309 C 
HETATM   21  C   UNL     1      -5.555   3.867   8.025  1.00  0.00     0.309 C 
ENDBRANCH  18  19
ENDBRANCH  17  18
ENDBRANCH  16  17
ENDBRANCH  15  16
ENDBRANCH  12  15
ENDBRANCH   1   9
BRANCH   2  22
HETATM   22  S   UNL     1     -11.575   4.033   2.342  1.00  0.00     0.203 S 
HETATM   23  C   UNL     1     -12.421   2.523   2.651  1.00  0.00     0.170 C 
HETATM   24  O   UNL     1     -12.208   5.146   3.068  1.00  0.00    -0.220 OA
HETATM   25  O   UNL     1     -11.470   4.262   0.931  1.00  0.00    -0.220 OA
ENDBRANCH   2  22
BRANCH   3  26
HETATM   26  N   UNL     1      -6.682   4.436   1.820  1.00  0.00    -0.376 N 
ATOM     27  HN  UNL     1      -6.869   4.511   0.820  1.00  0.00     0.161 HD
BRANCH  26  28
HETATM   28  C   UNL     1      -5.370   4.794   2.317  1.00  0.00     0.123 C 
BRANCH  28  29
HETATM   29  C   UNL     1      -4.802   6.075   1.720  1.00  0.00     0.041 C 
BRANCH  29  30
HETATM   30  C   UNL     1      -4.043   5.799   0.425  1.00  0.00     0.150 C 
BRANCH  30  31
HETATM   31  N   UNL     1      -4.725   6.479  -0.661  1.00  0.00    -0.304 N 
HETATM   32  N   UNL     1      -4.173   7.382  -1.515  1.00  0.00    -0.310 N 
HETATM   33  C   UNL     1      -5.109   7.730  -2.378  1.00  0.00     0.108 A 
ATOM     34  HN  UNL     1      -3.213   7.727  -1.493  1.00  0.00     0.186 HD
HETATM   35  C   UNL     1      -6.268   7.051  -2.059  1.00  0.00     0.037 A 
HETATM   36  C   UNL     1      -5.993   6.268  -0.969  1.00  0.00     0.111 A 
ENDBRANCH  30  31
ENDBRANCH  29  30
ENDBRANCH  28  29
ENDBRANCH  26  28
ENDBRANCH   3  26
TORSDOF 12
ENDMDL
MODEL 13
REMARK VINA RESULT:    -6.993      2.890      7.304
REMARK INTER + INTRA:         -13.250
REMARK INTER:                 -11.608
REMARK INTRA:                  -1.642
REMARK UNBOUND:                -1.352
REMARK  12 active torsions:
REMARK  status: ('A' for Active; 'I' for Inactive)
REMARK    1  A    between atoms: C_1  and  C_2 
REMARK    2  A    between atoms: C_3  and  S_36 
REMARK    3  A    between atoms: C_7  and  N_30 
REMARK    4  A    between atoms: C_9  and  C_10 
REMARK    5  A    between atoms: C_9  and  N_25 
REMARK    6  A    between atoms: C_10  and  C_11 
REMARK    7  A    between atoms: C_11  and  O_35 
REMARK    8  A    between atoms: C_12  and  O_35 
REMARK    9  A    between atoms: C_15  and  N_30 
REMARK   10  A    between atoms: C_15  and  C_16 
REMARK   11  A    between atoms: C_16  and  C_17 
REMARK   12  A    between atoms: C_17  and  N_32 
ROOT
HETATM    1  C   UNL     1      -7.414   2.257   5.094  1.00  0.00     0.048 A 
HETATM    2  C   UNL     1      -7.541   0.653   6.731  1.00  0.00     0.204 A 
HETATM    3  C   UNL     1      -9.459   1.145   5.672  1.00  0.00     0.105 A 
HETATM    4  C   UNL     1      -8.787   2.071   4.876  1.00  0.00     0.078 A 
HETATM    5  N   UNL     1      -6.802   1.514   6.034  1.00  0.00    -0.332 N 
ATOM      6  HN  UNL     1      -5.802   1.608   6.208  1.00  0.00     0.168 HD
HETATM    7  N   UNL     1      -8.831   0.428   6.578  1.00  0.00    -0.319 N 
ATOM      8  HN  UNL     1      -9.320  -0.272   7.137  1.00  0.00     0.169 HD
ENDROOT
BRANCH   1   9
HETATM    9  C   UNL     1      -6.625   3.138   4.288  1.00  0.00    -0.009 A 
HETATM   10  C   UNL     1      -5.505   3.809   4.779  1.00  0.00     0.016 A 
HETATM   11  C   UNL     1      -4.809   4.712   3.999  1.00  0.00     0.037 A 
HETATM   12  C   UNL     1      -5.227   4.995   2.714  1.00  0.00     0.068 A 
HETATM   13  C   UNL     1      -6.334   4.356   2.201  1.00  0.00     0.037 A 
HETATM   14  C   UNL     1      -7.025   3.445   2.985  1.00  0.00     0.016 A 
BRANCH  12  15
HETATM   15  O   UNL     1      -4.491   5.930   2.001  1.00  0.00    -0.351 OA
BRANCH  15  16
HETATM   16  C   UNL     1      -3.864   5.522   0.817  1.00  0.00     0.177 C 
BRANCH  16  17
HETATM   17  C   UNL     1      -4.338   6.452  -0.297  1.00  0.00     0.057 C 
BRANCH  17  18
HETATM   18  C   UNL     1      -5.765   6.103  -0.697  1.00  0.00     0.273 C 
BRANCH  18  19
HETATM   19  N   UNL     1      -6.380   7.093  -1.579  1.00  0.00     0.080 N 
HETATM   20  C   UNL     1      -5.474   7.453  -2.659  1.00  0.00     0.309 C 
HETATM   21  C   UNL     1      -7.625   6.569  -2.140  1.00  0.00     0.309 C 
ENDBRANCH  18  19
ENDBRANCH  17  18
ENDBRANCH  16  17
ENDBRANCH  15  16
ENDBRANCH  12  15
ENDBRANCH   1   9
BRANCH   2  22
HETATM   22  S   UNL     1      -6.712  -0.338   7.983  1.00  0.00     0.203 S 
HETATM   23  C   UNL     1      -5.527  -1.285   7.094  1.00  0.00     0.170 C 
HETATM   24  O   UNL     1      -6.051   0.557   8.946  1.00  0.00    -0.220 OA
HETATM   25  O   UNL     1      -7.685  -1.202   8.586  1.00  0.00    -0.220 OA
ENDBRANCH   2  22
BRANCH   3  26
HETATM   26  N   UNL     1     -10.836   0.881   5.558  1.00  0.00    -0.376 N 
ATOM     27  HN  UNL     1     -11.485   1.354   6.189  1.00  0.00     0.161 HD
BRANCH  26  28
HETATM   28  C   UNL     1     -11.360  -0.040   4.573  1.00  0.00     0.123 C 
BRANCH  28  29
HETATM   29  C   UNL     1     -11.855   0.625   3.295  1.00  0.00     0.041 C 
BRANCH  29  30
HETATM   30  C   UNL     1     -12.612   1.917   3.593  1.00  0.00     0.150 C 
BRANCH  30  31
HETATM   31  N   UNL     1     -11.779   3.038   3.200  1.00  0.00    -0.304 N 
HETATM   32  N   UNL     1     -11.045   3.131   2.059  1.00  0.00    -0.310 N 
HETATM   33  C   UNL     1     -10.469   4.318   2.057  1.00  0.00     0.108 A 
ATOM     34  HN  UNL     1     -10.956   2.415   1.337  1.00  0.00     0.186 HD
HETATM   35  C   UNL     1     -10.831   4.978   3.214  1.00  0.00     0.037 A 
HETATM   36  C   UNL     1     -11.660   4.143   3.916  1.00  0.00     0.111 A 
ENDBRANCH  30  31
ENDBRANCH  29  30
ENDBRANCH  28  29
ENDBRANCH  26  28
ENDBRANCH   3  26
TORSDOF 12
ENDMDL
MODEL 14
REMARK VINA RESULT:    -6.972      3.975      9.789
REMARK INTER + INTRA:         -13.215
REMARK INTER:                 -11.350
REMARK INTRA:                  -1.864
REMARK UNBOUND:                -1.352
REMARK  12 active torsions:
REMARK  status: ('A' for Active; 'I' for Inactive)
REMARK    1  A    between atoms: C_1  and  C_2 
REMARK    2  A    between atoms: C_3  and  S_36 
REMARK    3  A    between atoms: C_7  and  N_30 
REMARK    4  A    between atoms: C_9  and  C_10 
REMARK    5  A    between atoms: C_9  and  N_25 
REMARK    6  A    between atoms: C_10  and  C_11 
REMARK    7  A    between atoms: C_11  and  O_35 
REMARK    8  A    between atoms: C_12  and  O_35 
REMARK    9  A    between atoms: C_15  and  N_30 
REMARK   10  A    between atoms: C_15  and  C_16 
REMARK   11  A    between atoms: C_16  and  C_17 
REMARK   12  A    between atoms: C_17  and  N_32 
ROOT
HETATM    1  C   UNL     1      -5.835   4.141   4.051  1.00  0.00     0.048 A 
HETATM    2  C   UNL     1      -5.737   4.913   1.892  1.00  0.00     0.204 A 
HETATM    3  C   UNL     1      -7.700   4.040   2.546  1.00  0.00     0.105 A 
HETATM    4  C   UNL     1      -7.174   3.796   3.814  1.00  0.00     0.078 A 
HETATM    5  N   UNL     1      -5.131   4.719   3.061  1.00  0.00    -0.332 N 
ATOM      6  HN  UNL     1      -4.161   5.001   3.203  1.00  0.00     0.168 HD
HETATM    7  N   UNL     1      -6.988   4.615   1.602  1.00  0.00    -0.319 N 
ATOM      8  HN  UNL     1      -7.386   4.820   0.685  1.00  0.00     0.169 HD
ENDROOT
BRANCH   1   9
HETATM    9  C   UNL     1      -5.223   3.987   5.336  1.00  0.00    -0.009 A 
HETATM   10  C   UNL     1      -4.298   4.898   5.844  1.00  0.00     0.016 A 
HETATM   11  C   UNL     1      -3.666   4.684   7.053  1.00  0.00     0.037 A 
HETATM   12  C   UNL     1      -3.918   3.537   7.780  1.00  0.00     0.068 A 
HETATM   13  C   UNL     1      -4.821   2.612   7.304  1.00  0.00     0.037 A 
HETATM   14  C   UNL     1      -5.457   2.836   6.093  1.00  0.00     0.016 A 
BRANCH  12  15
HETATM   15  O   UNL     1      -3.228   3.380   8.973  1.00  0.00    -0.351 OA
BRANCH  15  16
HETATM   16  C   UNL     1      -1.945   3.931   9.079  1.00  0.00     0.177 C 
BRANCH  16  17
HETATM   17  C   UNL     1      -1.723   4.296  10.545  1.00  0.00     0.057 C 
BRANCH  17  18
HETATM   18  C   UNL     1      -2.655   5.429  10.950  1.00  0.00     0.273 C 
BRANCH  18  19
HETATM   19  N   UNL     1      -2.657   6.545  10.007  1.00  0.00     0.080 N 
HETATM   20  C   UNL     1      -3.966   7.182   9.965  1.00  0.00     0.309 C 
HETATM   21  C   UNL     1      -1.646   7.533  10.387  1.00  0.00     0.309 C 
ENDBRANCH  18  19
ENDBRANCH  17  18
ENDBRANCH  16  17
ENDBRANCH  15  16
ENDBRANCH  12  15
ENDBRANCH   1   9
BRANCH   2  22
HETATM   22  S   UNL     1      -4.787   5.690   0.576  1.00  0.00     0.203 S 
HETATM   23  C   UNL     1      -5.978   6.117  -0.645  1.00  0.00     0.170 C 
HETATM   24  O   UNL     1      -4.124   6.892   1.105  1.00  0.00    -0.220 OA
HETATM   25  O   UNL     1      -3.870   4.719   0.054  1.00  0.00    -0.220 OA
ENDBRANCH   2  22
BRANCH   3  26
HETATM   26  N   UNL     1      -9.022   3.725   2.184  1.00  0.00    -0.376 N 
ATOM     27  HN  UNL     1      -9.230   2.791   1.831  1.00  0.00     0.161 HD
BRANCH  26  28
HETATM   28  C   UNL     1     -10.097   4.689   2.295  1.00  0.00     0.123 C 
BRANCH  28  29
HETATM   29  C   UNL     1     -10.807   4.680   3.643  1.00  0.00     0.041 C 
BRANCH  29  30
HETATM   30  C   UNL     1     -11.362   3.297   3.973  1.00  0.00     0.150 C 
BRANCH  30  31
HETATM   31  N   UNL     1     -10.474   2.663   4.930  1.00  0.00    -0.304 N 
HETATM   32  N   UNL     1      -9.904   3.258   6.012  1.00  0.00    -0.310 N 
HETATM   33  C   UNL     1      -9.206   2.335   6.646  1.00  0.00     0.108 A 
ATOM     34  HN  UNL     1      -9.998   4.237   6.283  1.00  0.00     0.186 HD
HETATM   35  C   UNL     1      -9.324   1.148   5.952  1.00  0.00     0.037 A 
HETATM   36  C   UNL     1     -10.133   1.387   4.872  1.00  0.00     0.111 A 
ENDBRANCH  30  31
ENDBRANCH  29  30
ENDBRANCH  28  29
ENDBRANCH  26  28
ENDBRANCH   3  26
TORSDOF 12
ENDMDL
MODEL 15
REMARK VINA RESULT:    -6.889      3.249      5.917
REMARK INTER + INTRA:         -13.074
REMARK INTER:                 -11.757
REMARK INTRA:                  -1.317
REMARK UNBOUND:                -1.352
REMARK  12 active torsions:
REMARK  status: ('A' for Active; 'I' for Inactive)
REMARK    1  A    between atoms: C_1  and  C_2 
REMARK    2  A    between atoms: C_3  and  S_36 
REMARK    3  A    between atoms: C_7  and  N_30 
REMARK    4  A    between atoms: C_9  and  C_10 
REMARK    5  A    between atoms: C_9  and  N_25 
REMARK    6  A    between atoms: C_10  and  C_11 
REMARK    7  A    between atoms: C_11  and  O_35 
REMARK    8  A    between atoms: C_12  and  O_35 
REMARK    9  A    between atoms: C_15  and  N_30 
REMARK   10  A    between atoms: C_15  and  C_16 
REMARK   11  A    between atoms: C_16  and  C_17 
REMARK   12  A    between atoms: C_17  and  N_32 
ROOT
HETATM    1  C   UNL     1      -7.057   4.482   3.207  1.00  0.00     0.048 A 
HETATM    2  C   UNL     1      -5.226   5.254   2.059  1.00  0.00     0.204 A 
HETATM    3  C   UNL     1      -4.903   4.762   4.225  1.00  0.00     0.105 A 
HETATM    4  C   UNL     1      -6.238   4.374   4.341  1.00  0.00     0.078 A 
HETATM    5  N   UNL     1      -6.514   4.920   2.056  1.00  0.00    -0.332 N 
ATOM      6  HN  UNL     1      -7.074   4.993   1.207  1.00  0.00     0.168 HD
HETATM    7  N   UNL     1      -4.400   5.178   3.084  1.00  0.00    -0.319 N 
ATOM      8  HN  UNL     1      -3.416   5.430   2.996  1.00  0.00     0.169 HD
ENDROOT
BRANCH   1   9
HETATM    9  C   UNL     1      -8.422   4.052   3.208  1.00  0.00    -0.009 A 
HETATM   10  C   UNL     1      -9.485   4.919   3.455  1.00  0.00     0.016 A 
HETATM   11  C   UNL     1     -10.786   4.461   3.526  1.00  0.00     0.037 A 
HETATM   12  C   UNL     1     -11.062   3.116   3.381  1.00  0.00     0.068 A 
HETATM   13  C   UNL     1     -10.035   2.230   3.143  1.00  0.00     0.037 A 
HETATM   14  C   UNL     1      -8.732   2.697   3.066  1.00  0.00     0.016 A 
BRANCH  12  15
HETATM   15  O   UNL     1     -12.390   2.728   3.487  1.00  0.00    -0.351 OA
BRANCH  15  16
HETATM   16  C   UNL     1     -13.384   3.703   3.339  1.00  0.00     0.177 C 
BRANCH  16  17
HETATM   17  C   UNL     1     -14.403   3.171   2.335  1.00  0.00     0.057 C 
BRANCH  17  18
HETATM   18  C   UNL     1     -14.472   1.652   2.413  1.00  0.00     0.273 C 
BRANCH  18  19
HETATM   19  N   UNL     1     -14.137   0.989   1.156  1.00  0.00     0.080 N 
HETATM   20  C   UNL     1     -13.659   1.955   0.176  1.00  0.00     0.309 C 
HETATM   21  C   UNL     1     -13.111  -0.030   1.376  1.00  0.00     0.309 C 
ENDBRANCH  18  19
ENDBRANCH  17  18
ENDBRANCH  16  17
ENDBRANCH  15  16
ENDBRANCH  12  15
ENDBRANCH   1   9
BRANCH   2  22
HETATM   22  S   UNL     1      -4.510   5.836   0.514  1.00  0.00     0.203 S 
HETATM   23  C   UNL     1      -5.892   6.203  -0.510  1.00  0.00     0.170 C 
HETATM   24  O   UNL     1      -3.716   7.046   0.775  1.00  0.00    -0.220 OA
HETATM   25  O   UNL     1      -3.744   4.766  -0.054  1.00  0.00    -0.220 OA
ENDBRANCH   2  22
BRANCH   3  26
HETATM   26  N   UNL     1      -3.989   4.714   5.293  1.00  0.00    -0.376 N 
ATOM     27  HN  UNL     1      -2.991   4.789   5.095  1.00  0.00     0.161 HD
BRANCH  26  28
HETATM   28  C   UNL     1      -4.422   4.561   6.666  1.00  0.00     0.123 C 
BRANCH  28  29
HETATM   29  C   UNL     1      -3.289   4.569   7.684  1.00  0.00     0.041 C 
BRANCH  29  30
HETATM   30  C   UNL     1      -3.326   3.328   8.572  1.00  0.00     0.150 C 
BRANCH  30  31
HETATM   31  N   UNL     1      -2.803   2.206   7.815  1.00  0.00    -0.304 N 
HETATM   32  N   UNL     1      -1.774   2.247   6.927  1.00  0.00    -0.310 N 
HETATM   33  C   UNL     1      -1.582   1.017   6.489  1.00  0.00     0.108 A 
ATOM     34  HN  UNL     1      -1.247   3.076   6.651  1.00  0.00     0.186 HD
HETATM   35  C   UNL     1      -2.508   0.191   7.095  1.00  0.00     0.037 A 
HETATM   36  C   UNL     1      -3.265   0.973   7.928  1.00  0.00     0.111 A 
ENDBRANCH  30  31
ENDBRANCH  29  30
ENDBRANCH  28  29
ENDBRANCH  26  28
ENDBRANCH   3  26
TORSDOF 12
ENDMDL
MODEL 16
REMARK VINA RESULT:    -6.872      2.910      9.327
REMARK INTER + INTRA:         -13.044
REMARK INTER:                 -10.752
REMARK INTRA:                  -2.293
REMARK UNBOUND:                -1.352
REMARK  12 active torsions:
REMARK  status: ('A' for Active; 'I' for Inactive)
REMARK    1  A    between atoms: C_1  and  C_2 
REMARK    2  A    between atoms: C_3  and  S_36 
REMARK    3  A    between atoms: C_7  and  N_30 
REMARK    4  A    between atoms: C_9  and  C_10 
REMARK    5  A    between atoms: C_9  and  N_25 
REMARK    6  A    between atoms: C_10  and  C_11 
REMARK    7  A    between atoms: C_11  and  O_35 
REMARK    8  A    between atoms: C_12  and  O_35 
REMARK    9  A    between atoms: C_15  and  N_30 
REMARK   10  A    between atoms: C_15  and  C_16 
REMARK   11  A    between atoms: C_16  and  C_17 
REMARK   12  A    between atoms: C_17  and  N_32 
ROOT
HETATM    1  C   UNL     1     -11.601   3.259   2.013  1.00  0.00     0.048 A 
HETATM    2  C   UNL     1     -13.873   3.530   2.195  1.00  0.00     0.204 A 
HETATM    3  C   UNL     1     -13.148   2.415   0.386  1.00  0.00     0.105 A 
HETATM    4  C   UNL     1     -11.831   2.558   0.820  1.00  0.00     0.078 A 
HETATM    5  N   UNL     1     -12.657   3.731   2.700  1.00  0.00    -0.332 N 
ATOM      6  HN  UNL     1     -12.530   4.230   3.580  1.00  0.00     0.168 HD
HETATM    7  N   UNL     1     -14.160   2.881   1.084  1.00  0.00    -0.319 N 
ATOM      8  HN  UNL     1     -15.124   2.748   0.779  1.00  0.00     0.169 HD
ENDROOT
BRANCH   1   9
HETATM    9  C   UNL     1     -10.291   3.405   2.573  1.00  0.00    -0.009 A 
HETATM   10  C   UNL     1      -9.547   2.323   3.040  1.00  0.00     0.016 A 
HETATM   11  C   UNL     1      -8.318   2.503   3.645  1.00  0.00     0.037 A 
HETATM   12  C   UNL     1      -7.809   3.773   3.829  1.00  0.00     0.068 A 
HETATM   13  C   UNL     1      -8.522   4.865   3.386  1.00  0.00     0.037 A 
HETATM   14  C   UNL     1      -9.751   4.678   2.773  1.00  0.00     0.016 A 
BRANCH  12  15
HETATM   15  O   UNL     1      -6.580   3.876   4.465  1.00  0.00    -0.351 OA
BRANCH  15  16
HETATM   16  C   UNL     1      -5.422   3.905   3.679  1.00  0.00     0.177 C 
BRANCH  16  17
HETATM   17  C   UNL     1      -4.817   5.301   3.806  1.00  0.00     0.057 C 
BRANCH  17  18
HETATM   18  C   UNL     1      -5.131   6.123   2.563  1.00  0.00     0.273 C 
BRANCH  18  19
HETATM   19  N   UNL     1      -4.629   5.525   1.329  1.00  0.00     0.080 N 
HETATM   20  C   UNL     1      -5.722   5.251   0.408  1.00  0.00     0.309 C 
HETATM   21  C   UNL     1      -3.664   6.419   0.688  1.00  0.00     0.309 C 
ENDBRANCH  18  19
ENDBRANCH  17  18
ENDBRANCH  16  17
ENDBRANCH  15  16
ENDBRANCH  12  15
ENDBRANCH   1   9
BRANCH   2  22
HETATM   22  S   UNL     1     -15.278   4.163   3.123  1.00  0.00     0.203 S 
HETATM   23  C   UNL     1     -16.488   2.890   3.030  1.00  0.00     0.170 C 
HETATM   24  O   UNL     1     -14.870   4.397   4.517  1.00  0.00    -0.220 OA
HETATM   25  O   UNL     1     -15.752   5.345   2.465  1.00  0.00    -0.220 OA
ENDBRANCH   2  22
BRANCH   3  26
HETATM   26  N   UNL     1     -13.504   1.747  -0.800  1.00  0.00    -0.376 N 
ATOM     27  HN  UNL     1     -13.116   2.070  -1.686  1.00  0.00     0.161 HD
BRANCH  26  28
HETATM   28  C   UNL     1     -14.404   0.613  -0.799  1.00  0.00     0.123 C 
BRANCH  28  29
HETATM   29  C   UNL     1     -13.788  -0.675  -0.269  1.00  0.00     0.041 C 
BRANCH  29  30
HETATM   30  C   UNL     1     -14.444  -1.113   1.037  1.00  0.00     0.150 C 
BRANCH  30  31
HETATM   31  N   UNL     1     -13.652  -0.606   2.142  1.00  0.00    -0.304 N 
HETATM   32  N   UNL     1     -14.122   0.083   3.216  1.00  0.00    -0.310 N 
HETATM   33  C   UNL     1     -13.095   0.324   4.009  1.00  0.00     0.108 A 
ATOM     34  HN  UNL     1     -15.089   0.363   3.379  1.00  0.00     0.186 HD
HETATM   35  C   UNL     1     -11.962  -0.206   3.425  1.00  0.00     0.037 A 
HETATM   36  C   UNL     1     -12.347  -0.788   2.246  1.00  0.00     0.111 A 
ENDBRANCH  30  31
ENDBRANCH  29  30
ENDBRANCH  28  29
ENDBRANCH  26  28
ENDBRANCH   3  26
TORSDOF 12
ENDMDL
MODEL 17
REMARK VINA RESULT:    -6.781      3.905      6.548
REMARK INTER + INTRA:         -12.890
REMARK INTER:                 -11.889
REMARK INTRA:                  -1.001
REMARK UNBOUND:                -1.352
REMARK  12 active torsions:
REMARK  status: ('A' for Active; 'I' for Inactive)
REMARK    1  A    between atoms: C_1  and  C_2 
REMARK    2  A    between atoms: C_3  and  S_36 
REMARK    3  A    between atoms: C_7  and  N_30 
REMARK    4  A    between atoms: C_9  and  C_10 
REMARK    5  A    between atoms: C_9  and  N_25 
REMARK    6  A    between atoms: C_10  and  C_11 
REMARK    7  A    between atoms: C_11  and  O_35 
REMARK    8  A    between atoms: C_12  and  O_35 
REMARK    9  A    between atoms: C_15  and  N_30 
REMARK   10  A    between atoms: C_15  and  C_16 
REMARK   11  A    between atoms: C_16  and  C_17 
REMARK   12  A    between atoms: C_17  and  N_32 
ROOT
HETATM    1  C   UNL     1      -8.379   2.416   4.468  1.00  0.00     0.048 A 
HETATM    2  C   UNL     1      -9.874   3.518   3.118  1.00  0.00     0.204 A 
HETATM    3  C   UNL     1      -7.699   3.830   2.654  1.00  0.00     0.105 A 
HETATM    4  C   UNL     1      -7.349   2.978   3.700  1.00  0.00     0.078 A 
HETATM    5  N   UNL     1      -9.654   2.696   4.142  1.00  0.00    -0.332 N 
ATOM      6  HN  UNL     1     -10.430   2.291   4.666  1.00  0.00     0.168 HD
HETATM    7  N   UNL     1      -8.956   4.078   2.356  1.00  0.00    -0.319 N 
ATOM      8  HN  UNL     1      -9.209   4.678   1.570  1.00  0.00     0.169 HD
ENDROOT
BRANCH   1   9
HETATM    9  C   UNL     1      -8.124   1.482   5.522  1.00  0.00    -0.009 A 
HETATM   10  C   UNL     1      -6.836   1.160   5.948  1.00  0.00     0.016 A 
HETATM   11  C   UNL     1      -6.618   0.197   6.914  1.00  0.00     0.037 A 
HETATM   12  C   UNL     1      -7.679  -0.495   7.464  1.00  0.00     0.068 A 
HETATM   13  C   UNL     1      -8.963  -0.207   7.061  1.00  0.00     0.037 A 
HETATM   14  C   UNL     1      -9.178   0.765   6.095  1.00  0.00     0.016 A 
BRANCH  12  15
HETATM   15  O   UNL     1      -7.379  -1.463   8.412  1.00  0.00    -0.351 OA
BRANCH  15  16
HETATM   16  C   UNL     1      -6.540  -2.521   8.042  1.00  0.00     0.177 C 
BRANCH  16  17
HETATM   17  C   UNL     1      -7.293  -3.365   7.016  1.00  0.00     0.057 C 
BRANCH  17  18
HETATM   18  C   UNL     1      -6.883  -4.826   7.139  1.00  0.00     0.273 C 
BRANCH  18  19
HETATM   19  N   UNL     1      -5.799  -5.204   6.237  1.00  0.00     0.080 N 
HETATM   20  C   UNL     1      -4.856  -6.088   6.907  1.00  0.00     0.309 C 
HETATM   21  C   UNL     1      -6.334  -5.872   5.050  1.00  0.00     0.309 C 
ENDBRANCH  18  19
ENDBRANCH  17  18
ENDBRANCH  16  17
ENDBRANCH  15  16
ENDBRANCH  12  15
ENDBRANCH   1   9
BRANCH   2  22
HETATM   22  S   UNL     1     -11.582   3.883   2.690  1.00  0.00     0.203 S 
HETATM   23  C   UNL     1     -11.586   4.026   0.937  1.00  0.00     0.170 C 
HETATM   24  O   UNL     1     -12.438   2.768   3.126  1.00  0.00    -0.220 OA
HETATM   25  O   UNL     1     -11.935   5.137   3.289  1.00  0.00    -0.220 OA
ENDBRANCH   2  22
BRANCH   3  26
HETATM   26  N   UNL     1      -6.757   4.465   1.824  1.00  0.00    -0.376 N 
ATOM     27  HN  UNL     1      -7.031   4.732   0.878  1.00  0.00     0.161 HD
BRANCH  26  28
HETATM   28  C   UNL     1      -5.410   4.749   2.272  1.00  0.00     0.123 C 
BRANCH  28  29
HETATM   29  C   UNL     1      -4.847   6.070   1.763  1.00  0.00     0.041 C 
BRANCH  29  30
HETATM   30  C   UNL     1      -4.018   5.873   0.497  1.00  0.00     0.150 C 
BRANCH  30  31
HETATM   31  N   UNL     1      -4.717   6.497  -0.611  1.00  0.00    -0.304 N 
HETATM   32  N   UNL     1      -4.183   7.371  -1.506  1.00  0.00    -0.310 N 
HETATM   33  C   UNL     1      -5.130   7.670  -2.376  1.00  0.00     0.108 A 
ATOM     34  HN  UNL     1      -3.229   7.730  -1.505  1.00  0.00     0.186 HD
HETATM   35  C   UNL     1      -6.277   6.989  -2.021  1.00  0.00     0.037 A 
HETATM   36  C   UNL     1      -5.984   6.256  -0.902  1.00  0.00     0.111 A 
ENDBRANCH  30  31
ENDBRANCH  29  30
ENDBRANCH  28  29
ENDBRANCH  26  28
ENDBRANCH   3  26
TORSDOF 12
ENDMDL
MODEL 18
REMARK VINA RESULT:    -6.769      3.631      9.337
REMARK INTER + INTRA:         -12.869
REMARK INTER:                 -10.845
REMARK INTRA:                  -2.025
REMARK UNBOUND:                -1.352
REMARK  12 active torsions:
REMARK  status: ('A' for Active; 'I' for Inactive)
REMARK    1  A    between atoms: C_1  and  C_2 
REMARK    2  A    between atoms: C_3  and  S_36 
REMARK    3  A    between atoms: C_7  and  N_30 
REMARK    4  A    between atoms: C_9  and  C_10 
REMARK    5  A    between atoms: C_9  and  N_25 
REMARK    6  A    between atoms: C_10  and  C_11 
REMARK    7  A    between atoms: C_11  and  O_35 
REMARK    8  A    between atoms: C_12  and  O_35 
REMARK    9  A    between atoms: C_15  and  N_30 
REMARK   10  A    between atoms: C_15  and  C_16 
REMARK   11  A    between atoms: C_16  and  C_17 
REMARK   12  A    between atoms: C_17  and  N_32 
ROOT
HETATM    1  C   UNL     1      -5.931   4.110   4.024  1.00  0.00     0.048 A 
HETATM    2  C   UNL     1      -5.840   4.921   1.879  1.00  0.00     0.204 A 
HETATM    3  C   UNL     1      -7.809   4.063   2.533  1.00  0.00     0.105 A 
HETATM    4  C   UNL     1      -7.276   3.788   3.792  1.00  0.00     0.078 A 
HETATM    5  N   UNL     1      -5.227   4.697   3.039  1.00  0.00    -0.332 N 
ATOM      6  HN  UNL     1      -4.252   4.963   3.178  1.00  0.00     0.168 HD
HETATM    7  N   UNL     1      -7.097   4.645   1.593  1.00  0.00    -0.319 N 
ATOM      8  HN  UNL     1      -7.500   4.873   0.684  1.00  0.00     0.169 HD
ENDROOT
BRANCH   1   9
HETATM    9  C   UNL     1      -5.311   3.924   5.301  1.00  0.00    -0.009 A 
HETATM   10  C   UNL     1      -4.340   4.791   5.800  1.00  0.00     0.016 A 
HETATM   11  C   UNL     1      -3.704   4.544   7.001  1.00  0.00     0.037 A 
HETATM   12  C   UNL     1      -3.998   3.407   7.727  1.00  0.00     0.068 A 
HETATM   13  C   UNL     1      -4.947   2.525   7.259  1.00  0.00     0.037 A 
HETATM   14  C   UNL     1      -5.588   2.782   6.056  1.00  0.00     0.016 A 
BRANCH  12  15
HETATM   15  O   UNL     1      -3.302   3.215   8.912  1.00  0.00    -0.351 OA
BRANCH  15  16
HETATM   16  C   UNL     1      -1.964   3.624   8.973  1.00  0.00     0.177 C 
BRANCH  16  17
HETATM   17  C   UNL     1      -1.105   2.451   8.508  1.00  0.00     0.057 C 
BRANCH  17  18
HETATM   18  C   UNL     1      -1.553   1.168   9.195  1.00  0.00     0.273 C 
BRANCH  18  19
HETATM   19  N   UNL     1      -1.859   0.086   8.263  1.00  0.00     0.080 N 
HETATM   20  C   UNL     1      -3.190  -0.449   8.514  1.00  0.00     0.309 C 
HETATM   21  C   UNL     1      -1.779   0.566   6.883  1.00  0.00     0.309 C 
ENDBRANCH  18  19
ENDBRANCH  17  18
ENDBRANCH  16  17
ENDBRANCH  15  16
ENDBRANCH  12  15
ENDBRANCH   1   9
BRANCH   2  22
HETATM   22  S   UNL     1      -4.890   5.708   0.570  1.00  0.00     0.203 S 
HETATM   23  C   UNL     1      -6.070   6.083  -0.679  1.00  0.00     0.170 C 
HETATM   24  O   UNL     1      -4.273   6.937   1.094  1.00  0.00    -0.220 OA
HETATM   25  O   UNL     1      -3.934   4.759   0.078  1.00  0.00    -0.220 OA
ENDBRANCH   2  22
BRANCH   3  26
HETATM   26  N   UNL     1      -9.139   3.773   2.175  1.00  0.00    -0.376 N 
ATOM     27  HN  UNL     1      -9.677   4.471   1.663  1.00  0.00     0.161 HD
BRANCH  26  28
HETATM   28  C   UNL     1      -9.765   2.512   2.513  1.00  0.00     0.123 C 
BRANCH  28  29
HETATM   29  C   UNL     1     -11.040   2.647   3.335  1.00  0.00     0.041 C 
BRANCH  29  30
HETATM   30  C   UNL     1     -11.184   1.504   4.336  1.00  0.00     0.150 C 
BRANCH  30  31
HETATM   31  N   UNL     1     -10.258   1.731   5.430  1.00  0.00    -0.304 N 
HETATM   32  N   UNL     1      -9.996   2.927   6.023  1.00  0.00    -0.310 N 
HETATM   33  C   UNL     1      -9.135   2.701   6.998  1.00  0.00     0.108 A 
ATOM     34  HN  UNL     1     -10.391   3.830   5.763  1.00  0.00     0.186 HD
HETATM   35  C   UNL     1      -8.839   1.353   7.013  1.00  0.00     0.037 A 
HETATM   36  C   UNL     1      -9.565   0.767   6.010  1.00  0.00     0.111 A 
ENDBRANCH  30  31
ENDBRANCH  29  30
ENDBRANCH  28  29
ENDBRANCH  26  28
ENDBRANCH   3  26
TORSDOF 12
ENDMDL
MODEL 19
REMARK VINA RESULT:    -6.725      3.548      5.978
REMARK INTER + INTRA:         -12.795
REMARK INTER:                 -10.917
REMARK INTRA:                  -1.878
REMARK UNBOUND:                -1.352
REMARK  12 active torsions:
REMARK  status: ('A' for Active; 'I' for Inactive)
REMARK    1  A    between atoms: C_1  and  C_2 
REMARK    2  A    between atoms: C_3  and  S_36 
REMARK    3  A    between atoms: C_7  and  N_30 
REMARK    4  A    between atoms: C_9  and  C_10 
REMARK    5  A    between atoms: C_9  and  N_25 
REMARK    6  A    between atoms: C_10  and  C_11 
REMARK    7  A    between atoms: C_11  and  O_35 
REMARK    8  A    between atoms: C_12  and  O_35 
REMARK    9  A    between atoms: C_15  and  N_30 
REMARK   10  A    between atoms: C_15  and  C_16 
REMARK   11  A    between atoms: C_16  and  C_17 
REMARK   12  A    between atoms: C_17  and  N_32 
ROOT
HETATM    1  C   UNL     1      -7.005   4.453   3.293  1.00  0.00     0.048 A 
HETATM    2  C   UNL     1      -5.141   5.333   2.283  1.00  0.00     0.204 A 
HETATM    3  C   UNL     1      -4.883   4.625   4.398  1.00  0.00     0.105 A 
HETATM    4  C   UNL     1      -6.220   4.230   4.434  1.00  0.00     0.078 A 
HETATM    5  N   UNL     1      -6.429   5.003   2.209  1.00  0.00    -0.332 N 
ATOM      6  HN  UNL     1      -6.963   5.162   1.355  1.00  0.00     0.168 HD
HETATM    7  N   UNL     1      -4.347   5.152   3.320  1.00  0.00    -0.319 N 
ATOM      8  HN  UNL     1      -3.361   5.411   3.287  1.00  0.00     0.169 HD
ENDROOT
BRANCH   1   9
HETATM    9  C   UNL     1      -8.369   4.027   3.210  1.00  0.00    -0.009 A 
HETATM   10  C   UNL     1      -8.741   2.787   2.692  1.00  0.00     0.016 A 
HETATM   11  C   UNL     1     -10.070   2.435   2.554  1.00  0.00     0.037 A 
HETATM   12  C   UNL     1     -11.069   3.324   2.900  1.00  0.00     0.068 A 
HETATM   13  C   UNL     1     -10.736   4.560   3.408  1.00  0.00     0.037 A 
HETATM   14  C   UNL     1      -9.401   4.905   3.552  1.00  0.00     0.016 A 
BRANCH  12  15
HETATM   15  O   UNL     1     -12.379   2.908   2.711  1.00  0.00    -0.351 OA
BRANCH  15  16
HETATM   16  C   UNL     1     -13.096   3.436   1.630  1.00  0.00     0.177 C 
BRANCH  16  17
HETATM   17  C   UNL     1     -14.325   4.142   2.197  1.00  0.00     0.057 C 
BRANCH  17  18
HETATM   18  C   UNL     1     -14.751   3.485   3.503  1.00  0.00     0.273 C 
BRANCH  18  19
HETATM   19  N   UNL     1     -15.762   4.245   4.233  1.00  0.00     0.080 N 
HETATM   20  C   UNL     1     -16.657   4.929   3.311  1.00  0.00     0.309 C 
HETATM   21  C   UNL     1     -16.538   3.356   5.098  1.00  0.00     0.309 C 
ENDBRANCH  18  19
ENDBRANCH  17  18
ENDBRANCH  16  17
ENDBRANCH  15  16
ENDBRANCH  12  15
ENDBRANCH   1   9
BRANCH   2  22
HETATM   22  S   UNL     1      -4.380   6.065   0.827  1.00  0.00     0.203 S 
HETATM   23  C   UNL     1      -3.058   7.041   1.454  1.00  0.00     0.170 C 
HETATM   24  O   UNL     1      -3.873   4.993  -0.043  1.00  0.00    -0.220 OA
HETATM   25  O   UNL     1      -5.353   6.902   0.188  1.00  0.00    -0.220 OA
ENDBRANCH   2  22
BRANCH   3  26
HETATM   26  N   UNL     1      -4.001   4.468   5.483  1.00  0.00    -0.376 N 
ATOM     27  HN  UNL     1      -3.419   5.256   5.766  1.00  0.00     0.161 HD
BRANCH  26  28
HETATM   28  C   UNL     1      -3.895   3.220   6.210  1.00  0.00     0.123 C 
BRANCH  28  29
HETATM   29  C   UNL     1      -4.612   3.217   7.554  1.00  0.00     0.041 C 
BRANCH  29  30
HETATM   30  C   UNL     1      -5.284   1.874   7.826  1.00  0.00     0.150 C 
BRANCH  30  31
HETATM   31  N   UNL     1      -6.601   1.888   7.216  1.00  0.00    -0.304 N 
HETATM   32  N   UNL     1      -7.600   2.771   7.483  1.00  0.00    -0.310 N 
HETATM   33  C   UNL     1      -8.613   2.470   6.692  1.00  0.00     0.108 A 
ATOM     34  HN  UNL     1      -7.572   3.526   8.168  1.00  0.00     0.186 HD
HETATM   35  C   UNL     1      -8.256   1.378   5.926  1.00  0.00     0.037 A 
HETATM   36  C   UNL     1      -6.978   1.034   6.280  1.00  0.00     0.111 A 
ENDBRANCH  30  31
ENDBRANCH  29  30
ENDBRANCH  28  29
ENDBRANCH  26  28
ENDBRANCH   3  26
TORSDOF 12
ENDMDL
MODEL 20
REMARK VINA RESULT:    -6.697      3.089      5.943
REMARK INTER + INTRA:         -12.746
REMARK INTER:                 -11.508
REMARK INTRA:                  -1.238
REMARK UNBOUND:                -1.352
REMARK  12 active torsions:
REMARK  status: ('A' for Active; 'I' for Inactive)
REMARK    1  A    between atoms: C_1  and  C_2 
REMARK    2  A    between atoms: C_3  and  S_36 
REMARK    3  A    between atoms: C_7  and  N_30 
REMARK    4  A    between atoms: C_9  and  C_10 
REMARK    5  A    between atoms: C_9  and  N_25 
REMARK    6  A    between atoms: C_10  and  C_11 
REMARK    7  A    between atoms: C_11  and  O_35 
REMARK    8  A    between atoms: C_12  and  O_35 
REMARK    9  A    between atoms: C_15  and  N_30 
REMARK   10  A    between atoms: C_15  and  C_16 
REMARK   11  A    between atoms: C_16  and  C_17 
REMARK   12  A    between atoms: C_17  and  N_32 
ROOT
HETATM    1  C   UNL     1      -7.448   4.257   2.850  1.00  0.00     0.048 A 
HETATM    2  C   UNL     1      -5.468   5.103   2.052  1.00  0.00     0.204 A 
HETATM    3  C   UNL     1      -5.474   4.446   4.199  1.00  0.00     0.105 A 
HETATM    4  C   UNL     1      -6.808   4.059   4.082  1.00  0.00     0.078 A 
HETATM    5  N   UNL     1      -6.740   4.777   1.830  1.00  0.00    -0.332 N 
ATOM      6  HN  UNL     1      -7.166   4.918   0.914  1.00  0.00     0.168 HD
HETATM    7  N   UNL     1      -4.807   4.944   3.181  1.00  0.00    -0.319 N 
ATOM      8  HN  UNL     1      -3.821   5.196   3.261  1.00  0.00     0.169 HD
ENDROOT
BRANCH   1   9
HETATM    9  C   UNL     1      -8.795   3.837   2.613  1.00  0.00    -0.009 A 
HETATM   10  C   UNL     1      -9.842   4.737   2.417  1.00  0.00     0.016 A 
HETATM   11  C   UNL     1     -11.145   4.303   2.267  1.00  0.00     0.037 A 
HETATM   12  C   UNL     1     -11.446   2.958   2.338  1.00  0.00     0.068 A 
HETATM   13  C   UNL     1     -10.438   2.042   2.538  1.00  0.00     0.037 A 
HETATM   14  C   UNL     1      -9.131   2.482   2.681  1.00  0.00     0.016 A 
BRANCH  12  15
HETATM   15  O   UNL     1     -12.780   2.601   2.202  1.00  0.00    -0.351 OA
BRANCH  15  16
HETATM   16  C   UNL     1     -13.499   3.112   1.114  1.00  0.00     0.177 C 
BRANCH  16  17
HETATM   17  C   UNL     1     -13.407   2.090  -0.017  1.00  0.00     0.057 C 
BRANCH  17  18
HETATM   18  C   UNL     1     -13.794   0.709   0.492  1.00  0.00     0.273 C 
BRANCH  18  19
HETATM   19  N   UNL     1     -14.955   0.142  -0.189  1.00  0.00     0.080 N 
HETATM   20  C   UNL     1     -14.739  -1.265  -0.492  1.00  0.00     0.309 C 
HETATM   21  C   UNL     1     -16.151   0.284   0.643  1.00  0.00     0.309 C 
ENDBRANCH  18  19
ENDBRANCH  17  18
ENDBRANCH  16  17
ENDBRANCH  15  16
ENDBRANCH  12  15
ENDBRANCH   1   9
BRANCH   2  22
HETATM   22  S   UNL     1      -4.532   5.794   0.681  1.00  0.00     0.203 S 
HETATM   23  C   UNL     1      -5.745   6.247  -0.509  1.00  0.00     0.170 C 
HETATM   24  O   UNL     1      -3.791   6.976   1.149  1.00  0.00    -0.220 OA
HETATM   25  O   UNL     1      -3.683   4.765   0.155  1.00  0.00    -0.220 OA
ENDBRANCH   2  22
BRANCH   3  26
HETATM   26  N   UNL     1      -4.730   4.312   5.386  1.00  0.00    -0.376 N 
ATOM     27  HN  UNL     1      -3.761   4.631   5.402  1.00  0.00     0.161 HD
BRANCH  26  28
HETATM   28  C   UNL     1      -5.299   3.734   6.585  1.00  0.00     0.123 C 
BRANCH  28  29
HETATM   29  C   UNL     1      -4.274   3.125   7.533  1.00  0.00     0.041 C 
BRANCH  29  30
HETATM   30  C   UNL     1      -3.064   2.585   6.777  1.00  0.00     0.150 C 
BRANCH  30  31
HETATM   31  N   UNL     1      -2.992   1.151   6.990  1.00  0.00    -0.304 N 
HETATM   32  N   UNL     1      -4.004   0.352   7.422  1.00  0.00    -0.310 N 
HETATM   33  C   UNL     1      -3.547  -0.886   7.443  1.00  0.00     0.108 A 
ATOM     34  HN  UNL     1      -4.943   0.654   7.681  1.00  0.00     0.186 HD
HETATM   35  C   UNL     1      -2.228  -0.868   7.034  1.00  0.00     0.037 A 
HETATM   36  C   UNL     1      -1.907   0.434   6.755  1.00  0.00     0.111 A 
ENDBRANCH  30  31
ENDBRANCH  29  30
ENDBRANCH  28  29
ENDBRANCH  26  28
ENDBRANCH   3  26
TORSDOF 12
ENDMDL
