REMARK  7 active torsions:
REMARK  status: ('A' for Active; 'I' for Inactive)
REMARK    1  A    between atoms: C_3  and  C_22 
REMARK    2  A    between atoms: C_8  and  C_9 
REMARK    3  A    between atoms: C_9  and  C_10 
REMARK    4  A    between atoms: C_10  and  N_11 
REMARK    5  A    between atoms: C_10  and  C_22 
REMARK       I    between atoms: N_11  and  C_12 
REMARK    6  A    between atoms: C_12  and  C_14 
REMARK    7  A    between atoms: C_22  and  O_23 
ROOT
HETATM    1  C   UNL     1      -0.838   2.342  -0.814  1.00  0.00     0.118 C 
ENDROOT
BRANCH   1   2
HETATM    2  C   UNL     1      -1.042   2.483  -2.339  1.00  0.00     0.028 C 
BRANCH   2   3
HETATM    3  C   UNL     1      -2.332   1.797  -2.814  1.00  0.00    -0.002 C 
HETATM    4  C   UNL     1      -2.554   2.015  -4.308  1.00  0.00     0.005 C 
ENDBRANCH   2   3
ENDBRANCH   1   2
BRANCH   1   5
HETATM    5  N   UNL     1      -0.863   0.930  -0.400  1.00  0.00    -0.349 N 
HETATM    6  C   UNL     1       0.173  -0.021  -0.703  1.00  0.00     0.252 C 
HETATM    7  O   UNL     1       0.926   0.167  -1.695  1.00  0.00    -0.268 OA
HETATM    8  H   UNL     1      -1.649   0.630   0.220  1.00  0.00     0.163 HD
BRANCH   6   9
HETATM    9  C   UNL     1       0.379  -1.206   0.163  1.00  0.00     0.041 A 
HETATM   10  C   UNL     1       0.961  -2.391  -0.325  1.00  0.00    -0.007 A 
HETATM   11  C   UNL     1       1.150  -3.484   0.502  1.00  0.00     0.042 A 
HETATM   12  C   UNL     1       1.417  -2.719  -1.718  1.00  0.00     0.145 A 
HETATM   13  C   UNL     1       0.794  -3.456   1.848  1.00  0.00     0.030 A 
HETATM   14  N   UNL     1       1.711  -4.586  -0.185  1.00  0.00    -0.326 N 
HETATM   15  C   UNL     1       0.229  -2.282   2.362  1.00  0.00     0.003 A 
HETATM   16  C   UNL     1       0.021  -1.167   1.530  1.00  0.00     0.018 A 
HETATM   17  C   UNL     1       1.867  -4.134  -1.523  1.00  0.00     0.226 A 
HETATM   18  H   UNL     1       1.942  -5.529   0.200  1.00  0.00     0.169 HD
HETATM   19  O   UNL     1       2.338  -4.858  -2.439  1.00  0.00    -0.273 OA
ENDBRANCH   6   9
ENDBRANCH   1   5
BRANCH   1  20
HETATM   20  C   UNL     1       0.465   3.048  -0.335  1.00  0.00     0.174 C 
BRANCH  20  21
HETATM   21  C   UNL     1       0.884   2.628   1.074  1.00  0.00    -0.020 A 
HETATM   22  C   UNL     1       0.097   2.860   2.245  1.00  0.00    -0.031 A 
HETATM   23  C   UNL     1      -1.221   3.600   2.199  1.00  0.00     0.050 C 
HETATM   24  C   UNL     1       0.525   2.312   3.480  1.00  0.00     0.040 A 
HETATM   25  C   UNL     1       1.730   1.613   3.564  1.00  0.00     0.024 A 
HETATM   26 CL   UNL     1      -0.435   2.448   4.952  1.00  0.00    -0.084 Cl
HETATM   27  C   UNL     1       2.519   1.432   2.436  1.00  0.00     0.002 A 
HETATM   28  C   UNL     1       2.102   1.929   1.205  1.00  0.00     0.010 A 
ENDBRANCH  20  21
BRANCH  20  29
HETATM   29  O   UNL     1       0.326   4.446  -0.385  1.00  0.00    -0.389 OA
HETATM   30  H   UNL     1       0.531   4.735  -1.312  1.00  0.00     0.210 HD
ENDBRANCH  20  29
ENDBRANCH   1  20
TORSDOF 7
