REMARK  14 active torsions:
REMARK  status: ('A' for Active; 'I' for Inactive)
REMARK    1  A    between atoms: C_1  and  C_2 
REMARK    2  A    between atoms: C_1  and  C_9 
REMARK    3  A    between atoms: C_2  and  C_3 
REMARK       I    between atoms: C_3  and  N_10 
REMARK    4  A    between atoms: C_5  and  O_6 
REMARK    5  A    between atoms: C_5  and  C_9 
REMARK    6  A    between atoms: N_8  and  C_9 
REMARK    7  A    between atoms: N_10  and  C_11 
REMARK    8  A    between atoms: C_11  and  C_12 
REMARK    9  A    between atoms: C_11  and  C_16 
REMARK   10  A    between atoms: C_12  and  S_13 
REMARK   11  A    between atoms: S_13  and  O_15 
REMARK       I    between atoms: C_16  and  N_23 
REMARK   12  A    between atoms: N_23  and  CA_24 
REMARK   13  A    between atoms: CA_24  and  C_25 
REMARK   14  A    between atoms: C_25  and  O_26 
ROOT
HETATM    1  C   UNK A   1       0.350  -1.160  -2.187  1.00  0.00     0.190 C 
ENDROOT
BRANCH   1   2
HETATM    2  N   UNK A   1      -0.604  -0.072  -1.944  1.00  0.00    -0.347 N 
HETATM    3  C   UNK A   1      -0.305   1.123  -1.203  1.00  0.00     0.218 C 
HETATM    4  O   UNK A   1       0.881   1.395  -0.872  1.00  0.00    -0.274 OA
HETATM    5  H   UNK A   1      -1.585  -0.214  -2.275  1.00  0.00     0.163 HD
BRANCH   3   6
HETATM    6  C   UNK A   1      -1.412   2.048  -0.786  1.00  0.00     0.105 C 
BRANCH   6   7
HETATM    7  C   UNK A   1      -1.599   2.071   0.741  1.00  0.00     0.056 C 
BRANCH   7   8
HETATM    8  C   UNK A   1      -1.907   0.689   1.358  1.00  0.00     0.315 C 
BRANCH   8   9
HETATM    9  C   UNK A   1      -1.948   0.815   2.856  1.00  0.00     0.173 C 
HETATM   10  O   UNK A   1      -2.985   1.244   3.432  1.00  0.00    -0.648 OA
BRANCH   9  11
HETATM   11  O   UNK A   1      -0.816   0.509   3.606  1.00  0.00    -0.775 OA
HETATM   12  H   UNK A   1      -0.822   0.591   4.615  1.00  0.00     0.167 HD
ENDBRANCH   9  11
ENDBRANCH   8   9
BRANCH   8  13
HETATM   13  N   UNK A   1      -3.183   0.165   0.862  1.00  0.00     0.093 N 
HETATM   14  H   UNK A   1      -3.057  -0.137  -0.131  1.00  0.00     0.314 HD
HETATM   15  H   UNK A   1      -3.407  -0.714   1.384  1.00  0.00     0.314 HD
ENDBRANCH   8  13
ENDBRANCH   7   8
ENDBRANCH   6   7
ENDBRANCH   3   6
ENDBRANCH   1   2
BRANCH   1  16
HETATM   16  C   UNK A   1       1.544  -0.678  -3.032  1.00  0.00     0.174 C 
BRANCH  16  17
HETATM   17  S   UNK A   1       2.463  -2.078  -3.724  1.00  0.00     0.152 S 
HETATM   18  O   UNK A   1       3.511  -1.427  -4.618  1.00  0.00    -0.229 OA
BRANCH  17  19
HETATM   19  O   UNK A   1       3.373  -2.697  -2.420  1.00  0.00    -0.306 OA
HETATM   20  H   UNK A   1       3.900  -1.931  -2.078  1.00  0.00     0.230 HD
ENDBRANCH  17  19
ENDBRANCH  16  17
ENDBRANCH   1  16
BRANCH   1  21
HETATM   21  C   UNK A   1       0.759  -1.795  -0.880  1.00  0.00     0.241 C 
HETATM   22  O   UNK A   1       1.711  -1.311  -0.209  1.00  0.00    -0.271 OA
ATOM     23  N   GLY A   2       0.028  -2.923  -0.378  1.00  0.00    -0.349 N 
ATOM     24  H   GLY A   2      -0.782  -3.290  -0.928  1.00  0.00     0.163 HD
BRANCH  23  25
ATOM     25  CA  GLY A   2       0.409  -3.625   0.844  1.00  0.00     0.232 C 
BRANCH  25  26
ATOM     26  C   GLY A   2       0.050  -2.813   2.046  1.00  0.00     0.158 C 
ATOM     27  OXT GLY A   2      -1.160  -2.582   2.312  1.00  0.00    -0.649 OA
BRANCH  26  28
ATOM     28  O   GLY A   2       1.053  -2.306   2.866  1.00  0.00    -0.775 OA
ATOM     29  H   GLY A   2       0.828  -1.752   3.683  1.00  0.00     0.167 HD
ENDBRANCH  26  28
ENDBRANCH  25  26
ENDBRANCH  23  25
ENDBRANCH   1  21
TORSDOF 14
