REMARK  0 active torsions:
REMARK  status: ('A' for Active; 'I' for Inactive)
ROOT
HETATM    1  C   UNL     1       4.405  -3.365  18.414  1.00  0.00     0.115 A 
HETATM    2  N   UNL     1       3.734  -4.364  17.808  1.00  0.00    -0.385 N 
ATOM      3  HN1 UNL     1       4.183  -5.271  17.680  1.00  0.00     0.157 HD
ATOM      4  HN2 UNL     1       2.797  -4.222  17.432  1.00  0.00     0.157 HD
HETATM    5  C   UNL     1       4.486  -1.176  19.183  1.00  0.00     0.183 A 
HETATM    6  N   UNL     1       3.817  -2.179  18.582  1.00  0.00    -0.338 N 
ATOM      7  HN  UNL     1       2.862  -2.032  18.256  1.00  0.00     0.168 HD
HETATM    8  C   UNL     1       6.341  -2.493  19.518  1.00  0.00     0.136 A 
HETATM    9  N   UNL     1       5.736  -1.303  19.639  1.00  0.00    -0.337 N 
ATOM     10  HN  UNL     1       6.218  -0.513  20.069  1.00  0.00     0.168 HD
HETATM   11  C   UNL     1       5.696  -3.561  18.932  1.00  0.00     0.070 A 
HETATM   12  N   UNL     1       7.729  -4.240  19.477  1.00  0.00    -0.309 N 
ATOM     13  HN  UNL     1       8.560  -4.811  19.630  1.00  0.00     0.186 HD
HETATM   14  C   UNL     1       6.609  -4.641  18.897  1.00  0.00     0.126 A 
HETATM   15  N   UNL     1       7.579  -2.916  19.839  1.00  0.00    -0.285 N 
ATOM     16  HN  UNL     1       8.298  -2.344  20.283  1.00  0.00     0.188 HD
ENDROOT
TORSDOF 0
