REMARK  4 active torsions:
REMARK  status: ('A' for Active; 'I' for Inactive)
REMARK    1  A    between atoms: C_1  and  C_10 
REMARK    2  A    between atoms: C_1  and  C_11 
REMARK    3  A    between atoms: C_8  and  N_14 
REMARK       I    between atoms: C_9  and  N_14 
REMARK    4  A    between atoms: C_9  and  C_10 
ROOT
HETATM    1  C   UNL     1      13.923   8.882  15.151  1.00  0.00     0.236 C 
HETATM    2  N   UNL     1      12.578   8.957  14.575  1.00  0.00    -0.326 N 
ATOM      3  HN  UNL     1      12.467   9.089  13.570  1.00  0.00     0.169 HD
HETATM    4  O   UNL     1      14.013   8.985  16.329  1.00  0.00    -0.272 OA
ENDROOT
BRANCH   2   5
HETATM    5  C   UNL     1      11.400   8.846  15.419  1.00  0.00     0.034 A 
HETATM    6  C   UNL     1      10.565   7.732  15.059  1.00  0.00     0.030 A 
HETATM    7  C   UNL     1       9.441   7.376  15.786  1.00  0.00     0.009 A 
HETATM    8  C   UNL     1       9.137   8.091  16.903  1.00  0.00    -0.062 A 
HETATM    9  C   UNL     1       7.896   7.713  17.705  1.00  0.00     0.048 C 
HETATM   10  C   UNL     1       9.964   9.122  17.312  1.00  0.00     0.009 A 
HETATM   11  C   UNL     1      11.115   9.471  16.602  1.00  0.00     0.030 A 
ENDBRANCH   2   5
BRANCH   1  12
HETATM   12  C   UNL     1      15.187   8.732  14.222  1.00  0.00     0.151 C 
HETATM   13  S   UNL     1      15.320   6.937  13.579  1.00  0.00    -0.082 SA
BRANCH  12  14
HETATM   14  C   UNL     1      15.082   9.943  13.328  1.00  0.00     0.029 C 
BRANCH  14  15
HETATM   15  C   UNL     1      15.535  11.101  14.220  1.00  0.00    -0.021 C 
HETATM   16  C   UNL     1      14.762  12.387  13.927  1.00  0.00     0.009 C 
HETATM   17  C   UNL     1      17.023  11.381  13.994  1.00  0.00     0.009 C 
ENDBRANCH  14  15
ENDBRANCH  12  14
ENDBRANCH   1  12
TORSDOF 4
