REMARK  11 active torsions:
REMARK  status: ('A' for Active; 'I' for Inactive)
REMARK    1  A    between atoms: P_1  and  N_8 
REMARK    2  A    between atoms: P_5  and  N_8 
REMARK    3  A    between atoms: P_5  and  O_13 
REMARK    4  A    between atoms: P_10  and  O_14 
REMARK    5  A    between atoms: P_10  and  O_13 
REMARK    6  A    between atoms: O_14  and  C_15 
REMARK    7  A    between atoms: C_15  and  C_16 
REMARK    8  A    between atoms: C_18  and  O_19 
REMARK    9  A    between atoms: C_21  and  O_22 
REMARK   10  A    between atoms: C_24  and  N_25 
REMARK   11  A    between atoms: C_30  and  N_31 
ROOT
HETATM    1  C   UNL     1     -30.989  -4.768  14.311  1.00  0.00     0.180 C 
HETATM    2  O   UNL     1     -31.089  -5.959  15.117  1.00  0.00    -0.353 OA
HETATM    3  C   UNL     1     -32.031  -3.839  14.914  1.00  0.00     0.182 C 
HETATM    4  C   UNL     1     -33.175  -4.803  15.221  1.00  0.00     0.198 C 
HETATM    5  C   UNL     1     -32.428  -6.099  15.563  1.00  0.00     0.262 C 
ENDROOT
BRANCH   1   6
HETATM    6  C   UNL     1     -29.586  -4.238  14.375  1.00  0.00     0.216 C 
BRANCH   6   7
HETATM    7  O   UNL     1     -29.418  -3.708  15.701  1.00  0.00    -0.287 OA
BRANCH   7   8
HETATM    8  P   UNL     1     -28.256  -2.728  16.051  1.00  0.00     0.417 P 
HETATM    9  O   UNL     1     -28.448  -2.196  17.410  1.00  0.00    -0.624 OA
HETATM   10  O   UNL     1     -26.926  -3.446  15.817  1.00  0.00    -0.624 OA
BRANCH   8  11
HETATM   11  O   UNL     1     -28.347  -1.553  14.980  1.00  0.00    -0.186 OA
BRANCH  11  12
HETATM   12  P   UNL     1     -29.087  -0.154  15.106  1.00  0.00     0.379 P 
HETATM   13  O   UNL     1     -30.208  -0.261  16.023  1.00  0.00    -0.629 OA
HETATM   14  O   UNL     1     -29.615   0.137  13.647  1.00  0.00    -0.629 OA
BRANCH  12  15
HETATM   15  N   UNL     1     -27.966   0.925  15.671  1.00  0.00    -0.218 N 
ATOM     16  HN  UNL     1     -27.491   1.472  14.953  1.00  0.00     0.179 HD
BRANCH  15  17
HETATM   17  P   UNL     1     -27.494   1.254  17.240  1.00  0.00     0.381 P 
HETATM   18  O   UNL     1     -28.672   0.925  18.240  1.00  0.00    -0.622 OA
HETATM   19  O   UNL     1     -27.144   2.784  17.304  1.00  0.00    -0.622 OA
HETATM   20  O   UNL     1     -26.320   0.531  17.706  1.00  0.00    -0.622 OA
ENDBRANCH  15  17
ENDBRANCH  12  15
ENDBRANCH  11  12
ENDBRANCH   8  11
ENDBRANCH   7   8
ENDBRANCH   6   7
ENDBRANCH   1   6
BRANCH   3  21
HETATM   21  O   UNL     1     -32.382  -2.818  13.990  1.00  0.00    -0.390 OA
ATOM     22  HO  UNL     1     -33.033  -2.238  14.367  1.00  0.00     0.210 HD
ENDBRANCH   3  21
BRANCH   5  23
HETATM   23  N   UNL     1     -32.431  -6.435  16.982  1.00  0.00    -0.297 N 
HETATM   24  C   UNL     1     -33.229  -7.373  17.594  1.00  0.00     0.142 A 
HETATM   25  N   UNL     1     -34.149  -8.174  17.017  1.00  0.00    -0.336 N 
HETATM   26  C   UNL     1     -32.900  -7.327  18.937  1.00  0.00     0.122 A 
HETATM   27  C   UNL     1     -34.740  -8.965  17.924  1.00  0.00     0.183 A 
ATOM     28  HN  UNL     1     -34.367  -8.177  16.020  1.00  0.00     0.168 HD
HETATM   29  N   UNL     1     -34.515  -9.035  19.245  1.00  0.00    -0.337 N 
HETATM   30  C   UNL     1     -33.597  -8.205  19.796  1.00  0.00     0.131 A 
ATOM     31  HN  UNL     1     -35.026  -9.701  19.824  1.00  0.00     0.168 HD
HETATM   32  N   UNL     1     -31.910  -6.381  19.170  1.00  0.00    -0.346 N 
HETATM   33  C   UNL     1     -31.670  -5.885  17.980  1.00  0.00     0.188 A 
ATOM     34  HN  UNL     1     -31.473  -6.131  20.057  1.00  0.00     0.167 HD
BRANCH  30  35
HETATM   35  N   UNL     1     -33.442  -8.216  21.118  1.00  0.00    -0.383 N 
ATOM     36  HN2 UNL     1     -33.945  -8.850  21.738  1.00  0.00     0.157 HD
ATOM     37  HN1 UNL     1     -32.751  -7.591  21.533  1.00  0.00     0.157 HD
ENDBRANCH  30  35
ENDBRANCH   5  23
BRANCH   4  38
HETATM   38  O   UNL     1     -33.961  -5.013  14.061  1.00  0.00    -0.388 OA
ATOM     39  HO  UNL     1     -34.423  -4.211  13.849  1.00  0.00     0.210 HD
ENDBRANCH   4  38
TORSDOF 11
