REMARK  8 active torsions:
REMARK  status: ('A' for Active; 'I' for Inactive)
REMARK    1  A    between atoms: C_2  and  C_12 
REMARK    2  A    between atoms: C_2  and  O_19 
REMARK    3  A    between atoms: C_3  and  CA_6 
REMARK    4  A    between atoms: C_5  and  CA_6 
REMARK    5  A    between atoms: C_7  and  N_13 
REMARK    6  A    between atoms: C_7  and  C_8 
REMARK    7  A    between atoms: C_9  and  O_17 
REMARK    8  A    between atoms: O_19  and  P_25 
ROOT
HETATM    1  C   UNL     1      -2.983 -32.687  16.859  1.00  0.00     0.071 C 
HETATM    2  C   UNL     1      -1.284 -29.315  16.538  1.00  0.00     0.004 A 
HETATM    3  C   UNL     1      -2.280 -30.281  16.728  1.00  0.00     0.096 A 
HETATM    4  C   UNL     1      -1.917 -31.615  16.657  1.00  0.00     0.039 A 
HETATM    5  C   UNL     1       0.280 -31.086  16.239  1.00  0.00     0.098 A 
HETATM    6  C   UNL     1       0.017 -29.730  16.291  1.00  0.00    -0.008 A 
HETATM    7  N   UNL     1      -0.673 -31.981  16.421  1.00  0.00    -0.367 N 
ATOM      8  HN  UNL     1      -0.443 -32.974  16.378  1.00  0.00     0.165 HD
ENDROOT
BRANCH   2   9
HETATM    9  C   UNL     1      -1.544 -27.808  16.585  1.00  0.00     0.162 C 
BRANCH   9  10
HETATM   10  N   UNL     1      -2.958 -27.505  16.643  1.00  0.00    -0.380 N 
HETATM   11  CA  UNL     1      -3.381 -26.343  16.523  1.00  0.00     0.105 C 
ATOM     12  HN  UNL     1      -3.624 -28.264  16.786  1.00  0.00     0.160 HD
BRANCH  11  13
HETATM   13  C   UNL     1      -2.411 -25.183  16.297  1.00  0.00     0.026 C 
HETATM   14  C   UNL     1      -2.836 -24.016  15.862  1.00  0.00     0.014 C 
ENDBRANCH  11  13
BRANCH  11  15
HETATM   15  C   UNL     1      -4.886 -26.121  16.598  1.00  0.00     0.226 C 
HETATM   16  O   UNL     1      -5.350 -25.090  17.153  1.00  0.00    -0.643 OA
HETATM   17  OXT UNL     1      -5.660 -26.986  16.108  1.00  0.00    -0.643 OA
ENDBRANCH  11  15
ENDBRANCH   9  10
ENDBRANCH   2   9
BRANCH   3  18
HETATM   18  O   UNL     1      -3.620 -29.976  16.982  1.00  0.00    -0.358 OA
ATOM     19  HO  UNL     1      -3.869 -29.061  17.031  1.00  0.00     0.217 HD
ENDBRANCH   3  18
BRANCH   6  20
HETATM   20  C   UNL     1       1.139 -28.709  16.083  1.00  0.00     0.223 C 
BRANCH  20  21
HETATM   21  O   UNL     1       1.737 -28.473  17.329  1.00  0.00    -0.278 OA
BRANCH  21  22
HETATM   22  P   UNL     1       2.420 -27.007  17.641  1.00  0.00     0.422 P 
HETATM   23  O   UNL     1       1.382 -25.924  17.492  1.00  0.00    -0.617 OA
HETATM   24  O   UNL     1       2.961 -26.992  19.048  1.00  0.00    -0.617 OA
HETATM   25  O   UNL     1       3.552 -26.788  16.659  1.00  0.00    -0.617 OA
ENDBRANCH  21  22
ENDBRANCH  20  21
ENDBRANCH   6  20
TORSDOF 8
