REMARK  5 active torsions:
REMARK  status: ('A' for Active; 'I' for Inactive)
REMARK    1  A    between atoms: C_1  and  O_15 
REMARK    2  A    between atoms: C_2  and  O_7 
REMARK    3  A    between atoms: C_3  and  O_9 
REMARK    4  A    between atoms: C_4  and  O_11 
REMARK    5  A    between atoms: C_5  and  C_6 
ROOT
HETATM    1  C   UNL     1      -1.416  -7.728 106.797  1.00  0.00     0.289 C 
HETATM    2  C   UNL     1      -2.407  -6.734 106.212  1.00  0.00     0.204 C 
HETATM    3  C   UNL     1      -1.909  -5.341 106.291  1.00  0.00     0.183 C 
HETATM    4  C   UNL     1      -1.474  -4.969 107.676  1.00  0.00     0.189 C 
HETATM    5  C   UNL     1      -0.501  -5.999 108.243  1.00  0.00     0.256 C 
HETATM    6  O   UNL     1      -1.050  -7.359 108.202  1.00  0.00    -0.340 OA
ENDROOT
BRANCH   5   7
HETATM    7  C   UNL     1      -0.250  -5.682 109.676  1.00  0.00     0.206 C 
HETATM    8  O   UNL     1       0.604  -4.811 109.991  1.00  0.00    -0.646 OA
HETATM    9  O   UNL     1      -0.914  -6.294 110.552  1.00  0.00    -0.646 OA
ENDBRANCH   5   7
BRANCH   4  10
HETATM   10  O   UNL     1      -0.849  -3.684 107.638  1.00  0.00    -0.390 OA
ATOM     11  HO  UNL     1      -0.573  -3.448 108.516  1.00  0.00     0.210 HD
ENDBRANCH   4  10
BRANCH   1  12
HETATM   12  O   UNL     1      -1.961  -8.970 106.800  1.00  0.00    -0.368 OA
ATOM     13  HO  UNL     1      -1.342  -9.591 107.165  1.00  0.00     0.212 HD
ENDBRANCH   1  12
BRANCH   3  14
HETATM   14  O   UNL     1      -2.966  -4.437 105.898  1.00  0.00    -0.390 OA
ATOM     15  HO  UNL     1      -2.647  -3.544 105.949  1.00  0.00     0.210 HD
ENDBRANCH   3  14
BRANCH   2  16
HETATM   16  O   UNL     1      -2.618  -7.064 104.830  1.00  0.00    -0.388 OA
ATOM     17  HO  UNL     1      -3.237  -6.443 104.465  1.00  0.00     0.210 HD
ENDBRANCH   2  16
TORSDOF 5
