MODEL 1
REMARK VINA RESULT:    -6.233      0.000      0.000
REMARK INTER + INTRA:          -6.823
REMARK INTER:                  -6.780
REMARK INTRA:                  -0.044
REMARK UNBOUND:                -0.044
REMARK  2 active torsions:
REMARK  status: ('A' for Active; 'I' for Inactive)
REMARK    1  A    between atoms: C_1  and  N_9 
REMARK    2  A    between atoms: C_4  and  O_7 
ROOT
HETATM    1  C   UNL     1      30.284   5.556  61.911  1.00  0.00     0.103 A 
HETATM    2  C   UNL     1      31.539   4.969  61.967  1.00  0.00     0.039 A 
HETATM    3  C   UNL     1      32.644   5.721  61.637  1.00  0.00     0.039 A 
HETATM    4  C   UNL     1      32.507   7.035  61.238  1.00  0.00     0.065 A 
HETATM    5  C   UNL     1      31.257   7.624  61.188  1.00  0.00     0.039 A 
HETATM    6  C   UNL     1      30.136   6.888  61.520  1.00  0.00     0.039 A 
ENDROOT
BRANCH   1   7
HETATM    7  N   UNL     1      29.150   4.813  62.241  1.00  0.00    -0.116 N 
HETATM    8  O   UNL     1      27.947   5.155  61.647  1.00  0.00    -0.532 OA
HETATM    9  O   UNL     1      29.204   3.885  63.033  1.00  0.00    -0.532 OA
ENDBRANCH   1   7
BRANCH   4  10
HETATM   10  O   UNL     1      33.605   7.760  60.922  1.00  0.00    -0.361 OA
ATOM     11  HO  UNL     1      33.971   7.705  60.047  1.00  0.00     0.217 HD
ENDBRANCH   4  10
TORSDOF 2
ENDMDL
MODEL 2
REMARK VINA RESULT:    -6.228      0.040      1.523
REMARK INTER + INTRA:          -6.818
REMARK INTER:                  -6.775
REMARK INTRA:                  -0.044
REMARK UNBOUND:                -0.044
REMARK  2 active torsions:
REMARK  status: ('A' for Active; 'I' for Inactive)
REMARK    1  A    between atoms: C_1  and  N_9 
REMARK    2  A    between atoms: C_4  and  O_7 
ROOT
HETATM    1  C   UNL     1      30.275   5.552  61.896  1.00  0.00     0.103 A 
HETATM    2  C   UNL     1      30.155   6.879  61.511  1.00  0.00     0.039 A 
HETATM    3  C   UNL     1      31.290   7.585  61.182  1.00  0.00     0.039 A 
HETATM    4  C   UNL     1      32.533   6.990  61.250  1.00  0.00     0.065 A 
HETATM    5  C   UNL     1      32.655   5.666  61.628  1.00  0.00     0.039 A 
HETATM    6  C   UNL     1      31.527   4.938  61.957  1.00  0.00     0.039 A 
ENDROOT
BRANCH   1   7
HETATM    7  N   UNL     1      29.139   4.816  62.233  1.00  0.00    -0.116 N 
HETATM    8  O   UNL     1      27.934   5.170  61.651  1.00  0.00    -0.532 OA
HETATM    9  O   UNL     1      29.192   3.884  63.020  1.00  0.00    -0.532 OA
ENDBRANCH   1   7
BRANCH   4  10
HETATM   10  O   UNL     1      33.637   7.699  60.919  1.00  0.00    -0.361 OA
ATOM     11  HO  UNL     1      34.345   7.791  61.546  1.00  0.00     0.217 HD
ENDBRANCH   4  10
TORSDOF 2
ENDMDL
MODEL 3
REMARK VINA RESULT:    -6.101      1.840      4.040
REMARK INTER + INTRA:          -6.680
REMARK INTER:                  -6.635
REMARK INTRA:                  -0.045
REMARK UNBOUND:                -0.044
REMARK  2 active torsions:
REMARK  status: ('A' for Active; 'I' for Inactive)
REMARK    1  A    between atoms: C_1  and  N_9 
REMARK    2  A    between atoms: C_4  and  O_7 
ROOT
HETATM    1  C   UNL     1      31.764   5.941  61.274  1.00  0.00     0.103 A 
HETATM    2  C   UNL     1      31.218   5.029  62.165  1.00  0.00     0.039 A 
HETATM    3  C   UNL     1      29.852   4.862  62.199  1.00  0.00     0.039 A 
HETATM    4  C   UNL     1      29.032   5.603  61.371  1.00  0.00     0.065 A 
HETATM    5  C   UNL     1      29.575   6.508  60.478  1.00  0.00     0.039 A 
HETATM    6  C   UNL     1      30.944   6.686  60.426  1.00  0.00     0.039 A 
ENDROOT
BRANCH   1   7
HETATM    7  N   UNL     1      33.145   6.126  61.223  1.00  0.00    -0.116 N 
HETATM    8  O   UNL     1      33.961   5.080  61.621  1.00  0.00    -0.532 OA
HETATM    9  O   UNL     1      33.635   7.177  60.839  1.00  0.00    -0.532 OA
ENDBRANCH   1   7
BRANCH   4  10
HETATM   10  O   UNL     1      27.692   5.422  61.415  1.00  0.00    -0.361 OA
ATOM     11  HO  UNL     1      27.132   5.892  60.809  1.00  0.00     0.217 HD
ENDBRANCH   4  10
TORSDOF 2
ENDMDL
MODEL 4
REMARK VINA RESULT:    -6.030      1.458      1.735
REMARK INTER + INTRA:          -6.602
REMARK INTER:                  -6.558
REMARK INTRA:                  -0.044
REMARK UNBOUND:                -0.044
REMARK  2 active torsions:
REMARK  status: ('A' for Active; 'I' for Inactive)
REMARK    1  A    between atoms: C_1  and  N_9 
REMARK    2  A    between atoms: C_4  and  O_7 
ROOT
HETATM    1  C   UNL     1      31.559   5.977  61.819  1.00  0.00     0.103 A 
HETATM    2  C   UNL     1      32.804   6.043  61.212  1.00  0.00     0.039 A 
HETATM    3  C   UNL     1      33.289   7.269  60.813  1.00  0.00     0.039 A 
HETATM    4  C   UNL     1      32.541   8.415  60.997  1.00  0.00     0.065 A 
HETATM    5  C   UNL     1      31.303   8.351  61.608  1.00  0.00     0.039 A 
HETATM    6  C   UNL     1      30.801   7.131  62.020  1.00  0.00     0.039 A 
ENDROOT
BRANCH   1   7
HETATM    7  N   UNL     1      31.048   4.746  62.232  1.00  0.00    -0.116 N 
HETATM    8  O   UNL     1      29.673   4.593  62.285  1.00  0.00    -0.532 OA
HETATM    9  O   UNL     1      31.783   3.821  62.542  1.00  0.00    -0.532 OA
ENDBRANCH   1   7
BRANCH   4  10
HETATM   10  O   UNL     1      33.036   9.611  60.602  1.00  0.00    -0.361 OA
ATOM     11  HO  UNL     1      32.454  10.355  60.511  1.00  0.00     0.217 HD
ENDBRANCH   4  10
TORSDOF 2
ENDMDL
MODEL 5
REMARK VINA RESULT:    -6.023      1.536      2.245
REMARK INTER + INTRA:          -6.595
REMARK INTER:                  -6.550
REMARK INTRA:                  -0.045
REMARK UNBOUND:                -0.044
REMARK  2 active torsions:
REMARK  status: ('A' for Active; 'I' for Inactive)
REMARK    1  A    between atoms: C_1  and  N_9 
REMARK    2  A    between atoms: C_4  and  O_7 
ROOT
HETATM    1  C   UNL     1      31.601   6.036  61.723  1.00  0.00     0.103 A 
HETATM    2  C   UNL     1      30.866   7.182  61.986  1.00  0.00     0.039 A 
HETATM    3  C   UNL     1      31.374   8.405  61.608  1.00  0.00     0.039 A 
HETATM    4  C   UNL     1      32.606   8.494  60.991  1.00  0.00     0.065 A 
HETATM    5  C   UNL     1      33.338   7.352  60.722  1.00  0.00     0.039 A 
HETATM    6  C   UNL     1      32.842   6.115  61.089  1.00  0.00     0.039 A 
ENDROOT
BRANCH   1   7
HETATM    7  N   UNL     1      31.105   4.787  62.096  1.00  0.00    -0.116 N 
HETATM    8  O   UNL     1      29.735   4.643  62.238  1.00  0.00    -0.532 OA
HETATM    9  O   UNL     1      31.849   3.839  62.297  1.00  0.00    -0.532 OA
ENDBRANCH   1   7
BRANCH   4  10
HETATM   10  O   UNL     1      33.088   9.704  60.623  1.00  0.00    -0.361 OA
ATOM     11  HO  UNL     1      32.510  10.337  60.214  1.00  0.00     0.217 HD
ENDBRANCH   4  10
TORSDOF 2
ENDMDL
MODEL 6
REMARK VINA RESULT:    -5.857      1.867      4.286
REMARK INTER + INTRA:          -6.414
REMARK INTER:                  -6.378
REMARK INTRA:                  -0.036
REMARK UNBOUND:                -0.044
REMARK  2 active torsions:
REMARK  status: ('A' for Active; 'I' for Inactive)
REMARK    1  A    between atoms: C_1  and  N_9 
REMARK    2  A    between atoms: C_4  and  O_7 
ROOT
HETATM    1  C   UNL     1      31.703   6.739  61.152  1.00  0.00     0.103 A 
HETATM    2  C   UNL     1      30.697   7.036  60.245  1.00  0.00     0.039 A 
HETATM    3  C   UNL     1      29.450   6.480  60.423  1.00  0.00     0.039 A 
HETATM    4  C   UNL     1      29.206   5.624  61.478  1.00  0.00     0.065 A 
HETATM    5  C   UNL     1      30.206   5.332  62.387  1.00  0.00     0.039 A 
HETATM    6  C   UNL     1      31.462   5.884  62.229  1.00  0.00     0.039 A 
ENDROOT
BRANCH   1   7
HETATM    7  N   UNL     1      32.974   7.291  60.992  1.00  0.00    -0.116 N 
HETATM    8  O   UNL     1      33.085   8.670  60.935  1.00  0.00    -0.532 OA
HETATM    9  O   UNL     1      33.969   6.588  60.902  1.00  0.00    -0.532 OA
ENDBRANCH   1   7
BRANCH   4  10
HETATM   10  O   UNL     1      27.973   5.090  61.640  1.00  0.00    -0.361 OA
ATOM     11  HO  UNL     1      27.316   5.562  62.138  1.00  0.00     0.217 HD
ENDBRANCH   4  10
TORSDOF 2
ENDMDL
MODEL 7
REMARK VINA RESULT:    -5.722      9.281     10.824
REMARK INTER + INTRA:          -6.268
REMARK INTER:                  -6.237
REMARK INTRA:                  -0.031
REMARK UNBOUND:                -0.044
REMARK  2 active torsions:
REMARK  status: ('A' for Active; 'I' for Inactive)
REMARK    1  A    between atoms: C_1  and  N_9 
REMARK    2  A    between atoms: C_4  and  O_7 
ROOT
HETATM    1  C   UNL     1      29.806  -0.220  68.851  1.00  0.00     0.103 A 
HETATM    2  C   UNL     1      30.717  -0.704  69.777  1.00  0.00     0.039 A 
HETATM    3  C   UNL     1      30.252  -1.366  70.891  1.00  0.00     0.039 A 
HETATM    4  C   UNL     1      28.897  -1.533  71.095  1.00  0.00     0.065 A 
HETATM    5  C   UNL     1      27.987  -1.057  70.169  1.00  0.00     0.039 A 
HETATM    6  C   UNL     1      28.434  -0.395  69.043  1.00  0.00     0.039 A 
ENDROOT
BRANCH   1   7
HETATM    7  N   UNL     1      30.255   0.454  67.715  1.00  0.00    -0.116 N 
HETATM    8  O   UNL     1      30.500  -0.285  66.570  1.00  0.00    -0.532 OA
HETATM    9  O   UNL     1      30.432   1.662  67.718  1.00  0.00    -0.532 OA
ENDBRANCH   1   7
BRANCH   4  10
HETATM   10  O   UNL     1      28.458  -2.191  72.193  1.00  0.00    -0.361 OA
ATOM     11  HO  UNL     1      27.668  -1.901  72.632  1.00  0.00     0.217 HD
ENDBRANCH   4  10
TORSDOF 2
ENDMDL
MODEL 8
REMARK VINA RESULT:    -5.705      9.230     10.850
REMARK INTER + INTRA:          -6.249
REMARK INTER:                  -6.218
REMARK INTRA:                  -0.031
REMARK UNBOUND:                -0.044
REMARK  2 active torsions:
REMARK  status: ('A' for Active; 'I' for Inactive)
REMARK    1  A    between atoms: C_1  and  N_9 
REMARK    2  A    between atoms: C_4  and  O_7 
ROOT
HETATM    1  C   UNL     1      29.824  -0.196  68.801  1.00  0.00     0.103 A 
HETATM    2  C   UNL     1      28.460  -0.364  68.987  1.00  0.00     0.039 A 
HETATM    3  C   UNL     1      28.014  -1.015  70.115  1.00  0.00     0.039 A 
HETATM    4  C   UNL     1      28.910  -1.512  71.041  1.00  0.00     0.065 A 
HETATM    5  C   UNL     1      30.270  -1.339  70.860  1.00  0.00     0.039 A 
HETATM    6  C   UNL     1      30.737  -0.684  69.737  1.00  0.00     0.039 A 
ENDROOT
BRANCH   1   7
HETATM    7  N   UNL     1      30.298   0.462  67.666  1.00  0.00    -0.116 N 
HETATM    8  O   UNL     1      30.520  -0.286  66.521  1.00  0.00    -0.532 OA
HETATM    9  O   UNL     1      30.515   1.664  67.668  1.00  0.00    -0.532 OA
ENDBRANCH   1   7
BRANCH   4  10
HETATM   10  O   UNL     1      28.453  -2.146  72.146  1.00  0.00    -0.361 OA
ATOM     11  HO  UNL     1      28.880  -2.002  72.982  1.00  0.00     0.217 HD
ENDBRANCH   4  10
TORSDOF 2
ENDMDL
MODEL 9
REMARK VINA RESULT:    -5.611      1.869      4.028
REMARK INTER + INTRA:          -6.146
REMARK INTER:                  -6.110
REMARK INTRA:                  -0.036
REMARK UNBOUND:                -0.044
REMARK  2 active torsions:
REMARK  status: ('A' for Active; 'I' for Inactive)
REMARK    1  A    between atoms: C_1  and  N_9 
REMARK    2  A    between atoms: C_4  and  O_7 
ROOT
HETATM    1  C   UNL     1      31.646   6.812  61.149  1.00  0.00     0.103 A 
HETATM    2  C   UNL     1      32.408   5.926  61.895  1.00  0.00     0.039 A 
HETATM    3  C   UNL     1      31.789   4.852  62.494  1.00  0.00     0.039 A 
HETATM    4  C   UNL     1      30.426   4.667  62.371  1.00  0.00     0.065 A 
HETATM    5  C   UNL     1      29.666   5.546  61.623  1.00  0.00     0.039 A 
HETATM    6  C   UNL     1      30.270   6.627  61.009  1.00  0.00     0.039 A 
ENDROOT
BRANCH   1   7
HETATM    7  N   UNL     1      32.252   7.907  60.532  1.00  0.00    -0.116 N 
HETATM    8  O   UNL     1      33.305   7.669  59.665  1.00  0.00    -0.532 OA
HETATM    9  O   UNL     1      31.874   9.049  60.743  1.00  0.00    -0.532 OA
ENDBRANCH   1   7
BRANCH   4  10
HETATM   10  O   UNL     1      29.836   3.603  62.964  1.00  0.00    -0.361 OA
ATOM     11  HO  UNL     1      30.061   2.723  62.686  1.00  0.00     0.217 HD
ENDBRANCH   4  10
TORSDOF 2
ENDMDL
MODEL 10
REMARK VINA RESULT:    -5.571     14.220     15.078
REMARK INTER + INTRA:          -6.104
REMARK INTER:                  -6.071
REMARK INTRA:                  -0.033
REMARK UNBOUND:                -0.044
REMARK  2 active torsions:
REMARK  status: ('A' for Active; 'I' for Inactive)
REMARK    1  A    between atoms: C_1  and  N_9 
REMARK    2  A    between atoms: C_4  and  O_7 
ROOT
HETATM    1  C   UNL     1      22.392  13.094  52.121  1.00  0.00     0.103 A 
HETATM    2  C   UNL     1      23.295  14.120  52.356  1.00  0.00     0.039 A 
HETATM    3  C   UNL     1      23.944  14.698  51.288  1.00  0.00     0.039 A 
HETATM    4  C   UNL     1      23.714  14.253  50.001  1.00  0.00     0.065 A 
HETATM    5  C   UNL     1      22.809  13.235  49.765  1.00  0.00     0.039 A 
HETATM    6  C   UNL     1      22.144  12.646  50.823  1.00  0.00     0.039 A 
ENDROOT
BRANCH   1   7
HETATM    7  N   UNL     1      21.723  12.495  53.188  1.00  0.00    -0.116 N 
HETATM    8  O   UNL     1      20.760  13.233  53.855  1.00  0.00    -0.532 OA
HETATM    9  O   UNL     1      21.971  11.350  53.535  1.00  0.00    -0.532 OA
ENDBRANCH   1   7
BRANCH   4  10
HETATM   10  O   UNL     1      24.357  14.836  48.963  1.00  0.00    -0.361 OA
ATOM     11  HO  UNL     1      25.306  14.839  48.938  1.00  0.00     0.217 HD
ENDBRANCH   4  10
TORSDOF 2
ENDMDL
MODEL 11
REMARK VINA RESULT:    -5.569     14.222     15.073
REMARK INTER + INTRA:          -6.101
REMARK INTER:                  -6.068
REMARK INTRA:                  -0.033
REMARK UNBOUND:                -0.044
REMARK  2 active torsions:
REMARK  status: ('A' for Active; 'I' for Inactive)
REMARK    1  A    between atoms: C_1  and  N_9 
REMARK    2  A    between atoms: C_4  and  O_7 
ROOT
HETATM    1  C   UNL     1      22.383  13.071  52.105  1.00  0.00     0.103 A 
HETATM    2  C   UNL     1      22.134  12.643  50.809  1.00  0.00     0.039 A 
HETATM    3  C   UNL     1      22.806  13.241  49.767  1.00  0.00     0.039 A 
HETATM    4  C   UNL     1      23.703  14.264  50.003  1.00  0.00     0.065 A 
HETATM    5  C   UNL     1      23.956  14.688  51.294  1.00  0.00     0.039 A 
HETATM    6  C   UNL     1      23.296  14.097  52.354  1.00  0.00     0.039 A 
ENDROOT
BRANCH   1   7
HETATM    7  N   UNL     1      21.713  12.480  53.176  1.00  0.00    -0.116 N 
HETATM    8  O   UNL     1      20.767  13.231  53.852  1.00  0.00    -0.532 OA
HETATM    9  O   UNL     1      21.948  11.331  53.519  1.00  0.00    -0.532 OA
ENDBRANCH   1   7
BRANCH   4  10
HETATM   10  O   UNL     1      24.357  14.837  48.966  1.00  0.00    -0.361 OA
ATOM     11  HO  UNL     1      24.882  15.615  49.111  1.00  0.00     0.217 HD
ENDBRANCH   4  10
TORSDOF 2
ENDMDL
MODEL 12
REMARK VINA RESULT:    -5.332      7.523      8.904
REMARK INTER + INTRA:          -5.844
REMARK INTER:                  -5.807
REMARK INTRA:                  -0.037
REMARK UNBOUND:                -0.044
REMARK  2 active torsions:
REMARK  status: ('A' for Active; 'I' for Inactive)
REMARK    1  A    between atoms: C_1  and  N_9 
REMARK    2  A    between atoms: C_4  and  O_7 
ROOT
HETATM    1  C   UNL     1      30.872   1.150  67.688  1.00  0.00     0.103 A 
HETATM    2  C   UNL     1      30.155   0.102  68.245  1.00  0.00     0.039 A 
HETATM    3  C   UNL     1      30.588  -0.450  69.430  1.00  0.00     0.039 A 
HETATM    4  C   UNL     1      31.729   0.019  70.048  1.00  0.00     0.065 A 
HETATM    5  C   UNL     1      32.442   1.068  69.498  1.00  0.00     0.039 A 
HETATM    6  C   UNL     1      32.021   1.639  68.312  1.00  0.00     0.039 A 
ENDROOT
BRANCH   1   7
HETATM    7  N   UNL     1      30.452   1.725  66.489  1.00  0.00    -0.116 N 
HETATM    8  O   UNL     1      29.151   2.192  66.408  1.00  0.00    -0.532 OA
HETATM    9  O   UNL     1      31.201   1.819  65.529  1.00  0.00    -0.532 OA
ENDBRANCH   1   7
BRANCH   4  10
HETATM   10  O   UNL     1      32.137  -0.533  71.215  1.00  0.00    -0.361 OA
ATOM     11  HO  UNL     1      32.951  -1.021  71.247  1.00  0.00     0.217 HD
ENDBRANCH   4  10
TORSDOF 2
ENDMDL
MODEL 13
REMARK VINA RESULT:    -5.330      2.650      4.408
REMARK INTER + INTRA:          -5.841
REMARK INTER:                  -5.798
REMARK INTRA:                  -0.043
REMARK UNBOUND:                -0.044
REMARK  2 active torsions:
REMARK  status: ('A' for Active; 'I' for Inactive)
REMARK    1  A    between atoms: C_1  and  N_9 
REMARK    2  A    between atoms: C_4  and  O_7 
ROOT
HETATM    1  C   UNL     1      32.531   7.903  60.472  1.00  0.00     0.103 A 
HETATM    2  C   UNL     1      33.369   6.831  60.739  1.00  0.00     0.039 A 
HETATM    3  C   UNL     1      32.966   5.877  61.646  1.00  0.00     0.039 A 
HETATM    4  C   UNL     1      31.754   5.992  62.296  1.00  0.00     0.065 A 
HETATM    5  C   UNL     1      30.914   7.057  62.025  1.00  0.00     0.039 A 
HETATM    6  C   UNL     1      31.298   8.021  61.114  1.00  0.00     0.039 A 
ENDROOT
BRANCH   1   7
HETATM    7  N   UNL     1      32.919   8.881  59.556  1.00  0.00    -0.116 N 
HETATM    8  O   UNL     1      32.503  10.183  59.774  1.00  0.00    -0.532 OA
HETATM    9  O   UNL     1      33.606   8.608  58.583  1.00  0.00    -0.532 OA
ENDBRANCH   1   7
BRANCH   4  10
HETATM   10  O   UNL     1      31.372   5.042  63.181  1.00  0.00    -0.361 OA
ATOM     11  HO  UNL     1      31.054   4.204  62.867  1.00  0.00     0.217 HD
ENDBRANCH   4  10
TORSDOF 2
ENDMDL
MODEL 14
REMARK VINA RESULT:    -5.292     13.051     14.008
REMARK INTER + INTRA:          -5.800
REMARK INTER:                  -5.752
REMARK INTRA:                  -0.048
REMARK UNBOUND:                -0.044
REMARK  2 active torsions:
REMARK  status: ('A' for Active; 'I' for Inactive)
REMARK    1  A    between atoms: C_1  and  N_9 
REMARK    2  A    between atoms: C_4  and  O_7 
ROOT
HETATM    1  C   UNL     1      22.031  11.500  52.620  1.00  0.00     0.103 A 
HETATM    2  C   UNL     1      21.962  12.252  51.457  1.00  0.00     0.039 A 
HETATM    3  C   UNL     1      22.651  13.442  51.387  1.00  0.00     0.039 A 
HETATM    4  C   UNL     1      23.386  13.892  52.465  1.00  0.00     0.065 A 
HETATM    5  C   UNL     1      23.462  13.141  53.623  1.00  0.00     0.039 A 
HETATM    6  C   UNL     1      22.781  11.942  53.711  1.00  0.00     0.039 A 
ENDROOT
BRANCH   1   7
HETATM    7  N   UNL     1      21.341  10.291  52.713  1.00  0.00    -0.116 N 
HETATM    8  O   UNL     1      21.508   9.529  53.856  1.00  0.00    -0.532 OA
HETATM    9  O   UNL     1      20.607   9.905  51.816  1.00  0.00    -0.532 OA
ENDBRANCH   1   7
BRANCH   4  10
HETATM   10  O   UNL     1      24.061  15.062  52.376  1.00  0.00    -0.361 OA
ATOM     11  HO  UNL     1      23.616  15.841  52.063  1.00  0.00     0.217 HD
ENDBRANCH   4  10
TORSDOF 2
ENDMDL
MODEL 15
REMARK VINA RESULT:    -5.290      9.670     10.822
REMARK INTER + INTRA:          -5.798
REMARK INTER:                  -5.751
REMARK INTRA:                  -0.047
REMARK UNBOUND:                -0.044
REMARK  2 active torsions:
REMARK  status: ('A' for Active; 'I' for Inactive)
REMARK    1  A    between atoms: C_1  and  N_9 
REMARK    2  A    between atoms: C_4  and  O_7 
ROOT
HETATM    1  C   UNL     1      29.351  -1.133  70.331  1.00  0.00     0.103 A 
HETATM    2  C   UNL     1      29.054  -0.500  69.134  1.00  0.00     0.039 A 
HETATM    3  C   UNL     1      30.079   0.048  68.395  1.00  0.00     0.039 A 
HETATM    4  C   UNL     1      31.382  -0.014  68.846  1.00  0.00     0.065 A 
HETATM    5  C   UNL     1      31.681  -0.651  70.036  1.00  0.00     0.039 A 
HETATM    6  C   UNL     1      30.667  -1.212  70.789  1.00  0.00     0.039 A 
ENDROOT
BRANCH   1   7
HETATM    7  N   UNL     1      28.329  -1.697  71.096  1.00  0.00    -0.116 N 
HETATM    8  O   UNL     1      27.019  -1.410  70.750  1.00  0.00    -0.532 OA
HETATM    9  O   UNL     1      28.570  -2.424  72.047  1.00  0.00    -0.532 OA
ENDBRANCH   1   7
BRANCH   4  10
HETATM   10  O   UNL     1      32.377   0.526  68.104  1.00  0.00    -0.361 OA
ATOM     11  HO  UNL     1      32.639   0.110  67.292  1.00  0.00     0.217 HD
ENDBRANCH   4  10
TORSDOF 2
ENDMDL
MODEL 16
REMARK VINA RESULT:    -5.252     14.031     15.184
REMARK INTER + INTRA:          -5.756
REMARK INTER:                  -5.720
REMARK INTRA:                  -0.036
REMARK UNBOUND:                -0.044
REMARK  2 active torsions:
REMARK  status: ('A' for Active; 'I' for Inactive)
REMARK    1  A    between atoms: C_1  and  N_9 
REMARK    2  A    between atoms: C_4  and  O_7 
ROOT
HETATM    1  C   UNL     1      23.186  13.787  51.388  1.00  0.00     0.103 A 
HETATM    2  C   UNL     1      22.219  12.875  50.995  1.00  0.00     0.039 A 
HETATM    3  C   UNL     1      21.729  11.979  51.920  1.00  0.00     0.039 A 
HETATM    4  C   UNL     1      22.206  11.975  53.215  1.00  0.00     0.065 A 
HETATM    5  C   UNL     1      23.166  12.888  53.610  1.00  0.00     0.039 A 
HETATM    6  C   UNL     1      23.665  13.798  52.699  1.00  0.00     0.039 A 
ENDROOT
BRANCH   1   7
HETATM    7  N   UNL     1      23.696  14.704  50.468  1.00  0.00    -0.116 N 
HETATM    8  O   UNL     1      24.250  14.216  49.297  1.00  0.00    -0.532 OA
HETATM    9  O   UNL     1      23.661  15.906  50.680  1.00  0.00    -0.532 OA
ENDBRANCH   1   7
BRANCH   4  10
HETATM   10  O   UNL     1      21.710  11.090  54.111  1.00  0.00    -0.361 OA
ATOM     11  HO  UNL     1      21.488  11.380  54.988  1.00  0.00     0.217 HD
ENDBRANCH   4  10
TORSDOF 2
ENDMDL
MODEL 17
REMARK VINA RESULT:    -5.199      2.218      3.683
REMARK INTER + INTRA:          -5.699
REMARK INTER:                  -5.663
REMARK INTRA:                  -0.036
REMARK UNBOUND:                -0.044
REMARK  2 active torsions:
REMARK  status: ('A' for Active; 'I' for Inactive)
REMARK    1  A    between atoms: C_1  and  N_9 
REMARK    2  A    between atoms: C_4  and  O_7 
ROOT
HETATM    1  C   UNL     1      31.343   5.734  61.833  1.00  0.00     0.103 A 
HETATM    2  C   UNL     1      30.220   5.129  62.377  1.00  0.00     0.039 A 
HETATM    3  C   UNL     1      28.995   5.335  61.783  1.00  0.00     0.039 A 
HETATM    4  C   UNL     1      28.880   6.147  60.672  1.00  0.00     0.065 A 
HETATM    5  C   UNL     1      30.000   6.746  60.125  1.00  0.00     0.039 A 
HETATM    6  C   UNL     1      31.238   6.546  60.703  1.00  0.00     0.039 A 
ENDROOT
BRANCH   1   7
HETATM    7  N   UNL     1      32.594   5.538  62.418  1.00  0.00    -0.116 N 
HETATM    8  O   UNL     1      33.619   5.053  61.624  1.00  0.00    -0.532 OA
HETATM    9  O   UNL     1      32.792   5.783  63.598  1.00  0.00    -0.532 OA
ENDBRANCH   1   7
BRANCH   4  10
HETATM   10  O   UNL     1      27.669   6.335  60.099  1.00  0.00    -0.361 OA
ATOM     11  HO  UNL     1      27.504   7.120  59.591  1.00  0.00     0.217 HD
ENDBRANCH   4  10
TORSDOF 2
ENDMDL
MODEL 18
REMARK VINA RESULT:    -5.109     13.847     14.995
REMARK INTER + INTRA:          -5.601
REMARK INTER:                  -5.565
REMARK INTRA:                  -0.037
REMARK UNBOUND:                -0.044
REMARK  2 active torsions:
REMARK  status: ('A' for Active; 'I' for Inactive)
REMARK    1  A    between atoms: C_1  and  N_9 
REMARK    2  A    between atoms: C_4  and  O_7 
ROOT
HETATM    1  C   UNL     1      23.169  13.798  51.711  1.00  0.00     0.103 A 
HETATM    2  C   UNL     1      23.665  13.624  52.994  1.00  0.00     0.039 A 
HETATM    3  C   UNL     1      23.180  12.591  53.764  1.00  0.00     0.039 A 
HETATM    4  C   UNL     1      22.201  11.749  53.275  1.00  0.00     0.065 A 
HETATM    5  C   UNL     1      21.710  11.917  51.994  1.00  0.00     0.039 A 
HETATM    6  C   UNL     1      22.188  12.945  51.204  1.00  0.00     0.039 A 
ENDROOT
BRANCH   1   7
HETATM    7  N   UNL     1      23.646  14.838  50.913  1.00  0.00    -0.116 N 
HETATM    8  O   UNL     1      24.145  14.525  49.660  1.00  0.00    -0.532 OA
HETATM    9  O   UNL     1      23.630  15.997  51.298  1.00  0.00    -0.532 OA
ENDBRANCH   1   7
BRANCH   4  10
HETATM   10  O   UNL     1      21.739  10.736  54.045  1.00  0.00    -0.361 OA
ATOM     11  HO  UNL     1      22.212   9.913  54.075  1.00  0.00     0.217 HD
ENDBRANCH   4  10
TORSDOF 2
ENDMDL
MODEL 19
REMARK VINA RESULT:    -5.087      9.664     10.669
REMARK INTER + INTRA:          -5.577
REMARK INTER:                  -5.529
REMARK INTRA:                  -0.048
REMARK UNBOUND:                -0.044
REMARK  2 active torsions:
REMARK  status: ('A' for Active; 'I' for Inactive)
REMARK    1  A    between atoms: C_1  and  N_9 
REMARK    2  A    between atoms: C_4  and  O_7 
ROOT
HETATM    1  C   UNL     1      28.964  -0.654  69.666  1.00  0.00     0.103 A 
HETATM    2  C   UNL     1      29.746  -0.008  68.721  1.00  0.00     0.039 A 
HETATM    3  C   UNL     1      31.116  -0.053  68.842  1.00  0.00     0.039 A 
HETATM    4  C   UNL     1      31.707  -0.717  69.899  1.00  0.00     0.065 A 
HETATM    5  C   UNL     1      30.929  -1.368  70.838  1.00  0.00     0.039 A 
HETATM    6  C   UNL     1      29.552  -1.338  70.731  1.00  0.00     0.039 A 
ENDROOT
BRANCH   1   7
HETATM    7  N   UNL     1      27.573  -0.621  69.562  1.00  0.00    -0.116 N 
HETATM    8  O   UNL     1      26.831  -1.334  70.489  1.00  0.00    -0.532 OA
HETATM    9  O   UNL     1      27.013   0.015  68.682  1.00  0.00    -0.532 OA
ENDBRANCH   1   7
BRANCH   4  10
HETATM   10  O   UNL     1      33.056  -0.755  69.999  1.00  0.00    -0.361 OA
ATOM     11  HO  UNL     1      33.463  -0.886  70.847  1.00  0.00     0.217 HD
ENDBRANCH   4  10
TORSDOF 2
ENDMDL
MODEL 20
REMARK VINA RESULT:    -4.933     13.347     14.340
REMARK INTER + INTRA:          -5.409
REMARK INTER:                  -5.370
REMARK INTRA:                  -0.039
REMARK UNBOUND:                -0.044
REMARK  2 active torsions:
REMARK  status: ('A' for Active; 'I' for Inactive)
REMARK    1  A    between atoms: C_1  and  N_9 
REMARK    2  A    between atoms: C_4  and  O_7 
ROOT
HETATM    1  C   UNL     1      21.471  12.958  53.989  1.00  0.00     0.103 A 
HETATM    2  C   UNL     1      20.821  13.385  52.841  1.00  0.00     0.039 A 
HETATM    3  C   UNL     1      21.568  13.721  51.734  1.00  0.00     0.039 A 
HETATM    4  C   UNL     1      22.947  13.652  51.770  1.00  0.00     0.065 A 
HETATM    5  C   UNL     1      23.596  13.219  52.911  1.00  0.00     0.039 A 
HETATM    6  C   UNL     1      22.863  12.873  54.030  1.00  0.00     0.039 A 
ENDROOT
BRANCH   1   7
HETATM    7  N   UNL     1      20.733  12.611  55.121  1.00  0.00    -0.116 N 
HETATM    8  O   UNL     1      19.725  13.466  55.532  1.00  0.00    -0.532 OA
HETATM    9  O   UNL     1      20.962  11.585  55.743  1.00  0.00    -0.532 OA
ENDBRANCH   1   7
BRANCH   4  10
HETATM   10  O   UNL     1      23.665  13.982  50.671  1.00  0.00    -0.361 OA
ATOM     11  HO  UNL     1      23.293  13.849  49.807  1.00  0.00     0.217 HD
ENDBRANCH   4  10
TORSDOF 2
ENDMDL
