REMARK  10 active torsions:
REMARK  status: ('A' for Active; 'I' for Inactive)
REMARK    1  A    between atoms: C_6  and  C_7 
REMARK    2  A    between atoms: C_19  and  C_20 
REMARK    3  A    between atoms: C_20  and  C_21 
REMARK    4  A    between atoms: C_21  and  C_22 
REMARK    5  A    between atoms: C_26  and  O_27 
REMARK    6  A    between atoms: C_29  and  O_30 
REMARK    7  A    between atoms: C_40  and  O_41 
REMARK    8  A    between atoms: C_43  and  O_44 
REMARK    9  A    between atoms: C_49  and  O_50 
REMARK   10  A    between atoms: C_55  and  O_56 
ROOT
HETATM    1  C   UNL     1     -21.372   3.536   1.604  1.00  0.00     0.115 C 
HETATM    2  C   UNL     1     -21.345   3.880   0.185  1.00  0.00     0.229 C 
HETATM    3  O   UNL     1     -22.241   4.599  -0.309  1.00  0.00    -0.273 OA
HETATM    4  N   UNL     1     -20.408   3.387  -0.641  1.00  0.00    -0.338 N 
HETATM    5  C   UNL     1     -19.446   2.310  -0.209  1.00  0.00     0.127 C 
HETATM    6  C   UNL     1     -18.103   2.561  -0.857  1.00  0.00     0.020 C 
HETATM    7  C   UNL     1     -18.181   2.669  -2.308  1.00  0.00     0.004 C 
HETATM    8  C   UNL     1     -19.063   3.858  -2.650  1.00  0.00     0.035 C 
HETATM    9  C   UNL     1     -20.470   3.663  -2.097  1.00  0.00     0.187 C 
HETATM   10  C   UNL     1     -21.146   2.595  -2.878  1.00  0.00     0.282 C 
HETATM   11  O   UNL     1     -21.232   2.626  -4.094  1.00  0.00    -0.263 OA
HETATM   12  O   UNL     1     -21.709   1.607  -2.175  1.00  0.00    -0.310 OA
HETATM   13  C   UNL     1     -22.284   0.493  -2.919  1.00  0.00     0.165 C 
HETATM   14  C   UNL     1     -21.542  -0.698  -2.528  1.00  0.00    -0.026 A 
HETATM   15  C   UNL     1     -21.595  -1.114  -1.231  1.00  0.00     0.046 A 
HETATM   16  C   UNL     1     -20.794  -1.454  -3.451  1.00  0.00     0.010 A 
HETATM   17  C   UNL     1     -20.133  -2.622  -3.089  1.00  0.00     0.003 A 
HETATM   18  C   UNL     1     -20.155  -2.989  -1.733  1.00  0.00     0.037 A 
HETATM   19  C   UNL     1     -20.922  -2.233  -0.842  1.00  0.00     0.069 A 
HETATM   20  O   UNL     1     -21.047  -2.632   0.495  1.00  0.00    -0.349 OA
HETATM   21  C   UNL     1     -21.210  -3.995   0.681  1.00  0.00     0.210 C 
HETATM   22  C   UNL     1     -21.931  -4.264   2.005  1.00  0.00     0.173 C 
HETATM   23  C   UNL     1     -23.379  -3.904   2.071  1.00  0.00     0.173 C 
HETATM   24  C   UNL     1     -23.839  -2.452   1.747  1.00  0.00     0.210 C 
HETATM   25  O   UNL     1     -23.472  -1.583   2.842  1.00  0.00    -0.343 OA
HETATM   26  C   UNL     1     -22.987  -0.324   2.494  1.00  0.00     0.135 A 
HETATM   27  C   UNL     1     -21.695  -0.003   2.858  1.00  0.00     0.104 A 
HETATM   28  C   UNL     1     -21.219   1.299   2.585  1.00  0.00     0.047 A 
HETATM   29  C   UNL     1     -21.948   2.193   1.876  1.00  0.00    -0.039 A 
HETATM   30  C   UNL     1     -23.242   1.844   1.462  1.00  0.00     0.047 A 
HETATM   31  C   UNL     1     -23.786   0.616   1.822  1.00  0.00     0.104 A 
ENDROOT
BRANCH  13  32
HETATM   32  C   UNL     1     -23.819   0.518  -2.646  1.00  0.00     0.042 C 
BRANCH  32  33
HETATM   33  C   UNL     1     -24.610  -0.355  -3.660  1.00  0.00     0.041 C 
BRANCH  33  34
HETATM   34  C   UNL     1     -24.752   0.412  -5.035  1.00  0.00    -0.055 A 
HETATM   35  C   UNL     1     -25.676   1.431  -5.215  1.00  0.00     0.046 A 
HETATM   36  C   UNL     1     -25.791   2.085  -6.398  1.00  0.00     0.102 A 
HETATM   37  C   UNL     1     -25.006   1.731  -7.466  1.00  0.00     0.101 A 
HETATM   38  C   UNL     1     -24.090   0.683  -7.325  1.00  0.00     0.040 A 
HETATM   39  C   UNL     1     -23.934   0.037  -6.083  1.00  0.00     0.010 A 
BRANCH  36  40
HETATM   40  O   UNL     1     -26.697   3.070  -6.655  1.00  0.00    -0.353 OA
HETATM   41  C   UNL     1     -27.635   3.424  -5.659  1.00  0.00     0.210 C 
ENDBRANCH  36  40
BRANCH  37  42
HETATM   42  O   UNL     1     -25.223   2.452  -8.617  1.00  0.00    -0.353 OA
HETATM   43  C   UNL     1     -24.740   1.894  -9.819  1.00  0.00     0.210 C 
ENDBRANCH  37  42
ENDBRANCH  33  34
ENDBRANCH  32  33
ENDBRANCH  13  32
BRANCH  22  44
HETATM   44  O   UNL     1     -21.246  -3.585   3.068  1.00  0.00    -0.391 OA
ATOM     45  HO  UNL     1     -21.693  -3.752   3.889  1.00  0.00     0.210 HD
ENDBRANCH  22  44
BRANCH   1  46
HETATM   46  C   UNL     1     -22.128   4.653   2.409  1.00  0.00     0.003 C 
HETATM   47  C   UNL     1     -22.370   4.312   3.933  1.00  0.00     0.006 C 
HETATM   48  C   UNL     1     -22.981   5.396   4.686  1.00  0.00     0.000 C 
HETATM   49  C   UNL     1     -22.233   6.685   4.542  1.00  0.00     0.000 C 
HETATM   50  C   UNL     1     -22.106   7.063   3.078  1.00  0.00     0.000 C 
HETATM   51  C   UNL     1     -21.426   6.006   2.337  1.00  0.00     0.006 C 
ENDBRANCH   1  46
BRANCH  23  52
HETATM   52  O   UNL     1     -23.965  -4.230   3.359  1.00  0.00    -0.391 OA
ATOM     53  HO  UNL     1     -23.684  -5.116   3.557  1.00  0.00     0.210 HD
ENDBRANCH  23  52
BRANCH  27  54
HETATM   54  O   UNL     1     -21.025  -1.001   3.498  1.00  0.00    -0.353 OA
HETATM   55  C   UNL     1     -19.559  -0.796   3.581  1.00  0.00     0.210 C 
ENDBRANCH  27  54
BRANCH  31  56
HETATM   56  O   UNL     1     -25.064   0.225   1.463  1.00  0.00    -0.353 OA
HETATM   57  C   UNL     1     -25.932   1.208   0.935  1.00  0.00     0.210 C 
ENDBRANCH  31  56
TORSDOF 10
