REMARK  7 active torsions:
REMARK  status: ('A' for Active; 'I' for Inactive)
REMARK    1  A    between atoms: C_1  and  O_7 
REMARK    2  A    between atoms: C_2  and  N_9 
REMARK    3  A    between atoms: C_3  and  O_13 
REMARK    4  A    between atoms: C_4  and  O_15 
REMARK    5  A    between atoms: C_5  and  C_6 
REMARK    6  A    between atoms: C_6  and  O_18 
REMARK    7  A    between atoms: O_18  and  P_19 
ROOT
HETATM    1  C   UNL     1       5.361   5.719 -37.190  1.00  0.00     0.290 C 
HETATM    2  C   UNL     1       5.786   5.575 -35.737  1.00  0.00     0.269 C 
HETATM    3  C   UNL     1       6.051   4.146 -35.396  1.00  0.00     0.184 C 
HETATM    4  C   UNL     1       4.904   3.272 -35.792  1.00  0.00     0.180 C 
HETATM    5  C   UNL     1       4.552   3.480 -37.274  1.00  0.00     0.180 C 
HETATM    6  O   UNL     1       4.156   4.870 -37.474  1.00  0.00    -0.349 OA
ENDROOT
BRANCH   5   7
HETATM    7  C   UNL     1       3.438   2.576 -37.723  1.00  0.00     0.217 C 
BRANCH   7   8
HETATM    8  O   UNL     1       2.344   2.734 -36.871  1.00  0.00    -0.280 OA
BRANCH   8   9
HETATM    9  P   UNL     1       1.014   1.879 -37.329  1.00  0.00     0.422 P 
HETATM   10  O   UNL     1       0.104   1.817 -36.074  1.00  0.00    -0.617 OA
HETATM   11  O   UNL     1       0.323   2.598 -38.499  1.00  0.00    -0.617 OA
HETATM   12  O   UNL     1       1.444   0.473 -37.804  1.00  0.00    -0.617 OA
ENDBRANCH   8   9
ENDBRANCH   7   8
ENDBRANCH   5   7
BRANCH   4  13
HETATM   13  O   UNL     1       5.223   1.898 -35.576  1.00  0.00    -0.390 OA
ATOM     14  HO  UNL     1       5.441   1.769 -34.660  1.00  0.00     0.210 HD
ENDBRANCH   4  13
BRANCH   1  15
HETATM   15  O   UNL     1       6.353   5.289 -37.996  1.00  0.00    -0.369 OA
ATOM     16  HO  UNL     1       7.116   5.826 -37.816  1.00  0.00     0.212 HD
ENDBRANCH   1  15
BRANCH   3  17
HETATM   17  O   UNL     1       6.261   4.029 -33.956  1.00  0.00    -0.391 OA
ATOM     18  HO  UNL     1       6.990   4.584 -33.704  1.00  0.00     0.210 HD
ENDBRANCH   3  17
BRANCH   2  19
HETATM   19  N   UNL     1       7.002   6.377 -35.535  1.00  0.00    -0.068 N 
ATOM     20  HN3 UNL     1       7.376   6.273 -34.592  1.00  0.00     0.275 HD
ATOM     21  HN2 UNL     1       7.797   6.002 -36.053  1.00  0.00     0.275 HD
ATOM     22  HN1 UNL     1       6.821   7.353 -35.768  1.00  0.00     0.275 HD
ENDBRANCH   2  19
TORSDOF 7
