MODEL 1
REMARK VINA RESULT:   -10.291      0.000      0.000
REMARK INTER + INTRA:         -13.686
REMARK INTER:                 -12.998
REMARK INTRA:                  -0.687
REMARK UNBOUND:                -0.687
REMARK  5 active torsions:
REMARK  status: ('A' for Active; 'I' for Inactive)
REMARK    1  A    between atoms: C_2  and  N_24 
REMARK    2  A    between atoms: C_5  and  C_7 
REMARK    3  A    between atoms: C_5  and  O_29 
REMARK    4  A    between atoms: C_10  and  C_11 
REMARK       I    between atoms: C_10  and  N_24 
REMARK    5  A    between atoms: C_15  and  C_18 
ROOT
HETATM    1  C   UNL     1      10.576 -26.034  58.557  1.00  0.00     0.048 A 
HETATM    2  C   UNL     1      10.482 -27.461  58.602  1.00  0.00     0.022 A 
HETATM    3  C   UNL     1       9.305 -28.096  58.422  1.00  0.00     0.050 A 
HETATM    4  C   UNL     1       8.136 -27.349  58.208  1.00  0.00     0.111 A 
HETATM    5  C   UNL     1       6.164 -26.555  57.848  1.00  0.00     0.060 A 
HETATM    6  C   UNL     1       6.988 -25.468  57.950  1.00  0.00     0.128 A 
HETATM    7  C   UNL     1       9.451 -25.312  58.344  1.00  0.00     0.115 A 
HETATM    8  N   UNL     1       6.880 -27.735  58.004  1.00  0.00    -0.340 N 
ATOM      9  HN  UNL     1       6.521 -28.689  57.969  1.00  0.00     0.167 HD
HETATM   10  N   UNL     1       8.250 -25.967  58.190  1.00  0.00    -0.316 N 
ENDROOT
BRANCH   1  11
HETATM   11  C   UNL     1      11.896 -25.408  58.720  1.00  0.00     0.253 C 
HETATM   12  O   UNL     1      12.795 -25.956  59.361  1.00  0.00    -0.268 OA
HETATM   13  N   UNL     1      12.087 -24.263  58.057  1.00  0.00    -0.352 N 
ATOM     14  HN  UNL     1      11.315 -23.872  57.516  1.00  0.00     0.163 HD
BRANCH  13  15
HETATM   15  C   UNL     1      13.361 -23.554  58.081  1.00  0.00     0.084 C 
HETATM   16  C   UNL     1      14.196 -23.919  56.866  1.00  0.00     0.026 C 
HETATM   17  C   UNL     1      15.520 -23.184  56.866  1.00  0.00     0.009 C 
HETATM   18  C   UNL     1      15.348 -21.683  56.949  1.00  0.00     0.019 C 
HETATM   19  C   UNL     1      14.503 -21.333  58.170  1.00  0.00     0.009 C 
HETATM   20  C   UNL     1      13.161 -22.063  58.154  1.00  0.00     0.026 C 
BRANCH  18  21
HETATM   21  C   UNL     1      16.669 -20.904  56.872  1.00  0.00     0.054 C 
HETATM   22  C   UNL     1      17.467 -21.022  58.157  1.00  0.00     0.045 C 
HETATM   23  C   UNL     1      17.470 -21.462  55.743  1.00  0.00     0.045 C 
BRANCH  21  24
HETATM   24  O   UNL     1      16.451 -19.500  56.583  1.00  0.00    -0.390 OA
ATOM     25  HO  UNL     1      16.945 -19.267  55.806  1.00  0.00     0.210 HD
ENDBRANCH  21  24
ENDBRANCH  18  21
ENDBRANCH  13  15
ENDBRANCH   1  11
BRANCH   5  26
HETATM   26  C   UNL     1       4.733 -26.601  57.500  1.00  0.00    -0.008 A 
HETATM   27  C   UNL     1       4.113 -27.817  57.221  1.00  0.00     0.014 A 
HETATM   28  C   UNL     1       2.796 -27.852  56.787  1.00  0.00     0.001 A 
HETATM   29  C   UNL     1       2.094 -26.681  56.608  1.00  0.00     0.000 A 
HETATM   30  C   UNL     1       2.709 -25.469  56.846  1.00  0.00     0.001 A 
HETATM   31  C   UNL     1       4.022 -25.425  57.277  1.00  0.00     0.014 A 
ENDBRANCH   5  26
TORSDOF 5
ENDMDL
MODEL 2
REMARK VINA RESULT:    -8.736      2.283      4.133
REMARK INTER + INTRA:         -11.721
REMARK INTER:                 -11.081
REMARK INTRA:                  -0.639
REMARK UNBOUND:                -0.687
REMARK  5 active torsions:
REMARK  status: ('A' for Active; 'I' for Inactive)
REMARK    1  A    between atoms: C_2  and  N_24 
REMARK    2  A    between atoms: C_5  and  C_7 
REMARK    3  A    between atoms: C_5  and  O_29 
REMARK    4  A    between atoms: C_10  and  C_11 
REMARK       I    between atoms: C_10  and  N_24 
REMARK    5  A    between atoms: C_15  and  C_18 
ROOT
HETATM    1  C   UNL     1      13.568 -24.025  58.629  1.00  0.00     0.048 A 
HETATM    2  C   UNL     1      14.040 -25.296  59.087  1.00  0.00     0.022 A 
HETATM    3  C   UNL     1      13.212 -26.355  59.203  1.00  0.00     0.050 A 
HETATM    4  C   UNL     1      11.851 -26.213  58.895  1.00  0.00     0.111 A 
HETATM    5  C   UNL     1       9.736 -26.380  58.507  1.00  0.00     0.060 A 
HETATM    6  C   UNL     1      10.064 -25.083  58.220  1.00  0.00     0.128 A 
HETATM    7  C   UNL     1      12.256 -23.887  58.324  1.00  0.00     0.115 A 
HETATM    8  N   UNL     1      10.854 -27.091  58.926  1.00  0.00    -0.340 N 
ATOM      9  HN  UNL     1      10.899 -28.073  59.197  1.00  0.00     0.167 HD
HETATM   10  N   UNL     1      11.413 -24.965  58.475  1.00  0.00    -0.316 N 
ENDROOT
BRANCH   1  11
HETATM   11  C   UNL     1      14.531 -22.924  58.485  1.00  0.00     0.253 C 
HETATM   12  O   UNL     1      14.496 -21.935  59.220  1.00  0.00    -0.268 OA
HETATM   13  N   UNL     1      15.495 -23.105  57.576  1.00  0.00    -0.352 N 
ATOM     14  HN  UNL     1      15.491 -23.958  57.017  1.00  0.00     0.163 HD
BRANCH  13  15
HETATM   15  C   UNL     1      16.550 -22.123  57.357  1.00  0.00     0.084 C 
HETATM   16  C   UNL     1      17.693 -22.344  58.333  1.00  0.00     0.026 C 
HETATM   17  C   UNL     1      18.806 -21.340  58.114  1.00  0.00     0.009 C 
HETATM   18  C   UNL     1      19.324 -21.353  56.693  1.00  0.00     0.019 C 
HETATM   19  C   UNL     1      18.166 -21.135  55.725  1.00  0.00     0.009 C 
HETATM   20  C   UNL     1      17.055 -22.163  55.938  1.00  0.00     0.026 C 
BRANCH  18  21
HETATM   21  C   UNL     1      20.507 -20.401  56.458  1.00  0.00     0.054 C 
HETATM   22  C   UNL     1      20.092 -19.170  55.674  1.00  0.00     0.045 C 
HETATM   23  C   UNL     1      21.035 -19.981  57.790  1.00  0.00     0.045 C 
BRANCH  21  24
HETATM   24  O   UNL     1      21.595 -21.057  55.759  1.00  0.00    -0.390 OA
ATOM     25  HO  UNL     1      21.995 -20.435  55.162  1.00  0.00     0.210 HD
ENDBRANCH  21  24
ENDBRANCH  18  21
ENDBRANCH  13  15
ENDBRANCH   1  11
BRANCH   5  26
HETATM   26  C   UNL     1       8.449 -27.072  58.320  1.00  0.00    -0.008 A 
HETATM   27  C   UNL     1       7.274 -26.344  58.147  1.00  0.00     0.014 A 
HETATM   28  C   UNL     1       6.050 -26.991  58.080  1.00  0.00     0.001 A 
HETATM   29  C   UNL     1       5.981 -28.360  58.205  1.00  0.00     0.000 A 
HETATM   30  C   UNL     1       7.134 -29.089  58.413  1.00  0.00     0.001 A 
HETATM   31  C   UNL     1       8.359 -28.452  58.482  1.00  0.00     0.014 A 
ENDBRANCH   5  26
TORSDOF 5
ENDMDL
MODEL 3
REMARK VINA RESULT:    -8.670      1.889      3.203
REMARK INTER + INTRA:         -11.638
REMARK INTER:                 -10.933
REMARK INTRA:                  -0.704
REMARK UNBOUND:                -0.687
REMARK  5 active torsions:
REMARK  status: ('A' for Active; 'I' for Inactive)
REMARK    1  A    between atoms: C_2  and  N_24 
REMARK    2  A    between atoms: C_5  and  C_7 
REMARK    3  A    between atoms: C_5  and  O_29 
REMARK    4  A    between atoms: C_10  and  C_11 
REMARK       I    between atoms: C_10  and  N_24 
REMARK    5  A    between atoms: C_15  and  C_18 
ROOT
HETATM    1  C   UNL     1      13.485 -25.153  58.821  1.00  0.00     0.048 A 
HETATM    2  C   UNL     1      13.641 -26.490  59.307  1.00  0.00     0.022 A 
HETATM    3  C   UNL     1      12.600 -27.347  59.355  1.00  0.00     0.050 A 
HETATM    4  C   UNL     1      11.328 -26.923  58.946  1.00  0.00     0.111 A 
HETATM    5  C   UNL     1       9.260 -26.641  58.398  1.00  0.00     0.060 A 
HETATM    6  C   UNL     1       9.877 -25.447  58.142  1.00  0.00     0.128 A 
HETATM    7  C   UNL     1      12.260 -24.743  58.418  1.00  0.00     0.115 A 
HETATM    8  N   UNL     1      10.166 -27.569  58.896  1.00  0.00    -0.340 N 
ATOM      9  HN  UNL     1       9.981 -28.535  59.165  1.00  0.00     0.167 HD
HETATM   10  N   UNL     1      11.198 -25.615  58.499  1.00  0.00    -0.316 N 
ENDROOT
BRANCH   1  11
HETATM   11  C   UNL     1      14.669 -24.283  58.756  1.00  0.00     0.253 C 
HETATM   12  O   UNL     1      15.778 -24.675  59.125  1.00  0.00    -0.268 OA
HETATM   13  N   UNL     1      14.485 -23.086  58.191  1.00  0.00    -0.352 N 
ATOM     14  HN  UNL     1      13.549 -22.828  57.876  1.00  0.00     0.163 HD
BRANCH  13  15
HETATM   15  C   UNL     1      15.577 -22.136  58.010  1.00  0.00     0.084 C 
HETATM   16  C   UNL     1      15.449 -21.427  56.672  1.00  0.00     0.026 C 
HETATM   17  C   UNL     1      16.568 -20.427  56.470  1.00  0.00     0.009 C 
HETATM   18  C   UNL     1      16.649 -19.415  57.591  1.00  0.00     0.019 C 
HETATM   19  C   UNL     1      16.772 -20.142  58.927  1.00  0.00     0.009 C 
HETATM   20  C   UNL     1      15.629 -21.135  59.134  1.00  0.00     0.026 C 
BRANCH  18  21
HETATM   21  C   UNL     1      17.724 -18.340  57.377  1.00  0.00     0.054 C 
HETATM   22  C   UNL     1      18.228 -17.778  58.693  1.00  0.00     0.045 C 
HETATM   23  C   UNL     1      18.863 -18.964  56.640  1.00  0.00     0.045 C 
BRANCH  21  24
HETATM   24  O   UNL     1      17.238 -17.247  56.557  1.00  0.00    -0.390 OA
ATOM     25  HO  UNL     1      16.991 -16.525  57.123  1.00  0.00     0.210 HD
ENDBRANCH  21  24
ENDBRANCH  18  21
ENDBRANCH  13  15
ENDBRANCH   1  11
BRANCH   5  26
HETATM   26  C   UNL     1       7.873 -27.046  58.110  1.00  0.00    -0.008 A 
HETATM   27  C   UNL     1       6.914 -26.093  57.777  1.00  0.00     0.014 A 
HETATM   28  C   UNL     1       5.587 -26.459  57.614  1.00  0.00     0.001 A 
HETATM   29  C   UNL     1       5.200 -27.767  57.798  1.00  0.00     0.000 A 
HETATM   30  C   UNL     1       6.135 -28.714  58.163  1.00  0.00     0.001 A 
HETATM   31  C   UNL     1       7.461 -28.358  58.330  1.00  0.00     0.014 A 
ENDBRANCH   5  26
TORSDOF 5
ENDMDL
MODEL 4
REMARK VINA RESULT:    -8.470      2.340      3.968
REMARK INTER + INTRA:         -11.385
REMARK INTER:                 -10.712
REMARK INTRA:                  -0.673
REMARK UNBOUND:                -0.687
REMARK  5 active torsions:
REMARK  status: ('A' for Active; 'I' for Inactive)
REMARK    1  A    between atoms: C_2  and  N_24 
REMARK    2  A    between atoms: C_5  and  C_7 
REMARK    3  A    between atoms: C_5  and  O_29 
REMARK    4  A    between atoms: C_10  and  C_11 
REMARK       I    between atoms: C_10  and  N_24 
REMARK    5  A    between atoms: C_15  and  C_18 
ROOT
HETATM    1  C   UNL     1      14.308 -25.026  59.160  1.00  0.00     0.048 A 
HETATM    2  C   UNL     1      14.428 -26.382  59.602  1.00  0.00     0.022 A 
HETATM    3  C   UNL     1      13.370 -27.218  59.603  1.00  0.00     0.050 A 
HETATM    4  C   UNL     1      12.114 -26.754  59.187  1.00  0.00     0.111 A 
HETATM    5  C   UNL     1      10.062 -26.411  58.614  1.00  0.00     0.060 A 
HETATM    6  C   UNL     1      10.707 -25.222  58.411  1.00  0.00     0.128 A 
HETATM    7  C   UNL     1      13.099 -24.577  58.751  1.00  0.00     0.115 A 
HETATM    8  N   UNL     1      10.941 -27.373  59.096  1.00  0.00    -0.340 N 
ATOM      9  HN  UNL     1      10.731 -28.344  59.328  1.00  0.00     0.167 HD
HETATM   10  N   UNL     1      12.018 -25.430  58.784  1.00  0.00    -0.316 N 
ENDROOT
BRANCH   1  11
HETATM   11  C   UNL     1      15.510 -24.179  59.144  1.00  0.00     0.253 C 
HETATM   12  O   UNL     1      16.468 -24.406  59.886  1.00  0.00    -0.268 OA
HETATM   13  N   UNL     1      15.535 -23.214  58.219  1.00  0.00    -0.352 N 
ATOM     14  HN  UNL     1      14.724 -23.093  57.611  1.00  0.00     0.163 HD
BRANCH  13  15
HETATM   15  C   UNL     1      16.681 -22.330  58.050  1.00  0.00     0.084 C 
HETATM   16  C   UNL     1      16.937 -22.068  56.575  1.00  0.00     0.026 C 
HETATM   17  C   UNL     1      18.119 -21.140  56.378  1.00  0.00     0.009 C 
HETATM   18  C   UNL     1      17.957 -19.832  57.120  1.00  0.00     0.019 C 
HETATM   19  C   UNL     1      17.694 -20.111  58.597  1.00  0.00     0.009 C 
HETATM   20  C   UNL     1      16.490 -21.031  58.789  1.00  0.00     0.026 C 
BRANCH  18  21
HETATM   21  C   UNL     1      19.102 -18.838  56.877  1.00  0.00     0.054 C 
HETATM   22  C   UNL     1      19.892 -19.183  55.630  1.00  0.00     0.045 C 
HETATM   23  C   UNL     1      18.508 -17.477  56.722  1.00  0.00     0.045 C 
BRANCH  21  24
HETATM   24  O   UNL     1      20.010 -18.777  58.006  1.00  0.00    -0.390 OA
ATOM     25  HO  UNL     1      20.871 -18.526  57.693  1.00  0.00     0.210 HD
ENDBRANCH  21  24
ENDBRANCH  18  21
ENDBRANCH  13  15
ENDBRANCH   1  11
BRANCH   5  26
HETATM   26  C   UNL     1       8.672 -26.777  58.290  1.00  0.00    -0.008 A 
HETATM   27  C   UNL     1       7.723 -25.790  58.038  1.00  0.00     0.014 A 
HETATM   28  C   UNL     1       6.393 -26.128  57.841  1.00  0.00     0.001 A 
HETATM   29  C   UNL     1       5.994 -27.444  57.911  1.00  0.00     0.000 A 
HETATM   30  C   UNL     1       6.919 -28.427  58.196  1.00  0.00     0.001 A 
HETATM   31  C   UNL     1       8.248 -28.099  58.396  1.00  0.00     0.014 A 
ENDBRANCH   5  26
TORSDOF 5
ENDMDL
MODEL 5
REMARK VINA RESULT:    -8.383      4.452      5.621
REMARK INTER + INTRA:         -11.276
REMARK INTER:                 -10.628
REMARK INTRA:                  -0.648
REMARK UNBOUND:                -0.687
REMARK  5 active torsions:
REMARK  status: ('A' for Active; 'I' for Inactive)
REMARK    1  A    between atoms: C_2  and  N_24 
REMARK    2  A    between atoms: C_5  and  C_7 
REMARK    3  A    between atoms: C_5  and  O_29 
REMARK    4  A    between atoms: C_10  and  C_11 
REMARK       I    between atoms: C_10  and  N_24 
REMARK    5  A    between atoms: C_15  and  C_18 
ROOT
HETATM    1  C   UNL     1      13.664 -25.923  59.427  1.00  0.00     0.048 A 
HETATM    2  C   UNL     1      13.213 -24.613  59.069  1.00  0.00     0.022 A 
HETATM    3  C   UNL     1      11.940 -24.387  58.685  1.00  0.00     0.050 A 
HETATM    4  C   UNL     1      11.035 -25.456  58.607  1.00  0.00     0.111 A 
HETATM    5  C   UNL     1       9.381 -26.823  58.385  1.00  0.00     0.060 A 
HETATM    6  C   UNL     1      10.437 -27.585  58.803  1.00  0.00     0.128 A 
HETATM    7  C   UNL     1      12.791 -26.955  59.361  1.00  0.00     0.115 A 
HETATM    8  N   UNL     1       9.750 -25.489  58.266  1.00  0.00    -0.340 N 
ATOM      9  HN  UNL     1       9.163 -24.705  57.979  1.00  0.00     0.167 HD
HETATM   10  N   UNL     1      11.502 -26.720  58.939  1.00  0.00    -0.316 N 
ENDROOT
BRANCH   1  11
HETATM   11  C   UNL     1      15.053 -26.093  59.877  1.00  0.00     0.253 C 
HETATM   12  O   UNL     1      15.797 -26.935  59.370  1.00  0.00    -0.268 OA
HETATM   13  N   UNL     1      15.481 -25.223  60.798  1.00  0.00    -0.352 N 
ATOM     14  HN  UNL     1      14.828 -24.528  61.160  1.00  0.00     0.163 HD
BRANCH  13  15
HETATM   15  C   UNL     1      16.849 -25.236  61.303  1.00  0.00     0.084 C 
HETATM   16  C   UNL     1      17.257 -23.848  61.767  1.00  0.00     0.026 C 
HETATM   17  C   UNL     1      18.672 -23.842  62.307  1.00  0.00     0.009 C 
HETATM   18  C   UNL     1      18.870 -24.844  63.422  1.00  0.00     0.019 C 
HETATM   19  C   UNL     1      18.451 -26.231  62.943  1.00  0.00     0.009 C 
HETATM   20  C   UNL     1      17.016 -26.234  62.419  1.00  0.00     0.026 C 
BRANCH  18  21
HETATM   21  C   UNL     1      20.274 -24.809  64.043  1.00  0.00     0.054 C 
HETATM   22  C   UNL     1      20.909 -26.186  64.080  1.00  0.00     0.045 C 
HETATM   23  C   UNL     1      21.123 -23.898  63.218  1.00  0.00     0.045 C 
BRANCH  21  24
HETATM   24  O   UNL     1      20.254 -24.265  65.388  1.00  0.00    -0.390 OA
ATOM     25  HO  UNL     1      21.148 -24.193  65.702  1.00  0.00     0.210 HD
ENDBRANCH  21  24
ENDBRANCH  18  21
ENDBRANCH  13  15
ENDBRANCH   1  11
BRANCH   5  26
HETATM   26  C   UNL     1       7.977 -27.221  58.179  1.00  0.00    -0.008 A 
HETATM   27  C   UNL     1       6.993 -26.257  57.971  1.00  0.00     0.014 A 
HETATM   28  C   UNL     1       5.658 -26.622  57.887  1.00  0.00     0.001 A 
HETATM   29  C   UNL     1       5.290 -27.942  58.028  1.00  0.00     0.000 A 
HETATM   30  C   UNL     1       6.252 -28.901  58.270  1.00  0.00     0.001 A 
HETATM   31  C   UNL     1       7.585 -28.545  58.357  1.00  0.00     0.014 A 
ENDBRANCH   5  26
TORSDOF 5
ENDMDL
MODEL 6
REMARK VINA RESULT:    -8.324      2.431      2.860
REMARK INTER + INTRA:         -11.201
REMARK INTER:                 -10.777
REMARK INTRA:                  -0.424
REMARK UNBOUND:                -0.687
REMARK  5 active torsions:
REMARK  status: ('A' for Active; 'I' for Inactive)
REMARK    1  A    between atoms: C_2  and  N_24 
REMARK    2  A    between atoms: C_5  and  C_7 
REMARK    3  A    between atoms: C_5  and  O_29 
REMARK    4  A    between atoms: C_10  and  C_11 
REMARK       I    between atoms: C_10  and  N_24 
REMARK    5  A    between atoms: C_15  and  C_18 
ROOT
HETATM    1  C   UNL     1      10.936 -25.800  58.346  1.00  0.00     0.048 A 
HETATM    2  C   UNL     1      10.817 -27.187  58.678  1.00  0.00     0.022 A 
HETATM    3  C   UNL     1       9.620 -27.811  58.680  1.00  0.00     0.050 A 
HETATM    4  C   UNL     1       8.457 -27.089  58.377  1.00  0.00     0.111 A 
HETATM    5  C   UNL     1       6.484 -26.325  57.956  1.00  0.00     0.060 A 
HETATM    6  C   UNL     1       7.332 -25.263  57.803  1.00  0.00     0.128 A 
HETATM    7  C   UNL     1       9.815 -25.103  58.045  1.00  0.00     0.115 A 
HETATM    8  N   UNL     1       7.185 -27.471  58.310  1.00  0.00    -0.340 N 
ATOM      9  HN  UNL     1       6.807 -28.402  58.482  1.00  0.00     0.167 HD
HETATM   10  N   UNL     1       8.596 -25.740  58.079  1.00  0.00    -0.316 N 
ENDROOT
BRANCH   1  11
HETATM   11  C   UNL     1      12.274 -25.192  58.321  1.00  0.00     0.253 C 
HETATM   12  O   UNL     1      12.570 -24.319  57.504  1.00  0.00    -0.268 OA
HETATM   13  N   UNL     1      13.110 -25.579  59.290  1.00  0.00    -0.352 N 
ATOM     14  HN  UNL     1      12.799 -26.285  59.958  1.00  0.00     0.163 HD
BRANCH  13  15
HETATM   15  C   UNL     1      14.452 -25.025  59.424  1.00  0.00     0.084 C 
HETATM   16  C   UNL     1      14.386 -23.569  59.853  1.00  0.00     0.026 C 
HETATM   17  C   UNL     1      15.772 -22.978  60.010  1.00  0.00     0.009 C 
HETATM   18  C   UNL     1      16.631 -23.766  60.972  1.00  0.00     0.019 C 
HETATM   19  C   UNL     1      16.684 -25.226  60.532  1.00  0.00     0.009 C 
HETATM   20  C   UNL     1      15.284 -25.822  60.395  1.00  0.00     0.026 C 
BRANCH  18  21
HETATM   21  C   UNL     1      18.016 -23.148  61.213  1.00  0.00     0.054 C 
HETATM   22  C   UNL     1      17.916 -21.737  61.760  1.00  0.00     0.045 C 
HETATM   23  C   UNL     1      18.742 -24.006  62.197  1.00  0.00     0.045 C 
BRANCH  21  24
HETATM   24  O   UNL     1      18.815 -23.126  60.003  1.00  0.00    -0.390 OA
ATOM     25  HO  UNL     1      19.729 -23.231  60.237  1.00  0.00     0.210 HD
ENDBRANCH  21  24
ENDBRANCH  18  21
ENDBRANCH  13  15
ENDBRANCH   1  11
BRANCH   5  26
HETATM   26  C   UNL     1       5.037 -26.399  57.689  1.00  0.00    -0.008 A 
HETATM   27  C   UNL     1       4.449 -27.603  57.310  1.00  0.00     0.014 A 
HETATM   28  C   UNL     1       3.110 -27.650  56.953  1.00  0.00     0.001 A 
HETATM   29  C   UNL     1       2.352 -26.500  56.951  1.00  0.00     0.000 A 
HETATM   30  C   UNL     1       2.932 -25.295  57.289  1.00  0.00     0.001 A 
HETATM   31  C   UNL     1       4.267 -25.239  57.645  1.00  0.00     0.014 A 
ENDBRANCH   5  26
TORSDOF 5
ENDMDL
MODEL 7
REMARK VINA RESULT:    -8.278      2.904     10.823
REMARK INTER + INTRA:         -11.142
REMARK INTER:                 -10.425
REMARK INTRA:                  -0.717
REMARK UNBOUND:                -0.687
REMARK  5 active torsions:
REMARK  status: ('A' for Active; 'I' for Inactive)
REMARK    1  A    between atoms: C_2  and  N_24 
REMARK    2  A    between atoms: C_5  and  C_7 
REMARK    3  A    between atoms: C_5  and  O_29 
REMARK    4  A    between atoms: C_10  and  C_11 
REMARK       I    between atoms: C_10  and  N_24 
REMARK    5  A    between atoms: C_15  and  C_18 
ROOT
HETATM    1  C   UNL     1      11.219 -26.022  58.399  1.00  0.00     0.048 A 
HETATM    2  C   UNL     1      11.703 -26.879  59.438  1.00  0.00     0.022 A 
HETATM    3  C   UNL     1      12.795 -26.560  60.162  1.00  0.00     0.050 A 
HETATM    4  C   UNL     1      13.494 -25.376  59.885  1.00  0.00     0.111 A 
HETATM    5  C   UNL     1      14.800 -23.663  59.762  1.00  0.00     0.060 A 
HETATM    6  C   UNL     1      13.852 -23.477  58.793  1.00  0.00     0.128 A 
HETATM    7  C   UNL     1      11.887 -24.876  58.134  1.00  0.00     0.115 A 
HETATM    8  N   UNL     1      14.576 -24.849  60.450  1.00  0.00    -0.340 N 
ATOM      9  HN  UNL     1      15.123 -25.232  61.222  1.00  0.00     0.167 HD
HETATM   10  N   UNL     1      13.018 -24.572  58.859  1.00  0.00    -0.316 N 
ENDROOT
BRANCH   1  11
HETATM   11  C   UNL     1       9.999 -26.409  57.675  1.00  0.00     0.253 C 
HETATM   12  O   UNL     1       9.917 -26.310  56.450  1.00  0.00    -0.268 OA
HETATM   13  N   UNL     1       9.029 -26.956  58.415  1.00  0.00    -0.352 N 
ATOM     14  HN  UNL     1       9.165 -27.041  59.422  1.00  0.00     0.163 HD
BRANCH  13  15
HETATM   15  C   UNL     1       7.782 -27.435  57.829  1.00  0.00     0.084 C 
HETATM   16  C   UNL     1       7.496 -28.858  58.279  1.00  0.00     0.026 C 
HETATM   17  C   UNL     1       6.198 -29.370  57.690  1.00  0.00     0.009 C 
HETATM   18  C   UNL     1       5.023 -28.475  58.013  1.00  0.00     0.019 C 
HETATM   19  C   UNL     1       5.327 -27.050  57.561  1.00  0.00     0.009 C 
HETATM   20  C   UNL     1       6.627 -26.532  58.174  1.00  0.00     0.026 C 
BRANCH  18  21
HETATM   21  C   UNL     1       3.679 -29.008  57.496  1.00  0.00     0.054 C 
HETATM   22  C   UNL     1       2.685 -27.888  57.252  1.00  0.00     0.045 C 
HETATM   23  C   UNL     1       3.929 -29.731  56.214  1.00  0.00     0.045 C 
BRANCH  21  24
HETATM   24  O   UNL     1       3.090 -29.965  58.413  1.00  0.00    -0.390 OA
ATOM     25  HO  UNL     1       2.178 -29.737  58.551  1.00  0.00     0.210 HD
ENDBRANCH  21  24
ENDBRANCH  18  21
ENDBRANCH  13  15
ENDBRANCH   1  11
BRANCH   5  26
HETATM   26  C   UNL     1      15.875 -22.752  60.192  1.00  0.00    -0.008 A 
HETATM   27  C   UNL     1      16.662 -23.060  61.298  1.00  0.00     0.014 A 
HETATM   28  C   UNL     1      17.599 -22.154  61.769  1.00  0.00     0.001 A 
HETATM   29  C   UNL     1      17.748 -20.929  61.157  1.00  0.00     0.000 A 
HETATM   30  C   UNL     1      16.949 -20.598  60.082  1.00  0.00     0.001 A 
HETATM   31  C   UNL     1      16.010 -21.495  59.607  1.00  0.00     0.014 A 
ENDBRANCH   5  26
TORSDOF 5
ENDMDL
MODEL 8
REMARK VINA RESULT:    -8.099      3.249      4.021
REMARK INTER + INTRA:         -10.917
REMARK INTER:                 -10.377
REMARK INTRA:                  -0.539
REMARK UNBOUND:                -0.687
REMARK  5 active torsions:
REMARK  status: ('A' for Active; 'I' for Inactive)
REMARK    1  A    between atoms: C_2  and  N_24 
REMARK    2  A    between atoms: C_5  and  C_7 
REMARK    3  A    between atoms: C_5  and  O_29 
REMARK    4  A    between atoms: C_10  and  C_11 
REMARK       I    between atoms: C_10  and  N_24 
REMARK    5  A    between atoms: C_15  and  C_18 
ROOT
HETATM    1  C   UNL     1      10.520 -26.396  58.515  1.00  0.00     0.048 A 
HETATM    2  C   UNL     1      10.200 -27.788  58.614  1.00  0.00     0.022 A 
HETATM    3  C   UNL     1       8.938 -28.234  58.448  1.00  0.00     0.050 A 
HETATM    4  C   UNL     1       7.903 -27.321  58.197  1.00  0.00     0.111 A 
HETATM    5  C   UNL     1       6.082 -26.238  57.791  1.00  0.00     0.060 A 
HETATM    6  C   UNL     1       7.068 -25.292  57.859  1.00  0.00     0.128 A 
HETATM    7  C   UNL     1       9.524 -25.514  58.266  1.00  0.00     0.115 A 
HETATM    8  N   UNL     1       6.602 -27.509  57.998  1.00  0.00    -0.340 N 
ATOM      9  HN  UNL     1       6.095 -28.395  57.997  1.00  0.00     0.167 HD
HETATM   10  N   UNL     1       8.235 -25.975  58.128  1.00  0.00    -0.316 N 
ENDROOT
BRANCH   1  11
HETATM   11  C   UNL     1      11.922 -25.982  58.665  1.00  0.00     0.253 C 
HETATM   12  O   UNL     1      12.282 -24.827  58.430  1.00  0.00    -0.268 OA
HETATM   13  N   UNL     1      12.756 -26.905  59.155  1.00  0.00    -0.352 N 
ATOM     14  HN  UNL     1      12.395 -27.837  59.360  1.00  0.00     0.163 HD
BRANCH  13  15
HETATM   15  C   UNL     1      14.165 -26.624  59.406  1.00  0.00     0.084 C 
HETATM   16  C   UNL     1      14.325 -25.797  60.670  1.00  0.00     0.026 C 
HETATM   17  C   UNL     1      15.783 -25.504  60.956  1.00  0.00     0.009 C 
HETATM   18  C   UNL     1      16.618 -26.762  61.046  1.00  0.00     0.019 C 
HETATM   19  C   UNL     1      16.443 -27.584  59.773  1.00  0.00     0.009 C 
HETATM   20  C   UNL     1      14.972 -27.893  59.502  1.00  0.00     0.026 C 
BRANCH  18  21
HETATM   21  C   UNL     1      18.087 -26.503  61.412  1.00  0.00     0.054 C 
HETATM   22  C   UNL     1      18.215 -25.594  62.620  1.00  0.00     0.045 C 
HETATM   23  C   UNL     1      18.727 -27.818  61.717  1.00  0.00     0.045 C 
BRANCH  21  24
HETATM   24  O   UNL     1      18.824 -25.921  60.307  1.00  0.00    -0.390 OA
ATOM     25  HO  UNL     1      19.048 -26.609  59.692  1.00  0.00     0.210 HD
ENDBRANCH  21  24
ENDBRANCH  18  21
ENDBRANCH  13  15
ENDBRANCH   1  11
BRANCH   5  26
HETATM   26  C   UNL     1       4.662 -26.070  57.433  1.00  0.00    -0.008 A 
HETATM   27  C   UNL     1       4.031 -24.841  57.604  1.00  0.00     0.014 A 
HETATM   28  C   UNL     1       2.671 -24.711  57.371  1.00  0.00     0.001 A 
HETATM   29  C   UNL     1       1.925 -25.803  56.988  1.00  0.00     0.000 A 
HETATM   30  C   UNL     1       2.532 -27.034  56.850  1.00  0.00     0.001 A 
HETATM   31  C   UNL     1       3.888 -27.174  57.082  1.00  0.00     0.014 A 
ENDBRANCH   5  26
TORSDOF 5
ENDMDL
MODEL 9
REMARK VINA RESULT:    -8.021      4.771      6.496
REMARK INTER + INTRA:         -10.818
REMARK INTER:                 -10.132
REMARK INTRA:                  -0.686
REMARK UNBOUND:                -0.687
REMARK  5 active torsions:
REMARK  status: ('A' for Active; 'I' for Inactive)
REMARK    1  A    between atoms: C_2  and  N_24 
REMARK    2  A    between atoms: C_5  and  C_7 
REMARK    3  A    between atoms: C_5  and  O_29 
REMARK    4  A    between atoms: C_10  and  C_11 
REMARK       I    between atoms: C_10  and  N_24 
REMARK    5  A    between atoms: C_15  and  C_18 
ROOT
HETATM    1  C   UNL     1      14.533 -24.118  59.463  1.00  0.00     0.048 A 
HETATM    2  C   UNL     1      13.839 -22.955  58.999  1.00  0.00     0.022 A 
HETATM    3  C   UNL     1      12.555 -23.018  58.588  1.00  0.00     0.050 A 
HETATM    4  C   UNL     1      11.882 -24.249  58.589  1.00  0.00     0.111 A 
HETATM    5  C   UNL     1      10.538 -25.931  58.463  1.00  0.00     0.060 A 
HETATM    6  C   UNL     1      11.714 -26.433  58.948  1.00  0.00     0.128 A 
HETATM    7  C   UNL     1      13.883 -25.305  59.472  1.00  0.00     0.115 A 
HETATM    8  N   UNL     1      10.638 -24.563  58.242  1.00  0.00    -0.340 N 
ATOM      9  HN  UNL     1       9.914 -23.937  57.889  1.00  0.00     0.167 HD
HETATM   10  N   UNL     1      12.583 -25.365  59.023  1.00  0.00    -0.316 N 
ENDROOT
BRANCH   1  11
HETATM   11  C   UNL     1      15.917 -23.972  59.935  1.00  0.00     0.253 C 
HETATM   12  O   UNL     1      16.750 -23.322  59.300  1.00  0.00    -0.268 OA
HETATM   13  N   UNL     1      16.187 -24.507  61.130  1.00  0.00    -0.352 N 
ATOM     14  HN  UNL     1      15.448 -25.008  61.624  1.00  0.00     0.163 HD
BRANCH  13  15
HETATM   15  C   UNL     1      17.502 -24.397  61.751  1.00  0.00     0.084 C 
HETATM   16  C   UNL     1      17.369 -23.988  63.208  1.00  0.00     0.026 C 
HETATM   17  C   UNL     1      18.725 -23.880  63.875  1.00  0.00     0.009 C 
HETATM   18  C   UNL     1      19.528 -25.157  63.763  1.00  0.00     0.019 C 
HETATM   19  C   UNL     1      19.647 -25.558  62.295  1.00  0.00     0.009 C 
HETATM   20  C   UNL     1      18.276 -25.684  61.634  1.00  0.00     0.026 C 
BRANCH  18  21
HETATM   21  C   UNL     1      20.876 -25.106  64.496  1.00  0.00     0.054 C 
HETATM   22  C   UNL     1      21.527 -26.475  64.574  1.00  0.00     0.045 C 
HETATM   23  C   UNL     1      21.775 -24.176  63.750  1.00  0.00     0.045 C 
BRANCH  21  24
HETATM   24  O   UNL     1      20.739 -24.576  65.839  1.00  0.00    -0.390 OA
ATOM     25  HO  UNL     1      19.952 -24.046  65.880  1.00  0.00     0.210 HD
ENDBRANCH  21  24
ENDBRANCH  18  21
ENDBRANCH  13  15
ENDBRANCH   1  11
BRANCH   5  26
HETATM   26  C   UNL     1       9.246 -26.616  58.279  1.00  0.00    -0.008 A 
HETATM   27  C   UNL     1       8.070 -25.881  58.147  1.00  0.00     0.014 A 
HETATM   28  C   UNL     1       6.844 -26.524  58.084  1.00  0.00     0.001 A 
HETATM   29  C   UNL     1       6.775 -27.897  58.172  1.00  0.00     0.000 A 
HETATM   30  C   UNL     1       7.929 -28.633  58.339  1.00  0.00     0.001 A 
HETATM   31  C   UNL     1       9.157 -28.000  58.405  1.00  0.00     0.014 A 
ENDBRANCH   5  26
TORSDOF 5
ENDMDL
MODEL 10
REMARK VINA RESULT:    -7.872      1.744      2.224
REMARK INTER + INTRA:         -10.630
REMARK INTER:                 -10.788
REMARK INTRA:                   0.158
REMARK UNBOUND:                -0.687
REMARK  5 active torsions:
REMARK  status: ('A' for Active; 'I' for Inactive)
REMARK    1  A    between atoms: C_2  and  N_24 
REMARK    2  A    between atoms: C_5  and  C_7 
REMARK    3  A    between atoms: C_5  and  O_29 
REMARK    4  A    between atoms: C_10  and  C_11 
REMARK       I    between atoms: C_10  and  N_24 
REMARK    5  A    between atoms: C_15  and  C_18 
ROOT
HETATM    1  C   UNL     1      10.607 -25.422  58.589  1.00  0.00     0.048 A 
HETATM    2  C   UNL     1      10.906 -26.820  58.661  1.00  0.00     0.022 A 
HETATM    3  C   UNL     1       9.949 -27.755  58.491  1.00  0.00     0.050 A 
HETATM    4  C   UNL     1       8.622 -27.361  58.262  1.00  0.00     0.111 A 
HETATM    5  C   UNL     1       6.510 -27.142  57.883  1.00  0.00     0.060 A 
HETATM    6  C   UNL     1       7.005 -25.870  57.965  1.00  0.00     0.128 A 
HETATM    7  C   UNL     1       9.329 -25.040  58.360  1.00  0.00     0.115 A 
HETATM    8  N   UNL     1       7.521 -28.078  58.063  1.00  0.00    -0.340 N 
ATOM      9  HN  UNL     1       7.436 -29.095  58.046  1.00  0.00     0.167 HD
HETATM   10  N   UNL     1       8.354 -26.000  58.217  1.00  0.00    -0.316 N 
ENDROOT
BRANCH   1  11
HETATM   11  C   UNL     1      11.705 -24.457  58.742  1.00  0.00     0.253 C 
HETATM   12  O   UNL     1      11.557 -23.264  58.471  1.00  0.00    -0.268 OA
HETATM   13  N   UNL     1      12.834 -24.934  59.275  1.00  0.00    -0.352 N 
ATOM     14  HN  UNL     1      12.889 -25.926  59.508  1.00  0.00     0.163 HD
BRANCH  13  15
HETATM   15  C   UNL     1      13.990 -24.084  59.534  1.00  0.00     0.084 C 
HETATM   16  C   UNL     1      15.260 -24.916  59.589  1.00  0.00     0.026 C 
HETATM   17  C   UNL     1      16.476 -24.049  59.846  1.00  0.00     0.009 C 
HETATM   18  C   UNL     1      16.621 -22.941  58.827  1.00  0.00     0.019 C 
HETATM   19  C   UNL     1      15.337 -22.119  58.779  1.00  0.00     0.009 C 
HETATM   20  C   UNL     1      14.118 -22.996  58.500  1.00  0.00     0.026 C 
BRANCH  18  21
HETATM   21  C   UNL     1      17.887 -22.092  59.013  1.00  0.00     0.054 C 
HETATM   22  C   UNL     1      18.345 -21.469  57.708  1.00  0.00     0.045 C 
HETATM   23  C   UNL     1      17.578 -21.009  59.994  1.00  0.00     0.045 C 
BRANCH  21  24
HETATM   24  O   UNL     1      18.979 -22.867  59.570  1.00  0.00    -0.390 OA
ATOM     25  HO  UNL     1      19.443 -22.332  60.203  1.00  0.00     0.210 HD
ENDBRANCH  21  24
ENDBRANCH  18  21
ENDBRANCH  13  15
ENDBRANCH   1  11
BRANCH   5  26
HETATM   26  C   UNL     1       5.149 -27.585  57.533  1.00  0.00    -0.008 A 
HETATM   27  C   UNL     1       4.123 -26.656  57.375  1.00  0.00     0.014 A 
HETATM   28  C   UNL     1       2.821 -27.078  57.154  1.00  0.00     0.001 A 
HETATM   29  C   UNL     1       2.525 -28.422  57.108  1.00  0.00     0.000 A 
HETATM   30  C   UNL     1       3.527 -29.351  57.299  1.00  0.00     0.001 A 
HETATM   31  C   UNL     1       4.828 -28.940  57.522  1.00  0.00     0.014 A 
ENDBRANCH   5  26
TORSDOF 5
ENDMDL
MODEL 11
REMARK VINA RESULT:    -7.819      2.232      3.438
REMARK INTER + INTRA:         -10.563
REMARK INTER:                  -9.932
REMARK INTRA:                  -0.631
REMARK UNBOUND:                -0.687
REMARK  5 active torsions:
REMARK  status: ('A' for Active; 'I' for Inactive)
REMARK    1  A    between atoms: C_2  and  N_24 
REMARK    2  A    between atoms: C_5  and  C_7 
REMARK    3  A    between atoms: C_5  and  O_29 
REMARK    4  A    between atoms: C_10  and  C_11 
REMARK       I    between atoms: C_10  and  N_24 
REMARK    5  A    between atoms: C_15  and  C_18 
ROOT
HETATM    1  C   UNL     1      12.923 -25.263  58.609  1.00  0.00     0.048 A 
HETATM    2  C   UNL     1      13.049 -26.569  59.181  1.00  0.00     0.022 A 
HETATM    3  C   UNL     1      11.990 -27.398  59.286  1.00  0.00     0.050 A 
HETATM    4  C   UNL     1      10.726 -26.972  58.850  1.00  0.00     0.111 A 
HETATM    5  C   UNL     1       8.665 -26.681  58.286  1.00  0.00     0.060 A 
HETATM    6  C   UNL     1       9.307 -25.520  57.953  1.00  0.00     0.128 A 
HETATM    7  C   UNL     1      11.706 -24.854  58.180  1.00  0.00     0.115 A 
HETATM    8  N   UNL     1       9.551 -27.594  58.844  1.00  0.00    -0.340 N 
ATOM      9  HN  UNL     1       9.344 -28.536  59.176  1.00  0.00     0.167 HD
HETATM   10  N   UNL     1      10.625 -25.695  58.319  1.00  0.00    -0.316 N 
ENDROOT
BRANCH   1  11
HETATM   11  C   UNL     1      14.125 -24.427  58.486  1.00  0.00     0.253 C 
HETATM   12  O   UNL     1      14.766 -24.370  57.435  1.00  0.00    -0.268 OA
HETATM   13  N   UNL     1      14.423 -23.669  59.547  1.00  0.00    -0.352 N 
ATOM     14  HN  UNL     1      13.837 -23.736  60.379  1.00  0.00     0.163 HD
BRANCH  13  15
HETATM   15  C   UNL     1      15.555 -22.751  59.552  1.00  0.00     0.084 C 
HETATM   16  C   UNL     1      15.115 -21.361  59.127  1.00  0.00     0.026 C 
HETATM   17  C   UNL     1      16.277 -20.388  59.139  1.00  0.00     0.009 C 
HETATM   18  C   UNL     1      16.967 -20.329  60.483  1.00  0.00     0.019 C 
HETATM   19  C   UNL     1      17.398 -21.732  60.898  1.00  0.00     0.009 C 
HETATM   20  C   UNL     1      16.219 -22.703  60.904  1.00  0.00     0.026 C 
BRANCH  18  21
HETATM   21  C   UNL     1      18.100 -19.294  60.550  1.00  0.00     0.054 C 
HETATM   22  C   UNL     1      17.616 -17.903  60.185  1.00  0.00     0.045 C 
HETATM   23  C   UNL     1      18.632 -19.279  61.945  1.00  0.00     0.045 C 
BRANCH  21  24
HETATM   24  O   UNL     1      19.205 -19.648  59.680  1.00  0.00    -0.390 OA
ATOM     25  HO  UNL     1      19.643 -18.852  59.402  1.00  0.00     0.210 HD
ENDBRANCH  21  24
ENDBRANCH  18  21
ENDBRANCH  13  15
ENDBRANCH   1  11
BRANCH   5  26
HETATM   26  C   UNL     1       7.268 -27.073  58.026  1.00  0.00    -0.008 A 
HETATM   27  C   UNL     1       6.308 -26.109  57.729  1.00  0.00     0.014 A 
HETATM   28  C   UNL     1       4.975 -26.464  57.593  1.00  0.00     0.001 A 
HETATM   29  C   UNL     1       4.584 -27.772  57.769  1.00  0.00     0.000 A 
HETATM   30  C   UNL     1       5.520 -28.730  58.099  1.00  0.00     0.001 A 
HETATM   31  C   UNL     1       6.852 -28.385  58.239  1.00  0.00     0.014 A 
ENDBRANCH   5  26
TORSDOF 5
ENDMDL
MODEL 12
REMARK VINA RESULT:    -7.763      2.520     10.507
REMARK INTER + INTRA:         -10.493
REMARK INTER:                 -10.708
REMARK INTRA:                   0.215
REMARK UNBOUND:                -0.687
REMARK  5 active torsions:
REMARK  status: ('A' for Active; 'I' for Inactive)
REMARK    1  A    between atoms: C_2  and  N_24 
REMARK    2  A    between atoms: C_5  and  C_7 
REMARK    3  A    between atoms: C_5  and  O_29 
REMARK    4  A    between atoms: C_10  and  C_11 
REMARK       I    between atoms: C_10  and  N_24 
REMARK    5  A    between atoms: C_15  and  C_18 
ROOT
HETATM    1  C   UNL     1      10.853 -26.186  58.528  1.00  0.00     0.048 A 
HETATM    2  C   UNL     1      11.751 -26.724  59.504  1.00  0.00     0.022 A 
HETATM    3  C   UNL     1      12.998 -26.233  59.659  1.00  0.00     0.050 A 
HETATM    4  C   UNL     1      13.444 -25.189  58.836  1.00  0.00     0.111 A 
HETATM    5  C   UNL     1      14.462 -23.604  57.784  1.00  0.00     0.060 A 
HETATM    6  C   UNL     1      13.217 -23.681  57.223  1.00  0.00     0.128 A 
HETATM    7  C   UNL     1      11.278 -25.172  57.738  1.00  0.00     0.115 A 
HETATM    8  N   UNL     1      14.606 -24.543  58.797  1.00  0.00    -0.340 N 
ATOM      9  HN  UNL     1      15.425 -24.703  59.384  1.00  0.00     0.167 HD
HETATM   10  N   UNL     1      12.562 -24.698  57.884  1.00  0.00    -0.316 N 
ENDROOT
BRANCH   1  11
HETATM   11  C   UNL     1       9.493 -26.738  58.439  1.00  0.00     0.253 C 
HETATM   12  O   UNL     1       9.288 -27.953  58.476  1.00  0.00    -0.268 OA
HETATM   13  N   UNL     1       8.499 -25.845  58.410  1.00  0.00    -0.352 N 
ATOM     14  HN  UNL     1       8.729 -24.851  58.412  1.00  0.00     0.163 HD
BRANCH  13  15
HETATM   15  C   UNL     1       7.097 -26.244  58.374  1.00  0.00     0.084 C 
HETATM   16  C   UNL     1       6.249 -25.152  57.745  1.00  0.00     0.026 C 
HETATM   17  C   UNL     1       4.789 -25.553  57.688  1.00  0.00     0.009 C 
HETATM   18  C   UNL     1       4.578 -26.861  56.960  1.00  0.00     0.019 C 
HETATM   19  C   UNL     1       5.439 -27.947  57.598  1.00  0.00     0.009 C 
HETATM   20  C   UNL     1       6.913 -27.544  57.635  1.00  0.00     0.026 C 
BRANCH  18  21
HETATM   21  C   UNL     1       3.101 -27.257  56.816  1.00  0.00     0.054 C 
HETATM   22  C   UNL     1       2.758 -28.473  57.656  1.00  0.00     0.045 C 
HETATM   23  C   UNL     1       2.266 -26.101  57.261  1.00  0.00     0.045 C 
BRANCH  21  24
HETATM   24  O   UNL     1       2.747 -27.527  55.436  1.00  0.00    -0.390 OA
ATOM     25  HO  UNL     1       1.819 -27.727  55.391  1.00  0.00     0.210 HD
ENDBRANCH  21  24
ENDBRANCH  18  21
ENDBRANCH  13  15
ENDBRANCH   1  11
BRANCH   5  26
HETATM   26  C   UNL     1      15.535 -22.628  57.524  1.00  0.00    -0.008 A 
HETATM   27  C   UNL     1      16.642 -22.555  58.366  1.00  0.00     0.014 A 
HETATM   28  C   UNL     1      17.597 -21.567  58.187  1.00  0.00     0.001 A 
HETATM   29  C   UNL     1      17.450 -20.634  57.185  1.00  0.00     0.000 A 
HETATM   30  C   UNL     1      16.340 -20.674  56.368  1.00  0.00     0.001 A 
HETATM   31  C   UNL     1      15.381 -21.655  56.540  1.00  0.00     0.014 A 
ENDBRANCH   5  26
TORSDOF 5
ENDMDL
MODEL 13
REMARK VINA RESULT:    -7.642      4.193     10.932
REMARK INTER + INTRA:         -10.339
REMARK INTER:                  -9.652
REMARK INTRA:                  -0.688
REMARK UNBOUND:                -0.687
REMARK  5 active torsions:
REMARK  status: ('A' for Active; 'I' for Inactive)
REMARK    1  A    between atoms: C_2  and  N_24 
REMARK    2  A    between atoms: C_5  and  C_7 
REMARK    3  A    between atoms: C_5  and  O_29 
REMARK    4  A    between atoms: C_10  and  C_11 
REMARK       I    between atoms: C_10  and  N_24 
REMARK    5  A    between atoms: C_15  and  C_18 
ROOT
HETATM    1  C   UNL     1      11.220 -26.118  58.499  1.00  0.00     0.048 A 
HETATM    2  C   UNL     1      11.712 -24.775  58.479  1.00  0.00     0.022 A 
HETATM    3  C   UNL     1      12.856 -24.434  59.107  1.00  0.00     0.050 A 
HETATM    4  C   UNL     1      13.576 -25.404  59.820  1.00  0.00     0.111 A 
HETATM    5  C   UNL     1      14.939 -26.603  60.985  1.00  0.00     0.060 A 
HETATM    6  C   UNL     1      13.949 -27.456  60.581  1.00  0.00     0.128 A 
HETATM    7  C   UNL     1      11.917 -27.058  59.180  1.00  0.00     0.115 A 
HETATM    8  N   UNL     1      14.711 -25.319  60.507  1.00  0.00    -0.340 N 
ATOM      9  HN  UNL     1      15.290 -24.491  60.651  1.00  0.00     0.167 HD
HETATM   10  N   UNL     1      13.067 -26.695  59.843  1.00  0.00    -0.316 N 
ENDROOT
BRANCH   1  11
HETATM   11  C   UNL     1       9.989 -26.431  57.759  1.00  0.00     0.253 C 
HETATM   12  O   UNL     1       9.885 -26.196  56.553  1.00  0.00    -0.268 OA
HETATM   13  N   UNL     1       9.035 -27.063  58.450  1.00  0.00    -0.352 N 
ATOM     14  HN  UNL     1       9.190 -27.258  59.439  1.00  0.00     0.163 HD
BRANCH  13  15
HETATM   15  C   UNL     1       7.781 -27.482  57.836  1.00  0.00     0.084 C 
HETATM   16  C   UNL     1       7.402 -28.879  58.300  1.00  0.00     0.026 C 
HETATM   17  C   UNL     1       6.094 -29.328  57.682  1.00  0.00     0.009 C 
HETATM   18  C   UNL     1       4.963 -28.363  57.957  1.00  0.00     0.019 C 
HETATM   19  C   UNL     1       5.360 -26.966  57.490  1.00  0.00     0.009 C 
HETATM   20  C   UNL     1       6.669 -26.510  58.132  1.00  0.00     0.026 C 
BRANCH  18  21
HETATM   21  C   UNL     1       3.606 -28.830  57.410  1.00  0.00     0.054 C 
HETATM   22  C   UNL     1       2.809 -27.680  56.824  1.00  0.00     0.045 C 
HETATM   23  C   UNL     1       3.860 -29.845  56.345  1.00  0.00     0.045 C 
BRANCH  21  24
HETATM   24  O   UNL     1       2.808 -29.480  58.432  1.00  0.00    -0.390 OA
ATOM     25  HO  UNL     1       3.223 -30.301  58.669  1.00  0.00     0.210 HD
ENDBRANCH  21  24
ENDBRANCH  18  21
ENDBRANCH  13  15
ENDBRANCH   1  11
BRANCH   5  26
HETATM   26  C   UNL     1      16.182 -26.909  61.716  1.00  0.00    -0.008 A 
HETATM   27  C   UNL     1      16.391 -28.176  62.254  1.00  0.00     0.014 A 
HETATM   28  C   UNL     1      17.508 -28.433  63.034  1.00  0.00     0.001 A 
HETATM   29  C   UNL     1      18.412 -27.430  63.301  1.00  0.00     0.000 A 
HETATM   30  C   UNL     1      18.197 -26.161  62.805  1.00  0.00     0.001 A 
HETATM   31  C   UNL     1      17.085 -25.896  62.027  1.00  0.00     0.014 A 
ENDBRANCH   5  26
TORSDOF 5
ENDMDL
MODEL 14
REMARK VINA RESULT:    -7.575      4.873      6.154
REMARK INTER + INTRA:         -10.255
REMARK INTER:                  -9.571
REMARK INTRA:                  -0.685
REMARK UNBOUND:                -0.687
REMARK  5 active torsions:
REMARK  status: ('A' for Active; 'I' for Inactive)
REMARK    1  A    between atoms: C_2  and  N_24 
REMARK    2  A    between atoms: C_5  and  C_7 
REMARK    3  A    between atoms: C_5  and  O_29 
REMARK    4  A    between atoms: C_10  and  C_11 
REMARK       I    between atoms: C_10  and  N_24 
REMARK    5  A    between atoms: C_15  and  C_18 
ROOT
HETATM    1  C   UNL     1      13.914 -25.223  59.235  1.00  0.00     0.048 A 
HETATM    2  C   UNL     1      13.323 -23.996  58.797  1.00  0.00     0.022 A 
HETATM    3  C   UNL     1      12.018 -23.923  58.462  1.00  0.00     0.050 A 
HETATM    4  C   UNL     1      11.219 -25.074  58.517  1.00  0.00     0.111 A 
HETATM    5  C   UNL     1       9.697 -26.603  58.491  1.00  0.00     0.060 A 
HETATM    6  C   UNL     1      10.839 -27.225  58.914  1.00  0.00     0.128 A 
HETATM    7  C   UNL     1      13.143 -26.334  59.297  1.00  0.00     0.115 A 
HETATM    8  N   UNL     1       9.929 -25.255  58.246  1.00  0.00    -0.340 N 
ATOM      9  HN  UNL     1       9.257 -24.557  57.928  1.00  0.00     0.167 HD
HETATM   10  N   UNL     1      11.820 -26.257  58.925  1.00  0.00    -0.316 N 
ENDROOT
BRANCH   1  11
HETATM   11  C   UNL     1      15.332 -25.223  59.625  1.00  0.00     0.253 C 
HETATM   12  O   UNL     1      16.121 -24.385  59.186  1.00  0.00    -0.268 OA
HETATM   13  N   UNL     1      15.684 -26.125  60.547  1.00  0.00    -0.352 N 
ATOM     14  HN  UNL     1      14.979 -26.774  60.897  1.00  0.00     0.163 HD
BRANCH  13  15
HETATM   15  C   UNL     1      17.043 -26.210  61.070  1.00  0.00     0.084 C 
HETATM   16  C   UNL     1      17.183 -25.369  62.327  1.00  0.00     0.026 C 
HETATM   17  C   UNL     1      18.586 -25.454  62.892  1.00  0.00     0.009 C 
HETATM   18  C   UNL     1      19.013 -26.879  63.167  1.00  0.00     0.019 C 
HETATM   19  C   UNL     1      18.861 -27.712  61.898  1.00  0.00     0.009 C 
HETATM   20  C   UNL     1      17.440 -27.637  61.344  1.00  0.00     0.026 C 
BRANCH  18  21
HETATM   21  C   UNL     1      20.401 -26.994  63.815  1.00  0.00     0.054 C 
HETATM   22  C   UNL     1      21.372 -27.755  62.932  1.00  0.00     0.045 C 
HETATM   23  C   UNL     1      20.922 -25.613  64.043  1.00  0.00     0.045 C 
BRANCH  21  24
HETATM   24  O   UNL     1      20.339 -27.642  65.111  1.00  0.00    -0.390 OA
ATOM     25  HO  UNL     1      20.903 -27.174  65.715  1.00  0.00     0.210 HD
ENDBRANCH  21  24
ENDBRANCH  18  21
ENDBRANCH  13  15
ENDBRANCH   1  11
BRANCH   5  26
HETATM   26  C   UNL     1       8.331 -27.146  58.391  1.00  0.00    -0.008 A 
HETATM   27  C   UNL     1       8.113 -28.521  58.423  1.00  0.00     0.014 A 
HETATM   28  C   UNL     1       6.843 -29.037  58.220  1.00  0.00     0.001 A 
HETATM   29  C   UNL     1       5.785 -28.194  57.963  1.00  0.00     0.000 A 
HETATM   30  C   UNL     1       5.995 -26.832  57.892  1.00  0.00     0.001 A 
HETATM   31  C   UNL     1       7.259 -26.309  58.092  1.00  0.00     0.014 A 
ENDBRANCH   5  26
TORSDOF 5
ENDMDL
MODEL 15
REMARK VINA RESULT:    -7.408      9.773     13.918
REMARK INTER + INTRA:         -10.043
REMARK INTER:                  -9.538
REMARK INTRA:                  -0.505
REMARK UNBOUND:                -0.687
REMARK  5 active torsions:
REMARK  status: ('A' for Active; 'I' for Inactive)
REMARK    1  A    between atoms: C_2  and  N_24 
REMARK    2  A    between atoms: C_5  and  C_7 
REMARK    3  A    between atoms: C_5  and  O_29 
REMARK    4  A    between atoms: C_10  and  C_11 
REMARK       I    between atoms: C_10  and  N_24 
REMARK    5  A    between atoms: C_15  and  C_18 
ROOT
HETATM    1  C   UNL     1       4.972 -16.610  60.509  1.00  0.00     0.048 A 
HETATM    2  C   UNL     1       5.398 -15.872  59.360  1.00  0.00     0.022 A 
HETATM    3  C   UNL     1       6.572 -16.135  58.748  1.00  0.00     0.050 A 
HETATM    4  C   UNL     1       7.412 -17.137  59.256  1.00  0.00     0.111 A 
HETATM    5  C   UNL     1       8.938 -18.586  59.729  1.00  0.00     0.060 A 
HETATM    6  C   UNL     1       7.963 -18.754  60.674  1.00  0.00     0.128 A 
HETATM    7  C   UNL     1       5.778 -17.582  60.996  1.00  0.00     0.115 A 
HETATM    8  N   UNL     1       8.595 -17.578  58.837  1.00  0.00    -0.340 N 
ATOM      9  HN  UNL     1       9.133 -17.249  58.036  1.00  0.00     0.167 HD
HETATM   10  N   UNL     1       6.987 -17.824  60.384  1.00  0.00    -0.316 N 
ENDROOT
BRANCH   1  11
HETATM   11  C   UNL     1       3.663 -16.300  61.102  1.00  0.00     0.253 C 
HETATM   12  O   UNL     1       2.765 -15.774  60.442  1.00  0.00    -0.268 OA
HETATM   13  N   UNL     1       3.480 -16.705  62.363  1.00  0.00    -0.352 N 
ATOM     14  HN  UNL     1       4.251 -17.164  62.850  1.00  0.00     0.163 HD
BRANCH  13  15
HETATM   15  C   UNL     1       2.217 -16.514  63.065  1.00  0.00     0.084 C 
HETATM   16  C   UNL     1       1.165 -17.475  62.537  1.00  0.00     0.026 C 
HETATM   17  C   UNL     1      -0.153 -17.300  63.263  1.00  0.00     0.009 C 
HETATM   18  C   UNL     1      -0.013 -17.452  64.761  1.00  0.00     0.019 C 
HETATM   19  C   UNL     1       1.050 -16.486  65.275  1.00  0.00     0.009 C 
HETATM   20  C   UNL     1       2.382 -16.680  64.553  1.00  0.00     0.026 C 
BRANCH  18  21
HETATM   21  C   UNL     1      -1.345 -17.358  65.519  1.00  0.00     0.054 C 
HETATM   22  C   UNL     1      -1.144 -16.937  66.963  1.00  0.00     0.045 C 
HETATM   23  C   UNL     1      -2.202 -16.348  64.828  1.00  0.00     0.045 C 
BRANCH  21  24
HETATM   24  O   UNL     1      -2.069 -18.614  65.494  1.00  0.00    -0.390 OA
ATOM     25  HO  UNL     1      -1.456 -19.325  65.641  1.00  0.00     0.210 HD
ENDBRANCH  21  24
ENDBRANCH  18  21
ENDBRANCH  13  15
ENDBRANCH   1  11
BRANCH   5  26
HETATM   26  C   UNL     1      10.159 -19.381  59.510  1.00  0.00    -0.008 A 
HETATM   27  C   UNL     1      11.340 -18.764  59.105  1.00  0.00     0.014 A 
HETATM   28  C   UNL     1      12.458 -19.522  58.793  1.00  0.00     0.001 A 
HETATM   29  C   UNL     1      12.406 -20.896  58.862  1.00  0.00     0.000 A 
HETATM   30  C   UNL     1      11.231 -21.521  59.227  1.00  0.00     0.001 A 
HETATM   31  C   UNL     1      10.110 -20.773  59.539  1.00  0.00     0.014 A 
ENDBRANCH   5  26
TORSDOF 5
ENDMDL
MODEL 16
REMARK VINA RESULT:    -7.367      4.109      5.620
REMARK INTER + INTRA:          -9.993
REMARK INTER:                  -9.294
REMARK INTRA:                  -0.698
REMARK UNBOUND:                -0.687
REMARK  5 active torsions:
REMARK  status: ('A' for Active; 'I' for Inactive)
REMARK    1  A    between atoms: C_2  and  N_24 
REMARK    2  A    between atoms: C_5  and  C_7 
REMARK    3  A    between atoms: C_5  and  O_29 
REMARK    4  A    between atoms: C_10  and  C_11 
REMARK       I    between atoms: C_10  and  N_24 
REMARK    5  A    between atoms: C_15  and  C_18 
ROOT
HETATM    1  C   UNL     1      11.036 -26.319  58.798  1.00  0.00     0.048 A 
HETATM    2  C   UNL     1      10.546 -25.020  58.449  1.00  0.00     0.022 A 
HETATM    3  C   UNL     1       9.257 -24.824  58.100  1.00  0.00     0.050 A 
HETATM    4  C   UNL     1       8.375 -25.913  58.051  1.00  0.00     0.111 A 
HETATM    5  C   UNL     1       6.746 -27.317  57.878  1.00  0.00     0.060 A 
HETATM    6  C   UNL     1       7.830 -28.054  58.269  1.00  0.00     0.128 A 
HETATM    7  C   UNL     1      10.184 -27.370  58.759  1.00  0.00     0.115 A 
HETATM    8  N   UNL     1       7.082 -25.976  57.745  1.00  0.00    -0.340 N 
ATOM      9  HN  UNL     1       6.471 -25.207  57.472  1.00  0.00     0.167 HD
HETATM   10  N   UNL     1       8.879 -27.166  58.373  1.00  0.00    -0.316 N 
ENDROOT
BRANCH   1  11
HETATM   11  C   UNL     1      12.440 -26.456  59.210  1.00  0.00     0.253 C 
HETATM   12  O   UNL     1      13.221 -25.503  59.167  1.00  0.00    -0.268 OA
HETATM   13  N   UNL     1      12.789 -27.644  59.715  1.00  0.00    -0.352 N 
ATOM     14  HN  UNL     1      12.091 -28.387  59.754  1.00  0.00     0.163 HD
BRANCH  13  15
HETATM   15  C   UNL     1      14.133 -27.912  60.213  1.00  0.00     0.084 C 
HETATM   16  C   UNL     1      14.077 -28.439  61.637  1.00  0.00     0.026 C 
HETATM   17  C   UNL     1      15.465 -28.736  62.168  1.00  0.00     0.009 C 
HETATM   18  C   UNL     1      16.229 -29.697  61.286  1.00  0.00     0.019 C 
HETATM   19  C   UNL     1      16.271 -29.158  59.859  1.00  0.00     0.009 C 
HETATM   20  C   UNL     1      14.868 -28.879  59.322  1.00  0.00     0.026 C 
BRANCH  18  21
HETATM   21  C   UNL     1      17.610 -30.079  61.838  1.00  0.00     0.054 C 
HETATM   22  C   UNL     1      18.501 -28.864  62.015  1.00  0.00     0.045 C 
HETATM   23  C   UNL     1      17.412 -30.741  63.162  1.00  0.00     0.045 C 
BRANCH  21  24
HETATM   24  O   UNL     1      18.286 -31.036  60.984  1.00  0.00    -0.390 OA
ATOM     25  HO  UNL     1      19.104 -31.289  61.395  1.00  0.00     0.210 HD
ENDBRANCH  21  24
ENDBRANCH  18  21
ENDBRANCH  13  15
ENDBRANCH   1  11
BRANCH   5  26
HETATM   26  C   UNL     1       5.346 -27.747  57.713  1.00  0.00    -0.008 A 
HETATM   27  C   UNL     1       5.039 -29.091  57.520  1.00  0.00     0.014 A 
HETATM   28  C   UNL     1       3.735 -29.483  57.255  1.00  0.00     0.001 A 
HETATM   29  C   UNL     1       2.734 -28.542  57.161  1.00  0.00     0.000 A 
HETATM   30  C   UNL     1       3.033 -27.204  57.313  1.00  0.00     0.001 A 
HETATM   31  C   UNL     1       4.330 -26.804  57.576  1.00  0.00     0.014 A 
ENDBRANCH   5  26
TORSDOF 5
ENDMDL
MODEL 17
REMARK VINA RESULT:    -7.317      2.461     11.085
REMARK INTER + INTRA:          -9.929
REMARK INTER:                  -9.456
REMARK INTRA:                  -0.473
REMARK UNBOUND:                -0.687
REMARK  5 active torsions:
REMARK  status: ('A' for Active; 'I' for Inactive)
REMARK    1  A    between atoms: C_2  and  N_24 
REMARK    2  A    between atoms: C_5  and  C_7 
REMARK    3  A    between atoms: C_5  and  O_29 
REMARK    4  A    between atoms: C_10  and  C_11 
REMARK       I    between atoms: C_10  and  N_24 
REMARK    5  A    between atoms: C_15  and  C_18 
ROOT
HETATM    1  C   UNL     1      12.816 -24.749  58.449  1.00  0.00     0.048 A 
HETATM    2  C   UNL     1      13.164 -24.560  57.074  1.00  0.00     0.022 A 
HETATM    3  C   UNL     1      14.297 -23.920  56.716  1.00  0.00     0.050 A 
HETATM    4  C   UNL     1      15.147 -23.403  57.704  1.00  0.00     0.111 A 
HETATM    5  C   UNL     1      16.684 -22.499  58.918  1.00  0.00     0.060 A 
HETATM    6  C   UNL     1      15.769 -23.008  59.798  1.00  0.00     0.128 A 
HETATM    7  C   UNL     1      13.640 -24.258  59.405  1.00  0.00     0.115 A 
HETATM    8  N   UNL     1      16.301 -22.748  57.606  1.00  0.00    -0.340 N 
ATOM      9  HN  UNL     1      16.796 -22.486  56.754  1.00  0.00     0.167 HD
HETATM   10  N   UNL     1      14.777 -23.580  59.029  1.00  0.00    -0.316 N 
ENDROOT
BRANCH   1  11
HETATM   11  C   UNL     1      11.589 -25.493  58.771  1.00  0.00     0.253 C 
HETATM   12  O   UNL     1      11.593 -26.426  59.576  1.00  0.00    -0.268 OA
HETATM   13  N   UNL     1      10.465 -25.037  58.210  1.00  0.00    -0.352 N 
ATOM     14  HN  UNL     1      10.519 -24.241  57.574  1.00  0.00     0.163 HD
BRANCH  13  15
HETATM   15  C   UNL     1       9.164 -25.640  58.476  1.00  0.00     0.084 C 
HETATM   16  C   UNL     1       8.047 -24.715  58.024  1.00  0.00     0.026 C 
HETATM   17  C   UNL     1       6.686 -25.330  58.281  1.00  0.00     0.009 C 
HETATM   18  C   UNL     1       6.533 -26.688  57.635  1.00  0.00     0.019 C 
HETATM   19  C   UNL     1       7.665 -27.603  58.094  1.00  0.00     0.009 C 
HETATM   20  C   UNL     1       9.034 -26.986  57.813  1.00  0.00     0.026 C 
BRANCH  18  21
HETATM   21  C   UNL     1       5.137 -27.303  57.811  1.00  0.00     0.054 C 
HETATM   22  C   UNL     1       4.153 -26.769  56.788  1.00  0.00     0.045 C 
HETATM   23  C   UNL     1       5.260 -28.783  57.650  1.00  0.00     0.045 C 
BRANCH  21  24
HETATM   24  O   UNL     1       4.607 -27.065  59.140  1.00  0.00    -0.390 OA
ATOM     25  HO  UNL     1       3.941 -27.716  59.325  1.00  0.00     0.210 HD
ENDBRANCH  21  24
ENDBRANCH  18  21
ENDBRANCH  13  15
ENDBRANCH   1  11
BRANCH   5  26
HETATM   26  C   UNL     1      17.986 -21.869  59.200  1.00  0.00    -0.008 A 
HETATM   27  C   UNL     1      18.943 -22.535  59.962  1.00  0.00     0.014 A 
HETATM   28  C   UNL     1      20.123 -21.901  60.318  1.00  0.00     0.001 A 
HETATM   29  C   UNL     1      20.352 -20.597  59.938  1.00  0.00     0.000 A 
HETATM   30  C   UNL     1      19.396 -19.915  59.214  1.00  0.00     0.001 A 
HETATM   31  C   UNL     1      18.216 -20.539  58.855  1.00  0.00     0.014 A 
ENDBRANCH   5  26
TORSDOF 5
ENDMDL
