REMARK  3 active torsions:
REMARK  status: ('A' for Active; 'I' for Inactive)
REMARK    1  A    between atoms: C_4  and  C_7 
REMARK    2  A    between atoms: C_11  and  C_14 
REMARK    3  A    between atoms: C_12  and  C_13 
ROOT
HETATM    1  C   UNL     1      19.471  15.345  21.586  1.00  0.00     0.049 A 
HETATM    2  C   UNL     1      20.681  15.621  20.929  1.00  0.00     0.106 A 
HETATM    3  C   UNL     1      21.765  14.696  20.859  1.00  0.00     0.270 A 
HETATM    4  C   UNL     1      20.287  13.200  22.122  1.00  0.00     0.144 A 
HETATM    5  C   UNL     1      20.394  11.824  22.658  1.00  0.00     0.053 A 
HETATM    6  C   UNL     1      21.644  11.416  22.285  1.00  0.00     0.147 A 
HETATM    7  N   UNL     1      21.501  13.444  21.464  1.00  0.00    -0.202 N 
HETATM    8  N   UNL     1      19.302  14.101  22.168  1.00  0.00    -0.339 N 
ATOM      9  HN  UNL     1      18.424  13.872  22.633  1.00  0.00     0.167 HD
HETATM   10  N   UNL     1      22.327  12.353  21.588  1.00  0.00    -0.284 N 
ATOM     11  HN  UNL     1      23.276  12.266  21.223  1.00  0.00     0.187 HD
HETATM   12  O   UNL     1      22.873  14.798  20.331  1.00  0.00    -0.266 OA
ENDROOT
BRANCH   1  13
HETATM   13  C   UNL     1      18.310  16.349  21.634  1.00  0.00    -0.009 A 
HETATM   14  C   UNL     1      18.139  17.430  20.730  1.00  0.00     0.013 A 
HETATM   15  C   UNL     1      17.028  18.308  20.772  1.00  0.00     0.001 A 
HETATM   16  C   UNL     1      16.034  18.138  21.733  1.00  0.00     0.000 A 
HETATM   17  C   UNL     1      16.148  17.067  22.639  1.00  0.00     0.001 A 
HETATM   18  C   UNL     1      17.242  16.192  22.576  1.00  0.00     0.013 A 
ENDBRANCH   1  13
BRANCH   5  19
HETATM   19  C   UNL     1      19.386  11.128  23.454  1.00  0.00    -0.020 A 
HETATM   20  C   UNL     1      18.733  11.823  24.519  1.00  0.00     0.012 A 
HETATM   21  C   UNL     1      17.756  11.212  25.340  1.00  0.00     0.001 A 
HETATM   22  C   UNL     1      17.408   9.869  25.122  1.00  0.00     0.000 A 
HETATM   23  C   UNL     1      18.079   9.142  24.105  1.00  0.00     0.001 A 
HETATM   24  C   UNL     1      19.053   9.765  23.288  1.00  0.00     0.012 A 
ENDBRANCH   5  19
BRANCH   6  25
HETATM   25  C   UNL     1      22.329  10.074  22.505  1.00  0.00     0.434 C 
HETATM   26  F   UNL     1      22.159   9.707  23.780  1.00  0.00    -0.165 F 
HETATM   27  F   UNL     1      23.634  10.173  22.228  1.00  0.00    -0.165 F 
HETATM   28  F   UNL     1      21.817   9.100  21.692  1.00  0.00    -0.165 F 
ENDBRANCH   6  25
TORSDOF 3
