MODEL 1
REMARK VINA RESULT:    -8.503      0.000      0.000
REMARK INTER + INTRA:         -10.550
REMARK INTER:                 -10.243
REMARK INTRA:                  -0.307
REMARK UNBOUND:                -0.307
REMARK  5 active torsions:
REMARK  status: ('A' for Active; 'I' for Inactive)
REMARK    1  A    between atoms: C_1  and  O_19 
REMARK    2  A    between atoms: C_3  and  O_17 
REMARK    3  A    between atoms: C_5  and  C_7 
REMARK    4  A    between atoms: C_8  and  C_9 
REMARK    5  A    between atoms: C_12  and  O_15 
ROOT
HETATM    1  C   UNL     1       1.323  19.921 -25.289  1.00  0.00     0.069 A 
HETATM    2  C   UNL     1       1.762  18.673 -25.687  1.00  0.00     0.073 A 
HETATM    3  C   UNL     1       2.254  18.506 -26.981  1.00  0.00     0.069 A 
HETATM    4  C   UNL     1       2.297  19.575 -27.879  1.00  0.00     0.048 A 
HETATM    5  C   UNL     1       1.897  20.845 -27.445  1.00  0.00    -0.031 A 
HETATM    6  C   UNL     1       1.410  21.000 -26.159  1.00  0.00     0.048 A 
ENDROOT
BRANCH   5   7
HETATM    7  C   UNL     1       1.878  22.023 -28.326  1.00  0.00     0.012 C 
HETATM    8  C   UNL     1       2.705  22.291 -29.306  1.00  0.00     0.012 C 
BRANCH   8   9
HETATM    9  C   UNL     1       2.681  23.462 -30.183  1.00  0.00    -0.036 A 
HETATM   10  C   UNL     1       3.375  24.624 -29.852  1.00  0.00     0.014 A 
HETATM   11  C   UNL     1       3.392  25.719 -30.704  1.00  0.00     0.037 A 
HETATM   12  C   UNL     1       2.651  25.703 -31.880  1.00  0.00     0.065 A 
HETATM   13  C   UNL     1       1.979  24.555 -32.236  1.00  0.00     0.037 A 
HETATM   14  C   UNL     1       1.992  23.464 -31.398  1.00  0.00     0.014 A 
BRANCH  12  15
HETATM   15  O   UNL     1       2.656  26.779 -32.728  1.00  0.00    -0.361 OA
ATOM     16  HO  UNL     1       3.081  27.591 -32.480  1.00  0.00     0.217 HD
ENDBRANCH  12  15
ENDBRANCH   8   9
ENDBRANCH   5   7
BRANCH   3  17
HETATM   17  O   UNL     1       2.570  17.225 -27.383  1.00  0.00    -0.361 OA
ATOM     18  HO  UNL     1       3.489  16.991 -27.424  1.00  0.00     0.217 HD
ENDBRANCH   3  17
BRANCH   1  19
HETATM   19  O   UNL     1       0.865  20.157 -24.002  1.00  0.00    -0.361 OA
ATOM     20  HO  UNL     1      -0.063  20.196 -23.800  1.00  0.00     0.217 HD
ENDBRANCH   1  19
TORSDOF 5
ENDMDL
MODEL 2
REMARK VINA RESULT:    -8.362      0.351      2.036
REMARK INTER + INTRA:         -10.379
REMARK INTER:                 -10.048
REMARK INTRA:                  -0.331
REMARK UNBOUND:                -0.307
REMARK  5 active torsions:
REMARK  status: ('A' for Active; 'I' for Inactive)
REMARK    1  A    between atoms: C_1  and  O_19 
REMARK    2  A    between atoms: C_3  and  O_17 
REMARK    3  A    between atoms: C_5  and  C_7 
REMARK    4  A    between atoms: C_8  and  C_9 
REMARK    5  A    between atoms: C_12  and  O_15 
ROOT
HETATM    1  C   UNL     1       2.239  18.877 -27.135  1.00  0.00     0.069 A 
HETATM    2  C   UNL     1       1.745  18.897 -25.845  1.00  0.00     0.073 A 
HETATM    3  C   UNL     1       1.254  20.093 -25.324  1.00  0.00     0.069 A 
HETATM    4  C   UNL     1       1.268  21.268 -26.079  1.00  0.00     0.048 A 
HETATM    5  C   UNL     1       1.725  21.221 -27.402  1.00  0.00    -0.031 A 
HETATM    6  C   UNL     1       2.210  20.029 -27.910  1.00  0.00     0.048 A 
ENDROOT
BRANCH   5   7
HETATM    7  C   UNL     1       1.806  22.411 -28.264  1.00  0.00     0.012 C 
HETATM    8  C   UNL     1       2.520  22.551 -29.353  1.00  0.00     0.012 C 
BRANCH   8   9
HETATM    9  C   UNL     1       2.595  23.735 -30.211  1.00  0.00    -0.036 A 
HETATM   10  C   UNL     1       3.429  24.803 -29.892  1.00  0.00     0.014 A 
HETATM   11  C   UNL     1       3.536  25.906 -30.726  1.00  0.00     0.037 A 
HETATM   12  C   UNL     1       2.752  25.997 -31.871  1.00  0.00     0.065 A 
HETATM   13  C   UNL     1       1.941  24.940 -32.216  1.00  0.00     0.037 A 
HETATM   14  C   UNL     1       1.863  23.838 -31.397  1.00  0.00     0.014 A 
BRANCH  12  15
HETATM   15  O   UNL     1       2.846  27.082 -32.702  1.00  0.00    -0.361 OA
ATOM     16  HO  UNL     1       2.324  27.136 -33.493  1.00  0.00     0.217 HD
ENDBRANCH  12  15
ENDBRANCH   8   9
ENDBRANCH   5   7
BRANCH   3  17
HETATM   17  O   UNL     1       0.881  20.105 -23.996  1.00  0.00    -0.361 OA
ATOM     18  HO  UNL     1       0.663  20.944 -23.608  1.00  0.00     0.217 HD
ENDBRANCH   3  17
BRANCH   1  19
HETATM   19  O   UNL     1       2.699  17.708 -27.722  1.00  0.00    -0.361 OA
ATOM     20  HO  UNL     1       3.627  17.536 -27.833  1.00  0.00     0.217 HD
ENDBRANCH   1  19
TORSDOF 5
ENDMDL
MODEL 3
REMARK VINA RESULT:    -8.329      3.019      4.671
REMARK INTER + INTRA:         -10.340
REMARK INTER:                 -10.031
REMARK INTRA:                  -0.309
REMARK UNBOUND:                -0.307
REMARK  5 active torsions:
REMARK  status: ('A' for Active; 'I' for Inactive)
REMARK    1  A    between atoms: C_1  and  O_19 
REMARK    2  A    between atoms: C_3  and  O_17 
REMARK    3  A    between atoms: C_5  and  C_7 
REMARK    4  A    between atoms: C_8  and  C_9 
REMARK    5  A    between atoms: C_12  and  O_15 
ROOT
HETATM    1  C   UNL     1       2.224  22.282 -28.891  1.00  0.00     0.069 A 
HETATM    2  C   UNL     1       2.772  21.299 -29.692  1.00  0.00     0.073 A 
HETATM    3  C   UNL     1       3.002  21.570 -31.040  1.00  0.00     0.069 A 
HETATM    4  C   UNL     1       2.674  22.810 -31.591  1.00  0.00     0.048 A 
HETATM    5  C   UNL     1       2.167  23.814 -30.756  1.00  0.00    -0.031 A 
HETATM    6  C   UNL     1       1.942  23.534 -29.419  1.00  0.00     0.048 A 
ENDROOT
BRANCH   5   7
HETATM    7  C   UNL     1       1.765  25.140 -31.250  1.00  0.00     0.012 C 
HETATM    8  C   UNL     1       2.553  26.121 -31.612  1.00  0.00     0.012 C 
BRANCH   8   9
HETATM    9  C   UNL     1       2.150  27.438 -32.107  1.00  0.00    -0.036 A 
HETATM   10  C   UNL     1       1.413  28.312 -31.311  1.00  0.00     0.014 A 
HETATM   11  C   UNL     1       1.069  29.578 -31.761  1.00  0.00     0.037 A 
HETATM   12  C   UNL     1       1.396  29.975 -33.053  1.00  0.00     0.065 A 
HETATM   13  C   UNL     1       2.145  29.136 -33.844  1.00  0.00     0.037 A 
HETATM   14  C   UNL     1       2.506  27.893 -33.379  1.00  0.00     0.014 A 
BRANCH  12  15
HETATM   15  O   UNL     1       1.059  31.222 -33.510  1.00  0.00    -0.361 OA
ATOM     16  HO  UNL     1       0.513  31.800 -32.990  1.00  0.00     0.217 HD
ENDBRANCH  12  15
ENDBRANCH   8   9
ENDBRANCH   5   7
BRANCH   3  17
HETATM   17  O   UNL     1       3.437  20.529 -31.835  1.00  0.00    -0.361 OA
ATOM     18  HO  UNL     1       3.722  19.734 -31.401  1.00  0.00     0.217 HD
ENDBRANCH   3  17
BRANCH   1  19
HETATM   19  O   UNL     1       2.014  22.084 -27.534  1.00  0.00    -0.361 OA
ATOM     20  HO  UNL     1       2.586  22.467 -26.879  1.00  0.00     0.217 HD
ENDBRANCH   1  19
TORSDOF 5
ENDMDL
MODEL 4
REMARK VINA RESULT:    -8.289      2.853      8.888
REMARK INTER + INTRA:         -10.292
REMARK INTER:                  -9.948
REMARK INTRA:                  -0.344
REMARK UNBOUND:                -0.307
REMARK  5 active torsions:
REMARK  status: ('A' for Active; 'I' for Inactive)
REMARK    1  A    between atoms: C_1  and  O_19 
REMARK    2  A    between atoms: C_3  and  O_17 
REMARK    3  A    between atoms: C_5  and  C_7 
REMARK    4  A    between atoms: C_8  and  C_9 
REMARK    5  A    between atoms: C_12  and  O_15 
ROOT
HETATM    1  C   UNL     1       2.494  28.671 -34.191  1.00  0.00     0.069 A 
HETATM    2  C   UNL     1       1.861  29.819 -33.757  1.00  0.00     0.073 A 
HETATM    3  C   UNL     1       1.269  29.834 -32.495  1.00  0.00     0.069 A 
HETATM    4  C   UNL     1       1.296  28.705 -31.674  1.00  0.00     0.048 A 
HETATM    5  C   UNL     1       1.985  27.564 -32.106  1.00  0.00    -0.031 A 
HETATM    6  C   UNL     1       2.570  27.561 -33.361  1.00  0.00     0.048 A 
ENDROOT
BRANCH   5   7
HETATM    7  C   UNL     1       2.043  26.319 -31.325  1.00  0.00     0.012 C 
HETATM    8  C   UNL     1       2.250  25.108 -31.781  1.00  0.00     0.012 C 
BRANCH   8   9
HETATM    9  C   UNL     1       2.311  23.872 -31.001  1.00  0.00    -0.036 A 
HETATM   10  C   UNL     1       2.075  23.875 -29.628  1.00  0.00     0.014 A 
HETATM   11  C   UNL     1       2.086  22.698 -28.894  1.00  0.00     0.037 A 
HETATM   12  C   UNL     1       2.407  21.492 -29.508  1.00  0.00     0.065 A 
HETATM   13  C   UNL     1       2.618  21.466 -30.868  1.00  0.00     0.037 A 
HETATM   14  C   UNL     1       2.577  22.635 -31.592  1.00  0.00     0.014 A 
BRANCH  12  15
HETATM   15  O   UNL     1       2.425  20.323 -28.794  1.00  0.00    -0.361 OA
ATOM     16  HO  UNL     1       2.940  19.582 -29.087  1.00  0.00     0.217 HD
ENDBRANCH  12  15
ENDBRANCH   8   9
ENDBRANCH   5   7
BRANCH   3  17
HETATM   17  O   UNL     1       0.543  30.953 -32.144  1.00  0.00    -0.361 OA
ATOM     18  HO  UNL     1      -0.366  30.991 -32.417  1.00  0.00     0.217 HD
ENDBRANCH   3  17
BRANCH   1  19
HETATM   19  O   UNL     1       3.139  28.612 -35.418  1.00  0.00    -0.361 OA
ATOM     20  HO  UNL     1       4.009  28.243 -35.508  1.00  0.00     0.217 HD
ENDBRANCH   1  19
TORSDOF 5
ENDMDL
MODEL 5
REMARK VINA RESULT:    -8.252      3.176      5.297
REMARK INTER + INTRA:         -10.248
REMARK INTER:                  -9.935
REMARK INTRA:                  -0.313
REMARK UNBOUND:                -0.307
REMARK  5 active torsions:
REMARK  status: ('A' for Active; 'I' for Inactive)
REMARK    1  A    between atoms: C_1  and  O_19 
REMARK    2  A    between atoms: C_3  and  O_17 
REMARK    3  A    between atoms: C_5  and  C_7 
REMARK    4  A    between atoms: C_8  and  C_9 
REMARK    5  A    between atoms: C_12  and  O_15 
ROOT
HETATM    1  C   UNL     1       3.034  21.661 -31.370  1.00  0.00     0.069 A 
HETATM    2  C   UNL     1       2.836  21.401 -30.028  1.00  0.00     0.073 A 
HETATM    3  C   UNL     1       2.301  22.397 -29.213  1.00  0.00     0.069 A 
HETATM    4  C   UNL     1       1.977  23.653 -29.730  1.00  0.00     0.048 A 
HETATM    5  C   UNL     1       2.135  23.887 -31.102  1.00  0.00    -0.031 A 
HETATM    6  C   UNL     1       2.667  22.890 -31.902  1.00  0.00     0.048 A 
ENDROOT
BRANCH   5   7
HETATM    7  C   UNL     1       1.849  25.185 -31.733  1.00  0.00     0.012 C 
HETATM    8  C   UNL     1       2.299  26.359 -31.364  1.00  0.00     0.012 C 
BRANCH   8   9
HETATM    9  C   UNL     1       2.016  27.648 -31.996  1.00  0.00    -0.036 A 
HETATM   10  C   UNL     1       1.249  28.613 -31.349  1.00  0.00     0.014 A 
HETATM   11  C   UNL     1       1.017  29.854 -31.925  1.00  0.00     0.037 A 
HETATM   12  C   UNL     1       1.492  30.132 -33.202  1.00  0.00     0.065 A 
HETATM   13  C   UNL     1       2.273  29.200 -33.847  1.00  0.00     0.037 A 
HETATM   14  C   UNL     1       2.521  27.983 -33.255  1.00  0.00     0.014 A 
BRANCH  12  15
HETATM   15  O   UNL     1       1.268  31.352 -33.785  1.00  0.00    -0.361 OA
ATOM     16  HO  UNL     1       1.073  31.420 -34.712  1.00  0.00     0.217 HD
ENDBRANCH  12  15
ENDBRANCH   8   9
ENDBRANCH   5   7
BRANCH   3  17
HETATM   17  O   UNL     1       2.230  22.144 -27.859  1.00  0.00    -0.361 OA
ATOM     18  HO  UNL     1       2.528  22.826 -27.269  1.00  0.00     0.217 HD
ENDBRANCH   3  17
BRANCH   1  19
HETATM   19  O   UNL     1       3.521  20.695 -32.237  1.00  0.00    -0.361 OA
ATOM     20  HO  UNL     1       3.976  19.923 -31.921  1.00  0.00     0.217 HD
ENDBRANCH   1  19
TORSDOF 5
ENDMDL
MODEL 6
REMARK VINA RESULT:    -8.234      4.615      5.834
REMARK INTER + INTRA:         -10.226
REMARK INTER:                  -9.904
REMARK INTRA:                  -0.322
REMARK UNBOUND:                -0.307
REMARK  5 active torsions:
REMARK  status: ('A' for Active; 'I' for Inactive)
REMARK    1  A    between atoms: C_1  and  O_19 
REMARK    2  A    between atoms: C_3  and  O_17 
REMARK    3  A    between atoms: C_5  and  C_7 
REMARK    4  A    between atoms: C_8  and  C_9 
REMARK    5  A    between atoms: C_12  and  O_15 
ROOT
HETATM    1  C   UNL     1       7.734  17.106 -32.127  1.00  0.00     0.069 A 
HETATM    2  C   UNL     1       7.570  16.333 -30.994  1.00  0.00     0.073 A 
HETATM    3  C   UNL     1       6.584  16.680 -30.071  1.00  0.00     0.069 A 
HETATM    4  C   UNL     1       5.774  17.800 -30.269  1.00  0.00     0.048 A 
HETATM    5  C   UNL     1       5.918  18.545 -31.447  1.00  0.00    -0.031 A 
HETATM    6  C   UNL     1       6.900  18.191 -32.357  1.00  0.00     0.048 A 
ENDROOT
BRANCH   5   7
HETATM    7  C   UNL     1       5.133  19.756 -31.730  1.00  0.00     0.012 C 
HETATM    8  C   UNL     1       4.133  20.232 -31.030  1.00  0.00     0.012 C 
BRANCH   8   9
HETATM    9  C   UNL     1       3.357  21.440 -31.312  1.00  0.00    -0.036 A 
HETATM   10  C   UNL     1       2.826  22.212 -30.281  1.00  0.00     0.014 A 
HETATM   11  C   UNL     1       2.129  23.382 -30.543  1.00  0.00     0.037 A 
HETATM   12  C   UNL     1       1.884  23.772 -31.856  1.00  0.00     0.065 A 
HETATM   13  C   UNL     1       2.422  23.035 -32.887  1.00  0.00     0.037 A 
HETATM   14  C   UNL     1       3.136  21.892 -32.615  1.00  0.00     0.014 A 
BRANCH  12  15
HETATM   15  O   UNL     1       1.194  24.923 -32.129  1.00  0.00    -0.361 OA
ATOM     16  HO  UNL     1       0.603  24.972 -32.871  1.00  0.00     0.217 HD
ENDBRANCH  12  15
ENDBRANCH   8   9
ENDBRANCH   5   7
BRANCH   3  17
HETATM   17  O   UNL     1       6.528  15.959 -28.896  1.00  0.00    -0.361 OA
ATOM     18  HO  UNL     1       7.180  15.282 -28.765  1.00  0.00     0.217 HD
ENDBRANCH   3  17
BRANCH   1  19
HETATM   19  O   UNL     1       8.667  16.784 -33.101  1.00  0.00    -0.361 OA
ATOM     20  HO  UNL     1       8.410  16.409 -33.935  1.00  0.00     0.217 HD
ENDBRANCH   1  19
TORSDOF 5
ENDMDL
MODEL 7
REMARK VINA RESULT:    -8.156      4.463      5.435
REMARK INTER + INTRA:         -10.132
REMARK INTER:                  -9.790
REMARK INTRA:                  -0.342
REMARK UNBOUND:                -0.307
REMARK  5 active torsions:
REMARK  status: ('A' for Active; 'I' for Inactive)
REMARK    1  A    between atoms: C_1  and  O_19 
REMARK    2  A    between atoms: C_3  and  O_17 
REMARK    3  A    between atoms: C_5  and  C_7 
REMARK    4  A    between atoms: C_8  and  C_9 
REMARK    5  A    between atoms: C_12  and  O_15 
ROOT
HETATM    1  C   UNL     1       6.313  16.768 -30.014  1.00  0.00     0.069 A 
HETATM    2  C   UNL     1       7.356  16.374 -30.831  1.00  0.00     0.073 A 
HETATM    3  C   UNL     1       7.665  17.138 -31.955  1.00  0.00     0.069 A 
HETATM    4  C   UNL     1       6.932  18.283 -32.272  1.00  0.00     0.048 A 
HETATM    5  C   UNL     1       5.912  18.699 -31.408  1.00  0.00    -0.031 A 
HETATM    6  C   UNL     1       5.612  17.933 -30.294  1.00  0.00     0.048 A 
ENDROOT
BRANCH   5   7
HETATM    7  C   UNL     1       5.066  19.874 -31.673  1.00  0.00     0.012 C 
HETATM    8  C   UNL     1       4.148  20.380 -30.888  1.00  0.00     0.012 C 
BRANCH   8   9
HETATM    9  C   UNL     1       3.311  21.551 -31.154  1.00  0.00    -0.036 A 
HETATM   10  C   UNL     1       2.828  22.341 -30.113  1.00  0.00     0.014 A 
HETATM   11  C   UNL     1       2.073  23.478 -30.364  1.00  0.00     0.037 A 
HETATM   12  C   UNL     1       1.722  23.812 -31.667  1.00  0.00     0.065 A 
HETATM   13  C   UNL     1       2.212  23.058 -32.709  1.00  0.00     0.037 A 
HETATM   14  C   UNL     1       2.983  21.949 -32.452  1.00  0.00     0.014 A 
BRANCH  12  15
HETATM   15  O   UNL     1       0.974  24.930 -31.928  1.00  0.00    -0.361 OA
ATOM     16  HO  UNL     1       1.098  25.726 -31.426  1.00  0.00     0.217 HD
ENDBRANCH  12  15
ENDBRANCH   8   9
ENDBRANCH   5   7
BRANCH   3  17
HETATM   17  O   UNL     1       8.630  16.650 -32.812  1.00  0.00    -0.361 OA
ATOM     18  HO  UNL     1       8.537  15.754 -33.114  1.00  0.00     0.217 HD
ENDBRANCH   3  17
BRANCH   1  19
HETATM   19  O   UNL     1       5.988  16.073 -28.860  1.00  0.00    -0.361 OA
ATOM     20  HO  UNL     1       6.643  15.851 -28.208  1.00  0.00     0.217 HD
ENDBRANCH   1  19
TORSDOF 5
ENDMDL
MODEL 8
REMARK VINA RESULT:    -8.076      4.504      7.519
REMARK INTER + INTRA:         -10.036
REMARK INTER:                  -9.707
REMARK INTRA:                  -0.328
REMARK UNBOUND:                -0.307
REMARK  5 active torsions:
REMARK  status: ('A' for Active; 'I' for Inactive)
REMARK    1  A    between atoms: C_1  and  O_19 
REMARK    2  A    between atoms: C_3  and  O_17 
REMARK    3  A    between atoms: C_5  and  C_7 
REMARK    4  A    between atoms: C_8  and  C_9 
REMARK    5  A    between atoms: C_12  and  O_15 
ROOT
HETATM    1  C   UNL     1       2.029  23.318 -30.178  1.00  0.00     0.069 A 
HETATM    2  C   UNL     1       1.761  23.841 -31.428  1.00  0.00     0.073 A 
HETATM    3  C   UNL     1       2.293  23.216 -32.555  1.00  0.00     0.069 A 
HETATM    4  C   UNL     1       3.099  22.082 -32.437  1.00  0.00     0.048 A 
HETATM    5  C   UNL     1       3.321  21.533 -31.167  1.00  0.00    -0.031 A 
HETATM    6  C   UNL     1       2.789  22.162 -30.055  1.00  0.00     0.048 A 
ENDROOT
BRANCH   5   7
HETATM    7  C   UNL     1       4.180  20.361 -30.940  1.00  0.00     0.012 C 
HETATM    8  C   UNL     1       5.026  19.825 -31.784  1.00  0.00     0.012 C 
BRANCH   8   9
HETATM    9  C   UNL     1       5.882  18.661 -31.553  1.00  0.00    -0.036 A 
HETATM   10  C   UNL     1       5.746  17.883 -30.406  1.00  0.00     0.014 A 
HETATM   11  C   UNL     1       6.525  16.753 -30.206  1.00  0.00     0.037 A 
HETATM   12  C   UNL     1       7.513  16.412 -31.124  1.00  0.00     0.065 A 
HETATM   13  C   UNL     1       7.646  17.154 -32.275  1.00  0.00     0.037 A 
HETATM   14  C   UNL     1       6.850  18.257 -32.477  1.00  0.00     0.014 A 
BRANCH  12  15
HETATM   15  O   UNL     1       8.291  15.300 -30.936  1.00  0.00    -0.361 OA
ATOM     16  HO  UNL     1       8.866  14.988 -31.624  1.00  0.00     0.217 HD
ENDBRANCH  12  15
ENDBRANCH   8   9
ENDBRANCH   5   7
BRANCH   3  17
HETATM   17  O   UNL     1       2.105  23.833 -33.774  1.00  0.00    -0.361 OA
ATOM     18  HO  UNL     1       1.714  24.698 -33.773  1.00  0.00     0.217 HD
ENDBRANCH   3  17
BRANCH   1  19
HETATM   19  O   UNL     1       1.492  23.870 -29.025  1.00  0.00    -0.361 OA
ATOM     20  HO  UNL     1       1.294  24.797 -28.960  1.00  0.00     0.217 HD
ENDBRANCH   1  19
TORSDOF 5
ENDMDL
MODEL 9
REMARK VINA RESULT:    -7.915      4.172      7.711
REMARK INTER + INTRA:          -9.842
REMARK INTER:                  -9.510
REMARK INTRA:                  -0.332
REMARK UNBOUND:                -0.307
REMARK  5 active torsions:
REMARK  status: ('A' for Active; 'I' for Inactive)
REMARK    1  A    between atoms: C_1  and  O_19 
REMARK    2  A    between atoms: C_3  and  O_17 
REMARK    3  A    between atoms: C_5  and  C_7 
REMARK    4  A    between atoms: C_8  and  C_9 
REMARK    5  A    between atoms: C_12  and  O_15 
ROOT
HETATM    1  C   UNL     1       2.146  23.487 -32.910  1.00  0.00     0.069 A 
HETATM    2  C   UNL     1       1.552  24.229 -31.907  1.00  0.00     0.073 A 
HETATM    3  C   UNL     1       1.706  23.826 -30.581  1.00  0.00     0.069 A 
HETATM    4  C   UNL     1       2.437  22.681 -30.256  1.00  0.00     0.048 A 
HETATM    5  C   UNL     1       3.075  21.968 -31.279  1.00  0.00    -0.031 A 
HETATM    6  C   UNL     1       2.916  22.376 -32.592  1.00  0.00     0.048 A 
ENDROOT
BRANCH   5   7
HETATM    7  C   UNL     1       3.840  20.735 -31.038  1.00  0.00     0.012 C 
HETATM    8  C   UNL     1       4.862  20.291 -31.727  1.00  0.00     0.012 C 
BRANCH   8   9
HETATM    9  C   UNL     1       5.624  19.066 -31.482  1.00  0.00    -0.036 A 
HETATM   10  C   UNL     1       6.564  18.607 -32.401  1.00  0.00     0.014 A 
HETATM   11  C   UNL     1       7.320  17.471 -32.152  1.00  0.00     0.037 A 
HETATM   12  C   UNL     1       7.101  16.724 -31.000  1.00  0.00     0.065 A 
HETATM   13  C   UNL     1       6.194  17.175 -30.068  1.00  0.00     0.037 A 
HETATM   14  C   UNL     1       5.469  18.318 -30.312  1.00  0.00     0.014 A 
BRANCH  12  15
HETATM   15  O   UNL     1       7.838  15.598 -30.742  1.00  0.00    -0.361 OA
ATOM     16  HO  UNL     1       7.591  15.003 -30.045  1.00  0.00     0.217 HD
ENDBRANCH  12  15
ENDBRANCH   8   9
ENDBRANCH   5   7
BRANCH   3  17
HETATM   17  O   UNL     1       1.002  24.519 -29.618  1.00  0.00    -0.361 OA
ATOM     18  HO  UNL     1       0.345  24.041 -29.125  1.00  0.00     0.217 HD
ENDBRANCH   3  17
BRANCH   1  19
HETATM   19  O   UNL     1       2.064  23.864 -34.242  1.00  0.00    -0.361 OA
ATOM     20  HO  UNL     1       1.495  24.568 -34.528  1.00  0.00     0.217 HD
ENDBRANCH   1  19
TORSDOF 5
ENDMDL
MODEL 10
REMARK VINA RESULT:    -7.882      1.389      7.329
REMARK INTER + INTRA:          -9.802
REMARK INTER:                  -9.475
REMARK INTRA:                  -0.326
REMARK UNBOUND:                -0.307
REMARK  5 active torsions:
REMARK  status: ('A' for Active; 'I' for Inactive)
REMARK    1  A    between atoms: C_1  and  O_19 
REMARK    2  A    between atoms: C_3  and  O_17 
REMARK    3  A    between atoms: C_5  and  C_7 
REMARK    4  A    between atoms: C_8  and  C_9 
REMARK    5  A    between atoms: C_12  and  O_15 
ROOT
HETATM    1  C   UNL     1       3.514  25.499 -31.009  1.00  0.00     0.069 A 
HETATM    2  C   UNL     1       3.442  24.942 -32.271  1.00  0.00     0.073 A 
HETATM    3  C   UNL     1       2.955  23.644 -32.414  1.00  0.00     0.069 A 
HETATM    4  C   UNL     1       2.554  22.898 -31.304  1.00  0.00     0.048 A 
HETATM    5  C   UNL     1       2.585  23.493 -30.036  1.00  0.00    -0.031 A 
HETATM    6  C   UNL     1       3.070  24.783 -29.905  1.00  0.00     0.048 A 
ENDROOT
BRANCH   5   7
HETATM    7  C   UNL     1       2.212  22.778 -28.806  1.00  0.00     0.012 C 
HETATM    8  C   UNL     1       2.287  21.489 -28.587  1.00  0.00     0.012 C 
BRANCH   8   9
HETATM    9  C   UNL     1       1.918  20.781 -27.360  1.00  0.00    -0.036 A 
HETATM   10  C   UNL     1       1.873  19.390 -27.318  1.00  0.00     0.014 A 
HETATM   11  C   UNL     1       1.569  18.715 -26.144  1.00  0.00     0.037 A 
HETATM   12  C   UNL     1       1.232  19.424 -24.997  1.00  0.00     0.065 A 
HETATM   13  C   UNL     1       1.295  20.799 -25.013  1.00  0.00     0.037 A 
HETATM   14  C   UNL     1       1.625  21.458 -26.174  1.00  0.00     0.014 A 
BRANCH  12  15
HETATM   15  O   UNL     1       0.926  18.770 -23.832  1.00  0.00    -0.361 OA
ATOM     16  HO  UNL     1       0.693  17.850 -23.838  1.00  0.00     0.217 HD
ENDBRANCH  12  15
ENDBRANCH   8   9
ENDBRANCH   5   7
BRANCH   3  17
HETATM   17  O   UNL     1       3.011  23.077 -33.671  1.00  0.00    -0.361 OA
ATOM     18  HO  UNL     1       3.771  22.548 -33.881  1.00  0.00     0.217 HD
ENDBRANCH   3  17
BRANCH   1  19
HETATM   19  O   UNL     1       3.947  26.801 -30.809  1.00  0.00    -0.361 OA
ATOM     20  HO  UNL     1       4.601  27.202 -31.371  1.00  0.00     0.217 HD
ENDBRANCH   1  19
TORSDOF 5
ENDMDL
MODEL 11
REMARK VINA RESULT:    -7.865      4.130      7.680
REMARK INTER + INTRA:          -9.782
REMARK INTER:                  -9.439
REMARK INTRA:                  -0.343
REMARK UNBOUND:                -0.307
REMARK  5 active torsions:
REMARK  status: ('A' for Active; 'I' for Inactive)
REMARK    1  A    between atoms: C_1  and  O_19 
REMARK    2  A    between atoms: C_3  and  O_17 
REMARK    3  A    between atoms: C_5  and  C_7 
REMARK    4  A    between atoms: C_8  and  C_9 
REMARK    5  A    between atoms: C_12  and  O_15 
ROOT
HETATM    1  C   UNL     1       2.141  23.481 -32.905  1.00  0.00     0.069 A 
HETATM    2  C   UNL     1       1.512  24.229 -31.928  1.00  0.00     0.073 A 
HETATM    3  C   UNL     1       1.662  23.864 -30.591  1.00  0.00     0.069 A 
HETATM    4  C   UNL     1       2.425  22.752 -30.229  1.00  0.00     0.048 A 
HETATM    5  C   UNL     1       3.097  22.033 -31.226  1.00  0.00    -0.031 A 
HETATM    6  C   UNL     1       2.941  22.403 -32.550  1.00  0.00     0.048 A 
ENDROOT
BRANCH   5   7
HETATM    7  C   UNL     1       3.898  20.831 -30.945  1.00  0.00     0.012 C 
HETATM    8  C   UNL     1       4.768  20.258 -31.739  1.00  0.00     0.012 C 
BRANCH   8   9
HETATM    9  C   UNL     1       5.566  19.064 -31.455  1.00  0.00    -0.036 A 
HETATM   10  C   UNL     1       5.378  18.335 -30.283  1.00  0.00     0.014 A 
HETATM   11  C   UNL     1       6.101  17.178 -30.032  1.00  0.00     0.037 A 
HETATM   12  C   UNL     1       7.085  16.760 -30.922  1.00  0.00     0.065 A 
HETATM   13  C   UNL     1       7.267  17.453 -32.097  1.00  0.00     0.037 A 
HETATM   14  C   UNL     1       6.526  18.584 -32.349  1.00  0.00     0.014 A 
BRANCH  12  15
HETATM   15  O   UNL     1       7.808  15.621 -30.685  1.00  0.00    -0.361 OA
ATOM     16  HO  UNL     1       7.468  14.769 -30.930  1.00  0.00     0.217 HD
ENDBRANCH  12  15
ENDBRANCH   8   9
ENDBRANCH   5   7
BRANCH   3  17
HETATM   17  O   UNL     1       0.925  24.558 -29.654  1.00  0.00    -0.361 OA
ATOM     18  HO  UNL     1       1.003  24.289 -28.747  1.00  0.00     0.217 HD
ENDBRANCH   3  17
BRANCH   1  19
HETATM   19  O   UNL     1       2.063  23.821 -34.247  1.00  0.00    -0.361 OA
ATOM     20  HO  UNL     1       2.091  24.726 -34.536  1.00  0.00     0.217 HD
ENDBRANCH   1  19
TORSDOF 5
ENDMDL
MODEL 12
REMARK VINA RESULT:    -7.795      1.166      7.604
REMARK INTER + INTRA:          -9.697
REMARK INTER:                  -9.379
REMARK INTRA:                  -0.318
REMARK UNBOUND:                -0.307
REMARK  5 active torsions:
REMARK  status: ('A' for Active; 'I' for Inactive)
REMARK    1  A    between atoms: C_1  and  O_19 
REMARK    2  A    between atoms: C_3  and  O_17 
REMARK    3  A    between atoms: C_5  and  C_7 
REMARK    4  A    between atoms: C_8  and  C_9 
REMARK    5  A    between atoms: C_12  and  O_15 
ROOT
HETATM    1  C   UNL     1       2.349  24.305 -32.593  1.00  0.00     0.069 A 
HETATM    2  C   UNL     1       2.674  25.624 -32.341  1.00  0.00     0.073 A 
HETATM    3  C   UNL     1       3.057  25.995 -31.053  1.00  0.00     0.069 A 
HETATM    4  C   UNL     1       3.103  25.059 -30.017  1.00  0.00     0.048 A 
HETATM    5  C   UNL     1       2.820  23.716 -30.299  1.00  0.00    -0.031 A 
HETATM    6  C   UNL     1       2.441  23.359 -31.582  1.00  0.00     0.048 A 
ENDROOT
BRANCH   5   7
HETATM    7  C   UNL     1       2.814  22.665 -29.270  1.00  0.00     0.012 C 
HETATM    8  C   UNL     1       1.812  22.319 -28.500  1.00  0.00     0.012 C 
BRANCH   8   9
HETATM    9  C   UNL     1       1.808  21.270 -27.480  1.00  0.00    -0.036 A 
HETATM   10  C   UNL     1       1.965  19.930 -27.824  1.00  0.00     0.014 A 
HETATM   11  C   UNL     1       2.007  18.938 -26.856  1.00  0.00     0.037 A 
HETATM   12  C   UNL     1       1.821  19.259 -25.516  1.00  0.00     0.065 A 
HETATM   13  C   UNL     1       1.690  20.581 -25.153  1.00  0.00     0.037 A 
HETATM   14  C   UNL     1       1.678  21.560 -26.119  1.00  0.00     0.014 A 
BRANCH  12  15
HETATM   15  O   UNL     1       1.857  18.289 -24.549  1.00  0.00    -0.361 OA
ATOM     16  HO  UNL     1       2.127  17.403 -24.760  1.00  0.00     0.217 HD
ENDBRANCH  12  15
ENDBRANCH   8   9
ENDBRANCH   5   7
BRANCH   3  17
HETATM   17  O   UNL     1       3.257  27.338 -30.808  1.00  0.00    -0.361 OA
ATOM     18  HO  UNL     1       2.675  27.763 -30.189  1.00  0.00     0.217 HD
ENDBRANCH   3  17
BRANCH   1  19
HETATM   19  O   UNL     1       2.004  23.869 -33.864  1.00  0.00    -0.361 OA
ATOM     20  HO  UNL     1       1.100  23.713 -34.110  1.00  0.00     0.217 HD
ENDBRANCH   1  19
TORSDOF 5
ENDMDL
MODEL 13
REMARK VINA RESULT:    -7.754      2.941      8.658
REMARK INTER + INTRA:          -9.648
REMARK INTER:                  -9.324
REMARK INTRA:                  -0.324
REMARK UNBOUND:                -0.307
REMARK  5 active torsions:
REMARK  status: ('A' for Active; 'I' for Inactive)
REMARK    1  A    between atoms: C_1  and  O_19 
REMARK    2  A    between atoms: C_3  and  O_17 
REMARK    3  A    between atoms: C_5  and  C_7 
REMARK    4  A    between atoms: C_8  and  C_9 
REMARK    5  A    between atoms: C_12  and  O_15 
ROOT
HETATM    1  C   UNL     1       1.279  29.725 -32.107  1.00  0.00     0.069 A 
HETATM    2  C   UNL     1       1.696  29.911 -33.411  1.00  0.00     0.073 A 
HETATM    3  C   UNL     1       2.267  28.843 -34.101  1.00  0.00     0.069 A 
HETATM    4  C   UNL     1       2.433  27.598 -33.491  1.00  0.00     0.048 A 
HETATM    5  C   UNL     1       1.960  27.410 -32.186  1.00  0.00    -0.031 A 
HETATM    6  C   UNL     1       1.395  28.477 -31.510  1.00  0.00     0.048 A 
ENDROOT
BRANCH   5   7
HETATM    7  C   UNL     1       2.117  26.145 -31.451  1.00  0.00     0.012 C 
HETATM    8  C   UNL     1       2.083  24.933 -31.947  1.00  0.00     0.012 C 
BRANCH   8   9
HETATM    9  C   UNL     1       2.244  23.677 -31.213  1.00  0.00    -0.036 A 
HETATM   10  C   UNL     1       2.437  22.472 -31.883  1.00  0.00     0.014 A 
HETATM   11  C   UNL     1       2.636  21.287 -31.190  1.00  0.00     0.037 A 
HETATM   12  C   UNL     1       2.575  21.270 -29.801  1.00  0.00     0.065 A 
HETATM   13  C   UNL     1       2.411  22.455 -29.121  1.00  0.00     0.037 A 
HETATM   14  C   UNL     1       2.242  23.629 -29.817  1.00  0.00     0.014 A 
BRANCH  12  15
HETATM   15  O   UNL     1       2.766  20.106 -29.104  1.00  0.00    -0.361 OA
ATOM     16  HO  UNL     1       2.244  19.907 -28.336  1.00  0.00     0.217 HD
ENDBRANCH  12  15
ENDBRANCH   8   9
ENDBRANCH   5   7
BRANCH   3  17
HETATM   17  O   UNL     1       2.780  29.096 -35.356  1.00  0.00    -0.361 OA
ATOM     18  HO  UNL     1       2.867  28.361 -35.951  1.00  0.00     0.217 HD
ENDBRANCH   3  17
BRANCH   1  19
HETATM   19  O   UNL     1       0.665  30.738 -31.386  1.00  0.00    -0.361 OA
ATOM     20  HO  UNL     1       0.313  31.512 -31.811  1.00  0.00     0.217 HD
ENDBRANCH   1  19
TORSDOF 5
ENDMDL
MODEL 14
REMARK VINA RESULT:    -7.739      1.457      2.637
REMARK INTER + INTRA:          -9.630
REMARK INTER:                  -9.310
REMARK INTRA:                  -0.320
REMARK UNBOUND:                -0.307
REMARK  5 active torsions:
REMARK  status: ('A' for Active; 'I' for Inactive)
REMARK    1  A    between atoms: C_1  and  O_19 
REMARK    2  A    between atoms: C_3  and  O_17 
REMARK    3  A    between atoms: C_5  and  C_7 
REMARK    4  A    between atoms: C_8  and  C_9 
REMARK    5  A    between atoms: C_12  and  O_15 
ROOT
HETATM    1  C   UNL     1       3.213  18.102 -26.023  1.00  0.00     0.069 A 
HETATM    2  C   UNL     1       2.453  18.522 -24.949  1.00  0.00     0.073 A 
HETATM    3  C   UNL     1       1.546  19.567 -25.124  1.00  0.00     0.069 A 
HETATM    4  C   UNL     1       1.408  20.200 -26.361  1.00  0.00     0.048 A 
HETATM    5  C   UNL     1       2.148  19.730 -27.453  1.00  0.00    -0.031 A 
HETATM    6  C   UNL     1       3.045  18.692 -27.268  1.00  0.00     0.048 A 
ENDROOT
BRANCH   5   7
HETATM    7  C   UNL     1       2.092  20.351 -28.786  1.00  0.00     0.012 C 
HETATM    8  C   UNL     1       2.502  21.550 -29.118  1.00  0.00     0.012 C 
BRANCH   8   9
HETATM    9  C   UNL     1       2.449  22.163 -30.446  1.00  0.00    -0.036 A 
HETATM   10  C   UNL     1       2.021  23.477 -30.614  1.00  0.00     0.014 A 
HETATM   11  C   UNL     1       2.013  24.076 -31.866  1.00  0.00     0.037 A 
HETATM   12  C   UNL     1       2.367  23.345 -32.994  1.00  0.00     0.065 A 
HETATM   13  C   UNL     1       2.816  22.053 -32.844  1.00  0.00     0.037 A 
HETATM   14  C   UNL     1       2.848  21.477 -31.595  1.00  0.00     0.014 A 
BRANCH  12  15
HETATM   15  O   UNL     1       2.360  23.923 -34.236  1.00  0.00    -0.361 OA
ATOM     16  HO  UNL     1       1.547  24.210 -34.635  1.00  0.00     0.217 HD
ENDBRANCH  12  15
ENDBRANCH   8   9
ENDBRANCH   5   7
BRANCH   3  17
HETATM   17  O   UNL     1       0.893  20.040 -24.005  1.00  0.00    -0.361 OA
ATOM     18  HO  UNL     1       0.426  20.863 -24.084  1.00  0.00     0.217 HD
ENDBRANCH   3  17
BRANCH   1  19
HETATM   19  O   UNL     1       4.098  17.040 -25.919  1.00  0.00    -0.361 OA
ATOM     20  HO  UNL     1       5.035  17.156 -26.029  1.00  0.00     0.217 HD
ENDBRANCH   1  19
TORSDOF 5
ENDMDL
MODEL 15
REMARK VINA RESULT:    -7.696      5.302      6.878
REMARK INTER + INTRA:          -9.578
REMARK INTER:                  -9.259
REMARK INTRA:                  -0.319
REMARK UNBOUND:                -0.307
REMARK  5 active torsions:
REMARK  status: ('A' for Active; 'I' for Inactive)
REMARK    1  A    between atoms: C_1  and  O_19 
REMARK    2  A    between atoms: C_3  and  O_17 
REMARK    3  A    between atoms: C_5  and  C_7 
REMARK    4  A    between atoms: C_8  and  C_9 
REMARK    5  A    between atoms: C_12  and  O_15 
ROOT
HETATM    1  C   UNL     1       3.484  17.858 -24.502  1.00  0.00     0.069 A 
HETATM    2  C   UNL     1       2.404  18.694 -24.705  1.00  0.00     0.073 A 
HETATM    3  C   UNL     1       2.044  19.037 -26.007  1.00  0.00     0.069 A 
HETATM    4  C   UNL     1       2.766  18.559 -27.103  1.00  0.00     0.048 A 
HETATM    5  C   UNL     1       3.827  17.671 -26.885  1.00  0.00    -0.031 A 
HETATM    6  C   UNL     1       4.176  17.338 -25.587  1.00  0.00     0.048 A 
ENDROOT
BRANCH   5   7
HETATM    7  C   UNL     1       4.664  17.139 -27.972  1.00  0.00     0.012 C 
HETATM    8  C   UNL     1       5.473  17.814 -28.750  1.00  0.00     0.012 C 
BRANCH   8   9
HETATM    9  C   UNL     1       6.306  17.281 -29.828  1.00  0.00    -0.036 A 
HETATM   10  C   UNL     1       6.321  17.876 -31.088  1.00  0.00     0.014 A 
HETATM   11  C   UNL     1       7.145  17.401 -32.098  1.00  0.00     0.037 A 
HETATM   12  C   UNL     1       7.925  16.268 -31.890  1.00  0.00     0.065 A 
HETATM   13  C   UNL     1       7.943  15.683 -30.645  1.00  0.00     0.037 A 
HETATM   14  C   UNL     1       7.144  16.178 -29.642  1.00  0.00     0.014 A 
BRANCH  12  15
HETATM   15  O   UNL     1       8.740  15.787 -32.881  1.00  0.00    -0.361 OA
ATOM     16  HO  UNL     1       9.615  15.475 -32.682  1.00  0.00     0.217 HD
ENDBRANCH  12  15
ENDBRANCH   8   9
ENDBRANCH   5   7
BRANCH   3  17
HETATM   17  O   UNL     1       1.039  19.968 -26.168  1.00  0.00    -0.361 OA
ATOM     18  HO  UNL     1       0.227  19.823 -25.697  1.00  0.00     0.217 HD
ENDBRANCH   3  17
BRANCH   1  19
HETATM   19  O   UNL     1       3.861  17.448 -23.232  1.00  0.00    -0.361 OA
ATOM     20  HO  UNL     1       3.285  16.929 -22.682  1.00  0.00     0.217 HD
ENDBRANCH   1  19
TORSDOF 5
ENDMDL
MODEL 16
REMARK VINA RESULT:    -7.597      4.220      9.053
REMARK INTER + INTRA:          -9.459
REMARK INTER:                  -9.121
REMARK INTRA:                  -0.338
REMARK UNBOUND:                -0.307
REMARK  5 active torsions:
REMARK  status: ('A' for Active; 'I' for Inactive)
REMARK    1  A    between atoms: C_1  and  O_19 
REMARK    2  A    between atoms: C_3  and  O_17 
REMARK    3  A    between atoms: C_5  and  C_7 
REMARK    4  A    between atoms: C_8  and  C_9 
REMARK    5  A    between atoms: C_12  and  O_15 
ROOT
HETATM    1  C   UNL     1       1.057  30.587 -30.875  1.00  0.00     0.069 A 
HETATM    2  C   UNL     1       1.182  31.451 -31.946  1.00  0.00     0.073 A 
HETATM    3  C   UNL     1       1.563  30.945 -33.187  1.00  0.00     0.069 A 
HETATM    4  C   UNL     1       1.832  29.585 -33.359  1.00  0.00     0.048 A 
HETATM    5  C   UNL     1       1.652  28.713 -32.277  1.00  0.00    -0.031 A 
HETATM    6  C   UNL     1       1.274  29.227 -31.049  1.00  0.00     0.048 A 
ENDROOT
BRANCH   5   7
HETATM    7  C   UNL     1       1.938  27.272 -32.353  1.00  0.00     0.012 C 
HETATM    8  C   UNL     1       1.823  26.391 -31.391  1.00  0.00     0.012 C 
BRANCH   8   9
HETATM    9  C   UNL     1       2.105  24.958 -31.471  1.00  0.00    -0.036 A 
HETATM   10  C   UNL     1       2.523  24.243 -30.351  1.00  0.00     0.014 A 
HETATM   11  C   UNL     1       2.747  22.875 -30.413  1.00  0.00     0.037 A 
HETATM   12  C   UNL     1       2.625  22.200 -31.623  1.00  0.00     0.065 A 
HETATM   13  C   UNL     1       2.190  22.885 -32.734  1.00  0.00     0.037 A 
HETATM   14  C   UNL     1       1.943  24.235 -32.656  1.00  0.00     0.014 A 
BRANCH  12  15
HETATM   15  O   UNL     1       2.847  20.850 -31.698  1.00  0.00    -0.361 OA
ATOM     16  HO  UNL     1       2.172  20.263 -32.018  1.00  0.00     0.217 HD
ENDBRANCH  12  15
ENDBRANCH   8   9
ENDBRANCH   5   7
BRANCH   3  17
HETATM   17  O   UNL     1       1.794  31.850 -34.202  1.00  0.00    -0.361 OA
ATOM     18  HO  UNL     1       1.321  31.727 -35.017  1.00  0.00     0.217 HD
ENDBRANCH   3  17
BRANCH   1  19
HETATM   19  O   UNL     1       0.639  31.026 -29.628  1.00  0.00    -0.361 OA
ATOM     20  HO  UNL     1       0.349  30.421 -28.956  1.00  0.00     0.217 HD
ENDBRANCH   1  19
TORSDOF 5
ENDMDL
MODEL 17
REMARK VINA RESULT:    -7.555      5.261      7.957
REMARK INTER + INTRA:          -9.408
REMARK INTER:                  -9.085
REMARK INTRA:                  -0.322
REMARK UNBOUND:                -0.307
REMARK  5 active torsions:
REMARK  status: ('A' for Active; 'I' for Inactive)
REMARK    1  A    between atoms: C_1  and  O_19 
REMARK    2  A    between atoms: C_3  and  O_17 
REMARK    3  A    between atoms: C_5  and  C_7 
REMARK    4  A    between atoms: C_8  and  C_9 
REMARK    5  A    between atoms: C_12  and  O_15 
ROOT
HETATM    1  C   UNL     1       2.507  22.622 -32.334  1.00  0.00     0.069 A 
HETATM    2  C   UNL     1       2.061  22.882 -31.052  1.00  0.00     0.073 A 
HETATM    3  C   UNL     1       2.523  22.094 -29.999  1.00  0.00     0.069 A 
HETATM    4  C   UNL     1       3.416  21.044 -30.222  1.00  0.00     0.048 A 
HETATM    5  C   UNL     1       3.898  20.825 -31.519  1.00  0.00    -0.031 A 
HETATM    6  C   UNL     1       3.433  21.612 -32.558  1.00  0.00     0.048 A 
ENDROOT
BRANCH   5   7
HETATM    7  C   UNL     1       4.816  19.725 -31.857  1.00  0.00     0.012 C 
HETATM    8  C   UNL     1       5.615  19.083 -31.042  1.00  0.00     0.012 C 
BRANCH   8   9
HETATM    9  C   UNL     1       6.524  17.987 -31.381  1.00  0.00    -0.036 A 
HETATM   10  C   UNL     1       6.838  16.999 -30.451  1.00  0.00     0.014 A 
HETATM   11  C   UNL     1       7.662  15.934 -30.784  1.00  0.00     0.037 A 
HETATM   12  C   UNL     1       8.252  15.872 -32.042  1.00  0.00     0.065 A 
HETATM   13  C   UNL     1       7.934  16.825 -32.981  1.00  0.00     0.037 A 
HETATM   14  C   UNL     1       7.093  17.862 -32.651  1.00  0.00     0.014 A 
BRANCH  12  15
HETATM   15  O   UNL     1       9.071  14.827 -32.382  1.00  0.00    -0.361 OA
ATOM     16  HO  UNL     1       9.906  14.703 -31.948  1.00  0.00     0.217 HD
ENDBRANCH  12  15
ENDBRANCH   8   9
ENDBRANCH   5   7
BRANCH   3  17
HETATM   17  O   UNL     1       1.966  22.303 -28.754  1.00  0.00    -0.361 OA
ATOM     18  HO  UNL     1       1.635  21.545 -28.288  1.00  0.00     0.217 HD
ENDBRANCH   3  17
BRANCH   1  19
HETATM   19  O   UNL     1       2.117  23.400 -33.414  1.00  0.00    -0.361 OA
ATOM     20  HO  UNL     1       1.545  23.061 -34.093  1.00  0.00     0.217 HD
ENDBRANCH   1  19
TORSDOF 5
ENDMDL
MODEL 18
REMARK VINA RESULT:    -7.220     10.861     12.584
REMARK INTER + INTRA:          -9.004
REMARK INTER:                  -8.682
REMARK INTRA:                  -0.323
REMARK UNBOUND:                -0.307
REMARK  5 active torsions:
REMARK  status: ('A' for Active; 'I' for Inactive)
REMARK    1  A    between atoms: C_1  and  O_19 
REMARK    2  A    between atoms: C_3  and  O_17 
REMARK    3  A    between atoms: C_5  and  C_7 
REMARK    4  A    between atoms: C_8  and  C_9 
REMARK    5  A    between atoms: C_12  and  O_15 
ROOT
HETATM    1  C   UNL     1      11.362  11.615 -35.106  1.00  0.00     0.069 A 
HETATM    2  C   UNL     1      11.034  11.308 -36.412  1.00  0.00     0.073 A 
HETATM    3  C   UNL     1       9.904  11.892 -36.984  1.00  0.00     0.069 A 
HETATM    4  C   UNL     1       9.098  12.768 -36.254  1.00  0.00     0.048 A 
HETATM    5  C   UNL     1       9.472  13.109 -34.948  1.00  0.00    -0.031 A 
HETATM    6  C   UNL     1      10.595  12.524 -34.390  1.00  0.00     0.048 A 
ENDROOT
BRANCH   5   7
HETATM    7  C   UNL     1       8.671  13.998 -34.092  1.00  0.00     0.012 C 
HETATM    8  C   UNL     1       9.104  15.001 -33.370  1.00  0.00     0.012 C 
BRANCH   8   9
HETATM    9  C   UNL     1       8.303  15.886 -32.522  1.00  0.00    -0.036 A 
HETATM   10  C   UNL     1       7.728  17.047 -33.034  1.00  0.00     0.014 A 
HETATM   11  C   UNL     1       6.931  17.863 -32.245  1.00  0.00     0.037 A 
HETATM   12  C   UNL     1       6.749  17.572 -30.897  1.00  0.00     0.065 A 
HETATM   13  C   UNL     1       7.289  16.417 -30.380  1.00  0.00     0.037 A 
HETATM   14  C   UNL     1       8.054  15.599 -31.178  1.00  0.00     0.014 A 
BRANCH  12  15
HETATM   15  O   UNL     1       5.967  18.372 -30.106  1.00  0.00    -0.361 OA
ATOM     16  HO  UNL     1       6.281  19.218 -29.810  1.00  0.00     0.217 HD
ENDBRANCH  12  15
ENDBRANCH   8   9
ENDBRANCH   5   7
BRANCH   3  17
HETATM   17  O   UNL     1       9.538  11.471 -38.246  1.00  0.00    -0.361 OA
ATOM     18  HO  UNL     1       9.939  10.676 -38.577  1.00  0.00     0.217 HD
ENDBRANCH   3  17
BRANCH   1  19
HETATM   19  O   UNL     1      12.498  11.100 -34.499  1.00  0.00    -0.361 OA
ATOM     20  HO  UNL     1      12.467  10.315 -33.965  1.00  0.00     0.217 HD
ENDBRANCH   1  19
TORSDOF 5
ENDMDL
MODEL 19
REMARK VINA RESULT:    -7.181      4.225      6.635
REMARK INTER + INTRA:          -8.958
REMARK INTER:                  -8.612
REMARK INTRA:                  -0.346
REMARK UNBOUND:                -0.307
REMARK  5 active torsions:
REMARK  status: ('A' for Active; 'I' for Inactive)
REMARK    1  A    between atoms: C_1  and  O_19 
REMARK    2  A    between atoms: C_3  and  O_17 
REMARK    3  A    between atoms: C_5  and  C_7 
REMARK    4  A    between atoms: C_8  and  C_9 
REMARK    5  A    between atoms: C_12  and  O_15 
ROOT
HETATM    1  C   UNL     1       1.786  22.232 -28.031  1.00  0.00     0.069 A 
HETATM    2  C   UNL     1       1.359  23.406 -28.621  1.00  0.00     0.073 A 
HETATM    3  C   UNL     1       1.847  23.751 -29.881  1.00  0.00     0.069 A 
HETATM    4  C   UNL     1       2.766  22.936 -30.545  1.00  0.00     0.048 A 
HETATM    5  C   UNL     1       3.151  21.724 -29.958  1.00  0.00    -0.031 A 
HETATM    6  C   UNL     1       2.661  21.392 -28.707  1.00  0.00     0.048 A 
ENDROOT
BRANCH   5   7
HETATM    7  C   UNL     1       4.136  20.816 -30.566  1.00  0.00     0.012 C 
HETATM    8  C   UNL     1       4.528  19.654 -30.108  1.00  0.00     0.012 C 
BRANCH   8   9
HETATM    9  C   UNL     1       5.505  18.751 -30.718  1.00  0.00    -0.036 A 
HETATM   10  C   UNL     1       5.982  18.972 -32.007  1.00  0.00     0.014 A 
HETATM   11  C   UNL     1       6.942  18.144 -32.571  1.00  0.00     0.037 A 
HETATM   12  C   UNL     1       7.397  17.027 -31.879  1.00  0.00     0.065 A 
HETATM   13  C   UNL     1       6.956  16.807 -30.594  1.00  0.00     0.037 A 
HETATM   14  C   UNL     1       6.025  17.649 -30.033  1.00  0.00     0.014 A 
BRANCH  12  15
HETATM   15  O   UNL     1       8.342  16.200 -32.426  1.00  0.00    -0.361 OA
ATOM     16  HO  UNL     1       9.199  16.108 -32.026  1.00  0.00     0.217 HD
ENDBRANCH  12  15
ENDBRANCH   8   9
ENDBRANCH   5   7
BRANCH   3  17
HETATM   17  O   UNL     1       1.494  24.985 -30.386  1.00  0.00    -0.361 OA
ATOM     18  HO  UNL     1       1.789  25.754 -29.913  1.00  0.00     0.217 HD
ENDBRANCH   3  17
BRANCH   1  19
HETATM   19  O   UNL     1       1.302  21.816 -26.800  1.00  0.00    -0.361 OA
ATOM     20  HO  UNL     1       1.488  22.296 -26.002  1.00  0.00     0.217 HD
ENDBRANCH   1  19
TORSDOF 5
ENDMDL
MODEL 20
REMARK VINA RESULT:    -6.783     14.938     16.438
REMARK INTER + INTRA:          -8.477
REMARK INTER:                  -8.139
REMARK INTRA:                  -0.338
REMARK UNBOUND:                -0.307
REMARK  5 active torsions:
REMARK  status: ('A' for Active; 'I' for Inactive)
REMARK    1  A    between atoms: C_1  and  O_19 
REMARK    2  A    between atoms: C_3  and  O_17 
REMARK    3  A    between atoms: C_5  and  C_7 
REMARK    4  A    between atoms: C_8  and  C_9 
REMARK    5  A    between atoms: C_12  and  O_15 
ROOT
HETATM    1  C   UNL     1       3.978  11.816 -42.760  1.00  0.00     0.069 A 
HETATM    2  C   UNL     1       4.314  10.692 -43.491  1.00  0.00     0.073 A 
HETATM    3  C   UNL     1       5.369   9.891 -43.059  1.00  0.00     0.069 A 
HETATM    4  C   UNL     1       6.095  10.213 -41.911  1.00  0.00     0.048 A 
HETATM    5  C   UNL     1       5.711  11.326 -41.152  1.00  0.00    -0.031 A 
HETATM    6  C   UNL     1       4.662  12.116 -41.590  1.00  0.00     0.048 A 
ENDROOT
BRANCH   5   7
HETATM    7  C   UNL     1       6.432  11.762 -39.946  1.00  0.00     0.012 C 
HETATM    8  C   UNL     1       6.712  12.992 -39.593  1.00  0.00     0.012 C 
BRANCH   8   9
HETATM    9  C   UNL     1       7.426  13.422 -38.390  1.00  0.00    -0.036 A 
HETATM   10  C   UNL     1       7.830  14.745 -38.228  1.00  0.00     0.014 A 
HETATM   11  C   UNL     1       8.466  15.166 -37.069  1.00  0.00     0.037 A 
HETATM   12  C   UNL     1       8.779  14.250 -36.070  1.00  0.00     0.065 A 
HETATM   13  C   UNL     1       8.366  12.945 -36.202  1.00  0.00     0.037 A 
HETATM   14  C   UNL     1       7.710  12.543 -37.343  1.00  0.00     0.014 A 
BRANCH  12  15
HETATM   15  O   UNL     1       9.411  14.652 -34.923  1.00  0.00    -0.361 OA
ATOM     16  HO  UNL     1      10.111  14.133 -34.546  1.00  0.00     0.217 HD
ENDBRANCH  12  15
ENDBRANCH   8   9
ENDBRANCH   5   7
BRANCH   3  17
HETATM   17  O   UNL     1       5.754   8.848 -43.876  1.00  0.00    -0.361 OA
ATOM     18  HO  UNL     1       6.191   8.109 -43.469  1.00  0.00     0.217 HD
ENDBRANCH   3  17
BRANCH   1  19
HETATM   19  O   UNL     1       2.910  12.625 -43.117  1.00  0.00    -0.361 OA
ATOM     20  HO  UNL     1       2.978  13.261 -43.821  1.00  0.00     0.217 HD
ENDBRANCH   1  19
TORSDOF 5
ENDMDL
