MODEL 1
REMARK VINA RESULT:   -13.930      0.000      0.000
REMARK INTER + INTRA:         -17.622
REMARK INTER:                 -17.188
REMARK INTRA:                  -0.434
REMARK UNBOUND:                -0.434
REMARK  4 active torsions:
REMARK  status: ('A' for Active; 'I' for Inactive)
REMARK    1  A    between atoms: N_2  and  C_4 
REMARK    2  A    between atoms: N_8  and  C_10 
REMARK    3  A    between atoms: C_12  and  N_16 
REMARK       I    between atoms: N_16  and  C_18 
REMARK    4  A    between atoms: C_18  and  C_20 
ROOT
HETATM    1  N   UNL     1      -4.277  27.767   9.655  1.00  0.00    -0.322 N 
ATOM      2  HN  UNL     1      -3.584  28.474   9.901  1.00  0.00     0.169 HD
HETATM    3  C   UNL     1      -4.198  26.567  10.263  1.00  0.00     0.272 C 
HETATM    4  O   UNL     1      -4.986  25.643  10.023  1.00  0.00    -0.266 OA
ENDROOT
BRANCH   1   5
HETATM    5  C   UNL     1      -5.249  28.104   8.709  1.00  0.00     0.037 A 
HETATM    6  C   UNL     1      -5.998  29.251   8.959  1.00  0.00     0.058 A 
HETATM    7  C   UNL     1      -6.985  29.729   8.062  1.00  0.00     0.032 A 
HETATM    8  C   UNL     1      -7.198  28.963   6.909  1.00  0.00     0.029 A 
HETATM    9  C   UNL     1      -6.464  27.817   6.673  1.00  0.00     0.004 A 
HETATM   10  C   UNL     1      -5.484  27.390   7.545  1.00  0.00     0.029 A 
BRANCH   7  11
HETATM   11  N   UNL     1      -7.702  30.934   8.348  1.00  0.00    -0.381 N 
HETATM   12  C   UNL     1      -9.066  31.066   7.792  1.00  0.00     0.125 C 
HETATM   13  C   UNL     1      -9.605  32.478   8.042  1.00  0.00     0.055 C 
HETATM   14  C   UNL     1      -9.727  32.767   9.543  1.00  0.00     0.225 C 
HETATM   15  C   UNL     1      -8.309  32.697  10.120  1.00  0.00     0.055 C 
HETATM   16  C   UNL     1      -7.578  31.408   9.741  1.00  0.00     0.125 C 
BRANCH  14  17
HETATM   17  N   UNL     1     -10.342  34.118   9.777  1.00  0.00     0.084 N 
HETATM   18  C   UNL     1     -11.614  34.339   9.032  1.00  0.00     0.309 C 
HETATM   19  C   UNL     1     -10.539  34.449  11.215  1.00  0.00     0.309 C 
ENDBRANCH  14  17
ENDBRANCH   7  11
ENDBRANCH   1   5
BRANCH   3  20
HETATM   20  C   UNL     1      -3.136  26.338  11.237  1.00  0.00     0.102 A 
HETATM   21  C   UNL     1      -2.493  27.226  12.043  1.00  0.00     0.052 A 
HETATM   22  C   UNL     1      -1.557  26.495  12.808  1.00  0.00     0.032 A 
HETATM   23  C   UNL     1      -1.675  25.144  12.422  1.00  0.00     0.052 A 
HETATM   24  C   UNL     1      -0.615  26.843  13.775  1.00  0.00     0.129 A 
HETATM   25  C   UNL     1      -0.886  24.152  13.003  1.00  0.00    -0.034 A 
HETATM   26  N   UNL     1      -2.654  25.071  11.480  1.00  0.00    -0.351 N 
HETATM   27  C   UNL     1      -1.069  22.722  12.526  1.00  0.00     0.050 C 
HETATM   28  C   UNL     1       0.037  24.499  13.947  1.00  0.00     0.012 A 
HETATM   29  C   UNL     1       0.161  25.847  14.335  1.00  0.00     0.044 A 
ATOM     30  HN  UNL     1      -2.978  24.217  11.027  1.00  0.00     0.166 HD
HETATM   31  F   UNL     1      -0.484  28.154  14.157  1.00  0.00    -0.205 F 
ENDBRANCH   3  20
TORSDOF 4
ENDMDL
MODEL 2
REMARK VINA RESULT:   -13.073      1.194      1.865
REMARK INTER + INTRA:         -16.565
REMARK INTER:                 -16.028
REMARK INTRA:                  -0.537
REMARK UNBOUND:                -0.434
REMARK  4 active torsions:
REMARK  status: ('A' for Active; 'I' for Inactive)
REMARK    1  A    between atoms: N_2  and  C_4 
REMARK    2  A    between atoms: N_8  and  C_10 
REMARK    3  A    between atoms: C_12  and  N_16 
REMARK       I    between atoms: N_16  and  C_18 
REMARK    4  A    between atoms: C_18  and  C_20 
ROOT
HETATM    1  N   UNL     1      -4.139  27.482   9.608  1.00  0.00    -0.322 N 
ATOM      2  HN  UNL     1      -3.339  28.090   9.794  1.00  0.00     0.169 HD
HETATM    3  C   UNL     1      -4.211  26.314  10.274  1.00  0.00     0.272 C 
HETATM    4  O   UNL     1      -5.135  25.507  10.110  1.00  0.00    -0.266 OA
ENDROOT
BRANCH   1   5
HETATM    5  C   UNL     1      -5.089  27.916   8.680  1.00  0.00     0.037 A 
HETATM    6  C   UNL     1      -5.793  29.074   8.996  1.00  0.00     0.058 A 
HETATM    7  C   UNL     1      -6.753  29.646   8.125  1.00  0.00     0.032 A 
HETATM    8  C   UNL     1      -6.987  28.961   6.925  1.00  0.00     0.029 A 
HETATM    9  C   UNL     1      -6.297  27.804   6.623  1.00  0.00     0.004 A 
HETATM   10  C   UNL     1      -5.342  27.285   7.472  1.00  0.00     0.029 A 
BRANCH   7  11
HETATM   11  N   UNL     1      -7.425  30.859   8.480  1.00  0.00    -0.381 N 
HETATM   12  C   UNL     1      -8.774  31.084   7.919  1.00  0.00     0.125 C 
HETATM   13  C   UNL     1      -9.258  32.498   8.254  1.00  0.00     0.055 C 
HETATM   14  C   UNL     1      -9.390  32.693   9.770  1.00  0.00     0.225 C 
HETATM   15  C   UNL     1      -7.983  32.527  10.357  1.00  0.00     0.055 C 
HETATM   16  C   UNL     1      -7.301  31.236   9.903  1.00  0.00     0.125 C 
BRANCH  14  17
HETATM   17  N   UNL     1      -9.952  34.050  10.084  1.00  0.00     0.084 N 
HETATM   18  C   UNL     1     -11.219  34.360   9.364  1.00  0.00     0.309 C 
HETATM   19  C   UNL     1     -10.128  34.307  11.540  1.00  0.00     0.309 C 
ENDBRANCH  14  17
ENDBRANCH   7  11
ENDBRANCH   1   5
BRANCH   3  20
HETATM   20  C   UNL     1      -3.155  25.975  11.223  1.00  0.00     0.102 A 
HETATM   21  C   UNL     1      -2.656  24.755  11.563  1.00  0.00     0.052 A 
HETATM   22  C   UNL     1      -1.636  24.972  12.517  1.00  0.00     0.032 A 
HETATM   23  C   UNL     1      -1.555  26.364  12.723  1.00  0.00     0.052 A 
HETATM   24  C   UNL     1      -0.787  24.131  13.234  1.00  0.00     0.129 A 
HETATM   25  C   UNL     1      -0.630  26.913  13.610  1.00  0.00    -0.034 A 
HETATM   26  N   UNL     1      -2.474  26.954  11.911  1.00  0.00    -0.351 N 
HETATM   27  C   UNL     1      -0.611  28.422  13.781  1.00  0.00     0.050 C 
HETATM   28  C   UNL     1       0.197  26.085  14.312  1.00  0.00     0.012 A 
HETATM   29  C   UNL     1       0.118  24.693  14.112  1.00  0.00     0.044 A 
ATOM     30  HN  UNL     1      -2.633  27.957  11.827  1.00  0.00     0.166 HD
HETATM   31  F   UNL     1      -0.858  22.774  13.049  1.00  0.00    -0.205 F 
ENDBRANCH   3  20
TORSDOF 4
ENDMDL
MODEL 3
REMARK VINA RESULT:   -12.356      1.080      1.526
REMARK INTER + INTRA:         -15.680
REMARK INTER:                 -15.480
REMARK INTRA:                  -0.201
REMARK UNBOUND:                -0.434
REMARK  4 active torsions:
REMARK  status: ('A' for Active; 'I' for Inactive)
REMARK    1  A    between atoms: N_2  and  C_4 
REMARK    2  A    between atoms: N_8  and  C_10 
REMARK    3  A    between atoms: C_12  and  N_16 
REMARK       I    between atoms: N_16  and  C_18 
REMARK    4  A    between atoms: C_18  and  C_20 
ROOT
HETATM    1  N   UNL     1      -4.591  28.770  10.309  1.00  0.00    -0.322 N 
ATOM      2  HN  UNL     1      -4.082  29.448  10.877  1.00  0.00     0.169 HD
HETATM    3  C   UNL     1      -4.244  27.472  10.413  1.00  0.00     0.272 C 
HETATM    4  O   UNL     1      -4.796  26.578   9.759  1.00  0.00    -0.266 OA
ENDROOT
BRANCH   1   5
HETATM    5  C   UNL     1      -5.605  29.246   9.474  1.00  0.00     0.037 A 
HETATM    6  C   UNL     1      -6.324  30.350   9.924  1.00  0.00     0.058 A 
HETATM    7  C   UNL     1      -7.348  30.959   9.158  1.00  0.00     0.032 A 
HETATM    8  C   UNL     1      -7.630  30.368   7.919  1.00  0.00     0.029 A 
HETATM    9  C   UNL     1      -6.925  29.263   7.483  1.00  0.00     0.004 A 
HETATM   10  C   UNL     1      -5.908  28.709   8.232  1.00  0.00     0.029 A 
BRANCH   7  11
HETATM   11  N   UNL     1      -8.033  32.115   9.650  1.00  0.00    -0.381 N 
HETATM   12  C   UNL     1      -9.339  32.446   9.042  1.00  0.00     0.125 C 
HETATM   13  C   UNL     1      -9.836  33.800   9.558  1.00  0.00     0.055 C 
HETATM   14  C   UNL     1     -10.068  33.764  11.074  1.00  0.00     0.225 C 
HETATM   15  C   UNL     1      -8.705  33.487  11.719  1.00  0.00     0.055 C 
HETATM   16  C   UNL     1      -8.003  32.268  11.118  1.00  0.00     0.125 C 
BRANCH  14  17
HETATM   17  N   UNL     1     -10.641  35.068  11.555  1.00  0.00     0.084 N 
HETATM   18  C   UNL     1      -9.700  35.870  12.387  1.00  0.00     0.309 C 
HETATM   19  C   UNL     1     -11.198  35.918  10.467  1.00  0.00     0.309 C 
ENDBRANCH  14  17
ENDBRANCH   7  11
ENDBRANCH   1   5
BRANCH   3  20
HETATM   20  C   UNL     1      -3.168  27.100  11.325  1.00  0.00     0.102 A 
HETATM   21  C   UNL     1      -2.425  27.883  12.155  1.00  0.00     0.052 A 
HETATM   22  C   UNL     1      -1.523  27.034  12.834  1.00  0.00     0.032 A 
HETATM   23  C   UNL     1      -1.763  25.724  12.373  1.00  0.00     0.052 A 
HETATM   24  C   UNL     1      -0.520  27.246  13.778  1.00  0.00     0.129 A 
HETATM   25  C   UNL     1      -1.036  24.639  12.860  1.00  0.00    -0.034 A 
HETATM   26  N   UNL     1      -2.780  25.786  11.472  1.00  0.00    -0.351 N 
HETATM   27  C   UNL     1      -1.351  23.260  12.307  1.00  0.00     0.050 C 
HETATM   28  C   UNL     1      -0.052  24.852  13.783  1.00  0.00     0.012 A 
HETATM   29  C   UNL     1       0.194  26.160  14.244  1.00  0.00     0.044 A 
ATOM     30  HN  UNL     1      -3.189  24.990  10.983  1.00  0.00     0.166 HD
HETATM   31  F   UNL     1      -0.268  28.516  14.232  1.00  0.00    -0.205 F 
ENDBRANCH   3  20
TORSDOF 4
ENDMDL
MODEL 4
REMARK VINA RESULT:   -11.794      2.368      3.436
REMARK INTER + INTRA:         -14.986
REMARK INTER:                 -14.386
REMARK INTRA:                  -0.600
REMARK UNBOUND:                -0.434
REMARK  4 active torsions:
REMARK  status: ('A' for Active; 'I' for Inactive)
REMARK    1  A    between atoms: N_2  and  C_4 
REMARK    2  A    between atoms: N_8  and  C_10 
REMARK    3  A    between atoms: C_12  and  N_16 
REMARK       I    between atoms: N_16  and  C_18 
REMARK    4  A    between atoms: C_18  and  C_20 
ROOT
HETATM    1  N   UNL     1      -4.272  30.262  10.680  1.00  0.00    -0.322 N 
ATOM      2  HN  UNL     1      -3.687  30.491  11.483  1.00  0.00     0.169 HD
HETATM    3  C   UNL     1      -4.312  28.978  10.274  1.00  0.00     0.272 C 
HETATM    4  O   UNL     1      -4.984  28.603   9.305  1.00  0.00    -0.266 OA
ENDROOT
BRANCH   1   5
HETATM    5  C   UNL     1      -4.983  31.299  10.069  1.00  0.00     0.037 A 
HETATM    6  C   UNL     1      -6.333  31.410  10.392  1.00  0.00     0.058 A 
HETATM    7  C   UNL     1      -7.158  32.441   9.878  1.00  0.00     0.032 A 
HETATM    8  C   UNL     1      -6.549  33.339   8.991  1.00  0.00     0.029 A 
HETATM    9  C   UNL     1      -5.214  33.214   8.662  1.00  0.00     0.004 A 
HETATM   10  C   UNL     1      -4.422  32.223   9.202  1.00  0.00     0.029 A 
BRANCH   7  11
HETATM   11  N   UNL     1      -8.532  32.533  10.268  1.00  0.00    -0.381 N 
HETATM   12  C   UNL     1      -8.835  33.197  11.554  1.00  0.00     0.125 C 
HETATM   13  C   UNL     1     -10.321  33.043  11.893  1.00  0.00     0.055 C 
HETATM   14  C   UNL     1     -11.202  33.729  10.841  1.00  0.00     0.225 C 
HETATM   15  C   UNL     1     -10.945  33.006   9.514  1.00  0.00     0.055 C 
HETATM   16  C   UNL     1      -9.458  32.899   9.177  1.00  0.00     0.125 C 
BRANCH  14  17
HETATM   17  N   UNL     1     -12.651  33.652  11.230  1.00  0.00     0.084 N 
HETATM   18  C   UNL     1     -12.898  33.856  12.686  1.00  0.00     0.309 C 
HETATM   19  C   UNL     1     -13.535  34.553  10.441  1.00  0.00     0.309 C 
ENDBRANCH  14  17
ENDBRANCH   7  11
ENDBRANCH   1   5
BRANCH   3  20
HETATM   20  C   UNL     1      -3.526  27.984  10.997  1.00  0.00     0.102 A 
HETATM   21  C   UNL     1      -3.628  26.627  10.991  1.00  0.00     0.052 A 
HETATM   22  C   UNL     1      -2.624  26.128  11.851  1.00  0.00     0.032 A 
HETATM   23  C   UNL     1      -1.928  27.242  12.361  1.00  0.00     0.052 A 
HETATM   24  C   UNL     1      -2.246  24.849  12.258  1.00  0.00     0.129 A 
HETATM   25  C   UNL     1      -0.859  27.088  13.243  1.00  0.00    -0.034 A 
HETATM   26  N   UNL     1      -2.481  28.358  11.813  1.00  0.00    -0.351 N 
HETATM   27  C   UNL     1      -0.166  28.340  13.753  1.00  0.00     0.050 C 
HETATM   28  C   UNL     1      -0.495  25.834  13.641  1.00  0.00     0.012 A 
HETATM   29  C   UNL     1      -1.189  24.717  13.137  1.00  0.00     0.044 A 
ATOM     30  HN  UNL     1      -2.173  29.316  11.980  1.00  0.00     0.166 HD
HETATM   31  F   UNL     1      -2.918  23.755  11.776  1.00  0.00    -0.205 F 
ENDBRANCH   3  20
TORSDOF 4
ENDMDL
MODEL 5
REMARK VINA RESULT:   -11.676      2.248      3.141
REMARK INTER + INTRA:         -14.841
REMARK INTER:                 -14.187
REMARK INTRA:                  -0.655
REMARK UNBOUND:                -0.434
REMARK  4 active torsions:
REMARK  status: ('A' for Active; 'I' for Inactive)
REMARK    1  A    between atoms: N_2  and  C_4 
REMARK    2  A    between atoms: N_8  and  C_10 
REMARK    3  A    between atoms: C_12  and  N_16 
REMARK       I    between atoms: N_16  and  C_18 
REMARK    4  A    between atoms: C_18  and  C_20 
ROOT
HETATM    1  N   UNL     1      -4.315  30.654  10.746  1.00  0.00    -0.322 N 
ATOM      2  HN  UNL     1      -3.748  31.038  11.503  1.00  0.00     0.169 HD
HETATM    3  C   UNL     1      -4.195  29.341  10.471  1.00  0.00     0.272 C 
HETATM    4  O   UNL     1      -4.831  28.787   9.566  1.00  0.00    -0.266 OA
ENDROOT
BRANCH   1   5
HETATM    5  C   UNL     1      -5.166  31.524  10.059  1.00  0.00     0.037 A 
HETATM    6  C   UNL     1      -6.464  31.648  10.547  1.00  0.00     0.058 A 
HETATM    7  C   UNL     1      -7.416  32.526   9.973  1.00  0.00     0.032 A 
HETATM    8  C   UNL     1      -6.992  33.253   8.852  1.00  0.00     0.029 A 
HETATM    9  C   UNL     1      -5.708  33.115   8.363  1.00  0.00     0.004 A 
HETATM   10  C   UNL     1      -4.789  32.279   8.960  1.00  0.00     0.029 A 
BRANCH   7  11
HETATM   11  N   UNL     1      -8.727  32.644  10.534  1.00  0.00    -0.381 N 
HETATM   12  C   UNL     1      -8.841  33.205  11.897  1.00  0.00     0.125 C 
HETATM   13  C   UNL     1     -10.282  33.086  12.400  1.00  0.00     0.055 C 
HETATM   14  C   UNL     1     -11.243  33.900  11.524  1.00  0.00     0.225 C 
HETATM   15  C   UNL     1     -11.184  33.284  10.121  1.00  0.00     0.055 C 
HETATM   16  C   UNL     1      -9.754  33.143   9.597  1.00  0.00     0.125 C 
BRANCH  14  17
HETATM   17  N   UNL     1     -12.639  33.851  12.079  1.00  0.00     0.084 N 
HETATM   18  C   UNL     1     -12.749  34.345  13.480  1.00  0.00     0.309 C 
HETATM   19  C   UNL     1     -13.650  34.535  11.226  1.00  0.00     0.309 C 
ENDBRANCH  14  17
ENDBRANCH   7  11
ENDBRANCH   1   5
BRANCH   3  20
HETATM   20  C   UNL     1      -3.271  28.535  11.262  1.00  0.00     0.102 A 
HETATM   21  C   UNL     1      -2.298  28.932  12.128  1.00  0.00     0.052 A 
HETATM   22  C   UNL     1      -1.696  27.762  12.644  1.00  0.00     0.032 A 
HETATM   23  C   UNL     1      -2.352  26.665  12.051  1.00  0.00     0.052 A 
HETATM   24  C   UNL     1      -0.655  27.525  13.541  1.00  0.00     0.129 A 
HETATM   25  C   UNL     1      -1.996  25.353  12.361  1.00  0.00    -0.034 A 
HETATM   26  N   UNL     1      -3.318  27.159  11.230  1.00  0.00    -0.351 N 
HETATM   27  C   UNL     1      -2.747  24.227  11.673  1.00  0.00     0.050 C 
HETATM   28  C   UNL     1      -0.974  25.126  13.237  1.00  0.00     0.012 A 
HETATM   29  C   UNL     1      -0.313  26.219  13.830  1.00  0.00     0.044 A 
ATOM     30  HN  UNL     1      -3.971  26.602  10.680  1.00  0.00     0.166 HD
HETATM   31  F   UNL     1      -0.002  28.583  14.121  1.00  0.00    -0.205 F 
ENDBRANCH   3  20
TORSDOF 4
ENDMDL
MODEL 6
REMARK VINA RESULT:   -11.263      2.649      3.815
REMARK INTER + INTRA:         -14.331
REMARK INTER:                 -13.788
REMARK INTRA:                  -0.543
REMARK UNBOUND:                -0.434
REMARK  4 active torsions:
REMARK  status: ('A' for Active; 'I' for Inactive)
REMARK    1  A    between atoms: N_2  and  C_4 
REMARK    2  A    between atoms: N_8  and  C_10 
REMARK    3  A    between atoms: C_12  and  N_16 
REMARK       I    between atoms: N_16  and  C_18 
REMARK    4  A    between atoms: C_18  and  C_20 
ROOT
HETATM    1  N   UNL     1      -5.270  30.039  10.213  1.00  0.00    -0.322 N 
ATOM      2  HN  UNL     1      -5.696  29.116  10.125  1.00  0.00     0.169 HD
HETATM    3  C   UNL     1      -4.063  30.122  10.805  1.00  0.00     0.272 C 
HETATM    4  O   UNL     1      -3.470  31.197  10.968  1.00  0.00    -0.266 OA
ENDROOT
BRANCH   1   5
HETATM    5  C   UNL     1      -5.975  31.137   9.714  1.00  0.00     0.037 A 
HETATM    6  C   UNL     1      -7.155  31.477  10.370  1.00  0.00     0.058 A 
HETATM    7  C   UNL     1      -7.944  32.592   9.995  1.00  0.00     0.032 A 
HETATM    8  C   UNL     1      -7.491  33.330   8.893  1.00  0.00     0.029 A 
HETATM    9  C   UNL     1      -6.328  32.979   8.235  1.00  0.00     0.004 A 
HETATM   10  C   UNL     1      -5.558  31.909   8.641  1.00  0.00     0.029 A 
BRANCH   7  11
HETATM   11  N   UNL     1      -9.130  32.921  10.724  1.00  0.00    -0.381 N 
HETATM   12  C   UNL     1      -8.969  33.390  12.116  1.00  0.00     0.125 C 
HETATM   13  C   UNL     1     -10.337  33.519  12.794  1.00  0.00     0.055 C 
HETATM   14  C   UNL     1     -11.208  34.566  12.090  1.00  0.00     0.225 C 
HETATM   15  C   UNL     1     -11.437  34.057  10.662  1.00  0.00     0.055 C 
HETATM   16  C   UNL     1     -10.136  33.679   9.953  1.00  0.00     0.125 C 
BRANCH  14  17
HETATM   17  N   UNL     1     -12.511  34.750  12.816  1.00  0.00     0.084 N 
HETATM   18  C   UNL     1     -13.680  34.142  12.122  1.00  0.00     0.309 C 
HETATM   19  C   UNL     1     -12.478  34.297  14.234  1.00  0.00     0.309 C 
ENDBRANCH  14  17
ENDBRANCH   7  11
ENDBRANCH   1   5
BRANCH   3  20
HETATM   20  C   UNL     1      -3.425  28.901  11.284  1.00  0.00     0.102 A 
HETATM   21  C   UNL     1      -3.737  27.601  11.025  1.00  0.00     0.052 A 
HETATM   22  C   UNL     1      -2.805  26.800  11.723  1.00  0.00     0.032 A 
HETATM   23  C   UNL     1      -1.934  27.677  12.400  1.00  0.00     0.052 A 
HETATM   24  C   UNL     1      -2.623  25.425  11.859  1.00  0.00     0.129 A 
HETATM   25  C   UNL     1      -0.884  27.196  13.182  1.00  0.00    -0.034 A 
HETATM   26  N   UNL     1      -2.319  28.948  12.103  1.00  0.00    -0.351 N 
HETATM   27  C   UNL     1       0.005  28.207  13.885  1.00  0.00     0.050 C 
HETATM   28  C   UNL     1      -0.712  25.848  13.315  1.00  0.00     0.012 A 
HETATM   29  C   UNL     1      -1.581  24.968  12.642  1.00  0.00     0.044 A 
ATOM     30  HN  UNL     1      -1.862  29.798  12.433  1.00  0.00     0.166 HD
HETATM   31  F   UNL     1      -3.466  24.558  11.212  1.00  0.00    -0.205 F 
ENDBRANCH   3  20
TORSDOF 4
ENDMDL
