REMARK  10 active torsions:
REMARK  status: ('A' for Active; 'I' for Inactive)
REMARK    1  A    between atoms: C_1  and  O_10 
REMARK    2  A    between atoms: C_1  and  C_14 
REMARK    3  A    between atoms: C_3  and  O_12 
REMARK    4  A    between atoms: C_4  and  O_9 
REMARK    5  A    between atoms: C_5  and  C_6 
REMARK    6  A    between atoms: C_6  and  C_7 
REMARK    7  A    between atoms: C_6  and  O_15 
REMARK    8  A    between atoms: C_7  and  C_8 
REMARK    9  A    between atoms: C_7  and  O_16 
REMARK   10  A    between atoms: C_8  and  O_17 
ROOT
HETATM    1  C   UNL     1       0.337  -2.912  -0.460  1.00  0.00     0.051 C 
HETATM    2  C   UNL     1      -0.131  -2.521   0.922  1.00  0.00     0.175 C 
HETATM    3  C   UNL     1      -0.457  -1.012   1.001  1.00  0.00     0.182 C 
HETATM    4  C   UNL     1       0.732  -0.209   0.421  1.00  0.00     0.192 C 
HETATM    5  O   UNL     1       1.028  -0.671  -0.899  1.00  0.00    -0.334 OA
HETATM    6  C   UNL     1       0.906  -2.015  -1.285  1.00  0.00     0.141 C 
ENDROOT
BRANCH   4   7
HETATM    7  C   UNL     1       0.555   1.337   0.423  1.00  0.00     0.181 C 
BRANCH   7   8
HETATM    8  C   UNL     1      -0.715   1.894  -0.278  1.00  0.00     0.173 C 
BRANCH   8   9
HETATM    9  C   UNL     1      -0.860   1.429  -1.735  1.00  0.00     0.198 C 
BRANCH   9  10
HETATM   10  O   UNL     1      -1.832   2.194  -2.396  1.00  0.00    -0.398 OA
HETATM   11  H   UNL     1      -2.716   1.841  -2.112  1.00  0.00     0.209 HD
ENDBRANCH   9  10
ENDBRANCH   8   9
BRANCH   8  12
HETATM   12  O   UNL     1      -1.879   1.569   0.439  1.00  0.00    -0.391 OA
HETATM   13  H   UNL     1      -1.935   2.195   1.207  1.00  0.00     0.210 HD
ENDBRANCH   8  12
ENDBRANCH   7   8
BRANCH   7  14
HETATM   14  O   UNL     1       0.593   1.820   1.742  1.00  0.00    -0.390 OA
HETATM   15  H   UNL     1       1.538   1.774   2.044  1.00  0.00     0.210 HD
ENDBRANCH   7  14
ENDBRANCH   4   7
BRANCH   3  16
HETATM   16  O   UNL     1      -0.745  -0.631   2.324  1.00  0.00    -0.390 OA
HETATM   17  H   UNL     1       0.068  -0.797   2.869  1.00  0.00     0.210 HD
ENDBRANCH   3  16
BRANCH   2  18
HETATM   18  O   UNL     1      -1.243  -3.291   1.303  1.00  0.00    -0.389 OA
HETATM   19  H   UNL     1      -1.966  -3.122   0.642  1.00  0.00     0.210 HD
ENDBRANCH   2  18
BRANCH   6  20
HETATM   20  C   UNL     1       1.385  -2.400  -2.625  1.00  0.00     0.200 C 
HETATM   21  O   UNL     1       1.296  -3.591  -3.029  1.00  0.00    -0.645 OA
BRANCH  20  22
HETATM   22  O   UNL     1       1.942  -1.432  -3.454  1.00  0.00    -0.771 OA
HETATM   23  H   UNL     1       2.278  -1.671  -4.379  1.00  0.00     0.167 HD
ENDBRANCH  20  22
ENDBRANCH   6  20
TORSDOF 10
