REMARK  3 active torsions:
REMARK  status: ('A' for Active; 'I' for Inactive)
REMARK    1  A    between atoms: C_1  and  C_2 
REMARK       I    between atoms: C_2  and  N_9 
REMARK    2  A    between atoms: C_3  and  C_4 
REMARK    3  A    between atoms: C_3  and  N_9 
ROOT
HETATM    1  C   UNL     1      38.760  15.408  58.979  1.00  0.00     0.318 C 
HETATM    2  O   UNL     1      38.326  15.085  57.896  1.00  0.00    -0.261 OA
HETATM    3  N   UNL     1      38.594  16.723  59.559  1.00  0.00    -0.342 N 
ATOM      4  HN  UNL     1      38.974  16.935  60.481  1.00  0.00     0.163 HD
ENDROOT
BRANCH   3   5
HETATM    5  C   UNL     1      37.889  17.718  58.818  1.00  0.00     0.236 C 
BRANCH   5   6
HETATM    6  C   UNL     1      37.660  18.961  59.691  1.00  0.00     0.191 C 
HETATM    7  O   UNL     1      37.033  20.012  59.262  1.00  0.00    -0.647 OA
HETATM    8  O   UNL     1      38.107  18.892  60.844  1.00  0.00    -0.647 OA
ENDBRANCH   5   6
ENDBRANCH   3   5
BRANCH   1   9
HETATM    9  C   UNL     1      39.494  14.337  59.726  1.00  0.00     0.270 C 
HETATM   10  O   UNL     1      39.864  14.613  60.914  1.00  0.00    -0.640 OA
HETATM   11  O   UNL     1      39.650  13.222  59.047  1.00  0.00    -0.640 OA
ENDBRANCH   1   9
TORSDOF 3
