REMARK  5 active torsions:
REMARK  status: ('A' for Active; 'I' for Inactive)
REMARK    1  A    between atoms: C_4  and  C_18 
REMARK    2  A    between atoms: C_10  and  S_35 
REMARK    3  A    between atoms: C_10  and  C_13 
REMARK    4  A    between atoms: C_15  and  N_24 
REMARK    5  A    between atoms: N_21  and  S_35 
ROOT
HETATM    1  C   UNL     1      21.114  18.599  66.618  1.00  0.00     0.118 A 
HETATM    2  C   UNL     1      19.247  17.418  66.026  1.00  0.00     0.036 A 
HETATM    3  C   UNL     1      18.908  18.365  65.044  1.00  0.00     0.075 A 
HETATM    4  C   UNL     1      19.787  19.438  64.933  1.00  0.00     0.107 A 
HETATM    5  N   UNL     1      20.854  19.544  65.723  1.00  0.00    -0.328 N 
ATOM      6  HN  UNL     1      21.472  20.352  65.640  1.00  0.00     0.169 HD
HETATM    7  N   UNL     1      20.310  17.567  66.815  1.00  0.00    -0.344 N 
ATOM      8  HN  UNL     1      20.501  16.896  67.559  1.00  0.00     0.167 HD
ENDROOT
BRANCH   1   9
HETATM    9  C   UNL     1      22.308  18.784  67.567  1.00  0.00     0.022 A 
HETATM   10  C   UNL     1      22.204  18.181  68.831  1.00  0.00     0.016 A 
HETATM   11  C   UNL     1      23.251  18.364  69.750  1.00  0.00     0.003 A 
HETATM   12  C   UNL     1      24.357  19.145  69.406  1.00  0.00     0.032 A 
HETATM   13  C   UNL     1      24.456  19.756  68.128  1.00  0.00     0.060 A 
HETATM   14  N   UNL     1      25.400  20.540  67.548  1.00  0.00    -0.300 N 
HETATM   15  C   UNL     1      23.435  19.587  67.212  1.00  0.00     0.023 A 
HETATM   16  N   UNL     1      25.011  20.884  66.291  1.00  0.00    -0.311 N 
ATOM     17  HN  UNL     1      26.273  20.829  67.990  1.00  0.00     0.187 HD
HETATM   18  C   UNL     1      23.826  20.330  66.050  1.00  0.00     0.121 A 
ATOM     19  HN  UNL     1      25.539  21.468  65.643  1.00  0.00     0.186 HD
ENDBRANCH   1   9
BRANCH   2  20
HETATM   20  C   UNL     1      18.285  16.231  66.177  1.00  0.00     0.086 A 
HETATM   21  C   UNL     1      18.442  15.142  65.122  1.00  0.00     0.032 A 
HETATM   22  C   UNL     1      17.065  15.741  65.403  1.00  0.00     0.032 A 
BRANCH  20  23
HETATM   23  S   UNL     1      18.169  15.770  67.973  1.00  0.00     0.029 S 
HETATM   24  O   UNL     1      18.102  16.897  68.898  1.00  0.00    -0.249 OA
HETATM   25  C   UNL     1      19.676  14.767  67.857  1.00  0.00     0.137 C 
BRANCH  23  26
HETATM   26  N   UNL     1      17.067  14.701  68.120  1.00  0.00    -0.360 N 
ATOM     27  HN2 UNL     1      16.339  14.791  68.829  1.00  0.00     0.165 HD
ATOM     28  HN1 UNL     1      17.114  13.913  67.474  1.00  0.00     0.165 HD
ENDBRANCH  23  26
ENDBRANCH  20  23
ENDBRANCH   2  20
BRANCH   4  29
HETATM   29  N   UNL     1      19.541  20.460  63.922  1.00  0.00    -0.359 N 
HETATM   30  C   UNL     1      18.177  20.579  63.348  1.00  0.00     0.151 C 
HETATM   31  C   UNL     1      18.190  21.440  62.074  1.00  0.00     0.187 C 
HETATM   32  O   UNL     1      18.791  22.662  62.365  1.00  0.00    -0.388 OA
HETATM   33  C   UNL     1      20.135  22.541  62.738  1.00  0.00     0.192 C 
HETATM   34  C   UNL     1      20.255  21.739  64.034  1.00  0.00     0.105 C 
HETATM   35  C   UNL     1      19.602  22.523  65.185  1.00  0.00     0.034 C 
ENDBRANCH   4  29
TORSDOF 5
