MODEL 1
REMARK VINA RESULT:    -8.915      0.000      0.000
REMARK INTER + INTRA:         -14.651
REMARK INTER:                 -13.345
REMARK INTRA:                  -1.305
REMARK UNBOUND:                -1.305
REMARK  9 active torsions:
REMARK  status: ('A' for Active; 'I' for Inactive)
REMARK    1  A    between atoms: C_3  and  C_7 
REMARK    2  A    between atoms: C_7  and  C_25 
REMARK    3  A    between atoms: C_9  and  N_21 
REMARK       I    between atoms: C_18  and  N_21 
REMARK    4  A    between atoms: C_25  and  C_26 
REMARK    5  A    between atoms: C_29  and  C_30 
REMARK    6  A    between atoms: C_30  and  C_31 
REMARK    7  A    between atoms: C_31  and  C_32 
REMARK    8  A    between atoms: C_32  and  C_33 
REMARK    9  A    between atoms: C_33  and  N_45 
ROOT
HETATM    1  C   UNL     1       2.361 -15.023   4.233  1.00  0.00     0.240 C 
HETATM    2  C   UNL     1       1.703 -14.027   3.273  1.00  0.00     0.176 C 
HETATM    3  O   UNL     1      10.293 -16.325   2.697  1.00  0.00    -0.272 OA
HETATM    4  C   UNL     1       7.092 -13.082   5.858  1.00  0.00     0.176 C 
HETATM    5  C   UNL     1       3.893 -14.894   7.180  1.00  0.00     0.020 C 
HETATM    6  C   UNL     1       2.728 -15.649   6.575  1.00  0.00     0.122 C 
HETATM    7  N   UNL     1       2.073 -14.874   5.527  1.00  0.00    -0.359 N 
ATOM      8  HN  UNL     1       1.366 -14.190   5.794  1.00  0.00     0.162 HD
HETATM    9  C   UNL     1       4.950 -14.472   6.173  1.00  0.00     0.004 C 
HETATM   10  O   UNL     1       3.141 -15.878   3.812  1.00  0.00    -0.271 OA
HETATM   11  C   UNL     1       6.064 -13.679   6.820  1.00  0.00     0.035 C 
HETATM   12  O   UNL     1       1.602 -11.330   4.180  1.00  0.00    -0.271 OA
HETATM   13  N   UNL     1       2.635 -12.947   2.978  1.00  0.00    -0.346 N 
ATOM     14  HN  UNL     1       3.460 -13.168   2.421  1.00  0.00     0.163 HD
HETATM   15  C   UNL     1       7.778 -14.204   5.069  1.00  0.00     0.240 C 
HETATM   16  O   UNL     1       7.310 -14.605   3.999  1.00  0.00    -0.271 OA
HETATM   17  C   UNL     1       2.475 -11.682   3.390  1.00  0.00     0.241 C 
HETATM   18  C   UNL     1       3.449 -10.651   2.819  1.00  0.00     0.176 C 
HETATM   19  C   UNL     1       5.727 -11.340   2.208  1.00  0.00     0.222 C 
HETATM   20  C   UNL     1       6.589 -11.797   1.045  1.00  0.00     0.141 C 
HETATM   21  C   UNL     1       8.071 -11.584   1.239  1.00  0.00    -0.049 A 
HETATM   22  C   UNL     1       8.884 -12.643   1.626  1.00  0.00     0.016 A 
HETATM   23  C   UNL     1      10.261 -12.486   1.805  1.00  0.00    -0.040 A 
HETATM   24  C   UNL     1      11.101 -13.658   2.227  1.00  0.00     0.161 C 
HETATM   25  C   UNL     1      10.160 -15.480   3.583  1.00  0.00     0.235 C 
HETATM   26  C   UNL     1       9.530 -15.841   4.918  1.00  0.00     0.225 C 
HETATM   27  C   UNL     1      10.806 -11.227   1.596  1.00  0.00     0.009 A 
HETATM   28  C   UNL     1      10.014 -10.157   1.216  1.00  0.00     0.001 A 
HETATM   29  C   UNL     1       8.651 -10.342   1.035  1.00  0.00     0.007 A 
HETATM   30  N   UNL     1       4.429 -11.228   1.916  1.00  0.00    -0.348 N 
ATOM     31  HN  UNL     1       4.108 -11.565   1.008  1.00  0.00     0.163 HD
HETATM   32  N   UNL     1      10.580 -14.224   3.464  1.00  0.00    -0.355 N 
ATOM     33  HN  UNL     1      10.535 -13.622   4.286  1.00  0.00     0.162 HD
HETATM   34  N   UNL     1       8.883 -14.732   5.590  1.00  0.00    -0.351 N 
ATOM     35  HN  UNL     1       9.272 -14.358   6.455  1.00  0.00     0.163 HD
HETATM   36  O   UNL     1       6.187 -11.111   3.328  1.00  0.00    -0.273 OA
ENDROOT
BRANCH  18  37
HETATM   37  C   UNL     1       2.685  -9.538   2.106  1.00  0.00     0.035 C 
BRANCH  37  38
HETATM   38  C   UNL     1       2.414  -9.884   0.643  1.00  0.00     0.004 C 
BRANCH  38  39
HETATM   39  C   UNL     1       0.945 -10.041   0.283  1.00  0.00     0.027 C 
BRANCH  39  40
HETATM   40  C   UNL     1       0.014  -9.548   1.370  1.00  0.00     0.229 C 
BRANCH  40  41
HETATM   41  N   UNL     1      -0.155  -8.077   1.305  1.00  0.00    -0.079 N 
ATOM     42  HN3 UNL     1       0.695  -7.589   1.586  1.00  0.00     0.274 HD
ATOM     43  HN2 UNL     1      -0.212  -7.749   0.340  1.00  0.00     0.274 HD
ATOM     44  HN1 UNL     1      -0.961  -7.774   1.853  1.00  0.00     0.274 HD
ENDBRANCH  40  41
ENDBRANCH  39  40
ENDBRANCH  38  39
ENDBRANCH  37  38
ENDBRANCH  18  37
BRANCH   2  45
HETATM   45  C   UNL     1       1.283 -14.731   1.980  1.00  0.00     0.035 C 
BRANCH  45  46
HETATM   46  C   UNL     1       0.505 -13.831   1.028  1.00  0.00     0.002 C 
BRANCH  46  47
HETATM   47  C   UNL     1      -0.686 -13.147   1.726  1.00  0.00    -0.004 C 
HETATM   48  C   UNL     1      -1.828 -12.825   0.790  1.00  0.00     0.005 C 
ENDBRANCH  46  47
ENDBRANCH  45  46
ENDBRANCH   2  45
BRANCH   4  49
HETATM   49  N   UNL     1       8.017 -12.269   6.632  1.00  0.00    -0.352 N 
HETATM   50  C   UNL     1       9.054 -11.487   6.124  1.00  0.00     0.182 C 
HETATM   51  N   UNL     1       9.109 -11.362   4.750  1.00  0.00    -0.064 NA
HETATM   52  N   UNL     1       9.883 -10.934   6.939  1.00  0.00    -0.374 N 
ATOM     53  HN2 UNL     1      10.642 -10.362   6.567  1.00  0.00     0.158 HD
ATOM     54  HN1 UNL     1       9.843 -11.025   7.954  1.00  0.00     0.158 HD
ATOM     55  HN  UNL     1       7.895 -12.270   7.645  1.00  0.00     0.163 HD
ENDBRANCH   4  49
TORSDOF 9
ENDMDL
MODEL 2
REMARK VINA RESULT:    -7.459      3.849      9.722
REMARK INTER + INTRA:         -12.471
REMARK INTER:                 -11.228
REMARK INTRA:                  -1.243
REMARK UNBOUND:                -1.305
REMARK  9 active torsions:
REMARK  status: ('A' for Active; 'I' for Inactive)
REMARK    1  A    between atoms: C_3  and  C_7 
REMARK    2  A    between atoms: C_7  and  C_25 
REMARK    3  A    between atoms: C_9  and  N_21 
REMARK       I    between atoms: C_18  and  N_21 
REMARK    4  A    between atoms: C_25  and  C_26 
REMARK    5  A    between atoms: C_29  and  C_30 
REMARK    6  A    between atoms: C_30  and  C_31 
REMARK    7  A    between atoms: C_31  and  C_32 
REMARK    8  A    between atoms: C_32  and  C_33 
REMARK    9  A    between atoms: C_33  and  N_45 
ROOT
HETATM    1  C   UNL     1       3.623  -9.953   1.762  1.00  0.00     0.240 C 
HETATM    2  C   UNL     1       4.118 -11.073   2.681  1.00  0.00     0.176 C 
HETATM    3  O   UNL     1       1.462 -12.528  -5.699  1.00  0.00    -0.272 OA
HETATM    4  C   UNL     1      -0.842 -11.545  -0.751  1.00  0.00     0.176 C 
HETATM    5  C   UNL     1       0.721  -8.476   1.093  1.00  0.00     0.020 C 
HETATM    6  C   UNL     1       2.106  -8.041   1.524  1.00  0.00     0.122 C 
HETATM    7  N   UNL     1       2.775  -9.077   2.303  1.00  0.00    -0.359 N 
ATOM      8  HN  UNL     1       2.587  -9.134   3.304  1.00  0.00     0.162 HD
HETATM    9  C   UNL     1       0.697  -9.765   0.288  1.00  0.00     0.004 C 
HETATM   10  O   UNL     1       3.971  -9.910   0.581  1.00  0.00    -0.271 OA
HETATM   11  C   UNL     1      -0.712 -10.181  -0.074  1.00  0.00     0.035 C 
HETATM   12  O   UNL     1       2.157 -12.206   4.406  1.00  0.00    -0.271 OA
HETATM   13  N   UNL     1       3.320 -12.271   2.463  1.00  0.00    -0.346 N 
ATOM     14  HN  UNL     1       3.418 -12.755   1.571  1.00  0.00     0.163 HD
HETATM   15  C   UNL     1      -0.053 -11.550  -2.067  1.00  0.00     0.240 C 
HETATM   16  O   UNL     1       1.137 -11.878  -2.091  1.00  0.00    -0.271 OA
HETATM   17  C   UNL     1       2.464 -12.778   3.361  1.00  0.00     0.241 C 
HETATM   18  C   UNL     1       1.864 -14.145   3.034  1.00  0.00     0.176 C 
HETATM   19  C   UNL     1       1.523 -14.793   0.688  1.00  0.00     0.222 C 
HETATM   20  C   UNL     1       2.152 -15.548  -0.468  1.00  0.00     0.141 C 
HETATM   21  C   UNL     1       1.177 -16.001  -1.528  1.00  0.00    -0.049 A 
HETATM   22  C   UNL     1       1.040 -15.279  -2.708  1.00  0.00     0.016 A 
HETATM   23  C   UNL     1       0.157 -15.673  -3.715  1.00  0.00    -0.040 A 
HETATM   24  C   UNL     1       0.040 -14.861  -4.972  1.00  0.00     0.161 C 
HETATM   25  C   UNL     1       0.472 -12.440  -4.971  1.00  0.00     0.235 C 
HETATM   26  C   UNL     1       0.023 -11.095  -4.424  1.00  0.00     0.225 C 
HETATM   27  C   UNL     1      -0.604 -16.815  -3.503  1.00  0.00     0.009 A 
HETATM   28  C   UNL     1      -0.489 -17.546  -2.333  1.00  0.00     0.001 A 
HETATM   29  C   UNL     1       0.404 -17.138  -1.354  1.00  0.00     0.007 A 
HETATM   30  N   UNL     1       2.312 -14.678   1.760  1.00  0.00    -0.348 N 
ATOM     31  HN  UNL     1       3.283 -14.981   1.679  1.00  0.00     0.163 HD
HETATM   32  N   UNL     1      -0.289 -13.480  -4.644  1.00  0.00    -0.355 N 
ATOM     33  HN  UNL     1      -1.154 -13.301  -4.133  1.00  0.00     0.162 HD
HETATM   34  N   UNL     1      -0.696 -11.175  -3.169  1.00  0.00    -0.351 N 
ATOM     35  HN  UNL     1      -1.690 -10.945  -3.131  1.00  0.00     0.163 HD
HETATM   36  O   UNL     1       0.389 -14.315   0.634  1.00  0.00    -0.273 OA
ENDROOT
BRANCH  18  37
HETATM   37  C   UNL     1       2.178 -15.142   4.148  1.00  0.00     0.035 C 
BRANCH  37  38
HETATM   38  C   UNL     1       3.668 -15.164   4.483  1.00  0.00     0.004 C 
BRANCH  38  39
HETATM   39  C   UNL     1       3.996 -14.968   5.955  1.00  0.00     0.027 C 
BRANCH  39  40
HETATM   40  C   UNL     1       2.841 -15.317   6.870  1.00  0.00     0.229 C 
BRANCH  40  41
HETATM   41  N   UNL     1       2.895 -16.740   7.283  1.00  0.00    -0.079 N 
ATOM     42  HN3 UNL     1       2.174 -16.958   7.970  1.00  0.00     0.274 HD
ATOM     43  HN2 UNL     1       2.589 -17.360   6.532  1.00  0.00     0.274 HD
ATOM     44  HN1 UNL     1       3.824 -16.990   7.621  1.00  0.00     0.274 HD
ENDBRANCH  40  41
ENDBRANCH  39  40
ENDBRANCH  38  39
ENDBRANCH  37  38
ENDBRANCH  18  37
BRANCH   2  45
HETATM   45  C   UNL     1       5.597 -11.368   2.412  1.00  0.00     0.035 C 
BRANCH  45  46
HETATM   46  C   UNL     1       6.154 -12.494   3.273  1.00  0.00     0.002 C 
BRANCH  46  47
HETATM   47  C   UNL     1       7.072 -11.964   4.391  1.00  0.00    -0.004 C 
HETATM   48  C   UNL     1       6.886 -12.677   5.711  1.00  0.00     0.005 C 
ENDBRANCH  46  47
ENDBRANCH  45  46
ENDBRANCH   2  45
BRANCH   4  49
HETATM   49  N   UNL     1      -2.259 -11.830  -0.925  1.00  0.00    -0.352 N 
HETATM   50  C   UNL     1      -3.070 -12.551  -0.048  1.00  0.00     0.182 C 
HETATM   51  N   UNL     1      -2.504 -12.896   1.164  1.00  0.00    -0.064 NA
HETATM   52  N   UNL     1      -4.271 -12.847  -0.401  1.00  0.00    -0.374 N 
ATOM     53  HN2 UNL     1      -4.864 -13.374   0.240  1.00  0.00     0.158 HD
ATOM     54  HN1 UNL     1      -4.689 -12.592  -1.296  1.00  0.00     0.158 HD
ATOM     55  HN  UNL     1      -2.701 -11.468  -1.769  1.00  0.00     0.163 HD
ENDBRANCH   4  49
TORSDOF 9
ENDMDL
MODEL 3
REMARK VINA RESULT:    -6.954      3.485      9.886
REMARK INTER + INTRA:         -11.715
REMARK INTER:                 -10.881
REMARK INTRA:                  -0.834
REMARK UNBOUND:                -1.305
REMARK  9 active torsions:
REMARK  status: ('A' for Active; 'I' for Inactive)
REMARK    1  A    between atoms: C_3  and  C_7 
REMARK    2  A    between atoms: C_7  and  C_25 
REMARK    3  A    between atoms: C_9  and  N_21 
REMARK       I    between atoms: C_18  and  N_21 
REMARK    4  A    between atoms: C_25  and  C_26 
REMARK    5  A    between atoms: C_29  and  C_30 
REMARK    6  A    between atoms: C_30  and  C_31 
REMARK    7  A    between atoms: C_31  and  C_32 
REMARK    8  A    between atoms: C_32  and  C_33 
REMARK    9  A    between atoms: C_33  and  N_45 
ROOT
HETATM    1  C   UNL     1       4.707  -9.545   1.068  1.00  0.00     0.240 C 
HETATM    2  C   UNL     1       5.398 -10.787   1.638  1.00  0.00     0.176 C 
HETATM    3  O   UNL     1      -0.180 -11.128  -5.302  1.00  0.00    -0.272 OA
HETATM    4  C   UNL     1      -0.480 -10.620   0.213  1.00  0.00     0.176 C 
HETATM    5  C   UNL     1       1.896  -7.864   1.637  1.00  0.00     0.020 C 
HETATM    6  C   UNL     1       3.376  -7.549   1.574  1.00  0.00     0.122 C 
HETATM    7  N   UNL     1       4.186  -8.699   1.958  1.00  0.00    -0.359 N 
ATOM      8  HN  UNL     1       4.362  -8.863   2.949  1.00  0.00     0.162 HD
HETATM    9  C   UNL     1       1.476  -9.048   0.781  1.00  0.00     0.004 C 
HETATM   10  O   UNL     1       4.615  -9.381  -0.149  1.00  0.00    -0.271 OA
HETATM   11  C   UNL     1       0.000  -9.352   0.918  1.00  0.00     0.035 C 
HETATM   12  O   UNL     1       4.089 -12.020   3.845  1.00  0.00    -0.271 OA
HETATM   13  N   UNL     1       4.474 -11.912   1.616  1.00  0.00    -0.346 N 
ATOM     14  HN  UNL     1       4.206 -12.293   0.709  1.00  0.00     0.163 HD
HETATM   15  C   UNL     1      -0.213 -10.508  -1.294  1.00  0.00     0.240 C 
HETATM   16  O   UNL     1       0.857 -10.887  -1.779  1.00  0.00    -0.271 OA
HETATM   17  C   UNL     1       3.954 -12.479   2.713  1.00  0.00     0.241 C 
HETATM   18  C   UNL     1       3.160 -13.769   2.503  1.00  0.00     0.176 C 
HETATM   19  C   UNL     1       1.953 -14.122   0.392  1.00  0.00     0.222 C 
HETATM   20  C   UNL     1       2.062 -14.766  -0.979  1.00  0.00     0.141 C 
HETATM   21  C   UNL     1       0.738 -15.045  -1.649  1.00  0.00    -0.049 A 
HETATM   22  C   UNL     1       0.254 -14.185  -2.627  1.00  0.00     0.016 A 
HETATM   23  C   UNL     1      -0.961 -14.417  -3.276  1.00  0.00    -0.040 A 
HETATM   24  C   UNL     1      -1.447 -13.458  -4.326  1.00  0.00     0.161 C 
HETATM   25  C   UNL     1      -0.835 -11.078  -4.260  1.00  0.00     0.235 C 
HETATM   26  C   UNL     1      -0.942  -9.786  -3.466  1.00  0.00     0.225 C 
HETATM   27  C   UNL     1      -1.692 -15.538  -2.908  1.00  0.00     0.009 A 
HETATM   28  C   UNL     1      -1.232 -16.405  -1.932  1.00  0.00     0.001 A 
HETATM   29  C   UNL     1      -0.018 -16.157  -1.310  1.00  0.00     0.007 A 
HETATM   30  N   UNL     1       3.078 -14.170   1.109  1.00  0.00    -0.348 N 
ATOM     31  HN  UNL     1       3.927 -14.508   0.654  1.00  0.00     0.163 HD
HETATM   32  N   UNL     1      -1.517 -12.112  -3.775  1.00  0.00    -0.355 N 
ATOM     33  HN  UNL     1      -2.124 -11.952  -2.971  1.00  0.00     0.162 HD
HETATM   34  N   UNL     1      -1.172  -9.977  -2.048  1.00  0.00    -0.351 N 
ATOM     35  HN  UNL     1      -2.063  -9.707  -1.631  1.00  0.00     0.163 HD
HETATM   36  O   UNL     1       0.920 -13.587   0.796  1.00  0.00    -0.273 OA
ENDROOT
BRANCH  18  37
HETATM   37  C   UNL     1       3.763 -14.903   3.329  1.00  0.00     0.035 C 
BRANCH  37  38
HETATM   38  C   UNL     1       2.997 -15.121   4.632  1.00  0.00     0.004 C 
BRANCH  38  39
HETATM   39  C   UNL     1       3.765 -14.764   5.895  1.00  0.00     0.027 C 
BRANCH  39  40
HETATM   40  C   UNL     1       3.059 -15.203   7.161  1.00  0.00     0.229 C 
BRANCH  40  41
HETATM   41  N   UNL     1       2.824 -16.666   7.164  1.00  0.00    -0.079 N 
ATOM     42  HN3 UNL     1       1.828 -16.886   7.150  1.00  0.00     0.274 HD
ATOM     43  HN2 UNL     1       3.090 -17.091   6.275  1.00  0.00     0.274 HD
ATOM     44  HN1 UNL     1       3.296 -17.114   7.950  1.00  0.00     0.274 HD
ENDBRANCH  40  41
ENDBRANCH  39  40
ENDBRANCH  38  39
ENDBRANCH  37  38
ENDBRANCH  18  37
BRANCH   2  45
HETATM   45  C   UNL     1       6.653 -11.119   0.825  1.00  0.00     0.035 C 
BRANCH  45  46
HETATM   46  C   UNL     1       7.939 -11.027   1.636  1.00  0.00     0.002 C 
BRANCH  46  47
HETATM   47  C   UNL     1       7.842 -11.807   2.961  1.00  0.00    -0.004 C 
HETATM   48  C   UNL     1       9.020 -11.578   3.881  1.00  0.00     0.005 C 
ENDBRANCH  46  47
ENDBRANCH  45  46
ENDBRANCH   2  45
BRANCH   4  49
HETATM   49  N   UNL     1      -1.884 -10.815   0.540  1.00  0.00    -0.352 N 
HETATM   50  C   UNL     1      -2.611 -11.995   0.386  1.00  0.00     0.182 C 
HETATM   51  N   UNL     1      -1.889 -13.116   0.029  1.00  0.00    -0.064 NA
HETATM   52  N   UNL     1      -3.883 -11.981   0.582  1.00  0.00    -0.374 N 
ATOM     53  HN2 UNL     1      -4.415 -12.844   0.470  1.00  0.00     0.158 HD
ATOM     54  HN1 UNL     1      -4.417 -11.153   0.846  1.00  0.00     0.158 HD
ATOM     55  HN  UNL     1      -2.385 -10.011   0.918  1.00  0.00     0.163 HD
ENDBRANCH   4  49
TORSDOF 9
ENDMDL
MODEL 4
REMARK VINA RESULT:    -6.802      2.592      8.458
REMARK INTER + INTRA:         -11.487
REMARK INTER:                 -10.027
REMARK INTRA:                  -1.459
REMARK UNBOUND:                -1.305
REMARK  9 active torsions:
REMARK  status: ('A' for Active; 'I' for Inactive)
REMARK    1  A    between atoms: C_3  and  C_7 
REMARK    2  A    between atoms: C_7  and  C_25 
REMARK    3  A    between atoms: C_9  and  N_21 
REMARK       I    between atoms: C_18  and  N_21 
REMARK    4  A    between atoms: C_25  and  C_26 
REMARK    5  A    between atoms: C_29  and  C_30 
REMARK    6  A    between atoms: C_30  and  C_31 
REMARK    7  A    between atoms: C_31  and  C_32 
REMARK    8  A    between atoms: C_32  and  C_33 
REMARK    9  A    between atoms: C_33  and  N_45 
ROOT
HETATM    1  C   UNL     1       8.957 -12.348   1.426  1.00  0.00     0.240 C 
HETATM    2  C   UNL     1       8.813 -13.266   2.643  1.00  0.00     0.176 C 
HETATM    3  O   UNL     1       2.566 -12.618  -3.678  1.00  0.00    -0.272 OA
HETATM    4  C   UNL     1       4.375  -9.665   0.654  1.00  0.00     0.176 C 
HETATM    5  C   UNL     1       8.253  -9.187   0.681  1.00  0.00     0.020 C 
HETATM    6  C   UNL     1       9.472 -10.085   0.637  1.00  0.00     0.122 C 
HETATM    7  N   UNL     1       9.413 -11.118   1.665  1.00  0.00    -0.359 N 
ATOM      8  HN  UNL     1       9.734 -10.890   2.606  1.00  0.00     0.162 HD
HETATM    9  C   UNL     1       6.933  -9.925   0.535  1.00  0.00     0.004 C 
HETATM   10  O   UNL     1       8.626 -12.736   0.305  1.00  0.00    -0.271 OA
HETATM   11  C   UNL     1       5.747  -8.990   0.635  1.00  0.00     0.035 C 
HETATM   12  O   UNL     1       7.778 -12.037   4.993  1.00  0.00    -0.271 OA
HETATM   13  N   UNL     1       7.433 -13.244   3.109  1.00  0.00    -0.346 N 
ATOM     14  HN  UNL     1       6.722 -13.670   2.515  1.00  0.00     0.163 HD
HETATM   15  C   UNL     1       4.172 -10.465  -0.639  1.00  0.00     0.240 C 
HETATM   16  O   UNL     1       4.527 -11.644  -0.719  1.00  0.00    -0.271 OA
HETATM   17  C   UNL     1       7.039 -12.700   4.268  1.00  0.00     0.241 C 
HETATM   18  C   UNL     1       5.587 -12.946   4.678  1.00  0.00     0.176 C 
HETATM   19  C   UNL     1       3.868 -13.231   2.945  1.00  0.00     0.222 C 
HETATM   20  C   UNL     1       3.108 -14.274   2.146  1.00  0.00     0.141 C 
HETATM   21  C   UNL     1       1.797 -13.794   1.572  1.00  0.00    -0.049 A 
HETATM   22  C   UNL     1       1.715 -13.415   0.237  1.00  0.00     0.016 A 
HETATM   23  C   UNL     1       0.516 -12.976  -0.331  1.00  0.00    -0.040 A 
HETATM   24  C   UNL     1       0.474 -12.573  -1.778  1.00  0.00     0.161 C 
HETATM   25  C   UNL     1       2.460 -11.664  -2.906  1.00  0.00     0.235 C 
HETATM   26  C   UNL     1       3.463 -10.522  -2.934  1.00  0.00     0.225 C 
HETATM   27  C   UNL     1      -0.606 -12.914   0.483  1.00  0.00     0.009 A 
HETATM   28  C   UNL     1      -0.546 -13.280   1.816  1.00  0.00     0.001 A 
HETATM   29  C   UNL     1       0.654 -13.722   2.353  1.00  0.00     0.007 A 
HETATM   30  N   UNL     1       4.843 -13.730   3.708  1.00  0.00    -0.348 N 
ATOM     31  HN  UNL     1       5.079 -14.718   3.605  1.00  0.00     0.163 HD
HETATM   32  N   UNL     1       1.464 -11.536  -2.034  1.00  0.00    -0.355 N 
ATOM     33  HN  UNL     1       1.389 -10.661  -1.515  1.00  0.00     0.162 HD
HETATM   34  N   UNL     1       3.614  -9.832  -1.668  1.00  0.00    -0.351 N 
ATOM     35  HN  UNL     1       3.294  -8.869  -1.567  1.00  0.00     0.163 HD
HETATM   36  O   UNL     1       3.615 -12.027   2.879  1.00  0.00    -0.273 OA
ENDROOT
BRANCH  18  37
HETATM   37  C   UNL     1       5.529 -13.626   6.043  1.00  0.00     0.035 C 
BRANCH  37  38
HETATM   38  C   UNL     1       4.744 -14.935   5.990  1.00  0.00     0.004 C 
BRANCH  38  39
HETATM   39  C   UNL     1       3.969 -15.269   7.256  1.00  0.00     0.027 C 
BRANCH  39  40
HETATM   40  C   UNL     1       2.473 -15.337   7.032  1.00  0.00     0.229 C 
BRANCH  40  41
HETATM   41  N   UNL     1       2.137 -15.176   5.597  1.00  0.00    -0.079 N 
ATOM     42  HN3 UNL     1       2.777 -15.701   5.001  1.00  0.00     0.274 HD
ATOM     43  HN2 UNL     1       1.270 -15.658   5.359  1.00  0.00     0.274 HD
ATOM     44  HN1 UNL     1       2.104 -14.190   5.335  1.00  0.00     0.274 HD
ENDBRANCH  40  41
ENDBRANCH  39  40
ENDBRANCH  38  39
ENDBRANCH  37  38
ENDBRANCH  18  37
BRANCH   2  45
HETATM   45  C   UNL     1       9.226 -14.696   2.284  1.00  0.00     0.035 C 
BRANCH  45  46
HETATM   46  C   UNL     1       8.488 -15.758   3.090  1.00  0.00     0.002 C 
BRANCH  46  47
HETATM   47  C   UNL     1       9.227 -16.109   4.395  1.00  0.00    -0.004 C 
HETATM   48  C   UNL     1       8.387 -15.908   5.635  1.00  0.00     0.005 C 
ENDBRANCH  46  47
ENDBRANCH  45  46
ENDBRANCH   2  45
BRANCH   4  49
HETATM   49  N   UNL     1       3.368  -8.637   0.865  1.00  0.00    -0.352 N 
HETATM   50  C   UNL     1       2.034  -8.847   1.214  1.00  0.00     0.182 C 
HETATM   51  N   UNL     1       1.682 -10.144   1.531  1.00  0.00    -0.064 NA
HETATM   52  N   UNL     1       1.222  -7.849   1.226  1.00  0.00    -0.374 N 
ATOM     53  HN2 UNL     1       0.246  -8.002   1.481  1.00  0.00     0.158 HD
ATOM     54  HN1 UNL     1       1.481  -6.891   0.992  1.00  0.00     0.158 HD
ATOM     55  HN  UNL     1       3.666  -7.669   0.745  1.00  0.00     0.163 HD
ENDBRANCH   4  49
TORSDOF 9
ENDMDL
MODEL 5
REMARK VINA RESULT:    -6.797      3.943      9.908
REMARK INTER + INTRA:         -11.480
REMARK INTER:                 -10.514
REMARK INTRA:                  -0.965
REMARK UNBOUND:                -1.305
REMARK  9 active torsions:
REMARK  status: ('A' for Active; 'I' for Inactive)
REMARK    1  A    between atoms: C_3  and  C_7 
REMARK    2  A    between atoms: C_7  and  C_25 
REMARK    3  A    between atoms: C_9  and  N_21 
REMARK       I    between atoms: C_18  and  N_21 
REMARK    4  A    between atoms: C_25  and  C_26 
REMARK    5  A    between atoms: C_29  and  C_30 
REMARK    6  A    between atoms: C_30  and  C_31 
REMARK    7  A    between atoms: C_31  and  C_32 
REMARK    8  A    between atoms: C_32  and  C_33 
REMARK    9  A    between atoms: C_33  and  N_45 
ROOT
HETATM    1  C   UNL     1       4.958 -12.547   1.929  1.00  0.00     0.240 C 
HETATM    2  C   UNL     1       5.169 -14.057   2.071  1.00  0.00     0.176 C 
HETATM    3  O   UNL     1       0.515 -10.443  -4.613  1.00  0.00    -0.272 OA
HETATM    4  C   UNL     1      -0.187 -11.560   0.774  1.00  0.00     0.176 C 
HETATM    5  C   UNL     1       2.761 -10.298   3.006  1.00  0.00     0.020 C 
HETATM    6  C   UNL     1       4.264 -10.479   3.047  1.00  0.00     0.122 C 
HETATM    7  N   UNL     1       4.635 -11.889   3.043  1.00  0.00    -0.359 N 
ATOM      8  HN  UNL     1       4.647 -12.393   3.929  1.00  0.00     0.162 HD
HETATM    9  C   UNL     1       2.088 -10.961   1.816  1.00  0.00     0.004 C 
HETATM   10  O   UNL     1       5.049 -12.002   0.829  1.00  0.00    -0.271 OA
HETATM   11  C   UNL     1       0.585 -10.794   1.849  1.00  0.00     0.035 C 
HETATM   12  O   UNL     1       3.320 -15.402   3.768  1.00  0.00    -0.271 OA
HETATM   13  N   UNL     1       3.950 -14.757   1.690  1.00  0.00    -0.346 N 
ATOM     14  HN  UNL     1       3.674 -14.736   0.709  1.00  0.00     0.163 HD
HETATM   15  C   UNL     1       0.257 -11.091  -0.618  1.00  0.00     0.240 C 
HETATM   16  O   UNL     1       1.202 -11.633  -1.198  1.00  0.00    -0.271 OA
HETATM   17  C   UNL     1       3.168 -15.427   2.548  1.00  0.00     0.241 C 
HETATM   18  C   UNL     1       2.042 -16.260   1.935  1.00  0.00     0.176 C 
HETATM   19  C   UNL     1       1.012 -15.543  -0.177  1.00  0.00     0.222 C 
HETATM   20  C   UNL     1       1.060 -15.740  -1.682  1.00  0.00     0.141 C 
HETATM   21  C   UNL     1      -0.208 -15.357  -2.406  1.00  0.00    -0.049 A 
HETATM   22  C   UNL     1      -0.298 -14.132  -3.057  1.00  0.00     0.016 A 
HETATM   23  C   UNL     1      -1.451 -13.747  -3.747  1.00  0.00    -0.040 A 
HETATM   24  C   UNL     1      -1.504 -12.413  -4.434  1.00  0.00     0.161 C 
HETATM   25  C   UNL     1      -0.197 -10.500  -3.610  1.00  0.00     0.235 C 
HETATM   26  C   UNL     1       0.018  -9.549  -2.444  1.00  0.00     0.225 C 
HETATM   27  C   UNL     1      -2.526 -14.625  -3.757  1.00  0.00     0.009 A 
HETATM   28  C   UNL     1      -2.461 -15.847  -3.110  1.00  0.00     0.001 A 
HETATM   29  C   UNL     1      -1.302 -16.208  -2.442  1.00  0.00     0.007 A 
HETATM   30  N   UNL     1       1.986 -16.171   0.487  1.00  0.00    -0.348 N 
ATOM     31  HN  UNL     1       2.732 -16.612  -0.052  1.00  0.00     0.163 HD
HETATM   32  N   UNL     1      -1.212 -11.351  -3.481  1.00  0.00    -0.355 N 
ATOM     33  HN  UNL     1      -1.821 -11.253  -2.669  1.00  0.00     0.162 HD
HETATM   34  N   UNL     1      -0.407 -10.074  -1.162  1.00  0.00    -0.351 N 
ATOM     35  HN  UNL     1      -1.209  -9.668  -0.680  1.00  0.00     0.163 HD
HETATM   36  O   UNL     1       0.158 -14.850   0.377  1.00  0.00    -0.273 OA
ENDROOT
BRANCH  18  37
HETATM   37  C   UNL     1       2.175 -17.722   2.356  1.00  0.00     0.035 C 
BRANCH  37  38
HETATM   38  C   UNL     1       2.138 -18.662   1.153  1.00  0.00     0.004 C 
BRANCH  38  39
HETATM   39  C   UNL     1       2.328 -20.135   1.484  1.00  0.00     0.027 C 
BRANCH  39  40
HETATM   40  C   UNL     1       1.345 -21.033   0.762  1.00  0.00     0.229 C 
BRANCH  40  41
HETATM   41  N   UNL     1      -0.049 -20.739   1.169  1.00  0.00    -0.079 N 
ATOM     42  HN3 UNL     1      -0.716 -21.011   0.446  1.00  0.00     0.274 HD
ATOM     43  HN2 UNL     1      -0.363 -21.363   1.913  1.00  0.00     0.274 HD
ATOM     44  HN1 UNL     1      -0.158 -19.759   1.430  1.00  0.00     0.274 HD
ENDBRANCH  40  41
ENDBRANCH  39  40
ENDBRANCH  38  39
ENDBRANCH  37  38
ENDBRANCH  18  37
BRANCH   2  45
HETATM   45  C   UNL     1       6.337 -14.517   1.195  1.00  0.00     0.035 C 
BRANCH  45  46
HETATM   46  C   UNL     1       7.420 -15.257   1.971  1.00  0.00     0.002 C 
BRANCH  46  47
HETATM   47  C   UNL     1       7.049 -15.427   3.457  1.00  0.00    -0.004 C 
HETATM   48  C   UNL     1       8.072 -14.839   4.403  1.00  0.00     0.005 C 
ENDBRANCH  46  47
ENDBRANCH  45  46
ENDBRANCH   2  45
BRANCH   4  49
HETATM   49  N   UNL     1      -1.609 -11.376   1.021  1.00  0.00    -0.352 N 
HETATM   50  C   UNL     1      -2.647 -12.134   0.479  1.00  0.00     0.182 C 
HETATM   51  N   UNL     1      -2.274 -13.253  -0.240  1.00  0.00    -0.064 NA
HETATM   52  N   UNL     1      -3.864 -11.766   0.674  1.00  0.00    -0.374 N 
ATOM     53  HN2 UNL     1      -4.623 -12.321   0.278  1.00  0.00     0.158 HD
ATOM     54  HN1 UNL     1      -4.139 -10.940   1.206  1.00  0.00     0.158 HD
ATOM     55  HN  UNL     1      -1.873 -10.619   1.652  1.00  0.00     0.163 HD
ENDBRANCH   4  49
TORSDOF 9
ENDMDL
MODEL 6
REMARK VINA RESULT:    -6.740      4.167     10.372
REMARK INTER + INTRA:         -11.394
REMARK INTER:                 -10.237
REMARK INTRA:                  -1.157
REMARK UNBOUND:                -1.305
REMARK  9 active torsions:
REMARK  status: ('A' for Active; 'I' for Inactive)
REMARK    1  A    between atoms: C_3  and  C_7 
REMARK    2  A    between atoms: C_7  and  C_25 
REMARK    3  A    between atoms: C_9  and  N_21 
REMARK       I    between atoms: C_18  and  N_21 
REMARK    4  A    between atoms: C_25  and  C_26 
REMARK    5  A    between atoms: C_29  and  C_30 
REMARK    6  A    between atoms: C_30  and  C_31 
REMARK    7  A    between atoms: C_31  and  C_32 
REMARK    8  A    between atoms: C_32  and  C_33 
REMARK    9  A    between atoms: C_33  and  N_45 
ROOT
HETATM    1  C   UNL     1       3.946 -10.639   0.999  1.00  0.00     0.240 C 
HETATM    2  C   UNL     1       4.409 -12.027   1.452  1.00  0.00     0.176 C 
HETATM    3  O   UNL     1      -0.440 -10.724  -5.910  1.00  0.00    -0.272 OA
HETATM    4  C   UNL     1      -1.224 -10.856  -0.421  1.00  0.00     0.176 C 
HETATM    5  C   UNL     1       1.334  -8.659   1.553  1.00  0.00     0.020 C 
HETATM    6  C   UNL     1       2.842  -8.551   1.656  1.00  0.00     0.122 C 
HETATM    7  N   UNL     1       3.453  -9.843   1.948  1.00  0.00    -0.359 N 
ATOM      8  HN  UNL     1       3.505 -10.150   2.919  1.00  0.00     0.162 HD
HETATM    9  C   UNL     1       0.853  -9.658   0.514  1.00  0.00     0.004 C 
HETATM   10  O   UNL     1       3.999 -10.317  -0.188  1.00  0.00    -0.271 OA
HETATM   11  C   UNL     1      -0.656  -9.764   0.486  1.00  0.00     0.035 C 
HETATM   12  O   UNL     1       2.736 -13.321   3.357  1.00  0.00    -0.271 OA
HETATM   13  N   UNL     1       3.354 -12.999   1.202  1.00  0.00    -0.346 N 
ATOM     14  HN  UNL     1       3.132 -13.224   0.232  1.00  0.00     0.163 HD
HETATM   15  C   UNL     1      -0.795 -10.600  -1.872  1.00  0.00     0.240 C 
HETATM   16  O   UNL     1       0.261 -11.065  -2.312  1.00  0.00    -0.271 OA
HETATM   17  C   UNL     1       2.657 -13.616   2.165  1.00  0.00     0.241 C 
HETATM   18  C   UNL     1       1.728 -14.745   1.718  1.00  0.00     0.176 C 
HETATM   19  C   UNL     1       0.703 -14.663  -0.514  1.00  0.00     0.222 C 
HETATM   20  C   UNL     1       0.865 -15.143  -1.945  1.00  0.00     0.141 C 
HETATM   21  C   UNL     1      -0.410 -15.149  -2.754  1.00  0.00    -0.049 A 
HETATM   22  C   UNL     1      -0.677 -14.115  -3.644  1.00  0.00     0.016 A 
HETATM   23  C   UNL     1      -1.840 -14.092  -4.417  1.00  0.00    -0.040 A 
HETATM   24  C   UNL     1      -2.090 -12.954  -5.364  1.00  0.00     0.161 C 
HETATM   25  C   UNL     1      -1.183 -10.710  -4.928  1.00  0.00     0.235 C 
HETATM   26  C   UNL     1      -1.201  -9.522  -3.980  1.00  0.00     0.225 C 
HETATM   27  C   UNL     1      -2.744 -15.135  -4.265  1.00  0.00     0.009 A 
HETATM   28  C   UNL     1      -2.501 -16.171  -3.380  1.00  0.00     0.001 A 
HETATM   29  C   UNL     1      -1.333 -16.175  -2.632  1.00  0.00     0.007 A 
HETATM   30  N   UNL     1       1.735 -14.957   0.282  1.00  0.00    -0.348 N 
ATOM     31  HN  UNL     1       2.574 -15.353  -0.143  1.00  0.00     0.163 HD
HETATM   32  N   UNL     1      -2.039 -11.688  -4.646  1.00  0.00    -0.355 N 
ATOM     33  HN  UNL     1      -2.698 -11.543  -3.881  1.00  0.00     0.162 HD
HETATM   34  N   UNL     1      -1.596  -9.851  -2.624  1.00  0.00    -0.351 N 
ATOM     35  HN  UNL     1      -2.481  -9.509  -2.250  1.00  0.00     0.163 HD
HETATM   36  O   UNL     1      -0.287 -14.040  -0.128  1.00  0.00    -0.273 OA
ENDROOT
BRANCH  18  37
HETATM   37  C   UNL     1       2.092 -16.045   2.432  1.00  0.00     0.035 C 
BRANCH  37  38
HETATM   38  C   UNL     1       2.857 -16.998   1.516  1.00  0.00     0.004 C 
BRANCH  38  39
HETATM   39  C   UNL     1       2.114 -18.276   1.157  1.00  0.00     0.027 C 
BRANCH  39  40
HETATM   40  C   UNL     1       1.574 -19.006   2.369  1.00  0.00     0.229 C 
BRANCH  40  41
HETATM   41  N   UNL     1       2.162 -20.362   2.485  1.00  0.00    -0.079 N 
ATOM     42  HN3 UNL     1       2.898 -20.511   1.794  1.00  0.00     0.274 HD
ATOM     43  HN2 UNL     1       2.721 -20.457   3.333  1.00  0.00     0.274 HD
ATOM     44  HN1 UNL     1       1.442 -21.082   2.427  1.00  0.00     0.274 HD
ENDBRANCH  40  41
ENDBRANCH  39  40
ENDBRANCH  38  39
ENDBRANCH  37  38
ENDBRANCH  18  37
BRANCH   2  45
HETATM   45  C   UNL     1       5.686 -12.431   0.708  1.00  0.00     0.035 C 
BRANCH  45  46
HETATM   46  C   UNL     1       6.390 -13.632   1.327  1.00  0.00     0.002 C 
BRANCH  46  47
HETATM   47  C   UNL     1       6.366 -13.584   2.866  1.00  0.00    -0.004 C 
HETATM   48  C   UNL     1       5.921 -14.882   3.501  1.00  0.00     0.005 C 
ENDBRANCH  46  47
ENDBRANCH  45  46
ENDBRANCH   2  45
BRANCH   4  49
HETATM   49  N   UNL     1      -2.667 -10.888  -0.241  1.00  0.00    -0.352 N 
HETATM   50  C   UNL     1      -3.392 -11.866   0.440  1.00  0.00     0.182 C 
HETATM   51  N   UNL     1      -2.653 -12.806   1.130  1.00  0.00    -0.064 NA
HETATM   52  N   UNL     1      -4.678 -11.841   0.396  1.00  0.00    -0.374 N 
ATOM     53  HN2 UNL     1      -5.209 -12.555   0.894  1.00  0.00     0.158 HD
ATOM     54  HN1 UNL     1      -5.225 -11.146  -0.113  1.00  0.00     0.158 HD
ATOM     55  HN  UNL     1      -3.200 -10.123  -0.653  1.00  0.00     0.163 HD
ENDBRANCH   4  49
TORSDOF 9
ENDMDL
MODEL 7
REMARK VINA RESULT:    -6.624      2.864      6.440
REMARK INTER + INTRA:         -11.221
REMARK INTER:                  -9.600
REMARK INTRA:                  -1.621
REMARK UNBOUND:                -1.305
REMARK  9 active torsions:
REMARK  status: ('A' for Active; 'I' for Inactive)
REMARK    1  A    between atoms: C_3  and  C_7 
REMARK    2  A    between atoms: C_7  and  C_25 
REMARK    3  A    between atoms: C_9  and  N_21 
REMARK       I    between atoms: C_18  and  N_21 
REMARK    4  A    between atoms: C_25  and  C_26 
REMARK    5  A    between atoms: C_29  and  C_30 
REMARK    6  A    between atoms: C_30  and  C_31 
REMARK    7  A    between atoms: C_31  and  C_32 
REMARK    8  A    between atoms: C_32  and  C_33 
REMARK    9  A    between atoms: C_33  and  N_45 
ROOT
HETATM    1  C   UNL     1       5.391  -8.970  -1.140  1.00  0.00     0.240 C 
HETATM    2  C   UNL     1       3.862  -8.992  -1.231  1.00  0.00     0.176 C 
HETATM    3  O   UNL     1       8.297 -11.494   6.081  1.00  0.00    -0.272 OA
HETATM    4  C   UNL     1       7.118 -13.546   1.065  1.00  0.00     0.176 C 
HETATM    5  C   UNL     1       7.888 -11.049  -1.840  1.00  0.00     0.020 C 
HETATM    6  C   UNL     1       7.499  -9.630  -2.203  1.00  0.00     0.122 C 
HETATM    7  N   UNL     1       6.052  -9.453  -2.194  1.00  0.00    -0.359 N 
ATOM      8  HN  UNL     1       5.523  -9.708  -3.027  1.00  0.00     0.162 HD
HETATM    9  C   UNL     1       7.362 -11.511  -0.491  1.00  0.00     0.004 C 
HETATM   10  O   UNL     1       5.952  -8.561  -0.124  1.00  0.00    -0.271 OA
HETATM   11  C   UNL     1       7.735 -12.948  -0.200  1.00  0.00     0.035 C 
HETATM   12  O   UNL     1       2.733 -11.336  -2.388  1.00  0.00    -0.271 OA
HETATM   13  N   UNL     1       3.350 -10.171  -0.546  1.00  0.00    -0.346 N 
ATOM     14  HN  UNL     1       3.441 -10.210   0.469  1.00  0.00     0.163 HD
HETATM   15  C   UNL     1       7.565 -12.739   2.291  1.00  0.00     0.240 C 
HETATM   16  O   UNL     1       6.916 -11.763   2.680  1.00  0.00    -0.271 OA
HETATM   17  C   UNL     1       2.768 -11.207  -1.165  1.00  0.00     0.241 C 
HETATM   18  C   UNL     1       2.119 -12.260  -0.267  1.00  0.00     0.176 C 
HETATM   19  C   UNL     1       3.039 -12.680   1.973  1.00  0.00     0.222 C 
HETATM   20  C   UNL     1       2.885 -12.316   3.438  1.00  0.00     0.141 C 
HETATM   21  C   UNL     1       3.463 -13.325   4.401  1.00  0.00    -0.049 A 
HETATM   22  C   UNL     1       4.709 -13.106   4.978  1.00  0.00     0.016 A 
HETATM   23  C   UNL     1       5.271 -14.012   5.881  1.00  0.00    -0.040 A 
HETATM   24  C   UNL     1       6.621 -13.736   6.478  1.00  0.00     0.161 C 
HETATM   25  C   UNL     1       8.307 -12.418   5.267  1.00  0.00     0.235 C 
HETATM   26  C   UNL     1       9.182 -12.356   4.025  1.00  0.00     0.225 C 
HETATM   27  C   UNL     1       4.552 -15.160   6.185  1.00  0.00     0.009 A 
HETATM   28  C   UNL     1       3.313 -15.401   5.617  1.00  0.00     0.001 A 
HETATM   29  C   UNL     1       2.773 -14.481   4.731  1.00  0.00     0.007 A 
HETATM   30  N   UNL     1       2.262 -11.972   1.149  1.00  0.00    -0.348 N 
ATOM     31  HN  UNL     1       1.739 -11.186   1.535  1.00  0.00     0.163 HD
HETATM   32  N   UNL     1       7.602 -13.536   5.420  1.00  0.00    -0.355 N 
ATOM     33  HN  UNL     1       7.757 -14.296   4.759  1.00  0.00     0.162 HD
HETATM   34  N   UNL     1       8.680 -13.125   2.905  1.00  0.00    -0.351 N 
ATOM     35  HN  UNL     1       9.179 -13.958   2.589  1.00  0.00     0.163 HD
HETATM   36  O   UNL     1       3.826 -13.542   1.580  1.00  0.00    -0.273 OA
ENDROOT
BRANCH  18  37
HETATM   37  C   UNL     1       0.640 -12.415  -0.615  1.00  0.00     0.035 C 
BRANCH  37  38
HETATM   38  C   UNL     1      -0.258 -11.776   0.441  1.00  0.00     0.004 C 
BRANCH  38  39
HETATM   39  C   UNL     1      -0.960 -10.501  -0.000  1.00  0.00     0.027 C 
BRANCH  39  40
HETATM   40  C   UNL     1      -2.378 -10.740  -0.473  1.00  0.00     0.229 C 
BRANCH  40  41
HETATM   41  N   UNL     1      -3.202 -11.359   0.592  1.00  0.00    -0.079 N 
ATOM     42  HN3 UNL     1      -3.315 -12.362   0.443  1.00  0.00     0.274 HD
ATOM     43  HN2 UNL     1      -2.703 -11.389   1.482  1.00  0.00     0.274 HD
ATOM     44  HN1 UNL     1      -4.102 -10.889   0.683  1.00  0.00     0.274 HD
ENDBRANCH  40  41
ENDBRANCH  39  40
ENDBRANCH  38  39
ENDBRANCH  37  38
ENDBRANCH  18  37
BRANCH   2  45
HETATM   45  C   UNL     1       3.273  -7.723  -0.609  1.00  0.00     0.035 C 
BRANCH  45  46
HETATM   46  C   UNL     1       2.542  -7.977   0.703  1.00  0.00     0.002 C 
BRANCH  46  47
HETATM   47  C   UNL     1       3.382  -7.550   1.922  1.00  0.00    -0.004 C 
HETATM   48  C   UNL     1       3.901  -8.715   2.733  1.00  0.00     0.005 C 
ENDBRANCH  46  47
ENDBRANCH  45  46
ENDBRANCH   2  45
BRANCH   4  49
HETATM   49  N   UNL     1       7.490 -14.951   1.129  1.00  0.00    -0.352 N 
HETATM   50  C   UNL     1       6.760 -16.022   0.614  1.00  0.00     0.182 C 
HETATM   51  N   UNL     1       5.658 -15.699  -0.153  1.00  0.00    -0.064 NA
HETATM   52  N   UNL     1       7.140 -17.225   0.871  1.00  0.00    -0.374 N 
ATOM     53  HN2 UNL     1       6.607 -18.008   0.495  1.00  0.00     0.158 HD
ATOM     54  HN1 UNL     1       7.954 -17.464   1.437  1.00  0.00     0.158 HD
ATOM     55  HN  UNL     1       8.369 -15.174   1.595  1.00  0.00     0.163 HD
ENDBRANCH   4  49
TORSDOF 9
ENDMDL
MODEL 8
REMARK VINA RESULT:    -6.523      3.655      9.245
REMARK INTER + INTRA:         -11.069
REMARK INTER:                  -9.900
REMARK INTRA:                  -1.170
REMARK UNBOUND:                -1.305
REMARK  9 active torsions:
REMARK  status: ('A' for Active; 'I' for Inactive)
REMARK    1  A    between atoms: C_3  and  C_7 
REMARK    2  A    between atoms: C_7  and  C_25 
REMARK    3  A    between atoms: C_9  and  N_21 
REMARK       I    between atoms: C_18  and  N_21 
REMARK    4  A    between atoms: C_25  and  C_26 
REMARK    5  A    between atoms: C_29  and  C_30 
REMARK    6  A    between atoms: C_30  and  C_31 
REMARK    7  A    between atoms: C_31  and  C_32 
REMARK    8  A    between atoms: C_32  and  C_33 
REMARK    9  A    between atoms: C_33  and  N_45 
ROOT
HETATM    1  C   UNL     1       6.209 -13.873  -0.715  1.00  0.00     0.240 C 
HETATM    2  C   UNL     1       5.826 -15.059   0.175  1.00  0.00     0.176 C 
HETATM    3  O   UNL     1      -0.108 -10.646  -4.796  1.00  0.00    -0.272 OA
HETATM    4  C   UNL     1       2.652  -9.913  -0.041  1.00  0.00     0.176 C 
HETATM    5  C   UNL     1       6.488 -10.579  -0.369  1.00  0.00     0.020 C 
HETATM    6  C   UNL     1       7.370 -11.717  -0.838  1.00  0.00     0.122 C 
HETATM    7  N   UNL     1       7.028 -12.969  -0.174  1.00  0.00    -0.359 N 
ATOM      8  HN  UNL     1       7.431 -13.162   0.742  1.00  0.00     0.162 HD
HETATM    9  C   UNL     1       5.001 -10.826  -0.560  1.00  0.00     0.004 C 
HETATM   10  O   UNL     1       5.740 -13.762  -1.848  1.00  0.00    -0.271 OA
HETATM   11  C   UNL     1       4.163  -9.682  -0.031  1.00  0.00     0.035 C 
HETATM   12  O   UNL     1       5.292 -14.430   2.900  1.00  0.00    -0.271 OA
HETATM   13  N   UNL     1       4.535 -14.805   0.798  1.00  0.00    -0.346 N 
ATOM     14  HN  UNL     1       3.710 -14.794   0.199  1.00  0.00     0.163 HD
HETATM   15  C   UNL     1       2.174 -10.152  -1.480  1.00  0.00     0.240 C 
HETATM   16  O   UNL     1       2.146 -11.290  -1.958  1.00  0.00    -0.271 OA
HETATM   17  C   UNL     1       4.363 -14.583   2.108  1.00  0.00     0.241 C 
HETATM   18  C   UNL     1       2.919 -14.531   2.607  1.00  0.00     0.176 C 
HETATM   19  C   UNL     1       1.143 -13.737   1.105  1.00  0.00     0.222 C 
HETATM   20  C   UNL     1       0.076 -14.202   0.131  1.00  0.00     0.141 C 
HETATM   21  C   UNL     1      -1.042 -13.212  -0.097  1.00  0.00    -0.049 A 
HETATM   22  C   UNL     1      -1.044 -12.410  -1.231  1.00  0.00     0.016 A 
HETATM   23  C   UNL     1      -2.066 -11.491  -1.482  1.00  0.00    -0.040 A 
HETATM   24  C   UNL     1      -2.026 -10.642  -2.720  1.00  0.00     0.161 C 
HETATM   25  C   UNL     1       0.108 -10.009  -3.764  1.00  0.00     0.235 C 
HETATM   26  C   UNL     1       1.412  -9.252  -3.573  1.00  0.00     0.225 C 
HETATM   27  C   UNL     1      -3.090 -11.387  -0.550  1.00  0.00     0.009 A 
HETATM   28  C   UNL     1      -3.105 -12.171   0.590  1.00  0.00     0.001 A 
HETATM   29  C   UNL     1      -2.083 -13.083   0.809  1.00  0.00     0.007 A 
HETATM   30  N   UNL     1       1.941 -14.712   1.549  1.00  0.00    -0.348 N 
ATOM     31  HN  UNL     1       1.858 -15.635   1.121  1.00  0.00     0.163 HD
HETATM   32  N   UNL     1      -0.774  -9.900  -2.774  1.00  0.00    -0.355 N 
ATOM     33  HN  UNL     1      -0.560  -9.260  -2.009  1.00  0.00     0.162 HD
HETATM   34  N   UNL     1       1.806  -9.087  -2.188  1.00  0.00    -0.351 N 
ATOM     35  HN  UNL     1       1.800  -8.162  -1.759  1.00  0.00     0.163 HD
HETATM   36  O   UNL     1       1.271 -12.559   1.440  1.00  0.00    -0.273 OA
ENDROOT
BRANCH  18  37
HETATM   37  C   UNL     1       2.696 -15.576   3.697  1.00  0.00     0.035 C 
BRANCH  37  38
HETATM   38  C   UNL     1       2.497 -14.931   5.067  1.00  0.00     0.004 C 
BRANCH  38  39
HETATM   39  C   UNL     1       3.748 -14.861   5.930  1.00  0.00     0.027 C 
BRANCH  39  40
HETATM   40  C   UNL     1       3.536 -15.418   7.322  1.00  0.00     0.229 C 
BRANCH  40  41
HETATM   41  N   UNL     1       2.839 -16.726   7.277  1.00  0.00    -0.079 N 
ATOM     42  HN3 UNL     1       2.518 -17.011   8.202  1.00  0.00     0.274 HD
ATOM     43  HN2 UNL     1       1.934 -16.652   6.812  1.00  0.00     0.274 HD
ATOM     44  HN1 UNL     1       3.425 -17.441   6.846  1.00  0.00     0.274 HD
ENDBRANCH  40  41
ENDBRANCH  39  40
ENDBRANCH  38  39
ENDBRANCH  37  38
ENDBRANCH  18  37
BRANCH   2  45
HETATM   45  C   UNL     1       5.769 -16.347  -0.651  1.00  0.00     0.035 C 
BRANCH  45  46
HETATM   46  C   UNL     1       4.691 -17.317  -0.183  1.00  0.00     0.002 C 
BRANCH  46  47
HETATM   47  C   UNL     1       3.722 -17.693  -1.320  1.00  0.00    -0.004 C 
HETATM   48  C   UNL     1       2.618 -16.682  -1.530  1.00  0.00     0.005 C 
ENDBRANCH  46  47
ENDBRANCH  45  46
ENDBRANCH   2  45
BRANCH   4  49
HETATM   49  N   UNL     1       2.016  -8.771   0.598  1.00  0.00    -0.352 N 
HETATM   50  C   UNL     1       0.721  -8.729   1.114  1.00  0.00     0.182 C 
HETATM   51  N   UNL     1       0.038  -9.929   1.150  1.00  0.00    -0.064 NA
HETATM   52  N   UNL     1       0.242  -7.606   1.523  1.00  0.00    -0.374 N 
ATOM     53  HN2 UNL     1      -0.705  -7.575   1.900  1.00  0.00     0.158 HD
ATOM     54  HN1 UNL     1       0.747  -6.720   1.497  1.00  0.00     0.158 HD
ATOM     55  HN  UNL     1       2.571  -7.919   0.677  1.00  0.00     0.163 HD
ENDBRANCH   4  49
TORSDOF 9
ENDMDL
MODEL 9
REMARK VINA RESULT:    -6.479      4.560      7.625
REMARK INTER + INTRA:         -11.004
REMARK INTER:                  -9.528
REMARK INTRA:                  -1.476
REMARK UNBOUND:                -1.305
REMARK  9 active torsions:
REMARK  status: ('A' for Active; 'I' for Inactive)
REMARK    1  A    between atoms: C_3  and  C_7 
REMARK    2  A    between atoms: C_7  and  C_25 
REMARK    3  A    between atoms: C_9  and  N_21 
REMARK       I    between atoms: C_18  and  N_21 
REMARK    4  A    between atoms: C_25  and  C_26 
REMARK    5  A    between atoms: C_29  and  C_30 
REMARK    6  A    between atoms: C_30  and  C_31 
REMARK    7  A    between atoms: C_31  and  C_32 
REMARK    8  A    between atoms: C_32  and  C_33 
REMARK    9  A    between atoms: C_33  and  N_45 
ROOT
HETATM    1  C   UNL     1       1.010 -16.932  -4.237  1.00  0.00     0.240 C 
HETATM    2  C   UNL     1      -0.137 -16.034  -4.707  1.00  0.00     0.176 C 
HETATM    3  O   UNL     1       6.559 -13.052   0.360  1.00  0.00    -0.272 OA
HETATM    4  C   UNL     1       1.941 -16.063   0.975  1.00  0.00     0.176 C 
HETATM    5  C   UNL     1       1.614 -18.935  -1.654  1.00  0.00     0.020 C 
HETATM    6  C   UNL     1       1.624 -19.049  -3.164  1.00  0.00     0.122 C 
HETATM    7  N   UNL     1       0.667 -18.136  -3.777  1.00  0.00    -0.359 N 
ATOM      8  HN  UNL     1      -0.306 -18.431  -3.858  1.00  0.00     0.162 HD
HETATM    9  C   UNL     1       1.895 -17.534  -1.135  1.00  0.00     0.004 C 
HETATM   10  O   UNL     1       2.173 -16.526  -4.255  1.00  0.00    -0.271 OA
HETATM   11  C   UNL     1       1.824 -17.464   0.374  1.00  0.00     0.035 C 
HETATM   12  O   UNL     1      -2.478 -16.079  -3.087  1.00  0.00    -0.271 OA
HETATM   13  N   UNL     1      -0.505 -15.114  -3.640  1.00  0.00    -0.346 N 
ATOM     14  HN  UNL     1       0.162 -14.385  -3.387  1.00  0.00     0.163 HD
HETATM   15  C   UNL     1       3.291 -15.444   0.589  1.00  0.00     0.240 C 
HETATM   16  O   UNL     1       3.416 -14.789  -0.450  1.00  0.00    -0.271 OA
HETATM   17  C   UNL     1      -1.664 -15.165  -2.970  1.00  0.00     0.241 C 
HETATM   18  C   UNL     1      -1.955 -14.001  -2.022  1.00  0.00     0.176 C 
HETATM   19  C   UNL     1      -0.091 -12.829  -0.930  1.00  0.00     0.222 C 
HETATM   20  C   UNL     1       0.820 -11.621  -1.045  1.00  0.00     0.141 C 
HETATM   21  C   UNL     1       1.455 -11.186   0.254  1.00  0.00    -0.049 A 
HETATM   22  C   UNL     1       2.767 -11.541   0.544  1.00  0.00     0.016 A 
HETATM   23  C   UNL     1       3.392 -11.149   1.731  1.00  0.00    -0.040 A 
HETATM   24  C   UNL     1       4.811 -11.558   2.003  1.00  0.00     0.161 C 
HETATM   25  C   UNL     1       5.741 -13.635   1.073  1.00  0.00     0.235 C 
HETATM   26  C   UNL     1       5.630 -15.151   1.056  1.00  0.00     0.225 C 
HETATM   27  C   UNL     1       2.656 -10.394   2.634  1.00  0.00     0.009 A 
HETATM   28  C   UNL     1       1.346 -10.034   2.369  1.00  0.00     0.001 A 
HETATM   29  C   UNL     1       0.753 -10.429   1.179  1.00  0.00     0.007 A 
HETATM   30  N   UNL     1      -0.891 -13.014  -1.984  1.00  0.00    -0.348 N 
ATOM     31  HN  UNL     1      -0.746 -12.429  -2.807  1.00  0.00     0.163 HD
HETATM   32  N   UNL     1       4.935 -13.006   1.925  1.00  0.00    -0.355 N 
ATOM     33  HN  UNL     1       4.371 -13.572   2.559  1.00  0.00     0.162 HD
HETATM   34  N   UNL     1       4.318 -15.654   1.410  1.00  0.00    -0.351 N 
ATOM     35  HN  UNL     1       4.182 -16.166   2.281  1.00  0.00     0.163 HD
HETATM   36  O   UNL     1      -0.080 -13.582   0.045  1.00  0.00    -0.273 OA
ENDROOT
BRANCH  18  37
HETATM   37  C   UNL     1      -3.270 -13.324  -2.402  1.00  0.00     0.035 C 
BRANCH  37  38
HETATM   38  C   UNL     1      -4.312 -13.450  -1.292  1.00  0.00     0.004 C 
BRANCH  38  39
HETATM   39  C   UNL     1      -4.500 -12.201  -0.445  1.00  0.00     0.027 C 
BRANCH  39  40
HETATM   40  C   UNL     1      -3.419 -12.026   0.600  1.00  0.00     0.229 C 
BRANCH  40  41
HETATM   41  N   UNL     1      -2.677 -10.759   0.399  1.00  0.00    -0.079 N 
ATOM     42  HN3 UNL     1      -3.102  -9.990   0.917  1.00  0.00     0.274 HD
ATOM     43  HN2 UNL     1      -1.769 -10.778   0.864  1.00  0.00     0.274 HD
ATOM     44  HN1 UNL     1      -2.587 -10.539  -0.593  1.00  0.00     0.274 HD
ENDBRANCH  40  41
ENDBRANCH  39  40
ENDBRANCH  38  39
ENDBRANCH  37  38
ENDBRANCH  18  37
BRANCH   2  45
HETATM   45  C   UNL     1       0.276 -15.253  -5.958  1.00  0.00     0.035 C 
BRANCH  45  46
HETATM   46  C   UNL     1       0.420 -13.756  -5.715  1.00  0.00     0.002 C 
BRANCH  46  47
HETATM   47  C   UNL     1      -0.530 -12.933  -6.606  1.00  0.00    -0.004 C 
HETATM   48  C   UNL     1      -1.990 -13.268  -6.398  1.00  0.00     0.005 C 
ENDBRANCH  46  47
ENDBRANCH  45  46
ENDBRANCH   2  45
BRANCH   4  49
HETATM   49  N   UNL     1       1.742 -16.169   2.412  1.00  0.00    -0.352 N 
HETATM   50  C   UNL     1       1.712 -15.112   3.322  1.00  0.00     0.182 C 
HETATM   51  N   UNL     1       1.728 -13.841   2.782  1.00  0.00    -0.064 NA
HETATM   52  N   UNL     1       1.670 -15.367   4.583  1.00  0.00    -0.374 N 
ATOM     53  HN2 UNL     1       1.649 -14.595   5.248  1.00  0.00     0.158 HD
ATOM     54  HN1 UNL     1       1.658 -16.306   4.981  1.00  0.00     0.158 HD
ATOM     55  HN  UNL     1       1.610 -17.106   2.791  1.00  0.00     0.163 HD
ENDBRANCH   4  49
TORSDOF 9
ENDMDL
MODEL 10
REMARK VINA RESULT:    -6.419      4.425      6.748
REMARK INTER + INTRA:         -10.914
REMARK INTER:                  -9.443
REMARK INTRA:                  -1.470
REMARK UNBOUND:                -1.305
REMARK  9 active torsions:
REMARK  status: ('A' for Active; 'I' for Inactive)
REMARK    1  A    between atoms: C_3  and  C_7 
REMARK    2  A    between atoms: C_7  and  C_25 
REMARK    3  A    between atoms: C_9  and  N_21 
REMARK       I    between atoms: C_18  and  N_21 
REMARK    4  A    between atoms: C_25  and  C_26 
REMARK    5  A    between atoms: C_29  and  C_30 
REMARK    6  A    between atoms: C_30  and  C_31 
REMARK    7  A    between atoms: C_31  and  C_32 
REMARK    8  A    between atoms: C_32  and  C_33 
REMARK    9  A    between atoms: C_33  and  N_45 
ROOT
HETATM    1  C   UNL     1       1.634 -14.988   0.845  1.00  0.00     0.240 C 
HETATM    2  C   UNL     1       0.562 -15.116  -0.242  1.00  0.00     0.176 C 
HETATM    3  O   UNL     1       7.668  -9.803  -1.070  1.00  0.00    -0.272 OA
HETATM    4  C   UNL     1       2.807  -9.807   1.600  1.00  0.00     0.176 C 
HETATM    5  C   UNL     1       2.125 -13.123   3.552  1.00  0.00     0.020 C 
HETATM    6  C   UNL     1       2.077 -14.601   3.225  1.00  0.00     0.122 C 
HETATM    7  N   UNL     1       1.192 -14.872   2.099  1.00  0.00    -0.359 N 
ATOM      8  HN  UNL     1       0.193 -14.978   2.276  1.00  0.00     0.162 HD
HETATM    9  C   UNL     1       2.554 -12.244   2.390  1.00  0.00     0.004 C 
HETATM   10  O   UNL     1       2.828 -14.956   0.548  1.00  0.00    -0.271 OA
HETATM   11  C   UNL     1       2.538 -10.775   2.753  1.00  0.00     0.035 C 
HETATM   12  O   UNL     1      -1.720 -13.444   0.078  1.00  0.00    -0.271 OA
HETATM   13  N   UNL     1       0.318 -13.811  -0.840  1.00  0.00    -0.346 N 
ATOM     14  HN  UNL     1       1.059 -13.400  -1.407  1.00  0.00     0.163 HD
HETATM   15  C   UNL     1       4.197 -10.078   1.010  1.00  0.00     0.240 C 
HETATM   16  O   UNL     1       4.350 -10.892   0.094  1.00  0.00    -0.271 OA
HETATM   17  C   UNL     1      -0.819 -13.118  -0.693  1.00  0.00     0.241 C 
HETATM   18  C   UNL     1      -0.968 -11.862  -1.553  1.00  0.00     0.176 C 
HETATM   19  C   UNL     1       1.032 -10.590  -2.201  1.00  0.00     0.222 C 
HETATM   20  C   UNL     1       2.050 -10.408  -3.312  1.00  0.00     0.141 C 
HETATM   21  C   UNL     1       2.764  -9.078  -3.299  1.00  0.00    -0.049 A 
HETATM   22  C   UNL     1       4.045  -8.977  -2.769  1.00  0.00     0.016 A 
HETATM   23  C   UNL     1       4.741  -7.766  -2.749  1.00  0.00    -0.040 A 
HETATM   24  C   UNL     1       6.122  -7.704  -2.164  1.00  0.00     0.161 C 
HETATM   25  C   UNL     1       6.821  -9.240  -0.376  1.00  0.00     0.235 C 
HETATM   26  C   UNL     1       6.566  -9.682   1.056  1.00  0.00     0.225 C 
HETATM   27  C   UNL     1       4.109  -6.644  -3.268  1.00  0.00     0.009 A 
HETATM   28  C   UNL     1       2.831  -6.719  -3.794  1.00  0.00     0.001 A 
HETATM   29  C   UNL     1       2.167  -7.937  -3.811  1.00  0.00     0.007 A 
HETATM   30  N   UNL     1       0.186 -11.605  -2.396  1.00  0.00    -0.348 N 
ATOM     31  HN  UNL     1       0.360 -12.235  -3.180  1.00  0.00     0.163 HD
HETATM   32  N   UNL     1       6.106  -8.199  -0.795  1.00  0.00    -0.355 N 
ATOM     33  HN  UNL     1       5.511  -7.721  -0.117  1.00  0.00     0.162 HD
HETATM   34  N   UNL     1       5.224  -9.412   1.531  1.00  0.00    -0.351 N 
ATOM     35  HN  UNL     1       5.068  -8.716   2.261  1.00  0.00     0.163 HD
HETATM   36  O   UNL     1       1.002  -9.873  -1.200  1.00  0.00    -0.273 OA
ENDROOT
BRANCH  18  37
HETATM   37  C   UNL     1      -2.225 -11.957  -2.415  1.00  0.00     0.035 C 
BRANCH  37  38
HETATM   38  C   UNL     1      -3.418 -11.272  -1.753  1.00  0.00     0.004 C 
BRANCH  38  39
HETATM   39  C   UNL     1      -4.607 -12.180  -1.478  1.00  0.00     0.027 C 
BRANCH  39  40
HETATM   40  C   UNL     1      -5.022 -12.184  -0.021  1.00  0.00     0.229 C 
BRANCH  40  41
HETATM   41  N   UNL     1      -3.930 -11.688   0.849  1.00  0.00    -0.079 N 
ATOM     42  HN3 UNL     1      -4.131 -11.853   1.835  1.00  0.00     0.274 HD
ATOM     43  HN2 UNL     1      -3.090 -12.262   0.763  1.00  0.00     0.274 HD
ATOM     44  HN1 UNL     1      -3.731 -10.704   0.667  1.00  0.00     0.274 HD
ENDBRANCH  40  41
ENDBRANCH  39  40
ENDBRANCH  38  39
ENDBRANCH  37  38
ENDBRANCH  18  37
BRANCH   2  45
HETATM   45  C   UNL     1       1.008 -16.114  -1.314  1.00  0.00     0.035 C 
BRANCH  45  46
HETATM   46  C   UNL     1       0.276 -15.943  -2.639  1.00  0.00     0.002 C 
BRANCH  46  47
HETATM   47  C   UNL     1      -1.142 -16.544  -2.595  1.00  0.00    -0.004 C 
HETATM   48  C   UNL     1      -2.211 -15.601  -3.098  1.00  0.00     0.005 C 
ENDBRANCH  46  47
ENDBRANCH  45  46
ENDBRANCH   2  45
BRANCH   4  49
HETATM   49  N   UNL     1       2.643  -8.451   2.101  1.00  0.00    -0.352 N 
HETATM   50  C   UNL     1       2.731  -7.278   1.351  1.00  0.00     0.182 C 
HETATM   51  N   UNL     1       2.836  -7.434  -0.017  1.00  0.00    -0.064 NA
HETATM   52  N   UNL     1       2.706  -6.142   1.955  1.00  0.00    -0.374 N 
ATOM     53  HN2 UNL     1       2.770  -5.284   1.407  1.00  0.00     0.158 HD
ATOM     54  HN1 UNL     1       2.628  -6.027   2.965  1.00  0.00     0.158 HD
ATOM     55  HN  UNL     1       2.446  -8.348   3.096  1.00  0.00     0.163 HD
ENDBRANCH   4  49
TORSDOF 9
ENDMDL
MODEL 11
REMARK VINA RESULT:    -6.338      4.725      9.860
REMARK INTER + INTRA:         -10.792
REMARK INTER:                  -9.920
REMARK INTRA:                  -0.872
REMARK UNBOUND:                -1.305
REMARK  9 active torsions:
REMARK  status: ('A' for Active; 'I' for Inactive)
REMARK    1  A    between atoms: C_3  and  C_7 
REMARK    2  A    between atoms: C_7  and  C_25 
REMARK    3  A    between atoms: C_9  and  N_21 
REMARK       I    between atoms: C_18  and  N_21 
REMARK    4  A    between atoms: C_25  and  C_26 
REMARK    5  A    between atoms: C_29  and  C_30 
REMARK    6  A    between atoms: C_30  and  C_31 
REMARK    7  A    between atoms: C_31  and  C_32 
REMARK    8  A    between atoms: C_32  and  C_33 
REMARK    9  A    between atoms: C_33  and  N_45 
ROOT
HETATM    1  C   UNL     1       3.552 -12.966   2.985  1.00  0.00     0.240 C 
HETATM    2  C   UNL     1       4.014 -14.416   3.161  1.00  0.00     0.176 C 
HETATM    3  O   UNL     1       1.924 -10.952  -4.778  1.00  0.00    -0.272 OA
HETATM    4  C   UNL     1      -0.709 -12.831  -0.273  1.00  0.00     0.176 C 
HETATM    5  C   UNL     1       0.666 -11.319   3.057  1.00  0.00     0.020 C 
HETATM    6  C   UNL     1       2.011 -11.218   3.746  1.00  0.00     0.122 C 
HETATM    7  N   UNL     1       2.652 -12.522   3.864  1.00  0.00    -0.359 N 
ATOM      8  HN  UNL     1       2.403 -13.119   4.652  1.00  0.00     0.162 HD
HETATM    9  C   UNL     1       0.721 -11.947   1.675  1.00  0.00     0.004 C 
HETATM   10  O   UNL     1       3.973 -12.283   2.050  1.00  0.00    -0.271 OA
HETATM   11  C   UNL     1      -0.652 -12.071   1.052  1.00  0.00     0.035 C 
HETATM   12  O   UNL     1       1.974 -16.282   3.841  1.00  0.00    -0.271 OA
HETATM   13  N   UNL     1       3.258 -15.280   2.267  1.00  0.00    -0.346 N 
ATOM     14  HN  UNL     1       3.423 -15.191   1.264  1.00  0.00     0.163 HD
HETATM   15  C   UNL     1       0.162 -12.121  -1.317  1.00  0.00     0.240 C 
HETATM   16  O   UNL     1       1.358 -12.400  -1.441  1.00  0.00    -0.271 OA
HETATM   17  C   UNL     1       2.359 -16.185   2.677  1.00  0.00     0.241 C 
HETATM   18  C   UNL     1       1.811 -17.134   1.611  1.00  0.00     0.176 C 
HETATM   19  C   UNL     1       1.633 -16.371  -0.718  1.00  0.00     0.222 C 
HETATM   20  C   UNL     1       2.351 -16.370  -2.056  1.00  0.00     0.141 C 
HETATM   21  C   UNL     1       1.454 -16.147  -3.250  1.00  0.00    -0.049 A 
HETATM   22  C   UNL     1       1.376 -14.891  -3.839  1.00  0.00     0.016 A 
HETATM   23  C   UNL     1       0.567 -14.648  -4.952  1.00  0.00    -0.040 A 
HETATM   24  C   UNL     1       0.511 -13.274  -5.555  1.00  0.00     0.161 C 
HETATM   25  C   UNL     1       0.889 -11.265  -4.189  1.00  0.00     0.235 C 
HETATM   26  C   UNL     1       0.376 -10.440  -3.020  1.00  0.00     0.225 C 
HETATM   27  C   UNL     1      -0.180 -15.704  -5.456  1.00  0.00     0.009 A 
HETATM   28  C   UNL     1      -0.123 -16.962  -4.881  1.00  0.00     0.001 A 
HETATM   29  C   UNL     1       0.697 -17.178  -3.783  1.00  0.00     0.007 A 
HETATM   30  N   UNL     1       2.350 -16.881   0.287  1.00  0.00    -0.348 N 
ATOM     31  HN  UNL     1       3.331 -17.104   0.115  1.00  0.00     0.163 HD
HETATM   32  N   UNL     1       0.131 -12.300  -4.541  1.00  0.00    -0.355 N 
ATOM     33  HN  UNL     1      -0.767 -12.419  -4.073  1.00  0.00     0.162 HD
HETATM   34  N   UNL     1      -0.420 -11.189  -2.067  1.00  0.00    -0.351 N 
ATOM     35  HN  UNL     1      -1.418 -11.002  -1.973  1.00  0.00     0.163 HD
HETATM   36  O   UNL     1       0.495 -15.924  -0.573  1.00  0.00    -0.273 OA
ENDROOT
BRANCH  18  37
HETATM   37  C   UNL     1       2.077 -18.585   2.005  1.00  0.00     0.035 C 
BRANCH  37  38
HETATM   38  C   UNL     1       1.853 -19.540   0.834  1.00  0.00     0.004 C 
BRANCH  38  39
HETATM   39  C   UNL     1       0.539 -20.305   0.873  1.00  0.00     0.027 C 
BRANCH  39  40
HETATM   40  C   UNL     1       0.498 -21.458  -0.107  1.00  0.00     0.229 C 
BRANCH  40  41
HETATM   41  N   UNL     1      -0.824 -21.552  -0.770  1.00  0.00    -0.079 N 
ATOM     42  HN3 UNL     1      -1.242 -20.631  -0.904  1.00  0.00     0.274 HD
ATOM     43  HN2 UNL     1      -0.735 -21.827  -1.749  1.00  0.00     0.274 HD
ATOM     44  HN1 UNL     1      -1.449 -22.177  -0.260  1.00  0.00     0.274 HD
ENDBRANCH  40  41
ENDBRANCH  39  40
ENDBRANCH  38  39
ENDBRANCH  37  38
ENDBRANCH  18  37
BRANCH   2  45
HETATM   45  C   UNL     1       5.512 -14.536   2.871  1.00  0.00     0.035 C 
BRANCH  45  46
HETATM   46  C   UNL     1       6.390 -14.134   4.050  1.00  0.00     0.002 C 
BRANCH  46  47
HETATM   47  C   UNL     1       5.977 -14.853   5.347  1.00  0.00    -0.004 C 
HETATM   48  C   UNL     1       5.547 -13.910   6.448  1.00  0.00     0.005 C 
ENDBRANCH  46  47
ENDBRANCH  45  46
ENDBRANCH   2  45
BRANCH   4  49
HETATM   49  N   UNL     1      -2.105 -12.950  -0.667  1.00  0.00    -0.352 N 
HETATM   50  C   UNL     1      -2.606 -13.732  -1.708  1.00  0.00     0.182 C 
HETATM   51  N   UNL     1      -1.706 -14.581  -2.321  1.00  0.00    -0.064 NA
HETATM   52  N   UNL     1      -3.847 -13.627  -2.032  1.00  0.00    -0.374 N 
ATOM     53  HN2 UNL     1      -4.213 -14.199  -2.794  1.00  0.00     0.158 HD
ATOM     54  HN1 UNL     1      -4.511 -13.000  -1.579  1.00  0.00     0.158 HD
ATOM     55  HN  UNL     1      -2.783 -12.409  -0.129  1.00  0.00     0.163 HD
ENDBRANCH   4  49
TORSDOF 9
ENDMDL
MODEL 12
REMARK VINA RESULT:    -6.288      5.043      8.356
REMARK INTER + INTRA:         -10.717
REMARK INTER:                  -9.798
REMARK INTRA:                  -0.919
REMARK UNBOUND:                -1.305
REMARK  9 active torsions:
REMARK  status: ('A' for Active; 'I' for Inactive)
REMARK    1  A    between atoms: C_3  and  C_7 
REMARK    2  A    between atoms: C_7  and  C_25 
REMARK    3  A    between atoms: C_9  and  N_21 
REMARK       I    between atoms: C_18  and  N_21 
REMARK    4  A    between atoms: C_25  and  C_26 
REMARK    5  A    between atoms: C_29  and  C_30 
REMARK    6  A    between atoms: C_30  and  C_31 
REMARK    7  A    between atoms: C_31  and  C_32 
REMARK    8  A    between atoms: C_32  and  C_33 
REMARK    9  A    between atoms: C_33  and  N_45 
ROOT
HETATM    1  C   UNL     1       6.394 -13.854   2.353  1.00  0.00     0.240 C 
HETATM    2  C   UNL     1       5.138 -13.403   3.104  1.00  0.00     0.176 C 
HETATM    3  O   UNL     1       6.657 -21.904   0.904  1.00  0.00    -0.272 OA
HETATM    4  C   UNL     1       5.014 -17.227  -1.584  1.00  0.00     0.176 C 
HETATM    5  C   UNL     1       7.334 -14.178  -0.818  1.00  0.00     0.020 C 
HETATM    6  C   UNL     1       7.851 -13.473   0.419  1.00  0.00     0.122 C 
HETATM    7  N   UNL     1       6.765 -13.100   1.317  1.00  0.00    -0.359 N 
ATOM      8  HN  UNL     1       6.267 -12.227   1.145  1.00  0.00     0.162 HD
HETATM    9  C   UNL     1       6.513 -15.422  -0.526  1.00  0.00     0.004 C 
HETATM   10  O   UNL     1       6.988 -14.881   2.684  1.00  0.00    -0.271 OA
HETATM   11  C   UNL     1       5.979 -16.059  -1.791  1.00  0.00     0.035 C 
HETATM   12  O   UNL     1       3.000 -12.470   1.472  1.00  0.00    -0.271 OA
HETATM   13  N   UNL     1       3.987 -14.153   2.621  1.00  0.00    -0.346 N 
ATOM     14  HN  UNL     1       3.941 -15.149   2.836  1.00  0.00     0.163 HD
HETATM   15  C   UNL     1       5.718 -18.351  -0.813  1.00  0.00     0.240 C 
HETATM   16  O   UNL     1       5.700 -18.382   0.421  1.00  0.00    -0.271 OA
HETATM   17  C   UNL     1       2.984 -13.618   1.911  1.00  0.00     0.241 C 
HETATM   18  C   UNL     1       1.771 -14.514   1.662  1.00  0.00     0.176 C 
HETATM   19  C   UNL     1       2.072 -16.947   1.495  1.00  0.00     0.222 C 
HETATM   20  C   UNL     1       2.011 -18.238   2.292  1.00  0.00     0.141 C 
HETATM   21  C   UNL     1       1.823 -19.483   1.459  1.00  0.00    -0.049 A 
HETATM   22  C   UNL     1       2.912 -20.291   1.155  1.00  0.00     0.016 A 
HETATM   23  C   UNL     1       2.775 -21.456   0.396  1.00  0.00    -0.040 A 
HETATM   24  C   UNL     1       3.980 -22.298   0.089  1.00  0.00     0.161 C 
HETATM   25  C   UNL     1       6.222 -21.303  -0.079  1.00  0.00     0.235 C 
HETATM   26  C   UNL     1       7.094 -20.320  -0.843  1.00  0.00     0.225 C 
HETATM   27  C   UNL     1       1.508 -21.788  -0.065  1.00  0.00     0.009 A 
HETATM   28  C   UNL     1       0.410 -20.994   0.221  1.00  0.00     0.001 A 
HETATM   29  C   UNL     1       0.573 -19.848   0.985  1.00  0.00     0.007 A 
HETATM   30  N   UNL     1       1.914 -15.843   2.230  1.00  0.00    -0.348 N 
ATOM     31  HN  UNL     1       1.893 -15.938   3.245  1.00  0.00     0.163 HD
HETATM   32  N   UNL     1       4.998 -21.490  -0.566  1.00  0.00    -0.355 N 
ATOM     33  HN  UNL     1       4.759 -21.039  -1.450  1.00  0.00     0.162 HD
HETATM   34  N   UNL     1       6.355 -19.277  -1.526  1.00  0.00    -0.351 N 
ATOM     35  HN  UNL     1       6.324 -19.252  -2.545  1.00  0.00     0.163 HD
HETATM   36  O   UNL     1       2.268 -16.924   0.279  1.00  0.00    -0.273 OA
ENDROOT
BRANCH  18  37
HETATM   37  C   UNL     1       0.505 -13.856   2.206  1.00  0.00     0.035 C 
BRANCH  37  38
HETATM   38  C   UNL     1      -0.468 -13.490   1.087  1.00  0.00     0.004 C 
BRANCH  38  39
HETATM   39  C   UNL     1      -1.722 -12.759   1.541  1.00  0.00     0.027 C 
BRANCH  39  40
HETATM   40  C   UNL     1      -2.696 -12.499   0.411  1.00  0.00     0.229 C 
BRANCH  40  41
HETATM   41  N   UNL     1      -3.858 -11.706   0.877  1.00  0.00    -0.079 N 
ATOM     42  HN3 UNL     1      -4.740 -12.118   0.572  1.00  0.00     0.274 HD
ATOM     43  HN2 UNL     1      -3.988 -11.787   1.886  1.00  0.00     0.274 HD
ATOM     44  HN1 UNL     1      -3.780 -10.731   0.586  1.00  0.00     0.274 HD
ENDBRANCH  40  41
ENDBRANCH  39  40
ENDBRANCH  38  39
ENDBRANCH  37  38
ENDBRANCH  18  37
BRANCH   2  45
HETATM   45  C   UNL     1       5.312 -13.616   4.610  1.00  0.00     0.035 C 
BRANCH  45  46
HETATM   46  C   UNL     1       4.073 -14.189   5.286  1.00  0.00     0.002 C 
BRANCH  46  47
HETATM   47  C   UNL     1       4.434 -15.093   6.480  1.00  0.00    -0.004 C 
HETATM   48  C   UNL     1       3.332 -15.198   7.510  1.00  0.00     0.005 C 
ENDBRANCH  46  47
ENDBRANCH  45  46
ENDBRANCH   2  45
BRANCH   4  49
HETATM   49  N   UNL     1       4.519 -17.641  -2.888  1.00  0.00    -0.352 N 
HETATM   50  C   UNL     1       3.354 -17.190  -3.510  1.00  0.00     0.182 C 
HETATM   51  N   UNL     1       2.695 -16.147  -2.890  1.00  0.00    -0.064 NA
HETATM   52  N   UNL     1       2.966 -17.751  -4.601  1.00  0.00    -0.374 N 
ATOM     53  HN2 UNL     1       2.115 -17.422  -5.057  1.00  0.00     0.158 HD
ATOM     54  HN1 UNL     1       3.454 -18.521  -5.060  1.00  0.00     0.158 HD
ATOM     55  HN  UNL     1       5.077 -18.326  -3.397  1.00  0.00     0.163 HD
ENDBRANCH   4  49
TORSDOF 9
ENDMDL
MODEL 13
REMARK VINA RESULT:    -6.255      5.354      9.421
REMARK INTER + INTRA:         -10.668
REMARK INTER:                  -8.943
REMARK INTRA:                  -1.725
REMARK UNBOUND:                -1.305
REMARK  9 active torsions:
REMARK  status: ('A' for Active; 'I' for Inactive)
REMARK    1  A    between atoms: C_3  and  C_7 
REMARK    2  A    between atoms: C_7  and  C_25 
REMARK    3  A    between atoms: C_9  and  N_21 
REMARK       I    between atoms: C_18  and  N_21 
REMARK    4  A    between atoms: C_25  and  C_26 
REMARK    5  A    between atoms: C_29  and  C_30 
REMARK    6  A    between atoms: C_30  and  C_31 
REMARK    7  A    between atoms: C_31  and  C_32 
REMARK    8  A    between atoms: C_32  and  C_33 
REMARK    9  A    between atoms: C_33  and  N_45 
ROOT
HETATM    1  C   UNL     1       2.988  -7.932  -3.783  1.00  0.00     0.240 C 
HETATM    2  C   UNL     1       3.802  -7.127  -2.765  1.00  0.00     0.176 C 
HETATM    3  O   UNL     1       2.272 -15.863  -1.898  1.00  0.00    -0.272 OA
HETATM    4  C   UNL     1      -0.483 -11.101  -1.196  1.00  0.00     0.176 C 
HETATM    5  C   UNL     1      -0.210  -8.697  -4.264  1.00  0.00     0.020 C 
HETATM    6  C   UNL     1       0.906  -8.065  -5.070  1.00  0.00     0.122 C 
HETATM    7  N   UNL     1       1.858  -7.369  -4.213  1.00  0.00    -0.359 N 
ATOM      8  HN  UNL     1       1.651  -6.411  -3.930  1.00  0.00     0.162 HD
HETATM    9  C   UNL     1       0.267  -9.669  -3.198  1.00  0.00     0.004 C 
HETATM   10  O   UNL     1       3.359  -9.051  -4.138  1.00  0.00    -0.271 OA
HETATM   11  C   UNL     1      -0.881 -10.233  -2.390  1.00  0.00     0.035 C 
HETATM   12  O   UNL     1       2.285  -5.793  -0.759  1.00  0.00    -0.271 OA
HETATM   13  N   UNL     1       3.493  -7.591  -1.420  1.00  0.00    -0.346 N 
ATOM     14  HN  UNL     1       3.803  -8.526  -1.154  1.00  0.00     0.163 HD
HETATM   15  C   UNL     1       0.324 -12.313  -1.681  1.00  0.00     0.240 C 
HETATM   16  O   UNL     1       1.552 -12.255  -1.790  1.00  0.00    -0.271 OA
HETATM   17  C   UNL     1       2.829  -6.868  -0.509  1.00  0.00     0.241 C 
HETATM   18  C   UNL     1       2.771  -7.441   0.908  1.00  0.00     0.176 C 
HETATM   19  C   UNL     1       2.804  -9.876   1.234  1.00  0.00     0.222 C 
HETATM   20  C   UNL     1       3.720 -11.052   1.524  1.00  0.00     0.141 C 
HETATM   21  C   UNL     1       3.025 -12.262   2.102  1.00  0.00    -0.049 A 
HETATM   22  C   UNL     1       2.702 -13.339   1.285  1.00  0.00     0.016 A 
HETATM   23  C   UNL     1       2.069 -14.479   1.786  1.00  0.00    -0.040 A 
HETATM   24  C   UNL     1       1.736 -15.619   0.866  1.00  0.00     0.161 C 
HETATM   25  C   UNL     1       1.280 -15.240  -1.520  1.00  0.00     0.235 C 
HETATM   26  C   UNL     1       0.354 -14.564  -2.519  1.00  0.00     0.225 C 
HETATM   27  C   UNL     1       1.754 -14.508   3.138  1.00  0.00     0.009 A 
HETATM   28  C   UNL     1       2.061 -13.444   3.968  1.00  0.00     0.001 A 
HETATM   29  C   UNL     1       2.699 -12.328   3.448  1.00  0.00     0.007 A 
HETATM   30  N   UNL     1       3.445  -8.721   1.035  1.00  0.00    -0.348 N 
ATOM     31  HN  UNL     1       4.462  -8.739   0.969  1.00  0.00     0.163 HD
HETATM   32  N   UNL     1       0.922 -15.141  -0.243  1.00  0.00    -0.355 N 
ATOM     33  HN  UNL     1       0.025 -14.706  -0.028  1.00  0.00     0.162 HD
HETATM   34  N   UNL     1      -0.354 -13.415  -1.990  1.00  0.00    -0.351 N 
ATOM     35  HN  UNL     1      -1.364 -13.452  -1.856  1.00  0.00     0.163 HD
HETATM   36  O   UNL     1       1.579  -9.986   1.172  1.00  0.00    -0.273 OA
ENDROOT
BRANCH  18  37
HETATM   37  C   UNL     1       3.362  -6.448   1.906  1.00  0.00     0.035 C 
BRANCH  37  38
HETATM   38  C   UNL     1       4.846  -6.201   1.648  1.00  0.00     0.004 C 
BRANCH  38  39
HETATM   39  C   UNL     1       5.247  -4.737   1.556  1.00  0.00     0.027 C 
BRANCH  39  40
HETATM   40  C   UNL     1       4.062  -3.795   1.622  1.00  0.00     0.229 C 
BRANCH  40  41
HETATM   41  N   UNL     1       3.719  -3.270   0.279  1.00  0.00    -0.079 N 
ATOM     42  HN3 UNL     1       4.535  -3.243  -0.333  1.00  0.00     0.274 HD
ATOM     43  HN2 UNL     1       3.149  -3.932  -0.248  1.00  0.00     0.274 HD
ATOM     44  HN1 UNL     1       3.270  -2.357   0.344  1.00  0.00     0.274 HD
ENDBRANCH  40  41
ENDBRANCH  39  40
ENDBRANCH  38  39
ENDBRANCH  37  38
ENDBRANCH  18  37
BRANCH   2  45
HETATM   45  C   UNL     1       5.300  -7.275  -3.044  1.00  0.00     0.035 C 
BRANCH  45  46
HETATM   46  C   UNL     1       6.178  -6.570  -2.017  1.00  0.00     0.002 C 
BRANCH  46  47
HETATM   47  C   UNL     1       5.960  -5.045  -2.023  1.00  0.00    -0.004 C 
HETATM   48  C   UNL     1       7.221  -4.256  -1.755  1.00  0.00     0.005 C 
ENDBRANCH  46  47
ENDBRANCH  45  46
ENDBRANCH   2  45
BRANCH   4  49
HETATM   49  N   UNL     1      -1.694 -11.462  -0.476  1.00  0.00    -0.352 N 
HETATM   50  C   UNL     1      -1.764 -12.199   0.707  1.00  0.00     0.182 C 
HETATM   51  N   UNL     1      -0.560 -12.481   1.322  1.00  0.00    -0.064 NA
HETATM   52  N   UNL     1      -2.913 -12.565   1.154  1.00  0.00    -0.374 N 
ATOM     53  HN2 UNL     1      -2.964 -13.104   2.018  1.00  0.00     0.158 HD
ATOM     54  HN1 UNL     1      -3.802 -12.356   0.700  1.00  0.00     0.158 HD
ATOM     55  HN  UNL     1      -2.579 -11.146  -0.874  1.00  0.00     0.163 HD
ENDBRANCH   4  49
TORSDOF 9
ENDMDL
MODEL 14
REMARK VINA RESULT:    -6.215      3.497      9.197
REMARK INTER + INTRA:         -10.608
REMARK INTER:                  -9.421
REMARK INTRA:                  -1.187
REMARK UNBOUND:                -1.305
REMARK  9 active torsions:
REMARK  status: ('A' for Active; 'I' for Inactive)
REMARK    1  A    between atoms: C_3  and  C_7 
REMARK    2  A    between atoms: C_7  and  C_25 
REMARK    3  A    between atoms: C_9  and  N_21 
REMARK       I    between atoms: C_18  and  N_21 
REMARK    4  A    between atoms: C_25  and  C_26 
REMARK    5  A    between atoms: C_29  and  C_30 
REMARK    6  A    between atoms: C_30  and  C_31 
REMARK    7  A    between atoms: C_31  and  C_32 
REMARK    8  A    between atoms: C_32  and  C_33 
REMARK    9  A    between atoms: C_33  and  N_45 
ROOT
HETATM    1  C   UNL     1       5.550  -9.562   0.289  1.00  0.00     0.240 C 
HETATM    2  C   UNL     1       6.366 -10.392   1.283  1.00  0.00     0.176 C 
HETATM    3  O   UNL     1       1.392 -14.068  -5.131  1.00  0.00    -0.272 OA
HETATM    4  C   UNL     1       0.637 -11.666  -0.189  1.00  0.00     0.176 C 
HETATM    5  C   UNL     1       2.499  -8.249   0.163  1.00  0.00     0.020 C 
HETATM    6  C   UNL     1       3.921  -7.751   0.010  1.00  0.00     0.122 C 
HETATM    7  N   UNL     1       4.855  -8.544   0.800  1.00  0.00    -0.359 N 
ATOM      8  HN  UNL     1       4.982  -8.312   1.785  1.00  0.00     0.162 HD
HETATM    9  C   UNL     1       2.310  -9.710  -0.207  1.00  0.00     0.004 C 
HETATM   10  O   UNL     1       5.521  -9.862  -0.905  1.00  0.00    -0.271 OA
HETATM   11  C   UNL     1       0.885 -10.171   0.010  1.00  0.00     0.035 C 
HETATM   12  O   UNL     1       5.090 -10.937   3.769  1.00  0.00    -0.271 OA
HETATM   13  N   UNL     1       5.613 -11.579   1.661  1.00  0.00    -0.346 N 
ATOM     14  HN  UNL     1       5.465 -12.297   0.952  1.00  0.00     0.163 HD
HETATM   15  C   UNL     1       0.991 -12.063  -1.628  1.00  0.00     0.240 C 
HETATM   16  O   UNL     1       2.135 -12.419  -1.925  1.00  0.00    -0.271 OA
HETATM   17  C   UNL     1       5.101 -11.788   2.881  1.00  0.00     0.241 C 
HETATM   18  C   UNL     1       4.512 -13.174   3.146  1.00  0.00     0.176 C 
HETATM   19  C   UNL     1       3.517 -14.445   1.293  1.00  0.00     0.222 C 
HETATM   20  C   UNL     1       3.811 -15.513   0.255  1.00  0.00     0.141 C 
HETATM   21  C   UNL     1       2.590 -16.217  -0.285  1.00  0.00    -0.049 A 
HETATM   22  C   UNL     1       2.060 -15.852  -1.517  1.00  0.00     0.016 A 
HETATM   23  C   UNL     1       0.938 -16.488  -2.054  1.00  0.00    -0.040 A 
HETATM   24  C   UNL     1       0.398 -16.059  -3.388  1.00  0.00     0.161 C 
HETATM   25  C   UNL     1       0.665 -13.750  -4.189  1.00  0.00     0.235 C 
HETATM   26  C   UNL     1       0.323 -12.292  -3.924  1.00  0.00     0.225 C 
HETATM   27  C   UNL     1       0.347 -17.502  -1.312  1.00  0.00     0.009 A 
HETATM   28  C   UNL     1       0.854 -17.877  -0.080  1.00  0.00     0.001 A 
HETATM   29  C   UNL     1       1.975 -17.236   0.425  1.00  0.00     0.007 A 
HETATM   30  N   UNL     1       4.585 -14.056   1.995  1.00  0.00    -0.348 N 
ATOM     31  HN  UNL     1       5.502 -14.398   1.707  1.00  0.00     0.163 HD
HETATM   32  N   UNL     1       0.102 -14.633  -3.370  1.00  0.00    -0.355 N 
ATOM     33  HN  UNL     1      -0.577 -14.292  -2.689  1.00  0.00     0.162 HD
HETATM   34  N   UNL     1       0.023 -11.995  -2.538  1.00  0.00    -0.351 N 
ATOM     35  HN  UNL     1      -0.924 -11.735  -2.262  1.00  0.00     0.163 HD
HETATM   36  O   UNL     1       2.394 -13.969   1.459  1.00  0.00    -0.273 OA
ENDROOT
BRANCH  18  37
HETATM   37  C   UNL     1       5.208 -13.826   4.339  1.00  0.00     0.035 C 
BRANCH  37  38
HETATM   38  C   UNL     1       4.304 -14.842   5.034  1.00  0.00     0.004 C 
BRANCH  38  39
HETATM   39  C   UNL     1       4.304 -14.766   6.553  1.00  0.00     0.027 C 
BRANCH  39  40
HETATM   40  C   UNL     1       2.984 -15.188   7.166  1.00  0.00     0.229 C 
BRANCH  40  41
HETATM   41  N   UNL     1       2.855 -16.664   7.196  1.00  0.00    -0.079 N 
ATOM     42  HN3 UNL     1       2.467 -16.988   8.082  1.00  0.00     0.274 HD
ATOM     43  HN2 UNL     1       2.115 -16.989   6.573  1.00  0.00     0.274 HD
ATOM     44  HN1 UNL     1       3.746 -17.117   6.989  1.00  0.00     0.274 HD
ENDBRANCH  40  41
ENDBRANCH  39  40
ENDBRANCH  38  39
ENDBRANCH  37  38
ENDBRANCH  18  37
BRANCH   2  45
HETATM   45  C   UNL     1       7.709 -10.794   0.666  1.00  0.00     0.035 C 
BRANCH  45  46
HETATM   46  C   UNL     1       8.471 -11.821   1.493  1.00  0.00     0.002 C 
BRANCH  46  47
HETATM   47  C   UNL     1       8.935 -11.243   2.844  1.00  0.00    -0.004 C 
HETATM   48  C   UNL     1       8.641 -12.149   4.018  1.00  0.00     0.005 C 
ENDBRANCH  46  47
ENDBRANCH  45  46
ENDBRANCH   2  45
BRANCH   4  49
HETATM   49  N   UNL     1      -0.745 -11.947   0.166  1.00  0.00    -0.352 N 
HETATM   50  C   UNL     1      -1.201 -12.430   1.393  1.00  0.00     0.182 C 
HETATM   51  N   UNL     1      -0.265 -12.506   2.405  1.00  0.00    -0.064 NA
HETATM   52  N   UNL     1      -2.436 -12.768   1.517  1.00  0.00    -0.374 N 
ATOM     53  HN2 UNL     1      -2.770 -13.121   2.414  1.00  0.00     0.158 HD
ATOM     54  HN1 UNL     1      -3.128 -12.711   0.769  1.00  0.00     0.158 HD
ATOM     55  HN  UNL     1      -1.449 -11.774  -0.551  1.00  0.00     0.163 HD
ENDBRANCH   4  49
TORSDOF 9
ENDMDL
MODEL 15
REMARK VINA RESULT:    -6.148      4.368      8.523
REMARK INTER + INTRA:         -10.508
REMARK INTER:                  -9.206
REMARK INTRA:                  -1.302
REMARK UNBOUND:                -1.305
REMARK  9 active torsions:
REMARK  status: ('A' for Active; 'I' for Inactive)
REMARK    1  A    between atoms: C_3  and  C_7 
REMARK    2  A    between atoms: C_7  and  C_25 
REMARK    3  A    between atoms: C_9  and  N_21 
REMARK       I    between atoms: C_18  and  N_21 
REMARK    4  A    between atoms: C_25  and  C_26 
REMARK    5  A    between atoms: C_29  and  C_30 
REMARK    6  A    between atoms: C_30  and  C_31 
REMARK    7  A    between atoms: C_31  and  C_32 
REMARK    8  A    between atoms: C_32  and  C_33 
REMARK    9  A    between atoms: C_33  and  N_45 
ROOT
HETATM    1  C   UNL     1       0.830  -9.775   0.744  1.00  0.00     0.240 C 
HETATM    2  C   UNL     1       1.830  -9.761   1.903  1.00  0.00     0.176 C 
HETATM    3  O   UNL     1       3.285 -14.221  -5.673  1.00  0.00    -0.272 OA
HETATM    4  C   UNL     1       0.255 -14.794  -1.063  1.00  0.00     0.176 C 
HETATM    5  C   UNL     1      -1.800 -11.595  -0.163  1.00  0.00     0.020 C 
HETATM    6  C   UNL     1      -1.503 -10.129   0.078  1.00  0.00     0.122 C 
HETATM    7  N   UNL     1      -0.451  -9.951   1.072  1.00  0.00    -0.359 N 
ATOM      8  HN  UNL     1      -0.705  -9.962   2.059  1.00  0.00     0.162 HD
HETATM    9  C   UNL     1      -0.593 -12.410  -0.598  1.00  0.00     0.004 C 
HETATM   10  O   UNL     1       1.217  -9.668  -0.420  1.00  0.00    -0.271 OA
HETATM   11  C   UNL     1      -0.931 -13.874  -0.776  1.00  0.00     0.035 C 
HETATM   12  O   UNL     1       1.368 -11.685   3.950  1.00  0.00    -0.271 OA
HETATM   13  N   UNL     1       2.431 -11.080   2.044  1.00  0.00    -0.346 N 
ATOM     14  HN  UNL     1       3.060 -11.400   1.307  1.00  0.00     0.163 HD
HETATM   15  C   UNL     1       0.944 -14.362  -2.364  1.00  0.00     0.240 C 
HETATM   16  O   UNL     1       1.854 -13.528  -2.353  1.00  0.00    -0.271 OA
HETATM   17  C   UNL     1       2.210 -11.900   3.080  1.00  0.00     0.241 C 
HETATM   18  C   UNL     1       3.078 -13.157   3.152  1.00  0.00     0.176 C 
HETATM   19  C   UNL     1       3.897 -14.187   1.077  1.00  0.00     0.222 C 
HETATM   20  C   UNL     1       5.085 -14.242   0.133  1.00  0.00     0.141 C 
HETATM   21  C   UNL     1       5.149 -15.482  -0.726  1.00  0.00    -0.049 A 
HETATM   22  C   UNL     1       4.719 -15.440  -2.047  1.00  0.00     0.016 A 
HETATM   23  C   UNL     1       4.772 -16.564  -2.875  1.00  0.00    -0.040 A 
HETATM   24  C   UNL     1       4.294 -16.474  -4.296  1.00  0.00     0.161 C 
HETATM   25  C   UNL     1       2.538 -14.883  -4.952  1.00  0.00     0.235 C 
HETATM   26  C   UNL     1       1.083 -14.485  -4.759  1.00  0.00     0.225 C 
HETATM   27  C   UNL     1       5.261 -17.747  -2.336  1.00  0.00     0.009 A 
HETATM   28  C   UNL     1       5.688 -17.813  -1.022  1.00  0.00     0.001 A 
HETATM   29  C   UNL     1       5.634 -16.680  -0.224  1.00  0.00     0.007 A 
HETATM   30  N   UNL     1       4.010 -13.273   2.045  1.00  0.00    -0.348 N 
ATOM     31  HN  UNL     1       4.794 -12.622   2.004  1.00  0.00     0.163 HD
HETATM   32  N   UNL     1       2.919 -15.994  -4.329  1.00  0.00    -0.355 N 
ATOM     33  HN  UNL     1       2.208 -16.543  -3.846  1.00  0.00     0.162 HD
HETATM   34  N   UNL     1       0.513 -14.910  -3.497  1.00  0.00    -0.351 N 
ATOM     35  HN  UNL     1      -0.214 -15.626  -3.477  1.00  0.00     0.163 HD
HETATM   36  O   UNL     1       2.910 -14.912   0.947  1.00  0.00    -0.273 OA
ENDROOT
BRANCH  18  37
HETATM   37  C   UNL     1       3.842 -13.199   4.474  1.00  0.00     0.035 C 
BRANCH  37  38
HETATM   38  C   UNL     1       3.498 -14.447   5.285  1.00  0.00     0.004 C 
BRANCH  38  39
HETATM   39  C   UNL     1       4.521 -14.823   6.346  1.00  0.00     0.027 C 
BRANCH  39  40
HETATM   40  C   UNL     1       3.896 -15.103   7.696  1.00  0.00     0.229 C 
BRANCH  40  41
HETATM   41  N   UNL     1       3.543 -16.535   7.837  1.00  0.00    -0.079 N 
ATOM     42  HN3 UNL     1       2.702 -16.661   8.400  1.00  0.00     0.274 HD
ATOM     43  HN2 UNL     1       3.203 -16.926   6.958  1.00  0.00     0.274 HD
ATOM     44  HN1 UNL     1       4.326 -17.073   8.209  1.00  0.00     0.274 HD
ENDBRANCH  40  41
ENDBRANCH  39  40
ENDBRANCH  38  39
ENDBRANCH  37  38
ENDBRANCH  18  37
BRANCH   2  45
HETATM   45  C   UNL     1       2.916  -8.710   1.657  1.00  0.00     0.035 C 
BRANCH  45  46
HETATM   46  C   UNL     1       4.303  -9.309   1.460  1.00  0.00     0.002 C 
BRANCH  46  47
HETATM   47  C   UNL     1       4.761  -9.233  -0.008  1.00  0.00    -0.004 C 
HETATM   48  C   UNL     1       4.757 -10.572  -0.710  1.00  0.00     0.005 C 
ENDBRANCH  46  47
ENDBRANCH  45  46
ENDBRANCH   2  45
BRANCH   4  49
HETATM   49  N   UNL     1      -0.233 -16.164  -1.093  1.00  0.00    -0.352 N 
HETATM   50  C   UNL     1       0.542 -17.320  -0.990  1.00  0.00     0.182 C 
HETATM   51  N   UNL     1       1.876 -17.135  -0.685  1.00  0.00    -0.064 NA
HETATM   52  N   UNL     1      -0.010 -18.467  -1.177  1.00  0.00    -0.374 N 
ATOM     53  HN2 UNL     1       0.557 -19.312  -1.102  1.00  0.00     0.158 HD
ATOM     54  HN1 UNL     1      -0.995 -18.603  -1.403  1.00  0.00     0.158 HD
ATOM     55  HN  UNL     1      -1.239 -16.293  -1.200  1.00  0.00     0.163 HD
ENDBRANCH   4  49
TORSDOF 9
ENDMDL
MODEL 16
REMARK VINA RESULT:    -6.111      5.705     11.504
REMARK INTER + INTRA:         -10.453
REMARK INTER:                  -9.293
REMARK INTRA:                  -1.160
REMARK UNBOUND:                -1.305
REMARK  9 active torsions:
REMARK  status: ('A' for Active; 'I' for Inactive)
REMARK    1  A    between atoms: C_3  and  C_7 
REMARK    2  A    between atoms: C_7  and  C_25 
REMARK    3  A    between atoms: C_9  and  N_21 
REMARK       I    between atoms: C_18  and  N_21 
REMARK    4  A    between atoms: C_25  and  C_26 
REMARK    5  A    between atoms: C_29  and  C_30 
REMARK    6  A    between atoms: C_30  and  C_31 
REMARK    7  A    between atoms: C_31  and  C_32 
REMARK    8  A    between atoms: C_32  and  C_33 
REMARK    9  A    between atoms: C_33  and  N_45 
ROOT
HETATM    1  C   UNL     1       2.658 -11.186   0.072  1.00  0.00     0.240 C 
HETATM    2  C   UNL     1       3.181 -12.620   0.197  1.00  0.00     0.176 C 
HETATM    3  O   UNL     1      -1.560  -9.805  -6.803  1.00  0.00    -0.272 OA
HETATM    4  C   UNL     1      -2.461 -11.282  -1.534  1.00  0.00     0.176 C 
HETATM    5  C   UNL     1      -0.062  -9.512   0.993  1.00  0.00     0.020 C 
HETATM    6  C   UNL     1       1.435  -9.367   1.170  1.00  0.00     0.122 C 
HETATM    7  N   UNL     1       2.104 -10.662   1.167  1.00  0.00    -0.359 N 
ATOM      8  HN  UNL     1       2.149 -11.191   2.038  1.00  0.00     0.162 HD
HETATM    9  C   UNL     1      -0.469 -10.253  -0.270  1.00  0.00     0.004 C 
HETATM   10  O   UNL     1       2.721 -10.586  -1.001  1.00  0.00    -0.271 OA
HETATM   11  C   UNL     1      -1.970 -10.415  -0.374  1.00  0.00     0.035 C 
HETATM   12  O   UNL     1       1.532 -14.405   1.681  1.00  0.00    -0.271 OA
HETATM   13  N   UNL     1       2.182 -13.549  -0.313  1.00  0.00    -0.346 N 
ATOM     14  HN  UNL     1       1.993 -13.544  -1.315  1.00  0.00     0.163 HD
HETATM   15  C   UNL     1      -2.012 -10.667  -2.866  1.00  0.00     0.240 C 
HETATM   16  O   UNL     1      -0.925 -10.967  -3.369  1.00  0.00    -0.271 OA
HETATM   17  C   UNL     1       1.495 -14.408   0.451  1.00  0.00     0.241 C 
HETATM   18  C   UNL     1       0.635 -15.437  -0.283  1.00  0.00     0.176 C 
HETATM   19  C   UNL     1      -0.342 -14.867  -2.465  1.00  0.00     0.222 C 
HETATM   20  C   UNL     1      -0.123 -14.983  -3.963  1.00  0.00     0.141 C 
HETATM   21  C   UNL     1      -1.377 -14.851  -4.793  1.00  0.00    -0.049 A 
HETATM   22  C   UNL     1      -1.677 -13.647  -5.420  1.00  0.00     0.016 A 
HETATM   23  C   UNL     1      -2.822 -13.490  -6.205  1.00  0.00    -0.040 A 
HETATM   24  C   UNL     1      -3.107 -12.170  -6.861  1.00  0.00     0.161 C 
HETATM   25  C   UNL     1      -2.325 -10.058  -5.873  1.00  0.00     0.235 C 
HETATM   26  C   UNL     1      -2.425  -9.135  -4.669  1.00  0.00     0.225 C 
HETATM   27  C   UNL     1      -3.675 -14.577  -6.336  1.00  0.00     0.009 A 
HETATM   28  C   UNL     1      -3.400 -15.784  -5.716  1.00  0.00     0.001 A 
HETATM   29  C   UNL     1      -2.251 -15.916  -4.951  1.00  0.00     0.007 A 
HETATM   30  N   UNL     1       0.685 -15.298  -1.728  1.00  0.00    -0.348 N 
ATOM     31  HN  UNL     1       1.553 -15.544  -2.206  1.00  0.00     0.163 HD
HETATM   32  N   UNL     1      -3.137 -11.112  -5.860  1.00  0.00    -0.355 N 
ATOM     33  HN  UNL     1      -3.820 -11.184  -5.106  1.00  0.00     0.162 HD
HETATM   34  N   UNL     1      -2.833  -9.795  -3.446  1.00  0.00    -0.351 N 
ATOM     35  HN  UNL     1      -3.743  -9.593  -3.031  1.00  0.00     0.163 HD
HETATM   36  O   UNL     1      -1.371 -14.399  -1.976  1.00  0.00    -0.273 OA
ENDROOT
BRANCH  18  37
HETATM   37  C   UNL     1       1.048 -16.853   0.112  1.00  0.00     0.035 C 
BRANCH  37  38
HETATM   38  C   UNL     1       0.622 -17.880  -0.935  1.00  0.00     0.004 C 
BRANCH  38  39
HETATM   39  C   UNL     1       0.979 -19.320  -0.602  1.00  0.00     0.027 C 
BRANCH  39  40
HETATM   40  C   UNL     1       1.013 -19.592   0.887  1.00  0.00     0.229 C 
BRANCH  40  41
HETATM   41  N   UNL     1      -0.081 -20.508   1.290  1.00  0.00    -0.079 N 
ATOM     42  HN3 UNL     1      -0.402 -21.076   0.507  1.00  0.00     0.274 HD
ATOM     43  HN2 UNL     1       0.260 -21.255   1.896  1.00  0.00     0.274 HD
ATOM     44  HN1 UNL     1      -0.850 -19.996   1.723  1.00  0.00     0.274 HD
ENDBRANCH  40  41
ENDBRANCH  39  40
ENDBRANCH  38  39
ENDBRANCH  37  38
ENDBRANCH  18  37
BRANCH   2  45
HETATM   45  C   UNL     1       4.492 -12.778  -0.577  1.00  0.00     0.035 C 
BRANCH  45  46
HETATM   46  C   UNL     1       4.370 -13.688  -1.793  1.00  0.00     0.002 C 
BRANCH  46  47
HETATM   47  C   UNL     1       5.241 -13.203  -2.967  1.00  0.00    -0.004 C 
HETATM   48  C   UNL     1       4.777 -11.891  -3.558  1.00  0.00     0.005 C 
ENDBRANCH  46  47
ENDBRANCH  45  46
ENDBRANCH   2  45
BRANCH   4  49
HETATM   49  N   UNL     1      -3.904 -11.420  -1.416  1.00  0.00    -0.352 N 
HETATM   50  C   UNL     1      -4.584 -12.420  -0.722  1.00  0.00     0.182 C 
HETATM   51  N   UNL     1      -3.808 -13.269   0.042  1.00  0.00    -0.064 NA
HETATM   52  N   UNL     1      -5.865 -12.498  -0.824  1.00  0.00    -0.374 N 
ATOM     53  HN2 UNL     1      -6.362 -13.230  -0.317  1.00  0.00     0.158 HD
ATOM     54  HN1 UNL     1      -6.438 -11.871  -1.389  1.00  0.00     0.158 HD
ATOM     55  HN  UNL     1      -4.474 -10.717  -1.886  1.00  0.00     0.163 HD
ENDBRANCH   4  49
TORSDOF 9
ENDMDL
MODEL 17
REMARK VINA RESULT:    -6.019      5.803      8.528
REMARK INTER + INTRA:         -10.315
REMARK INTER:                  -8.802
REMARK INTRA:                  -1.513
REMARK UNBOUND:                -1.305
REMARK  9 active torsions:
REMARK  status: ('A' for Active; 'I' for Inactive)
REMARK    1  A    between atoms: C_3  and  C_7 
REMARK    2  A    between atoms: C_7  and  C_25 
REMARK    3  A    between atoms: C_9  and  N_21 
REMARK       I    between atoms: C_18  and  N_21 
REMARK    4  A    between atoms: C_25  and  C_26 
REMARK    5  A    between atoms: C_29  and  C_30 
REMARK    6  A    between atoms: C_30  and  C_31 
REMARK    7  A    between atoms: C_31  and  C_32 
REMARK    8  A    between atoms: C_32  and  C_33 
REMARK    9  A    between atoms: C_33  and  N_45 
ROOT
HETATM    1  C   UNL     1      -0.880 -12.085   1.576  1.00  0.00     0.240 C 
HETATM    2  C   UNL     1      -1.569 -11.514   0.333  1.00  0.00     0.176 C 
HETATM    3  O   UNL     1       0.365 -20.166   1.227  1.00  0.00    -0.272 OA
HETATM    4  C   UNL     1       3.028 -15.439   0.072  1.00  0.00     0.176 C 
HETATM    5  C   UNL     1       2.243 -12.570   2.605  1.00  0.00     0.020 C 
HETATM    6  C   UNL     1       1.003 -11.877   3.132  1.00  0.00     0.122 C 
HETATM    7  N   UNL     1       0.158 -11.393   2.047  1.00  0.00    -0.359 N 
ATOM      8  HN  UNL     1       0.370 -10.487   1.630  1.00  0.00     0.162 HD
HETATM    9  C   UNL     1       1.954 -13.735   1.673  1.00  0.00     0.004 C 
HETATM   10  O   UNL     1      -1.259 -13.148   2.070  1.00  0.00    -0.271 OA
HETATM   11  C   UNL     1       3.223 -14.360   1.137  1.00  0.00     0.035 C 
HETATM   12  O   UNL     1       0.169 -10.453  -1.656  1.00  0.00    -0.271 OA
HETATM   13  N   UNL     1      -1.059 -12.180  -0.856  1.00  0.00    -0.346 N 
ATOM     14  HN  UNL     1      -1.295 -13.162  -0.992  1.00  0.00     0.163 HD
HETATM   15  C   UNL     1       2.203 -16.596   0.650  1.00  0.00     0.240 C 
HETATM   16  O   UNL     1       0.970 -16.592   0.583  1.00  0.00    -0.271 OA
HETATM   17  C   UNL     1      -0.297 -11.584  -1.784  1.00  0.00     0.241 C 
HETATM   18  C   UNL     1      -0.021 -12.384  -3.057  1.00  0.00     0.176 C 
HETATM   19  C   UNL     1       0.076 -14.837  -2.951  1.00  0.00     0.222 C 
HETATM   20  C   UNL     1      -0.749 -16.096  -3.149  1.00  0.00     0.141 C 
HETATM   21  C   UNL     1       0.061 -17.344  -3.408  1.00  0.00    -0.049 A 
HETATM   22  C   UNL     1       0.303 -18.247  -2.379  1.00  0.00     0.016 A 
HETATM   23  C   UNL     1       1.038 -19.417  -2.583  1.00  0.00    -0.040 A 
HETATM   24  C   UNL     1       1.277 -20.362  -1.441  1.00  0.00     0.161 C 
HETATM   25  C   UNL     1       1.379 -19.559   0.880  1.00  0.00     0.235 C 
HETATM   26  C   UNL     1       2.131 -18.671   1.859  1.00  0.00     0.225 C 
HETATM   27  C   UNL     1       1.542 -19.656  -3.855  1.00  0.00     0.009 A 
HETATM   28  C   UNL     1       1.319 -18.768  -4.893  1.00  0.00     0.001 A 
HETATM   29  C   UNL     1       0.576 -17.618  -4.665  1.00  0.00     0.007 A 
HETATM   30  N   UNL     1      -0.625 -13.704  -3.045  1.00  0.00    -0.348 N 
ATOM     31  HN  UNL     1      -1.641 -13.770  -3.113  1.00  0.00     0.163 HD
HETATM   32  N   UNL     1       1.910 -19.657  -0.335  1.00  0.00    -0.355 N 
ATOM     33  HN  UNL     1       2.813 -19.213  -0.502  1.00  0.00     0.162 HD
HETATM   34  N   UNL     1       2.867 -17.589   1.235  1.00  0.00    -0.351 N 
ATOM     35  HN  UNL     1       3.887 -17.590   1.245  1.00  0.00     0.163 HD
HETATM   36  O   UNL     1       1.283 -14.863  -2.708  1.00  0.00    -0.273 OA
ENDROOT
BRANCH  18  37
HETATM   37  C   UNL     1      -0.498 -11.611  -4.284  1.00  0.00     0.035 C 
BRANCH  37  38
HETATM   38  C   UNL     1      -1.846 -12.123  -4.786  1.00  0.00     0.004 C 
BRANCH  38  39
HETATM   39  C   UNL     1      -3.020 -11.188  -4.538  1.00  0.00     0.027 C 
BRANCH  39  40
HETATM   40  C   UNL     1      -4.222 -11.507  -5.401  1.00  0.00     0.229 C 
BRANCH  40  41
HETATM   41  N   UNL     1      -5.353 -12.007  -4.583  1.00  0.00    -0.079 N 
ATOM     42  HN3 UNL     1      -5.060 -12.220  -3.630  1.00  0.00     0.274 HD
ATOM     43  HN2 UNL     1      -6.024 -11.266  -4.379  1.00  0.00     0.274 HD
ATOM     44  HN1 UNL     1      -5.802 -12.809  -5.026  1.00  0.00     0.274 HD
ENDBRANCH  40  41
ENDBRANCH  39  40
ENDBRANCH  38  39
ENDBRANCH  37  38
ENDBRANCH  18  37
BRANCH   2  45
HETATM   45  C   UNL     1      -3.086 -11.699   0.433  1.00  0.00     0.035 C 
BRANCH  45  46
HETATM   46  C   UNL     1      -3.794 -11.613  -0.914  1.00  0.00     0.002 C 
BRANCH  46  47
HETATM   47  C   UNL     1      -4.599 -12.888  -1.224  1.00  0.00    -0.004 C 
HETATM   48  C   UNL     1      -3.836 -13.895  -2.055  1.00  0.00     0.005 C 
ENDBRANCH  46  47
ENDBRANCH  45  46
ENDBRANCH   2  45
BRANCH   4  49
HETATM   49  N   UNL     1       4.340 -15.846  -0.406  1.00  0.00    -0.352 N 
HETATM   50  C   UNL     1       4.608 -16.564  -1.572  1.00  0.00     0.182 C 
HETATM   51  N   UNL     1       3.538 -16.778  -2.418  1.00  0.00    -0.064 NA
HETATM   52  N   UNL     1       5.807 -16.978  -1.794  1.00  0.00    -0.374 N 
ATOM     53  HN2 UNL     1       6.003 -17.504  -2.646  1.00  0.00     0.158 HD
ATOM     54  HN1 UNL     1       6.597 -16.821  -1.169  1.00  0.00     0.158 HD
ATOM     55  HN  UNL     1       5.142 -15.580   0.166  1.00  0.00     0.163 HD
ENDBRANCH   4  49
TORSDOF 9
ENDMDL
MODEL 18
REMARK VINA RESULT:    -5.990      3.054      6.797
REMARK INTER + INTRA:         -10.273
REMARK INTER:                  -8.305
REMARK INTRA:                  -1.968
REMARK UNBOUND:                -1.305
REMARK  9 active torsions:
REMARK  status: ('A' for Active; 'I' for Inactive)
REMARK    1  A    between atoms: C_3  and  C_7 
REMARK    2  A    between atoms: C_7  and  C_25 
REMARK    3  A    between atoms: C_9  and  N_21 
REMARK       I    between atoms: C_18  and  N_21 
REMARK    4  A    between atoms: C_25  and  C_26 
REMARK    5  A    between atoms: C_29  and  C_30 
REMARK    6  A    between atoms: C_30  and  C_31 
REMARK    7  A    between atoms: C_31  and  C_32 
REMARK    8  A    between atoms: C_32  and  C_33 
REMARK    9  A    between atoms: C_33  and  N_45 
ROOT
HETATM    1  C   UNL     1       5.060  -8.150  -1.744  1.00  0.00     0.240 C 
HETATM    2  C   UNL     1       3.545  -7.970  -1.612  1.00  0.00     0.176 C 
HETATM    3  O   UNL     1       8.572 -11.439   4.876  1.00  0.00    -0.272 OA
HETATM    4  C   UNL     1       6.439 -13.030   0.010  1.00  0.00     0.176 C 
HETATM    5  C   UNL     1       7.130 -10.491  -2.879  1.00  0.00     0.020 C 
HETATM    6  C   UNL     1       6.891  -9.016  -3.126  1.00  0.00     0.122 C 
HETATM    7  N   UNL     1       5.496  -8.653  -2.900  1.00  0.00    -0.359 N 
ATOM      8  HN  UNL     1       4.827  -8.790  -3.657  1.00  0.00     0.162 HD
HETATM    9  C   UNL     1       6.739 -10.958  -1.487  1.00  0.00     0.004 C 
HETATM   10  O   UNL     1       5.808  -7.876  -0.805  1.00  0.00    -0.271 OA
HETATM   11  C   UNL     1       6.950 -12.445  -1.308  1.00  0.00     0.035 C 
HETATM   12  O   UNL     1       1.959 -10.078  -2.681  1.00  0.00    -0.271 OA
HETATM   13  N   UNL     1       2.978  -9.110  -0.906  1.00  0.00    -0.346 N 
ATOM     14  HN  UNL     1       3.203  -9.218   0.083  1.00  0.00     0.163 HD
HETATM   15  C   UNL     1       7.158 -12.359   1.188  1.00  0.00     0.240 C 
HETATM   16  O   UNL     1       6.708 -11.332   1.704  1.00  0.00    -0.271 OA
HETATM   17  C   UNL     1       2.180 -10.025  -1.472  1.00  0.00     0.241 C 
HETATM   18  C   UNL     1       1.525 -11.035  -0.531  1.00  0.00     0.176 C 
HETATM   19  C   UNL     1       2.682 -11.698   1.534  1.00  0.00     0.222 C 
HETATM   20  C   UNL     1       2.784 -11.401   3.019  1.00  0.00     0.141 C 
HETATM   21  C   UNL     1       3.348 -12.530   3.848  1.00  0.00    -0.049 A 
HETATM   22  C   UNL     1       4.680 -12.508   4.245  1.00  0.00     0.016 A 
HETATM   23  C   UNL     1       5.234 -13.528   5.022  1.00  0.00    -0.040 A 
HETATM   24  C   UNL     1       6.679 -13.464   5.426  1.00  0.00     0.161 C 
HETATM   25  C   UNL     1       8.343 -12.308   4.034  1.00  0.00     0.235 C 
HETATM   26  C   UNL     1       9.038 -12.288   2.682  1.00  0.00     0.225 C 
HETATM   27  C   UNL     1       4.415 -14.590   5.383  1.00  0.00     0.009 A 
HETATM   28  C   UNL     1       3.088 -14.636   4.992  1.00  0.00     0.001 A 
HETATM   29  C   UNL     1       2.560 -13.604   4.231  1.00  0.00     0.007 A 
HETATM   30  N   UNL     1       1.901 -10.849   0.859  1.00  0.00    -0.348 N 
ATOM     31  HN  UNL     1       1.549 -10.026   1.348  1.00  0.00     0.163 HD
HETATM   32  N   UNL     1       7.521 -13.332   4.246  1.00  0.00    -0.355 N 
ATOM     33  HN  UNL     1       7.478 -14.067   3.540  1.00  0.00     0.162 HD
HETATM   34  N   UNL     1       8.285 -12.921   1.618  1.00  0.00    -0.351 N 
ATOM     35  HN  UNL     1       8.616 -13.791   1.201  1.00  0.00     0.163 HD
HETATM   36  O   UNL     1       3.282 -12.630   0.998  1.00  0.00    -0.273 OA
ENDROOT
BRANCH  18  37
HETATM   37  C   UNL     1       0.005 -10.977  -0.665  1.00  0.00     0.035 C 
BRANCH  37  38
HETATM   38  C   UNL     1      -0.639 -12.335  -0.391  1.00  0.00     0.004 C 
BRANCH  38  39
HETATM   39  C   UNL     1      -1.318 -12.460   0.964  1.00  0.00     0.027 C 
BRANCH  39  40
HETATM   40  C   UNL     1      -0.512 -13.271   1.957  1.00  0.00     0.229 C 
BRANCH  40  41
HETATM   41  N   UNL     1       0.413 -14.200   1.264  1.00  0.00    -0.079 N 
ATOM     42  HN3 UNL     1       0.583 -15.041   1.816  1.00  0.00     0.274 HD
ATOM     43  HN2 UNL     1      -0.027 -14.632   0.451  1.00  0.00     0.274 HD
ATOM     44  HN1 UNL     1       1.286 -13.733   1.015  1.00  0.00     0.274 HD
ENDBRANCH  40  41
ENDBRANCH  39  40
ENDBRANCH  38  39
ENDBRANCH  37  38
ENDBRANCH  18  37
BRANCH   2  45
HETATM   45  C   UNL     1       3.226  -6.673  -0.863  1.00  0.00     0.035 C 
BRANCH  45  46
HETATM   46  C   UNL     1       2.581  -6.904   0.497  1.00  0.00     0.002 C 
BRANCH  46  47
HETATM   47  C   UNL     1       3.578  -6.694   1.652  1.00  0.00    -0.004 C 
HETATM   48  C   UNL     1       3.992  -7.980   2.331  1.00  0.00     0.005 C 
ENDBRANCH  46  47
ENDBRANCH  45  46
ENDBRANCH   2  45
BRANCH   4  49
HETATM   49  N   UNL     1       6.621 -14.472  -0.035  1.00  0.00    -0.352 N 
HETATM   50  C   UNL     1       6.016 -15.408   0.805  1.00  0.00     0.182 C 
HETATM   51  N   UNL     1       5.045 -14.924   1.658  1.00  0.00    -0.064 NA
HETATM   52  N   UNL     1       6.382 -16.640   0.742  1.00  0.00    -0.374 N 
ATOM     53  HN2 UNL     1       5.940 -17.324   1.356  1.00  0.00     0.158 HD
ATOM     54  HN1 UNL     1       7.100 -16.997   0.111  1.00  0.00     0.158 HD
ATOM     55  HN  UNL     1       7.252 -14.835  -0.750  1.00  0.00     0.163 HD
ENDBRANCH   4  49
TORSDOF 9
ENDMDL
MODEL 19
REMARK VINA RESULT:    -5.937      1.695      2.008
REMARK INTER + INTRA:         -10.192
REMARK INTER:                  -8.846
REMARK INTRA:                  -1.346
REMARK UNBOUND:                -1.305
REMARK  9 active torsions:
REMARK  status: ('A' for Active; 'I' for Inactive)
REMARK    1  A    between atoms: C_3  and  C_7 
REMARK    2  A    between atoms: C_7  and  C_25 
REMARK    3  A    between atoms: C_9  and  N_21 
REMARK       I    between atoms: C_18  and  N_21 
REMARK    4  A    between atoms: C_25  and  C_26 
REMARK    5  A    between atoms: C_29  and  C_30 
REMARK    6  A    between atoms: C_30  and  C_31 
REMARK    7  A    between atoms: C_31  and  C_32 
REMARK    8  A    between atoms: C_32  and  C_33 
REMARK    9  A    between atoms: C_33  and  N_45 
ROOT
HETATM    1  C   UNL     1       1.727 -14.268   2.233  1.00  0.00     0.240 C 
HETATM    2  C   UNL     1       1.260 -13.003   1.507  1.00  0.00     0.176 C 
HETATM    3  O   UNL     1       9.718 -15.801   1.363  1.00  0.00    -0.272 OA
HETATM    4  C   UNL     1       6.280 -13.233   4.876  1.00  0.00     0.176 C 
HETATM    5  C   UNL     1       2.840 -15.045   5.267  1.00  0.00     0.020 C 
HETATM    6  C   UNL     1       1.733 -15.513   4.345  1.00  0.00     0.122 C 
HETATM    7  N   UNL     1       1.270 -14.438   3.475  1.00  0.00    -0.359 N 
ATOM      8  HN  UNL     1       0.569 -13.789   3.831  1.00  0.00     0.162 HD
HETATM    9  C   UNL     1       4.046 -14.467   4.545  1.00  0.00     0.004 C 
HETATM   10  O   UNL     1       2.512 -15.047   1.693  1.00  0.00    -0.271 OA
HETATM   11  C   UNL     1       5.100 -13.970   5.511  1.00  0.00     0.035 C 
HETATM   12  O   UNL     1       1.171 -10.638   3.090  1.00  0.00    -0.271 OA
HETATM   13  N   UNL     1       2.276 -11.968   1.627  1.00  0.00    -0.346 N 
ATOM     14  HN  UNL     1       3.159 -12.106   1.135  1.00  0.00     0.163 HD
HETATM   15  C   UNL     1       7.011 -14.165   3.901  1.00  0.00     0.240 C 
HETATM   16  O   UNL     1       6.676 -14.231   2.715  1.00  0.00    -0.271 OA
HETATM   17  C   UNL     1       2.126 -10.846   2.344  1.00  0.00     0.241 C 
HETATM   18  C   UNL     1       3.221  -9.789   2.194  1.00  0.00     0.176 C 
HETATM   19  C   UNL     1       5.524 -10.488   1.697  1.00  0.00     0.222 C 
HETATM   20  C   UNL     1       6.513 -10.698   0.566  1.00  0.00     0.141 C 
HETATM   21  C   UNL     1       7.964 -10.671   0.986  1.00  0.00    -0.049 A 
HETATM   22  C   UNL     1       8.660 -11.860   1.167  1.00  0.00     0.016 A 
HETATM   23  C   UNL     1      10.005 -11.875   1.545  1.00  0.00    -0.040 A 
HETATM   24  C   UNL     1      10.718 -13.183   1.733  1.00  0.00     0.161 C 
HETATM   25  C   UNL     1       9.507 -15.209   2.422  1.00  0.00     0.235 C 
HETATM   26  C   UNL     1       8.680 -15.851   3.525  1.00  0.00     0.225 C 
HETATM   27  C   UNL     1      10.637 -10.656   1.751  1.00  0.00     0.009 A 
HETATM   28  C   UNL     1       9.961  -9.460   1.582  1.00  0.00     0.001 A 
HETATM   29  C   UNL     1       8.629  -9.474   1.196  1.00  0.00     0.007 A 
HETATM   30  N   UNL     1       4.286 -10.192   1.293  1.00  0.00    -0.348 N 
ATOM     31  HN  UNL     1       4.077 -10.251   0.296  1.00  0.00     0.163 HD
HETATM   32  N   UNL     1      10.003 -14.006   2.698  1.00  0.00    -0.355 N 
ATOM     33  HN  UNL     1       9.875 -13.639   3.641  1.00  0.00     0.162 HD
HETATM   34  N   UNL     1       8.004 -14.904   4.389  1.00  0.00    -0.351 N 
ATOM     35  HN  UNL     1       8.288 -14.804   5.363  1.00  0.00     0.163 HD
HETATM   36  O   UNL     1       5.835 -10.600   2.883  1.00  0.00    -0.273 OA
ENDROOT
BRANCH  18  37
HETATM   37  C   UNL     1       2.620  -8.467   1.722  1.00  0.00     0.035 C 
BRANCH  37  38
HETATM   38  C   UNL     1       2.458  -8.429   0.204  1.00  0.00     0.004 C 
BRANCH  38  39
HETATM   39  C   UNL     1       2.916  -7.138  -0.458  1.00  0.00     0.027 C 
BRANCH  39  40
HETATM   40  C   UNL     1       3.249  -6.049   0.540  1.00  0.00     0.229 C 
BRANCH  40  41
HETATM   41  N   UNL     1       4.564  -5.434   0.243  1.00  0.00    -0.079 N 
ATOM     42  HN3 UNL     1       5.301  -5.821   0.833  1.00  0.00     0.274 HD
ATOM     43  HN2 UNL     1       4.920  -5.731  -0.666  1.00  0.00     0.274 HD
ATOM     44  HN1 UNL     1       4.521  -4.417   0.315  1.00  0.00     0.274 HD
ENDBRANCH  40  41
ENDBRANCH  39  40
ENDBRANCH  38  39
ENDBRANCH  37  38
ENDBRANCH  18  37
BRANCH   2  45
HETATM   45  C   UNL     1       0.987 -13.306   0.031  1.00  0.00     0.035 C 
BRANCH  45  46
HETATM   46  C   UNL     1       1.158 -12.094  -0.876  1.00  0.00     0.002 C 
BRANCH  46  47
HETATM   47  C   UNL     1      -0.193 -11.443  -1.230  1.00  0.00    -0.004 C 
HETATM   48  C   UNL     1      -0.650 -10.418  -0.217  1.00  0.00     0.005 C 
ENDBRANCH  46  47
ENDBRANCH  45  46
ENDBRANCH   2  45
BRANCH   4  49
HETATM   49  N   UNL     1       7.129 -12.733   5.947  1.00  0.00    -0.352 N 
HETATM   50  C   UNL     1       8.294 -11.981   5.794  1.00  0.00     0.182 C 
HETATM   51  N   UNL     1       8.579 -11.550   4.514  1.00  0.00    -0.064 NA
HETATM   52  N   UNL     1       9.021 -11.730   6.826  1.00  0.00    -0.374 N 
ATOM     53  HN2 UNL     1       9.872 -11.180   6.715  1.00  0.00     0.158 HD
ATOM     54  HN1 UNL     1       8.810 -12.048   7.772  1.00  0.00     0.158 HD
ATOM     55  HN  UNL     1       6.845 -12.954   6.901  1.00  0.00     0.163 HD
ENDBRANCH   4  49
TORSDOF 9
ENDMDL
