MODEL 1
REMARK VINA RESULT:   -10.021      0.000      0.000
REMARK INTER + INTRA:         -12.518
REMARK INTER:                 -12.365
REMARK INTRA:                  -0.154
REMARK UNBOUND:                -0.154
REMARK  4 active torsions:
REMARK  status: ('A' for Active; 'I' for Inactive)
REMARK    1  A    between atoms: C_6  and  C_7 
REMARK    2  A    between atoms: C_9  and  C_10 
REMARK    3  A    between atoms: C_12  and  C_13 
REMARK       I    between atoms: C_13  and  N_21 
REMARK    4  A    between atoms: C_14  and  N_21 
ROOT
HETATM    1  C   UNL     1     129.241   1.261  36.390  1.00  0.00     0.017 A 
HETATM    2  C   UNL     1     129.263  -1.129  36.555  1.00  0.00    -0.051 A 
HETATM    3  C   UNL     1     127.893  -1.172  36.244  1.00  0.00    -0.015 A 
HETATM    4  C   UNL     1     127.204   0.025  36.033  1.00  0.00     0.030 A 
HETATM    5  C   UNL     1     127.856   1.278  36.110  1.00  0.00     0.032 A 
HETATM    6  C   UNL     1     129.955   0.066  36.607  1.00  0.00     0.009 A 
HETATM    7  C   UNL     1     129.984  -2.310  36.831  1.00  0.00     0.049 C 
ENDROOT
BRANCH   3   8
HETATM    8  C   UNL     1     127.172  -2.376  36.099  1.00  0.00     0.022 A 
HETATM    9  C   UNL     1     127.507  -3.422  35.283  1.00  0.00     0.050 A 
HETATM   10  C   UNL     1     126.595  -4.422  35.438  1.00  0.00     0.086 A 
HETATM   11  N   UNL     1     125.679  -3.949  36.355  1.00  0.00    -0.304 N 
HETATM   12  C   UNL     1     124.491  -4.531  36.843  1.00  0.00     0.100 A 
HETATM   13  C   UNL     1     126.039  -2.695  36.705  1.00  0.00     0.123 A 
HETATM   14  C   UNL     1     123.683  -3.906  37.769  1.00  0.00     0.035 A 
HETATM   15  C   UNL     1     124.156  -2.592  38.118  1.00  0.00     0.091 A 
HETATM   16  N   UNL     1     125.269  -2.051  37.617  1.00  0.00    -0.351 N 
ATOM     17  HN  UNL     1     125.548  -1.121  37.930  1.00  0.00     0.166 HD
BRANCH  10  18
HETATM   18  C   UNL     1     126.544  -5.676  34.806  1.00  0.00     0.172 C 
HETATM   19  O   UNL     1     125.462  -6.251  34.465  1.00  0.00    -0.291 OA
HETATM   20  C   UNL     1     127.872  -6.417  34.633  1.00  0.00     0.098 C 
ENDBRANCH  10  18
ENDBRANCH   3   8
BRANCH   5  21
HETATM   21  C   UNL     1     127.209   2.533  35.929  1.00  0.00     0.252 C 
HETATM   22  N   UNL     1     126.163   2.886  36.699  1.00  0.00    -0.352 N 
ATOM     23  HN  UNL     1     125.840   2.241  37.420  1.00  0.00     0.163 HD
HETATM   24  O   UNL     1     127.511   3.196  34.934  1.00  0.00    -0.268 OA
BRANCH  22  25
HETATM   25  C   UNL     1     125.465   4.185  36.532  1.00  0.00     0.084 A 
HETATM   26  C   UNL     1     125.737   5.171  37.520  1.00  0.00     0.027 A 
HETATM   27  C   UNL     1     124.423   4.613  37.470  1.00  0.00     0.027 A 
ENDBRANCH  22  25
ENDBRANCH   5  21
TORSDOF 4
ENDMDL
MODEL 2
REMARK VINA RESULT:    -9.246      2.949      5.276
REMARK INTER + INTRA:         -11.562
REMARK INTER:                 -11.300
REMARK INTRA:                  -0.262
REMARK UNBOUND:                -0.154
REMARK  4 active torsions:
REMARK  status: ('A' for Active; 'I' for Inactive)
REMARK    1  A    between atoms: C_6  and  C_7 
REMARK    2  A    between atoms: C_9  and  C_10 
REMARK    3  A    between atoms: C_12  and  C_13 
REMARK       I    between atoms: C_13  and  N_21 
REMARK    4  A    between atoms: C_14  and  N_21 
ROOT
HETATM    1  C   UNL     1     129.962   0.939  36.406  1.00  0.00     0.017 A 
HETATM    2  C   UNL     1     127.652   0.383  36.104  1.00  0.00    -0.051 A 
HETATM    3  C   UNL     1     127.918  -0.952  36.451  1.00  0.00    -0.015 A 
HETATM    4  C   UNL     1     129.230  -1.331  36.749  1.00  0.00     0.030 A 
HETATM    5  C   UNL     1     130.292  -0.398  36.725  1.00  0.00     0.032 A 
HETATM    6  C   UNL     1     128.648   1.341  36.100  1.00  0.00     0.009 A 
HETATM    7  C   UNL     1     126.352   0.796  35.740  1.00  0.00     0.049 C 
ENDROOT
BRANCH   3   8
HETATM    8  C   UNL     1     126.914  -1.939  36.547  1.00  0.00     0.022 A 
HETATM    9  C   UNL     1     125.763  -1.848  37.280  1.00  0.00     0.050 A 
HETATM   10  C   UNL     1     125.024  -2.978  37.098  1.00  0.00     0.086 A 
HETATM   11  N   UNL     1     125.767  -3.773  36.251  1.00  0.00    -0.304 N 
HETATM   12  C   UNL     1     125.523  -5.079  35.774  1.00  0.00     0.100 A 
HETATM   13  C   UNL     1     126.920  -3.130  35.967  1.00  0.00     0.123 A 
HETATM   14  C   UNL     1     126.388  -5.732  34.923  1.00  0.00     0.035 A 
HETATM   15  C   UNL     1     127.572  -4.964  34.640  1.00  0.00     0.091 A 
HETATM   16  N   UNL     1     127.794  -3.742  35.130  1.00  0.00    -0.351 N 
ATOM     17  HN  UNL     1     128.649  -3.254  34.866  1.00  0.00     0.166 HD
BRANCH  10  18
HETATM   18  C   UNL     1     123.777  -3.316  37.649  1.00  0.00     0.172 C 
HETATM   19  O   UNL     1     122.666  -2.908  37.184  1.00  0.00    -0.291 OA
HETATM   20  C   UNL     1     123.792  -4.130  38.945  1.00  0.00     0.098 C 
ENDBRANCH  10  18
ENDBRANCH   3   8
BRANCH   5  21
HETATM   21  C   UNL     1     131.652  -0.722  36.997  1.00  0.00     0.252 C 
HETATM   22  N   UNL     1     132.639   0.142  36.694  1.00  0.00    -0.352 N 
ATOM     23  HN  UNL     1     132.399   1.037  36.268  1.00  0.00     0.163 HD
HETATM   24  O   UNL     1     131.910  -1.878  37.338  1.00  0.00    -0.268 OA
BRANCH  22  25
HETATM   25  C   UNL     1     134.066  -0.168  36.961  1.00  0.00     0.084 A 
HETATM   26  C   UNL     1     135.017   0.677  36.326  1.00  0.00     0.027 A 
HETATM   27  C   UNL     1     134.940  -0.685  35.904  1.00  0.00     0.027 A 
ENDBRANCH  22  25
ENDBRANCH   5  21
TORSDOF 4
ENDMDL
MODEL 3
REMARK VINA RESULT:    -8.667      1.107      2.607
REMARK INTER + INTRA:         -10.848
REMARK INTER:                 -11.195
REMARK INTRA:                   0.347
REMARK UNBOUND:                -0.154
REMARK  4 active torsions:
REMARK  status: ('A' for Active; 'I' for Inactive)
REMARK    1  A    between atoms: C_6  and  C_7 
REMARK    2  A    between atoms: C_9  and  C_10 
REMARK    3  A    between atoms: C_12  and  C_13 
REMARK       I    between atoms: C_13  and  N_21 
REMARK    4  A    between atoms: C_14  and  N_21 
ROOT
HETATM    1  C   UNL     1     129.284   1.006  36.259  1.00  0.00     0.017 A 
HETATM    2  C   UNL     1     129.110  -1.363  36.570  1.00  0.00    -0.051 A 
HETATM    3  C   UNL     1     127.712  -1.285  36.455  1.00  0.00    -0.015 A 
HETATM    4  C   UNL     1     127.112  -0.037  36.267  1.00  0.00     0.030 A 
HETATM    5  C   UNL     1     127.880   1.147  36.174  1.00  0.00     0.032 A 
HETATM    6  C   UNL     1     129.909  -0.241  36.450  1.00  0.00     0.009 A 
HETATM    7  C   UNL     1     129.752  -2.595  36.817  1.00  0.00     0.049 C 
ENDROOT
BRANCH   3   8
HETATM    8  C   UNL     1     126.870  -2.417  36.488  1.00  0.00     0.022 A 
HETATM    9  C   UNL     1     125.728  -2.551  37.230  1.00  0.00     0.050 A 
HETATM   10  C   UNL     1     125.166  -3.764  36.974  1.00  0.00     0.086 A 
HETATM   11  N   UNL     1     126.010  -4.380  36.072  1.00  0.00    -0.304 N 
HETATM   12  C   UNL     1     125.960  -5.673  35.508  1.00  0.00     0.100 A 
HETATM   13  C   UNL     1     127.048  -3.551  35.829  1.00  0.00     0.123 A 
HETATM   14  C   UNL     1     126.902  -6.129  34.613  1.00  0.00     0.035 A 
HETATM   15  C   UNL     1     127.952  -5.173  34.379  1.00  0.00     0.091 A 
HETATM   16  N   UNL     1     127.993  -3.967  34.949  1.00  0.00    -0.351 N 
ATOM     17  HN  UNL     1     128.761  -3.338  34.716  1.00  0.00     0.166 HD
BRANCH  10  18
HETATM   18  C   UNL     1     123.992  -4.324  37.505  1.00  0.00     0.172 C 
HETATM   19  O   UNL     1     123.079  -4.854  36.796  1.00  0.00    -0.291 OA
HETATM   20  C   UNL     1     123.777  -4.175  39.013  1.00  0.00     0.098 C 
ENDBRANCH  10  18
ENDBRANCH   3   8
BRANCH   5  21
HETATM   21  C   UNL     1     127.331   2.450  36.005  1.00  0.00     0.252 C 
HETATM   22  N   UNL     1     126.189   2.801  36.626  1.00  0.00    -0.352 N 
ATOM     23  HN  UNL     1     125.721   2.120  37.223  1.00  0.00     0.163 HD
HETATM   24  O   UNL     1     127.825   3.173  35.137  1.00  0.00    -0.268 OA
BRANCH  22  25
HETATM   25  C   UNL     1     125.590   4.150  36.466  1.00  0.00     0.084 A 
HETATM   26  C   UNL     1     125.839   5.071  37.521  1.00  0.00     0.027 A 
HETATM   27  C   UNL     1     124.501   4.604  37.337  1.00  0.00     0.027 A 
ENDBRANCH  22  25
ENDBRANCH   5  21
TORSDOF 4
ENDMDL
MODEL 4
REMARK VINA RESULT:    -8.658      5.501      8.322
REMARK INTER + INTRA:         -10.836
REMARK INTER:                 -10.066
REMARK INTRA:                  -0.769
REMARK UNBOUND:                -0.154
REMARK  4 active torsions:
REMARK  status: ('A' for Active; 'I' for Inactive)
REMARK    1  A    between atoms: C_6  and  C_7 
REMARK    2  A    between atoms: C_9  and  C_10 
REMARK    3  A    between atoms: C_12  and  C_13 
REMARK       I    between atoms: C_13  and  N_21 
REMARK    4  A    between atoms: C_14  and  N_21 
ROOT
HETATM    1  C   UNL     1     129.825  -1.530  36.727  1.00  0.00     0.017 A 
HETATM    2  C   UNL     1     132.037  -2.440  36.613  1.00  0.00    -0.051 A 
HETATM    3  C   UNL     1     132.584  -1.152  36.735  1.00  0.00    -0.015 A 
HETATM    4  C   UNL     1     131.726  -0.053  36.828  1.00  0.00     0.030 A 
HETATM    5  C   UNL     1     130.320  -0.209  36.815  1.00  0.00     0.032 A 
HETATM    6  C   UNL     1     130.672  -2.651  36.632  1.00  0.00     0.009 A 
HETATM    7  C   UNL     1     132.867  -3.571  36.460  1.00  0.00     0.049 C 
ENDROOT
BRANCH   3   8
HETATM    8  C   UNL     1     133.972  -0.905  36.804  1.00  0.00     0.022 A 
HETATM    9  C   UNL     1     134.700  -0.709  37.946  1.00  0.00     0.050 A 
HETATM   10  C   UNL     1     136.010  -0.538  37.619  1.00  0.00     0.086 A 
HETATM   11  N   UNL     1     136.061  -0.612  36.243  1.00  0.00    -0.304 N 
HETATM   12  C   UNL     1     137.147  -0.443  35.357  1.00  0.00     0.100 A 
HETATM   13  C   UNL     1     134.805  -0.798  35.781  1.00  0.00     0.123 A 
HETATM   14  C   UNL     1     137.014  -0.551  33.990  1.00  0.00     0.035 A 
HETATM   15  C   UNL     1     135.654  -0.787  33.583  1.00  0.00     0.091 A 
HETATM   16  N   UNL     1     134.638  -0.912  34.440  1.00  0.00    -0.351 N 
ATOM     17  HN  UNL     1     133.705  -1.099  34.074  1.00  0.00     0.166 HD
BRANCH  10  18
HETATM   18  C   UNL     1     137.109  -0.312  38.465  1.00  0.00     0.172 C 
HETATM   19  O   UNL     1     137.373   0.815  38.993  1.00  0.00    -0.291 OA
HETATM   20  C   UNL     1     138.086  -1.474  38.654  1.00  0.00     0.098 C 
ENDBRANCH  10  18
ENDBRANCH   3   8
BRANCH   5  21
HETATM   21  C   UNL     1     129.391   0.868  36.883  1.00  0.00     0.252 C 
HETATM   22  N   UNL     1     128.282   0.869  36.120  1.00  0.00    -0.352 N 
ATOM     23  HN  UNL     1     128.114   0.084  35.492  1.00  0.00     0.163 HD
HETATM   24  O   UNL     1     129.724   1.874  37.513  1.00  0.00    -0.268 OA
BRANCH  22  25
HETATM   25  C   UNL     1     127.297   1.979  36.165  1.00  0.00     0.084 A 
HETATM   26  C   UNL     1     126.216   1.891  35.247  1.00  0.00     0.027 A 
HETATM   27  C   UNL     1     127.177   2.931  35.057  1.00  0.00     0.027 A 
ENDBRANCH  22  25
ENDBRANCH   5  21
TORSDOF 4
ENDMDL
MODEL 5
REMARK VINA RESULT:    -8.297      2.746      4.648
REMARK INTER + INTRA:         -10.391
REMARK INTER:                 -10.419
REMARK INTRA:                   0.028
REMARK UNBOUND:                -0.154
REMARK  4 active torsions:
REMARK  status: ('A' for Active; 'I' for Inactive)
REMARK    1  A    between atoms: C_6  and  C_7 
REMARK    2  A    between atoms: C_9  and  C_10 
REMARK    3  A    between atoms: C_12  and  C_13 
REMARK       I    between atoms: C_13  and  N_21 
REMARK    4  A    between atoms: C_14  and  N_21 
ROOT
HETATM    1  C   UNL     1     129.908   0.758  36.502  1.00  0.00     0.017 A 
HETATM    2  C   UNL     1     127.671   0.043  36.027  1.00  0.00    -0.051 A 
HETATM    3  C   UNL     1     128.049  -1.297  36.217  1.00  0.00    -0.015 A 
HETATM    4  C   UNL     1     129.380  -1.592  36.526  1.00  0.00     0.030 A 
HETATM    5  C   UNL     1     130.351  -0.574  36.667  1.00  0.00     0.032 A 
HETATM    6  C   UNL     1     128.572   1.078  36.189  1.00  0.00     0.009 A 
HETATM    7  C   UNL     1     126.351   0.382  35.659  1.00  0.00     0.049 C 
ENDROOT
BRANCH   3   8
HETATM    8  C   UNL     1     127.140  -2.373  36.144  1.00  0.00     0.022 A 
HETATM    9  C   UNL     1     127.188  -3.409  35.250  1.00  0.00     0.050 A 
HETATM   10  C   UNL     1     126.168  -4.272  35.509  1.00  0.00     0.086 A 
HETATM   11  N   UNL     1     125.480  -3.724  36.572  1.00  0.00    -0.304 N 
HETATM   12  C   UNL     1     124.302  -4.155  37.219  1.00  0.00     0.100 A 
HETATM   13  C   UNL     1     126.074  -2.558  36.906  1.00  0.00     0.123 A 
HETATM   14  C   UNL     1     123.744  -3.473  38.278  1.00  0.00     0.035 A 
HETATM   15  C   UNL     1     124.458  -2.264  38.595  1.00  0.00     0.091 A 
HETATM   16  N   UNL     1     125.554  -1.862  37.947  1.00  0.00    -0.351 N 
ATOM     17  HN  UNL     1     126.014  -1.002  38.245  1.00  0.00     0.166 HD
BRANCH  10  18
HETATM   18  C   UNL     1     125.834  -5.468  34.851  1.00  0.00     0.172 C 
HETATM   19  O   UNL     1     126.689  -6.331  34.478  1.00  0.00    -0.291 OA
HETATM   20  C   UNL     1     124.363  -5.662  34.477  1.00  0.00     0.098 C 
ENDBRANCH  10  18
ENDBRANCH   3   8
BRANCH   5  21
HETATM   21  C   UNL     1     131.724  -0.807  36.958  1.00  0.00     0.252 C 
HETATM   22  N   UNL     1     132.658   0.114  36.656  1.00  0.00    -0.352 N 
ATOM     23  HN  UNL     1     132.368   0.987  36.217  1.00  0.00     0.163 HD
HETATM   24  O   UNL     1     132.051  -1.941  37.316  1.00  0.00    -0.268 OA
BRANCH  22  25
HETATM   25  C   UNL     1     134.099  -0.102  36.944  1.00  0.00     0.084 A 
HETATM   26  C   UNL     1     134.999   0.818  36.341  1.00  0.00     0.027 A 
HETATM   27  C   UNL     1     135.024  -0.538  35.893  1.00  0.00     0.027 A 
ENDBRANCH  22  25
ENDBRANCH   5  21
TORSDOF 4
ENDMDL
MODEL 6
REMARK VINA RESULT:    -8.035      3.569      7.184
REMARK INTER + INTRA:         -10.067
REMARK INTER:                 -10.765
REMARK INTRA:                   0.698
REMARK UNBOUND:                -0.154
REMARK  4 active torsions:
REMARK  status: ('A' for Active; 'I' for Inactive)
REMARK    1  A    between atoms: C_6  and  C_7 
REMARK    2  A    between atoms: C_9  and  C_10 
REMARK    3  A    between atoms: C_12  and  C_13 
REMARK       I    between atoms: C_13  and  N_21 
REMARK    4  A    between atoms: C_14  and  N_21 
ROOT
HETATM    1  C   UNL     1     127.109  -0.473  36.460  1.00  0.00     0.017 A 
HETATM    2  C   UNL     1     129.291   0.416  36.890  1.00  0.00    -0.051 A 
HETATM    3  C   UNL     1     129.860  -0.852  36.681  1.00  0.00    -0.015 A 
HETATM    4  C   UNL     1     129.025  -1.933  36.385  1.00  0.00     0.030 A 
HETATM    5  C   UNL     1     127.623  -1.777  36.276  1.00  0.00     0.032 A 
HETATM    6  C   UNL     1     127.932   0.629  36.761  1.00  0.00     0.009 A 
HETATM    7  C   UNL     1     130.092   1.522  37.247  1.00  0.00     0.049 C 
ENDROOT
BRANCH   3   8
HETATM    8  C   UNL     1     131.250  -1.091  36.723  1.00  0.00     0.022 A 
HETATM    9  C   UNL     1     132.220  -0.162  36.982  1.00  0.00     0.050 A 
HETATM   10  C   UNL     1     133.438  -0.770  36.973  1.00  0.00     0.086 A 
HETATM   11  N   UNL     1     133.188  -2.094  36.677  1.00  0.00    -0.304 N 
HETATM   12  C   UNL     1     134.079  -3.170  36.475  1.00  0.00     0.100 A 
HETATM   13  C   UNL     1     131.858  -2.245  36.495  1.00  0.00     0.123 A 
HETATM   14  C   UNL     1     133.649  -4.445  36.179  1.00  0.00     0.035 A 
HETATM   15  C   UNL     1     132.219  -4.528  36.041  1.00  0.00     0.091 A 
HETATM   16  N   UNL     1     131.399  -3.488  36.206  1.00  0.00    -0.351 N 
ATOM     17  HN  UNL     1     130.394  -3.633  36.112  1.00  0.00     0.166 HD
BRANCH  10  18
HETATM   18  C   UNL     1     134.707  -0.209  37.192  1.00  0.00     0.172 C 
HETATM   19  O   UNL     1     135.281  -0.182  38.326  1.00  0.00    -0.291 OA
HETATM   20  C   UNL     1     135.363   0.500  36.004  1.00  0.00     0.098 C 
ENDBRANCH  10  18
ENDBRANCH   3   8
BRANCH   5  21
HETATM   21  C   UNL     1     126.716  -2.838  36.000  1.00  0.00     0.252 C 
HETATM   22  N   UNL     1     125.547  -2.934  36.660  1.00  0.00    -0.352 N 
ATOM     23  HN  UNL     1     125.317  -2.232  37.363  1.00  0.00     0.163 HD
HETATM   24  O   UNL     1     127.111  -3.760  35.283  1.00  0.00    -0.268 OA
BRANCH  22  25
HETATM   25  C   UNL     1     124.582  -4.031  36.397  1.00  0.00     0.084 A 
HETATM   26  C   UNL     1     123.348  -3.957  37.099  1.00  0.00     0.027 A 
HETATM   27  C   UNL     1     124.249  -5.013  37.434  1.00  0.00     0.027 A 
ENDBRANCH  22  25
ENDBRANCH   5  21
TORSDOF 4
ENDMDL
MODEL 7
REMARK VINA RESULT:    -7.989      1.830      2.839
REMARK INTER + INTRA:         -10.011
REMARK INTER:                  -9.849
REMARK INTRA:                  -0.162
REMARK UNBOUND:                -0.154
REMARK  4 active torsions:
REMARK  status: ('A' for Active; 'I' for Inactive)
REMARK    1  A    between atoms: C_6  and  C_7 
REMARK    2  A    between atoms: C_9  and  C_10 
REMARK    3  A    between atoms: C_12  and  C_13 
REMARK       I    between atoms: C_13  and  N_21 
REMARK    4  A    between atoms: C_14  and  N_21 
ROOT
HETATM    1  C   UNL     1     130.390  -2.054  36.740  1.00  0.00     0.017 A 
HETATM    2  C   UNL     1     129.675  -4.314  36.396  1.00  0.00    -0.051 A 
HETATM    3  C   UNL     1     128.395  -3.864  36.032  1.00  0.00    -0.015 A 
HETATM    4  C   UNL     1     128.122  -2.493  36.053  1.00  0.00     0.030 A 
HETATM    5  C   UNL     1     129.109  -1.548  36.418  1.00  0.00     0.032 A 
HETATM    6  C   UNL     1     130.685  -3.430  36.726  1.00  0.00     0.009 A 
HETATM    7  C   UNL     1     129.976  -5.692  36.443  1.00  0.00     0.049 C 
ENDROOT
BRANCH   3   8
HETATM    8  C   UNL     1     127.364  -4.729  35.608  1.00  0.00     0.022 A 
HETATM    9  C   UNL     1     127.483  -5.733  34.686  1.00  0.00     0.050 A 
HETATM   10  C   UNL     1     126.289  -6.375  34.564  1.00  0.00     0.086 A 
HETATM   11  N   UNL     1     125.428  -5.719  35.420  1.00  0.00    -0.304 N 
HETATM   12  C   UNL     1     124.050  -5.912  35.656  1.00  0.00     0.100 A 
HETATM   13  C   UNL     1     126.102  -4.707  36.007  1.00  0.00     0.123 A 
HETATM   14  C   UNL     1     123.337  -5.153  36.558  1.00  0.00     0.035 A 
HETATM   15  C   UNL     1     124.136  -4.123  37.167  1.00  0.00     0.091 A 
HETATM   16  N   UNL     1     125.432  -3.941  36.903  1.00  0.00    -0.351 N 
ATOM     17  HN  UNL     1     125.935  -3.200  37.392  1.00  0.00     0.166 HD
BRANCH  10  18
HETATM   18  C   UNL     1     125.950  -7.462  33.742  1.00  0.00     0.172 C 
HETATM   19  O   UNL     1     125.053  -7.414  32.841  1.00  0.00    -0.291 OA
HETATM   20  C   UNL     1     126.636  -8.796  34.043  1.00  0.00     0.098 C 
ENDBRANCH  10  18
ENDBRANCH   3   8
BRANCH   5  21
HETATM   21  C   UNL     1     128.892  -0.143  36.482  1.00  0.00     0.252 C 
HETATM   22  N   UNL     1     127.745   0.397  36.028  1.00  0.00    -0.352 N 
ATOM     23  HN  UNL     1     127.030  -0.216  35.638  1.00  0.00     0.163 HD
HETATM   24  O   UNL     1     129.848   0.573  36.787  1.00  0.00    -0.268 OA
BRANCH  22  25
HETATM   25  C   UNL     1     127.490   1.859  36.077  1.00  0.00     0.084 A 
HETATM   26  C   UNL     1     126.156   2.268  35.806  1.00  0.00     0.027 A 
HETATM   27  C   UNL     1     127.170   2.614  34.862  1.00  0.00     0.027 A 
ENDBRANCH  22  25
ENDBRANCH   5  21
TORSDOF 4
ENDMDL
MODEL 8
REMARK VINA RESULT:    -7.894      2.465      4.245
REMARK INTER + INTRA:          -9.893
REMARK INTER:                  -9.489
REMARK INTRA:                  -0.404
REMARK UNBOUND:                -0.154
REMARK  4 active torsions:
REMARK  status: ('A' for Active; 'I' for Inactive)
REMARK    1  A    between atoms: C_6  and  C_7 
REMARK    2  A    between atoms: C_9  and  C_10 
REMARK    3  A    between atoms: C_12  and  C_13 
REMARK       I    between atoms: C_13  and  N_21 
REMARK    4  A    between atoms: C_14  and  N_21 
ROOT
HETATM    1  C   UNL     1     130.496  -2.200  36.774  1.00  0.00     0.017 A 
HETATM    2  C   UNL     1     129.951  -4.505  36.419  1.00  0.00    -0.051 A 
HETATM    3  C   UNL     1     128.666  -4.143  35.979  1.00  0.00    -0.015 A 
HETATM    4  C   UNL     1     128.304  -2.793  35.969  1.00  0.00     0.030 A 
HETATM    5  C   UNL     1     129.206  -1.782  36.377  1.00  0.00     0.032 A 
HETATM    6  C   UNL     1     130.881  -3.554  36.793  1.00  0.00     0.009 A 
HETATM    7  C   UNL     1     130.337  -5.860  36.498  1.00  0.00     0.049 C 
ENDROOT
BRANCH   3   8
HETATM    8  C   UNL     1     127.718  -5.077  35.510  1.00  0.00     0.022 A 
HETATM    9  C   UNL     1     126.486  -5.317  36.054  1.00  0.00     0.050 A 
HETATM   10  C   UNL     1     125.842  -6.258  35.309  1.00  0.00     0.086 A 
HETATM   11  N   UNL     1     126.725  -6.605  34.308  1.00  0.00    -0.304 N 
HETATM   12  C   UNL     1     126.617  -7.575  33.288  1.00  0.00     0.100 A 
HETATM   13  C   UNL     1     127.863  -5.898  34.482  1.00  0.00     0.123 A 
HETATM   14  C   UNL     1     127.612  -7.791  32.361  1.00  0.00     0.035 A 
HETATM   15  C   UNL     1     128.773  -6.973  32.593  1.00  0.00     0.091 A 
HETATM   16  N   UNL     1     128.863  -6.084  33.584  1.00  0.00    -0.351 N 
ATOM     17  HN  UNL     1     129.713  -5.526  33.670  1.00  0.00     0.166 HD
BRANCH  10  18
HETATM   18  C   UNL     1     124.562  -6.806  35.494  1.00  0.00     0.172 C 
HETATM   19  O   UNL     1     124.322  -7.803  36.247  1.00  0.00    -0.291 OA
HETATM   20  C   UNL     1     123.432  -6.222  34.643  1.00  0.00     0.098 C 
ENDBRANCH  10  18
ENDBRANCH   3   8
BRANCH   5  21
HETATM   21  C   UNL     1     128.894  -0.394  36.412  1.00  0.00     0.252 C 
HETATM   22  N   UNL     1     127.721   0.061  35.931  1.00  0.00    -0.352 N 
ATOM     23  HN  UNL     1     127.055  -0.606  35.542  1.00  0.00     0.163 HD
HETATM   24  O   UNL     1     129.795   0.390  36.718  1.00  0.00    -0.268 OA
BRANCH  22  25
HETATM   25  C   UNL     1     127.369   1.503  35.950  1.00  0.00     0.084 A 
HETATM   26  C   UNL     1     126.025   1.820  35.613  1.00  0.00     0.027 A 
HETATM   27  C   UNL     1     127.058   2.223  34.712  1.00  0.00     0.027 A 
ENDBRANCH  22  25
ENDBRANCH   5  21
TORSDOF 4
ENDMDL
MODEL 9
REMARK VINA RESULT:    -7.864      2.417      4.647
REMARK INTER + INTRA:          -9.856
REMARK INTER:                  -9.037
REMARK INTRA:                  -0.819
REMARK UNBOUND:                -0.154
REMARK  4 active torsions:
REMARK  status: ('A' for Active; 'I' for Inactive)
REMARK    1  A    between atoms: C_6  and  C_7 
REMARK    2  A    between atoms: C_9  and  C_10 
REMARK    3  A    between atoms: C_12  and  C_13 
REMARK       I    between atoms: C_13  and  N_21 
REMARK    4  A    between atoms: C_14  and  N_21 
ROOT
HETATM    1  C   UNL     1     125.458  -1.926  37.851  1.00  0.00     0.017 A 
HETATM    2  C   UNL     1     124.436  -4.074  37.570  1.00  0.00    -0.051 A 
HETATM    3  C   UNL     1     125.261  -4.332  36.461  1.00  0.00    -0.015 A 
HETATM    4  C   UNL     1     126.168  -3.354  36.044  1.00  0.00     0.030 A 
HETATM    5  C   UNL     1     126.286  -2.117  36.721  1.00  0.00     0.032 A 
HETATM    6  C   UNL     1     124.537  -2.897  38.287  1.00  0.00     0.009 A 
HETATM    7  C   UNL     1     123.468  -5.011  37.990  1.00  0.00     0.049 C 
ENDROOT
BRANCH   3   8
HETATM    8  C   UNL     1     125.246  -5.554  35.755  1.00  0.00     0.022 A 
HETATM    9  C   UNL     1     124.391  -5.887  34.740  1.00  0.00     0.050 A 
HETATM   10  C   UNL     1     124.703  -7.131  34.282  1.00  0.00     0.086 A 
HETATM   11  N   UNL     1     125.758  -7.559  35.061  1.00  0.00    -0.304 N 
HETATM   12  C   UNL     1     126.443  -8.792  35.074  1.00  0.00     0.100 A 
HETATM   13  C   UNL     1     126.036  -6.595  35.965  1.00  0.00     0.123 A 
HETATM   14  C   UNL     1     127.487  -9.052  35.935  1.00  0.00     0.035 A 
HETATM   15  C   UNL     1     127.744  -7.962  36.839  1.00  0.00     0.091 A 
HETATM   16  N   UNL     1     127.060  -6.816  36.826  1.00  0.00    -0.351 N 
ATOM     17  HN  UNL     1     127.317  -6.082  37.487  1.00  0.00     0.166 HD
BRANCH  10  18
HETATM   18  C   UNL     1     124.097  -7.870  33.252  1.00  0.00     0.172 C 
HETATM   19  O   UNL     1     123.034  -8.552  33.405  1.00  0.00    -0.291 OA
HETATM   20  C   UNL     1     124.838  -7.929  31.915  1.00  0.00     0.098 C 
ENDBRANCH  10  18
ENDBRANCH   3   8
BRANCH   5  21
HETATM   21  C   UNL     1     127.172  -1.072  36.336  1.00  0.00     0.252 C 
HETATM   22  N   UNL     1     126.702   0.157  36.049  1.00  0.00    -0.352 N 
ATOM     23  HN  UNL     1     125.700   0.331  36.114  1.00  0.00     0.163 HD
HETATM   24  O   UNL     1     128.342  -1.371  36.093  1.00  0.00    -0.268 OA
BRANCH  22  25
HETATM   25  C   UNL     1     127.600   1.267  35.640  1.00  0.00     0.084 A 
HETATM   26  C   UNL     1     127.382   2.514  36.285  1.00  0.00     0.027 A 
HETATM   27  C   UNL     1     127.089   2.418  34.891  1.00  0.00     0.027 A 
ENDBRANCH  22  25
ENDBRANCH   5  21
TORSDOF 4
ENDMDL
MODEL 10
REMARK VINA RESULT:    -7.788      3.159      4.824
REMARK INTER + INTRA:          -9.763
REMARK INTER:                  -8.930
REMARK INTRA:                  -0.833
REMARK UNBOUND:                -0.154
REMARK  4 active torsions:
REMARK  status: ('A' for Active; 'I' for Inactive)
REMARK    1  A    between atoms: C_6  and  C_7 
REMARK    2  A    between atoms: C_9  and  C_10 
REMARK    3  A    between atoms: C_12  and  C_13 
REMARK       I    between atoms: C_13  and  N_21 
REMARK    4  A    between atoms: C_14  and  N_21 
ROOT
HETATM    1  C   UNL     1     127.724  -3.447  35.611  1.00  0.00     0.017 A 
HETATM    2  C   UNL     1     126.755  -5.609  35.255  1.00  0.00    -0.051 A 
HETATM    3  C   UNL     1     125.490  -5.111  35.612  1.00  0.00    -0.015 A 
HETATM    4  C   UNL     1     125.367  -3.772  35.994  1.00  0.00     0.030 A 
HETATM    5  C   UNL     1     126.483  -2.904  36.015  1.00  0.00     0.032 A 
HETATM    6  C   UNL     1     127.870  -4.793  35.224  1.00  0.00     0.009 A 
HETATM    7  C   UNL     1     126.933  -6.968  34.918  1.00  0.00     0.049 C 
ENDROOT
BRANCH   3   8
HETATM    8  C   UNL     1     124.315  -5.891  35.574  1.00  0.00     0.022 A 
HETATM    9  C   UNL     1     123.580  -6.188  34.459  1.00  0.00     0.050 A 
HETATM   10  C   UNL     1     122.538  -6.992  34.808  1.00  0.00     0.086 A 
HETATM   11  N   UNL     1     122.642  -7.160  36.173  1.00  0.00    -0.304 N 
HETATM   12  C   UNL     1     121.800  -7.842  37.077  1.00  0.00     0.100 A 
HETATM   13  C   UNL     1     123.706  -6.451  36.608  1.00  0.00     0.123 A 
HETATM   14  C   UNL     1     122.060  -7.907  38.429  1.00  0.00     0.035 A 
HETATM   15  C   UNL     1     123.230  -7.158  38.804  1.00  0.00     0.091 A 
HETATM   16  N   UNL     1     123.993  -6.495  37.933  1.00  0.00    -0.351 N 
ATOM     17  HN  UNL     1     124.819  -6.004  38.276  1.00  0.00     0.166 HD
BRANCH  10  18
HETATM   18  C   UNL     1     121.534  -7.541  33.992  1.00  0.00     0.172 C 
HETATM   19  O   UNL     1     120.408  -6.986  33.789  1.00  0.00    -0.291 OA
HETATM   20  C   UNL     1     121.795  -8.936  33.421  1.00  0.00     0.098 C 
ENDBRANCH  10  18
ENDBRANCH   3   8
BRANCH   5  21
HETATM   21  C   UNL     1     126.431  -1.538  36.414  1.00  0.00     0.252 C 
HETATM   22  N   UNL     1     126.915  -0.569  35.615  1.00  0.00    -0.352 N 
ATOM     23  HN  UNL     1     127.320  -0.826  34.715  1.00  0.00     0.163 HD
HETATM   24  O   UNL     1     126.106  -1.292  37.577  1.00  0.00    -0.268 OA
BRANCH  22  25
HETATM   25  C   UNL     1     126.879   0.863  36.005  1.00  0.00     0.084 A 
HETATM   26  C   UNL     1     126.756   1.796  34.939  1.00  0.00     0.027 A 
HETATM   27  C   UNL     1     127.983   1.768  35.671  1.00  0.00     0.027 A 
ENDBRANCH  22  25
ENDBRANCH   5  21
TORSDOF 4
ENDMDL
MODEL 11
REMARK VINA RESULT:    -7.596      5.515      8.176
REMARK INTER + INTRA:          -9.527
REMARK INTER:                  -9.378
REMARK INTRA:                  -0.149
REMARK UNBOUND:                -0.154
REMARK  4 active torsions:
REMARK  status: ('A' for Active; 'I' for Inactive)
REMARK    1  A    between atoms: C_6  and  C_7 
REMARK    2  A    between atoms: C_9  and  C_10 
REMARK    3  A    between atoms: C_12  and  C_13 
REMARK       I    between atoms: C_13  and  N_21 
REMARK    4  A    between atoms: C_14  and  N_21 
ROOT
HETATM    1  C   UNL     1     129.952  -1.679  36.876  1.00  0.00     0.017 A 
HETATM    2  C   UNL     1     132.070  -2.676  36.368  1.00  0.00    -0.051 A 
HETATM    3  C   UNL     1     132.669  -1.406  36.326  1.00  0.00    -0.015 A 
HETATM    4  C   UNL     1     131.879  -0.272  36.538  1.00  0.00     0.030 A 
HETATM    5  C   UNL     1     130.495  -0.376  36.809  1.00  0.00     0.032 A 
HETATM    6  C   UNL     1     130.730  -2.834  36.664  1.00  0.00     0.009 A 
HETATM    7  C   UNL     1     132.819  -3.843  36.103  1.00  0.00     0.049 C 
ENDROOT
BRANCH   3   8
HETATM    8  C   UNL     1     134.050  -1.210  36.110  1.00  0.00     0.022 A 
HETATM    9  C   UNL     1     134.610  -0.435  35.131  1.00  0.00     0.050 A 
HETATM   10  C   UNL     1     135.965  -0.460  35.260  1.00  0.00     0.086 A 
HETATM   11  N   UNL     1     136.220  -1.291  36.331  1.00  0.00    -0.304 N 
HETATM   12  C   UNL     1     137.445  -1.732  36.876  1.00  0.00     0.100 A 
HETATM   13  C   UNL     1     135.040  -1.755  36.798  1.00  0.00     0.123 A 
HETATM   14  C   UNL     1     137.513  -2.576  37.963  1.00  0.00     0.035 A 
HETATM   15  C   UNL     1     136.215  -2.993  38.422  1.00  0.00     0.091 A 
HETATM   16  N   UNL     1     135.070  -2.586  37.870  1.00  0.00    -0.351 N 
ATOM     17  HN  UNL     1     134.189  -2.911  38.267  1.00  0.00     0.166 HD
BRANCH  10  18
HETATM   18  C   UNL     1     136.939   0.187  34.480  1.00  0.00     0.172 C 
HETATM   19  O   UNL     1     137.509  -0.347  33.476  1.00  0.00    -0.291 OA
HETATM   20  C   UNL     1     137.398   1.567  34.956  1.00  0.00     0.098 C 
ENDBRANCH  10  18
ENDBRANCH   3   8
BRANCH   5  21
HETATM   21  C   UNL     1     129.631   0.737  37.013  1.00  0.00     0.252 C 
HETATM   22  N   UNL     1     128.567   0.938  36.212  1.00  0.00    -0.352 N 
ATOM     23  HN  UNL     1     128.386   0.278  35.456  1.00  0.00     0.163 HD
HETATM   24  O   UNL     1     129.988   1.603  37.813  1.00  0.00    -0.268 OA
BRANCH  22  25
HETATM   25  C   UNL     1     127.650   2.091  36.396  1.00  0.00     0.084 A 
HETATM   26  C   UNL     1     126.379   1.982  35.769  1.00  0.00     0.027 A 
HETATM   27  C   UNL     1     127.292   2.961  35.272  1.00  0.00     0.027 A 
ENDBRANCH  22  25
ENDBRANCH   5  21
TORSDOF 4
ENDMDL
MODEL 12
REMARK VINA RESULT:    -7.555      2.435      4.248
REMARK INTER + INTRA:          -9.476
REMARK INTER:                  -9.418
REMARK INTRA:                  -0.058
REMARK UNBOUND:                -0.154
REMARK  4 active torsions:
REMARK  status: ('A' for Active; 'I' for Inactive)
REMARK    1  A    between atoms: C_6  and  C_7 
REMARK    2  A    between atoms: C_9  and  C_10 
REMARK    3  A    between atoms: C_12  and  C_13 
REMARK       I    between atoms: C_13  and  N_21 
REMARK    4  A    between atoms: C_14  and  N_21 
ROOT
HETATM    1  C   UNL     1     125.621  -1.833  37.881  1.00  0.00     0.017 A 
HETATM    2  C   UNL     1     124.687  -4.025  37.636  1.00  0.00    -0.051 A 
HETATM    3  C   UNL     1     125.396  -4.204  36.436  1.00  0.00    -0.015 A 
HETATM    4  C   UNL     1     126.200  -3.165  35.959  1.00  0.00     0.030 A 
HETATM    5  C   UNL     1     126.328  -1.945  36.662  1.00  0.00     0.032 A 
HETATM    6  C   UNL     1     124.805  -2.866  38.380  1.00  0.00     0.009 A 
HETATM    7  C   UNL     1     123.820  -5.026  38.125  1.00  0.00     0.049 C 
ENDROOT
BRANCH   3   8
HETATM    8  C   UNL     1     125.367  -5.403  35.694  1.00  0.00     0.022 A 
HETATM    9  C   UNL     1     126.453  -6.148  35.323  1.00  0.00     0.050 A 
HETATM   10  C   UNL     1     126.031  -7.254  34.650  1.00  0.00     0.086 A 
HETATM   11  N   UNL     1     124.656  -7.153  34.599  1.00  0.00    -0.304 N 
HETATM   12  C   UNL     1     123.702  -7.981  33.971  1.00  0.00     0.100 A 
HETATM   13  C   UNL     1     124.292  -6.003  35.207  1.00  0.00     0.123 A 
HETATM   14  C   UNL     1     122.349  -7.724  34.020  1.00  0.00     0.035 A 
HETATM   15  C   UNL     1     122.042  -6.503  34.718  1.00  0.00     0.091 A 
HETATM   16  N   UNL     1     122.968  -5.720  35.277  1.00  0.00    -0.351 N 
ATOM     17  HN  UNL     1     122.668  -4.881  35.773  1.00  0.00     0.166 HD
BRANCH  10  18
HETATM   18  C   UNL     1     126.794  -8.292  34.091  1.00  0.00     0.172 C 
HETATM   19  O   UNL     1     126.955  -9.426  34.644  1.00  0.00    -0.291 OA
HETATM   20  C   UNL     1     127.551  -7.975  32.800  1.00  0.00     0.098 C 
ENDBRANCH  10  18
ENDBRANCH   3   8
BRANCH   5  21
HETATM   21  C   UNL     1     127.111  -0.841  36.220  1.00  0.00     0.252 C 
HETATM   22  N   UNL     1     126.525   0.310  35.839  1.00  0.00    -0.352 N 
ATOM     23  HN  UNL     1     125.508   0.382  35.873  1.00  0.00     0.163 HD
HETATM   24  O   UNL     1     128.312  -1.032  36.020  1.00  0.00    -0.268 OA
BRANCH  22  25
HETATM   25  C   UNL     1     127.313   1.477  35.370  1.00  0.00     0.084 A 
HETATM   26  C   UNL     1     127.911   2.273  36.384  1.00  0.00     0.027 A 
HETATM   27  C   UNL     1     126.856   2.848  35.613  1.00  0.00     0.027 A 
ENDBRANCH  22  25
ENDBRANCH   5  21
TORSDOF 4
ENDMDL
MODEL 13
REMARK VINA RESULT:    -7.535      7.741     11.157
REMARK INTER + INTRA:          -9.450
REMARK INTER:                  -8.685
REMARK INTRA:                  -0.765
REMARK UNBOUND:                -0.154
REMARK  4 active torsions:
REMARK  status: ('A' for Active; 'I' for Inactive)
REMARK    1  A    between atoms: C_6  and  C_7 
REMARK    2  A    between atoms: C_9  and  C_10 
REMARK    3  A    between atoms: C_12  and  C_13 
REMARK       I    between atoms: C_13  and  N_21 
REMARK    4  A    between atoms: C_14  and  N_21 
ROOT
HETATM    1  C   UNL     1     134.156  -0.886  35.125  1.00  0.00     0.017 A 
HETATM    2  C   UNL     1     136.312   0.101  35.465  1.00  0.00    -0.051 A 
HETATM    3  C   UNL     1     135.894   0.609  36.707  1.00  0.00    -0.015 A 
HETATM    4  C   UNL     1     134.583   0.377  37.132  1.00  0.00     0.030 A 
HETATM    5  C   UNL     1     133.672  -0.368  36.348  1.00  0.00     0.032 A 
HETATM    6  C   UNL     1     135.472  -0.664  34.677  1.00  0.00     0.009 A 
HETATM    7  C   UNL     1     137.609   0.359  34.972  1.00  0.00     0.049 C 
ENDROOT
BRANCH   3   8
HETATM    8  C   UNL     1     136.748   1.321  37.576  1.00  0.00     0.022 A 
HETATM    9  C   UNL     1     136.857   2.683  37.660  1.00  0.00     0.050 A 
HETATM   10  C   UNL     1     137.752   3.001  38.635  1.00  0.00     0.086 A 
HETATM   11  N   UNL     1     138.206   1.796  39.129  1.00  0.00    -0.304 N 
HETATM   12  C   UNL     1     139.188   1.519  40.105  1.00  0.00     0.100 A 
HETATM   13  C   UNL     1     137.605   0.802  38.441  1.00  0.00     0.123 A 
HETATM   14  C   UNL     1     139.521   0.235  40.479  1.00  0.00     0.035 A 
HETATM   15  C   UNL     1     138.809  -0.763  39.726  1.00  0.00     0.091 A 
HETATM   16  N   UNL     1     137.907  -0.475  38.785  1.00  0.00    -0.351 N 
ATOM     17  HN  UNL     1     137.430  -1.240  38.309  1.00  0.00     0.166 HD
BRANCH  10  18
HETATM   18  C   UNL     1     138.173   4.270  39.068  1.00  0.00     0.172 C 
HETATM   19  O   UNL     1     139.210   4.858  38.625  1.00  0.00    -0.291 OA
HETATM   20  C   UNL     1     137.382   4.907  40.213  1.00  0.00     0.098 C 
ENDBRANCH  10  18
ENDBRANCH   3   8
BRANCH   5  21
HETATM   21  C   UNL     1     132.319  -0.621  36.712  1.00  0.00     0.252 C 
HETATM   22  N   UNL     1     131.455   0.395  36.898  1.00  0.00    -0.352 N 
ATOM     23  HN  UNL     1     131.783   1.352  36.772  1.00  0.00     0.163 HD
HETATM   24  O   UNL     1     132.016  -1.772  37.032  1.00  0.00    -0.268 OA
BRANCH  22  25
HETATM   25  C   UNL     1     130.040   0.164  37.282  1.00  0.00     0.084 A 
HETATM   26  C   UNL     1     129.203  -0.386  36.273  1.00  0.00     0.027 A 
HETATM   27  C   UNL     1     128.956   0.957  36.694  1.00  0.00     0.027 A 
ENDBRANCH  22  25
ENDBRANCH   5  21
TORSDOF 4
ENDMDL
MODEL 14
REMARK VINA RESULT:    -7.434      3.704      5.812
REMARK INTER + INTRA:          -9.326
REMARK INTER:                  -9.900
REMARK INTRA:                   0.575
REMARK UNBOUND:                -0.154
REMARK  4 active torsions:
REMARK  status: ('A' for Active; 'I' for Inactive)
REMARK    1  A    between atoms: C_6  and  C_7 
REMARK    2  A    between atoms: C_9  and  C_10 
REMARK    3  A    between atoms: C_12  and  C_13 
REMARK       I    between atoms: C_13  and  N_21 
REMARK    4  A    between atoms: C_14  and  N_21 
ROOT
HETATM    1  C   UNL     1     130.867   0.605  37.154  1.00  0.00     0.017 A 
HETATM    2  C   UNL     1     128.943  -0.763  36.748  1.00  0.00    -0.051 A 
HETATM    3  C   UNL     1     129.770  -1.879  36.533  1.00  0.00    -0.015 A 
HETATM    4  C   UNL     1     131.157  -1.724  36.609  1.00  0.00     0.030 A 
HETATM    5  C   UNL     1     131.747  -0.475  36.911  1.00  0.00     0.032 A 
HETATM    6  C   UNL     1     129.467   0.472  37.081  1.00  0.00     0.009 A 
HETATM    7  C   UNL     1     127.540  -0.862  36.625  1.00  0.00     0.049 C 
ENDROOT
BRANCH   3   8
HETATM    8  C   UNL     1     129.269  -3.172  36.274  1.00  0.00     0.022 A 
HETATM    9  C   UNL     1     128.013  -3.474  35.821  1.00  0.00     0.050 A 
HETATM   10  C   UNL     1     127.908  -4.821  35.655  1.00  0.00     0.086 A 
HETATM   11  N   UNL     1     129.127  -5.338  36.042  1.00  0.00    -0.304 N 
HETATM   12  C   UNL     1     129.564  -6.677  36.138  1.00  0.00     0.100 A 
HETATM   13  C   UNL     1     129.913  -4.316  36.445  1.00  0.00     0.123 A 
HETATM   14  C   UNL     1     130.834  -7.015  36.552  1.00  0.00     0.035 A 
HETATM   15  C   UNL     1     131.618  -5.869  36.926  1.00  0.00     0.091 A 
HETATM   16  N   UNL     1     131.171  -4.613  36.856  1.00  0.00    -0.351 N 
ATOM     17  HN  UNL     1     131.796  -3.852  37.120  1.00  0.00     0.166 HD
BRANCH  10  18
HETATM   18  C   UNL     1     126.808  -5.573  35.208  1.00  0.00     0.172 C 
HETATM   19  O   UNL     1     126.865  -6.405  34.248  1.00  0.00    -0.291 OA
HETATM   20  C   UNL     1     125.456  -5.272  35.859  1.00  0.00     0.098 C 
ENDBRANCH  10  18
ENDBRANCH   3   8
BRANCH   5  21
HETATM   21  C   UNL     1     133.150  -0.245  36.982  1.00  0.00     0.252 C 
HETATM   22  N   UNL     1     133.788   0.419  36.000  1.00  0.00    -0.352 N 
ATOM     23  HN  UNL     1     133.251   0.759  35.202  1.00  0.00     0.163 HD
HETATM   24  O   UNL     1     133.784  -0.828  37.863  1.00  0.00    -0.268 OA
BRANCH  22  25
HETATM   25  C   UNL     1     135.251   0.671  36.042  1.00  0.00     0.084 A 
HETATM   26  C   UNL     1     135.648   1.965  36.477  1.00  0.00     0.027 A 
HETATM   27  C   UNL     1     135.886   1.611  35.114  1.00  0.00     0.027 A 
ENDBRANCH  22  25
ENDBRANCH   5  21
TORSDOF 4
ENDMDL
MODEL 15
REMARK VINA RESULT:    -7.412      3.136      5.544
REMARK INTER + INTRA:          -9.299
REMARK INTER:                  -8.446
REMARK INTRA:                  -0.852
REMARK UNBOUND:                -0.154
REMARK  4 active torsions:
REMARK  status: ('A' for Active; 'I' for Inactive)
REMARK    1  A    between atoms: C_6  and  C_7 
REMARK    2  A    between atoms: C_9  and  C_10 
REMARK    3  A    between atoms: C_12  and  C_13 
REMARK       I    between atoms: C_13  and  N_21 
REMARK    4  A    between atoms: C_14  and  N_21 
ROOT
HETATM    1  C   UNL     1     125.903  -2.814  35.989  1.00  0.00     0.017 A 
HETATM    2  C   UNL     1     126.321  -5.152  35.679  1.00  0.00    -0.051 A 
HETATM    3  C   UNL     1     127.706  -4.912  35.665  1.00  0.00    -0.015 A 
HETATM    4  C   UNL     1     128.171  -3.601  35.790  1.00  0.00     0.030 A 
HETATM    5  C   UNL     1     127.283  -2.512  35.945  1.00  0.00     0.032 A 
HETATM    6  C   UNL     1     125.412  -4.128  35.864  1.00  0.00     0.009 A 
HETATM    7  C   UNL     1     125.806  -6.454  35.500  1.00  0.00     0.049 C 
ENDROOT
BRANCH   3   8
HETATM    8  C   UNL     1     128.666  -5.941  35.563  1.00  0.00     0.022 A 
HETATM    9  C   UNL     1     129.262  -6.593  36.608  1.00  0.00     0.050 A 
HETATM   10  C   UNL     1     130.104  -7.545  36.121  1.00  0.00     0.086 A 
HETATM   11  N   UNL     1     130.026  -7.441  34.747  1.00  0.00    -0.304 N 
HETATM   12  C   UNL     1     130.727  -8.132  33.736  1.00  0.00     0.100 A 
HETATM   13  C   UNL     1     129.175  -6.437  34.446  1.00  0.00     0.123 A 
HETATM   14  C   UNL     1     130.521  -7.895  32.395  1.00  0.00     0.035 A 
HETATM   15  C   UNL     1     129.573  -6.839  32.159  1.00  0.00     0.091 A 
HETATM   16  N   UNL     1     128.946  -6.178  33.134  1.00  0.00    -0.351 N 
ATOM     17  HN  UNL     1     128.271  -5.455  32.885  1.00  0.00     0.166 HD
BRANCH  10  18
HETATM   18  C   UNL     1     130.917  -8.450  36.825  1.00  0.00     0.172 C 
HETATM   19  O   UNL     1     130.725  -9.707  36.840  1.00  0.00    -0.291 OA
HETATM   20  C   UNL     1     132.019  -7.850  37.701  1.00  0.00     0.098 C 
ENDBRANCH  10  18
ENDBRANCH   3   8
BRANCH   5  21
HETATM   21  C   UNL     1     127.690  -1.152  36.054  1.00  0.00     0.252 C 
HETATM   22  N   UNL     1     126.869  -0.155  35.672  1.00  0.00    -0.352 N 
ATOM     23  HN  UNL     1     125.947  -0.387  35.304  1.00  0.00     0.163 HD
HETATM   24  O   UNL     1     128.870  -0.926  36.328  1.00  0.00    -0.268 OA
BRANCH  22  25
HETATM   25  C   UNL     1     127.266   1.272  35.770  1.00  0.00     0.084 A 
HETATM   26  C   UNL     1     126.202   2.211  35.853  1.00  0.00     0.027 A 
HETATM   27  C   UNL     1     127.007   2.208  34.673  1.00  0.00     0.027 A 
ENDBRANCH  22  25
ENDBRANCH   5  21
TORSDOF 4
ENDMDL
MODEL 16
REMARK VINA RESULT:    -7.316      6.204      9.508
REMARK INTER + INTRA:          -9.180
REMARK INTER:                  -8.551
REMARK INTRA:                  -0.629
REMARK UNBOUND:                -0.154
REMARK  4 active torsions:
REMARK  status: ('A' for Active; 'I' for Inactive)
REMARK    1  A    between atoms: C_6  and  C_7 
REMARK    2  A    between atoms: C_9  and  C_10 
REMARK    3  A    between atoms: C_12  and  C_13 
REMARK       I    between atoms: C_13  and  N_21 
REMARK    4  A    between atoms: C_14  and  N_21 
ROOT
HETATM    1  C   UNL     1     131.684  -2.750  36.360  1.00  0.00     0.017 A 
HETATM    2  C   UNL     1     134.076  -2.614  36.354  1.00  0.00    -0.051 A 
HETATM    3  C   UNL     1     134.013  -1.319  36.896  1.00  0.00    -0.015 A 
HETATM    4  C   UNL     1     132.763  -0.742  37.141  1.00  0.00     0.030 A 
HETATM    5  C   UNL     1     131.562  -1.437  36.870  1.00  0.00     0.032 A 
HETATM    6  C   UNL     1     132.933  -3.349  36.105  1.00  0.00     0.009 A 
HETATM    7  C   UNL     1     135.315  -3.211  36.039  1.00  0.00     0.049 C 
ENDROOT
BRANCH   3   8
HETATM    8  C   UNL     1     135.158  -0.570  37.242  1.00  0.00     0.022 A 
HETATM    9  C   UNL     1     136.018  -0.843  38.270  1.00  0.00     0.050 A 
HETATM   10  C   UNL     1     137.023   0.076  38.271  1.00  0.00     0.086 A 
HETATM   11  N   UNL     1     136.739   0.934  37.229  1.00  0.00    -0.304 N 
HETATM   12  C   UNL     1     137.401   2.106  36.804  1.00  0.00     0.100 A 
HETATM   13  C   UNL     1     135.585   0.535  36.652  1.00  0.00     0.123 A 
HETATM   14  C   UNL     1     136.972   2.852  35.728  1.00  0.00     0.035 A 
HETATM   15  C   UNL     1     135.759   2.339  35.147  1.00  0.00     0.091 A 
HETATM   16  N   UNL     1     135.135   1.245  35.588  1.00  0.00    -0.351 N 
ATOM     17  HN  UNL     1     134.290   0.933  35.109  1.00  0.00     0.166 HD
BRANCH  10  18
HETATM   18  C   UNL     1     138.122   0.182  39.140  1.00  0.00     0.172 C 
HETATM   19  O   UNL     1     139.172  -0.528  39.039  1.00  0.00    -0.291 OA
HETATM   20  C   UNL     1     137.974   1.136  40.327  1.00  0.00     0.098 C 
ENDBRANCH  10  18
ENDBRANCH   3   8
BRANCH   5  21
HETATM   21  C   UNL     1     130.259  -0.901  37.075  1.00  0.00     0.252 C 
HETATM   22  N   UNL     1     129.170  -1.543  36.614  1.00  0.00    -0.352 N 
ATOM     23  HN  UNL     1     129.290  -2.425  36.116  1.00  0.00     0.163 HD
HETATM   24  O   UNL     1     130.174   0.247  37.516  1.00  0.00    -0.268 OA
BRANCH  22  25
HETATM   25  C   UNL     1     127.799  -1.008  36.808  1.00  0.00     0.084 A 
HETATM   26  C   UNL     1     126.769  -1.649  36.069  1.00  0.00     0.027 A 
HETATM   27  C   UNL     1     127.101  -0.302  35.730  1.00  0.00     0.027 A 
ENDBRANCH  22  25
ENDBRANCH   5  21
TORSDOF 4
ENDMDL
MODEL 17
REMARK VINA RESULT:    -7.301      2.716      3.865
REMARK INTER + INTRA:          -9.162
REMARK INTER:                  -8.395
REMARK INTRA:                  -0.767
REMARK UNBOUND:                -0.154
REMARK  4 active torsions:
REMARK  status: ('A' for Active; 'I' for Inactive)
REMARK    1  A    between atoms: C_6  and  C_7 
REMARK    2  A    between atoms: C_9  and  C_10 
REMARK    3  A    between atoms: C_12  and  C_13 
REMARK       I    between atoms: C_13  and  N_21 
REMARK    4  A    between atoms: C_14  and  N_21 
ROOT
HETATM    1  C   UNL     1     129.667  -2.008  36.709  1.00  0.00     0.017 A 
HETATM    2  C   UNL     1     129.989  -4.340  36.265  1.00  0.00    -0.051 A 
HETATM    3  C   UNL     1     128.680  -4.435  35.764  1.00  0.00    -0.015 A 
HETATM    4  C   UNL     1     127.864  -3.300  35.768  1.00  0.00     0.030 A 
HETATM    5  C   UNL     1     128.331  -2.055  36.251  1.00  0.00     0.032 A 
HETATM    6  C   UNL     1     130.505  -3.140  36.715  1.00  0.00     0.009 A 
HETATM    7  C   UNL     1     130.827  -5.474  36.331  1.00  0.00     0.049 C 
ENDROOT
BRANCH   3   8
HETATM    8  C   UNL     1     128.146  -5.622  35.218  1.00  0.00     0.022 A 
HETATM    9  C   UNL     1     128.358  -6.093  33.951  1.00  0.00     0.050 A 
HETATM   10  C   UNL     1     127.711  -7.282  33.801  1.00  0.00     0.086 A 
HETATM   11  N   UNL     1     127.077  -7.513  35.004  1.00  0.00    -0.304 N 
HETATM   12  C   UNL     1     126.215  -8.559  35.396  1.00  0.00     0.100 A 
HETATM   13  C   UNL     1     127.332  -6.472  35.825  1.00  0.00     0.123 A 
HETATM   14  C   UNL     1     125.662  -8.632  36.656  1.00  0.00     0.035 A 
HETATM   15  C   UNL     1     126.012  -7.505  37.480  1.00  0.00     0.091 A 
HETATM   16  N   UNL     1     126.806  -6.512  37.074  1.00  0.00    -0.351 N 
ATOM     17  HN  UNL     1     127.024  -5.758  37.726  1.00  0.00     0.166 HD
BRANCH  10  18
HETATM   18  C   UNL     1     127.654  -8.119  32.674  1.00  0.00     0.172 C 
HETATM   19  O   UNL     1     126.643  -8.203  31.907  1.00  0.00    -0.291 OA
HETATM   20  C   UNL     1     128.846  -9.052  32.446  1.00  0.00     0.098 C 
ENDBRANCH  10  18
ENDBRANCH   3   8
BRANCH   5  21
HETATM   21  C   UNL     1     127.546  -0.869  36.304  1.00  0.00     0.252 C 
HETATM   22  N   UNL     1     128.069   0.319  35.945  1.00  0.00    -0.352 N 
ATOM     23  HN  UNL     1     129.039   0.357  35.631  1.00  0.00     0.163 HD
HETATM   24  O   UNL     1     126.448  -0.931  36.860  1.00  0.00    -0.268 OA
BRANCH  22  25
HETATM   25  C   UNL     1     127.278   1.574  35.993  1.00  0.00     0.084 A 
HETATM   26  C   UNL     1     126.318   1.746  34.959  1.00  0.00     0.027 A 
HETATM   27  C   UNL     1     127.449   2.618  34.978  1.00  0.00     0.027 A 
ENDBRANCH  22  25
ENDBRANCH   5  21
TORSDOF 4
ENDMDL
MODEL 18
REMARK VINA RESULT:    -7.126      2.969      5.437
REMARK INTER + INTRA:          -8.946
REMARK INTER:                  -8.125
REMARK INTRA:                  -0.821
REMARK UNBOUND:                -0.154
REMARK  4 active torsions:
REMARK  status: ('A' for Active; 'I' for Inactive)
REMARK    1  A    between atoms: C_6  and  C_7 
REMARK    2  A    between atoms: C_9  and  C_10 
REMARK    3  A    between atoms: C_12  and  C_13 
REMARK       I    between atoms: C_13  and  N_21 
REMARK    4  A    between atoms: C_14  and  N_21 
ROOT
HETATM    1  C   UNL     1     125.270  -3.327  36.174  1.00  0.00     0.017 A 
HETATM    2  C   UNL     1     125.811  -5.481  35.276  1.00  0.00    -0.051 A 
HETATM    3  C   UNL     1     127.139  -5.071  35.068  1.00  0.00    -0.015 A 
HETATM    4  C   UNL     1     127.509  -3.764  35.400  1.00  0.00     0.030 A 
HETATM    5  C   UNL     1     126.582  -2.850  35.952  1.00  0.00     0.032 A 
HETATM    6  C   UNL     1     124.876  -4.638  35.846  1.00  0.00     0.009 A 
HETATM    7  C   UNL     1     125.382  -6.773  34.903  1.00  0.00     0.049 C 
ENDROOT
BRANCH   3   8
HETATM    8  C   UNL     1     128.142  -5.927  34.567  1.00  0.00     0.022 A 
HETATM    9  C   UNL     1     128.341  -6.254  33.253  1.00  0.00     0.050 A 
HETATM   10  C   UNL     1     129.423  -7.073  33.153  1.00  0.00     0.086 A 
HETATM   11  N   UNL     1     129.868  -7.259  34.446  1.00  0.00    -0.304 N 
HETATM   12  C   UNL     1     130.915  -8.062  34.946  1.00  0.00     0.100 A 
HETATM   13  C   UNL     1     129.048  -6.581  35.278  1.00  0.00     0.123 A 
HETATM   14  C   UNL     1     131.222  -8.130  36.288  1.00  0.00     0.035 A 
HETATM   15  C   UNL     1     130.327  -7.351  37.101  1.00  0.00     0.091 A 
HETATM   16  N   UNL     1     129.324  -6.623  36.605  1.00  0.00    -0.351 N 
ATOM     17  HN  UNL     1     128.745  -6.081  37.246  1.00  0.00     0.166 HD
BRANCH  10  18
HETATM   18  C   UNL     1     129.992  -7.649  32.004  1.00  0.00     0.172 C 
HETATM   19  O   UNL     1     129.734  -8.829  31.605  1.00  0.00    -0.291 OA
HETATM   20  C   UNL     1     131.059  -6.829  31.276  1.00  0.00     0.098 C 
ENDBRANCH  10  18
ENDBRANCH   3   8
BRANCH   5  21
HETATM   21  C   UNL     1     126.887  -1.502  36.290  1.00  0.00     0.252 C 
HETATM   22  N   UNL     1     126.777  -0.521  35.375  1.00  0.00    -0.352 N 
ATOM     23  HN  UNL     1     126.468  -0.757  34.432  1.00  0.00     0.163 HD
HETATM   24  O   UNL     1     127.429  -1.290  37.377  1.00  0.00    -0.268 OA
BRANCH  22  25
HETATM   25  C   UNL     1     127.092   0.894  35.695  1.00  0.00     0.084 A 
HETATM   26  C   UNL     1     125.977   1.767  35.824  1.00  0.00     0.027 A 
HETATM   27  C   UNL     1     126.860   1.962  34.719  1.00  0.00     0.027 A 
ENDBRANCH  22  25
ENDBRANCH   5  21
TORSDOF 4
ENDMDL
MODEL 19
REMARK VINA RESULT:    -7.035      6.504      8.423
REMARK INTER + INTRA:          -8.833
REMARK INTER:                  -8.119
REMARK INTRA:                  -0.714
REMARK UNBOUND:                -0.154
REMARK  4 active torsions:
REMARK  status: ('A' for Active; 'I' for Inactive)
REMARK    1  A    between atoms: C_6  and  C_7 
REMARK    2  A    between atoms: C_9  and  C_10 
REMARK    3  A    between atoms: C_12  and  C_13 
REMARK       I    between atoms: C_13  and  N_21 
REMARK    4  A    between atoms: C_14  and  N_21 
ROOT
HETATM    1  C   UNL     1     136.870   1.443  36.136  1.00  0.00     0.017 A 
HETATM    2  C   UNL     1     135.337   0.050  34.932  1.00  0.00    -0.051 A 
HETATM    3  C   UNL     1     134.852  -0.477  36.141  1.00  0.00    -0.015 A 
HETATM    4  C   UNL     1     135.412  -0.046  37.346  1.00  0.00     0.030 A 
HETATM    5  C   UNL     1     136.445   0.919  37.379  1.00  0.00     0.032 A 
HETATM    6  C   UNL     1     136.320   1.022  34.910  1.00  0.00     0.009 A 
HETATM    7  C   UNL     1     134.839  -0.399  33.690  1.00  0.00     0.049 C 
ENDROOT
BRANCH   3   8
HETATM    8  C   UNL     1     133.792  -1.407  36.207  1.00  0.00     0.022 A 
HETATM    9  C   UNL     1     133.882  -2.749  35.958  1.00  0.00     0.050 A 
HETATM   10  C   UNL     1     132.665  -3.325  36.158  1.00  0.00     0.086 A 
HETATM   11  N   UNL     1     131.821  -2.293  36.513  1.00  0.00    -0.304 N 
HETATM   12  C   UNL     1     130.434  -2.295  36.774  1.00  0.00     0.100 A 
HETATM   13  C   UNL     1     132.528  -1.143  36.497  1.00  0.00     0.123 A 
HETATM   14  C   UNL     1     129.742  -1.154  37.118  1.00  0.00     0.035 A 
HETATM   15  C   UNL     1     130.575   0.020  37.115  1.00  0.00     0.091 A 
HETATM   16  N   UNL     1     131.879  -0.000  36.834  1.00  0.00    -0.351 N 
ATOM     17  HN  UNL     1     132.405   0.873  36.873  1.00  0.00     0.166 HD
BRANCH  10  18
HETATM   18  C   UNL     1     132.292  -4.674  36.023  1.00  0.00     0.172 C 
HETATM   19  O   UNL     1     131.353  -5.074  35.265  1.00  0.00    -0.291 OA
HETATM   20  C   UNL     1     133.000  -5.679  36.933  1.00  0.00     0.098 C 
ENDBRANCH  10  18
ENDBRANCH   3   8
BRANCH   5  21
HETATM   21  C   UNL     1     137.073   1.384  38.569  1.00  0.00     0.252 C 
HETATM   22  N   UNL     1     137.701   2.575  38.595  1.00  0.00    -0.352 N 
ATOM     23  HN  UNL     1     137.718   3.144  37.749  1.00  0.00     0.163 HD
HETATM   24  O   UNL     1     137.187   0.591  39.506  1.00  0.00    -0.268 OA
BRANCH  22  25
HETATM   25  C   UNL     1     138.368   3.085  39.819  1.00  0.00     0.084 A 
HETATM   26  C   UNL     1     137.568   3.890  40.676  1.00  0.00     0.027 A 
HETATM   27  C   UNL     1     138.654   4.513  39.988  1.00  0.00     0.027 A 
ENDBRANCH  22  25
ENDBRANCH   5  21
TORSDOF 4
ENDMDL
