MODEL 1
REMARK VINA RESULT:    -8.592      0.000      0.000
REMARK INTER + INTRA:         -10.226
REMARK INTER:                  -9.847
REMARK INTRA:                  -0.378
REMARK UNBOUND:                -0.378
REMARK  4 active torsions:
REMARK  status: ('A' for Active; 'I' for Inactive)
REMARK    1  A    between atoms: N_7  and  C_16 
REMARK    2  A    between atoms: C_12  and  N_13 
REMARK    3  A    between atoms: C_17  and  O_22 
REMARK    4  A    between atoms: C_18  and  O_24 
ROOT
HETATM    1  N   UNL     1      17.529  54.149  27.599  1.00  0.00    -0.337 N 
ATOM      2  HN  UNL     1      17.057  53.544  26.926  1.00  0.00     0.168 HD
HETATM    3  C   UNL     1      17.909  53.676  28.795  1.00  0.00     0.183 A 
HETATM    4  N   UNL     1      18.537  54.317  29.794  1.00  0.00    -0.336 N 
ATOM      5  HN  UNL     1      18.813  53.883  30.676  1.00  0.00     0.168 HD
HETATM    6  C   UNL     1      18.755  55.610  29.477  1.00  0.00     0.142 A 
HETATM    7  N   UNL     1      19.312  56.588  30.270  1.00  0.00    -0.297 N 
HETATM    8  C   UNL     1      19.289  57.733  29.521  1.00  0.00     0.188 A 
HETATM    9  N   UNL     1      18.774  57.579  28.323  1.00  0.00    -0.346 N 
ATOM     10  HN  UNL     1      18.657  58.282  27.592  1.00  0.00     0.167 HD
HETATM   11  C   UNL     1      18.426  56.235  28.284  1.00  0.00     0.122 A 
HETATM   12  C   UNL     1      17.786  55.446  27.301  1.00  0.00     0.131 A 
ENDROOT
BRANCH   7  13
HETATM   13  C   UNL     1      19.835  56.443  31.631  1.00  0.00     0.262 C 
HETATM   14  C   UNL     1      20.265  57.755  32.292  1.00  0.00     0.198 C 
HETATM   15  C   UNL     1      20.217  57.370  33.782  1.00  0.00     0.179 C 
HETATM   16  C   UNL     1      19.215  56.202  33.832  1.00  0.00     0.151 C 
HETATM   17  C   UNL     1      17.996  56.434  34.709  1.00  0.00     0.042 C 
HETATM   18  O   UNL     1      18.807  55.955  32.465  1.00  0.00    -0.356 OA
BRANCH  14  19
HETATM   19  O   UNL     1      21.549  58.160  31.829  1.00  0.00    -0.388 OA
ATOM     20  HO  UNL     1      22.183  58.152  32.536  1.00  0.00     0.210 HD
ENDBRANCH  14  19
BRANCH  15  21
HETATM   21  O   UNL     1      21.459  56.909  34.291  1.00  0.00    -0.390 OA
ATOM     22  HO  UNL     1      21.669  57.251  35.153  1.00  0.00     0.210 HD
ENDBRANCH  15  21
ENDBRANCH   7  13
BRANCH  12  23
HETATM   23  N   UNL     1      17.416  55.917  26.098  1.00  0.00    -0.383 N 
ATOM     24  HN2 UNL     1      17.383  55.344  25.255  1.00  0.00     0.157 HD
ATOM     25  HN1 UNL     1      17.156  56.900  26.016  1.00  0.00     0.157 HD
ENDBRANCH  12  23
TORSDOF 4
ENDMDL
MODEL 2
REMARK VINA RESULT:    -8.190      2.944      5.901
REMARK INTER + INTRA:          -9.766
REMARK INTER:                  -9.401
REMARK INTRA:                  -0.364
REMARK UNBOUND:                -0.378
REMARK  4 active torsions:
REMARK  status: ('A' for Active; 'I' for Inactive)
REMARK    1  A    between atoms: N_7  and  C_16 
REMARK    2  A    between atoms: C_12  and  N_13 
REMARK    3  A    between atoms: C_17  and  O_22 
REMARK    4  A    between atoms: C_18  and  O_24 
ROOT
HETATM    1  N   UNL     1      18.815  56.679  36.091  1.00  0.00    -0.337 N 
ATOM      2  HN  UNL     1      18.571  56.643  37.081  1.00  0.00     0.168 HD
HETATM    3  C   UNL     1      17.866  56.594  35.148  1.00  0.00     0.183 A 
HETATM    4  N   UNL     1      17.999  56.625  33.812  1.00  0.00    -0.336 N 
ATOM      5  HN  UNL     1      17.222  56.574  33.152  1.00  0.00     0.168 HD
HETATM    6  C   UNL     1      19.296  56.735  33.458  1.00  0.00     0.142 A 
HETATM    7  N   UNL     1      19.824  56.733  32.187  1.00  0.00    -0.297 N 
HETATM    8  C   UNL     1      21.180  56.835  32.347  1.00  0.00     0.188 A 
HETATM    9  N   UNL     1      21.569  56.906  33.599  1.00  0.00    -0.346 N 
ATOM     10  HN  UNL     1      22.519  56.990  33.960  1.00  0.00     0.167 HD
HETATM   11  C   UNL     1      20.381  56.838  34.317  1.00  0.00     0.122 A 
HETATM   12  C   UNL     1      20.107  56.814  35.703  1.00  0.00     0.131 A 
ENDROOT
BRANCH   7  13
HETATM   13  C   UNL     1      19.097  56.651  30.919  1.00  0.00     0.262 C 
HETATM   14  C   UNL     1      19.967  56.822  29.671  1.00  0.00     0.198 C 
HETATM   15  C   UNL     1      19.086  56.158  28.597  1.00  0.00     0.179 C 
HETATM   16  C   UNL     1      18.201  55.181  29.393  1.00  0.00     0.151 C 
HETATM   17  C   UNL     1      18.336  53.720  28.999  1.00  0.00     0.042 C 
HETATM   18  O   UNL     1      18.553  55.356  30.787  1.00  0.00    -0.356 OA
BRANCH  14  19
HETATM   19  O   UNL     1      20.251  58.197  29.434  1.00  0.00    -0.388 OA
ATOM     20  HO  UNL     1      20.575  58.617  30.221  1.00  0.00     0.210 HD
ENDBRANCH  14  19
BRANCH  15  21
HETATM   21  O   UNL     1      18.237  57.068  27.915  1.00  0.00    -0.390 OA
ATOM     22  HO  UNL     1      17.468  57.320  28.414  1.00  0.00     0.210 HD
ENDBRANCH  15  21
ENDBRANCH   7  13
BRANCH  12  23
HETATM   23  N   UNL     1      21.058  56.911  36.648  1.00  0.00    -0.383 N 
ATOM     24  HN2 UNL     1      21.378  57.798  37.035  1.00  0.00     0.157 HD
ATOM     25  HN1 UNL     1      21.491  56.056  36.997  1.00  0.00     0.157 HD
ENDBRANCH  12  23
TORSDOF 4
ENDMDL
MODEL 3
REMARK VINA RESULT:    -5.929     13.059     14.549
REMARK INTER + INTRA:          -7.174
REMARK INTER:                  -6.725
REMARK INTRA:                  -0.449
REMARK UNBOUND:                -0.378
REMARK  4 active torsions:
REMARK  status: ('A' for Active; 'I' for Inactive)
REMARK    1  A    between atoms: N_7  and  C_16 
REMARK    2  A    between atoms: C_12  and  N_13 
REMARK    3  A    between atoms: C_17  and  O_22 
REMARK    4  A    between atoms: C_18  and  O_24 
ROOT
HETATM    1  N   UNL     1       9.717  62.318  24.393  1.00  0.00    -0.337 N 
ATOM      2  HN  UNL     1       9.914  63.110  25.005  1.00  0.00     0.168 HD
HETATM    3  C   UNL     1      10.340  62.194  23.212  1.00  0.00     0.183 A 
HETATM    4  N   UNL     1      10.211  61.229  22.287  1.00  0.00    -0.336 N 
ATOM      5  HN  UNL     1      10.737  61.192  21.413  1.00  0.00     0.168 HD
HETATM    6  C   UNL     1       9.295  60.315  22.668  1.00  0.00     0.142 A 
HETATM    7  N   UNL     1       8.850  59.224  21.956  1.00  0.00    -0.297 N 
HETATM    8  C   UNL     1       7.903  58.626  22.744  1.00  0.00     0.188 A 
HETATM    9  N   UNL     1       7.705  59.228  23.893  1.00  0.00    -0.346 N 
ATOM     10  HN  UNL     1       7.059  58.966  24.639  1.00  0.00     0.167 HD
HETATM   11  C   UNL     1       8.580  60.307  23.856  1.00  0.00     0.122 A 
HETATM   12  C   UNL     1       8.821  61.369  24.757  1.00  0.00     0.131 A 
ENDROOT
BRANCH   7  13
HETATM   13  C   UNL     1       9.296  58.778  20.634  1.00  0.00     0.262 C 
HETATM   14  C   UNL     1      10.546  57.894  20.647  1.00  0.00     0.198 C 
HETATM   15  C   UNL     1      10.421  57.178  19.290  1.00  0.00     0.179 C 
HETATM   16  C   UNL     1       8.913  57.226  18.981  1.00  0.00     0.151 C 
HETATM   17  C   UNL     1       8.244  55.872  18.817  1.00  0.00     0.042 C 
HETATM   18  O   UNL     1       8.297  57.958  20.068  1.00  0.00    -0.356 OA
BRANCH  14  19
HETATM   19  O   UNL     1      11.723  58.680  20.793  1.00  0.00    -0.388 OA
ATOM     20  HO  UNL     1      12.070  58.932  19.946  1.00  0.00     0.210 HD
ENDBRANCH  14  19
BRANCH  15  21
HETATM   21  O   UNL     1      11.109  57.833  18.235  1.00  0.00    -0.390 OA
ATOM     22  HO  UNL     1      11.514  57.236  17.616  1.00  0.00     0.210 HD
ENDBRANCH  15  21
ENDBRANCH   7  13
BRANCH  12  23
HETATM   23  N   UNL     1       8.204  61.486  25.946  1.00  0.00    -0.383 N 
ATOM     24  HN2 UNL     1       7.991  60.691  26.550  1.00  0.00     0.157 HD
ATOM     25  HN1 UNL     1       7.929  62.414  26.266  1.00  0.00     0.157 HD
ENDBRANCH  12  23
TORSDOF 4
ENDMDL
MODEL 4
REMARK VINA RESULT:    -5.792     12.543     13.796
REMARK INTER + INTRA:          -7.017
REMARK INTER:                  -6.671
REMARK INTRA:                  -0.346
REMARK UNBOUND:                -0.378
REMARK  4 active torsions:
REMARK  status: ('A' for Active; 'I' for Inactive)
REMARK    1  A    between atoms: N_7  and  C_16 
REMARK    2  A    between atoms: C_12  and  N_13 
REMARK    3  A    between atoms: C_17  and  O_22 
REMARK    4  A    between atoms: C_18  and  O_24 
ROOT
HETATM    1  N   UNL     1      12.458  58.593  18.528  1.00  0.00    -0.337 N 
ATOM      2  HN  UNL     1      13.197  58.586  17.824  1.00  0.00     0.168 HD
HETATM    3  C   UNL     1      11.963  59.750  18.988  1.00  0.00     0.183 A 
HETATM    4  N   UNL     1      10.998  59.951  19.901  1.00  0.00    -0.336 N 
ATOM      5  HN  UNL     1      10.658  60.869  20.190  1.00  0.00     0.168 HD
HETATM    6  C   UNL     1      10.540  58.779  20.385  1.00  0.00     0.142 A 
HETATM    7  N   UNL     1       9.602  58.587  21.375  1.00  0.00    -0.297 N 
HETATM    8  C   UNL     1       9.500  57.230  21.533  1.00  0.00     0.188 A 
HETATM    9  N   UNL     1      10.279  56.538  20.735  1.00  0.00    -0.346 N 
ATOM     10  HN  UNL     1      10.370  55.524  20.667  1.00  0.00     0.167 HD
HETATM   11  C   UNL     1      10.949  57.510  20.002  1.00  0.00     0.122 A 
HETATM   12  C   UNL     1      11.958  57.431  19.016  1.00  0.00     0.131 A 
ENDROOT
BRANCH   7  13
HETATM   13  C   UNL     1       8.856  59.611  22.108  1.00  0.00     0.262 C 
HETATM   14  C   UNL     1       7.719  59.071  22.979  1.00  0.00     0.198 C 
HETATM   15  C   UNL     1       7.530  60.229  23.977  1.00  0.00     0.179 C 
HETATM   16  C   UNL     1       8.896  60.940  23.985  1.00  0.00     0.151 C 
HETATM   17  C   UNL     1       9.591  60.990  25.335  1.00  0.00     0.042 C 
HETATM   18  O   UNL     1       9.724  60.242  23.023  1.00  0.00    -0.356 OA
BRANCH  14  19
HETATM   19  O   UNL     1       6.569  58.779  22.191  1.00  0.00    -0.388 OA
ATOM     20  HO  UNL     1       6.785  58.180  21.487  1.00  0.00     0.210 HD
ENDBRANCH  14  19
BRANCH  15  21
HETATM   21  O   UNL     1       6.544  61.169  23.580  1.00  0.00    -0.390 OA
ATOM     22  HO  UNL     1       5.736  61.107  24.076  1.00  0.00     0.210 HD
ENDBRANCH  15  21
ENDBRANCH   7  13
BRANCH  12  23
HETATM   23  N   UNL     1      12.447  56.270  18.547  1.00  0.00    -0.383 N 
ATOM     24  HN2 UNL     1      11.923  55.647  17.932  1.00  0.00     0.157 HD
ATOM     25  HN1 UNL     1      13.388  55.989  18.819  1.00  0.00     0.157 HD
ENDBRANCH  12  23
TORSDOF 4
ENDMDL
MODEL 5
REMARK VINA RESULT:    -5.787     13.391     14.693
REMARK INTER + INTRA:          -7.011
REMARK INTER:                  -6.634
REMARK INTRA:                  -0.377
REMARK UNBOUND:                -0.378
REMARK  4 active torsions:
REMARK  status: ('A' for Active; 'I' for Inactive)
REMARK    1  A    between atoms: N_7  and  C_16 
REMARK    2  A    between atoms: C_12  and  N_13 
REMARK    3  A    between atoms: C_17  and  O_22 
REMARK    4  A    between atoms: C_18  and  O_24 
ROOT
HETATM    1  N   UNL     1       7.680  61.428  26.067  1.00  0.00    -0.337 N 
ATOM      2  HN  UNL     1       7.477  61.816  26.988  1.00  0.00     0.168 HD
HETATM    3  C   UNL     1       6.949  60.418  25.573  1.00  0.00     0.183 A 
HETATM    4  N   UNL     1       7.067  59.790  24.392  1.00  0.00    -0.336 N 
ATOM      5  HN  UNL     1       6.457  59.036  24.074  1.00  0.00     0.168 HD
HETATM    6  C   UNL     1       8.099  60.289  23.681  1.00  0.00     0.142 A 
HETATM    7  N   UNL     1       8.564  59.858  22.459  1.00  0.00    -0.297 N 
HETATM    8  C   UNL     1       9.641  60.653  22.169  1.00  0.00     0.188 A 
HETATM    9  N   UNL     1       9.905  61.554  23.087  1.00  0.00    -0.346 N 
ATOM     10  HN  UNL     1      10.647  62.254  23.088  1.00  0.00     0.167 HD
HETATM   11  C   UNL     1       8.934  61.330  24.057  1.00  0.00     0.122 A 
HETATM   12  C   UNL     1       8.694  61.924  25.316  1.00  0.00     0.131 A 
ENDROOT
BRANCH   7  13
HETATM   13  C   UNL     1       8.023  58.782  21.627  1.00  0.00     0.262 C 
HETATM   14  C   UNL     1       8.851  58.461  20.380  1.00  0.00     0.198 C 
HETATM   15  C   UNL     1       8.380  57.029  20.067  1.00  0.00     0.179 C 
HETATM   16  C   UNL     1       7.885  56.495  21.424  1.00  0.00     0.151 C 
HETATM   17  C   UNL     1       8.604  55.257  21.931  1.00  0.00     0.042 C 
HETATM   18  O   UNL     1       8.035  57.582  22.369  1.00  0.00    -0.356 OA
BRANCH  14  19
HETATM   19  O   UNL     1       8.598  59.405  19.345  1.00  0.00    -0.388 OA
ATOM     20  HO  UNL     1       7.668  59.583  19.269  1.00  0.00     0.210 HD
ENDBRANCH  14  19
BRANCH  15  21
HETATM   21  O   UNL     1       7.298  56.973  19.149  1.00  0.00    -0.390 OA
ATOM     22  HO  UNL     1       6.628  56.343  19.387  1.00  0.00     0.210 HD
ENDBRANCH  15  21
ENDBRANCH   7  13
BRANCH  12  23
HETATM   23  N   UNL     1       9.420  62.944  25.806  1.00  0.00    -0.383 N 
ATOM     24  HN2 UNL     1       9.707  63.749  25.248  1.00  0.00     0.157 HD
ATOM     25  HN1 UNL     1       9.706  62.916  26.784  1.00  0.00     0.157 HD
ENDBRANCH  12  23
TORSDOF 4
ENDMDL
