MODEL 1
REMARK VINA RESULT:    -7.456      0.000      0.000
REMARK INTER + INTRA:         -12.498
REMARK INTER:                 -11.378
REMARK INTRA:                  -1.119
REMARK UNBOUND:                -1.119
REMARK  11 active torsions:
REMARK  status: ('A' for Active; 'I' for Inactive)
REMARK    1  A    between atoms: N_1  and  CA_5 
REMARK    2  A    between atoms: CA_5  and  C_9 
REMARK    3  A    between atoms: CA_5  and  C_6 
REMARK    4  A    between atoms: C_9  and  C_10 
REMARK    5  A    between atoms: C_10  and  C_11 
REMARK    6  A    between atoms: C_11  and  C_16 
REMARK    7  A    between atoms: C_11  and  N_12 
REMARK    8  A    between atoms: C_16  and  C_17 
REMARK    9  A    between atoms: C_19  and  O_20 
REMARK   10  A    between atoms: C_22  and  O_23 
REMARK   11  A    between atoms: C_25  and  N_26 
ROOT
HETATM    1  C   UNL     1      44.739 -18.235  -8.493  1.00  0.00     0.157 C 
HETATM    2  O   UNL     1      44.826 -17.037  -7.937  1.00  0.00    -0.355 OA
HETATM    3  C   UNL     1      44.115 -18.026  -9.893  1.00  0.00     0.180 C 
HETATM    4  C   UNL     1      44.025 -16.492  -9.986  1.00  0.00     0.198 C 
HETATM    5  C   UNL     1      43.828 -16.091  -8.742  1.00  0.00     0.262 C 
ENDROOT
BRANCH   1   6
HETATM    6  C   UNL     1      46.158 -18.863  -8.576  1.00  0.00     0.067 C 
BRANCH   6   7
HETATM    7  C   UNL     1      46.395 -19.948  -7.523  1.00  0.00     0.186 C 
BRANCH   7   8
HETATM    8  N   UNL     1      46.021 -19.398  -6.220  1.00  0.00    -0.075 N 
ATOM      9  HN3 UNL     1      45.022 -19.206  -6.144  1.00  0.00     0.274 HD
ATOM     10  HN2 UNL     1      46.084 -20.084  -5.468  1.00  0.00     0.274 HD
ATOM     11  HN1 UNL     1      46.595 -18.572  -6.051  1.00  0.00     0.274 HD
ENDBRANCH   7   8
BRANCH   7  12
HETATM   12  C   UNL     1      45.514 -21.161  -7.819  1.00  0.00     0.035 C 
BRANCH  12  13
HETATM   13  C   UNL     1      44.632 -21.509  -6.613  1.00  0.00     0.046 C 
BRANCH  13  14
HETATM   14  CA  UNL     1      44.913 -22.939  -6.126  1.00  0.00     0.283 C 
BRANCH  14  15
HETATM   15  C   UNL     1      44.418 -23.950  -7.161  1.00  0.00     0.204 C 
HETATM   16  OXT UNL     1      43.220 -23.903  -7.548  1.00  0.00    -0.646 OA
HETATM   17  O   UNL     1      45.177 -24.843  -7.628  1.00  0.00    -0.646 OA
ENDBRANCH  14  15
BRANCH  14  18
HETATM   18  N   UNL     1      46.339 -23.129  -5.851  1.00  0.00    -0.065 N 
ATOM     19  HN3 UNL     1      46.507 -23.354  -4.870  1.00  0.00     0.275 HD
ATOM     20  HN2 UNL     1      46.691 -23.990  -6.269  1.00  0.00     0.275 HD
ATOM     21  HN1 UNL     1      46.880 -22.318  -6.150  1.00  0.00     0.275 HD
ENDBRANCH  14  18
ENDBRANCH  13  14
ENDBRANCH  12  13
ENDBRANCH   7  12
ENDBRANCH   6   7
ENDBRANCH   1   6
BRANCH   3  22
HETATM   22  O   UNL     1      42.884 -18.628  -9.959  1.00  0.00    -0.390 OA
ATOM     23  HO  UNL     1      42.799 -19.348  -9.345  1.00  0.00     0.210 HD
ENDBRANCH   3  22
BRANCH   4  24
HETATM   24  O   UNL     1      42.919 -16.091 -10.895  1.00  0.00    -0.388 OA
ATOM     25  HO  UNL     1      42.384 -15.393 -10.532  1.00  0.00     0.210 HD
ENDBRANCH   4  24
BRANCH   5  26
HETATM   26  N   UNL     1      44.259 -14.731  -8.513  1.00  0.00    -0.297 N 
HETATM   27  C   UNL     1      43.502 -13.852  -7.827  1.00  0.00     0.142 A 
HETATM   28  N   UNL     1      42.287 -13.942  -7.236  1.00  0.00    -0.336 N 
HETATM   29  C   UNL     1      44.170 -12.694  -7.787  1.00  0.00     0.119 A 
HETATM   30  C   UNL     1      41.760 -12.863  -6.609  1.00  0.00     0.183 A 
ATOM     31  HN  UNL     1      41.770 -14.822  -7.262  1.00  0.00     0.168 HD
HETATM   32  N   UNL     1      42.433 -11.686  -6.581  1.00  0.00    -0.339 N 
HETATM   33  C   UNL     1      43.626 -11.603  -7.153  1.00  0.00     0.148 A 
ATOM     34  HN  UNL     1      42.024 -10.871  -6.124  1.00  0.00     0.167 HD
HETATM   35  N   UNL     1      44.199 -10.286  -7.020  1.00  0.00    -0.080 NA
HETATM   36  N   UNL     1      45.340 -12.842  -8.439  1.00  0.00    -0.346 N 
HETATM   37  C   UNL     1      45.390 -14.100  -8.880  1.00  0.00     0.188 A 
ATOM     38  HN  UNL     1      46.054 -12.125  -8.571  1.00  0.00     0.167 HD
ENDBRANCH   5  26
TORSDOF 11
ENDMDL
MODEL 2
REMARK VINA RESULT:    -7.448      2.668      8.518
REMARK INTER + INTRA:         -12.486
REMARK INTER:                 -11.122
REMARK INTRA:                  -1.364
REMARK UNBOUND:                -1.119
REMARK  11 active torsions:
REMARK  status: ('A' for Active; 'I' for Inactive)
REMARK    1  A    between atoms: N_1  and  CA_5 
REMARK    2  A    between atoms: CA_5  and  C_9 
REMARK    3  A    between atoms: CA_5  and  C_6 
REMARK    4  A    between atoms: C_9  and  C_10 
REMARK    5  A    between atoms: C_10  and  C_11 
REMARK    6  A    between atoms: C_11  and  C_16 
REMARK    7  A    between atoms: C_11  and  N_12 
REMARK    8  A    between atoms: C_16  and  C_17 
REMARK    9  A    between atoms: C_19  and  O_20 
REMARK   10  A    between atoms: C_22  and  O_23 
REMARK   11  A    between atoms: C_25  and  N_26 
ROOT
HETATM    1  C   UNL     1      45.536 -17.045  -8.801  1.00  0.00     0.157 C 
HETATM    2  O   UNL     1      44.863 -18.182  -8.723  1.00  0.00    -0.355 OA
HETATM    3  C   UNL     1      46.998 -17.422  -9.144  1.00  0.00     0.180 C 
HETATM    4  C   UNL     1      46.903 -18.945  -9.351  1.00  0.00     0.198 C 
HETATM    5  C   UNL     1      45.944 -19.337  -8.531  1.00  0.00     0.262 C 
ENDROOT
BRANCH   1   6
HETATM    6  C   UNL     1      44.896 -16.145  -9.893  1.00  0.00     0.067 C 
BRANCH   6   7
HETATM    7  C   UNL     1      43.973 -15.069  -9.317  1.00  0.00     0.186 C 
BRANCH   7   8
HETATM    8  N   UNL     1      43.018 -15.727  -8.426  1.00  0.00    -0.075 N 
ATOM      9  HN3 UNL     1      42.050 -15.480  -8.632  1.00  0.00     0.274 HD
ATOM     10  HN2 UNL     1      42.941 -16.730  -8.599  1.00  0.00     0.274 HD
ATOM     11  HN1 UNL     1      43.285 -15.511  -7.465  1.00  0.00     0.274 HD
ENDBRANCH   7   8
BRANCH   7  12
HETATM   12  C   UNL     1      44.791 -14.062  -8.508  1.00  0.00     0.035 C 
BRANCH  12  13
HETATM   13  C   UNL     1      44.028 -12.743  -8.339  1.00  0.00     0.046 C 
BRANCH  13  14
HETATM   14  CA  UNL     1      43.670 -12.504  -6.864  1.00  0.00     0.283 C 
BRANCH  14  15
HETATM   15  C   UNL     1      42.156 -12.614  -6.669  1.00  0.00     0.204 C 
HETATM   16  OXT UNL     1      41.511 -11.612  -6.262  1.00  0.00    -0.646 OA
HETATM   17  O   UNL     1      41.539 -13.692  -6.892  1.00  0.00    -0.646 OA
ENDBRANCH  14  15
BRANCH  14  18
HETATM   18  N   UNL     1      44.378 -13.447  -5.993  1.00  0.00    -0.065 N 
ATOM     19  HN3 UNL     1      45.265 -13.064  -5.667  1.00  0.00     0.275 HD
ATOM     20  HN2 UNL     1      43.912 -13.549  -5.092  1.00  0.00     0.275 HD
ATOM     21  HN1 UNL     1      44.503 -14.347  -6.456  1.00  0.00     0.275 HD
ENDBRANCH  14  18
ENDBRANCH  13  14
ENDBRANCH  12  13
ENDBRANCH   7  12
ENDBRANCH   6   7
ENDBRANCH   1   6
BRANCH   3  22
HETATM   22  O   UNL     1      47.831 -17.085  -8.108  1.00  0.00    -0.390 OA
ATOM     23  HO  UNL     1      47.359 -16.935  -7.297  1.00  0.00     0.210 HD
ENDBRANCH   3  22
BRANCH   4  24
HETATM   24  O   UNL     1      48.208 -19.591  -9.051  1.00  0.00    -0.388 OA
ATOM     25  HO  UNL     1      48.857 -19.432  -9.727  1.00  0.00     0.210 HD
ENDBRANCH   4  24
BRANCH   5  26
HETATM   26  N   UNL     1      45.320 -20.573  -8.943  1.00  0.00    -0.297 N 
HETATM   27  C   UNL     1      44.880 -21.479  -8.048  1.00  0.00     0.142 A 
HETATM   28  N   UNL     1      44.887 -21.522  -6.695  1.00  0.00    -0.336 N 
HETATM   29  C   UNL     1      44.357 -22.500  -8.737  1.00  0.00     0.119 A 
HETATM   30  C   UNL     1      44.367 -22.594  -6.050  1.00  0.00     0.183 A 
ATOM     31  HN  UNL     1      45.285 -20.747  -6.162  1.00  0.00     0.168 HD
HETATM   32  N   UNL     1      43.850 -23.634  -6.750  1.00  0.00    -0.339 N 
HETATM   33  C   UNL     1      43.836 -23.585  -8.075  1.00  0.00     0.148 A 
ATOM     34  HN  UNL     1      43.476 -24.447  -6.261  1.00  0.00     0.167 HD
HETATM   35  N   UNL     1      43.243 -24.768  -8.653  1.00  0.00    -0.080 NA
HETATM   36  N   UNL     1      44.464 -22.239 -10.054  1.00  0.00    -0.346 N 
HETATM   37  C   UNL     1      45.054 -21.048 -10.174  1.00  0.00     0.188 A 
ATOM     38  HN  UNL     1      44.152 -22.840 -10.817  1.00  0.00     0.167 HD
ENDBRANCH   5  26
TORSDOF 11
ENDMDL
MODEL 3
REMARK VINA RESULT:    -7.312      2.575      8.017
REMARK INTER + INTRA:         -12.279
REMARK INTER:                 -10.483
REMARK INTRA:                  -1.796
REMARK UNBOUND:                -1.119
REMARK  11 active torsions:
REMARK  status: ('A' for Active; 'I' for Inactive)
REMARK    1  A    between atoms: N_1  and  CA_5 
REMARK    2  A    between atoms: CA_5  and  C_9 
REMARK    3  A    between atoms: CA_5  and  C_6 
REMARK    4  A    between atoms: C_9  and  C_10 
REMARK    5  A    between atoms: C_10  and  C_11 
REMARK    6  A    between atoms: C_11  and  C_16 
REMARK    7  A    between atoms: C_11  and  N_12 
REMARK    8  A    between atoms: C_16  and  C_17 
REMARK    9  A    between atoms: C_19  and  O_20 
REMARK   10  A    between atoms: C_22  and  O_23 
REMARK   11  A    between atoms: C_25  and  N_26 
ROOT
HETATM    1  C   UNL     1      45.133 -16.642  -8.609  1.00  0.00     0.157 C 
HETATM    2  O   UNL     1      44.647 -17.839  -8.323  1.00  0.00    -0.355 OA
HETATM    3  C   UNL     1      46.603 -16.856  -9.044  1.00  0.00     0.180 C 
HETATM    4  C   UNL     1      46.723 -18.391  -9.045  1.00  0.00     0.198 C 
HETATM    5  C   UNL     1      45.902 -18.794  -8.092  1.00  0.00     0.262 C 
ENDROOT
BRANCH   1   6
HETATM    6  C   UNL     1      44.280 -16.002  -9.739  1.00  0.00     0.067 C 
BRANCH   6   7
HETATM    7  C   UNL     1      43.516 -14.758  -9.280  1.00  0.00     0.186 C 
BRANCH   7   8
HETATM    8  N   UNL     1      42.694 -15.135  -8.129  1.00  0.00    -0.075 N 
ATOM      9  HN3 UNL     1      42.204 -14.341  -7.717  1.00  0.00     0.274 HD
ATOM     10  HN2 UNL     1      41.873 -15.680  -8.392  1.00  0.00     0.274 HD
ATOM     11  HN1 UNL     1      43.294 -15.620  -7.462  1.00  0.00     0.274 HD
ENDBRANCH   7   8
BRANCH   7  12
HETATM   12  C   UNL     1      44.501 -13.672  -8.848  1.00  0.00     0.035 C 
BRANCH  12  13
HETATM   13  C   UNL     1      44.309 -13.309  -7.371  1.00  0.00     0.046 C 
BRANCH  13  14
HETATM   14  CA  UNL     1      45.663 -13.212  -6.652  1.00  0.00     0.283 C 
BRANCH  14  15
HETATM   15  C   UNL     1      45.718 -14.220  -5.502  1.00  0.00     0.204 C 
HETATM   16  OXT UNL     1      46.319 -15.314  -5.667  1.00  0.00    -0.646 OA
HETATM   17  O   UNL     1      45.160 -13.988  -4.394  1.00  0.00    -0.646 OA
ENDBRANCH  14  15
BRANCH  14  18
HETATM   18  N   UNL     1      46.770 -13.428  -7.587  1.00  0.00    -0.065 N 
ATOM     19  HN3 UNL     1      47.673 -13.232  -7.154  1.00  0.00     0.275 HD
ATOM     20  HN2 UNL     1      46.907 -14.418  -7.787  1.00  0.00     0.275 HD
ATOM     21  HN1 UNL     1      46.637 -12.886  -8.441  1.00  0.00     0.275 HD
ENDBRANCH  14  18
ENDBRANCH  13  14
ENDBRANCH  12  13
ENDBRANCH   7  12
ENDBRANCH   6   7
ENDBRANCH   1   6
BRANCH   3  22
HETATM   22  O   UNL     1      47.454 -16.265  -8.146  1.00  0.00    -0.390 OA
ATOM     23  HO  UNL     1      48.290 -16.036  -8.535  1.00  0.00     0.210 HD
ENDBRANCH   3  22
BRANCH   4  24
HETATM   24  O   UNL     1      48.131 -18.801  -8.796  1.00  0.00    -0.388 OA
ATOM     25  HO  UNL     1      48.755 -18.278  -9.287  1.00  0.00     0.210 HD
ENDBRANCH   4  24
BRANCH   5  26
HETATM   26  N   UNL     1      45.441 -20.150  -8.281  1.00  0.00    -0.297 N 
HETATM   27  C   UNL     1      45.081 -20.929  -7.242  1.00  0.00     0.142 A 
HETATM   28  N   UNL     1      45.048 -20.728  -5.903  1.00  0.00    -0.336 N 
HETATM   29  C   UNL     1      44.705 -22.112  -7.740  1.00  0.00     0.119 A 
HETATM   30  C   UNL     1      44.636 -21.723  -5.081  1.00  0.00     0.183 A 
ATOM     31  HN  UNL     1      45.334 -19.828  -5.514  1.00  0.00     0.168 HD
HETATM   32  N   UNL     1      44.268 -22.926  -5.586  1.00  0.00    -0.339 N 
HETATM   33  C   UNL     1      44.292 -23.117  -6.898  1.00  0.00     0.148 A 
ATOM     34  HN  UNL     1      43.976 -23.678  -4.962  1.00  0.00     0.167 HD
HETATM   35  N   UNL     1      43.862 -24.446  -7.259  1.00  0.00    -0.080 NA
HETATM   36  N   UNL     1      44.824 -22.079  -9.081  1.00  0.00    -0.346 N 
HETATM   37  C   UNL     1      45.274 -20.866  -9.408  1.00  0.00     0.188 A 
ATOM     38  HN  UNL     1      44.610 -22.840  -9.726  1.00  0.00     0.167 HD
ENDBRANCH   5  26
TORSDOF 11
ENDMDL
MODEL 4
REMARK VINA RESULT:    -7.289      2.620      8.234
REMARK INTER + INTRA:         -12.243
REMARK INTER:                 -10.395
REMARK INTRA:                  -1.848
REMARK UNBOUND:                -1.119
REMARK  11 active torsions:
REMARK  status: ('A' for Active; 'I' for Inactive)
REMARK    1  A    between atoms: N_1  and  CA_5 
REMARK    2  A    between atoms: CA_5  and  C_9 
REMARK    3  A    between atoms: CA_5  and  C_6 
REMARK    4  A    between atoms: C_9  and  C_10 
REMARK    5  A    between atoms: C_10  and  C_11 
REMARK    6  A    between atoms: C_11  and  C_16 
REMARK    7  A    between atoms: C_11  and  N_12 
REMARK    8  A    between atoms: C_16  and  C_17 
REMARK    9  A    between atoms: C_19  and  O_20 
REMARK   10  A    between atoms: C_22  and  O_23 
REMARK   11  A    between atoms: C_25  and  N_26 
ROOT
HETATM    1  C   UNL     1      45.377 -15.908  -8.149  1.00  0.00     0.157 C 
HETATM    2  O   UNL     1      45.051 -17.110  -8.596  1.00  0.00    -0.355 OA
HETATM    3  C   UNL     1      46.215 -16.127  -6.867  1.00  0.00     0.180 C 
HETATM    4  C   UNL     1      46.357 -17.660  -6.827  1.00  0.00     0.198 C 
HETATM    5  C   UNL     1      45.244 -18.115  -7.375  1.00  0.00     0.262 C 
ENDROOT
BRANCH   1   6
HETATM    6  C   UNL     1      46.179 -15.155  -9.247  1.00  0.00     0.067 C 
BRANCH   6   7
HETATM    7  C   UNL     1      45.447 -13.923  -9.783  1.00  0.00     0.186 C 
BRANCH   7   8
HETATM    8  N   UNL     1      44.105 -14.340 -10.191  1.00  0.00    -0.075 N 
ATOM      9  HN3 UNL     1      43.992 -14.371 -11.204  1.00  0.00     0.274 HD
ATOM     10  HN2 UNL     1      43.924 -15.326 -10.004  1.00  0.00     0.274 HD
ATOM     11  HN1 UNL     1      43.433 -13.721  -9.737  1.00  0.00     0.274 HD
ENDBRANCH   7   8
BRANCH   7  12
HETATM   12  C   UNL     1      45.323 -12.871  -8.681  1.00  0.00     0.035 C 
BRANCH  12  13
HETATM   13  C   UNL     1      43.880 -12.364  -8.563  1.00  0.00     0.046 C 
BRANCH  13  14
HETATM   14  CA  UNL     1      43.362 -12.523  -7.125  1.00  0.00     0.283 C 
BRANCH  14  15
HETATM   15  C   UNL     1      42.152 -13.458  -7.106  1.00  0.00     0.204 C 
HETATM   16  OXT UNL     1      42.164 -14.500  -7.814  1.00  0.00    -0.646 OA
HETATM   17  O   UNL     1      41.131 -13.202  -6.409  1.00  0.00    -0.646 OA
ENDBRANCH  14  15
BRANCH  14  18
HETATM   18  N   UNL     1      44.418 -13.019  -6.239  1.00  0.00    -0.065 N 
ATOM     19  HN3 UNL     1      45.158 -12.328  -6.109  1.00  0.00     0.275 HD
ATOM     20  HN2 UNL     1      44.099 -13.086  -5.273  1.00  0.00     0.275 HD
ATOM     21  HN1 UNL     1      44.789 -13.908  -6.575  1.00  0.00     0.275 HD
ENDBRANCH  14  18
ENDBRANCH  13  14
ENDBRANCH  12  13
ENDBRANCH   7  12
ENDBRANCH   6   7
ENDBRANCH   1   6
BRANCH   3  22
HETATM   22  O   UNL     1      45.550 -15.635  -5.774  1.00  0.00    -0.390 OA
ATOM     23  HO  UNL     1      44.929 -14.953  -6.004  1.00  0.00     0.210 HD
ENDBRANCH   3  22
BRANCH   4  24
HETATM   24  O   UNL     1      46.537 -18.128  -5.428  1.00  0.00    -0.388 OA
ATOM     25  HO  UNL     1      46.899 -19.006  -5.381  1.00  0.00     0.210 HD
ENDBRANCH   4  24
BRANCH   5  26
HETATM   26  N   UNL     1      45.392 -19.439  -7.936  1.00  0.00    -0.297 N 
HETATM   27  C   UNL     1      45.212 -20.548  -7.193  1.00  0.00     0.142 A 
HETATM   28  N   UNL     1      44.898 -20.749  -5.892  1.00  0.00    -0.336 N 
HETATM   29  C   UNL     1      45.416 -21.602  -7.992  1.00  0.00     0.119 A 
HETATM   30  C   UNL     1      44.791 -22.011  -5.410  1.00  0.00     0.183 A 
ATOM     31  HN  UNL     1      44.741 -19.951  -5.275  1.00  0.00     0.168 HD
HETATM   32  N   UNL     1      45.010 -23.078  -6.218  1.00  0.00    -0.339 N 
HETATM   33  C   UNL     1      45.310 -22.878  -7.494  1.00  0.00     0.148 A 
ATOM     34  HN  UNL     1      44.946 -24.025  -5.847  1.00  0.00     0.167 HD
HETATM   35  N   UNL     1      45.501 -24.119  -8.205  1.00  0.00    -0.080 NA
HETATM   36  N   UNL     1      45.718 -21.161  -9.229  1.00  0.00    -0.346 N 
HETATM   37  C   UNL     1      45.697 -19.827  -9.188  1.00  0.00     0.188 A 
ATOM     38  HN  UNL     1      45.924 -21.738 -10.044  1.00  0.00     0.167 HD
ENDBRANCH   5  26
TORSDOF 11
ENDMDL
MODEL 5
REMARK VINA RESULT:    -7.282      1.554      2.564
REMARK INTER + INTRA:         -12.233
REMARK INTER:                 -11.492
REMARK INTRA:                  -0.741
REMARK UNBOUND:                -1.119
REMARK  11 active torsions:
REMARK  status: ('A' for Active; 'I' for Inactive)
REMARK    1  A    between atoms: N_1  and  CA_5 
REMARK    2  A    between atoms: CA_5  and  C_9 
REMARK    3  A    between atoms: CA_5  and  C_6 
REMARK    4  A    between atoms: C_9  and  C_10 
REMARK    5  A    between atoms: C_10  and  C_11 
REMARK    6  A    between atoms: C_11  and  C_16 
REMARK    7  A    between atoms: C_11  and  N_12 
REMARK    8  A    between atoms: C_16  and  C_17 
REMARK    9  A    between atoms: C_19  and  O_20 
REMARK   10  A    between atoms: C_22  and  O_23 
REMARK   11  A    between atoms: C_25  and  N_26 
ROOT
HETATM    1  C   UNL     1      45.468 -17.965  -8.659  1.00  0.00     0.157 C 
HETATM    2  O   UNL     1      44.590 -16.982  -8.775  1.00  0.00    -0.355 OA
HETATM    3  C   UNL     1      46.550 -17.474  -7.667  1.00  0.00     0.180 C 
HETATM    4  C   UNL     1      45.983 -16.117  -7.210  1.00  0.00     0.198 C 
HETATM    5  C   UNL     1      45.316 -15.662  -8.256  1.00  0.00     0.262 C 
ENDROOT
BRANCH   1   6
HETATM    6  C   UNL     1      44.743 -19.240  -8.146  1.00  0.00     0.067 C 
BRANCH   6   7
HETATM    7  C   UNL     1      45.558 -20.518  -8.359  1.00  0.00     0.186 C 
BRANCH   7   8
HETATM    8  N   UNL     1      46.507 -20.270  -9.445  1.00  0.00    -0.075 N 
ATOM      9  HN3 UNL     1      47.386 -19.870  -9.118  1.00  0.00     0.274 HD
ATOM     10  HN2 UNL     1      46.887 -21.130  -9.841  1.00  0.00     0.274 HD
ATOM     11  HN1 UNL     1      46.041 -19.687 -10.141  1.00  0.00     0.274 HD
ENDBRANCH   7   8
BRANCH   7  12
HETATM   12  C   UNL     1      46.338 -20.855  -7.089  1.00  0.00     0.035 C 
BRANCH  12  13
HETATM   13  C   UNL     1      46.079 -22.301  -6.650  1.00  0.00     0.046 C 
BRANCH  13  14
HETATM   14  CA  UNL     1      44.574 -22.605  -6.631  1.00  0.00     0.283 C 
BRANCH  14  15
HETATM   15  C   UNL     1      44.299 -23.934  -7.337  1.00  0.00     0.204 C 
HETATM   16  OXT UNL     1      43.176 -24.129  -7.874  1.00  0.00    -0.646 OA
HETATM   17  O   UNL     1      45.166 -24.849  -7.382  1.00  0.00    -0.646 OA
ENDBRANCH  14  15
BRANCH  14  18
HETATM   18  N   UNL     1      44.061 -22.628  -5.259  1.00  0.00    -0.065 N 
ATOM     19  HN3 UNL     1      44.275 -23.509  -4.791  1.00  0.00     0.275 HD
ATOM     20  HN2 UNL     1      44.584 -21.998  -4.651  1.00  0.00     0.275 HD
ATOM     21  HN1 UNL     1      43.061 -22.425  -5.240  1.00  0.00     0.275 HD
ENDBRANCH  14  18
ENDBRANCH  13  14
ENDBRANCH  12  13
ENDBRANCH   7  12
ENDBRANCH   6   7
ENDBRANCH   1   6
BRANCH   3  22
HETATM   22  O   UNL     1      47.758 -17.349  -8.304  1.00  0.00    -0.390 OA
ATOM     23  HO  UNL     1      48.451 -17.828  -7.866  1.00  0.00     0.210 HD
ENDBRANCH   3  22
BRANCH   4  24
HETATM   24  O   UNL     1      47.084 -15.208  -6.796  1.00  0.00    -0.388 OA
ATOM     25  HO  UNL     1      46.783 -14.506  -6.230  1.00  0.00     0.210 HD
ENDBRANCH   4  24
BRANCH   5  26
HETATM   26  N   UNL     1      44.279 -14.722  -7.898  1.00  0.00    -0.297 N 
HETATM   27  C   UNL     1      44.553 -13.429  -7.636  1.00  0.00     0.142 A 
HETATM   28  N   UNL     1      45.701 -12.712  -7.617  1.00  0.00    -0.336 N 
HETATM   29  C   UNL     1      43.395 -12.827  -7.342  1.00  0.00     0.119 A 
HETATM   30  C   UNL     1      45.670 -11.395  -7.302  1.00  0.00     0.183 A 
ATOM     31  HN  UNL     1      46.589 -13.164  -7.839  1.00  0.00     0.168 HD
HETATM   32  N   UNL     1      44.497 -10.789  -6.991  1.00  0.00    -0.339 N 
HETATM   33  C   UNL     1      43.373 -11.491  -7.019  1.00  0.00     0.148 A 
ATOM     34  HN  UNL     1      44.480  -9.801  -6.737  1.00  0.00     0.167 HD
HETATM   35  N   UNL     1      42.225 -10.688  -6.671  1.00  0.00    -0.080 NA
HETATM   36  N   UNL     1      42.399 -13.731  -7.421  1.00  0.00    -0.346 N 
HETATM   37  C   UNL     1      42.950 -14.896  -7.768  1.00  0.00     0.188 A 
ATOM     38  HN  UNL     1      41.409 -13.557  -7.247  1.00  0.00     0.167 HD
ENDBRANCH   5  26
TORSDOF 11
ENDMDL
MODEL 6
REMARK VINA RESULT:    -7.219      1.558      1.896
REMARK INTER + INTRA:         -12.137
REMARK INTER:                 -11.092
REMARK INTRA:                  -1.045
REMARK UNBOUND:                -1.119
REMARK  11 active torsions:
REMARK  status: ('A' for Active; 'I' for Inactive)
REMARK    1  A    between atoms: N_1  and  CA_5 
REMARK    2  A    between atoms: CA_5  and  C_9 
REMARK    3  A    between atoms: CA_5  and  C_6 
REMARK    4  A    between atoms: C_9  and  C_10 
REMARK    5  A    between atoms: C_10  and  C_11 
REMARK    6  A    between atoms: C_11  and  C_16 
REMARK    7  A    between atoms: C_11  and  N_12 
REMARK    8  A    between atoms: C_16  and  C_17 
REMARK    9  A    between atoms: C_19  and  O_20 
REMARK   10  A    between atoms: C_22  and  O_23 
REMARK   11  A    between atoms: C_25  and  N_26 
ROOT
HETATM    1  C   UNL     1      44.778 -18.330  -8.652  1.00  0.00     0.157 C 
HETATM    2  O   UNL     1      45.024 -17.209  -7.994  1.00  0.00    -0.355 OA
HETATM    3  C   UNL     1      44.098 -17.920  -9.981  1.00  0.00     0.180 C 
HETATM    4  C   UNL     1      44.168 -16.383  -9.923  1.00  0.00     0.198 C 
HETATM    5  C   UNL     1      44.089 -16.091  -8.637  1.00  0.00     0.262 C 
ENDROOT
BRANCH   1   6
HETATM    6  C   UNL     1      46.114 -19.087  -8.891  1.00  0.00     0.067 C 
BRANCH   6   7
HETATM    7  C   UNL     1      46.453 -20.071  -7.770  1.00  0.00     0.186 C 
BRANCH   7   8
HETATM    8  N   UNL     1      46.185 -19.407  -6.494  1.00  0.00    -0.075 N 
ATOM      9  HN3 UNL     1      46.478 -19.963  -5.690  1.00  0.00     0.274 HD
ATOM     10  HN2 UNL     1      46.792 -18.604  -6.331  1.00  0.00     0.274 HD
ATOM     11  HN1 UNL     1      45.195 -19.166  -6.468  1.00  0.00     0.274 HD
ENDBRANCH   7   8
BRANCH   7  12
HETATM   12  C   UNL     1      45.564 -21.310  -7.878  1.00  0.00     0.035 C 
BRANCH  12  13
HETATM   13  C   UNL     1      44.682 -21.465  -6.633  1.00  0.00     0.046 C 
BRANCH  13  14
HETATM   14  CA  UNL     1      44.873 -22.851  -5.998  1.00  0.00     0.283 C 
BRANCH  14  15
HETATM   15  C   UNL     1      44.440 -23.941  -6.981  1.00  0.00     0.204 C 
HETATM   16  OXT UNL     1      43.264 -23.934  -7.433  1.00  0.00    -0.646 OA
HETATM   17  O   UNL     1      45.228 -24.858  -7.339  1.00  0.00    -0.646 OA
ENDBRANCH  14  15
BRANCH  14  18
HETATM   18  N   UNL     1      46.263 -23.049  -5.580  1.00  0.00    -0.065 N 
ATOM     19  HN3 UNL     1      46.375 -23.905  -5.035  1.00  0.00     0.275 HD
ATOM     20  HN2 UNL     1      46.863 -23.289  -6.369  1.00  0.00     0.275 HD
ATOM     21  HN1 UNL     1      46.612 -22.234  -5.076  1.00  0.00     0.275 HD
ENDBRANCH  14  18
ENDBRANCH  13  14
ENDBRANCH  12  13
ENDBRANCH   7  12
ENDBRANCH   6   7
ENDBRANCH   1   6
BRANCH   3  22
HETATM   22  O   UNL     1      42.809 -18.385 -10.018  1.00  0.00    -0.390 OA
ATOM     23  HO  UNL     1      42.422 -18.452  -9.153  1.00  0.00     0.210 HD
ENDBRANCH   3  22
BRANCH   4  24
HETATM   24  O   UNL     1      43.060 -15.783 -10.713  1.00  0.00    -0.388 OA
ATOM     25  HO  UNL     1      43.064 -16.067 -11.620  1.00  0.00     0.210 HD
ENDBRANCH   4  24
BRANCH   5  26
HETATM   26  N   UNL     1      44.675 -14.811  -8.312  1.00  0.00    -0.297 N 
HETATM   27  C   UNL     1      45.337 -14.606  -7.157  1.00  0.00     0.142 A 
HETATM   28  N   UNL     1      45.612 -15.399  -6.095  1.00  0.00    -0.336 N 
HETATM   29  C   UNL     1      45.756 -13.335  -7.156  1.00  0.00     0.119 A 
HETATM   30  C   UNL     1      46.308 -14.903  -5.043  1.00  0.00     0.183 A 
ATOM     31  HN  UNL     1      45.295 -16.369  -6.086  1.00  0.00     0.168 HD
HETATM   32  N   UNL     1      46.721 -13.612  -5.039  1.00  0.00    -0.339 N 
HETATM   33  C   UNL     1      46.458 -12.839  -6.083  1.00  0.00     0.148 A 
ATOM     34  HN  UNL     1      47.229 -13.237  -4.237  1.00  0.00     0.167 HD
HETATM   35  N   UNL     1      46.977 -11.503  -5.913  1.00  0.00    -0.080 NA
HETATM   36  N   UNL     1      45.366 -12.745  -8.303  1.00  0.00    -0.346 N 
HETATM   37  C   UNL     1      44.704 -13.662  -9.013  1.00  0.00     0.188 A 
ATOM     38  HN  UNL     1      45.543 -11.779  -8.577  1.00  0.00     0.167 HD
ENDBRANCH   5  26
TORSDOF 11
ENDMDL
MODEL 7
REMARK VINA RESULT:    -7.184      2.697      3.207
REMARK INTER + INTRA:         -12.083
REMARK INTER:                 -10.566
REMARK INTRA:                  -1.517
REMARK UNBOUND:                -1.119
REMARK  11 active torsions:
REMARK  status: ('A' for Active; 'I' for Inactive)
REMARK    1  A    between atoms: N_1  and  CA_5 
REMARK    2  A    between atoms: CA_5  and  C_9 
REMARK    3  A    between atoms: CA_5  and  C_6 
REMARK    4  A    between atoms: C_9  and  C_10 
REMARK    5  A    between atoms: C_10  and  C_11 
REMARK    6  A    between atoms: C_11  and  C_16 
REMARK    7  A    between atoms: C_11  and  N_12 
REMARK    8  A    between atoms: C_16  and  C_17 
REMARK    9  A    between atoms: C_19  and  O_20 
REMARK   10  A    between atoms: C_22  and  O_23 
REMARK   11  A    between atoms: C_25  and  N_26 
ROOT
HETATM    1  C   UNL     1      44.280 -18.123  -8.764  1.00  0.00     0.157 C 
HETATM    2  O   UNL     1      44.182 -17.107  -7.923  1.00  0.00    -0.355 OA
HETATM    3  C   UNL     1      45.501 -17.830  -9.668  1.00  0.00     0.180 C 
HETATM    4  C   UNL     1      46.073 -16.545  -9.040  1.00  0.00     0.198 C 
HETATM    5  C   UNL     1      45.019 -15.910  -8.558  1.00  0.00     0.262 C 
ENDROOT
BRANCH   1   6
HETATM    6  C   UNL     1      44.456 -19.440  -7.958  1.00  0.00     0.067 C 
BRANCH   6   7
HETATM    7  C   UNL     1      45.849 -20.053  -8.111  1.00  0.00     0.186 C 
BRANCH   7   8
HETATM    8  N   UNL     1      46.601 -19.770  -6.888  1.00  0.00    -0.075 N 
ATOM      9  HN3 UNL     1      47.384 -19.136  -7.044  1.00  0.00     0.274 HD
ATOM     10  HN2 UNL     1      46.083 -19.186  -6.231  1.00  0.00     0.274 HD
ATOM     11  HN1 UNL     1      46.888 -20.661  -6.483  1.00  0.00     0.274 HD
ENDBRANCH   7   8
BRANCH   7  12
HETATM   12  C   UNL     1      45.735 -21.569  -8.279  1.00  0.00     0.035 C 
BRANCH  12  13
HETATM   13  C   UNL     1      44.376 -22.078  -7.781  1.00  0.00     0.046 C 
BRANCH  13  14
HETATM   14  CA  UNL     1      44.559 -23.132  -6.679  1.00  0.00     0.283 C 
BRANCH  14  15
HETATM   15  C   UNL     1      45.189 -22.491  -5.441  1.00  0.00     0.204 C 
HETATM   16  OXT UNL     1      44.651 -21.473  -4.931  1.00  0.00    -0.646 OA
HETATM   17  O   UNL     1      46.246 -22.949  -4.926  1.00  0.00    -0.646 OA
ENDBRANCH  14  15
BRANCH  14  18
HETATM   18  N   UNL     1      43.283 -23.768  -6.344  1.00  0.00    -0.065 N 
ATOM     19  HN3 UNL     1      43.077 -24.551  -6.966  1.00  0.00     0.275 HD
ATOM     20  HN2 UNL     1      43.336 -24.280  -5.464  1.00  0.00     0.275 HD
ATOM     21  HN1 UNL     1      42.526 -23.085  -6.337  1.00  0.00     0.275 HD
ENDBRANCH  14  18
ENDBRANCH  13  14
ENDBRANCH  12  13
ENDBRANCH   7  12
ENDBRANCH   6   7
ENDBRANCH   1   6
BRANCH   3  22
HETATM   22  O   UNL     1      45.099 -17.643 -10.966  1.00  0.00    -0.390 OA
ATOM     23  HO  UNL     1      44.247 -17.226 -11.025  1.00  0.00     0.210 HD
ENDBRANCH   3  22
BRANCH   4  24
HETATM   24  O   UNL     1      46.802 -15.748 -10.061  1.00  0.00    -0.388 OA
ATOM     25  HO  UNL     1      46.555 -15.981 -10.949  1.00  0.00     0.210 HD
ENDBRANCH   4  24
BRANCH   5  26
HETATM   26  N   UNL     1      45.350 -15.006  -7.480  1.00  0.00    -0.297 N 
HETATM   27  C   UNL     1      45.777 -15.454  -6.284  1.00  0.00     0.142 A 
HETATM   28  N   UNL     1      45.989 -16.694  -5.783  1.00  0.00    -0.336 N 
HETATM   29  C   UNL     1      45.999 -14.385  -5.512  1.00  0.00     0.119 A 
HETATM   30  C   UNL     1      46.425 -16.842  -4.508  1.00  0.00     0.183 A 
ATOM     31  HN  UNL     1      45.822 -17.516  -6.365  1.00  0.00     0.168 HD
HETATM   32  N   UNL     1      46.637 -15.757  -3.723  1.00  0.00    -0.339 N 
HETATM   33  C   UNL     1      46.437 -14.544  -4.219  1.00  0.00     0.148 A 
ATOM     34  HN  UNL     1      46.947 -15.874  -2.759  1.00  0.00     0.167 HD
HETATM   35  N   UNL     1      46.719 -13.511  -3.251  1.00  0.00    -0.080 NA
HETATM   36  N   UNL     1      45.718 -13.271  -6.216  1.00  0.00    -0.346 N 
HETATM   37  C   UNL     1      45.323 -13.661  -7.430  1.00  0.00     0.188 A 
ATOM     38  HN  UNL     1      45.793 -12.310  -5.884  1.00  0.00     0.167 HD
ENDBRANCH   5  26
TORSDOF 11
ENDMDL
MODEL 8
REMARK VINA RESULT:    -7.174      2.531      8.185
REMARK INTER + INTRA:         -12.067
REMARK INTER:                 -10.730
REMARK INTRA:                  -1.337
REMARK UNBOUND:                -1.119
REMARK  11 active torsions:
REMARK  status: ('A' for Active; 'I' for Inactive)
REMARK    1  A    between atoms: N_1  and  CA_5 
REMARK    2  A    between atoms: CA_5  and  C_9 
REMARK    3  A    between atoms: CA_5  and  C_6 
REMARK    4  A    between atoms: C_9  and  C_10 
REMARK    5  A    between atoms: C_10  and  C_11 
REMARK    6  A    between atoms: C_11  and  C_16 
REMARK    7  A    between atoms: C_11  and  N_12 
REMARK    8  A    between atoms: C_16  and  C_17 
REMARK    9  A    between atoms: C_19  and  O_20 
REMARK   10  A    between atoms: C_22  and  O_23 
REMARK   11  A    between atoms: C_25  and  N_26 
ROOT
HETATM    1  C   UNL     1      46.109 -17.305  -7.779  1.00  0.00     0.157 C 
HETATM    2  O   UNL     1      46.437 -18.554  -8.071  1.00  0.00    -0.355 OA
HETATM    3  C   UNL     1      44.633 -17.126  -8.209  1.00  0.00     0.180 C 
HETATM    4  C   UNL     1      44.245 -18.550  -8.649  1.00  0.00     0.198 C 
HETATM    5  C   UNL     1      45.362 -19.069  -9.128  1.00  0.00     0.262 C 
ENDROOT
BRANCH   1   6
HETATM    6  C   UNL     1      46.305 -17.068  -6.256  1.00  0.00     0.067 C 
BRANCH   6   7
HETATM    7  C   UNL     1      45.877 -15.669  -5.809  1.00  0.00     0.186 C 
BRANCH   7   8
HETATM    8  N   UNL     1      46.133 -15.558  -4.373  1.00  0.00    -0.075 N 
ATOM      9  HN3 UNL     1      46.844 -16.213  -4.047  1.00  0.00     0.274 HD
ATOM     10  HN2 UNL     1      46.618 -14.696  -4.123  1.00  0.00     0.274 HD
ATOM     11  HN1 UNL     1      45.243 -15.666  -3.886  1.00  0.00     0.274 HD
ENDBRANCH   7   8
BRANCH   7  12
HETATM   12  C   UNL     1      46.704 -14.612  -6.541  1.00  0.00     0.035 C 
BRANCH  12  13
HETATM   13  C   UNL     1      45.923 -13.300  -6.681  1.00  0.00     0.046 C 
BRANCH  13  14
HETATM   14  CA  UNL     1      44.485 -13.568  -7.149  1.00  0.00     0.283 C 
BRANCH  14  15
HETATM   15  C   UNL     1      43.501 -12.748  -6.312  1.00  0.00     0.204 C 
HETATM   16  OXT UNL     1      43.164 -13.163  -5.171  1.00  0.00    -0.646 OA
HETATM   17  O   UNL     1      43.005 -11.671  -6.744  1.00  0.00    -0.646 OA
ENDBRANCH  14  15
BRANCH  14  18
HETATM   18  N   UNL     1      44.332 -13.269  -8.575  1.00  0.00    -0.065 N 
ATOM     19  HN3 UNL     1      44.849 -13.929  -9.156  1.00  0.00     0.275 HD
ATOM     20  HN2 UNL     1      43.390 -13.477  -8.905  1.00  0.00     0.275 HD
ATOM     21  HN1 UNL     1      44.596 -12.304  -8.775  1.00  0.00     0.275 HD
ENDBRANCH  14  18
ENDBRANCH  13  14
ENDBRANCH  12  13
ENDBRANCH   7  12
ENDBRANCH   6   7
ENDBRANCH   1   6
BRANCH   3  22
HETATM   22  O   UNL     1      44.543 -16.219  -9.233  1.00  0.00    -0.390 OA
ATOM     23  HO  UNL     1      43.646 -15.970  -9.420  1.00  0.00     0.210 HD
ENDBRANCH   3  22
BRANCH   4  24
HETATM   24  O   UNL     1      43.159 -18.502  -9.662  1.00  0.00    -0.388 OA
ATOM     25  HO  UNL     1      42.871 -19.368  -9.929  1.00  0.00     0.210 HD
ENDBRANCH   4  24
BRANCH   5  26
HETATM   26  N   UNL     1      45.378 -20.514  -9.077  1.00  0.00    -0.297 N 
HETATM   27  C   UNL     1      45.182 -21.186  -7.926  1.00  0.00     0.142 A 
HETATM   28  N   UNL     1      44.955 -20.790  -6.651  1.00  0.00    -0.336 N 
HETATM   29  C   UNL     1      45.254 -22.491  -8.208  1.00  0.00     0.119 A 
HETATM   30  C   UNL     1      44.801 -21.717  -5.674  1.00  0.00     0.183 A 
ATOM     31  HN  UNL     1      44.899 -19.797  -6.427  1.00  0.00     0.168 HD
HETATM   32  N   UNL     1      44.887 -23.039  -5.960  1.00  0.00    -0.339 N 
HETATM   33  C   UNL     1      45.101 -23.424  -7.210  1.00  0.00     0.148 A 
ATOM     34  HN  UNL     1      44.788 -23.733  -5.218  1.00  0.00     0.167 HD
HETATM   35  N   UNL     1      45.154 -24.861  -7.333  1.00  0.00    -0.080 NA
HETATM   36  N   UNL     1      45.490 -22.642  -9.526  1.00  0.00    -0.346 N 
HETATM   37  C   UNL     1      45.561 -21.419 -10.057  1.00  0.00     0.188 A 
ATOM     38  HN  UNL     1      45.594 -23.525 -10.025  1.00  0.00     0.167 HD
ENDBRANCH   5  26
TORSDOF 11
ENDMDL
MODEL 9
REMARK VINA RESULT:    -7.103      2.112      2.656
REMARK INTER + INTRA:         -11.960
REMARK INTER:                 -10.622
REMARK INTRA:                  -1.338
REMARK UNBOUND:                -1.119
REMARK  11 active torsions:
REMARK  status: ('A' for Active; 'I' for Inactive)
REMARK    1  A    between atoms: N_1  and  CA_5 
REMARK    2  A    between atoms: CA_5  and  C_9 
REMARK    3  A    between atoms: CA_5  and  C_6 
REMARK    4  A    between atoms: C_9  and  C_10 
REMARK    5  A    between atoms: C_10  and  C_11 
REMARK    6  A    between atoms: C_11  and  C_16 
REMARK    7  A    between atoms: C_11  and  N_12 
REMARK    8  A    between atoms: C_16  and  C_17 
REMARK    9  A    between atoms: C_19  and  O_20 
REMARK   10  A    between atoms: C_22  and  O_23 
REMARK   11  A    between atoms: C_25  and  N_26 
ROOT
HETATM    1  C   UNL     1      44.125 -19.792  -9.504  1.00  0.00     0.157 C 
HETATM    2  O   UNL     1      44.611 -19.040  -8.530  1.00  0.00    -0.355 OA
HETATM    3  C   UNL     1      43.635 -18.823 -10.606  1.00  0.00     0.180 C 
HETATM    4  C   UNL     1      44.082 -17.454 -10.060  1.00  0.00     0.198 C 
HETATM    5  C   UNL     1      44.015 -17.578  -8.746  1.00  0.00     0.262 C 
ENDROOT
BRANCH   1   6
HETATM    6  C   UNL     1      45.241 -20.743 -10.020  1.00  0.00     0.067 C 
BRANCH   6   7
HETATM    7  C   UNL     1      44.844 -22.219  -9.959  1.00  0.00     0.186 C 
BRANCH   7   8
HETATM    8  N   UNL     1      46.026 -23.016 -10.293  1.00  0.00    -0.075 N 
ATOM      9  HN3 UNL     1      46.851 -22.740  -9.762  1.00  0.00     0.274 HD
ATOM     10  HN2 UNL     1      45.963 -23.977  -9.956  1.00  0.00     0.274 HD
ATOM     11  HN1 UNL     1      46.167 -22.959 -11.301  1.00  0.00     0.274 HD
ENDBRANCH   7   8
BRANCH   7  12
HETATM   12  C   UNL     1      44.391 -22.578  -8.544  1.00  0.00     0.035 C 
BRANCH  12  13
HETATM   13  C   UNL     1      45.579 -22.609  -7.576  1.00  0.00     0.046 C 
BRANCH  13  14
HETATM   14  CA  UNL     1      45.413 -21.551  -6.474  1.00  0.00     0.283 C 
BRANCH  14  15
HETATM   15  C   UNL     1      45.369 -22.227  -5.102  1.00  0.00     0.204 C 
HETATM   16  OXT UNL     1      46.319 -22.977  -4.752  1.00  0.00    -0.646 OA
HETATM   17  O   UNL     1      44.396 -22.063  -4.316  1.00  0.00    -0.646 OA
ENDBRANCH  14  15
BRANCH  14  18
HETATM   18  N   UNL     1      46.490 -20.559  -6.533  1.00  0.00    -0.065 N 
ATOM     19  HN3 UNL     1      47.050 -20.660  -7.379  1.00  0.00     0.275 HD
ATOM     20  HN2 UNL     1      46.128 -19.620  -6.698  1.00  0.00     0.275 HD
ATOM     21  HN1 UNL     1      47.067 -20.597  -5.693  1.00  0.00     0.275 HD
ENDBRANCH  14  18
ENDBRANCH  13  14
ENDBRANCH  12  13
ENDBRANCH   7  12
ENDBRANCH   6   7
ENDBRANCH   1   6
BRANCH   3  22
HETATM   22  O   UNL     1      42.274 -18.911 -10.746  1.00  0.00    -0.390 OA
ATOM     23  HO  UNL     1      41.910 -18.180 -11.231  1.00  0.00     0.210 HD
ENDBRANCH   3  22
BRANCH   4  24
HETATM   24  O   UNL     1      43.198 -16.375 -10.576  1.00  0.00    -0.388 OA
ATOM     25  HO  UNL     1      42.516 -16.707 -11.148  1.00  0.00     0.210 HD
ENDBRANCH   4  24
BRANCH   5  26
HETATM   26  N   UNL     1      44.886 -16.660  -8.048  1.00  0.00    -0.297 N 
HETATM   27  C   UNL     1      44.485 -15.418  -7.714  1.00  0.00     0.142 A 
HETATM   28  N   UNL     1      43.330 -14.736  -7.903  1.00  0.00    -0.336 N 
HETATM   29  C   UNL     1      45.505 -14.824  -7.084  1.00  0.00     0.119 A 
HETATM   30  C   UNL     1      43.216 -13.463  -7.453  1.00  0.00     0.183 A 
ATOM     31  HN  UNL     1      42.547 -15.181  -8.384  1.00  0.00     0.168 HD
HETATM   32  N   UNL     1      44.255 -12.859  -6.826  1.00  0.00    -0.339 N 
HETATM   33  C   UNL     1      45.382 -13.531  -6.635  1.00  0.00     0.148 A 
ATOM     34  HN  UNL     1      44.171 -11.894  -6.505  1.00  0.00     0.167 HD
HETATM   35  N   UNL     1      46.374 -12.740  -5.946  1.00  0.00    -0.080 NA
HETATM   36  N   UNL     1      46.539 -15.686  -7.018  1.00  0.00    -0.346 N 
HETATM   37  C   UNL     1      46.148 -16.816  -7.610  1.00  0.00     0.188 A 
ATOM     38  HN  UNL     1      47.449 -15.507  -6.594  1.00  0.00     0.167 HD
ENDBRANCH   5  26
TORSDOF 11
ENDMDL
MODEL 10
REMARK VINA RESULT:    -7.062      2.300      3.111
REMARK INTER + INTRA:         -11.897
REMARK INTER:                 -10.561
REMARK INTRA:                  -1.335
REMARK UNBOUND:                -1.119
REMARK  11 active torsions:
REMARK  status: ('A' for Active; 'I' for Inactive)
REMARK    1  A    between atoms: N_1  and  CA_5 
REMARK    2  A    between atoms: CA_5  and  C_9 
REMARK    3  A    between atoms: CA_5  and  C_6 
REMARK    4  A    between atoms: C_9  and  C_10 
REMARK    5  A    between atoms: C_10  and  C_11 
REMARK    6  A    between atoms: C_11  and  C_16 
REMARK    7  A    between atoms: C_11  and  N_12 
REMARK    8  A    between atoms: C_16  and  C_17 
REMARK    9  A    between atoms: C_19  and  O_20 
REMARK   10  A    between atoms: C_22  and  O_23 
REMARK   11  A    between atoms: C_25  and  N_26 
ROOT
HETATM    1  C   UNL     1      46.217 -18.520  -9.566  1.00  0.00     0.157 C 
HETATM    2  O   UNL     1      46.309 -17.244  -9.227  1.00  0.00    -0.355 OA
HETATM    3  C   UNL     1      46.018 -19.311  -8.251  1.00  0.00     0.180 C 
HETATM    4  C   UNL     1      45.898 -18.186  -7.207  1.00  0.00     0.198 C 
HETATM    5  C   UNL     1      46.660 -17.212  -7.674  1.00  0.00     0.262 C 
ENDROOT
BRANCH   1   6
HETATM    6  C   UNL     1      45.022 -18.705 -10.543  1.00  0.00     0.067 C 
BRANCH   6   7
HETATM    7  C   UNL     1      43.986 -19.711 -10.037  1.00  0.00     0.186 C 
BRANCH   7   8
HETATM    8  N   UNL     1      42.658 -19.186 -10.356  1.00  0.00    -0.075 N 
ATOM      9  HN3 UNL     1      42.170 -19.745 -11.056  1.00  0.00     0.274 HD
ATOM     10  HN2 UNL     1      41.991 -19.310  -9.594  1.00  0.00     0.274 HD
ATOM     11  HN1 UNL     1      42.765 -18.210 -10.633  1.00  0.00     0.274 HD
ENDBRANCH   7   8
BRANCH   7  12
HETATM   12  C   UNL     1      44.171 -21.051 -10.750  1.00  0.00     0.035 C 
BRANCH  12  13
HETATM   13  C   UNL     1      43.545 -22.195  -9.943  1.00  0.00     0.046 C 
BRANCH  13  14
HETATM   14  CA  UNL     1      44.528 -22.720  -8.886  1.00  0.00     0.283 C 
BRANCH  14  15
HETATM   15  C   UNL     1      44.060 -24.081  -8.367  1.00  0.00     0.204 C 
HETATM   16  OXT UNL     1      42.826 -24.330  -8.309  1.00  0.00    -0.646 OA
HETATM   17  O   UNL     1      44.880 -24.958  -7.980  1.00  0.00    -0.646 OA
ENDBRANCH  14  15
BRANCH  14  18
HETATM   18  N   UNL     1      45.885 -22.809  -9.430  1.00  0.00    -0.065 N 
ATOM     19  HN3 UNL     1      46.334 -21.893  -9.475  1.00  0.00     0.275 HD
ATOM     20  HN2 UNL     1      46.524 -23.262  -8.778  1.00  0.00     0.275 HD
ATOM     21  HN1 UNL     1      45.884 -23.272 -10.339  1.00  0.00     0.275 HD
ENDBRANCH  14  18
ENDBRANCH  13  14
ENDBRANCH  12  13
ENDBRANCH   7  12
ENDBRANCH   6   7
ENDBRANCH   1   6
BRANCH   3  22
HETATM   22  O   UNL     1      47.095 -20.127  -8.020  1.00  0.00    -0.390 OA
ATOM     23  HO  UNL     1      46.867 -20.894  -7.507  1.00  0.00     0.210 HD
ENDBRANCH   3  22
BRANCH   4  24
HETATM   24  O   UNL     1      46.342 -18.667  -5.872  1.00  0.00    -0.388 OA
ATOM     25  HO  UNL     1      45.715 -18.467  -5.186  1.00  0.00     0.210 HD
ENDBRANCH   4  24
BRANCH   5  26
HETATM   26  N   UNL     1      46.275 -15.909  -7.180  1.00  0.00    -0.297 N 
HETATM   27  C   UNL     1      45.074 -15.369  -7.464  1.00  0.00     0.142 A 
HETATM   28  N   UNL     1      44.016 -15.797  -8.194  1.00  0.00    -0.336 N 
HETATM   29  C   UNL     1      45.021 -14.173  -6.867  1.00  0.00     0.119 A 
HETATM   30  C   UNL     1      42.917 -15.014  -8.312  1.00  0.00     0.183 A 
ATOM     31  HN  UNL     1      44.048 -16.707  -8.654  1.00  0.00     0.168 HD
HETATM   32  N   UNL     1      42.871 -13.797  -7.717  1.00  0.00    -0.339 N 
HETATM   33  C   UNL     1      43.904 -13.384  -6.996  1.00  0.00     0.148 A 
ATOM     34  HN  UNL     1      42.048 -13.203  -7.824  1.00  0.00     0.167 HD
HETATM   35  N   UNL     1      43.680 -12.075  -6.430  1.00  0.00    -0.080 NA
HETATM   36  N   UNL     1      46.178 -13.963  -6.208  1.00  0.00    -0.346 N 
HETATM   37  C   UNL     1      46.944 -15.038  -6.402  1.00  0.00     0.188 A 
ATOM     38  HN  UNL     1      46.422 -13.135  -5.664  1.00  0.00     0.167 HD
ENDBRANCH   5  26
TORSDOF 11
ENDMDL
MODEL 11
REMARK VINA RESULT:    -7.058      3.455      8.601
REMARK INTER + INTRA:         -11.891
REMARK INTER:                 -11.061
REMARK INTRA:                  -0.830
REMARK UNBOUND:                -1.119
REMARK  11 active torsions:
REMARK  status: ('A' for Active; 'I' for Inactive)
REMARK    1  A    between atoms: N_1  and  CA_5 
REMARK    2  A    between atoms: CA_5  and  C_9 
REMARK    3  A    between atoms: CA_5  and  C_6 
REMARK    4  A    between atoms: C_9  and  C_10 
REMARK    5  A    between atoms: C_10  and  C_11 
REMARK    6  A    between atoms: C_11  and  C_16 
REMARK    7  A    between atoms: C_11  and  N_12 
REMARK    8  A    between atoms: C_16  and  C_17 
REMARK    9  A    between atoms: C_19  and  O_20 
REMARK   10  A    between atoms: C_22  and  O_23 
REMARK   11  A    between atoms: C_25  and  N_26 
ROOT
HETATM    1  C   UNL     1      46.079 -17.272  -7.713  1.00  0.00     0.157 C 
HETATM    2  O   UNL     1      46.415 -18.517  -8.010  1.00  0.00    -0.355 OA
HETATM    3  C   UNL     1      44.613 -17.090  -8.173  1.00  0.00     0.180 C 
HETATM    4  C   UNL     1      44.237 -18.509  -8.636  1.00  0.00     0.198 C 
HETATM    5  C   UNL     1      45.364 -19.022  -9.096  1.00  0.00     0.262 C 
ENDROOT
BRANCH   1   6
HETATM    6  C   UNL     1      46.241 -17.050  -6.184  1.00  0.00     0.067 C 
BRANCH   6   7
HETATM    7  C   UNL     1      45.919 -15.619  -5.749  1.00  0.00     0.186 C 
BRANCH   7   8
HETATM    8  N   UNL     1      46.265 -15.490  -4.333  1.00  0.00    -0.075 N 
ATOM      9  HN3 UNL     1      46.062 -14.564  -3.959  1.00  0.00     0.274 HD
ATOM     10  HN2 UNL     1      45.643 -16.022  -3.725  1.00  0.00     0.274 HD
ATOM     11  HN1 UNL     1      47.245 -15.754  -4.225  1.00  0.00     0.274 HD
ENDBRANCH   7   8
BRANCH   7  12
HETATM   12  C   UNL     1      46.761 -14.629  -6.555  1.00  0.00     0.035 C 
BRANCH  12  13
HETATM   13  C   UNL     1      47.613 -13.750  -5.631  1.00  0.00     0.046 C 
BRANCH  13  14
HETATM   14  CA  UNL     1      48.271 -12.606  -6.418  1.00  0.00     0.283 C 
BRANCH  14  15
HETATM   15  C   UNL     1      47.580 -11.281  -6.090  1.00  0.00     0.204 C 
HETATM   16  OXT UNL     1      47.890 -10.667  -5.035  1.00  0.00    -0.646 OA
HETATM   17  O   UNL     1      46.694 -10.794  -6.844  1.00  0.00    -0.646 OA
ENDBRANCH  14  15
BRANCH  14  18
HETATM   18  N   UNL     1      49.706 -12.531  -6.133  1.00  0.00    -0.065 N 
ATOM     19  HN3 UNL     1      50.262 -12.573  -6.988  1.00  0.00     0.275 HD
ATOM     20  HN2 UNL     1      49.978 -11.601  -5.816  1.00  0.00     0.275 HD
ATOM     21  HN1 UNL     1      49.984 -13.252  -5.468  1.00  0.00     0.275 HD
ENDBRANCH  14  18
ENDBRANCH  13  14
ENDBRANCH  12  13
ENDBRANCH   7  12
ENDBRANCH   6   7
ENDBRANCH   1   6
BRANCH   3  22
HETATM   22  O   UNL     1      44.544 -16.172  -9.190  1.00  0.00    -0.390 OA
ATOM     23  HO  UNL     1      43.650 -15.931  -9.402  1.00  0.00     0.210 HD
ENDBRANCH   3  22
BRANCH   4  24
HETATM   24  O   UNL     1      43.173 -18.452  -9.673  1.00  0.00    -0.388 OA
ATOM     25  HO  UNL     1      43.525 -18.383 -10.553  1.00  0.00     0.210 HD
ENDBRANCH   4  24
BRANCH   5  26
HETATM   26  N   UNL     1      45.381 -20.467  -9.060  1.00  0.00    -0.297 N 
HETATM   27  C   UNL     1      45.179 -21.151  -7.917  1.00  0.00     0.142 A 
HETATM   28  N   UNL     1      44.943 -20.769  -6.640  1.00  0.00    -0.336 N 
HETATM   29  C   UNL     1      45.253 -22.454  -8.212  1.00  0.00     0.119 A 
HETATM   30  C   UNL     1      44.784 -21.705  -5.673  1.00  0.00     0.183 A 
ATOM     31  HN  UNL     1      44.886 -19.777  -6.405  1.00  0.00     0.168 HD
HETATM   32  N   UNL     1      44.873 -23.025  -5.972  1.00  0.00    -0.339 N 
HETATM   33  C   UNL     1      45.095 -23.397  -7.225  1.00  0.00     0.148 A 
ATOM     34  HN  UNL     1      44.770 -23.726  -5.238  1.00  0.00     0.167 HD
HETATM   35  N   UNL     1      45.150 -24.832  -7.361  1.00  0.00    -0.080 NA
HETATM   36  N   UNL     1      45.497 -22.591  -9.530  1.00  0.00    -0.346 N 
HETATM   37  C   UNL     1      45.570 -21.362 -10.047  1.00  0.00     0.188 A 
ATOM     38  HN  UNL     1      45.605 -23.469 -10.037  1.00  0.00     0.167 HD
ENDBRANCH   5  26
TORSDOF 11
ENDMDL
MODEL 12
REMARK VINA RESULT:    -6.983      2.504      3.514
REMARK INTER + INTRA:         -11.776
REMARK INTER:                 -10.421
REMARK INTRA:                  -1.356
REMARK UNBOUND:                -1.119
REMARK  11 active torsions:
REMARK  status: ('A' for Active; 'I' for Inactive)
REMARK    1  A    between atoms: N_1  and  CA_5 
REMARK    2  A    between atoms: CA_5  and  C_9 
REMARK    3  A    between atoms: CA_5  and  C_6 
REMARK    4  A    between atoms: C_9  and  C_10 
REMARK    5  A    between atoms: C_10  and  C_11 
REMARK    6  A    between atoms: C_11  and  C_16 
REMARK    7  A    between atoms: C_11  and  N_12 
REMARK    8  A    between atoms: C_16  and  C_17 
REMARK    9  A    between atoms: C_19  and  O_20 
REMARK   10  A    between atoms: C_22  and  O_23 
REMARK   11  A    between atoms: C_25  and  N_26 
ROOT
HETATM    1  C   UNL     1      45.646 -19.967  -9.201  1.00  0.00     0.157 C 
HETATM    2  O   UNL     1      45.357 -18.687  -9.370  1.00  0.00    -0.355 OA
HETATM    3  C   UNL     1      45.909 -20.163  -7.689  1.00  0.00     0.180 C 
HETATM    4  C   UNL     1      45.571 -18.774  -7.116  1.00  0.00     0.198 C 
HETATM    5  C   UNL     1      45.893 -17.927  -8.078  1.00  0.00     0.262 C 
ENDROOT
BRANCH   1   6
HETATM    6  C   UNL     1      44.456 -20.831  -9.702  1.00  0.00     0.067 C 
BRANCH   6   7
HETATM    7  C   UNL     1      44.870 -21.881 -10.735  1.00  0.00     0.186 C 
BRANCH   7   8
HETATM    8  N   UNL     1      46.326 -21.821 -10.877  1.00  0.00    -0.075 N 
ATOM      9  HN3 UNL     1      46.645 -22.117 -11.798  1.00  0.00     0.274 HD
ATOM     10  HN2 UNL     1      46.680 -20.865 -10.911  1.00  0.00     0.274 HD
ATOM     11  HN1 UNL     1      46.737 -22.368 -10.121  1.00  0.00     0.274 HD
ENDBRANCH   7   8
BRANCH   7  12
HETATM   12  C   UNL     1      44.479 -23.275 -10.245  1.00  0.00     0.035 C 
BRANCH  12  13
HETATM   13  C   UNL     1      45.500 -23.810  -9.233  1.00  0.00     0.046 C 
BRANCH  13  14
HETATM   14  CA  UNL     1      44.793 -24.378  -7.993  1.00  0.00     0.283 C 
BRANCH  14  15
HETATM   15  C   UNL     1      45.057 -23.479  -6.783  1.00  0.00     0.204 C 
HETATM   16  OXT UNL     1      44.099 -22.851  -6.259  1.00  0.00    -0.646 OA
HETATM   17  O   UNL     1      46.217 -23.338  -6.307  1.00  0.00    -0.646 OA
ENDBRANCH  14  15
BRANCH  14  18
HETATM   18  N   UNL     1      43.354 -24.523  -8.230  1.00  0.00    -0.065 N 
ATOM     19  HN3 UNL     1      42.916 -23.628  -8.447  1.00  0.00     0.275 HD
ATOM     20  HN2 UNL     1      43.164 -25.005  -9.108  1.00  0.00     0.275 HD
ATOM     21  HN1 UNL     1      42.899 -24.984  -7.442  1.00  0.00     0.275 HD
ENDBRANCH  14  18
ENDBRANCH  13  14
ENDBRANCH  12  13
ENDBRANCH   7  12
ENDBRANCH   6   7
ENDBRANCH   1   6
BRANCH   3  22
HETATM   22  O   UNL     1      47.217 -20.513  -7.475  1.00  0.00    -0.390 OA
ATOM     23  HO  UNL     1      47.645 -19.950  -6.840  1.00  0.00     0.210 HD
ENDBRANCH   3  22
BRANCH   4  24
HETATM   24  O   UNL     1      46.333 -18.530  -5.863  1.00  0.00    -0.388 OA
ATOM     25  HO  UNL     1      45.798 -18.138  -5.182  1.00  0.00     0.210 HD
ENDBRANCH   4  24
BRANCH   5  26
HETATM   26  N   UNL     1      45.171 -16.677  -7.992  1.00  0.00    -0.297 N 
HETATM   27  C   UNL     1      45.613 -15.653  -7.237  1.00  0.00     0.142 A 
HETATM   28  N   UNL     1      46.693 -15.492  -6.436  1.00  0.00    -0.336 N 
HETATM   29  C   UNL     1      44.736 -14.651  -7.369  1.00  0.00     0.119 A 
HETATM   30  C   UNL     1      46.877 -14.323  -5.777  1.00  0.00     0.183 A 
ATOM     31  HN  UNL     1      47.366 -16.252  -6.328  1.00  0.00     0.168 HD
HETATM   32  N   UNL     1      45.980 -13.313  -5.903  1.00  0.00    -0.339 N 
HETATM   33  C   UNL     1      44.929 -13.470  -6.695  1.00  0.00     0.148 A 
ATOM     34  HN  UNL     1      46.114 -12.441  -5.391  1.00  0.00     0.167 HD
HETATM   35  N   UNL     1      44.088 -12.297  -6.716  1.00  0.00    -0.080 NA
HETATM   36  N   UNL     1      43.752 -15.039  -8.204  1.00  0.00    -0.346 N 
HETATM   37  C   UNL     1      44.029 -16.287  -8.588  1.00  0.00     0.188 A 
ATOM     38  HN  UNL     1      42.946 -14.483  -8.489  1.00  0.00     0.167 HD
ENDBRANCH   5  26
TORSDOF 11
ENDMDL
MODEL 13
REMARK VINA RESULT:    -6.951      2.720      8.544
REMARK INTER + INTRA:         -11.727
REMARK INTER:                 -10.017
REMARK INTRA:                  -1.710
REMARK UNBOUND:                -1.119
REMARK  11 active torsions:
REMARK  status: ('A' for Active; 'I' for Inactive)
REMARK    1  A    between atoms: N_1  and  CA_5 
REMARK    2  A    between atoms: CA_5  and  C_9 
REMARK    3  A    between atoms: CA_5  and  C_6 
REMARK    4  A    between atoms: C_9  and  C_10 
REMARK    5  A    between atoms: C_10  and  C_11 
REMARK    6  A    between atoms: C_11  and  C_16 
REMARK    7  A    between atoms: C_11  and  N_12 
REMARK    8  A    between atoms: C_16  and  C_17 
REMARK    9  A    between atoms: C_19  and  O_20 
REMARK   10  A    between atoms: C_22  and  O_23 
REMARK   11  A    between atoms: C_25  and  N_26 
ROOT
HETATM    1  C   UNL     1      44.974 -17.411  -7.852  1.00  0.00     0.157 C 
HETATM    2  O   UNL     1      44.371 -18.384  -8.515  1.00  0.00    -0.355 OA
HETATM    3  C   UNL     1      46.243 -18.032  -7.219  1.00  0.00     0.180 C 
HETATM    4  C   UNL     1      46.231 -19.460  -7.795  1.00  0.00     0.198 C 
HETATM    5  C   UNL     1      44.950 -19.752  -7.941  1.00  0.00     0.262 C 
ENDROOT
BRANCH   1   6
HETATM    6  C   UNL     1      45.319 -16.259  -8.836  1.00  0.00     0.067 C 
BRANCH   6   7
HETATM    7  C   UNL     1      44.149 -15.300  -9.068  1.00  0.00     0.186 C 
BRANCH   7   8
HETATM    8  N   UNL     1      43.025 -15.757  -8.250  1.00  0.00    -0.075 N 
ATOM      9  HN3 UNL     1      43.274 -15.878  -7.268  1.00  0.00     0.274 HD
ATOM     10  HN2 UNL     1      42.312 -15.039  -8.121  1.00  0.00     0.274 HD
ATOM     11  HN1 UNL     1      42.656 -16.609  -8.672  1.00  0.00     0.274 HD
ENDBRANCH   7   8
BRANCH   7  12
HETATM   12  C   UNL     1      44.538 -13.889  -8.628  1.00  0.00     0.035 C 
BRANCH  12  13
HETATM   13  C   UNL     1      44.170 -13.649  -7.158  1.00  0.00     0.046 C 
BRANCH  13  14
HETATM   14  CA  UNL     1      45.388 -13.154  -6.364  1.00  0.00     0.283 C 
BRANCH  14  15
HETATM   15  C   UNL     1      46.285 -14.336  -5.991  1.00  0.00     0.204 C 
HETATM   16  OXT UNL     1      45.895 -15.155  -5.116  1.00  0.00    -0.646 OA
HETATM   17  O   UNL     1      47.415 -14.503  -6.526  1.00  0.00    -0.646 OA
ENDBRANCH  14  15
BRANCH  14  18
HETATM   18  N   UNL     1      46.138 -12.151  -7.125  1.00  0.00    -0.065 N 
ATOM     19  HN3 UNL     1      46.740 -11.591  -6.520  1.00  0.00     0.275 HD
ATOM     20  HN2 UNL     1      46.859 -12.580  -7.705  1.00  0.00     0.275 HD
ATOM     21  HN1 UNL     1      45.510 -11.566  -7.676  1.00  0.00     0.275 HD
ENDBRANCH  14  18
ENDBRANCH  13  14
ENDBRANCH  12  13
ENDBRANCH   7  12
ENDBRANCH   6   7
ENDBRANCH   1   6
BRANCH   3  22
HETATM   22  O   UNL     1      46.147 -18.017  -5.851  1.00  0.00    -0.390 OA
ATOM     23  HO  UNL     1      45.398 -18.508  -5.535  1.00  0.00     0.210 HD
ENDBRANCH   3  22
BRANCH   4  24
HETATM   24  O   UNL     1      46.927 -20.396  -6.874  1.00  0.00    -0.388 OA
ATOM     25  HO  UNL     1      47.852 -20.196  -6.782  1.00  0.00     0.210 HD
ENDBRANCH   4  24
BRANCH   5  26
HETATM   26  N   UNL     1      44.714 -20.766  -8.944  1.00  0.00    -0.297 N 
HETATM   27  C   UNL     1      44.737 -22.079  -8.644  1.00  0.00     0.142 A 
HETATM   28  N   UNL     1      44.961 -22.763  -7.497  1.00  0.00    -0.336 N 
HETATM   29  C   UNL     1      44.484 -22.751  -9.773  1.00  0.00     0.119 A 
HETATM   30  C   UNL     1      44.927 -24.117  -7.500  1.00  0.00     0.183 A 
ATOM     31  HN  UNL     1      45.156 -22.258  -6.632  1.00  0.00     0.168 HD
HETATM   32  N   UNL     1      44.683 -24.797  -8.648  1.00  0.00    -0.339 N 
HETATM   33  C   UNL     1      44.454 -24.125  -9.768  1.00  0.00     0.148 A 
ATOM     34  HN  UNL     1      44.675 -25.817  -8.649  1.00  0.00     0.167 HD
HETATM   35  N   UNL     1      44.205 -25.004 -10.885  1.00  0.00    -0.080 NA
HETATM   36  N   UNL     1      44.299 -21.869 -10.775  1.00  0.00    -0.346 N 
HETATM   37  C   UNL     1      44.438 -20.648 -10.256  1.00  0.00     0.188 A 
ATOM     38  HN  UNL     1      44.092 -22.094 -11.748  1.00  0.00     0.167 HD
ENDBRANCH   5  26
TORSDOF 11
ENDMDL
MODEL 14
REMARK VINA RESULT:    -6.947      2.738      8.267
REMARK INTER + INTRA:         -11.722
REMARK INTER:                 -10.335
REMARK INTRA:                  -1.387
REMARK UNBOUND:                -1.119
REMARK  11 active torsions:
REMARK  status: ('A' for Active; 'I' for Inactive)
REMARK    1  A    between atoms: N_1  and  CA_5 
REMARK    2  A    between atoms: CA_5  and  C_9 
REMARK    3  A    between atoms: CA_5  and  C_6 
REMARK    4  A    between atoms: C_9  and  C_10 
REMARK    5  A    between atoms: C_10  and  C_11 
REMARK    6  A    between atoms: C_11  and  C_16 
REMARK    7  A    between atoms: C_11  and  N_12 
REMARK    8  A    between atoms: C_16  and  C_17 
REMARK    9  A    between atoms: C_19  and  O_20 
REMARK   10  A    between atoms: C_22  and  O_23 
REMARK   11  A    between atoms: C_25  and  N_26 
ROOT
HETATM    1  C   UNL     1      46.410 -16.780  -8.291  1.00  0.00     0.157 C 
HETATM    2  O   UNL     1      46.774 -18.046  -8.165  1.00  0.00    -0.355 OA
HETATM    3  C   UNL     1      44.877 -16.782  -8.503  1.00  0.00     0.180 C 
HETATM    4  C   UNL     1      44.525 -18.271  -8.331  1.00  0.00     0.198 C 
HETATM    5  C   UNL     1      45.588 -18.921  -8.770  1.00  0.00     0.262 C 
ENDROOT
BRANCH   1   6
HETATM    6  C   UNL     1      46.819 -16.000  -7.011  1.00  0.00     0.067 C 
BRANCH   6   7
HETATM    7  C   UNL     1      45.760 -16.062  -5.908  1.00  0.00     0.186 C 
BRANCH   7   8
HETATM    8  N   UNL     1      46.125 -17.146  -4.995  1.00  0.00    -0.075 N 
ATOM      9  HN3 UNL     1      46.964 -16.940  -4.453  1.00  0.00     0.274 HD
ATOM     10  HN2 UNL     1      45.478 -17.238  -4.212  1.00  0.00     0.274 HD
ATOM     11  HN1 UNL     1      46.209 -18.002  -5.543  1.00  0.00     0.274 HD
ENDBRANCH   7   8
BRANCH   7  12
HETATM   12  C   UNL     1      45.741 -14.746  -5.130  1.00  0.00     0.035 C 
BRANCH  12  13
HETATM   13  C   UNL     1      45.472 -13.559  -6.063  1.00  0.00     0.046 C 
BRANCH  13  14
HETATM   14  CA  UNL     1      44.092 -13.687  -6.726  1.00  0.00     0.283 C 
BRANCH  14  15
HETATM   15  C   UNL     1      43.105 -12.720  -6.071  1.00  0.00     0.204 C 
HETATM   16  OXT UNL     1      42.845 -11.624  -6.636  1.00  0.00    -0.646 OA
HETATM   17  O   UNL     1      42.554 -12.985  -4.967  1.00  0.00    -0.646 OA
ENDBRANCH  14  15
BRANCH  14  18
HETATM   18  N   UNL     1      44.179 -13.446  -8.169  1.00  0.00    -0.065 N 
ATOM     19  HN3 UNL     1      43.258 -13.446  -8.607  1.00  0.00     0.275 HD
ATOM     20  HN2 UNL     1      44.448 -12.484  -8.374  1.00  0.00     0.275 HD
ATOM     21  HN1 UNL     1      44.808 -14.115  -8.613  1.00  0.00     0.275 HD
ENDBRANCH  14  18
ENDBRANCH  13  14
ENDBRANCH  12  13
ENDBRANCH   7  12
ENDBRANCH   6   7
ENDBRANCH   1   6
BRANCH   3  22
HETATM   22  O   UNL     1      44.570 -16.313  -9.755  1.00  0.00    -0.390 OA
ATOM     23  HO  UNL     1      45.344 -16.129 -10.274  1.00  0.00     0.210 HD
ENDBRANCH   3  22
BRANCH   4  24
HETATM   24  O   UNL     1      43.295 -18.606  -9.097  1.00  0.00    -0.388 OA
ATOM     25  HO  UNL     1      42.524 -18.168  -8.757  1.00  0.00     0.210 HD
ENDBRANCH   4  24
BRANCH   5  26
HETATM   26  N   UNL     1      45.711 -20.246  -8.207  1.00  0.00    -0.297 N 
HETATM   27  C   UNL     1      45.119 -21.316  -8.774  1.00  0.00     0.142 A 
HETATM   28  N   UNL     1      44.337 -21.468  -9.868  1.00  0.00    -0.336 N 
HETATM   29  C   UNL     1      45.420 -22.383  -8.026  1.00  0.00     0.119 A 
HETATM   30  C   UNL     1      43.867 -22.695 -10.198  1.00  0.00     0.183 A 
ATOM     31  HN  UNL     1      44.101 -20.659 -10.444  1.00  0.00     0.168 HD
HETATM   32  N   UNL     1      44.163 -23.774  -9.431  1.00  0.00    -0.339 N 
HETATM   33  C   UNL     1      44.936 -23.624  -8.364  1.00  0.00     0.148 A 
ATOM     34  HN  UNL     1      43.793 -24.693  -9.672  1.00  0.00     0.167 HD
HETATM   35  N   UNL     1      45.154 -24.872  -7.673  1.00  0.00    -0.080 NA
HETATM   36  N   UNL     1      46.198 -21.991  -6.998  1.00  0.00    -0.346 N 
HETATM   37  C   UNL     1      46.377 -20.674  -7.118  1.00  0.00     0.188 A 
ATOM     38  HN  UNL     1      46.579 -22.589  -6.265  1.00  0.00     0.167 HD
ENDBRANCH   5  26
TORSDOF 11
ENDMDL
MODEL 15
REMARK VINA RESULT:    -6.929      3.326      8.039
REMARK INTER + INTRA:         -11.694
REMARK INTER:                 -10.644
REMARK INTRA:                  -1.050
REMARK UNBOUND:                -1.119
REMARK  11 active torsions:
REMARK  status: ('A' for Active; 'I' for Inactive)
REMARK    1  A    between atoms: N_1  and  CA_5 
REMARK    2  A    between atoms: CA_5  and  C_9 
REMARK    3  A    between atoms: CA_5  and  C_6 
REMARK    4  A    between atoms: C_9  and  C_10 
REMARK    5  A    between atoms: C_10  and  C_11 
REMARK    6  A    between atoms: C_11  and  C_16 
REMARK    7  A    between atoms: C_11  and  N_12 
REMARK    8  A    between atoms: C_16  and  C_17 
REMARK    9  A    between atoms: C_19  and  O_20 
REMARK   10  A    between atoms: C_22  and  O_23 
REMARK   11  A    between atoms: C_25  and  N_26 
ROOT
HETATM    1  C   UNL     1      46.276 -17.995  -9.665  1.00  0.00     0.157 C 
HETATM    2  O   UNL     1      46.236 -19.313  -9.776  1.00  0.00    -0.355 OA
HETATM    3  C   UNL     1      44.807 -17.512  -9.623  1.00  0.00     0.180 C 
HETATM    4  C   UNL     1      44.026 -18.839  -9.603  1.00  0.00     0.198 C 
HETATM    5  C   UNL     1      44.776 -19.680 -10.295  1.00  0.00     0.262 C 
ENDROOT
BRANCH   1   6
HETATM    6  C   UNL     1      47.051 -17.614  -8.373  1.00  0.00     0.067 C 
BRANCH   6   7
HETATM    7  C   UNL     1      46.129 -17.268  -7.203  1.00  0.00     0.186 C 
BRANCH   7   8
HETATM    8  N   UNL     1      46.415 -18.202  -6.113  1.00  0.00    -0.075 N 
ATOM      9  HN3 UNL     1      45.788 -19.006  -6.108  1.00  0.00     0.274 HD
ATOM     10  HN2 UNL     1      47.289 -18.712  -6.249  1.00  0.00     0.274 HD
ATOM     11  HN1 UNL     1      46.395 -17.678  -5.238  1.00  0.00     0.274 HD
ENDBRANCH   7   8
BRANCH   7  12
HETATM   12  C   UNL     1      46.413 -15.845  -6.720  1.00  0.00     0.035 C 
BRANCH  12  13
HETATM   13  C   UNL     1      46.231 -15.732  -5.201  1.00  0.00     0.046 C 
BRANCH  13  14
HETATM   14  CA  UNL     1      46.301 -14.265  -4.751  1.00  0.00     0.283 C 
BRANCH  14  15
HETATM   15  C   UNL     1      45.243 -13.441  -5.487  1.00  0.00     0.204 C 
HETATM   16  OXT UNL     1      45.607 -12.582  -6.334  1.00  0.00    -0.646 OA
HETATM   17  O   UNL     1      44.012 -13.589  -5.255  1.00  0.00    -0.646 OA
ENDBRANCH  14  15
BRANCH  14  18
HETATM   18  N   UNL     1      46.132 -14.153  -3.300  1.00  0.00    -0.065 N 
ATOM     19  HN3 UNL     1      45.348 -14.715  -2.967  1.00  0.00     0.275 HD
ATOM     20  HN2 UNL     1      46.884 -14.623  -2.796  1.00  0.00     0.275 HD
ATOM     21  HN1 UNL     1      46.042 -13.177  -3.017  1.00  0.00     0.275 HD
ENDBRANCH  14  18
ENDBRANCH  13  14
ENDBRANCH  12  13
ENDBRANCH   7  12
ENDBRANCH   6   7
ENDBRANCH   1   6
BRANCH   3  22
HETATM   22  O   UNL     1      44.523 -16.755 -10.731  1.00  0.00    -0.390 OA
ATOM     23  HO  UNL     1      44.009 -17.230 -11.373  1.00  0.00     0.210 HD
ENDBRANCH   3  22
BRANCH   4  24
HETATM   24  O   UNL     1      42.676 -18.657 -10.198  1.00  0.00    -0.388 OA
ATOM     25  HO  UNL     1      42.183 -17.963  -9.776  1.00  0.00     0.210 HD
ENDBRANCH   4  24
BRANCH   5  26
HETATM   26  N   UNL     1      44.538 -21.063  -9.948  1.00  0.00    -0.297 N 
HETATM   27  C   UNL     1      45.024 -21.603  -8.814  1.00  0.00     0.142 A 
HETATM   28  N   UNL     1      45.777 -21.110  -7.803  1.00  0.00    -0.336 N 
HETATM   29  C   UNL     1      44.635 -22.883  -8.782  1.00  0.00     0.119 A 
HETATM   30  C   UNL     1      46.128 -21.912  -6.769  1.00  0.00     0.183 A 
ATOM     31  HN  UNL     1      46.079 -20.135  -7.819  1.00  0.00     0.168 HD
HETATM   32  N   UNL     1      45.744 -23.212  -6.745  1.00  0.00    -0.339 N 
HETATM   33  C   UNL     1      44.999 -23.690  -7.732  1.00  0.00     0.148 A 
ATOM     34  HN  UNL     1      46.026 -23.817  -5.973  1.00  0.00     0.167 HD
HETATM   35  N   UNL     1      44.676 -25.084  -7.539  1.00  0.00    -0.080 NA
HETATM   36  N   UNL     1      43.907 -23.146  -9.885  1.00  0.00    -0.346 N 
HETATM   37  C   UNL     1      43.848 -22.019 -10.597  1.00  0.00     0.188 A 
ATOM     38  HN  UNL     1      43.481 -24.040 -10.129  1.00  0.00     0.167 HD
ENDBRANCH   5  26
TORSDOF 11
ENDMDL
MODEL 16
REMARK VINA RESULT:    -6.896      3.448      4.584
REMARK INTER + INTRA:         -11.644
REMARK INTER:                 -10.738
REMARK INTRA:                  -0.906
REMARK UNBOUND:                -1.119
REMARK  11 active torsions:
REMARK  status: ('A' for Active; 'I' for Inactive)
REMARK    1  A    between atoms: N_1  and  CA_5 
REMARK    2  A    between atoms: CA_5  and  C_9 
REMARK    3  A    between atoms: CA_5  and  C_6 
REMARK    4  A    between atoms: C_9  and  C_10 
REMARK    5  A    between atoms: C_10  and  C_11 
REMARK    6  A    between atoms: C_11  and  C_16 
REMARK    7  A    between atoms: C_11  and  N_12 
REMARK    8  A    between atoms: C_16  and  C_17 
REMARK    9  A    between atoms: C_19  and  O_20 
REMARK   10  A    between atoms: C_22  and  O_23 
REMARK   11  A    between atoms: C_25  and  N_26 
ROOT
HETATM    1  C   UNL     1      46.578 -16.629  -6.481  1.00  0.00     0.157 C 
HETATM    2  O   UNL     1      46.971 -15.453  -6.942  1.00  0.00    -0.355 OA
HETATM    3  C   UNL     1      45.932 -16.367  -5.099  1.00  0.00     0.180 C 
HETATM    4  C   UNL     1      45.959 -14.830  -5.012  1.00  0.00     0.198 C 
HETATM    5  C   UNL     1      47.038 -14.474  -5.687  1.00  0.00     0.262 C 
ENDROOT
BRANCH   1   6
HETATM    6  C   UNL     1      45.571 -17.260  -7.483  1.00  0.00     0.067 C 
BRANCH   6   7
HETATM    7  C   UNL     1      46.065 -18.582  -8.075  1.00  0.00     0.186 C 
BRANCH   7   8
HETATM    8  N   UNL     1      47.456 -18.397  -8.489  1.00  0.00    -0.075 N 
ATOM      9  HN3 UNL     1      47.579 -18.458  -9.500  1.00  0.00     0.274 HD
ATOM     10  HN2 UNL     1      47.779 -17.437  -8.371  1.00  0.00     0.274 HD
ATOM     11  HN1 UNL     1      48.027 -19.072  -7.980  1.00  0.00     0.274 HD
ENDBRANCH   7   8
BRANCH   7  12
HETATM   12  C   UNL     1      46.007 -19.681  -7.014  1.00  0.00     0.035 C 
BRANCH  12  13
HETATM   13  C   UNL     1      45.200 -20.886  -7.511  1.00  0.00     0.046 C 
BRANCH  13  14
HETATM   14  CA  UNL     1      44.753 -21.767  -6.335  1.00  0.00     0.283 C 
BRANCH  14  15
HETATM   15  C   UNL     1      45.641 -23.010  -6.247  1.00  0.00     0.204 C 
HETATM   16  OXT UNL     1      46.598 -23.029  -5.427  1.00  0.00    -0.646 OA
HETATM   17  O   UNL     1      45.449 -24.013  -6.988  1.00  0.00    -0.646 OA
ENDBRANCH  14  15
BRANCH  14  18
HETATM   18  N   UNL     1      44.781 -21.017  -5.077  1.00  0.00    -0.065 N 
ATOM     19  HN3 UNL     1      45.194 -21.563  -4.321  1.00  0.00     0.275 HD
ATOM     20  HN2 UNL     1      45.460 -20.256  -5.107  1.00  0.00     0.275 HD
ATOM     21  HN1 UNL     1      43.850 -20.680  -4.833  1.00  0.00     0.275 HD
ENDBRANCH  14  18
ENDBRANCH  13  14
ENDBRANCH  12  13
ENDBRANCH   7  12
ENDBRANCH   6   7
ENDBRANCH   1   6
BRANCH   3  22
HETATM   22  O   UNL     1      46.672 -16.961  -4.109  1.00  0.00    -0.390 OA
ATOM     23  HO  UNL     1      47.342 -16.385  -3.761  1.00  0.00     0.210 HD
ENDBRANCH   3  22
BRANCH   4  24
HETATM   24  O   UNL     1      46.005 -14.392  -3.592  1.00  0.00    -0.388 OA
ATOM     25  HO  UNL     1      46.827 -14.615  -3.169  1.00  0.00     0.210 HD
ENDBRANCH   4  24
BRANCH   5  26
HETATM   26  N   UNL     1      46.963 -13.125  -6.199  1.00  0.00    -0.297 N 
HETATM   27  C   UNL     1      48.059 -12.349  -6.319  1.00  0.00     0.142 A 
HETATM   28  N   UNL     1      49.368 -12.547  -6.036  1.00  0.00    -0.336 N 
HETATM   29  C   UNL     1      47.663 -11.173  -6.817  1.00  0.00     0.119 A 
HETATM   30  C   UNL     1      50.264 -11.557  -6.260  1.00  0.00     0.183 A 
ATOM     31  HN  UNL     1      49.678 -13.442  -5.654  1.00  0.00     0.168 HD
HETATM   32  N   UNL     1      49.859 -10.360  -6.753  1.00  0.00    -0.339 N 
HETATM   33  C   UNL     1      48.578 -10.172  -7.038  1.00  0.00     0.148 A 
ATOM     34  HN  UNL     1      50.535  -9.611  -6.903  1.00  0.00     0.167 HD
HETATM   35  N   UNL     1      48.329  -8.850  -7.560  1.00  0.00    -0.080 NA
HETATM   36  N   UNL     1      46.330 -11.207  -7.014  1.00  0.00    -0.346 N 
HETATM   37  C   UNL     1      45.906 -12.414  -6.634  1.00  0.00     0.188 A 
ATOM     38  HN  UNL     1      45.753 -10.451  -7.383  1.00  0.00     0.167 HD
ENDBRANCH   5  26
TORSDOF 11
ENDMDL
MODEL 17
REMARK VINA RESULT:    -6.893      2.430      3.635
REMARK INTER + INTRA:         -11.639
REMARK INTER:                 -10.052
REMARK INTRA:                  -1.587
REMARK UNBOUND:                -1.119
REMARK  11 active torsions:
REMARK  status: ('A' for Active; 'I' for Inactive)
REMARK    1  A    between atoms: N_1  and  CA_5 
REMARK    2  A    between atoms: CA_5  and  C_9 
REMARK    3  A    between atoms: CA_5  and  C_6 
REMARK    4  A    between atoms: C_9  and  C_10 
REMARK    5  A    between atoms: C_10  and  C_11 
REMARK    6  A    between atoms: C_11  and  C_16 
REMARK    7  A    between atoms: C_11  and  N_12 
REMARK    8  A    between atoms: C_16  and  C_17 
REMARK    9  A    between atoms: C_19  and  O_20 
REMARK   10  A    between atoms: C_22  and  O_23 
REMARK   11  A    between atoms: C_25  and  N_26 
ROOT
HETATM    1  C   UNL     1      46.741 -16.530  -7.418  1.00  0.00     0.157 C 
HETATM    2  O   UNL     1      47.080 -15.255  -7.518  1.00  0.00    -0.355 OA
HETATM    3  C   UNL     1      46.031 -16.690  -6.052  1.00  0.00     0.180 C 
HETATM    4  C   UNL     1      45.963 -15.237  -5.547  1.00  0.00     0.198 C 
HETATM    5  C   UNL     1      47.043 -14.658  -6.042  1.00  0.00     0.262 C 
ENDROOT
BRANCH   1   6
HETATM    6  C   UNL     1      45.812 -16.907  -8.605  1.00  0.00     0.067 C 
BRANCH   6   7
HETATM    7  C   UNL     1      44.431 -17.387  -8.154  1.00  0.00     0.186 C 
BRANCH   7   8
HETATM    8  N   UNL     1      43.443 -16.411  -8.618  1.00  0.00    -0.075 N 
ATOM      9  HN3 UNL     1      43.599 -16.119  -9.582  1.00  0.00     0.274 HD
ATOM     10  HN2 UNL     1      42.517 -16.818  -8.747  1.00  0.00     0.274 HD
ATOM     11  HN1 UNL     1      43.444 -15.630  -7.963  1.00  0.00     0.274 HD
ENDBRANCH   7   8
BRANCH   7  12
HETATM   12  C   UNL     1      44.119 -18.743  -8.787  1.00  0.00     0.035 C 
BRANCH  12  13
HETATM   13  C   UNL     1      45.294 -19.714  -8.615  1.00  0.00     0.046 C 
BRANCH  13  14
HETATM   14  CA  UNL     1      45.307 -20.310  -7.199  1.00  0.00     0.283 C 
BRANCH  14  15
HETATM   15  C   UNL     1      44.809 -21.757  -7.236  1.00  0.00     0.204 C 
HETATM   16  OXT UNL     1      44.414 -22.302  -6.172  1.00  0.00    -0.646 OA
HETATM   17  O   UNL     1      44.800 -22.424  -8.307  1.00  0.00    -0.646 OA
ENDBRANCH  14  15
BRANCH  14  18
HETATM   18  N   UNL     1      46.646 -20.235  -6.610  1.00  0.00    -0.065 N 
ATOM     19  HN3 UNL     1      46.621 -20.370  -5.599  1.00  0.00     0.275 HD
ATOM     20  HN2 UNL     1      47.214 -21.044  -6.861  1.00  0.00     0.275 HD
ATOM     21  HN1 UNL     1      47.106 -19.360  -6.861  1.00  0.00     0.275 HD
ENDBRANCH  14  18
ENDBRANCH  13  14
ENDBRANCH  12  13
ENDBRANCH   7  12
ENDBRANCH   6   7
ENDBRANCH   1   6
BRANCH   3  22
HETATM   22  O   UNL     1      46.768 -17.498  -5.225  1.00  0.00    -0.390 OA
ATOM     23  HO  UNL     1      47.687 -17.257  -5.206  1.00  0.00     0.210 HD
ENDBRANCH   3  22
BRANCH   4  24
HETATM   24  O   UNL     1      45.930 -15.206  -4.060  1.00  0.00    -0.388 OA
ATOM     25  HO  UNL     1      45.315 -14.564  -3.723  1.00  0.00     0.210 HD
ENDBRANCH   4  24
BRANCH   5  26
HETATM   26  N   UNL     1      46.906 -13.225  -6.168  1.00  0.00    -0.297 N 
HETATM   27  C   UNL     1      45.967 -12.669  -6.959  1.00  0.00     0.142 A 
HETATM   28  N   UNL     1      45.012 -13.187  -7.766  1.00  0.00    -0.336 N 
HETATM   29  C   UNL     1      46.096 -11.341  -6.859  1.00  0.00     0.119 A 
HETATM   30  C   UNL     1      44.196 -12.361  -8.464  1.00  0.00     0.183 A 
ATOM     31  HN  UNL     1      44.908 -14.199  -7.849  1.00  0.00     0.168 HD
HETATM   32  N   UNL     1      44.337 -11.016  -8.372  1.00  0.00    -0.339 N 
HETATM   33  C   UNL     1      45.267 -10.510  -7.573  1.00  0.00     0.148 A 
ATOM     34  HN  UNL     1      43.732 -10.397  -8.913  1.00  0.00     0.167 HD
HETATM   35  N   UNL     1      45.269  -9.067  -7.591  1.00  0.00    -0.080 NA
HETATM   36  N   UNL     1      47.104 -11.062  -6.010  1.00  0.00    -0.346 N 
HETATM   37  C   UNL     1      47.596 -12.228  -5.585  1.00  0.00     0.188 A 
ATOM     38  HN  UNL     1      47.431 -10.134  -5.743  1.00  0.00     0.167 HD
ENDBRANCH   5  26
TORSDOF 11
ENDMDL
MODEL 18
REMARK VINA RESULT:    -6.844      2.999      8.592
REMARK INTER + INTRA:         -11.564
REMARK INTER:                  -9.814
REMARK INTRA:                  -1.750
REMARK UNBOUND:                -1.119
REMARK  11 active torsions:
REMARK  status: ('A' for Active; 'I' for Inactive)
REMARK    1  A    between atoms: N_1  and  CA_5 
REMARK    2  A    between atoms: CA_5  and  C_9 
REMARK    3  A    between atoms: CA_5  and  C_6 
REMARK    4  A    between atoms: C_9  and  C_10 
REMARK    5  A    between atoms: C_10  and  C_11 
REMARK    6  A    between atoms: C_11  and  C_16 
REMARK    7  A    between atoms: C_11  and  N_12 
REMARK    8  A    between atoms: C_16  and  C_17 
REMARK    9  A    between atoms: C_19  and  O_20 
REMARK   10  A    between atoms: C_22  and  O_23 
REMARK   11  A    between atoms: C_25  and  N_26 
ROOT
HETATM    1  C   UNL     1      45.060 -18.546  -8.025  1.00  0.00     0.157 C 
HETATM    2  O   UNL     1      44.410 -19.642  -8.379  1.00  0.00    -0.355 OA
HETATM    3  C   UNL     1      46.313 -19.011  -7.244  1.00  0.00     0.180 C 
HETATM    4  C   UNL     1      46.237 -20.542  -7.385  1.00  0.00     0.198 C 
HETATM    5  C   UNL     1      44.944 -20.811  -7.438  1.00  0.00     0.262 C 
ENDROOT
BRANCH   1   6
HETATM    6  C   UNL     1      45.435 -17.739  -9.299  1.00  0.00     0.067 C 
BRANCH   6   7
HETATM    7  C   UNL     1      44.380 -16.699  -9.680  1.00  0.00     0.186 C 
BRANCH   7   8
HETATM    8  N   UNL     1      43.244 -17.406 -10.273  1.00  0.00    -0.075 N 
ATOM      9  HN3 UNL     1      42.365 -17.216  -9.793  1.00  0.00     0.274 HD
ATOM     10  HN2 UNL     1      42.983 -17.037 -11.187  1.00  0.00     0.274 HD
ATOM     11  HN1 UNL     1      43.474 -18.400 -10.299  1.00  0.00     0.274 HD
ENDBRANCH   7   8
BRANCH   7  12
HETATM   12  C   UNL     1      43.902 -15.960  -8.429  1.00  0.00     0.035 C 
BRANCH  12  13
HETATM   13  C   UNL     1      44.459 -14.532  -8.387  1.00  0.00     0.046 C 
BRANCH  13  14
HETATM   14  CA  UNL     1      44.958 -14.182  -6.976  1.00  0.00     0.283 C 
BRANCH  14  15
HETATM   15  C   UNL     1      46.109 -15.110  -6.584  1.00  0.00     0.204 C 
HETATM   16  OXT UNL     1      47.129 -15.176  -7.320  1.00  0.00    -0.646 OA
HETATM   17  O   UNL     1      46.055 -15.826  -5.546  1.00  0.00    -0.646 OA
ENDBRANCH  14  15
BRANCH  14  18
HETATM   18  N   UNL     1      45.371 -12.778  -6.899  1.00  0.00    -0.065 N 
ATOM     19  HN3 UNL     1      46.333 -12.650  -7.215  1.00  0.00     0.275 HD
ATOM     20  HN2 UNL     1      44.900 -12.208  -7.602  1.00  0.00     0.275 HD
ATOM     21  HN1 UNL     1      45.230 -12.408  -5.960  1.00  0.00     0.275 HD
ENDBRANCH  14  18
ENDBRANCH  13  14
ENDBRANCH  12  13
ENDBRANCH   7  12
ENDBRANCH   6   7
ENDBRANCH   1   6
BRANCH   3  22
HETATM   22  O   UNL     1      46.237 -18.601  -5.937  1.00  0.00    -0.390 OA
ATOM     23  HO  UNL     1      45.473 -18.946  -5.492  1.00  0.00     0.210 HD
ENDBRANCH   3  22
BRANCH   4  24
HETATM   24  O   UNL     1      46.910 -21.203  -6.236  1.00  0.00    -0.388 OA
ATOM     25  HO  UNL     1      47.762 -21.555  -6.467  1.00  0.00     0.210 HD
ENDBRANCH   4  24
BRANCH   5  26
HETATM   26  N   UNL     1      44.655 -22.059  -8.107  1.00  0.00    -0.297 N 
HETATM   27  C   UNL     1      44.990 -22.268  -9.395  1.00  0.00     0.142 A 
HETATM   28  N   UNL     1      45.598 -21.499 -10.329  1.00  0.00    -0.336 N 
HETATM   29  C   UNL     1      44.594 -23.505  -9.715  1.00  0.00     0.119 A 
HETATM   30  C   UNL     1      45.800 -21.986 -11.577  1.00  0.00     0.183 A 
ATOM     31  HN  UNL     1      45.902 -20.554 -10.093  1.00  0.00     0.168 HD
HETATM   32  N   UNL     1      45.386 -23.235 -11.904  1.00  0.00    -0.339 N 
HETATM   33  C   UNL     1      44.800 -23.990 -10.985  1.00  0.00     0.148 A 
ATOM     34  HN  UNL     1      45.525 -23.592 -12.850  1.00  0.00     0.167 HD
HETATM   35  N   UNL     1      44.434 -25.287 -11.502  1.00  0.00    -0.080 NA
HETATM   36  N   UNL     1      44.017 -24.072  -8.638  1.00  0.00    -0.346 N 
HETATM   37  C   UNL     1      44.062 -23.177  -7.649  1.00  0.00     0.188 A 
ATOM     38  HN  UNL     1      43.620 -25.011  -8.588  1.00  0.00     0.167 HD
ENDBRANCH   5  26
TORSDOF 11
ENDMDL
MODEL 19
REMARK VINA RESULT:    -6.747      3.742      5.865
REMARK INTER + INTRA:         -11.416
REMARK INTER:                 -10.225
REMARK INTRA:                  -1.191
REMARK UNBOUND:                -1.119
REMARK  11 active torsions:
REMARK  status: ('A' for Active; 'I' for Inactive)
REMARK    1  A    between atoms: N_1  and  CA_5 
REMARK    2  A    between atoms: CA_5  and  C_9 
REMARK    3  A    between atoms: CA_5  and  C_6 
REMARK    4  A    between atoms: C_9  and  C_10 
REMARK    5  A    between atoms: C_10  and  C_11 
REMARK    6  A    between atoms: C_11  and  C_16 
REMARK    7  A    between atoms: C_11  and  N_12 
REMARK    8  A    between atoms: C_16  and  C_17 
REMARK    9  A    between atoms: C_19  and  O_20 
REMARK   10  A    between atoms: C_22  and  O_23 
REMARK   11  A    between atoms: C_25  and  N_26 
ROOT
HETATM    1  C   UNL     1      45.192 -22.987  -8.419  1.00  0.00     0.157 C 
HETATM    2  O   UNL     1      45.231 -21.742  -8.865  1.00  0.00    -0.355 OA
HETATM    3  C   UNL     1      44.915 -22.901  -6.898  1.00  0.00     0.180 C 
HETATM    4  C   UNL     1      44.694 -21.391  -6.691  1.00  0.00     0.198 C 
HETATM    5  C   UNL     1      45.466 -20.812  -7.594  1.00  0.00     0.262 C 
ENDROOT
BRANCH   1   6
HETATM    6  C   UNL     1      44.077 -23.766  -9.170  1.00  0.00     0.067 C 
BRANCH   6   7
HETATM    7  C   UNL     1      44.547 -24.345 -10.506  1.00  0.00     0.186 C 
BRANCH   7   8
HETATM    8  N   UNL     1      44.523 -23.267 -11.496  1.00  0.00    -0.075 N 
ATOM      9  HN3 UNL     1      44.276 -23.595 -12.430  1.00  0.00     0.274 HD
ATOM     10  HN2 UNL     1      43.739 -22.628 -11.365  1.00  0.00     0.274 HD
ATOM     11  HN1 UNL     1      45.427 -22.796 -11.468  1.00  0.00     0.274 HD
ENDBRANCH   7   8
BRANCH   7  12
HETATM   12  C   UNL     1      45.980 -24.861 -10.373  1.00  0.00     0.035 C 
BRANCH  12  13
HETATM   13  C   UNL     1      46.866 -24.323 -11.504  1.00  0.00     0.046 C 
BRANCH  13  14
HETATM   14  CA  UNL     1      47.748 -25.440 -12.084  1.00  0.00     0.283 C 
BRANCH  14  15
HETATM   15  C   UNL     1      49.225 -25.112 -11.855  1.00  0.00     0.204 C 
HETATM   16  OXT UNL     1      49.975 -25.974 -11.327  1.00  0.00    -0.646 OA
HETATM   17  O   UNL     1      49.708 -23.989 -12.169  1.00  0.00    -0.646 OA
ENDBRANCH  14  15
BRANCH  14  18
HETATM   18  N   UNL     1      47.405 -26.738 -11.496  1.00  0.00    -0.065 N 
ATOM     19  HN3 UNL     1      47.798 -27.510 -12.034  1.00  0.00     0.275 HD
ATOM     20  HN2 UNL     1      47.898 -26.895 -10.617  1.00  0.00     0.275 HD
ATOM     21  HN1 UNL     1      46.396 -26.832 -11.384  1.00  0.00     0.275 HD
ENDBRANCH  14  18
ENDBRANCH  13  14
ENDBRANCH  12  13
ENDBRANCH   7  12
ENDBRANCH   6   7
ENDBRANCH   1   6
BRANCH   3  22
HETATM   22  O   UNL     1      45.990 -23.375  -6.192  1.00  0.00    -0.390 OA
ATOM     23  HO  UNL     1      46.074 -24.319  -6.248  1.00  0.00     0.210 HD
ENDBRANCH   3  22
BRANCH   4  24
HETATM   24  O   UNL     1      45.050 -21.001  -5.302  1.00  0.00    -0.388 OA
ATOM     25  HO  UNL     1      45.448 -20.139  -5.257  1.00  0.00     0.210 HD
ENDBRANCH   4  24
BRANCH   5  26
HETATM   26  N   UNL     1      45.018 -19.486  -7.951  1.00  0.00    -0.297 N 
HETATM   27  C   UNL     1      45.437 -18.391  -7.287  1.00  0.00     0.142 A 
HETATM   28  N   UNL     1      46.270 -18.211  -6.235  1.00  0.00    -0.336 N 
HETATM   29  C   UNL     1      44.851 -17.330  -7.853  1.00  0.00     0.119 A 
HETATM   30  C   UNL     1      46.503 -16.961  -5.765  1.00  0.00     0.183 A 
ATOM     31  HN  UNL     1      46.721 -19.014  -5.796  1.00  0.00     0.168 HD
HETATM   32  N   UNL     1      45.898 -15.888  -6.331  1.00  0.00    -0.339 N 
HETATM   33  C   UNL     1      45.090 -16.067  -7.367  1.00  0.00     0.148 A 
ATOM     34  HN  UNL     1      46.062 -14.952  -5.963  1.00  0.00     0.167 HD
HETATM   35  N   UNL     1      44.542 -14.821  -7.848  1.00  0.00    -0.080 NA
HETATM   36  N   UNL     1      44.071 -17.751  -8.868  1.00  0.00    -0.346 N 
HETATM   37  C   UNL     1      44.182 -19.080  -8.926  1.00  0.00     0.188 A 
ATOM     38  HN  UNL     1      43.503 -17.164  -9.478  1.00  0.00     0.167 HD
ENDBRANCH   5  26
TORSDOF 11
ENDMDL
MODEL 20
REMARK VINA RESULT:    -6.720      2.089      2.685
REMARK INTER + INTRA:         -11.376
REMARK INTER:                 -10.204
REMARK INTRA:                  -1.172
REMARK UNBOUND:                -1.119
REMARK  11 active torsions:
REMARK  status: ('A' for Active; 'I' for Inactive)
REMARK    1  A    between atoms: N_1  and  CA_5 
REMARK    2  A    between atoms: CA_5  and  C_9 
REMARK    3  A    between atoms: CA_5  and  C_6 
REMARK    4  A    between atoms: C_9  and  C_10 
REMARK    5  A    between atoms: C_10  and  C_11 
REMARK    6  A    between atoms: C_11  and  C_16 
REMARK    7  A    between atoms: C_11  and  N_12 
REMARK    8  A    between atoms: C_16  and  C_17 
REMARK    9  A    between atoms: C_19  and  O_20 
REMARK   10  A    between atoms: C_22  and  O_23 
REMARK   11  A    between atoms: C_25  and  N_26 
ROOT
HETATM    1  C   UNL     1      44.394 -17.820  -8.581  1.00  0.00     0.157 C 
HETATM    2  O   UNL     1      44.541 -16.886  -7.655  1.00  0.00    -0.355 OA
HETATM    3  C   UNL     1      45.416 -17.496  -9.698  1.00  0.00     0.180 C 
HETATM    4  C   UNL     1      46.187 -16.305  -9.100  1.00  0.00     0.198 C 
HETATM    5  C   UNL     1      45.301 -15.672  -8.352  1.00  0.00     0.262 C 
ENDROOT
BRANCH   1   6
HETATM    6  C   UNL     1      44.650 -19.214  -7.946  1.00  0.00     0.067 C 
BRANCH   6   7
HETATM    7  C   UNL     1      46.078 -19.381  -7.423  1.00  0.00     0.186 C 
BRANCH   7   8
HETATM    8  N   UNL     1      46.163 -18.707  -6.127  1.00  0.00    -0.075 N 
ATOM      9  HN3 UNL     1      45.271 -18.686  -5.633  1.00  0.00     0.274 HD
ATOM     10  HN2 UNL     1      46.688 -19.243  -5.436  1.00  0.00     0.274 HD
ATOM     11  HN1 UNL     1      46.550 -17.776  -6.283  1.00  0.00     0.274 HD
ENDBRANCH   7   8
BRANCH   7  12
HETATM   12  C   UNL     1      46.391 -20.865  -7.228  1.00  0.00     0.035 C 
BRANCH  12  13
HETATM   13  C   UNL     1      45.278 -21.744  -7.814  1.00  0.00     0.046 C 
BRANCH  13  14
HETATM   14  CA  UNL     1      44.777 -22.755  -6.772  1.00  0.00     0.283 C 
BRANCH  14  15
HETATM   15  C   UNL     1      44.271 -24.019  -7.471  1.00  0.00     0.204 C 
HETATM   16  OXT UNL     1      45.065 -24.976  -7.669  1.00  0.00    -0.646 OA
HETATM   17  O   UNL     1      43.078 -24.119  -7.871  1.00  0.00    -0.646 OA
ENDBRANCH  14  15
BRANCH  14  18
HETATM   18  N   UNL     1      45.830 -23.080  -5.807  1.00  0.00    -0.065 N 
ATOM     19  HN3 UNL     1      46.007 -24.084  -5.765  1.00  0.00     0.275 HD
ATOM     20  HN2 UNL     1      46.746 -22.775  -6.132  1.00  0.00     0.275 HD
ATOM     21  HN1 UNL     1      45.611 -22.699  -4.886  1.00  0.00     0.275 HD
ENDBRANCH  14  18
ENDBRANCH  13  14
ENDBRANCH  12  13
ENDBRANCH   7  12
ENDBRANCH   6   7
ENDBRANCH   1   6
BRANCH   3  22
HETATM   22  O   UNL     1      44.763 -17.167 -10.858  1.00  0.00    -0.390 OA
ATOM     23  HO  UNL     1      44.629 -16.231 -10.947  1.00  0.00     0.210 HD
ENDBRANCH   3  22
BRANCH   4  24
HETATM   24  O   UNL     1      46.736 -15.446 -10.183  1.00  0.00    -0.388 OA
ATOM     25  HO  UNL     1      46.946 -14.570  -9.881  1.00  0.00     0.210 HD
ENDBRANCH   4  24
BRANCH   5  26
HETATM   26  N   UNL     1      45.908 -14.892  -7.298  1.00  0.00    -0.297 N 
HETATM   27  C   UNL     1      46.242 -13.598  -7.474  1.00  0.00     0.142 A 
HETATM   28  N   UNL     1      46.143 -12.753  -8.527  1.00  0.00    -0.336 N 
HETATM   29  C   UNL     1      46.774 -13.163  -6.326  1.00  0.00     0.119 A 
HETATM   30  C   UNL     1      46.581 -11.476  -8.410  1.00  0.00     0.183 A 
ATOM     31  HN  UNL     1      45.740 -13.077  -9.406  1.00  0.00     0.168 HD
HETATM   32  N   UNL     1      47.132 -11.040  -7.251  1.00  0.00    -0.339 N 
HETATM   33  C   UNL     1      47.219 -11.867  -6.219  1.00  0.00     0.148 A 
ATOM     34  HN  UNL     1      47.477 -10.083  -7.173  1.00  0.00     0.167 HD
HETATM   35  N   UNL     1      47.820 -11.236  -5.068  1.00  0.00    -0.080 NA
HETATM   36  N   UNL     1      46.771 -14.171  -5.433  1.00  0.00    -0.346 N 
HETATM   37  C   UNL     1      46.232 -15.232  -6.036  1.00  0.00     0.188 A 
ATOM     38  HN  UNL     1      47.117 -14.131  -4.474  1.00  0.00     0.167 HD
ENDBRANCH   5  26
TORSDOF 11
ENDMDL
