MODEL 1
REMARK VINA RESULT:    -9.724      0.000      0.000
REMARK INTER + INTRA:         -14.427
REMARK INTER:                 -13.988
REMARK INTRA:                  -0.438
REMARK UNBOUND:                -0.438
REMARK  8 active torsions:
REMARK  status: ('A' for Active; 'I' for Inactive)
REMARK    1  A    between atoms: C_2  and  C_12 
REMARK    2  A    between atoms: C_2  and  O_19 
REMARK    3  A    between atoms: C_3  and  CA_6 
REMARK    4  A    between atoms: C_5  and  CA_6 
REMARK    5  A    between atoms: C_7  and  N_13 
REMARK    6  A    between atoms: C_7  and  C_8 
REMARK    7  A    between atoms: C_9  and  O_17 
REMARK    8  A    between atoms: O_19  and  P_25 
ROOT
HETATM    1  C   UNL     1       0.630 -32.506  16.199  1.00  0.00     0.071 C 
HETATM    2  C   UNL     1      -0.588 -28.919  16.282  1.00  0.00     0.004 A 
HETATM    3  C   UNL     1      -0.525 -30.299  16.509  1.00  0.00     0.096 A 
HETATM    4  C   UNL     1       0.538 -31.001  15.967  1.00  0.00     0.039 A 
HETATM    5  C   UNL     1       1.431 -29.101  15.032  1.00  0.00     0.098 A 
HETATM    6  C   UNL     1       0.410 -28.314  15.531  1.00  0.00    -0.008 A 
HETATM    7  N   UNL     1       1.473 -30.401  15.258  1.00  0.00    -0.367 N 
ATOM      8  HN  UNL     1       2.242 -30.952  14.876  1.00  0.00     0.165 HD
ENDROOT
BRANCH   2   9
HETATM    9  C   UNL     1      -1.707 -28.022  16.817  1.00  0.00     0.162 C 
BRANCH   9  10
HETATM   10  N   UNL     1      -2.823 -28.792  17.321  1.00  0.00    -0.380 N 
HETATM   11  CA  UNL     1      -3.875 -28.247  17.696  1.00  0.00     0.105 C 
ATOM     12  HN  UNL     1      -2.745 -29.808  17.370  1.00  0.00     0.160 HD
BRANCH  11  13
HETATM   13  C   UNL     1      -4.030 -26.728  17.625  1.00  0.00     0.026 C 
HETATM   14  C   UNL     1      -5.217 -26.162  17.668  1.00  0.00     0.014 C 
ENDBRANCH  11  13
BRANCH  11  15
HETATM   15  C   UNL     1      -4.996 -29.140  18.212  1.00  0.00     0.226 C 
HETATM   16  O   UNL     1      -5.709 -28.769  19.181  1.00  0.00    -0.643 OA
HETATM   17  OXT UNL     1      -5.193 -30.257  17.665  1.00  0.00    -0.643 OA
ENDBRANCH  11  15
ENDBRANCH   9  10
ENDBRANCH   2   9
BRANCH   3  18
HETATM   18  O   UNL     1      -1.474 -31.009  17.249  1.00  0.00    -0.358 OA
ATOM     19  HO  UNL     1      -1.168 -31.557  17.961  1.00  0.00     0.217 HD
ENDBRANCH   3  18
BRANCH   6  20
HETATM   20  C   UNL     1       0.384 -26.807  15.263  1.00  0.00     0.223 C 
BRANCH  20  21
HETATM   21  O   UNL     1       1.146 -26.183  16.261  1.00  0.00    -0.278 OA
BRANCH  21  22
HETATM   22  P   UNL     1       0.785 -24.642  16.719  1.00  0.00     0.422 P 
HETATM   23  O   UNL     1       1.595 -24.273  17.935  1.00  0.00    -0.617 OA
HETATM   24  O   UNL     1       1.109 -23.693  15.593  1.00  0.00    -0.617 OA
HETATM   25  O   UNL     1      -0.695 -24.571  17.033  1.00  0.00    -0.617 OA
ENDBRANCH  21  22
ENDBRANCH  20  21
ENDBRANCH   6  20
TORSDOF 8
ENDMDL
MODEL 2
REMARK VINA RESULT:    -8.298      2.604      6.273
REMARK INTER + INTRA:         -12.375
REMARK INTER:                 -12.172
REMARK INTRA:                  -0.203
REMARK UNBOUND:                -0.438
REMARK  8 active torsions:
REMARK  status: ('A' for Active; 'I' for Inactive)
REMARK    1  A    between atoms: C_2  and  C_12 
REMARK    2  A    between atoms: C_2  and  O_19 
REMARK    3  A    between atoms: C_3  and  CA_6 
REMARK    4  A    between atoms: C_5  and  CA_6 
REMARK    5  A    between atoms: C_7  and  N_13 
REMARK    6  A    between atoms: C_7  and  C_8 
REMARK    7  A    between atoms: C_9  and  O_17 
REMARK    8  A    between atoms: O_19  and  P_25 
ROOT
HETATM    1  C   UNL     1      -5.497 -26.903  17.981  1.00  0.00     0.071 C 
HETATM    2  C   UNL     1      -2.114 -28.420  17.197  1.00  0.00     0.004 A 
HETATM    3  C   UNL     1      -3.145 -27.480  17.322  1.00  0.00     0.096 A 
HETATM    4  C   UNL     1      -4.357 -27.907  17.836  1.00  0.00     0.039 A 
HETATM    5  C   UNL     1      -3.592 -30.058  18.092  1.00  0.00     0.098 A 
HETATM    6  C   UNL     1      -2.347 -29.730  17.591  1.00  0.00    -0.008 A 
HETATM    7  N   UNL     1      -4.551 -29.158  18.203  1.00  0.00    -0.367 N 
ATOM      8  HN  UNL     1      -5.458 -29.434  18.579  1.00  0.00     0.165 HD
ENDROOT
BRANCH   2   9
HETATM    9  C   UNL     1      -0.727 -28.089  16.642  1.00  0.00     0.162 C 
BRANCH   9  10
HETATM   10  N   UNL     1      -0.302 -26.755  17.010  1.00  0.00    -0.380 N 
HETATM   11  CA  UNL     1       0.318 -26.027  16.218  1.00  0.00     0.105 C 
ATOM     12  HN  UNL     1      -0.517 -26.404  17.943  1.00  0.00     0.160 HD
BRANCH  11  13
HETATM   13  C   UNL     1       0.648 -26.517  14.808  1.00  0.00     0.026 C 
HETATM   14  C   UNL     1       1.399 -27.581  14.616  1.00  0.00     0.014 C 
ENDBRANCH  11  13
BRANCH  11  15
HETATM   15  C   UNL     1       0.724 -24.638  16.694  1.00  0.00     0.226 C 
HETATM   16  O   UNL     1       1.006 -23.737  15.861  1.00  0.00    -0.643 OA
HETATM   17  OXT UNL     1       0.786 -24.406  17.931  1.00  0.00    -0.643 OA
ENDBRANCH  11  15
ENDBRANCH   9  10
ENDBRANCH   2   9
BRANCH   3  18
HETATM   18  O   UNL     1      -3.021 -26.137  16.956  1.00  0.00    -0.358 OA
ATOM     19  HO  UNL     1      -2.177 -25.835  16.641  1.00  0.00     0.217 HD
ENDBRANCH   3  18
BRANCH   6  20
HETATM   20  C   UNL     1      -1.247 -30.789  17.477  1.00  0.00     0.223 C 
BRANCH  20  21
HETATM   21  O   UNL     1      -1.130 -31.138  16.124  1.00  0.00    -0.278 OA
BRANCH  21  22
HETATM   22  P   UNL     1       0.344 -31.545  15.512  1.00  0.00     0.422 P 
HETATM   23  O   UNL     1       0.608 -33.009  15.760  1.00  0.00    -0.617 OA
HETATM   24  O   UNL     1       0.366 -31.277  14.029  1.00  0.00    -0.617 OA
HETATM   25  O   UNL     1       1.397 -30.699  16.197  1.00  0.00    -0.617 OA
ENDBRANCH  21  22
ENDBRANCH  20  21
ENDBRANCH   6  20
TORSDOF 8
ENDMDL
MODEL 3
REMARK VINA RESULT:    -8.014      1.745      5.306
REMARK INTER + INTRA:         -11.966
REMARK INTER:                 -12.723
REMARK INTRA:                   0.757
REMARK UNBOUND:                -0.438
REMARK  8 active torsions:
REMARK  status: ('A' for Active; 'I' for Inactive)
REMARK    1  A    between atoms: C_2  and  C_12 
REMARK    2  A    between atoms: C_2  and  O_19 
REMARK    3  A    between atoms: C_3  and  CA_6 
REMARK    4  A    between atoms: C_5  and  CA_6 
REMARK    5  A    between atoms: C_7  and  N_13 
REMARK    6  A    between atoms: C_7  and  C_8 
REMARK    7  A    between atoms: C_9  and  O_17 
REMARK    8  A    between atoms: O_19  and  P_25 
ROOT
HETATM    1  C   UNL     1      -6.306 -28.177  18.449  1.00  0.00     0.071 C 
HETATM    2  C   UNL     1      -2.705 -28.788  17.441  1.00  0.00     0.004 A 
HETATM    3  C   UNL     1      -4.012 -29.024  17.885  1.00  0.00     0.096 A 
HETATM    4  C   UNL     1      -4.877 -27.947  17.967  1.00  0.00     0.039 A 
HETATM    5  C   UNL     1      -3.270 -26.485  17.217  1.00  0.00     0.098 A 
HETATM    6  C   UNL     1      -2.333 -27.495  17.101  1.00  0.00    -0.008 A 
HETATM    7  N   UNL     1      -4.498 -26.728  17.638  1.00  0.00    -0.367 N 
ATOM      8  HN  UNL     1      -5.164 -25.960  17.710  1.00  0.00     0.165 HD
ENDROOT
BRANCH   2   9
HETATM    9  C   UNL     1      -1.644 -29.882  17.306  1.00  0.00     0.162 C 
BRANCH   9  10
HETATM   10  N   UNL     1      -0.595 -29.507  16.382  1.00  0.00    -0.380 N 
HETATM   11  CA  UNL     1       0.238 -30.332  15.971  1.00  0.00     0.105 C 
ATOM     12  HN  UNL     1      -0.537 -28.541  16.061  1.00  0.00     0.160 HD
BRANCH  11  13
HETATM   13  C   UNL     1       0.174 -31.791  16.424  1.00  0.00     0.026 C 
HETATM   14  C   UNL     1       0.490 -32.772  15.606  1.00  0.00     0.014 C 
ENDBRANCH  11  13
BRANCH  11  15
HETATM   15  C   UNL     1       1.306 -29.845  15.002  1.00  0.00     0.226 C 
HETATM   16  O   UNL     1       1.075 -29.812  13.764  1.00  0.00    -0.643 OA
HETATM   17  OXT UNL     1       2.427 -29.485  15.452  1.00  0.00    -0.643 OA
ENDBRANCH  11  15
ENDBRANCH   9  10
ENDBRANCH   2   9
BRANCH   3  18
HETATM   18  O   UNL     1      -4.492 -30.284  18.253  1.00  0.00    -0.358 OA
ATOM     19  HO  UNL     1      -3.940 -31.039  18.087  1.00  0.00     0.217 HD
ENDBRANCH   3  18
BRANCH   6  20
HETATM   20  C   UNL     1      -0.917 -27.191  16.605  1.00  0.00     0.223 C 
BRANCH  20  21
HETATM   21  O   UNL     1      -0.358 -26.238  17.469  1.00  0.00    -0.278 OA
BRANCH  21  22
HETATM   22  P   UNL     1       0.382 -24.906  16.844  1.00  0.00     0.422 P 
HETATM   23  O   UNL     1      -0.514 -23.705  17.013  1.00  0.00    -0.617 OA
HETATM   24  O   UNL     1       1.683 -24.666  17.567  1.00  0.00    -0.617 OA
HETATM   25  O   UNL     1       0.655 -25.155  15.376  1.00  0.00    -0.617 OA
ENDBRANCH  21  22
ENDBRANCH  20  21
ENDBRANCH   6  20
TORSDOF 8
ENDMDL
MODEL 4
REMARK VINA RESULT:    -7.828      1.561      4.807
REMARK INTER + INTRA:         -11.698
REMARK INTER:                 -11.896
REMARK INTRA:                   0.198
REMARK UNBOUND:                -0.438
REMARK  8 active torsions:
REMARK  status: ('A' for Active; 'I' for Inactive)
REMARK    1  A    between atoms: C_2  and  C_12 
REMARK    2  A    between atoms: C_2  and  O_19 
REMARK    3  A    between atoms: C_3  and  CA_6 
REMARK    4  A    between atoms: C_5  and  CA_6 
REMARK    5  A    between atoms: C_7  and  N_13 
REMARK    6  A    between atoms: C_7  and  C_8 
REMARK    7  A    between atoms: C_9  and  O_17 
REMARK    8  A    between atoms: O_19  and  P_25 
ROOT
HETATM    1  C   UNL     1      -5.034 -29.369  18.142  1.00  0.00     0.071 C 
HETATM    2  C   UNL     1      -1.561 -28.457  16.930  1.00  0.00     0.004 A 
HETATM    3  C   UNL     1      -2.658 -29.222  17.348  1.00  0.00     0.096 A 
HETATM    4  C   UNL     1      -3.826 -28.559  17.682  1.00  0.00     0.039 A 
HETATM    5  C   UNL     1      -2.898 -26.508  17.221  1.00  0.00     0.098 A 
HETATM    6  C   UNL     1      -1.690 -27.077  16.866  1.00  0.00    -0.008 A 
HETATM    7  N   UNL     1      -3.920 -27.247  17.612  1.00  0.00    -0.367 N 
ATOM      8  HN  UNL     1      -4.798 -26.793  17.865  1.00  0.00     0.165 HD
ENDROOT
BRANCH   2   9
HETATM    9  C   UNL     1      -0.210 -29.057  16.535  1.00  0.00     0.162 C 
BRANCH   9  10
HETATM   10  N   UNL     1      -0.150 -30.478  16.804  1.00  0.00    -0.380 N 
HETATM   11  CA  UNL     1       0.261 -31.285  15.954  1.00  0.00     0.105 C 
ATOM     12  HN  UNL     1      -0.452 -30.825  17.714  1.00  0.00     0.160 HD
BRANCH  11  13
HETATM   13  C   UNL     1       0.732 -30.797  14.584  1.00  0.00     0.026 C 
HETATM   14  C   UNL     1       1.514 -29.745  14.468  1.00  0.00     0.014 C 
ENDBRANCH  11  13
BRANCH  11  15
HETATM   15  C   UNL     1       0.288 -32.761  16.328  1.00  0.00     0.226 C 
HETATM   16  O   UNL     1       1.209 -33.508  15.903  1.00  0.00    -0.643 OA
HETATM   17  OXT UNL     1      -0.627 -33.228  17.057  1.00  0.00    -0.643 OA
ENDBRANCH  11  15
ENDBRANCH   9  10
ENDBRANCH   2   9
BRANCH   3  18
HETATM   18  O   UNL     1      -2.639 -30.616  17.450  1.00  0.00    -0.358 OA
ATOM     19  HO  UNL     1      -1.813 -31.064  17.313  1.00  0.00     0.217 HD
ENDBRANCH   3  18
BRANCH   6  20
HETATM   20  C   UNL     1      -0.519 -26.202  16.409  1.00  0.00     0.223 C 
BRANCH  20  21
HETATM   21  O   UNL     1      -0.292 -25.241  17.404  1.00  0.00    -0.278 OA
BRANCH  21  22
HETATM   22  P   UNL     1       0.661 -23.938  17.077  1.00  0.00     0.422 P 
HETATM   23  O   UNL     1       1.009 -23.922  15.610  1.00  0.00    -0.617 OA
HETATM   24  O   UNL     1      -0.077 -22.672  17.430  1.00  0.00    -0.617 OA
HETATM   25  O   UNL     1       1.919 -24.043  17.913  1.00  0.00    -0.617 OA
ENDBRANCH  21  22
ENDBRANCH  20  21
ENDBRANCH   6  20
TORSDOF 8
ENDMDL
MODEL 5
REMARK VINA RESULT:    -7.070      1.552      2.175
REMARK INTER + INTRA:         -10.608
REMARK INTER:                 -11.402
REMARK INTRA:                   0.794
REMARK UNBOUND:                -0.438
REMARK  8 active torsions:
REMARK  status: ('A' for Active; 'I' for Inactive)
REMARK    1  A    between atoms: C_2  and  C_12 
REMARK    2  A    between atoms: C_2  and  O_19 
REMARK    3  A    between atoms: C_3  and  CA_6 
REMARK    4  A    between atoms: C_5  and  CA_6 
REMARK    5  A    between atoms: C_7  and  N_13 
REMARK    6  A    between atoms: C_7  and  C_8 
REMARK    7  A    between atoms: C_9  and  O_17 
REMARK    8  A    between atoms: O_19  and  P_25 
ROOT
HETATM    1  C   UNL     1       0.602 -31.462  15.378  1.00  0.00     0.071 C 
HETATM    2  C   UNL     1      -1.520 -28.722  16.911  1.00  0.00     0.004 A 
HETATM    3  C   UNL     1      -1.071 -29.995  16.540  1.00  0.00     0.096 A 
HETATM    4  C   UNL     1       0.093 -30.086  15.796  1.00  0.00     0.039 A 
HETATM    5  C   UNL     1       0.366 -27.804  15.782  1.00  0.00     0.098 A 
HETATM    6  C   UNL     1      -0.784 -27.610  16.524  1.00  0.00    -0.008 A 
HETATM    7  N   UNL     1       0.772 -29.013  15.442  1.00  0.00    -0.367 N 
ATOM      8  HN  UNL     1       1.627 -29.120  14.896  1.00  0.00     0.165 HD
ENDROOT
BRANCH   2   9
HETATM    9  C   UNL     1      -2.790 -28.474  17.728  1.00  0.00     0.162 C 
BRANCH   9  10
HETATM   10  N   UNL     1      -3.508 -27.304  17.269  1.00  0.00    -0.380 N 
HETATM   11  CA  UNL     1      -4.627 -27.008  17.720  1.00  0.00     0.105 C 
ATOM     12  HN  UNL     1      -3.085 -26.708  16.558  1.00  0.00     0.160 HD
BRANCH  11  13
HETATM   13  C   UNL     1      -5.285 -27.873  18.795  1.00  0.00     0.026 C 
HETATM   14  C   UNL     1      -5.690 -29.097  18.529  1.00  0.00     0.014 C 
ENDBRANCH  11  13
BRANCH  11  15
HETATM   15  C   UNL     1      -5.306 -25.758  17.177  1.00  0.00     0.226 C 
HETATM   16  O   UNL     1      -6.512 -25.519  17.450  1.00  0.00    -0.643 OA
HETATM   17  OXT UNL     1      -4.650 -24.972  16.442  1.00  0.00    -0.643 OA
ENDBRANCH  11  15
ENDBRANCH   9  10
ENDBRANCH   2   9
BRANCH   3  18
HETATM   18  O   UNL     1      -1.733 -31.180  16.875  1.00  0.00    -0.358 OA
ATOM     19  HO  UNL     1      -1.422 -31.669  17.627  1.00  0.00     0.217 HD
ENDBRANCH   3  18
BRANCH   6  20
HETATM   20  C   UNL     1      -1.233 -26.199  16.912  1.00  0.00     0.223 C 
BRANCH  20  21
HETATM   21  O   UNL     1      -0.198 -25.611  17.652  1.00  0.00    -0.278 OA
BRANCH  21  22
HETATM   22  P   UNL     1       0.550 -24.261  17.077  1.00  0.00     0.422 P 
HETATM   23  O   UNL     1       1.835 -24.035  17.832  1.00  0.00    -0.617 OA
HETATM   24  O   UNL     1       0.855 -24.439  15.612  1.00  0.00    -0.617 OA
HETATM   25  O   UNL     1      -0.382 -23.081  17.262  1.00  0.00    -0.617 OA
ENDBRANCH  21  22
ENDBRANCH  20  21
ENDBRANCH   6  20
TORSDOF 8
ENDMDL
