REMARK  8 active torsions:
REMARK  status: ('A' for Active; 'I' for Inactive)
REMARK    1  A    between atoms: C_1  and  C_6 
REMARK    2  A    between atoms: C_2  and  O_22 
REMARK    3  A    between atoms: C_3  and  O_23 
REMARK    4  A    between atoms: C_7  and  C_11 
REMARK    5  A    between atoms: C_13  and  C_16 
REMARK    6  A    between atoms: C_16  and  C_18 
REMARK    7  A    between atoms: C_18  and  C_19 
REMARK    8  A    between atoms: C_19  and  C_20 
ROOT
HETATM    1  C   UNL     1       1.147  -0.220   0.185  1.00  0.00     0.075 A 
HETATM    2  C   UNL     1      -1.153  -0.722  -0.460  1.00  0.00     0.075 A 
HETATM    3  C   UNL     1      -0.210  -0.440   0.561  1.00  0.00     0.017 A 
HETATM    4  C   UNL     1       0.598  -0.672  -2.144  1.00  0.00    -0.053 A 
HETATM    5  C   UNL     1       1.530  -0.357  -1.151  1.00  0.00     0.044 A 
HETATM    6  C   UNL     1      -0.743  -0.840  -1.792  1.00  0.00     0.044 A 
ENDROOT
BRANCH   3   7
HETATM    7  C   UNL     1      -0.680  -0.335   2.013  1.00  0.00     0.055 C 
HETATM    8  C   UNL     1      -1.438   0.998   2.255  1.00  0.00     0.026 C 
HETATM    9  C   UNL     1      -2.177   0.953   3.603  1.00  0.00     0.014 C 
HETATM   10  C   UNL     1      -3.207  -0.179   3.597  1.00  0.00     0.034 C 
HETATM   11  C   UNL     1      -2.597  -1.499   3.181  1.00  0.00    -0.087 C 
HETATM   12  C   UNL     1      -3.296  -2.775   3.558  1.00  0.00     0.043 C 
HETATM   13  C   UNL     1      -1.495  -1.557   2.403  1.00  0.00    -0.014 C 
BRANCH   8  14
HETATM   14  C   UNL     1      -0.497   2.196   2.178  1.00  0.00    -0.088 C 
HETATM   15  C   UNL     1       0.398   2.554   3.338  1.00  0.00     0.043 C 
HETATM   16  C   UNL     1      -0.468   2.951   1.069  1.00  0.00     0.014 C 
ENDBRANCH   8  14
ENDBRANCH   3   7
BRANCH   1  17
HETATM   17  O   UNL     1       2.149   0.148   1.087  1.00  0.00    -0.360 OA
HETATM   18  H   UNL     1       2.005   0.363   2.061  1.00  0.00     0.217 HD
ENDBRANCH   1  17
BRANCH   2  19
HETATM   19  O   UNL     1      -2.504  -0.887  -0.151  1.00  0.00    -0.360 OA
HETATM   20  H   UNL     1      -3.195  -1.083  -0.866  1.00  0.00     0.217 HD
ENDBRANCH   2  19
BRANCH   4  21
HETATM   21  C   UNL     1       1.030  -0.834  -3.579  1.00  0.00     0.039 C 
BRANCH  21  22
HETATM   22  C   UNL     1       1.097  -2.314  -3.998  1.00  0.00     0.005 C 
BRANCH  22  23
HETATM   23  C   UNL     1       2.298  -3.070  -3.388  1.00  0.00    -0.000 C 
BRANCH  23  24
HETATM   24  C   UNL     1       3.475  -3.241  -4.362  1.00  0.00    -0.005 C 
HETATM   25  C   UNL     1       4.171  -1.925  -4.697  1.00  0.00     0.005 C 
ENDBRANCH  23  24
ENDBRANCH  22  23
ENDBRANCH  21  22
ENDBRANCH   4  21
TORSDOF 8
