REMARK  8 active torsions:
REMARK  status: ('A' for Active; 'I' for Inactive)
REMARK    1  A    between atoms: C_1  and  C_6 
REMARK    2  A    between atoms: C_2  and  O_22 
REMARK    3  A    between atoms: C_3  and  O_24 
REMARK    4  A    between atoms: C_7  and  C_11 
REMARK    5  A    between atoms: C_13  and  C_16 
REMARK    6  A    between atoms: C_16  and  C_18 
REMARK    7  A    between atoms: C_18  and  C_19 
REMARK    8  A    between atoms: C_19  and  C_20 
ROOT
HETATM    1  C   UNL     1     -61.845 -55.819  35.620  1.00  0.00     0.075 A 
HETATM    2  C   UNL     1     -61.042 -57.837  36.751  1.00  0.00     0.075 A 
HETATM    3  C   UNL     1     -61.793 -57.254  35.668  1.00  0.00     0.017 A 
HETATM    4  C   UNL     1     -60.479 -55.624  37.682  1.00  0.00    -0.053 A 
HETATM    5  C   UNL     1     -61.203 -55.033  36.610  1.00  0.00     0.044 A 
HETATM    6  C   UNL     1     -60.406 -57.042  37.744  1.00  0.00     0.044 A 
ENDROOT
BRANCH   3   7
HETATM    7  C   UNL     1     -62.503 -58.068  34.579  1.00  0.00     0.055 C 
HETATM    8  C   UNL     1     -61.582 -59.023  33.770  1.00  0.00     0.026 C 
HETATM    9  C   UNL     1     -62.472 -59.900  32.847  1.00  0.00     0.014 C 
HETATM   10  C   UNL     1     -63.452 -60.795  33.672  1.00  0.00     0.034 C 
HETATM   11  C   UNL     1     -64.163 -60.040  34.820  1.00  0.00    -0.087 C 
HETATM   12  C   UNL     1     -63.671 -58.799  35.258  1.00  0.00    -0.014 C 
HETATM   13  C   UNL     1     -65.213 -60.870  35.617  1.00  0.00     0.043 C 
BRANCH   8  14
HETATM   14  C   UNL     1     -60.545 -58.267  32.924  1.00  0.00    -0.088 C 
HETATM   15  C   UNL     1     -59.268 -58.229  33.349  1.00  0.00     0.014 C 
HETATM   16  C   UNL     1     -60.936 -57.556  31.635  1.00  0.00     0.043 C 
ENDBRANCH   8  14
ENDBRANCH   3   7
BRANCH   2  17
HETATM   17  O   UNL     1     -60.983 -59.218  36.811  1.00  0.00    -0.360 OA
ATOM     18  HO  UNL     1     -60.488 -59.602  37.525  1.00  0.00     0.217 HD
ENDBRANCH   2  17
BRANCH   1  19
HETATM   19  O   UNL     1     -62.558 -55.246  34.563  1.00  0.00    -0.360 OA
ATOM     20  HO  UNL     1     -62.592 -54.297  34.531  1.00  0.00     0.217 HD
ENDBRANCH   1  19
BRANCH   4  21
HETATM   21  C   UNL     1     -59.791 -54.726  38.770  1.00  0.00     0.039 C 
BRANCH  21  22
HETATM   22  C   UNL     1     -59.300 -53.352  38.247  1.00  0.00     0.005 C 
BRANCH  22  23
HETATM   23  C   UNL     1     -57.764 -53.215  38.164  1.00  0.00    -0.000 C 
BRANCH  23  24
HETATM   24  C   UNL     1     -57.214 -51.938  37.472  1.00  0.00    -0.005 C 
HETATM   25  C   UNL     1     -56.412 -52.282  36.196  1.00  0.00     0.005 C 
ENDBRANCH  23  24
ENDBRANCH  22  23
ENDBRANCH  21  22
ENDBRANCH   4  21
TORSDOF 8
