REMARK  6 active torsions:
REMARK  status: ('A' for Active; 'I' for Inactive)
REMARK    1  A    between atoms: C_2  and  C_4 
REMARK       I    between atoms: C_2  and  N_16 
REMARK    2  A    between atoms: C_7  and  C_8 
REMARK    3  A    between atoms: C_8  and  O_26 
REMARK    4  A    between atoms: C_9  and  O_26 
REMARK    5  A    between atoms: N_16  and  C_17 
REMARK    6  A    between atoms: C_18  and  C_20 
ROOT
HETATM    1  C   UNL     1      -0.150   0.011   1.380  1.00  0.00     0.034 A 
HETATM    2  C   UNL     1       1.411   0.699   3.116  1.00  0.00     0.035 A 
HETATM    3  C   UNL     1       2.247   1.262   2.149  1.00  0.00     0.033 A 
HETATM    4  C   UNL     1       1.896   1.208   0.792  1.00  0.00    -0.032 A 
HETATM    5  C   UNL     1       0.217   0.079   2.735  1.00  0.00     0.041 A 
HETATM    6  C   UNL     1       0.691   0.595   0.414  1.00  0.00     0.026 A 
HETATM    7 CL   UNL     1       1.860   0.770   4.810  1.00  0.00    -0.084 Cl
ENDROOT
BRANCH   1   8
HETATM    8  C   UNL     1      -1.418  -0.649   0.988  1.00  0.00     0.252 C 
HETATM    9  O   UNL     1      -2.353  -0.748   1.830  1.00  0.00    -0.268 OA
HETATM   10  N   UNL     1      -1.596  -1.189  -0.330  1.00  0.00    -0.352 N 
HETATM   11  H   UNL     1      -0.767  -1.334  -0.950  1.00  0.00     0.163 HD
BRANCH  10  12
HETATM   12  C   UNL     1      -2.880  -1.734  -0.758  1.00  0.00     0.094 A 
HETATM   13  C   UNL     1      -3.905  -0.657  -1.091  1.00  0.00     0.043 A 
HETATM   14  C   UNL     1      -3.216  -1.428  -2.214  1.00  0.00     0.037 A 
BRANCH  13  15
HETATM   15  C   UNL     1      -5.363  -0.987  -0.826  1.00  0.00    -0.052 A 
HETATM   16  C   UNL     1      -5.902  -2.289  -0.926  1.00  0.00     0.007 A 
HETATM   17  C   UNL     1      -7.256  -2.517  -0.662  1.00  0.00     0.001 A 
HETATM   18  C   UNL     1      -8.088  -1.458  -0.295  1.00  0.00     0.000 A 
HETATM   19  C   UNL     1      -7.568  -0.167  -0.192  1.00  0.00     0.001 A 
HETATM   20  C   UNL     1      -6.215   0.068  -0.455  1.00  0.00     0.007 A 
ENDBRANCH  13  15
ENDBRANCH  10  12
ENDBRANCH   1   8
BRANCH   4  21
HETATM   21  C   UNL     1       2.799   1.828  -0.242  1.00  0.00     0.214 C 
BRANCH  21  22
HETATM   22  O   UNL     1       4.123   1.305  -0.135  1.00  0.00    -0.345 OA
BRANCH  22  23
HETATM   23  C   UNL     1       4.506  -0.004  -0.469  1.00  0.00     0.085 A 
HETATM   24  C   UNL     1       5.825  -0.405  -0.185  1.00  0.00     0.053 A 
HETATM   25  C   UNL     1       6.194  -1.703  -0.513  1.00  0.00     0.012 A 
HETATM   26  C   UNL     1       5.309  -2.562  -1.095  1.00  0.00     0.115 A 
HETATM   27  C   UNL     1       7.383  -2.383  -0.363  1.00  0.00     0.032 A 
HETATM   28  N   UNL     1       5.866  -3.759  -1.327  1.00  0.00    -0.352 N 
HETATM   29  N   UNL     1       4.036  -2.200  -1.384  1.00  0.00    -0.349 N 
HETATM   30  C   UNL     1       7.140  -3.655  -0.880  1.00  0.00     0.090 A 
HETATM   31  H   UNL     1       5.416  -4.595  -1.761  1.00  0.00     0.166 HD
HETATM   32  C   UNL     1       3.618  -0.934  -1.082  1.00  0.00     0.126 A 
ATOM     33  HN  UNL     1       3.397  -2.864  -1.822  1.00  0.00     0.167 HD
ENDBRANCH  22  23
ENDBRANCH  21  22
ENDBRANCH   4  21
TORSDOF 6
