MODEL 1
REMARK VINA RESULT:    -8.184      0.000      0.000
REMARK INTER + INTRA:         -10.241
REMARK INTER:                  -9.619
REMARK INTRA:                  -0.622
REMARK UNBOUND:                -0.622
REMARK  3 active torsions:
REMARK  status: ('A' for Active; 'I' for Inactive)
REMARK    1  A    between atoms: C_6  and  S_9 
REMARK    2  A    between atoms: S_9  and  N_12 
REMARK    3  A    between atoms: N_12  and  C_14 
ROOT
HETATM    1  C   UNL     1      46.687  38.635  76.341  1.00  0.00     0.043 A 
HETATM    2  C   UNL     1      47.759  39.472  76.652  1.00  0.00     0.041 A 
HETATM    3  C   UNL     1      47.623  40.525  77.548  1.00  0.00    -0.011 A 
HETATM    4  C   UNL     1      48.766  41.398  77.846  1.00  0.00     0.168 A 
HETATM    5  N   UNL     1      48.495  42.400  78.875  1.00  0.00    -0.334 N 
HETATM    6  C   UNL     1      49.604  43.252  79.288  1.00  0.00     0.154 C 
HETATM    7  C   UNL     1      47.230  42.597  79.436  1.00  0.00     0.322 A 
HETATM    8  O   UNL     1      47.052  43.484  80.276  1.00  0.00    -0.247 OA
HETATM    9  N   UNL     1      46.220  41.823  79.035  1.00  0.00    -0.308 N 
ATOM     10  HN  UNL     1      45.284  42.027  79.386  1.00  0.00     0.170 HD
HETATM   11  C   UNL     1      46.380  40.766  78.175  1.00  0.00     0.044 A 
HETATM   12  C   UNL     1      45.302  39.922  77.904  1.00  0.00     0.032 A 
HETATM   13  C   UNL     1      45.471  38.859  77.007  1.00  0.00     0.032 A 
ENDROOT
BRANCH   1  14
HETATM   14  N   UNL     1      46.800  37.517  75.479  1.00  0.00    -0.281 N 
ATOM     15  HN  UNL     1      46.905  36.591  75.894  1.00  0.00     0.179 HD
BRANCH  14  16
HETATM   16  S   UNL     1      46.770  37.641  73.909  1.00  0.00     0.263 S 
HETATM   17  O   UNL     1      46.591  36.303  73.381  1.00  0.00    -0.200 OA
HETATM   18  O   UNL     1      45.867  38.651  73.465  1.00  0.00    -0.200 OA
BRANCH  16  19
HETATM   19  C   UNL     1      48.270  38.104  73.467  1.00  0.00     0.080 A 
HETATM   20  C   UNL     1      49.447  37.373  73.739  1.00  0.00     0.035 A 
HETATM   21  C   UNL     1      50.740  37.728  73.315  1.00  0.00    -0.022 A 
HETATM   22  C   UNL     1      51.944  36.918  73.731  1.00  0.00     0.051 C 
HETATM   23  C   UNL     1      50.882  38.844  72.535  1.00  0.00     0.122 A 
HETATM   24  C   UNL     1      49.794  39.606  72.172  1.00  0.00     0.044 A 
HETATM   25  F   UNL     1      52.124  39.216  72.158  1.00  0.00    -0.206 F 
HETATM   26  C   UNL     1      48.518  39.208  72.603  1.00  0.00     0.028 A 
ENDBRANCH  16  19
ENDBRANCH  14  16
ENDBRANCH   1  14
TORSDOF 3
ENDMDL
MODEL 2
REMARK VINA RESULT:    -8.018      4.207      7.737
REMARK INTER + INTRA:         -10.046
REMARK INTER:                  -9.933
REMARK INTRA:                  -0.113
REMARK UNBOUND:                -0.622
REMARK  3 active torsions:
REMARK  status: ('A' for Active; 'I' for Inactive)
REMARK    1  A    between atoms: C_6  and  S_9 
REMARK    2  A    between atoms: S_9  and  N_12 
REMARK    3  A    between atoms: N_12  and  C_14 
ROOT
HETATM    1  C   UNL     1      45.526  39.810  77.802  1.00  0.00     0.043 A 
HETATM    2  C   UNL     1      46.221  38.847  77.069  1.00  0.00     0.041 A 
HETATM    3  C   UNL     1      45.556  37.879  76.327  1.00  0.00    -0.011 A 
HETATM    4  C   UNL     1      46.312  36.870  75.575  1.00  0.00     0.168 A 
HETATM    5  N   UNL     1      45.478  35.981  74.769  1.00  0.00    -0.334 N 
HETATM    6  C   UNL     1      46.161  35.004  73.928  1.00  0.00     0.154 C 
HETATM    7  C   UNL     1      44.082  36.002  74.805  1.00  0.00     0.322 A 
HETATM    8  O   UNL     1      43.429  35.202  74.128  1.00  0.00    -0.247 OA
HETATM    9  N   UNL     1      43.471  36.888  75.592  1.00  0.00    -0.308 N 
ATOM     10  HN  UNL     1      42.456  36.843  75.678  1.00  0.00     0.170 HD
HETATM   11  C   UNL     1      44.143  37.858  76.294  1.00  0.00     0.044 A 
HETATM   12  C   UNL     1      43.428  38.831  76.993  1.00  0.00     0.032 A 
HETATM   13  C   UNL     1      44.124  39.803  77.723  1.00  0.00     0.032 A 
ENDROOT
BRANCH   1  14
HETATM   14  N   UNL     1      46.166  40.846  78.524  1.00  0.00    -0.281 N 
ATOM     15  HN  UNL     1      45.598  41.446  79.123  1.00  0.00     0.179 HD
BRANCH  14  16
HETATM   16  S   UNL     1      47.717  41.113  78.445  1.00  0.00     0.263 S 
HETATM   17  O   UNL     1      48.374  40.001  79.103  1.00  0.00    -0.200 OA
HETATM   18  O   UNL     1      48.140  41.439  77.124  1.00  0.00    -0.200 OA
BRANCH  16  19
HETATM   19  C   UNL     1      47.995  42.420  79.380  1.00  0.00     0.080 A 
HETATM   20  C   UNL     1      47.151  42.850  80.427  1.00  0.00     0.035 A 
HETATM   21  C   UNL     1      47.406  43.940  81.280  1.00  0.00    -0.022 A 
HETATM   22  C   UNL     1      46.396  44.367  82.317  1.00  0.00     0.051 C 
HETATM   23  C   UNL     1      48.584  44.620  81.127  1.00  0.00     0.122 A 
HETATM   24  C   UNL     1      49.501  44.257  80.165  1.00  0.00     0.044 A 
HETATM   25  F   UNL     1      48.818  45.693  81.913  1.00  0.00    -0.206 F 
HETATM   26  C   UNL     1      49.216  43.153  79.345  1.00  0.00     0.028 A 
ENDBRANCH  16  19
ENDBRANCH  14  16
ENDBRANCH   1  14
TORSDOF 3
ENDMDL
MODEL 3
REMARK VINA RESULT:    -7.729      4.359      6.913
REMARK INTER + INTRA:          -9.706
REMARK INTER:                  -9.398
REMARK INTRA:                  -0.309
REMARK UNBOUND:                -0.622
REMARK  3 active torsions:
REMARK  status: ('A' for Active; 'I' for Inactive)
REMARK    1  A    between atoms: C_6  and  S_9 
REMARK    2  A    between atoms: S_9  and  N_12 
REMARK    3  A    between atoms: N_12  and  C_14 
ROOT
HETATM    1  C   UNL     1      45.752  38.573  76.873  1.00  0.00     0.043 A 
HETATM    2  C   UNL     1      45.725  39.559  77.859  1.00  0.00     0.041 A 
HETATM    3  C   UNL     1      46.803  40.411  78.067  1.00  0.00    -0.011 A 
HETATM    4  C   UNL     1      46.751  41.431  79.121  1.00  0.00     0.168 A 
HETATM    5  N   UNL     1      47.919  42.310  79.155  1.00  0.00    -0.334 N 
HETATM    6  C   UNL     1      47.906  43.402  80.121  1.00  0.00     0.154 C 
HETATM    7  C   UNL     1      49.042  42.121  78.345  1.00  0.00     0.322 A 
HETATM    8  O   UNL     1      50.015  42.874  78.443  1.00  0.00    -0.247 OA
HETATM    9  N   UNL     1      49.048  41.106  77.479  1.00  0.00    -0.308 N 
ATOM     10  HN  UNL     1      49.901  40.923  76.952  1.00  0.00     0.170 HD
HETATM   11  C   UNL     1      47.961  40.296  77.265  1.00  0.00     0.044 A 
HETATM   12  C   UNL     1      47.998  39.338  76.251  1.00  0.00     0.032 A 
HETATM   13  C   UNL     1      46.891  38.502  76.055  1.00  0.00     0.032 A 
ENDROOT
BRANCH   1  14
HETATM   14  N   UNL     1      44.654  37.725  76.593  1.00  0.00    -0.281 N 
ATOM     15  HN  UNL     1      44.712  36.745  76.869  1.00  0.00     0.179 HD
BRANCH  14  16
HETATM   16  S   UNL     1      43.345  38.229  75.874  1.00  0.00     0.263 S 
HETATM   17  O   UNL     1      43.627  39.555  75.360  1.00  0.00    -0.200 OA
HETATM   18  O   UNL     1      42.827  37.265  74.962  1.00  0.00    -0.200 OA
BRANCH  16  19
HETATM   19  C   UNL     1      42.235  38.428  77.053  1.00  0.00     0.080 A 
HETATM   20  C   UNL     1      41.070  37.644  77.197  1.00  0.00     0.035 A 
HETATM   21  C   UNL     1      40.134  37.764  78.240  1.00  0.00    -0.022 A 
HETATM   22  C   UNL     1      38.876  36.930  78.254  1.00  0.00     0.051 C 
HETATM   23  C   UNL     1      40.381  38.677  79.229  1.00  0.00     0.122 A 
HETATM   24  C   UNL     1      41.511  39.464  79.212  1.00  0.00     0.044 A 
HETATM   25  F   UNL     1      39.467  38.829  80.212  1.00  0.00    -0.206 F 
HETATM   26  C   UNL     1      42.429  39.301  78.161  1.00  0.00     0.028 A 
ENDBRANCH  16  19
ENDBRANCH  14  16
ENDBRANCH   1  14
TORSDOF 3
ENDMDL
MODEL 4
REMARK VINA RESULT:    -7.710      3.322      4.510
REMARK INTER + INTRA:          -9.684
REMARK INTER:                  -9.442
REMARK INTRA:                  -0.242
REMARK UNBOUND:                -0.622
REMARK  3 active torsions:
REMARK  status: ('A' for Active; 'I' for Inactive)
REMARK    1  A    between atoms: C_6  and  S_9 
REMARK    2  A    between atoms: S_9  and  N_12 
REMARK    3  A    between atoms: N_12  and  C_14 
ROOT
HETATM    1  C   UNL     1      45.989  38.844  76.788  1.00  0.00     0.043 A 
HETATM    2  C   UNL     1      45.888  39.788  77.810  1.00  0.00     0.041 A 
HETATM    3  C   UNL     1      46.959  40.603  78.157  1.00  0.00    -0.011 A 
HETATM    4  C   UNL     1      46.828  41.579  79.245  1.00  0.00     0.168 A 
HETATM    5  N   UNL     1      48.005  42.426  79.429  1.00  0.00    -0.334 N 
HETATM    6  C   UNL     1      47.922  43.477  80.436  1.00  0.00     0.154 C 
HETATM    7  C   UNL     1      49.195  42.243  78.721  1.00  0.00     0.322 A 
HETATM    8  O   UNL     1      50.170  42.967  78.944  1.00  0.00    -0.247 OA
HETATM    9  N   UNL     1      49.264  41.266  77.816  1.00  0.00    -0.308 N 
ATOM     10  HN  UNL     1      50.159  41.084  77.364  1.00  0.00     0.170 HD
HETATM   11  C   UNL     1      48.185  40.493  77.464  1.00  0.00     0.044 A 
HETATM   12  C   UNL     1      48.300  39.577  76.416  1.00  0.00     0.032 A 
HETATM   13  C   UNL     1      47.199  38.778  76.079  1.00  0.00     0.032 A 
ENDROOT
BRANCH   1  14
HETATM   14  N   UNL     1      44.905  38.037  76.368  1.00  0.00    -0.281 N 
ATOM     15  HN  UNL     1      44.983  37.024  76.468  1.00  0.00     0.179 HD
BRANCH  14  16
HETATM   16  S   UNL     1      43.582  38.632  75.753  1.00  0.00     0.263 S 
HETATM   17  O   UNL     1      42.578  37.589  75.816  1.00  0.00    -0.200 OA
HETATM   18  O   UNL     1      43.251  39.900  76.313  1.00  0.00    -0.200 OA
BRANCH  16  19
HETATM   19  C   UNL     1      43.891  38.867  74.169  1.00  0.00     0.080 A 
HETATM   20  C   UNL     1      43.300  39.877  73.378  1.00  0.00     0.035 A 
HETATM   21  C   UNL     1      43.599  40.130  72.027  1.00  0.00    -0.022 A 
HETATM   22  C   UNL     1      42.848  41.183  71.249  1.00  0.00     0.051 C 
HETATM   23  C   UNL     1      44.573  39.377  71.428  1.00  0.00     0.122 A 
HETATM   24  C   UNL     1      45.245  38.394  72.120  1.00  0.00     0.044 A 
HETATM   25  F   UNL     1      44.837  39.584  70.120  1.00  0.00    -0.206 F 
HETATM   26  C   UNL     1      44.928  38.185  73.471  1.00  0.00     0.028 A 
ENDBRANCH  16  19
ENDBRANCH  14  16
ENDBRANCH   1  14
TORSDOF 3
ENDMDL
MODEL 5
REMARK VINA RESULT:    -7.528      3.216      4.212
REMARK INTER + INTRA:          -9.470
REMARK INTER:                  -8.799
REMARK INTRA:                  -0.671
REMARK UNBOUND:                -0.622
REMARK  3 active torsions:
REMARK  status: ('A' for Active; 'I' for Inactive)
REMARK    1  A    between atoms: C_6  and  S_9 
REMARK    2  A    between atoms: S_9  and  N_12 
REMARK    3  A    between atoms: N_12  and  C_14 
ROOT
HETATM    1  C   UNL     1      45.877  37.921  76.517  1.00  0.00     0.043 A 
HETATM    2  C   UNL     1      45.677  38.894  77.496  1.00  0.00     0.041 A 
HETATM    3  C   UNL     1      46.602  39.908  77.714  1.00  0.00    -0.011 A 
HETATM    4  C   UNL     1      46.371  40.911  78.760  1.00  0.00     0.168 A 
HETATM    5  N   UNL     1      47.383  41.966  78.806  1.00  0.00    -0.334 N 
HETATM    6  C   UNL     1      47.180  43.046  79.764  1.00  0.00     0.154 C 
HETATM    7  C   UNL     1      48.533  41.956  78.013  1.00  0.00     0.322 A 
HETATM    8  O   UNL     1      49.371  42.856  78.120  1.00  0.00    -0.247 OA
HETATM    9  N   UNL     1      48.715  40.951  77.153  1.00  0.00    -0.308 N 
ATOM     10  HN  UNL     1      49.594  40.906  76.639  1.00  0.00     0.170 HD
HETATM   11  C   UNL     1      47.775  39.977  76.929  1.00  0.00     0.044 A 
HETATM   12  C   UNL     1      47.981  39.033  75.921  1.00  0.00     0.032 A 
HETATM   13  C   UNL     1      47.025  38.030  75.715  1.00  0.00     0.032 A 
ENDROOT
BRANCH   1  14
HETATM   14  N   UNL     1      44.933  36.907  76.226  1.00  0.00    -0.281 N 
ATOM     15  HN  UNL     1      45.165  35.942  76.464  1.00  0.00     0.179 HD
BRANCH  14  16
HETATM   16  S   UNL     1      43.540  37.202  75.552  1.00  0.00     0.263 S 
HETATM   17  O   UNL     1      42.986  35.926  75.146  1.00  0.00    -0.200 OA
HETATM   18  O   UNL     1      42.722  38.049  76.354  1.00  0.00    -0.200 OA
BRANCH  16  19
HETATM   19  C   UNL     1      43.871  38.010  74.175  1.00  0.00     0.080 A 
HETATM   20  C   UNL     1      44.522  37.450  73.054  1.00  0.00     0.035 A 
HETATM   21  C   UNL     1      44.762  38.116  71.838  1.00  0.00    -0.022 A 
HETATM   22  C   UNL     1      45.542  37.451  70.730  1.00  0.00     0.051 C 
HETATM   23  C   UNL     1      44.292  39.393  71.695  1.00  0.00     0.122 A 
HETATM   24  C   UNL     1      43.603  40.020  72.710  1.00  0.00     0.044 A 
HETATM   25  F   UNL     1      44.555  40.055  70.548  1.00  0.00    -0.206 F 
HETATM   26  C   UNL     1      43.370  39.315  73.902  1.00  0.00     0.028 A 
ENDBRANCH  16  19
ENDBRANCH  14  16
ENDBRANCH   1  14
TORSDOF 3
ENDMDL
MODEL 6
REMARK VINA RESULT:    -7.423      3.257      7.642
REMARK INTER + INTRA:          -9.347
REMARK INTER:                  -9.262
REMARK INTRA:                  -0.085
REMARK UNBOUND:                -0.622
REMARK  3 active torsions:
REMARK  status: ('A' for Active; 'I' for Inactive)
REMARK    1  A    between atoms: C_6  and  S_9 
REMARK    2  A    between atoms: S_9  and  N_12 
REMARK    3  A    between atoms: N_12  and  C_14 
ROOT
HETATM    1  C   UNL     1      47.310  39.287  76.326  1.00  0.00     0.043 A 
HETATM    2  C   UNL     1      48.180  38.831  75.336  1.00  0.00     0.041 A 
HETATM    3  C   UNL     1      47.905  37.688  74.596  1.00  0.00    -0.011 A 
HETATM    4  C   UNL     1      48.845  37.224  73.569  1.00  0.00     0.168 A 
HETATM    5  N   UNL     1      48.375  36.065  72.812  1.00  0.00    -0.334 N 
HETATM    6  C   UNL     1      49.215  35.595  71.717  1.00  0.00     0.154 C 
HETATM    7  C   UNL     1      47.197  35.379  73.119  1.00  0.00     0.322 A 
HETATM    8  O   UNL     1      46.867  34.384  72.467  1.00  0.00    -0.247 OA
HETATM    9  N   UNL     1      46.447  35.809  74.135  1.00  0.00    -0.308 N 
ATOM     10  HN  UNL     1      45.634  35.257  74.407  1.00  0.00     0.170 HD
HETATM   11  C   UNL     1      46.717  36.960  74.833  1.00  0.00     0.044 A 
HETATM   12  C   UNL     1      45.816  37.416  75.797  1.00  0.00     0.032 A 
HETATM   13  C   UNL     1      46.113  38.579  76.518  1.00  0.00     0.032 A 
ENDROOT
BRANCH   1  14
HETATM   14  N   UNL     1      47.527  40.478  77.061  1.00  0.00    -0.281 N 
ATOM     15  HN  UNL     1      48.117  41.203  76.651  1.00  0.00     0.179 HD
BRANCH  14  16
HETATM   16  S   UNL     1      46.896  40.734  78.482  1.00  0.00     0.263 S 
HETATM   17  O   UNL     1      45.543  41.207  78.266  1.00  0.00    -0.200 OA
HETATM   18  O   UNL     1      47.074  39.625  79.358  1.00  0.00    -0.200 OA
BRANCH  16  19
HETATM   19  C   UNL     1      47.718  41.992  79.117  1.00  0.00     0.080 A 
HETATM   20  C   UNL     1      47.264  42.783  80.194  1.00  0.00     0.035 A 
HETATM   21  C   UNL     1      47.986  43.833  80.791  1.00  0.00    -0.022 A 
HETATM   22  C   UNL     1      47.374  44.672  81.886  1.00  0.00     0.051 C 
HETATM   23  C   UNL     1      49.251  44.090  80.336  1.00  0.00     0.122 A 
HETATM   24  C   UNL     1      49.810  43.348  79.318  1.00  0.00     0.044 A 
HETATM   25  F   UNL     1      49.936  45.122  80.874  1.00  0.00    -0.206 F 
HETATM   26  C   UNL     1      49.062  42.299  78.760  1.00  0.00     0.028 A 
ENDBRANCH  16  19
ENDBRANCH  14  16
ENDBRANCH   1  14
TORSDOF 3
ENDMDL
MODEL 7
REMARK VINA RESULT:    -7.397      4.067      5.277
REMARK INTER + INTRA:          -9.316
REMARK INTER:                  -9.691
REMARK INTRA:                   0.375
REMARK UNBOUND:                -0.622
REMARK  3 active torsions:
REMARK  status: ('A' for Active; 'I' for Inactive)
REMARK    1  A    between atoms: C_6  and  S_9 
REMARK    2  A    between atoms: S_9  and  N_12 
REMARK    3  A    between atoms: N_12  and  C_14 
ROOT
HETATM    1  C   UNL     1      46.488  40.474  77.830  1.00  0.00     0.043 A 
HETATM    2  C   UNL     1      46.254  41.432  78.816  1.00  0.00     0.041 A 
HETATM    3  C   UNL     1      47.284  42.203  79.341  1.00  0.00    -0.011 A 
HETATM    4  C   UNL     1      47.010  43.194  80.389  1.00  0.00     0.168 A 
HETATM    5  N   UNL     1      48.174  43.991  80.771  1.00  0.00    -0.334 N 
HETATM    6  C   UNL     1      47.964  45.055  81.747  1.00  0.00     0.154 C 
HETATM    7  C   UNL     1      49.460  43.751  80.281  1.00  0.00     0.322 A 
HETATM    8  O   UNL     1      50.412  44.434  80.668  1.00  0.00    -0.247 OA
HETATM    9  N   UNL     1      49.640  42.762  79.403  1.00  0.00    -0.308 N 
ATOM     10  HN  UNL     1      50.591  42.538  79.113  1.00  0.00     0.170 HD
HETATM   11  C   UNL     1      48.606  42.033  78.871  1.00  0.00     0.044 A 
HETATM   12  C   UNL     1      48.859  41.104  77.861  1.00  0.00     0.032 A 
HETATM   13  C   UNL     1      47.799  40.350  77.341  1.00  0.00     0.032 A 
ENDROOT
BRANCH   1  14
HETATM   14  N   UNL     1      45.458  39.710  77.230  1.00  0.00    -0.281 N 
ATOM     15  HN  UNL     1      44.490  39.988  77.390  1.00  0.00     0.179 HD
BRANCH  14  16
HETATM   16  S   UNL     1      45.742  38.451  76.326  1.00  0.00     0.263 S 
HETATM   17  O   UNL     1      46.812  38.814  75.418  1.00  0.00    -0.200 OA
HETATM   18  O   UNL     1      45.905  37.262  77.094  1.00  0.00    -0.200 OA
BRANCH  16  19
HETATM   19  C   UNL     1      44.413  38.254  75.402  1.00  0.00     0.080 A 
HETATM   20  C   UNL     1      44.247  38.797  74.110  1.00  0.00     0.035 A 
HETATM   21  C   UNL     1      43.132  38.589  73.277  1.00  0.00    -0.022 A 
HETATM   22  C   UNL     1      43.017  39.285  71.944  1.00  0.00     0.051 C 
HETATM   23  C   UNL     1      42.141  37.755  73.721  1.00  0.00     0.122 A 
HETATM   24  C   UNL     1      42.221  37.136  74.948  1.00  0.00     0.044 A 
HETATM   25  F   UNL     1      41.048  37.582  72.947  1.00  0.00    -0.206 F 
HETATM   26  C   UNL     1      43.359  37.358  75.741  1.00  0.00     0.028 A 
ENDBRANCH  16  19
ENDBRANCH  14  16
ENDBRANCH   1  14
TORSDOF 3
ENDMDL
MODEL 8
REMARK VINA RESULT:    -7.299      3.256      4.276
REMARK INTER + INTRA:          -9.201
REMARK INTER:                  -8.704
REMARK INTRA:                  -0.497
REMARK UNBOUND:                -0.622
REMARK  3 active torsions:
REMARK  status: ('A' for Active; 'I' for Inactive)
REMARK    1  A    between atoms: C_6  and  S_9 
REMARK    2  A    between atoms: S_9  and  N_12 
REMARK    3  A    between atoms: N_12  and  C_14 
ROOT
HETATM    1  C   UNL     1      46.877  38.579  76.193  1.00  0.00     0.043 A 
HETATM    2  C   UNL     1      47.910  39.446  76.550  1.00  0.00     0.041 A 
HETATM    3  C   UNL     1      47.715  40.471  77.467  1.00  0.00    -0.011 A 
HETATM    4  C   UNL     1      48.818  41.376  77.815  1.00  0.00     0.168 A 
HETATM    5  N   UNL     1      48.486  42.342  78.861  1.00  0.00    -0.334 N 
HETATM    6  C   UNL     1      49.554  43.222  79.321  1.00  0.00     0.154 C 
HETATM    7  C   UNL     1      47.203  42.480  79.395  1.00  0.00     0.322 A 
HETATM    8  O   UNL     1      46.973  43.338  80.252  1.00  0.00    -0.247 OA
HETATM    9  N   UNL     1      46.231  41.680  78.952  1.00  0.00    -0.308 N 
ATOM     10  HN  UNL     1      45.281  41.841  79.284  1.00  0.00     0.170 HD
HETATM   11  C   UNL     1      46.450  40.652  78.070  1.00  0.00     0.044 A 
HETATM   12  C   UNL     1      45.410  39.776  77.752  1.00  0.00     0.032 A 
HETATM   13  C   UNL     1      45.639  38.743  76.834  1.00  0.00     0.032 A 
ENDROOT
BRANCH   1  14
HETATM   14  N   UNL     1      47.051  37.489  75.307  1.00  0.00    -0.281 N 
ATOM     15  HN  UNL     1      47.175  36.556  75.701  1.00  0.00     0.179 HD
BRANCH  14  16
HETATM   16  S   UNL     1      47.060  37.652  73.740  1.00  0.00     0.263 S 
HETATM   17  O   UNL     1      47.833  38.842  73.442  1.00  0.00    -0.200 OA
HETATM   18  O   UNL     1      47.426  36.446  73.075  1.00  0.00    -0.200 OA
BRANCH  16  19
HETATM   19  C   UNL     1      45.523  37.993  73.316  1.00  0.00     0.080 A 
HETATM   20  C   UNL     1      45.124  39.151  72.613  1.00  0.00     0.035 A 
HETATM   21  C   UNL     1      43.812  39.432  72.189  1.00  0.00    -0.022 A 
HETATM   22  C   UNL     1      43.477  40.741  71.516  1.00  0.00     0.051 C 
HETATM   23  C   UNL     1      42.841  38.497  72.426  1.00  0.00     0.122 A 
HETATM   24  C   UNL     1      43.129  37.311  73.064  1.00  0.00     0.044 A 
HETATM   25  F   UNL     1      41.571  38.776  72.060  1.00  0.00    -0.206 F 
HETATM   26  C   UNL     1      44.454  37.062  73.457  1.00  0.00     0.028 A 
ENDBRANCH  16  19
ENDBRANCH  14  16
ENDBRANCH   1  14
TORSDOF 3
ENDMDL
MODEL 9
REMARK VINA RESULT:    -7.203      1.980      2.571
REMARK INTER + INTRA:          -9.088
REMARK INTER:                  -8.657
REMARK INTRA:                  -0.431
REMARK UNBOUND:                -0.622
REMARK  3 active torsions:
REMARK  status: ('A' for Active; 'I' for Inactive)
REMARK    1  A    between atoms: C_6  and  S_9 
REMARK    2  A    between atoms: S_9  and  N_12 
REMARK    3  A    between atoms: N_12  and  C_14 
ROOT
HETATM    1  C   UNL     1      47.847  37.814  74.743  1.00  0.00     0.043 A 
HETATM    2  C   UNL     1      48.553  38.752  75.497  1.00  0.00     0.041 A 
HETATM    3  C   UNL     1      47.946  39.466  76.523  1.00  0.00    -0.011 A 
HETATM    4  C   UNL     1      48.710  40.456  77.292  1.00  0.00     0.168 A 
HETATM    5  N   UNL     1      47.963  41.055  78.396  1.00  0.00    -0.334 N 
HETATM    6  C   UNL     1      48.679  41.988  79.259  1.00  0.00     0.154 C 
HETATM    7  C   UNL     1      46.608  40.808  78.626  1.00  0.00     0.322 A 
HETATM    8  O   UNL     1      46.019  41.371  79.553  1.00  0.00    -0.247 OA
HETATM    9  N   UNL     1      45.960  39.966  77.817  1.00  0.00    -0.308 N 
ATOM     10  HN  UNL     1      44.954  39.854  77.938  1.00  0.00     0.170 HD
HETATM   11  C   UNL     1      46.584  39.245  76.830  1.00  0.00     0.044 A 
HETATM   12  C   UNL     1      45.867  38.289  76.110  1.00  0.00     0.032 A 
HETATM   13  C   UNL     1      46.508  37.574  75.090  1.00  0.00     0.032 A 
ENDROOT
BRANCH   1  14
HETATM   14  N   UNL     1      48.444  37.026  73.729  1.00  0.00    -0.281 N 
ATOM     15  HN  UNL     1      48.325  36.014  73.766  1.00  0.00     0.179 HD
BRANCH  14  16
HETATM   16  S   UNL     1      49.284  37.644  72.548  1.00  0.00     0.263 S 
HETATM   17  O   UNL     1      49.159  36.740  71.421  1.00  0.00    -0.200 OA
HETATM   18  O   UNL     1      48.974  39.017  72.328  1.00  0.00    -0.200 OA
BRANCH  16  19
HETATM   19  C   UNL     1      50.843  37.567  73.019  1.00  0.00     0.080 A 
HETATM   20  C   UNL     1      51.530  36.372  73.323  1.00  0.00     0.035 A 
HETATM   21  C   UNL     1      52.890  36.283  73.674  1.00  0.00    -0.022 A 
HETATM   22  C   UNL     1      53.507  34.962  74.062  1.00  0.00     0.051 C 
HETATM   23  C   UNL     1      53.633  37.433  73.678  1.00  0.00     0.122 A 
HETATM   24  C   UNL     1      53.074  38.648  73.352  1.00  0.00     0.044 A 
HETATM   25  F   UNL     1      54.929  37.364  74.053  1.00  0.00    -0.206 F 
HETATM   26  C   UNL     1      51.718  38.691  72.992  1.00  0.00     0.028 A 
ENDBRANCH  16  19
ENDBRANCH  14  16
ENDBRANCH   1  14
TORSDOF 3
ENDMDL
MODEL 10
REMARK VINA RESULT:    -7.200      2.957      3.784
REMARK INTER + INTRA:          -9.084
REMARK INTER:                  -9.232
REMARK INTRA:                   0.148
REMARK UNBOUND:                -0.622
REMARK  3 active torsions:
REMARK  status: ('A' for Active; 'I' for Inactive)
REMARK    1  A    between atoms: C_6  and  S_9 
REMARK    2  A    between atoms: S_9  and  N_12 
REMARK    3  A    between atoms: N_12  and  C_14 
ROOT
HETATM    1  C   UNL     1      46.217  39.083  77.137  1.00  0.00     0.043 A 
HETATM    2  C   UNL     1      47.414  39.794  77.229  1.00  0.00     0.041 A 
HETATM    3  C   UNL     1      47.551  40.882  78.082  1.00  0.00    -0.011 A 
HETATM    4  C   UNL     1      48.819  41.619  78.148  1.00  0.00     0.168 A 
HETATM    5  N   UNL     1      48.839  42.676  79.158  1.00  0.00    -0.334 N 
HETATM    6  C   UNL     1      50.092  43.399  79.342  1.00  0.00     0.154 C 
HETATM    7  C   UNL     1      47.717  43.040  79.906  1.00  0.00     0.322 A 
HETATM    8  O   UNL     1      47.785  43.966  80.720  1.00  0.00    -0.247 OA
HETATM    9  N   UNL     1      46.573  42.382  79.713  1.00  0.00    -0.308 N 
ATOM     10  HN  UNL     1      45.738  42.707  80.200  1.00  0.00     0.170 HD
HETATM   11  C   UNL     1      46.465  41.289  78.890  1.00  0.00     0.044 A 
HETATM   12  C   UNL     1      45.268  40.573  78.839  1.00  0.00     0.032 A 
HETATM   13  C   UNL     1      45.163  39.472  77.980  1.00  0.00     0.032 A 
ENDROOT
BRANCH   1  14
HETATM   14  N   UNL     1      46.056  37.936  76.324  1.00  0.00    -0.281 N 
ATOM     15  HN  UNL     1      46.852  37.309  76.202  1.00  0.00     0.179 HD
BRANCH  14  16
HETATM   16  S   UNL     1      44.702  37.584  75.598  1.00  0.00     0.263 S 
HETATM   17  O   UNL     1      44.681  36.147  75.413  1.00  0.00    -0.200 OA
HETATM   18  O   UNL     1      43.578  38.183  76.236  1.00  0.00    -0.200 OA
BRANCH  16  19
HETATM   19  C   UNL     1      44.814  38.231  74.104  1.00  0.00     0.080 A 
HETATM   20  C   UNL     1      43.900  39.161  73.564  1.00  0.00     0.035 A 
HETATM   21  C   UNL     1      44.014  39.772  72.302  1.00  0.00    -0.022 A 
HETATM   22  C   UNL     1      42.935  40.692  71.783  1.00  0.00     0.051 C 
HETATM   23  C   UNL     1      45.118  39.490  71.543  1.00  0.00     0.122 A 
HETATM   24  C   UNL     1      46.095  38.630  71.993  1.00  0.00     0.044 A 
HETATM   25  F   UNL     1      45.215  40.038  70.313  1.00  0.00    -0.206 F 
HETATM   26  C   UNL     1      45.951  38.054  73.266  1.00  0.00     0.028 A 
ENDBRANCH  16  19
ENDBRANCH  14  16
ENDBRANCH   1  14
TORSDOF 3
ENDMDL
MODEL 11
REMARK VINA RESULT:    -7.104      1.769      2.185
REMARK INTER + INTRA:          -8.972
REMARK INTER:                  -8.882
REMARK INTRA:                  -0.090
REMARK UNBOUND:                -0.622
REMARK  3 active torsions:
REMARK  status: ('A' for Active; 'I' for Inactive)
REMARK    1  A    between atoms: C_6  and  S_9 
REMARK    2  A    between atoms: S_9  and  N_12 
REMARK    3  A    between atoms: N_12  and  C_14 
ROOT
HETATM    1  C   UNL     1      47.500  39.662  76.963  1.00  0.00     0.043 A 
HETATM    2  C   UNL     1      48.363  40.673  77.387  1.00  0.00     0.041 A 
HETATM    3  C   UNL     1      47.991  41.584  78.368  1.00  0.00    -0.011 A 
HETATM    4  C   UNL     1      48.914  42.646  78.785  1.00  0.00     0.168 A 
HETATM    5  N   UNL     1      48.419  43.464  79.890  1.00  0.00    -0.334 N 
HETATM    6  C   UNL     1      49.314  44.488  80.417  1.00  0.00     0.154 C 
HETATM    7  C   UNL     1      47.133  43.334  80.421  1.00  0.00     0.322 A 
HETATM    8  O   UNL     1      46.756  44.078  81.331  1.00  0.00    -0.247 OA
HETATM    9  N   UNL     1      46.319  42.406  79.916  1.00  0.00    -0.308 N 
ATOM     10  HN  UNL     1      45.356  42.372  80.250  1.00  0.00     0.170 HD
HETATM   11  C   UNL     1      46.715  41.494  78.970  1.00  0.00     0.044 A 
HETATM   12  C   UNL     1      45.847  40.471  78.585  1.00  0.00     0.032 A 
HETATM   13  C   UNL     1      46.254  39.559  77.603  1.00  0.00     0.032 A 
ENDROOT
BRANCH   1  14
HETATM   14  N   UNL     1      47.863  38.682  76.008  1.00  0.00    -0.281 N 
ATOM     15  HN  UNL     1      48.853  38.472  75.878  1.00  0.00     0.179 HD
BRANCH  14  16
HETATM   16  S   UNL     1      46.806  37.902  75.139  1.00  0.00     0.263 S 
HETATM   17  O   UNL     1      46.281  36.834  75.966  1.00  0.00    -0.200 OA
HETATM   18  O   UNL     1      45.868  38.776  74.519  1.00  0.00    -0.200 OA
BRANCH  16  19
HETATM   19  C   UNL     1      47.653  37.176  73.948  1.00  0.00     0.080 A 
HETATM   20  C   UNL     1      48.854  37.678  73.400  1.00  0.00     0.035 A 
HETATM   21  C   UNL     1      49.627  37.036  72.415  1.00  0.00    -0.022 A 
HETATM   22  C   UNL     1      50.852  37.699  71.835  1.00  0.00     0.051 C 
HETATM   23  C   UNL     1      49.223  35.803  71.977  1.00  0.00     0.122 A 
HETATM   24  C   UNL     1      48.091  35.201  72.478  1.00  0.00     0.044 A 
HETATM   25  F   UNL     1      49.935  35.198  71.002  1.00  0.00    -0.206 F 
HETATM   26  C   UNL     1      47.356  35.868  73.472  1.00  0.00     0.028 A 
ENDBRANCH  16  19
ENDBRANCH  14  16
ENDBRANCH   1  14
TORSDOF 3
ENDMDL
MODEL 12
REMARK VINA RESULT:    -7.037      3.702      5.216
REMARK INTER + INTRA:          -8.893
REMARK INTER:                  -8.502
REMARK INTRA:                  -0.391
REMARK UNBOUND:                -0.622
REMARK  3 active torsions:
REMARK  status: ('A' for Active; 'I' for Inactive)
REMARK    1  A    between atoms: C_6  and  S_9 
REMARK    2  A    between atoms: S_9  and  N_12 
REMARK    3  A    between atoms: N_12  and  C_14 
ROOT
HETATM    1  C   UNL     1      46.521  38.763  76.587  1.00  0.00     0.043 A 
HETATM    2  C   UNL     1      47.590  39.629  76.820  1.00  0.00     0.041 A 
HETATM    3  C   UNL     1      47.496  40.670  77.736  1.00  0.00    -0.011 A 
HETATM    4  C   UNL     1      48.632  41.574  77.952  1.00  0.00     0.168 A 
HETATM    5  N   UNL     1      48.415  42.558  79.011  1.00  0.00    -0.334 N 
HETATM    6  C   UNL     1      49.529  43.439  79.342  1.00  0.00     0.154 C 
HETATM    7  C   UNL     1      47.195  42.712  79.673  1.00  0.00     0.322 A 
HETATM    8  O   UNL     1      47.060  43.585  80.536  1.00  0.00    -0.247 OA
HETATM    9  N   UNL     1      46.179  41.911  79.347  1.00  0.00    -0.308 N 
ATOM     10  HN  UNL     1      45.269  42.083  79.773  1.00  0.00     0.170 HD
HETATM   11  C   UNL     1      46.300  40.867  78.464  1.00  0.00     0.044 A 
HETATM   12  C   UNL     1      45.230  39.993  78.271  1.00  0.00     0.032 A 
HETATM   13  C   UNL     1      45.357  38.944  77.351  1.00  0.00     0.032 A 
ENDROOT
BRANCH   1  14
HETATM   14  N   UNL     1      46.597  37.658  75.706  1.00  0.00    -0.281 N 
ATOM     15  HN  UNL     1      47.242  36.899  75.929  1.00  0.00     0.179 HD
BRANCH  14  16
HETATM   16  S   UNL     1      45.729  37.547  74.395  1.00  0.00     0.263 S 
HETATM   17  O   UNL     1      45.139  38.850  74.166  1.00  0.00    -0.200 OA
HETATM   18  O   UNL     1      46.450  36.952  73.320  1.00  0.00    -0.200 OA
BRANCH  16  19
HETATM   19  C   UNL     1      44.492  36.548  74.760  1.00  0.00     0.080 A 
HETATM   20  C   UNL     1      43.134  36.934  74.791  1.00  0.00     0.035 A 
HETATM   21  C   UNL     1      42.051  36.073  75.047  1.00  0.00    -0.022 A 
HETATM   22  C   UNL     1      40.641  36.604  75.139  1.00  0.00     0.051 C 
HETATM   23  C   UNL     1      42.312  34.742  75.235  1.00  0.00     0.122 A 
HETATM   24  C   UNL     1      43.598  34.251  75.181  1.00  0.00     0.044 A 
HETATM   25  F   UNL     1      41.284  33.916  75.522  1.00  0.00    -0.206 F 
HETATM   26  C   UNL     1      44.649  35.141  74.908  1.00  0.00     0.028 A 
ENDBRANCH  16  19
ENDBRANCH  14  16
ENDBRANCH   1  14
TORSDOF 3
ENDMDL
MODEL 13
REMARK VINA RESULT:    -6.984      3.120      3.909
REMARK INTER + INTRA:          -8.831
REMARK INTER:                  -8.693
REMARK INTRA:                  -0.138
REMARK UNBOUND:                -0.622
REMARK  3 active torsions:
REMARK  status: ('A' for Active; 'I' for Inactive)
REMARK    1  A    between atoms: C_6  and  S_9 
REMARK    2  A    between atoms: S_9  and  N_12 
REMARK    3  A    between atoms: N_12  and  C_14 
ROOT
HETATM    1  C   UNL     1      45.639  39.615  77.928  1.00  0.00     0.043 A 
HETATM    2  C   UNL     1      45.763  40.722  78.767  1.00  0.00     0.041 A 
HETATM    3  C   UNL     1      46.964  41.410  78.890  1.00  0.00    -0.011 A 
HETATM    4  C   UNL     1      47.070  42.565  79.791  1.00  0.00     0.168 A 
HETATM    5  N   UNL     1      48.365  43.240  79.741  1.00  0.00    -0.334 N 
HETATM    6  C   UNL     1      48.521  44.446  80.546  1.00  0.00     0.154 C 
HETATM    7  C   UNL     1      49.449  42.761  79.002  1.00  0.00     0.322 A 
HETATM    8  O   UNL     1      50.532  43.354  79.026  1.00  0.00    -0.247 OA
HETATM    9  N   UNL     1      49.298  41.646  78.285  1.00  0.00    -0.308 N 
ATOM     10  HN  UNL     1      50.115  41.256  77.815  1.00  0.00     0.170 HD
HETATM   11  C   UNL     1      48.095  40.998  78.149  1.00  0.00     0.044 A 
HETATM   12  C   UNL     1      47.985  39.913  77.279  1.00  0.00     0.032 A 
HETATM   13  C   UNL     1      46.758  39.246  77.165  1.00  0.00     0.032 A 
ENDROOT
BRANCH   1  14
HETATM   14  N   UNL     1      44.419  38.923  77.732  1.00  0.00    -0.281 N 
ATOM     15  HN  UNL     1      43.973  38.485  78.538  1.00  0.00     0.179 HD
BRANCH  14  16
HETATM   16  S   UNL     1      43.721  38.801  76.325  1.00  0.00     0.263 S 
HETATM   17  O   UNL     1      42.480  38.080  76.529  1.00  0.00    -0.200 OA
HETATM   18  O   UNL     1      43.652  40.052  75.647  1.00  0.00    -0.200 OA
BRANCH  16  19
HETATM   19  C   UNL     1      44.673  37.819  75.436  1.00  0.00     0.080 A 
HETATM   20  C   UNL     1      45.314  38.196  74.236  1.00  0.00     0.035 A 
HETATM   21  C   UNL     1      46.184  37.381  73.490  1.00  0.00    -0.022 A 
HETATM   22  C   UNL     1      46.753  37.853  72.173  1.00  0.00     0.051 C 
HETATM   23  C   UNL     1      46.482  36.137  73.976  1.00  0.00     0.122 A 
HETATM   24  C   UNL     1      45.948  35.684  75.162  1.00  0.00     0.044 A 
HETATM   25  F   UNL     1      47.283  35.332  73.245  1.00  0.00    -0.206 F 
HETATM   26  C   UNL     1      45.096  36.535  75.885  1.00  0.00     0.028 A 
ENDBRANCH  16  19
ENDBRANCH  14  16
ENDBRANCH   1  14
TORSDOF 3
ENDMDL
MODEL 14
REMARK VINA RESULT:    -6.917      2.455      2.926
REMARK INTER + INTRA:          -8.751
REMARK INTER:                  -8.415
REMARK INTRA:                  -0.336
REMARK UNBOUND:                -0.622
REMARK  3 active torsions:
REMARK  status: ('A' for Active; 'I' for Inactive)
REMARK    1  A    between atoms: C_6  and  S_9 
REMARK    2  A    between atoms: S_9  and  N_12 
REMARK    3  A    between atoms: N_12  and  C_14 
ROOT
HETATM    1  C   UNL     1      47.041  38.944  76.443  1.00  0.00     0.043 A 
HETATM    2  C   UNL     1      48.028  39.843  76.849  1.00  0.00     0.041 A 
HETATM    3  C   UNL     1      47.769  40.829  77.794  1.00  0.00    -0.011 A 
HETATM    4  C   UNL     1      48.823  41.770  78.193  1.00  0.00     0.168 A 
HETATM    5  N   UNL     1      48.429  42.685  79.262  1.00  0.00    -0.334 N 
HETATM    6  C   UNL     1      49.447  43.596  79.772  1.00  0.00     0.154 C 
HETATM    7  C   UNL     1      47.130  42.749  79.773  1.00  0.00     0.322 A 
HETATM    8  O   UNL     1      46.846  43.568  80.652  1.00  0.00    -0.247 OA
HETATM    9  N   UNL     1      46.204  41.922  79.285  1.00  0.00    -0.308 N 
ATOM     10  HN  UNL     1      45.241  42.030  79.602  1.00  0.00     0.170 HD
HETATM   11  C   UNL     1      46.485  40.933  78.375  1.00  0.00     0.044 A 
HETATM   12  C   UNL     1      45.492  40.024  78.008  1.00  0.00     0.032 A 
HETATM   13  C   UNL     1      45.784  39.032  77.063  1.00  0.00     0.032 A 
ENDROOT
BRANCH   1  14
HETATM   14  N   UNL     1      47.280  37.892  75.527  1.00  0.00    -0.281 N 
ATOM     15  HN  UNL     1      47.380  36.943  75.890  1.00  0.00     0.179 HD
BRANCH  14  16
HETATM   16  S   UNL     1      47.400  38.120  73.973  1.00  0.00     0.263 S 
HETATM   17  O   UNL     1      46.078  38.474  73.493  1.00  0.00    -0.200 OA
HETATM   18  O   UNL     1      48.476  38.991  73.637  1.00  0.00    -0.200 OA
BRANCH  16  19
HETATM   19  C   UNL     1      47.738  36.660  73.330  1.00  0.00     0.080 A 
HETATM   20  C   UNL     1      47.076  35.461  73.672  1.00  0.00     0.035 A 
HETATM   21  C   UNL     1      47.315  34.205  73.085  1.00  0.00    -0.022 A 
HETATM   22  C   UNL     1      46.609  32.968  73.583  1.00  0.00     0.051 C 
HETATM   23  C   UNL     1      48.226  34.130  72.066  1.00  0.00     0.122 A 
HETATM   24  C   UNL     1      48.897  35.248  71.621  1.00  0.00     0.044 A 
HETATM   25  F   UNL     1      48.493  32.922  71.525  1.00  0.00    -0.206 F 
HETATM   26  C   UNL     1      48.617  36.485  72.223  1.00  0.00     0.028 A 
ENDBRANCH  16  19
ENDBRANCH  14  16
ENDBRANCH   1  14
TORSDOF 3
ENDMDL
MODEL 15
REMARK VINA RESULT:    -6.896      4.108      5.711
REMARK INTER + INTRA:          -8.727
REMARK INTER:                  -8.385
REMARK INTRA:                  -0.342
REMARK UNBOUND:                -0.622
REMARK  3 active torsions:
REMARK  status: ('A' for Active; 'I' for Inactive)
REMARK    1  A    between atoms: C_6  and  S_9 
REMARK    2  A    between atoms: S_9  and  N_12 
REMARK    3  A    between atoms: N_12  and  C_14 
ROOT
HETATM    1  C   UNL     1      46.196  38.925  76.965  1.00  0.00     0.043 A 
HETATM    2  C   UNL     1      46.070  39.919  77.936  1.00  0.00     0.041 A 
HETATM    3  C   UNL     1      47.132  40.750  78.268  1.00  0.00    -0.011 A 
HETATM    4  C   UNL     1      46.974  41.780  79.303  1.00  0.00     0.168 A 
HETATM    5  N   UNL     1      48.147  42.636  79.474  1.00  0.00    -0.334 N 
HETATM    6  C   UNL     1      48.039  43.735  80.426  1.00  0.00     0.154 C 
HETATM    7  C   UNL     1      49.355  42.419  78.806  1.00  0.00     0.322 A 
HETATM    8  O   UNL     1      50.324  43.154  79.017  1.00  0.00    -0.247 OA
HETATM    9  N   UNL     1      49.445  41.398  77.952  1.00  0.00    -0.308 N 
ATOM     10  HN  UNL     1      50.352  41.195  77.533  1.00  0.00     0.170 HD
HETATM   11  C   UNL     1      48.376  40.607  77.612  1.00  0.00     0.044 A 
HETATM   12  C   UNL     1      48.516  39.641  76.615  1.00  0.00     0.032 A 
HETATM   13  C   UNL     1      47.424  38.825  76.291  1.00  0.00     0.032 A 
ENDROOT
BRANCH   1  14
HETATM   14  N   UNL     1      45.123  38.096  76.559  1.00  0.00    -0.281 N 
ATOM     15  HN  UNL     1      45.005  37.192  77.015  1.00  0.00     0.179 HD
BRANCH  14  16
HETATM   16  S   UNL     1      44.102  38.510  75.432  1.00  0.00     0.263 S 
HETATM   17  O   UNL     1      43.264  39.556  75.983  1.00  0.00    -0.200 OA
HETATM   18  O   UNL     1      44.747  38.769  74.189  1.00  0.00    -0.200 OA
BRANCH  16  19
HETATM   19  C   UNL     1      43.129  37.219  75.214  1.00  0.00     0.080 A 
HETATM   20  C   UNL     1      43.555  35.875  75.276  1.00  0.00     0.035 A 
HETATM   21  C   UNL     1      42.719  34.751  75.149  1.00  0.00    -0.022 A 
HETATM   22  C   UNL     1      43.290  33.354  75.148  1.00  0.00     0.051 C 
HETATM   23  C   UNL     1      41.374  34.958  75.000  1.00  0.00     0.122 A 
HETATM   24  C   UNL     1      40.844  36.230  74.971  1.00  0.00     0.044 A 
HETATM   25  F   UNL     1      40.568  33.887  74.834  1.00  0.00    -0.206 F 
HETATM   26  C   UNL     1      41.712  37.324  75.118  1.00  0.00     0.028 A 
ENDBRANCH  16  19
ENDBRANCH  14  16
ENDBRANCH   1  14
TORSDOF 3
ENDMDL
MODEL 16
REMARK VINA RESULT:    -6.869      2.621      3.735
REMARK INTER + INTRA:          -8.695
REMARK INTER:                  -8.447
REMARK INTRA:                  -0.248
REMARK UNBOUND:                -0.622
REMARK  3 active torsions:
REMARK  status: ('A' for Active; 'I' for Inactive)
REMARK    1  A    between atoms: C_6  and  S_9 
REMARK    2  A    between atoms: S_9  and  N_12 
REMARK    3  A    between atoms: N_12  and  C_14 
ROOT
HETATM    1  C   UNL     1      47.949  37.535  74.432  1.00  0.00     0.043 A 
HETATM    2  C   UNL     1      46.599  37.539  74.782  1.00  0.00     0.041 A 
HETATM    3  C   UNL     1      46.125  38.297  75.846  1.00  0.00    -0.011 A 
HETATM    4  C   UNL     1      44.701  38.272  76.200  1.00  0.00     0.168 A 
HETATM    5  N   UNL     1      44.340  39.191  77.277  1.00  0.00    -0.334 N 
HETATM    6  C   UNL     1      42.928  39.285  77.631  1.00  0.00     0.154 C 
HETATM    7  C   UNL     1      45.280  39.936  77.994  1.00  0.00     0.322 A 
HETATM    8  O   UNL     1      44.920  40.670  78.919  1.00  0.00    -0.247 OA
HETATM    9  N   UNL     1      46.570  39.826  77.672  1.00  0.00    -0.308 N 
ATOM     10  HN  UNL     1      47.258  40.306  78.251  1.00  0.00     0.170 HD
HETATM   11  C   UNL     1      47.016  39.097  76.597  1.00  0.00     0.044 A 
HETATM   12  C   UNL     1      48.366  39.134  76.245  1.00  0.00     0.032 A 
HETATM   13  C   UNL     1      48.813  38.370  75.159  1.00  0.00     0.032 A 
ENDROOT
BRANCH   1  14
HETATM   14  N   UNL     1      48.461  36.822  73.321  1.00  0.00    -0.281 N 
ATOM     15  HN  UNL     1      48.221  35.835  73.224  1.00  0.00     0.179 HD
BRANCH  14  16
HETATM   16  S   UNL     1      49.383  37.484  72.229  1.00  0.00     0.263 S 
HETATM   17  O   UNL     1      49.391  36.595  71.085  1.00  0.00    -0.200 OA
HETATM   18  O   UNL     1      49.050  38.850  72.000  1.00  0.00    -0.200 OA
BRANCH  16  19
HETATM   19  C   UNL     1      50.895  37.450  72.839  1.00  0.00     0.080 A 
HETATM   20  C   UNL     1      51.580  36.274  73.218  1.00  0.00     0.035 A 
HETATM   21  C   UNL     1      52.904  36.222  73.690  1.00  0.00    -0.022 A 
HETATM   22  C   UNL     1      53.515  34.919  74.147  1.00  0.00     0.051 C 
HETATM   23  C   UNL     1      53.617  37.389  73.749  1.00  0.00     0.122 A 
HETATM   24  C   UNL     1      53.061  38.588  73.361  1.00  0.00     0.044 A 
HETATM   25  F   UNL     1      54.874  37.355  74.240  1.00  0.00    -0.206 F 
HETATM   26  C   UNL     1      51.742  38.594  72.880  1.00  0.00     0.028 A 
ENDBRANCH  16  19
ENDBRANCH  14  16
ENDBRANCH   1  14
TORSDOF 3
ENDMDL
MODEL 17
REMARK VINA RESULT:    -6.868      4.469      6.296
REMARK INTER + INTRA:          -8.694
REMARK INTER:                  -8.351
REMARK INTRA:                  -0.343
REMARK UNBOUND:                -0.622
REMARK  3 active torsions:
REMARK  status: ('A' for Active; 'I' for Inactive)
REMARK    1  A    between atoms: C_6  and  S_9 
REMARK    2  A    between atoms: S_9  and  N_12 
REMARK    3  A    between atoms: N_12  and  C_14 
ROOT
HETATM    1  C   UNL     1      45.774  38.591  76.455  1.00  0.00     0.043 A 
HETATM    2  C   UNL     1      45.677  39.586  77.428  1.00  0.00     0.041 A 
HETATM    3  C   UNL     1      46.773  40.357  77.792  1.00  0.00    -0.011 A 
HETATM    4  C   UNL     1      46.645  41.388  78.830  1.00  0.00     0.168 A 
HETATM    5  N   UNL     1      47.857  42.179  79.035  1.00  0.00    -0.334 N 
HETATM    6  C   UNL     1      47.784  43.278  79.991  1.00  0.00     0.154 C 
HETATM    7  C   UNL     1      49.068  41.902  78.397  1.00  0.00     0.322 A 
HETATM    8  O   UNL     1      50.069  42.582  78.636  1.00  0.00    -0.247 OA
HETATM    9  N   UNL     1      49.125  40.881  77.539  1.00  0.00    -0.308 N 
ATOM     10  HN  UNL     1      50.030  40.632  77.140  1.00  0.00     0.170 HD
HETATM   11  C   UNL     1      48.024  40.151  77.167  1.00  0.00     0.044 A 
HETATM   12  C   UNL     1      48.137  39.184  76.167  1.00  0.00     0.032 A 
HETATM   13  C   UNL     1      47.012  38.429  75.811  1.00  0.00     0.032 A 
ENDROOT
BRANCH   1  14
HETATM   14  N   UNL     1      44.669  37.824  76.016  1.00  0.00    -0.281 N 
ATOM     15  HN  UNL     1      44.172  37.250  76.698  1.00  0.00     0.179 HD
BRANCH  14  16
HETATM   16  S   UNL     1      44.171  37.816  74.521  1.00  0.00     0.263 S 
HETATM   17  O   UNL     1      44.276  39.177  74.032  1.00  0.00    -0.200 OA
HETATM   18  O   UNL     1      44.792  36.791  73.752  1.00  0.00    -0.200 OA
BRANCH  16  19
HETATM   19  C   UNL     1      42.576  37.479  74.582  1.00  0.00     0.080 A 
HETATM   20  C   UNL     1      41.730  37.406  73.454  1.00  0.00     0.035 A 
HETATM   21  C   UNL     1      40.367  37.059  73.483  1.00  0.00    -0.022 A 
HETATM   22  C   UNL     1      39.530  37.092  72.227  1.00  0.00     0.051 C 
HETATM   23  C   UNL     1      39.812  36.716  74.686  1.00  0.00     0.122 A 
HETATM   24  C   UNL     1      40.558  36.710  75.844  1.00  0.00     0.044 A 
HETATM   25  F   UNL     1      38.494  36.423  74.731  1.00  0.00    -0.206 F 
HETATM   26  C   UNL     1      41.920  37.047  75.769  1.00  0.00     0.028 A 
ENDBRANCH  16  19
ENDBRANCH  14  16
ENDBRANCH   1  14
TORSDOF 3
ENDMDL
MODEL 18
REMARK VINA RESULT:    -6.813      3.521      4.265
REMARK INTER + INTRA:          -8.629
REMARK INTER:                  -8.498
REMARK INTRA:                  -0.131
REMARK UNBOUND:                -0.622
REMARK  3 active torsions:
REMARK  status: ('A' for Active; 'I' for Inactive)
REMARK    1  A    between atoms: C_6  and  S_9 
REMARK    2  A    between atoms: S_9  and  N_12 
REMARK    3  A    between atoms: N_12  and  C_14 
ROOT
HETATM    1  C   UNL     1      46.803  39.071  76.624  1.00  0.00     0.043 A 
HETATM    2  C   UNL     1      47.818  39.978  76.925  1.00  0.00     0.041 A 
HETATM    3  C   UNL     1      47.646  40.972  77.881  1.00  0.00    -0.011 A 
HETATM    4  C   UNL     1      48.728  41.921  78.169  1.00  0.00     0.168 A 
HETATM    5  N   UNL     1      48.433  42.845  79.263  1.00  0.00    -0.334 N 
HETATM    6  C   UNL     1      49.490  43.766  79.664  1.00  0.00     0.154 C 
HETATM    7  C   UNL     1      47.189  42.908  79.895  1.00  0.00     0.322 A 
HETATM    8  O   UNL     1      46.985  43.734  80.790  1.00  0.00    -0.247 OA
HETATM    9  N   UNL     1      46.224  42.072  79.505  1.00  0.00    -0.308 N 
ATOM     10  HN  UNL     1      45.296  42.179  79.912  1.00  0.00     0.170 HD
HETATM   11  C   UNL     1      46.423  41.076  78.582  1.00  0.00     0.044 A 
HETATM   12  C   UNL     1      45.404  40.159  78.320  1.00  0.00     0.032 A 
HETATM   13  C   UNL     1      45.611  39.159  77.360  1.00  0.00     0.032 A 
ENDROOT
BRANCH   1  14
HETATM   14  N   UNL     1      46.959  38.011  75.699  1.00  0.00    -0.281 N 
ATOM     15  HN  UNL     1      47.645  37.283  75.902  1.00  0.00     0.179 HD
BRANCH  14  16
HETATM   16  S   UNL     1      46.121  37.904  74.369  1.00  0.00     0.263 S 
HETATM   17  O   UNL     1      45.039  38.863  74.472  1.00  0.00    -0.200 OA
HETATM   18  O   UNL     1      46.944  37.963  73.207  1.00  0.00    -0.200 OA
BRANCH  16  19
HETATM   19  C   UNL     1      45.423  36.431  74.396  1.00  0.00     0.080 A 
HETATM   20  C   UNL     1      46.007  35.258  73.870  1.00  0.00     0.035 A 
HETATM   21  C   UNL     1      45.445  33.970  73.937  1.00  0.00    -0.022 A 
HETATM   22  C   UNL     1      46.114  32.794  73.268  1.00  0.00     0.051 C 
HETATM   23  C   UNL     1      44.260  33.815  74.605  1.00  0.00     0.122 A 
HETATM   24  C   UNL     1      43.625  34.885  75.195  1.00  0.00     0.044 A 
HETATM   25  F   UNL     1      43.692  32.590  74.638  1.00  0.00    -0.206 F 
HETATM   26  C   UNL     1      44.228  36.151  75.119  1.00  0.00     0.028 A 
ENDBRANCH  16  19
ENDBRANCH  14  16
ENDBRANCH   1  14
TORSDOF 3
ENDMDL
MODEL 19
REMARK VINA RESULT:    -6.793      3.627      6.522
REMARK INTER + INTRA:          -8.606
REMARK INTER:                  -8.610
REMARK INTRA:                   0.005
REMARK UNBOUND:                -0.622
REMARK  3 active torsions:
REMARK  status: ('A' for Active; 'I' for Inactive)
REMARK    1  A    between atoms: C_6  and  S_9 
REMARK    2  A    between atoms: S_9  and  N_12 
REMARK    3  A    between atoms: N_12  and  C_14 
ROOT
HETATM    1  C   UNL     1      47.634  38.214  73.001  1.00  0.00     0.043 A 
HETATM    2  C   UNL     1      48.715  37.421  73.387  1.00  0.00     0.041 A 
HETATM    3  C   UNL     1      50.026  37.802  73.130  1.00  0.00    -0.011 A 
HETATM    4  C   UNL     1      51.143  36.941  73.537  1.00  0.00     0.168 A 
HETATM    5  N   UNL     1      52.462  37.520  73.284  1.00  0.00    -0.334 N 
HETATM    6  C   UNL     1      53.622  36.761  73.736  1.00  0.00     0.154 C 
HETATM    7  C   UNL     1      52.650  38.725  72.604  1.00  0.00     0.322 A 
HETATM    8  O   UNL     1      53.789  39.147  72.387  1.00  0.00    -0.247 OA
HETATM    9  N   UNL     1      51.579  39.399  72.179  1.00  0.00    -0.308 N 
ATOM     10  HN  UNL     1      51.725  40.233  71.611  1.00  0.00     0.170 HD
HETATM   11  C   UNL     1      50.292  39.024  72.471  1.00  0.00     0.044 A 
HETATM   12  C   UNL     1      49.228  39.849  72.104  1.00  0.00     0.032 A 
HETATM   13  C   UNL     1      47.917  39.445  72.387  1.00  0.00     0.032 A 
ENDROOT
BRANCH   1  14
HETATM   14  N   UNL     1      46.288  37.888  73.295  1.00  0.00    -0.281 N 
ATOM     15  HN  UNL     1      45.565  38.158  72.627  1.00  0.00     0.179 HD
BRANCH  14  16
HETATM   16  S   UNL     1      45.858  37.128  74.606  1.00  0.00     0.263 S 
HETATM   17  O   UNL     1      44.442  36.842  74.486  1.00  0.00    -0.200 OA
HETATM   18  O   UNL     1      46.726  36.038  74.906  1.00  0.00    -0.200 OA
BRANCH  16  19
HETATM   19  C   UNL     1      46.000  38.210  75.818  1.00  0.00     0.080 A 
HETATM   20  C   UNL     1      47.203  38.854  76.180  1.00  0.00     0.035 A 
HETATM   21  C   UNL     1      47.331  39.832  77.183  1.00  0.00    -0.022 A 
HETATM   22  C   UNL     1      48.681  40.398  77.549  1.00  0.00     0.051 C 
HETATM   23  C   UNL     1      46.200  40.238  77.839  1.00  0.00     0.122 A 
HETATM   24  C   UNL     1      44.966  39.707  77.534  1.00  0.00     0.044 A 
HETATM   25  F   UNL     1      46.318  41.145  78.832  1.00  0.00    -0.206 F 
HETATM   26  C   UNL     1      44.880  38.745  76.514  1.00  0.00     0.028 A 
ENDBRANCH  16  19
ENDBRANCH  14  16
ENDBRANCH   1  14
TORSDOF 3
ENDMDL
MODEL 20
REMARK VINA RESULT:    -6.682      3.431      6.918
REMARK INTER + INTRA:          -8.476
REMARK INTER:                  -8.045
REMARK INTRA:                  -0.431
REMARK UNBOUND:                -0.622
REMARK  3 active torsions:
REMARK  status: ('A' for Active; 'I' for Inactive)
REMARK    1  A    between atoms: C_6  and  S_9 
REMARK    2  A    between atoms: S_9  and  N_12 
REMARK    3  A    between atoms: N_12  and  C_14 
ROOT
HETATM    1  C   UNL     1      46.690  37.955  73.822  1.00  0.00     0.043 A 
HETATM    2  C   UNL     1      48.020  38.233  74.137  1.00  0.00     0.041 A 
HETATM    3  C   UNL     1      49.065  37.796  73.333  1.00  0.00    -0.011 A 
HETATM    4  C   UNL     1      50.456  38.093  73.696  1.00  0.00     0.168 A 
HETATM    5  N   UNL     1      51.436  37.651  72.706  1.00  0.00    -0.334 N 
HETATM    6  C   UNL     1      52.834  37.983  72.954  1.00  0.00     0.154 C 
HETATM    7  C   UNL     1      51.097  36.902  71.577  1.00  0.00     0.322 A 
HETATM    8  O   UNL     1      51.973  36.525  70.792  1.00  0.00    -0.247 OA
HETATM    9  N   UNL     1      49.816  36.589  71.371  1.00  0.00    -0.308 N 
ATOM     10  HN  UNL     1      49.586  35.973  70.593  1.00  0.00     0.170 HD
HETATM   11  C   UNL     1      48.794  37.057  72.159  1.00  0.00     0.044 A 
HETATM   12  C   UNL     1      47.469  36.795  71.806  1.00  0.00     0.032 A 
HETATM   13  C   UNL     1      46.435  37.259  72.628  1.00  0.00     0.032 A 
ENDROOT
BRANCH   1  14
HETATM   14  N   UNL     1      45.595  38.431  74.584  1.00  0.00    -0.281 N 
ATOM     15  HN  UNL     1      45.011  39.168  74.189  1.00  0.00     0.179 HD
BRANCH  14  16
HETATM   16  S   UNL     1      45.241  37.873  76.014  1.00  0.00     0.263 S 
HETATM   17  O   UNL     1      43.796  37.870  76.122  1.00  0.00    -0.200 OA
HETATM   18  O   UNL     1      45.925  36.656  76.302  1.00  0.00    -0.200 OA
BRANCH  16  19
HETATM   19  C   UNL     1      45.772  38.991  77.075  1.00  0.00     0.080 A 
HETATM   20  C   UNL     1      47.053  39.584  77.041  1.00  0.00     0.035 A 
HETATM   21  C   UNL     1      47.506  40.591  77.912  1.00  0.00    -0.022 A 
HETATM   22  C   UNL     1      48.925  41.099  77.843  1.00  0.00     0.051 C 
HETATM   23  C   UNL     1      46.631  41.082  78.844  1.00  0.00     0.122 A 
HETATM   24  C   UNL     1      45.341  40.607  78.936  1.00  0.00     0.044 A 
HETATM   25  F   UNL     1      47.069  42.019  79.712  1.00  0.00    -0.206 F 
HETATM   26  C   UNL     1      44.924  39.612  78.036  1.00  0.00     0.028 A 
ENDBRANCH  16  19
ENDBRANCH  14  16
ENDBRANCH   1  14
TORSDOF 3
ENDMDL
