MODEL 1
REMARK VINA RESULT:    -8.561      0.000      0.000
REMARK INTER + INTRA:         -10.304
REMARK INTER:                 -10.063
REMARK INTRA:                  -0.241
REMARK UNBOUND:                -0.241
REMARK  3 active torsions:
REMARK  status: ('A' for Active; 'I' for Inactive)
REMARK    1  A    between atoms: C_5  and  S_25 
REMARK    2  A    between atoms: C_18  and  N_20 
REMARK    3  A    between atoms: N_20  and  S_25 
ROOT
HETATM    1  C   UNL     1       2.914  -0.842 -31.745  1.00  0.00    -0.021 A 
HETATM    2  C   UNL     1       4.306  -2.843 -32.051  1.00  0.00     0.003 A 
HETATM    3  C   UNL     1       5.417  -2.164 -31.510  1.00  0.00     0.030 A 
HETATM    4  C   UNL     1       4.038  -0.177 -31.198  1.00  0.00     0.042 A 
HETATM    5  C   UNL     1       1.073   0.315 -30.639  1.00  0.00     0.107 A 
HETATM    6  C   UNL     1      -0.773   1.242 -31.792  1.00  0.00     0.258 A 
HETATM    7  C   UNL     1      -0.254   0.820 -33.034  1.00  0.00     0.043 A 
HETATM    8  C   UNL     1      -0.949   1.088 -34.239  1.00  0.00     0.018 A 
HETATM    9  C   UNL     1      -0.430   0.662 -35.469  1.00  0.00     0.001 A 
HETATM   10  C   UNL     1       0.784  -0.036 -35.514  1.00  0.00     0.001 A 
HETATM   11  C   UNL     1       1.485  -0.305 -34.326  1.00  0.00     0.013 A 
HETATM   12  C   UNL     1       0.985   0.113 -33.063  1.00  0.00    -0.008 A 
HETATM   13  C   UNL     1       1.668  -0.146 -31.837  1.00  0.00     0.001 A 
HETATM   14  C   UNL     1      -0.695   1.455 -29.379  1.00  0.00     0.159 C 
HETATM   15  C   UNL     1       3.065  -2.186 -32.162  1.00  0.00     0.012 A 
HETATM   16  C   UNL     1       5.285  -0.829 -31.083  1.00  0.00     0.043 A 
HETATM   17  N   UNL     1      -0.110   1.002 -30.624  1.00  0.00    -0.327 N 
HETATM   18  O   UNL     1      -1.859   1.854 -31.758  1.00  0.00    -0.267 OA
ENDROOT
BRANCH  16  19
HETATM   19  N   UNL     1       6.395  -0.244 -30.570  1.00  0.00    -0.285 N 
ATOM     20  HN  UNL     1       6.538  -0.312 -29.563  1.00  0.00     0.178 HD
BRANCH  19  21
HETATM   21  S   UNL     1       7.571   0.593 -31.471  1.00  0.00     0.230 S 
HETATM   22  O   UNL     1       8.063  -0.384 -32.643  1.00  0.00    -0.206 OA
HETATM   23  O   UNL     1       6.959   1.952 -32.049  1.00  0.00    -0.206 OA
BRANCH  21  24
HETATM   24  C   UNL     1       9.011   0.970 -30.406  1.00  0.00     0.159 C 
HETATM   25  C   UNL     1       8.872   0.287 -29.031  1.00  0.00     0.023 C 
ENDBRANCH  21  24
ENDBRANCH  19  21
ENDBRANCH  16  19
TORSDOF 3
ENDMDL
MODEL 2
REMARK VINA RESULT:    -8.539      1.280      1.328
REMARK INTER + INTRA:         -10.277
REMARK INTER:                 -10.146
REMARK INTRA:                  -0.131
REMARK UNBOUND:                -0.241
REMARK  3 active torsions:
REMARK  status: ('A' for Active; 'I' for Inactive)
REMARK    1  A    between atoms: C_5  and  S_25 
REMARK    2  A    between atoms: C_18  and  N_20 
REMARK    3  A    between atoms: N_20  and  S_25 
ROOT
HETATM    1  C   UNL     1       3.802  -1.182 -32.380  1.00  0.00    -0.021 A 
HETATM    2  C   UNL     1       5.261  -3.047 -33.036  1.00  0.00     0.003 A 
HETATM    3  C   UNL     1       6.396  -2.310 -32.641  1.00  0.00     0.030 A 
HETATM    4  C   UNL     1       4.953  -0.458 -31.982  1.00  0.00     0.042 A 
HETATM    5  C   UNL     1       2.097  -0.233 -30.917  1.00  0.00     0.107 A 
HETATM    6  C   UNL     1       0.024   0.602 -31.692  1.00  0.00     0.258 A 
HETATM    7  C   UNL     1       0.355   0.287 -33.027  1.00  0.00     0.043 A 
HETATM    8  C   UNL     1      -0.549   0.560 -34.082  1.00  0.00     0.018 A 
HETATM    9  C   UNL     1      -0.215   0.240 -35.405  1.00  0.00     0.001 A 
HETATM   10  C   UNL     1       1.021  -0.356 -35.692  1.00  0.00     0.001 A 
HETATM   11  C   UNL     1       1.928  -0.628 -34.654  1.00  0.00     0.013 A 
HETATM   12  C   UNL     1       1.619  -0.317 -33.302  1.00  0.00    -0.008 A 
HETATM   13  C   UNL     1       2.513  -0.583 -32.223  1.00  0.00     0.001 A 
HETATM   14  C   UNL     1       0.489   0.696 -29.316  1.00  0.00     0.159 C 
HETATM   15  C   UNL     1       3.976  -2.486 -32.901  1.00  0.00     0.012 A 
HETATM   16  C   UNL     1       6.245  -1.013 -32.114  1.00  0.00     0.043 A 
HETATM   17  N   UNL     1       0.888   0.356 -30.665  1.00  0.00    -0.327 N 
HETATM   18  O   UNL     1      -1.082   1.123 -31.443  1.00  0.00    -0.267 OA
ENDROOT
BRANCH  16  19
HETATM   19  N   UNL     1       7.381  -0.369 -31.753  1.00  0.00    -0.285 N 
ATOM     20  HN  UNL     1       8.266  -0.844 -31.932  1.00  0.00     0.178 HD
BRANCH  19  21
HETATM   21  S   UNL     1       7.451   1.167 -31.025  1.00  0.00     0.230 S 
HETATM   22  O   UNL     1       8.990   1.477 -30.704  1.00  0.00    -0.206 OA
HETATM   23  O   UNL     1       6.813   2.266 -31.994  1.00  0.00    -0.206 OA
BRANCH  21  24
HETATM   24  C   UNL     1       6.537   1.139 -29.439  1.00  0.00     0.159 C 
HETATM   25  C   UNL     1       7.320   0.358 -28.366  1.00  0.00     0.023 C 
ENDBRANCH  21  24
ENDBRANCH  19  21
ENDBRANCH  16  19
TORSDOF 3
ENDMDL
MODEL 3
REMARK VINA RESULT:    -8.308      2.622      6.683
REMARK INTER + INTRA:         -10.007
REMARK INTER:                  -9.693
REMARK INTRA:                  -0.314
REMARK UNBOUND:                -0.241
REMARK  3 active torsions:
REMARK  status: ('A' for Active; 'I' for Inactive)
REMARK    1  A    between atoms: C_5  and  S_25 
REMARK    2  A    between atoms: C_18  and  N_20 
REMARK    3  A    between atoms: N_20  and  S_25 
ROOT
HETATM    1  C   UNL     1       1.750   0.228 -31.665  1.00  0.00    -0.021 A 
HETATM    2  C   UNL     1      -0.394   0.791 -32.724  1.00  0.00     0.003 A 
HETATM    3  C   UNL     1      -0.966   1.034 -31.459  1.00  0.00     0.030 A 
HETATM    4  C   UNL     1       1.161   0.482 -30.401  1.00  0.00     0.042 A 
HETATM    5  C   UNL     1       4.095   0.728 -31.222  1.00  0.00     0.107 A 
HETATM    6  C   UNL     1       5.871  -0.743 -31.752  1.00  0.00     0.258 A 
HETATM    7  C   UNL     1       4.972  -1.695 -32.279  1.00  0.00     0.043 A 
HETATM    8  C   UNL     1       5.444  -2.919 -32.813  1.00  0.00     0.018 A 
HETATM    9  C   UNL     1       4.546  -3.858 -33.337  1.00  0.00     0.001 A 
HETATM   10  C   UNL     1       3.171  -3.589 -33.339  1.00  0.00     0.001 A 
HETATM   11  C   UNL     1       2.690  -2.380 -32.809  1.00  0.00     0.013 A 
HETATM   12  C   UNL     1       3.575  -1.407 -32.270  1.00  0.00    -0.008 A 
HETATM   13  C   UNL     1       3.123  -0.167 -31.727  1.00  0.00     0.001 A 
HETATM   14  C   UNL     1       6.403   1.377 -30.704  1.00  0.00     0.159 C 
HETATM   15  C   UNL     1       0.954   0.396 -32.823  1.00  0.00     0.012 A 
HETATM   16  C   UNL     1      -0.190   0.878 -30.294  1.00  0.00     0.043 A 
HETATM   17  N   UNL     1       5.432   0.437 -31.225  1.00  0.00    -0.327 N 
HETATM   18  O   UNL     1       7.095  -0.984 -31.764  1.00  0.00    -0.267 OA
ENDROOT
BRANCH  16  19
HETATM   19  N   UNL     1      -0.808   1.134 -29.115  1.00  0.00    -0.285 N 
ATOM     20  HN  UNL     1      -1.194   0.339 -28.607  1.00  0.00     0.178 HD
BRANCH  19  21
HETATM   21  S   UNL     1      -0.991   2.674 -28.416  1.00  0.00     0.230 S 
HETATM   22  O   UNL     1      -1.876   3.555 -29.420  1.00  0.00    -0.206 OA
HETATM   23  O   UNL     1      -1.673   2.548 -26.975  1.00  0.00    -0.206 OA
BRANCH  21  24
HETATM   24  C   UNL     1       0.647   3.475 -28.252  1.00  0.00     0.159 C 
HETATM   25  C   UNL     1       1.498   2.773 -27.176  1.00  0.00     0.023 C 
ENDBRANCH  21  24
ENDBRANCH  19  21
ENDBRANCH  16  19
TORSDOF 3
ENDMDL
MODEL 4
REMARK VINA RESULT:    -7.767      3.649      5.470
REMARK INTER + INTRA:          -9.370
REMARK INTER:                  -9.095
REMARK INTRA:                  -0.275
REMARK UNBOUND:                -0.241
REMARK  3 active torsions:
REMARK  status: ('A' for Active; 'I' for Inactive)
REMARK    1  A    between atoms: C_5  and  S_25 
REMARK    2  A    between atoms: C_18  and  N_20 
REMARK    3  A    between atoms: N_20  and  S_25 
ROOT
HETATM    1  C   UNL     1       2.820  -1.254 -32.662  1.00  0.00    -0.021 A 
HETATM    2  C   UNL     1       5.158  -1.522 -31.956  1.00  0.00     0.003 A 
HETATM    3  C   UNL     1       5.145  -2.863 -32.391  1.00  0.00     0.030 A 
HETATM    4  C   UNL     1       2.826  -2.601 -33.100  1.00  0.00     0.042 A 
HETATM    5  C   UNL     1       1.148  -0.267 -34.138  1.00  0.00     0.107 A 
HETATM    6  C   UNL     1      -0.678   1.026 -33.369  1.00  0.00     0.258 A 
HETATM    7  C   UNL     1      -0.267   0.873 -32.027  1.00  0.00     0.043 A 
HETATM    8  C   UNL     1      -1.004   1.464 -30.972  1.00  0.00     0.018 A 
HETATM    9  C   UNL     1      -0.588   1.310 -29.643  1.00  0.00     0.001 A 
HETATM   10  C   UNL     1       0.565   0.570 -29.349  1.00  0.00     0.001 A 
HETATM   11  C   UNL     1       1.302  -0.024 -30.387  1.00  0.00     0.013 A 
HETATM   12  C   UNL     1       0.907   0.113 -31.745  1.00  0.00    -0.008 A 
HETATM   13  C   UNL     1       1.633  -0.473 -32.825  1.00  0.00     0.001 A 
HETATM   14  C   UNL     1      -0.453   0.651 -35.752  1.00  0.00     0.159 C 
HETATM   15  C   UNL     1       4.005  -0.726 -32.096  1.00  0.00     0.012 A 
HETATM   16  C   UNL     1       3.978  -3.406 -32.963  1.00  0.00     0.043 A 
HETATM   17  N   UNL     1       0.014   0.454 -34.396  1.00  0.00    -0.327 N 
HETATM   18  O   UNL     1      -1.700   1.695 -33.623  1.00  0.00    -0.267 OA
ENDROOT
BRANCH  16  19
HETATM   19  N   UNL     1       4.044  -4.700 -33.361  1.00  0.00    -0.285 N 
ATOM     20  HN  UNL     1       4.880  -4.993 -33.866  1.00  0.00     0.178 HD
BRANCH  19  21
HETATM   21  S   UNL     1       2.844  -5.875 -33.085  1.00  0.00     0.230 S 
HETATM   22  O   UNL     1       3.496  -7.307 -33.389  1.00  0.00    -0.206 OA
HETATM   23  O   UNL     1       2.306  -5.772 -31.584  1.00  0.00    -0.206 OA
BRANCH  21  24
HETATM   24  C   UNL     1       1.458  -5.625 -34.254  1.00  0.00     0.159 C 
HETATM   25  C   UNL     1       0.236  -6.472 -33.848  1.00  0.00     0.023 C 
ENDBRANCH  21  24
ENDBRANCH  19  21
ENDBRANCH  16  19
TORSDOF 3
ENDMDL
MODEL 5
REMARK VINA RESULT:    -7.574      3.111      7.420
REMARK INTER + INTRA:          -9.143
REMARK INTER:                  -8.821
REMARK INTRA:                  -0.322
REMARK UNBOUND:                -0.241
REMARK  3 active torsions:
REMARK  status: ('A' for Active; 'I' for Inactive)
REMARK    1  A    between atoms: C_5  and  S_25 
REMARK    2  A    between atoms: C_18  and  N_20 
REMARK    3  A    between atoms: N_20  and  S_25 
ROOT
HETATM    1  C   UNL     1       2.801  -0.583 -32.197  1.00  0.00    -0.021 A 
HETATM    2  C   UNL     1       0.880   0.124 -30.839  1.00  0.00     0.003 A 
HETATM    3  C   UNL     1       0.131   0.366 -32.008  1.00  0.00     0.030 A 
HETATM    4  C   UNL     1       2.032  -0.341 -33.362  1.00  0.00     0.042 A 
HETATM    5  C   UNL     1       4.330  -2.318 -32.972  1.00  0.00     0.107 A 
HETATM    6  C   UNL     1       6.678  -2.209 -32.707  1.00  0.00     0.258 A 
HETATM    7  C   UNL     1       6.582  -0.959 -32.059  1.00  0.00     0.043 A 
HETATM    8  C   UNL     1       7.743  -0.288 -31.602  1.00  0.00     0.018 A 
HETATM    9  C   UNL     1       7.640   0.951 -30.956  1.00  0.00     0.001 A 
HETATM   10  C   UNL     1       6.382   1.535 -30.755  1.00  0.00     0.001 A 
HETATM   11  C   UNL     1       5.224   0.881 -31.208  1.00  0.00     0.013 A 
HETATM   12  C   UNL     1       5.294  -0.376 -31.865  1.00  0.00    -0.008 A 
HETATM   13  C   UNL     1       4.139  -1.071 -32.334  1.00  0.00     0.001 A 
HETATM   14  C   UNL     1       5.732  -4.145 -33.815  1.00  0.00     0.159 C 
HETATM   15  C   UNL     1       2.202  -0.351 -30.936  1.00  0.00     0.012 A 
HETATM   16  C   UNL     1       0.706   0.135 -33.272  1.00  0.00     0.043 A 
HETATM   17  N   UNL     1       5.571  -2.863 -33.163  1.00  0.00    -0.327 N 
HETATM   18  O   UNL     1       7.801  -2.728 -32.872  1.00  0.00    -0.267 OA
ENDROOT
BRANCH  16  19
HETATM   19  N   UNL     1      -0.078   0.386 -34.349  1.00  0.00    -0.285 N 
ATOM     20  HN  UNL     1      -0.678   1.210 -34.311  1.00  0.00     0.178 HD
BRANCH  19  21
HETATM   21  S   UNL     1      -0.142  -0.562 -35.761  1.00  0.00     0.230 S 
HETATM   22  O   UNL     1      -1.317   0.023 -36.679  1.00  0.00    -0.206 OA
HETATM   23  O   UNL     1       1.270  -0.531 -36.510  1.00  0.00    -0.206 OA
BRANCH  21  24
HETATM   24  C   UNL     1      -0.569  -2.288 -35.325  1.00  0.00     0.159 C 
HETATM   25  C   UNL     1       0.703  -3.134 -35.120  1.00  0.00     0.023 C 
ENDBRANCH  21  24
ENDBRANCH  19  21
ENDBRANCH  16  19
TORSDOF 3
ENDMDL
MODEL 6
REMARK VINA RESULT:    -7.503      3.319      4.984
REMARK INTER + INTRA:          -9.060
REMARK INTER:                  -8.822
REMARK INTRA:                  -0.238
REMARK UNBOUND:                -0.241
REMARK  3 active torsions:
REMARK  status: ('A' for Active; 'I' for Inactive)
REMARK    1  A    between atoms: C_5  and  S_25 
REMARK    2  A    between atoms: C_18  and  N_20 
REMARK    3  A    between atoms: N_20  and  S_25 
ROOT
HETATM    1  C   UNL     1       5.888  -0.329 -31.203  1.00  0.00    -0.021 A 
HETATM    2  C   UNL     1       6.863   1.864 -30.675  1.00  0.00     0.003 A 
HETATM    3  C   UNL     1       7.471   1.327 -29.522  1.00  0.00     0.030 A 
HETATM    4  C   UNL     1       6.510  -0.854 -30.044  1.00  0.00     0.042 A 
HETATM    5  C   UNL     1       5.753  -2.306 -32.624  1.00  0.00     0.107 A 
HETATM    6  C   UNL     1       3.763  -3.024 -33.683  1.00  0.00     0.258 A 
HETATM    7  C   UNL     1       3.038  -1.946 -33.132  1.00  0.00     0.043 A 
HETATM    8  C   UNL     1       1.658  -1.784 -33.407  1.00  0.00     0.018 A 
HETATM    9  C   UNL     1       0.946  -0.709 -32.859  1.00  0.00     0.001 A 
HETATM   10  C   UNL     1       1.598   0.218 -32.034  1.00  0.00     0.001 A 
HETATM   11  C   UNL     1       2.966   0.065 -31.751  1.00  0.00     0.013 A 
HETATM   12  C   UNL     1       3.717  -1.013 -32.291  1.00  0.00    -0.008 A 
HETATM   13  C   UNL     1       5.107  -1.197 -32.029  1.00  0.00     0.001 A 
HETATM   14  C   UNL     1       5.781  -4.323 -34.019  1.00  0.00     0.159 C 
HETATM   15  C   UNL     1       6.083   1.039 -31.509  1.00  0.00     0.012 A 
HETATM   16  C   UNL     1       7.294  -0.033 -29.203  1.00  0.00     0.043 A 
HETATM   17  N   UNL     1       5.090  -3.200 -33.420  1.00  0.00    -0.327 N 
HETATM   18  O   UNL     1       3.178  -3.839 -34.425  1.00  0.00    -0.267 OA
ENDROOT
BRANCH  16  19
HETATM   19  N   UNL     1       7.913  -0.478 -28.082  1.00  0.00    -0.285 N 
ATOM     20  HN  UNL     1       7.385  -0.443 -27.210  1.00  0.00     0.178 HD
BRANCH  19  21
HETATM   21  S   UNL     1       9.499  -1.089 -28.011  1.00  0.00     0.230 S 
HETATM   22  O   UNL     1       9.560  -2.377 -28.961  1.00  0.00    -0.206 OA
HETATM   23  O   UNL     1      10.543   0.034 -28.464  1.00  0.00    -0.206 OA
BRANCH  21  24
HETATM   24  C   UNL     1       9.877  -1.626 -26.303  1.00  0.00     0.159 C 
HETATM   25  C   UNL     1       9.879  -3.164 -26.197  1.00  0.00     0.023 C 
ENDBRANCH  21  24
ENDBRANCH  19  21
ENDBRANCH  16  19
TORSDOF 3
ENDMDL
MODEL 7
REMARK VINA RESULT:    -7.403      3.404      4.966
REMARK INTER + INTRA:          -8.942
REMARK INTER:                  -8.517
REMARK INTRA:                  -0.425
REMARK UNBOUND:                -0.241
REMARK  3 active torsions:
REMARK  status: ('A' for Active; 'I' for Inactive)
REMARK    1  A    between atoms: C_5  and  S_25 
REMARK    2  A    between atoms: C_18  and  N_20 
REMARK    3  A    between atoms: N_20  and  S_25 
ROOT
HETATM    1  C   UNL     1       5.894  -0.423 -31.239  1.00  0.00    -0.021 A 
HETATM    2  C   UNL     1       6.997   1.714 -30.735  1.00  0.00     0.003 A 
HETATM    3  C   UNL     1       7.620   1.137 -29.610  1.00  0.00     0.030 A 
HETATM    4  C   UNL     1       6.532  -0.988 -30.109  1.00  0.00     0.042 A 
HETATM    5  C   UNL     1       5.605  -2.378 -32.668  1.00  0.00     0.107 A 
HETATM    6  C   UNL     1       3.543  -2.987 -33.655  1.00  0.00     0.258 A 
HETATM    7  C   UNL     1       2.895  -1.878 -33.069  1.00  0.00     0.043 A 
HETATM    8  C   UNL     1       1.515  -1.645 -33.290  1.00  0.00     0.018 A 
HETATM    9  C   UNL     1       0.880  -0.541 -32.707  1.00  0.00     0.001 A 
HETATM   10  C   UNL     1       1.608   0.345 -31.902  1.00  0.00     0.001 A 
HETATM   11  C   UNL     1       2.977   0.122 -31.672  1.00  0.00     0.013 A 
HETATM   12  C   UNL     1       3.651  -0.988 -32.249  1.00  0.00    -0.008 A 
HETATM   13  C   UNL     1       5.040  -1.244 -32.041  1.00  0.00     0.001 A 
HETATM   14  C   UNL     1       5.479  -4.381 -34.077  1.00  0.00     0.159 C 
HETATM   15  C   UNL     1       6.145   0.937 -31.544  1.00  0.00     0.012 A 
HETATM   16  C   UNL     1       7.388  -0.215 -29.293  1.00  0.00     0.043 A 
HETATM   17  N   UNL     1       4.868  -3.231 -33.444  1.00  0.00    -0.327 N 
HETATM   18  O   UNL     1       2.890  -3.765 -34.380  1.00  0.00    -0.267 OA
ENDROOT
BRANCH  16  19
HETATM   19  N   UNL     1       8.025  -0.700 -28.200  1.00  0.00    -0.285 N 
ATOM     20  HN  UNL     1       7.537  -0.639 -27.307  1.00  0.00     0.178 HD
BRANCH  19  21
HETATM   21  S   UNL     1       9.575  -1.402 -28.196  1.00  0.00     0.230 S 
HETATM   22  O   UNL     1      10.578  -0.350 -27.522  1.00  0.00    -0.206 OA
HETATM   23  O   UNL     1       9.550  -2.791 -27.405  1.00  0.00    -0.206 OA
BRANCH  21  24
HETATM   24  C   UNL     1      10.127  -1.685 -29.919  1.00  0.00     0.159 C 
HETATM   25  C   UNL     1       9.606  -3.036 -30.448  1.00  0.00     0.023 C 
ENDBRANCH  21  24
ENDBRANCH  19  21
ENDBRANCH  16  19
TORSDOF 3
ENDMDL
MODEL 8
REMARK VINA RESULT:    -7.350      4.710      7.569
REMARK INTER + INTRA:          -8.880
REMARK INTER:                  -8.442
REMARK INTRA:                  -0.438
REMARK UNBOUND:                -0.241
REMARK  3 active torsions:
REMARK  status: ('A' for Active; 'I' for Inactive)
REMARK    1  A    between atoms: C_5  and  S_25 
REMARK    2  A    between atoms: C_18  and  N_20 
REMARK    3  A    between atoms: N_20  and  S_25 
ROOT
HETATM    1  C   UNL     1       0.167  -1.433 -35.019  1.00  0.00    -0.021 A 
HETATM    2  C   UNL     1       0.404  -1.532 -37.463  1.00  0.00     0.003 A 
HETATM    3  C   UNL     1      -0.648  -2.467 -37.536  1.00  0.00     0.030 A 
HETATM    4  C   UNL     1      -0.892  -2.369 -35.111  1.00  0.00     0.042 A 
HETATM    5  C   UNL     1      -0.429  -0.216 -32.992  1.00  0.00     0.107 A 
HETATM    6  C   UNL     1       1.066   0.147 -31.194  1.00  0.00     0.258 A 
HETATM    7  C   UNL     1       2.095  -0.549 -31.864  1.00  0.00     0.043 A 
HETATM    8  C   UNL     1       3.372  -0.703 -31.269  1.00  0.00     0.018 A 
HETATM    9  C   UNL     1       4.390  -1.392 -31.941  1.00  0.00     0.001 A 
HETATM   10  C   UNL     1       4.151  -1.932 -33.212  1.00  0.00     0.001 A 
HETATM   11  C   UNL     1       2.888  -1.789 -33.810  1.00  0.00     0.013 A 
HETATM   12  C   UNL     1       1.835  -1.096 -33.156  1.00  0.00    -0.008 A 
HETATM   13  C   UNL     1       0.541  -0.928 -33.734  1.00  0.00     0.001 A 
HETATM   14  C   UNL     1      -1.186   1.024 -31.016  1.00  0.00     0.159 C 
HETATM   15  C   UNL     1       0.803  -1.018 -36.214  1.00  0.00     0.012 A 
HETATM   16  C   UNL     1      -1.298  -2.889 -36.360  1.00  0.00     0.043 A 
HETATM   17  N   UNL     1      -0.172   0.295 -31.748  1.00  0.00    -0.327 N 
HETATM   18  O   UNL     1       1.289   0.635 -30.068  1.00  0.00    -0.267 OA
ENDROOT
BRANCH  16  19
HETATM   19  N   UNL     1      -2.303  -3.786 -36.511  1.00  0.00    -0.285 N 
ATOM     20  HN  UNL     1      -3.241  -3.418 -36.665  1.00  0.00     0.178 HD
BRANCH  19  21
HETATM   21  S   UNL     1      -2.124  -5.478 -36.464  1.00  0.00     0.230 S 
HETATM   22  O   UNL     1      -2.584  -5.968 -35.009  1.00  0.00    -0.206 OA
HETATM   23  O   UNL     1      -2.992  -6.156 -37.622  1.00  0.00    -0.206 OA
BRANCH  21  24
HETATM   24  C   UNL     1      -0.361  -5.918 -36.678  1.00  0.00     0.159 C 
HETATM   25  C   UNL     1       0.374  -5.922 -35.324  1.00  0.00     0.023 C 
ENDBRANCH  21  24
ENDBRANCH  19  21
ENDBRANCH  16  19
TORSDOF 3
ENDMDL
MODEL 9
REMARK VINA RESULT:    -7.270      3.506      5.055
REMARK INTER + INTRA:          -8.786
REMARK INTER:                  -8.347
REMARK INTRA:                  -0.439
REMARK UNBOUND:                -0.241
REMARK  3 active torsions:
REMARK  status: ('A' for Active; 'I' for Inactive)
REMARK    1  A    between atoms: C_5  and  S_25 
REMARK    2  A    between atoms: C_18  and  N_20 
REMARK    3  A    between atoms: N_20  and  S_25 
ROOT
HETATM    1  C   UNL     1       2.916  -1.191 -32.590  1.00  0.00    -0.021 A 
HETATM    2  C   UNL     1       5.250  -1.385 -31.847  1.00  0.00     0.003 A 
HETATM    3  C   UNL     1       5.286  -2.726 -32.279  1.00  0.00     0.030 A 
HETATM    4  C   UNL     1       2.971  -2.538 -33.024  1.00  0.00     0.042 A 
HETATM    5  C   UNL     1       1.237  -0.260 -34.094  1.00  0.00     0.107 A 
HETATM    6  C   UNL     1      -0.640   0.977 -33.358  1.00  0.00     0.258 A 
HETATM    7  C   UNL     1      -0.246   0.839 -32.009  1.00  0.00     0.043 A 
HETATM    8  C   UNL     1      -1.017   1.409 -30.967  1.00  0.00     0.018 A 
HETATM    9  C   UNL     1      -0.618   1.272 -29.631  1.00  0.00     0.001 A 
HETATM   10  C   UNL     1       0.553   0.569 -29.317  1.00  0.00     0.001 A 
HETATM   11  C   UNL     1       1.325  -0.005 -30.343  1.00  0.00     0.013 A 
HETATM   12  C   UNL     1       0.947   0.117 -31.707  1.00  0.00    -0.008 A 
HETATM   13  C   UNL     1       1.708  -0.448 -32.774  1.00  0.00     0.001 A 
HETATM   14  C   UNL     1      -0.366   0.604 -35.736  1.00  0.00     0.159 C 
HETATM   15  C   UNL     1       4.075  -0.625 -32.007  1.00  0.00     0.012 A 
HETATM   16  C   UNL     1       4.146  -3.307 -32.867  1.00  0.00     0.043 A 
HETATM   17  N   UNL     1       0.086   0.424 -34.372  1.00  0.00    -0.327 N 
HETATM   18  O   UNL     1      -1.678   1.613 -33.630  1.00  0.00    -0.267 OA
ENDROOT
BRANCH  16  19
HETATM   19  N   UNL     1       4.258  -4.599 -33.261  1.00  0.00    -0.285 N 
ATOM     20  HN  UNL     1       4.556  -5.278 -32.561  1.00  0.00     0.178 HD
BRANCH  19  21
HETATM   21  S   UNL     1       3.940  -5.179 -34.829  1.00  0.00     0.230 S 
HETATM   22  O   UNL     1       4.722  -6.568 -34.994  1.00  0.00    -0.206 OA
HETATM   23  O   UNL     1       2.366  -5.354 -35.044  1.00  0.00    -0.206 OA
BRANCH  21  24
HETATM   24  C   UNL     1       4.604  -4.005 -36.066  1.00  0.00     0.159 C 
HETATM   25  C   UNL     1       3.462  -3.305 -36.829  1.00  0.00     0.023 C 
ENDBRANCH  21  24
ENDBRANCH  19  21
ENDBRANCH  16  19
TORSDOF 3
ENDMDL
MODEL 10
REMARK VINA RESULT:    -7.043      4.460      8.056
REMARK INTER + INTRA:          -8.519
REMARK INTER:                  -8.257
REMARK INTRA:                  -0.262
REMARK UNBOUND:                -0.241
REMARK  3 active torsions:
REMARK  status: ('A' for Active; 'I' for Inactive)
REMARK    1  A    between atoms: C_5  and  S_25 
REMARK    2  A    between atoms: C_18  and  N_20 
REMARK    3  A    between atoms: N_20  and  S_25 
ROOT
HETATM    1  C   UNL     1       1.299  -1.169 -35.699  1.00  0.00    -0.021 A 
HETATM    2  C   UNL     1       2.123  -1.111 -38.013  1.00  0.00     0.003 A 
HETATM    3  C   UNL     1       1.020  -1.881 -38.435  1.00  0.00     0.030 A 
HETATM    4  C   UNL     1       0.194  -1.937 -36.141  1.00  0.00     0.042 A 
HETATM    5  C   UNL     1       0.364  -0.041 -33.749  1.00  0.00     0.107 A 
HETATM    6  C   UNL     1       1.397  -0.031 -31.621  1.00  0.00     0.258 A 
HETATM    7  C   UNL     1       2.472  -0.810 -32.100  1.00  0.00     0.043 A 
HETATM    8  C   UNL     1       3.533  -1.187 -31.241  1.00  0.00     0.018 A 
HETATM    9  C   UNL     1       4.599  -1.957 -31.724  1.00  0.00     0.001 A 
HETATM   10  C   UNL     1       4.623  -2.359 -33.067  1.00  0.00     0.001 A 
HETATM   11  C   UNL     1       3.573  -1.995 -33.928  1.00  0.00     0.013 A 
HETATM   12  C   UNL     1       2.478  -1.214 -33.469  1.00  0.00    -0.008 A 
HETATM   13  C   UNL     1       1.398  -0.822 -34.315  1.00  0.00     0.001 A 
HETATM   14  C   UNL     1      -0.711   1.135 -31.885  1.00  0.00     0.159 C 
HETATM   15  C   UNL     1       2.255  -0.755 -36.657  1.00  0.00     0.012 A 
HETATM   16  C   UNL     1       0.054  -2.297 -37.499  1.00  0.00     0.043 A 
HETATM   17  N   UNL     1       0.361   0.331 -32.432  1.00  0.00    -0.327 N 
HETATM   18  O   UNL     1       1.388   0.332 -30.427  1.00  0.00    -0.267 OA
ENDROOT
BRANCH  16  19
HETATM   19  N   UNL     1      -0.980  -3.031 -37.980  1.00  0.00    -0.285 N 
ATOM     20  HN  UNL     1      -0.751  -3.858 -38.530  1.00  0.00     0.178 HD
BRANCH  19  21
HETATM   21  S   UNL     1      -2.628  -2.682 -37.740  1.00  0.00     0.230 S 
HETATM   22  O   UNL     1      -3.018  -3.197 -36.273  1.00  0.00    -0.206 OA
HETATM   23  O   UNL     1      -2.891  -1.115 -37.910  1.00  0.00    -0.206 OA
BRANCH  21  24
HETATM   24  C   UNL     1      -3.637  -3.611 -38.953  1.00  0.00     0.159 C 
HETATM   25  C   UNL     1      -4.843  -2.773 -39.421  1.00  0.00     0.023 C 
ENDBRANCH  21  24
ENDBRANCH  19  21
ENDBRANCH  16  19
TORSDOF 3
ENDMDL
MODEL 11
REMARK VINA RESULT:    -6.999      3.280      6.161
REMARK INTER + INTRA:          -8.467
REMARK INTER:                  -8.334
REMARK INTRA:                  -0.133
REMARK UNBOUND:                -0.241
REMARK  3 active torsions:
REMARK  status: ('A' for Active; 'I' for Inactive)
REMARK    1  A    between atoms: C_5  and  S_25 
REMARK    2  A    between atoms: C_18  and  N_20 
REMARK    3  A    between atoms: N_20  and  S_25 
ROOT
HETATM    1  C   UNL     1       3.861  -2.439 -32.767  1.00  0.00    -0.021 A 
HETATM    2  C   UNL     1       2.296  -0.608 -32.280  1.00  0.00     0.003 A 
HETATM    3  C   UNL     1       3.265   0.016 -31.468  1.00  0.00     0.030 A 
HETATM    4  C   UNL     1       4.825  -1.796 -31.952  1.00  0.00     0.042 A 
HETATM    5  C   UNL     1       5.278  -3.662 -34.330  1.00  0.00     0.107 A 
HETATM    6  C   UNL     1       5.037  -5.971 -34.786  1.00  0.00     0.258 A 
HETATM    7  C   UNL     1       3.953  -6.071 -33.888  1.00  0.00     0.043 A 
HETATM    8  C   UNL     1       3.295  -7.309 -33.682  1.00  0.00     0.018 A 
HETATM    9  C   UNL     1       2.217  -7.400 -32.792  1.00  0.00     0.001 A 
HETATM   10  C   UNL     1       1.781  -6.263 -32.099  1.00  0.00     0.001 A 
HETATM   11  C   UNL     1       2.429  -5.031 -32.292  1.00  0.00     0.013 A 
HETATM   12  C   UNL     1       3.524  -4.904 -33.188  1.00  0.00    -0.008 A 
HETATM   13  C   UNL     1       4.202  -3.669 -33.412  1.00  0.00     0.001 A 
HETATM   14  C   UNL     1       6.791  -4.747 -35.926  1.00  0.00     0.159 C 
HETATM   15  C   UNL     1       2.596  -1.823 -32.927  1.00  0.00     0.012 A 
HETATM   16  C   UNL     1       4.531  -0.578 -31.301  1.00  0.00     0.043 A 
HETATM   17  N   UNL     1       5.689  -4.789 -34.988  1.00  0.00    -0.327 N 
HETATM   18  O   UNL     1       5.413  -6.985 -35.408  1.00  0.00    -0.267 OA
ENDROOT
BRANCH  16  19
HETATM   19  N   UNL     1       5.411   0.083 -30.510  1.00  0.00    -0.285 N 
ATOM     20  HN  UNL     1       5.189   0.152 -29.517  1.00  0.00     0.178 HD
BRANCH  19  21
HETATM   21  S   UNL     1       6.857   0.808 -31.039  1.00  0.00     0.230 S 
HETATM   22  O   UNL     1       7.645  -0.277 -31.915  1.00  0.00    -0.206 OA
HETATM   23  O   UNL     1       6.535   2.131 -31.878  1.00  0.00    -0.206 OA
BRANCH  21  24
HETATM   24  C   UNL     1       7.897   1.234 -29.594  1.00  0.00     0.159 C 
HETATM   25  C   UNL     1       7.498   0.397 -28.363  1.00  0.00     0.023 C 
ENDBRANCH  21  24
ENDBRANCH  19  21
ENDBRANCH  16  19
TORSDOF 3
ENDMDL
MODEL 12
REMARK VINA RESULT:    -6.889      4.914      6.868
REMARK INTER + INTRA:          -8.338
REMARK INTER:                  -7.873
REMARK INTRA:                  -0.465
REMARK UNBOUND:                -0.241
REMARK  3 active torsions:
REMARK  status: ('A' for Active; 'I' for Inactive)
REMARK    1  A    between atoms: C_5  and  S_25 
REMARK    2  A    between atoms: C_18  and  N_20 
REMARK    3  A    between atoms: N_20  and  S_25 
ROOT
HETATM    1  C   UNL     1       3.333  -3.776 -33.550  1.00  0.00    -0.021 A 
HETATM    2  C   UNL     1       4.991  -5.162 -34.721  1.00  0.00     0.003 A 
HETATM    3  C   UNL     1       4.368  -6.331 -34.238  1.00  0.00     0.030 A 
HETATM    4  C   UNL     1       2.717  -4.961 -33.079  1.00  0.00     0.042 A 
HETATM    5  C   UNL     1       1.450  -2.227 -33.594  1.00  0.00     0.107 A 
HETATM    6  C   UNL     1       1.492  -0.086 -32.589  1.00  0.00     0.258 A 
HETATM    7  C   UNL     1       2.818  -0.280 -32.146  1.00  0.00     0.043 A 
HETATM    8  C   UNL     1       3.492   0.726 -31.412  1.00  0.00     0.018 A 
HETATM    9  C   UNL     1       4.810   0.527 -30.979  1.00  0.00     0.001 A 
HETATM   10  C   UNL     1       5.471  -0.673 -31.272  1.00  0.00     0.001 A 
HETATM   11  C   UNL     1       4.811  -1.681 -31.995  1.00  0.00     0.013 A 
HETATM   12  C   UNL     1       3.476  -1.510 -32.450  1.00  0.00    -0.008 A 
HETATM   13  C   UNL     1       2.776  -2.509 -33.190  1.00  0.00     0.001 A 
HETATM   14  C   UNL     1      -0.532  -0.789 -33.720  1.00  0.00     0.159 C 
HETATM   15  C   UNL     1       4.473  -3.897 -34.382  1.00  0.00     0.012 A 
HETATM   16  C   UNL     1       3.230  -6.233 -33.414  1.00  0.00     0.043 A 
HETATM   17  N   UNL     1       0.825  -1.049 -33.287  1.00  0.00    -0.327 N 
HETATM   18  O   UNL     1       0.913   0.990 -32.334  1.00  0.00    -0.267 OA
ENDROOT
BRANCH  16  19
HETATM   19  N   UNL     1       2.685  -7.400 -32.993  1.00  0.00    -0.285 N 
ATOM     20  HN  UNL     1       3.291  -8.044 -32.485  1.00  0.00     0.178 HD
BRANCH  19  21
HETATM   21  S   UNL     1       1.071  -7.877 -33.243  1.00  0.00     0.230 S 
HETATM   22  O   UNL     1       1.036  -9.479 -33.228  1.00  0.00    -0.206 OA
HETATM   23  O   UNL     1       0.130  -7.251 -32.112  1.00  0.00    -0.206 OA
BRANCH  21  24
HETATM   24  C   UNL     1       0.510  -7.313 -34.891  1.00  0.00     0.159 C 
HETATM   25  C   UNL     1      -0.433  -6.100 -34.767  1.00  0.00     0.023 C 
ENDBRANCH  21  24
ENDBRANCH  19  21
ENDBRANCH  16  19
TORSDOF 3
ENDMDL
MODEL 13
REMARK VINA RESULT:    -6.778      3.912      7.267
REMARK INTER + INTRA:          -8.208
REMARK INTER:                  -7.950
REMARK INTRA:                  -0.258
REMARK UNBOUND:                -0.241
REMARK  3 active torsions:
REMARK  status: ('A' for Active; 'I' for Inactive)
REMARK    1  A    between atoms: C_5  and  S_25 
REMARK    2  A    between atoms: C_18  and  N_20 
REMARK    3  A    between atoms: N_20  and  S_25 
ROOT
HETATM    1  C   UNL     1       3.344  -2.425 -32.589  1.00  0.00    -0.021 A 
HETATM    2  C   UNL     1       4.191  -0.511 -31.303  1.00  0.00     0.003 A 
HETATM    3  C   UNL     1       3.206   0.320 -31.875  1.00  0.00     0.030 A 
HETATM    4  C   UNL     1       2.357  -1.578 -33.150  1.00  0.00     0.042 A 
HETATM    5  C   UNL     1       2.237  -4.597 -32.684  1.00  0.00     0.107 A 
HETATM    6  C   UNL     1       3.225  -6.531 -33.622  1.00  0.00     0.258 A 
HETATM    7  C   UNL     1       4.401  -5.819 -33.941  1.00  0.00     0.043 A 
HETATM    8  C   UNL     1       5.488  -6.464 -34.580  1.00  0.00     0.018 A 
HETATM    9  C   UNL     1       6.654  -5.751 -34.890  1.00  0.00     0.001 A 
HETATM   10  C   UNL     1       6.752  -4.391 -34.568  1.00  0.00     0.001 A 
HETATM   11  C   UNL     1       5.678  -3.739 -33.938  1.00  0.00     0.013 A 
HETATM   12  C   UNL     1       4.483  -4.433 -33.609  1.00  0.00    -0.008 A 
HETATM   13  C   UNL     1       3.375  -3.805 -32.967  1.00  0.00     0.001 A 
HETATM   14  C   UNL     1       0.987  -6.706 -32.710  1.00  0.00     0.159 C 
HETATM   15  C   UNL     1       4.253  -1.873 -31.656  1.00  0.00     0.012 A 
HETATM   16  C   UNL     1       2.288  -0.211 -32.801  1.00  0.00     0.043 A 
HETATM   17  N   UNL     1       2.164  -5.922 -33.018  1.00  0.00    -0.327 N 
HETATM   18  O   UNL     1       3.149  -7.744 -33.903  1.00  0.00    -0.267 OA
ENDROOT
BRANCH  16  19
HETATM   19  N   UNL     1       1.368   0.648 -33.304  1.00  0.00    -0.285 N 
ATOM     20  HN  UNL     1       1.704   1.383 -33.926  1.00  0.00     0.178 HD
BRANCH  19  21
HETATM   21  S   UNL     1      -0.302   0.599 -32.981  1.00  0.00     0.230 S 
HETATM   22  O   UNL     1      -0.952   1.919 -33.615  1.00  0.00    -0.206 OA
HETATM   23  O   UNL     1      -0.943  -0.732 -33.592  1.00  0.00    -0.206 OA
BRANCH  21  24
HETATM   24  C   UNL     1      -0.582   0.642 -31.173  1.00  0.00     0.159 C 
HETATM   25  C   UNL     1      -1.394   1.889 -30.771  1.00  0.00     0.023 C 
ENDBRANCH  21  24
ENDBRANCH  19  21
ENDBRANCH  16  19
TORSDOF 3
ENDMDL
MODEL 14
REMARK VINA RESULT:    -6.742      4.435      6.106
REMARK INTER + INTRA:          -8.166
REMARK INTER:                  -7.928
REMARK INTRA:                  -0.238
REMARK UNBOUND:                -0.241
REMARK  3 active torsions:
REMARK  status: ('A' for Active; 'I' for Inactive)
REMARK    1  A    between atoms: C_5  and  S_25 
REMARK    2  A    between atoms: C_18  and  N_20 
REMARK    3  A    between atoms: N_20  and  S_25 
ROOT
HETATM    1  C   UNL     1       6.501  -0.832 -31.074  1.00  0.00    -0.021 A 
HETATM    2  C   UNL     1       6.303   1.481 -30.270  1.00  0.00     0.003 A 
HETATM    3  C   UNL     1       6.970   1.134 -29.078  1.00  0.00     0.030 A 
HETATM    4  C   UNL     1       7.175  -1.163 -29.873  1.00  0.00     0.042 A 
HETATM    5  C   UNL     1       7.431  -2.469 -32.625  1.00  0.00     0.107 A 
HETATM    6  C   UNL     1       6.110  -3.862 -34.006  1.00  0.00     0.258 A 
HETATM    7  C   UNL     1       4.920  -3.298 -33.498  1.00  0.00     0.043 A 
HETATM    8  C   UNL     1       3.655  -3.737 -33.960  1.00  0.00     0.018 A 
HETATM    9  C   UNL     1       2.478  -3.170 -33.453  1.00  0.00     0.001 A 
HETATM   10  C   UNL     1       2.546  -2.160 -32.484  1.00  0.00     0.001 A 
HETATM   11  C   UNL     1       3.796  -1.719 -32.015  1.00  0.00     0.013 A 
HETATM   12  C   UNL     1       5.007  -2.273 -32.509  1.00  0.00    -0.008 A 
HETATM   13  C   UNL     1       6.293  -1.848 -32.060  1.00  0.00     0.001 A 
HETATM   14  C   UNL     1       8.521  -4.071 -34.127  1.00  0.00     0.159 C 
HETATM   15  C   UNL     1       6.076   0.506 -31.260  1.00  0.00     0.012 A 
HETATM   16  C   UNL     1       7.407  -0.190 -28.876  1.00  0.00     0.043 A 
HETATM   17  N   UNL     1       7.336  -3.459 -33.564  1.00  0.00    -0.327 N 
HETATM   18  O   UNL     1       6.041  -4.754 -34.877  1.00  0.00    -0.267 OA
ENDROOT
BRANCH  16  19
HETATM   19  N   UNL     1       8.044  -0.446 -27.708  1.00  0.00    -0.285 N 
ATOM     20  HN  UNL     1       7.501  -0.362 -26.849  1.00  0.00     0.178 HD
BRANCH  19  21
HETATM   21  S   UNL     1       9.678  -0.898 -27.559  1.00  0.00     0.230 S 
HETATM   22  O   UNL     1       9.805  -2.412 -28.067  1.00  0.00    -0.206 OA
HETATM   23  O   UNL     1      10.604   0.093 -28.404  1.00  0.00    -0.206 OA
BRANCH  21  24
HETATM   24  C   UNL     1      10.172  -0.848 -25.797  1.00  0.00     0.159 C 
HETATM   25  C   UNL     1      11.688  -0.614 -25.657  1.00  0.00     0.023 C 
ENDBRANCH  21  24
ENDBRANCH  19  21
ENDBRANCH  16  19
TORSDOF 3
ENDMDL
MODEL 15
REMARK VINA RESULT:    -6.672      4.478      6.426
REMARK INTER + INTRA:          -8.083
REMARK INTER:                  -7.638
REMARK INTRA:                  -0.446
REMARK UNBOUND:                -0.241
REMARK  3 active torsions:
REMARK  status: ('A' for Active; 'I' for Inactive)
REMARK    1  A    between atoms: C_5  and  S_25 
REMARK    2  A    between atoms: C_18  and  N_20 
REMARK    3  A    between atoms: N_20  and  S_25 
ROOT
HETATM    1  C   UNL     1       1.358  -1.283 -36.142  1.00  0.00    -0.021 A 
HETATM    2  C   UNL     1       0.006  -2.102 -38.022  1.00  0.00     0.003 A 
HETATM    3  C   UNL     1       1.076  -1.862 -38.908  1.00  0.00     0.030 A 
HETATM    4  C   UNL     1       2.425  -1.053 -37.044  1.00  0.00     0.042 A 
HETATM    5  C   UNL     1       2.557  -1.683 -34.056  1.00  0.00     0.107 A 
HETATM    6  C   UNL     1       2.072  -0.562 -32.030  1.00  0.00     0.258 A 
HETATM    7  C   UNL     1       1.039   0.176 -32.645  1.00  0.00     0.043 A 
HETATM    8  C   UNL     1       0.279   1.115 -31.905  1.00  0.00     0.018 A 
HETATM    9  C   UNL     1      -0.747   1.843 -32.521  1.00  0.00     0.001 A 
HETATM   10  C   UNL     1      -1.032   1.642 -33.878  1.00  0.00     0.001 A 
HETATM   11  C   UNL     1      -0.283   0.717 -34.624  1.00  0.00     0.013 A 
HETATM   12  C   UNL     1       0.764  -0.037 -34.029  1.00  0.00    -0.008 A 
HETATM   13  C   UNL     1       1.542  -0.988 -34.754  1.00  0.00     0.001 A 
HETATM   14  C   UNL     1       3.863  -2.195 -32.044  1.00  0.00     0.159 C 
HETATM   15  C   UNL     1       0.151  -1.819 -36.651  1.00  0.00     0.012 A 
HETATM   16  C   UNL     1       2.288  -1.335 -38.421  1.00  0.00     0.043 A 
HETATM   17  N   UNL     1       2.820  -1.462 -32.731  1.00  0.00    -0.327 N 
HETATM   18  O   UNL     1       2.313  -0.386 -30.818  1.00  0.00    -0.267 OA
ENDROOT
BRANCH  16  19
HETATM   19  N   UNL     1       3.272  -1.135 -39.332  1.00  0.00    -0.285 N 
ATOM     20  HN  UNL     1       3.255  -0.261 -39.856  1.00  0.00     0.178 HD
BRANCH  19  21
HETATM   21  S   UNL     1       4.533  -2.226 -39.671  1.00  0.00     0.230 S 
HETATM   22  O   UNL     1       4.650  -2.344 -41.264  1.00  0.00    -0.206 OA
HETATM   23  O   UNL     1       5.896  -1.715 -39.010  1.00  0.00    -0.206 OA
BRANCH  21  24
HETATM   24  C   UNL     1       4.111  -3.880 -39.010  1.00  0.00     0.159 C 
HETATM   25  C   UNL     1       4.601  -4.034 -37.557  1.00  0.00     0.023 C 
ENDBRANCH  21  24
ENDBRANCH  19  21
ENDBRANCH  16  19
TORSDOF 3
ENDMDL
MODEL 16
REMARK VINA RESULT:    -6.665      5.244      6.848
REMARK INTER + INTRA:          -8.076
REMARK INTER:                  -7.705
REMARK INTRA:                  -0.370
REMARK UNBOUND:                -0.241
REMARK  3 active torsions:
REMARK  status: ('A' for Active; 'I' for Inactive)
REMARK    1  A    between atoms: C_5  and  S_25 
REMARK    2  A    between atoms: C_18  and  N_20 
REMARK    3  A    between atoms: N_20  and  S_25 
ROOT
HETATM    1  C   UNL     1       1.551  -3.298 -33.781  1.00  0.00    -0.021 A 
HETATM    2  C   UNL     1       3.397  -4.039 -32.339  1.00  0.00     0.003 A 
HETATM    3  C   UNL     1       2.785  -5.300 -32.188  1.00  0.00     0.030 A 
HETATM    4  C   UNL     1       0.953  -4.572 -33.624  1.00  0.00     0.042 A 
HETATM    5  C   UNL     1       0.703  -2.624 -35.966  1.00  0.00     0.107 A 
HETATM    6  C   UNL     1      -0.344  -0.544 -36.380  1.00  0.00     0.258 A 
HETATM    7  C   UNL     1      -0.185  -0.155 -35.033  1.00  0.00     0.043 A 
HETATM    8  C   UNL     1      -0.644   1.107 -34.583  1.00  0.00     0.018 A 
HETATM    9  C   UNL     1      -0.480   1.487 -33.245  1.00  0.00     0.001 A 
HETATM   10  C   UNL     1       0.144   0.618 -32.340  1.00  0.00     0.001 A 
HETATM   11  C   UNL     1       0.601  -0.638 -32.773  1.00  0.00     0.013 A 
HETATM   12  C   UNL     1       0.450  -1.053 -34.124  1.00  0.00    -0.008 A 
HETATM   13  C   UNL     1       0.904  -2.319 -34.600  1.00  0.00     0.001 A 
HETATM   14  C   UNL     1      -0.103  -2.100 -38.222  1.00  0.00     0.159 C 
HETATM   15  C   UNL     1       2.786  -3.050 -33.133  1.00  0.00     0.012 A 
HETATM   16  C   UNL     1       1.560  -5.569 -32.829  1.00  0.00     0.043 A 
HETATM   17  N   UNL     1       0.083  -1.760 -36.827  1.00  0.00    -0.327 N 
HETATM   18  O   UNL     1      -0.891   0.240 -37.182  1.00  0.00    -0.267 OA
ENDROOT
BRANCH  16  19
HETATM   19  N   UNL     1       1.035  -6.804 -32.640  1.00  0.00    -0.285 N 
ATOM     20  HN  UNL     1       0.519  -6.967 -31.777  1.00  0.00     0.178 HD
BRANCH  19  21
HETATM   21  S   UNL     1       1.169  -8.105 -33.729  1.00  0.00     0.230 S 
HETATM   22  O   UNL     1       1.007  -9.457 -32.884  1.00  0.00    -0.206 OA
HETATM   23  O   UNL     1       0.059  -7.982 -34.874  1.00  0.00    -0.206 OA
BRANCH  21  24
HETATM   24  C   UNL     1       2.835  -8.106 -34.486  1.00  0.00     0.159 C 
HETATM   25  C   UNL     1       3.893  -8.616 -33.488  1.00  0.00     0.023 C 
ENDBRANCH  21  24
ENDBRANCH  19  21
ENDBRANCH  16  19
TORSDOF 3
ENDMDL
MODEL 17
REMARK VINA RESULT:    -6.483      5.038      7.664
REMARK INTER + INTRA:          -7.861
REMARK INTER:                  -7.391
REMARK INTRA:                  -0.470
REMARK UNBOUND:                -0.241
REMARK  3 active torsions:
REMARK  status: ('A' for Active; 'I' for Inactive)
REMARK    1  A    between atoms: C_5  and  S_25 
REMARK    2  A    between atoms: C_18  and  N_20 
REMARK    3  A    between atoms: N_20  and  S_25 
ROOT
HETATM    1  C   UNL     1       1.657  -2.942 -34.928  1.00  0.00    -0.021 A 
HETATM    2  C   UNL     1       2.434  -3.735 -37.120  1.00  0.00     0.003 A 
HETATM    3  C   UNL     1       1.581  -4.854 -37.028  1.00  0.00     0.030 A 
HETATM    4  C   UNL     1       0.802  -4.068 -34.854  1.00  0.00     0.042 A 
HETATM    5  C   UNL     1       0.452  -1.320 -33.562  1.00  0.00     0.107 A 
HETATM    6  C   UNL     1       1.445  -0.103 -31.793  1.00  0.00     0.258 A 
HETATM    7  C   UNL     1       2.691  -0.728 -32.015  1.00  0.00     0.043 A 
HETATM    8  C   UNL     1       3.815  -0.408 -31.215  1.00  0.00     0.018 A 
HETATM    9  C   UNL     1       5.049  -1.030 -31.443  1.00  0.00     0.001 A 
HETATM   10  C   UNL     1       5.180  -1.975 -32.469  1.00  0.00     0.001 A 
HETATM   11  C   UNL     1       4.071  -2.303 -33.267  1.00  0.00     0.013 A 
HETATM   12  C   UNL     1       2.806  -1.690 -33.062  1.00  0.00    -0.008 A 
HETATM   13  C   UNL     1       1.660  -1.996 -33.856  1.00  0.00     0.001 A 
HETATM   14  C   UNL     1      -0.900   0.271 -32.277  1.00  0.00     0.159 C 
HETATM   15  C   UNL     1       2.466  -2.787 -36.080  1.00  0.00     0.012 A 
HETATM   16  C   UNL     1       0.764  -5.023 -35.893  1.00  0.00     0.043 A 
HETATM   17  N   UNL     1       0.350  -0.408 -32.548  1.00  0.00    -0.327 N 
HETATM   18  O   UNL     1       1.338   0.745 -30.884  1.00  0.00    -0.267 OA
ENDROOT
BRANCH  16  19
HETATM   19  N   UNL     1      -0.032  -6.121 -35.878  1.00  0.00    -0.285 N 
ATOM     20  HN  UNL     1       0.400  -7.010 -35.629  1.00  0.00     0.178 HD
BRANCH  19  21
HETATM   21  S   UNL     1      -1.695  -6.133 -36.242  1.00  0.00     0.230 S 
HETATM   22  O   UNL     1      -1.986  -7.450 -37.107  1.00  0.00    -0.206 OA
HETATM   23  O   UNL     1      -2.554  -6.105 -34.894  1.00  0.00    -0.206 OA
BRANCH  21  24
HETATM   24  C   UNL     1      -2.112  -4.677 -37.269  1.00  0.00     0.159 C 
HETATM   25  C   UNL     1      -2.594  -3.505 -36.392  1.00  0.00     0.023 C 
ENDBRANCH  21  24
ENDBRANCH  19  21
ENDBRANCH  16  19
TORSDOF 3
ENDMDL
MODEL 18
REMARK VINA RESULT:    -6.462      3.974      5.873
REMARK INTER + INTRA:          -7.837
REMARK INTER:                  -7.361
REMARK INTRA:                  -0.476
REMARK UNBOUND:                -0.241
REMARK  3 active torsions:
REMARK  status: ('A' for Active; 'I' for Inactive)
REMARK    1  A    between atoms: C_5  and  S_25 
REMARK    2  A    between atoms: C_18  and  N_20 
REMARK    3  A    between atoms: N_20  and  S_25 
ROOT
HETATM    1  C   UNL     1       3.640  -4.021 -32.933  1.00  0.00    -0.021 A 
HETATM    2  C   UNL     1       2.644  -6.266 -32.954  1.00  0.00     0.003 A 
HETATM    3  C   UNL     1       3.631  -6.706 -33.859  1.00  0.00     0.030 A 
HETATM    4  C   UNL     1       4.628  -4.480 -33.838  1.00  0.00     0.042 A 
HETATM    5  C   UNL     1       4.830  -2.237 -31.772  1.00  0.00     0.107 A 
HETATM    6  C   UNL     1       3.976  -0.046 -31.509  1.00  0.00     0.258 A 
HETATM    7  C   UNL     1       2.797  -0.385 -32.207  1.00  0.00     0.043 A 
HETATM    8  C   UNL     1       1.776   0.576 -32.414  1.00  0.00     0.018 A 
HETATM    9  C   UNL     1       0.607   0.232 -33.105  1.00  0.00     0.001 A 
HETATM   10  C   UNL     1       0.438  -1.070 -33.595  1.00  0.00     0.001 A 
HETATM   11  C   UNL     1       1.446  -2.031 -33.400  1.00  0.00     0.013 A 
HETATM   12  C   UNL     1       2.643  -1.714 -32.703  1.00  0.00    -0.008 A 
HETATM   13  C   UNL     1       3.684  -2.664 -32.482  1.00  0.00     0.001 A 
HETATM   14  C   UNL     1       6.157  -0.552 -30.582  1.00  0.00     0.159 C 
HETATM   15  C   UNL     1       2.654  -4.936 -32.493  1.00  0.00     0.012 A 
HETATM   16  C   UNL     1       4.625  -5.813 -34.304  1.00  0.00     0.043 A 
HETATM   17  N   UNL     1       4.973  -0.956 -31.311  1.00  0.00    -0.327 N 
HETATM   18  O   UNL     1       4.114   1.112 -31.066  1.00  0.00    -0.267 OA
ENDROOT
BRANCH  16  19
HETATM   19  N   UNL     1       5.542  -6.310 -35.170  1.00  0.00    -0.285 N 
ATOM     20  HN  UNL     1       6.072  -7.128 -34.873  1.00  0.00     0.178 HD
BRANCH  19  21
HETATM   21  S   UNL     1       5.880  -5.677 -36.713  1.00  0.00     0.230 S 
HETATM   22  O   UNL     1       6.929  -4.481 -36.522  1.00  0.00    -0.206 OA
HETATM   23  O   UNL     1       6.453  -6.825 -37.667  1.00  0.00    -0.206 OA
BRANCH  21  24
HETATM   24  C   UNL     1       4.352  -4.979 -37.441  1.00  0.00     0.159 C 
HETATM   25  C   UNL     1       4.386  -3.439 -37.419  1.00  0.00     0.023 C 
ENDBRANCH  21  24
ENDBRANCH  19  21
ENDBRANCH  16  19
TORSDOF 3
ENDMDL
MODEL 19
REMARK VINA RESULT:    -6.404      4.017      5.759
REMARK INTER + INTRA:          -7.769
REMARK INTER:                  -7.528
REMARK INTRA:                  -0.240
REMARK UNBOUND:                -0.241
REMARK  3 active torsions:
REMARK  status: ('A' for Active; 'I' for Inactive)
REMARK    1  A    between atoms: C_5  and  S_25 
REMARK    2  A    between atoms: C_18  and  N_20 
REMARK    3  A    between atoms: N_20  and  S_25 
ROOT
HETATM    1  C   UNL     1       3.699  -3.988 -32.904  1.00  0.00    -0.021 A 
HETATM    2  C   UNL     1       2.679  -6.223 -32.955  1.00  0.00     0.003 A 
HETATM    3  C   UNL     1       3.675  -6.667 -33.850  1.00  0.00     0.030 A 
HETATM    4  C   UNL     1       4.695  -4.452 -33.799  1.00  0.00     0.042 A 
HETATM    5  C   UNL     1       4.891  -2.225 -31.714  1.00  0.00     0.107 A 
HETATM    6  C   UNL     1       4.056  -0.028 -31.448  1.00  0.00     0.258 A 
HETATM    7  C   UNL     1       2.884  -0.349 -32.164  1.00  0.00     0.043 A 
HETATM    8  C   UNL     1       1.876   0.623 -32.379  1.00  0.00     0.018 A 
HETATM    9  C   UNL     1       0.713   0.297 -33.088  1.00  0.00     0.001 A 
HETATM   10  C   UNL     1       0.538  -1.000 -33.590  1.00  0.00     0.001 A 
HETATM   11  C   UNL     1       1.532  -1.972 -33.387  1.00  0.00     0.013 A 
HETATM   12  C   UNL     1       2.723  -1.673 -32.671  1.00  0.00    -0.008 A 
HETATM   13  C   UNL     1       3.751  -2.636 -32.443  1.00  0.00     0.001 A 
HETATM   14  C   UNL     1       6.219  -0.563 -30.494  1.00  0.00     0.159 C 
HETATM   15  C   UNL     1       2.697  -4.896 -32.485  1.00  0.00     0.012 A 
HETATM   16  C   UNL     1       4.684  -5.782 -34.274  1.00  0.00     0.043 A 
HETATM   17  N   UNL     1       5.041  -0.950 -31.242  1.00  0.00    -0.327 N 
HETATM   18  O   UNL     1       4.201   1.125 -30.995  1.00  0.00    -0.267 OA
ENDROOT
BRANCH  16  19
HETATM   19  N   UNL     1       5.608  -6.282 -35.131  1.00  0.00    -0.285 N 
ATOM     20  HN  UNL     1       5.372  -6.290 -36.123  1.00  0.00     0.178 HD
BRANCH  19  21
HETATM   21  S   UNL     1       7.131  -6.896 -34.684  1.00  0.00     0.230 S 
HETATM   22  O   UNL     1       7.947  -7.182 -36.033  1.00  0.00    -0.206 OA
HETATM   23  O   UNL     1       7.890  -5.855 -33.738  1.00  0.00    -0.206 OA
BRANCH  21  24
HETATM   24  C   UNL     1       6.918  -8.487 -33.803  1.00  0.00     0.159 C 
HETATM   25  C   UNL     1       8.008  -8.670 -32.729  1.00  0.00     0.023 C 
ENDBRANCH  21  24
ENDBRANCH  19  21
ENDBRANCH  16  19
TORSDOF 3
ENDMDL
MODEL 20
REMARK VINA RESULT:    -6.178      5.418      7.242
REMARK INTER + INTRA:          -7.502
REMARK INTER:                  -7.703
REMARK INTRA:                   0.200
REMARK UNBOUND:                -0.241
REMARK  3 active torsions:
REMARK  status: ('A' for Active; 'I' for Inactive)
REMARK    1  A    between atoms: C_5  and  S_25 
REMARK    2  A    between atoms: C_18  and  N_20 
REMARK    3  A    between atoms: N_20  and  S_25 
ROOT
HETATM    1  C   UNL     1       2.891  -4.204 -33.234  1.00  0.00    -0.021 A 
HETATM    2  C   UNL     1       4.321  -5.960 -34.187  1.00  0.00     0.003 A 
HETATM    3  C   UNL     1       3.512  -6.952 -33.595  1.00  0.00     0.030 A 
HETATM    4  C   UNL     1       2.086  -5.213 -32.651  1.00  0.00     0.042 A 
HETATM    5  C   UNL     1       1.282  -2.392 -33.512  1.00  0.00     0.107 A 
HETATM    6  C   UNL     1       1.654  -0.182 -32.755  1.00  0.00     0.258 A 
HETATM    7  C   UNL     1       2.925  -0.531 -32.250  1.00  0.00     0.043 A 
HETATM    8  C   UNL     1       3.743   0.435 -31.614  1.00  0.00     0.018 A 
HETATM    9  C   UNL     1       5.005   0.083 -31.119  1.00  0.00     0.001 A 
HETATM   10  C   UNL     1       5.469  -1.233 -31.253  1.00  0.00     0.001 A 
HETATM   11  C   UNL     1       4.665  -2.201 -31.879  1.00  0.00     0.013 A 
HETATM   12  C   UNL     1       3.381  -1.875 -32.392  1.00  0.00    -0.008 A 
HETATM   13  C   UNL     1       2.540  -2.831 -33.037  1.00  0.00     0.001 A 
HETATM   14  C   UNL     1      -0.442  -0.684 -33.863  1.00  0.00     0.159 C 
HETATM   15  C   UNL     1       4.007  -4.599 -34.010  1.00  0.00     0.012 A 
HETATM   16  C   UNL     1       2.394  -6.580 -32.825  1.00  0.00     0.043 A 
HETATM   17  N   UNL     1       0.850  -1.103 -33.360  1.00  0.00    -0.327 N 
HETATM   18  O   UNL     1       1.252   0.994 -32.641  1.00  0.00    -0.267 OA
ENDROOT
BRANCH  16  19
HETATM   19  N   UNL     1       1.662  -7.589 -32.292  1.00  0.00    -0.285 N 
ATOM     20  HN  UNL     1       0.888  -7.334 -31.679  1.00  0.00     0.178 HD
BRANCH  19  21
HETATM   21  S   UNL     1       1.931  -9.247 -32.563  1.00  0.00     0.230 S 
HETATM   22  O   UNL     1       1.614  -9.538 -34.107  1.00  0.00    -0.206 OA
HETATM   23  O   UNL     1       3.435  -9.632 -32.183  1.00  0.00    -0.206 OA
BRANCH  21  24
HETATM   24  C   UNL     1       0.769 -10.234 -31.551  1.00  0.00     0.159 C 
HETATM   25  C   UNL     1       1.520 -11.308 -30.740  1.00  0.00     0.023 C 
ENDBRANCH  21  24
ENDBRANCH  19  21
ENDBRANCH  16  19
TORSDOF 3
ENDMDL
