REMARK  4 active torsions:
REMARK  status: ('A' for Active; 'I' for Inactive)
REMARK    1  A    between atoms: C_7  and  C_8 
REMARK    2  A    between atoms: C_8  and  C_9 
REMARK    3  A    between atoms: C_9  and  C_10 
REMARK    4  A    between atoms: C_14  and  C_15 
ROOT
HETATM    1  C   UNL     1      23.366  13.598  66.454  1.00  0.00     0.060 A 
HETATM    2  C   UNL     1      22.873  14.932  66.840  1.00  0.00     0.032 A 
HETATM    3  C   UNL     1      21.869  13.859  66.422  1.00  0.00     0.039 A 
ENDROOT
BRANCH   1   4
HETATM    4  C   UNL     1      23.928  12.718  67.568  1.00  0.00     0.182 C 
HETATM    5  O   UNL     1      25.165  12.457  67.530  1.00  0.00    -0.647 OA
HETATM    6  O   UNL     1      23.165  12.381  68.497  1.00  0.00    -0.647 OA
ENDBRANCH   1   4
BRANCH   1   7
HETATM    7  C   UNL     1      24.190  13.568  65.164  1.00  0.00     0.059 C 
BRANCH   7   8
HETATM    8  C   UNL     1      24.333  12.231  64.579  1.00  0.00    -0.057 A 
HETATM    9  C   UNL     1      25.461  11.922  63.802  1.00  0.00     0.008 A 
HETATM   10  C   UNL     1      25.634  10.678  63.218  1.00  0.00     0.011 A 
HETATM   11  C   UNL     1      24.697   9.694  63.386  1.00  0.00    -0.046 A 
HETATM   12  C   UNL     1      24.873   8.444  62.761  1.00  0.00     0.023 C 
HETATM   13  C   UNL     1      23.554   9.977  64.102  1.00  0.00     0.011 A 
HETATM   14  C   UNL     1      23.381  11.219  64.733  1.00  0.00     0.008 A 
ENDBRANCH   7   8
ENDBRANCH   1   7
BRANCH   3  15
HETATM   15  C   UNL     1      21.127  13.885  65.169  1.00  0.00    -0.053 A 
HETATM   16  C   UNL     1      20.180  12.878  64.919  1.00  0.00     0.007 A 
HETATM   17  C   UNL     1      19.455  12.827  63.777  1.00  0.00     0.001 A 
HETATM   18  C   UNL     1      19.589  13.797  62.826  1.00  0.00     0.000 A 
HETATM   19  C   UNL     1      20.512  14.797  63.060  1.00  0.00     0.001 A 
HETATM   20  C   UNL     1      21.249  14.871  64.194  1.00  0.00     0.007 A 
ENDBRANCH   3  15
TORSDOF 4
