MODEL 1
REMARK VINA RESULT:   -12.923      0.000      0.000
REMARK INTER + INTRA:         -22.311
REMARK INTER:                 -20.855
REMARK INTRA:                  -1.456
REMARK UNBOUND:                -1.456
REMARK  12 active torsions:
REMARK  status: ('A' for Active; 'I' for Inactive)
REMARK    1  A    between atoms: P_1  and  O_4 
REMARK    2  A    between atoms: P_1  and  O_48 
REMARK    3  A    between atoms: O_4  and  C_5 
REMARK    4  A    between atoms: C_5  and  C_6 
REMARK    5  A    between atoms: C_8  and  N_9 
REMARK    6  A    between atoms: C_24  and  O_25 
REMARK    7  A    between atoms: C_27  and  O_28 
REMARK    8  A    between atoms: N_30  and  C_34 
REMARK    9  A    between atoms: C_34  and  C_35 
REMARK   10  A    between atoms: C_34  and  C_46 
REMARK   11  A    between atoms: C_35  and  C_36 
REMARK   12  A    between atoms: C_46  and  O_48 
ROOT
HETATM    1  C   UNL     1      13.223  44.884  12.662  1.00  0.00     0.180 C 
HETATM    2  O   UNL     1      12.045  44.336  12.127  1.00  0.00    -0.353 OA
HETATM    3  C   UNL     1      11.312  45.299  11.450  1.00  0.00     0.262 C 
HETATM    4  C   UNL     1      11.775  46.667  11.979  1.00  0.00     0.198 C 
HETATM    5  C   UNL     1      13.242  46.368  12.252  1.00  0.00     0.182 C 
ENDROOT
BRANCH   1   6
HETATM    6  C   UNL     1      13.257  44.695  14.159  1.00  0.00     0.216 C 
BRANCH   6   7
HETATM    7  O   UNL     1      12.051  44.947  14.775  1.00  0.00    -0.287 OA
BRANCH   7   8
HETATM    8  P   UNL     1      11.953  45.563  16.194  1.00  0.00     0.416 P 
HETATM    9  O   UNL     1      10.569  46.134  16.391  1.00  0.00    -0.624 OA
HETATM   10  O   UNL     1      12.548  44.600  17.193  1.00  0.00    -0.624 OA
BRANCH   8  11
HETATM   11  O   UNL     1      12.965  46.736  15.939  1.00  0.00    -0.211 OA
BRANCH  11  12
HETATM   12  C   UNL     1      13.334  47.774  16.802  1.00  0.00     0.299 C 
HETATM   13  O   UNL     1      12.806  47.848  17.824  1.00  0.00    -0.262 OA
BRANCH  12  14
HETATM   14  C   UNL     1      14.381  48.747  16.352  1.00  0.00     0.287 C 
BRANCH  14  15
HETATM   15  C   UNL     1      15.716  48.161  16.724  1.00  0.00     0.084 C 
BRANCH  15  16
HETATM   16  C   UNL     1      16.918  49.030  16.581  1.00  0.00    -0.028 A 
HETATM   17  C   UNL     1      17.787  49.547  17.514  1.00  0.00     0.096 A 
HETATM   18  N   UNL     1      18.777  50.214  16.930  1.00  0.00    -0.365 N 
HETATM   19  C   UNL     1      18.672  50.194  15.636  1.00  0.00     0.042 A 
ATOM     20  HN  UNL     1      19.527  50.684  17.437  1.00  0.00     0.165 HD
HETATM   21  C   UNL     1      19.368  50.725  14.577  1.00  0.00     0.030 A 
HETATM   22  C   UNL     1      17.482  49.430  15.311  1.00  0.00    -0.002 A 
HETATM   23  C   UNL     1      18.971  50.502  13.293  1.00  0.00     0.002 A 
HETATM   24  C   UNL     1      17.856  49.757  13.011  1.00  0.00     0.001 A 
HETATM   25  C   UNL     1      17.103  49.203  14.022  1.00  0.00     0.014 A 
ENDBRANCH  15  16
ENDBRANCH  14  15
BRANCH  14  26
HETATM   26  N   UNL     1      14.196  50.012  17.035  1.00  0.00    -0.066 N 
ATOM     27  HN3 UNL     1      14.100  49.894  18.043  1.00  0.00     0.275 HD
ATOM     28  HN2 UNL     1      15.044  50.578  17.033  1.00  0.00     0.275 HD
ATOM     29  HN1 UNL     1      13.402  50.508  16.629  1.00  0.00     0.275 HD
ENDBRANCH  14  26
ENDBRANCH  12  14
ENDBRANCH  11  12
ENDBRANCH   8  11
ENDBRANCH   7   8
ENDBRANCH   6   7
ENDBRANCH   1   6
BRANCH   5  30
HETATM   30  O   UNL     1      14.020  46.637  11.104  1.00  0.00    -0.390 OA
ATOM     31  HO  UNL     1      13.666  46.267  10.303  1.00  0.00     0.210 HD
ENDBRANCH   5  30
BRANCH   3  32
HETATM   32  N   UNL     1       9.868  45.048  11.552  1.00  0.00    -0.297 N 
HETATM   33  C   UNL     1       9.197  44.965  12.687  1.00  0.00     0.188 A 
HETATM   34  N   UNL     1       7.917  44.753  12.483  1.00  0.00    -0.346 N 
HETATM   35  C   UNL     1       7.736  44.701  11.195  1.00  0.00     0.122 A 
ATOM     36  HN  UNL     1       7.199  44.649  13.200  1.00  0.00     0.167 HD
HETATM   37  C   UNL     1       6.595  44.491  10.321  1.00  0.00     0.131 A 
HETATM   38  C   UNL     1       9.033  44.899  10.568  1.00  0.00     0.142 A 
HETATM   39  N   UNL     1       5.379  44.269  10.784  1.00  0.00    -0.383 N 
HETATM   40  N   UNL     1       6.830  44.493   9.031  1.00  0.00    -0.337 N 
ATOM     41  HN2 UNL     1       5.196  44.268  11.788  1.00  0.00     0.157 HD
ATOM     42  HN1 UNL     1       4.578  44.121  10.170  1.00  0.00     0.157 HD
HETATM   43  C   UNL     1       8.000  44.725   8.514  1.00  0.00     0.183 A 
ATOM     44  HN  UNL     1       6.053  44.301   8.399  1.00  0.00     0.168 HD
HETATM   45  N   UNL     1       9.074  44.877   9.230  1.00  0.00    -0.336 N 
ATOM     46  HN  UNL     1       9.974  44.981   8.760  1.00  0.00     0.168 HD
ENDBRANCH   3  32
BRANCH   4  47
HETATM   47  O   UNL     1      11.584  47.748  11.098  1.00  0.00    -0.388 OA
ATOM     48  HO  UNL     1      11.494  47.513  10.181  1.00  0.00     0.210 HD
ENDBRANCH   4  47
TORSDOF 12
ENDMDL
MODEL 2
REMARK VINA RESULT:   -12.563      1.261      1.924
REMARK INTER + INTRA:         -21.731
REMARK INTER:                 -19.884
REMARK INTRA:                  -1.847
REMARK UNBOUND:                -1.456
REMARK  12 active torsions:
REMARK  status: ('A' for Active; 'I' for Inactive)
REMARK    1  A    between atoms: P_1  and  O_4 
REMARK    2  A    between atoms: P_1  and  O_48 
REMARK    3  A    between atoms: O_4  and  C_5 
REMARK    4  A    between atoms: C_5  and  C_6 
REMARK    5  A    between atoms: C_8  and  N_9 
REMARK    6  A    between atoms: C_24  and  O_25 
REMARK    7  A    between atoms: C_27  and  O_28 
REMARK    8  A    between atoms: N_30  and  C_34 
REMARK    9  A    between atoms: C_34  and  C_35 
REMARK   10  A    between atoms: C_34  and  C_46 
REMARK   11  A    between atoms: C_35  and  C_36 
REMARK   12  A    between atoms: C_46  and  O_48 
ROOT
HETATM    1  C   UNL     1      11.876  45.618  14.373  1.00  0.00     0.180 C 
HETATM    2  O   UNL     1      11.208  44.851  13.402  1.00  0.00    -0.353 OA
HETATM    3  C   UNL     1      11.564  45.250  12.123  1.00  0.00     0.262 C 
HETATM    4  C   UNL     1      12.118  46.681  12.238  1.00  0.00     0.198 C 
HETATM    5  C   UNL     1      12.778  46.604  13.607  1.00  0.00     0.182 C 
ENDROOT
BRANCH   1   6
HETATM    6  C   UNL     1      10.881  46.316  15.266  1.00  0.00     0.216 C 
BRANCH   6   7
HETATM    7  O   UNL     1      11.365  47.470  15.839  1.00  0.00    -0.287 OA
BRANCH   7   8
HETATM    8  P   UNL     1      11.064  47.862  17.308  1.00  0.00     0.416 P 
HETATM    9  O   UNL     1      10.371  49.204  17.331  1.00  0.00    -0.624 OA
HETATM   10  O   UNL     1      10.479  46.670  18.027  1.00  0.00    -0.624 OA
BRANCH   8  11
HETATM   11  O   UNL     1      12.561  48.045  17.745  1.00  0.00    -0.211 OA
BRANCH  11  12
HETATM   12  C   UNL     1      13.718  47.563  17.123  1.00  0.00     0.299 C 
HETATM   13  O   UNL     1      13.920  46.429  17.149  1.00  0.00    -0.262 OA
BRANCH  12  14
HETATM   14  C   UNL     1      14.647  48.542  16.471  1.00  0.00     0.287 C 
BRANCH  14  15
HETATM   15  C   UNL     1      16.049  48.081  16.765  1.00  0.00     0.084 C 
BRANCH  15  16
HETATM   16  C   UNL     1      17.156  49.057  16.560  1.00  0.00    -0.028 A 
HETATM   17  C   UNL     1      18.012  49.667  17.448  1.00  0.00     0.096 A 
HETATM   18  N   UNL     1      18.908  50.415  16.815  1.00  0.00    -0.365 N 
HETATM   19  C   UNL     1      18.750  50.368  15.526  1.00  0.00     0.042 A 
ATOM     20  HN  UNL     1      19.631  50.961  17.283  1.00  0.00     0.165 HD
HETATM   21  C   UNL     1      19.346  50.946  14.432  1.00  0.00     0.030 A 
HETATM   22  C   UNL     1      17.625  49.490  15.262  1.00  0.00    -0.002 A 
HETATM   23  C   UNL     1      18.918  50.668  13.170  1.00  0.00     0.002 A 
HETATM   24  C   UNL     1      17.868  49.818  12.945  1.00  0.00     0.001 A 
HETATM   25  C   UNL     1      17.215  49.210  13.994  1.00  0.00     0.014 A 
ENDBRANCH  15  16
ENDBRANCH  14  15
BRANCH  14  26
HETATM   26  N   UNL     1      14.439  49.861  17.035  1.00  0.00    -0.066 N 
ATOM     27  HN3 UNL     1      14.497  50.595  16.330  1.00  0.00     0.275 HD
ATOM     28  HN2 UNL     1      13.471  50.010  17.321  1.00  0.00     0.275 HD
ATOM     29  HN1 UNL     1      15.094  50.013  17.803  1.00  0.00     0.275 HD
ENDBRANCH  14  26
ENDBRANCH  12  14
ENDBRANCH  11  12
ENDBRANCH   8  11
ENDBRANCH   7   8
ENDBRANCH   6   7
ENDBRANCH   1   6
BRANCH   5  30
HETATM   30  O   UNL     1      14.119  46.179  13.483  1.00  0.00    -0.390 OA
ATOM     31  HO  UNL     1      14.593  46.150  14.306  1.00  0.00     0.210 HD
ENDBRANCH   5  30
BRANCH   3  32
HETATM   32  N   UNL     1      10.450  45.089  11.178  1.00  0.00    -0.297 N 
HETATM   33  C   UNL     1      10.571  45.094   9.863  1.00  0.00     0.188 A 
HETATM   34  N   UNL     1       9.416  44.912   9.265  1.00  0.00    -0.346 N 
HETATM   35  C   UNL     1       8.518  44.776  10.198  1.00  0.00     0.122 A 
ATOM     36  HN  UNL     1       9.254  44.881   8.259  1.00  0.00     0.167 HD
HETATM   37  C   UNL     1       7.081  44.562  10.223  1.00  0.00     0.131 A 
HETATM   38  C   UNL     1       9.201  44.891  11.476  1.00  0.00     0.142 A 
HETATM   39  N   UNL     1       6.358  44.475   9.121  1.00  0.00    -0.383 N 
HETATM   40  N   UNL     1       6.515  44.493  11.403  1.00  0.00    -0.337 N 
ATOM     41  HN2 UNL     1       6.799  44.528   8.203  1.00  0.00     0.157 HD
ATOM     42  HN1 UNL     1       5.350  44.324   9.139  1.00  0.00     0.157 HD
HETATM   43  C   UNL     1       7.174  44.550  12.522  1.00  0.00     0.183 A 
ATOM     44  HN  UNL     1       5.501  44.388  11.446  1.00  0.00     0.168 HD
HETATM   45  N   UNL     1       8.452  44.786  12.580  1.00  0.00    -0.336 N 
ATOM     46  HN  UNL     1       8.895  44.893  13.492  1.00  0.00     0.168 HD
ENDBRANCH   3  32
BRANCH   4  47
HETATM   47  O   UNL     1      13.006  47.065  11.215  1.00  0.00    -0.388 OA
ATOM     48  HO  UNL     1      12.788  47.878  10.773  1.00  0.00     0.210 HD
ENDBRANCH   4  47
TORSDOF 12
ENDMDL
MODEL 3
REMARK VINA RESULT:   -11.977      1.274      2.011
REMARK INTER + INTRA:         -20.785
REMARK INTER:                 -19.036
REMARK INTRA:                  -1.750
REMARK UNBOUND:                -1.456
REMARK  12 active torsions:
REMARK  status: ('A' for Active; 'I' for Inactive)
REMARK    1  A    between atoms: P_1  and  O_4 
REMARK    2  A    between atoms: P_1  and  O_48 
REMARK    3  A    between atoms: O_4  and  C_5 
REMARK    4  A    between atoms: C_5  and  C_6 
REMARK    5  A    between atoms: C_8  and  N_9 
REMARK    6  A    between atoms: C_24  and  O_25 
REMARK    7  A    between atoms: C_27  and  O_28 
REMARK    8  A    between atoms: N_30  and  C_34 
REMARK    9  A    between atoms: C_34  and  C_35 
REMARK   10  A    between atoms: C_34  and  C_46 
REMARK   11  A    between atoms: C_35  and  C_36 
REMARK   12  A    between atoms: C_46  and  O_48 
ROOT
HETATM    1  C   UNL     1      13.074  44.968  12.911  1.00  0.00     0.180 C 
HETATM    2  O   UNL     1      11.935  44.375  12.341  1.00  0.00    -0.353 OA
HETATM    3  C   UNL     1      11.242  45.284  11.556  1.00  0.00     0.262 C 
HETATM    4  C   UNL     1      11.664  46.689  12.021  1.00  0.00     0.198 C 
HETATM    5  C   UNL     1      13.112  46.422  12.405  1.00  0.00     0.182 C 
ENDROOT
BRANCH   1   6
HETATM    6  C   UNL     1      13.013  44.879  14.416  1.00  0.00     0.216 C 
BRANCH   6   7
HETATM    7  O   UNL     1      11.834  44.352  14.893  1.00  0.00    -0.287 OA
BRANCH   7   8
HETATM    8  P   UNL     1      11.408  44.469  16.378  1.00  0.00     0.416 P 
HETATM    9  O   UNL     1      10.173  43.631  16.607  1.00  0.00    -0.624 OA
HETATM   10  O   UNL     1      12.628  44.314  17.255  1.00  0.00    -0.624 OA
BRANCH   8  11
HETATM   11  O   UNL     1      11.002  45.984  16.320  1.00  0.00    -0.211 OA
BRANCH  11  12
HETATM   12  C   UNL     1      11.252  46.992  17.257  1.00  0.00     0.299 C 
HETATM   13  O   UNL     1      10.750  46.913  18.291  1.00  0.00    -0.262 OA
BRANCH  12  14
HETATM   14  C   UNL     1      12.142  48.133  16.867  1.00  0.00     0.287 C 
BRANCH  14  15
HETATM   15  C   UNL     1      13.558  47.698  17.137  1.00  0.00     0.084 C 
BRANCH  15  16
HETATM   16  C   UNL     1      14.611  48.133  16.177  1.00  0.00    -0.028 A 
HETATM   17  C   UNL     1      14.659  48.109  14.803  1.00  0.00     0.096 A 
HETATM   18  N   UNL     1      15.773  48.676  14.352  1.00  0.00    -0.365 N 
HETATM   19  C   UNL     1      16.517  49.113  15.322  1.00  0.00     0.042 A 
ATOM     20  HN  UNL     1      16.014  48.757  13.364  1.00  0.00     0.165 HD
HETATM   21  C   UNL     1      17.740  49.728  15.434  1.00  0.00     0.030 A 
HETATM   22  C   UNL     1      15.830  48.809  16.564  1.00  0.00    -0.002 A 
HETATM   23  C   UNL     1      18.249  50.065  16.651  1.00  0.00     0.002 A 
HETATM   24  C   UNL     1      17.571  49.787  17.808  1.00  0.00     0.001 A 
HETATM   25  C   UNL     1      16.344  49.162  17.774  1.00  0.00     0.014 A 
ENDBRANCH  15  16
ENDBRANCH  14  15
BRANCH  14  26
HETATM   26  N   UNL     1      11.827  49.295  17.674  1.00  0.00    -0.066 N 
ATOM     27  HN3 UNL     1      12.543  49.482  18.375  1.00  0.00     0.275 HD
ATOM     28  HN2 UNL     1      11.909  50.164  17.146  1.00  0.00     0.275 HD
ATOM     29  HN1 UNL     1      10.902  49.183  18.090  1.00  0.00     0.275 HD
ENDBRANCH  14  26
ENDBRANCH  12  14
ENDBRANCH  11  12
ENDBRANCH   8  11
ENDBRANCH   7   8
ENDBRANCH   6   7
ENDBRANCH   1   6
BRANCH   5  30
HETATM   30  O   UNL     1      13.960  46.620  11.293  1.00  0.00    -0.390 OA
ATOM     31  HO  UNL     1      14.701  47.189  11.469  1.00  0.00     0.210 HD
ENDBRANCH   5  30
BRANCH   3  32
HETATM   32  N   UNL     1       9.795  45.028  11.584  1.00  0.00    -0.297 N 
HETATM   33  C   UNL     1       9.069  44.932  12.682  1.00  0.00     0.188 A 
HETATM   34  N   UNL     1       7.801  44.718  12.413  1.00  0.00    -0.346 N 
HETATM   35  C   UNL     1       7.686  44.678  11.116  1.00  0.00     0.122 A 
ATOM     36  HN  UNL     1       7.049  44.604  13.092  1.00  0.00     0.167 HD
HETATM   37  C   UNL     1       6.590  44.474  10.184  1.00  0.00     0.131 A 
HETATM   38  C   UNL     1       9.011  44.887  10.557  1.00  0.00     0.142 A 
HETATM   39  N   UNL     1       5.353  44.244  10.585  1.00  0.00    -0.383 N 
HETATM   40  N   UNL     1       6.889  44.490   8.909  1.00  0.00    -0.337 N 
ATOM     41  HN2 UNL     1       5.120  44.232  11.577  1.00  0.00     0.157 HD
ATOM     42  HN1 UNL     1       4.584  44.100   9.930  1.00  0.00     0.157 HD
HETATM   43  C   UNL     1       8.082  44.731   8.452  1.00  0.00     0.183 A 
ATOM     44  HN  UNL     1       6.145  44.303   8.237  1.00  0.00     0.168 HD
HETATM   45  N   UNL     1       9.119  44.879   9.223  1.00  0.00    -0.336 N 
ATOM     46  HN  UNL     1      10.041  44.990   8.800  1.00  0.00     0.168 HD
ENDBRANCH   3  32
BRANCH   4  47
HETATM   47  O   UNL     1      11.524  47.707  11.059  1.00  0.00    -0.388 OA
ATOM     48  HO  UNL     1      11.745  48.582  11.359  1.00  0.00     0.210 HD
ENDBRANCH   4  47
TORSDOF 12
ENDMDL
MODEL 4
REMARK VINA RESULT:   -11.521      4.020      5.686
REMARK INTER + INTRA:         -20.048
REMARK INTER:                 -18.523
REMARK INTRA:                  -1.525
REMARK UNBOUND:                -1.456
REMARK  12 active torsions:
REMARK  status: ('A' for Active; 'I' for Inactive)
REMARK    1  A    between atoms: P_1  and  O_4 
REMARK    2  A    between atoms: P_1  and  O_48 
REMARK    3  A    between atoms: O_4  and  C_5 
REMARK    4  A    between atoms: C_5  and  C_6 
REMARK    5  A    between atoms: C_8  and  N_9 
REMARK    6  A    between atoms: C_24  and  O_25 
REMARK    7  A    between atoms: C_27  and  O_28 
REMARK    8  A    between atoms: N_30  and  C_34 
REMARK    9  A    between atoms: C_34  and  C_35 
REMARK   10  A    between atoms: C_34  and  C_46 
REMARK   11  A    between atoms: C_35  and  C_36 
REMARK   12  A    between atoms: C_46  and  O_48 
ROOT
HETATM    1  C   UNL     1       9.033  45.721  15.260  1.00  0.00     0.180 C 
HETATM    2  O   UNL     1       9.431  44.419  15.607  1.00  0.00    -0.353 OA
HETATM    3  C   UNL     1       8.960  44.074  16.865  1.00  0.00     0.262 C 
HETATM    4  C   UNL     1       8.650  45.388  17.602  1.00  0.00     0.198 C 
HETATM    5  C   UNL     1       8.189  46.250  16.435  1.00  0.00     0.182 C 
ENDROOT
BRANCH   1   6
HETATM    6  C   UNL     1      10.240  46.581  14.979  1.00  0.00     0.216 C 
BRANCH   6   7
HETATM    7  O   UNL     1      11.308  45.884  14.461  1.00  0.00    -0.287 OA
BRANCH   7   8
HETATM    8  P   UNL     1      12.775  46.195  14.852  1.00  0.00     0.416 P 
HETATM    9  O   UNL     1      13.307  45.073  15.712  1.00  0.00    -0.624 OA
HETATM   10  O   UNL     1      13.525  46.661  13.627  1.00  0.00    -0.624 OA
BRANCH   8  11
HETATM   11  O   UNL     1      12.450  47.433  15.761  1.00  0.00    -0.211 OA
BRANCH  11  12
HETATM   12  C   UNL     1      13.233  48.008  16.768  1.00  0.00     0.299 C 
HETATM   13  O   UNL     1      12.990  47.748  17.864  1.00  0.00    -0.262 OA
BRANCH  12  14
HETATM   14  C   UNL     1      14.335  48.945  16.376  1.00  0.00     0.287 C 
BRANCH  14  15
HETATM   15  C   UNL     1      15.631  48.295  16.784  1.00  0.00     0.084 C 
BRANCH  15  16
HETATM   16  C   UNL     1      16.880  49.094  16.641  1.00  0.00    -0.028 A 
HETATM   17  C   UNL     1      17.782  49.552  17.573  1.00  0.00     0.096 A 
HETATM   18  N   UNL     1      18.806  50.165  16.989  1.00  0.00    -0.365 N 
HETATM   19  C   UNL     1      18.695  50.160  15.695  1.00  0.00     0.042 A 
ATOM     20  HN  UNL     1      19.585  50.587  17.495  1.00  0.00     0.165 HD
HETATM   21  C   UNL     1      19.416  50.656  14.636  1.00  0.00     0.030 A 
HETATM   22  C   UNL     1      17.461  49.468  15.371  1.00  0.00    -0.002 A 
HETATM   23  C   UNL     1      19.002  50.465  13.353  1.00  0.00     0.002 A 
HETATM   24  C   UNL     1      17.845  49.789  13.072  1.00  0.00     0.001 A 
HETATM   25  C   UNL     1      17.065  49.273  14.083  1.00  0.00     0.014 A 
ENDBRANCH  15  16
ENDBRANCH  14  15
BRANCH  14  26
HETATM   26  N   UNL     1      14.178  50.203  17.079  1.00  0.00    -0.066 N 
ATOM     27  HN3 UNL     1      14.845  50.906  16.762  1.00  0.00     0.275 HD
ATOM     28  HN2 UNL     1      13.320  50.686  16.814  1.00  0.00     0.275 HD
ATOM     29  HN1 UNL     1      14.235  50.043  18.085  1.00  0.00     0.275 HD
ENDBRANCH  14  26
ENDBRANCH  12  14
ENDBRANCH  11  12
ENDBRANCH   8  11
ENDBRANCH   7   8
ENDBRANCH   6   7
ENDBRANCH   1   6
BRANCH   5  30
HETATM   30  O   UNL     1       6.796  46.118  16.247  1.00  0.00    -0.390 OA
ATOM     31  HO  UNL     1       6.427  46.748  15.640  1.00  0.00     0.210 HD
ENDBRANCH   5  30
BRANCH   3  32
HETATM   32  N   UNL     1       9.890  43.174  17.561  1.00  0.00    -0.297 N 
HETATM   33  C   UNL     1      10.946  43.568  18.249  1.00  0.00     0.188 A 
HETATM   34  N   UNL     1      11.589  42.554  18.781  1.00  0.00    -0.346 N 
HETATM   35  C   UNL     1      10.945  41.473  18.447  1.00  0.00     0.122 A 
ATOM     36  HN  UNL     1      12.434  42.605  19.350  1.00  0.00     0.167 HD
HETATM   37  C   UNL     1      11.120  40.052  18.691  1.00  0.00     0.131 A 
HETATM   38  C   UNL     1       9.809  41.879  17.636  1.00  0.00     0.142 A 
HETATM   39  N   UNL     1      12.134  39.572  19.387  1.00  0.00    -0.383 N 
HETATM   40  N   UNL     1      10.237  39.247  18.152  1.00  0.00    -0.337 N 
ATOM     41  HN2 UNL     1      12.821  40.198  19.807  1.00  0.00     0.157 HD
ATOM     42  HN1 UNL     1      12.257  38.574  19.558  1.00  0.00     0.157 HD
HETATM   43  C   UNL     1       9.207  39.659  17.475  1.00  0.00     0.183 A 
ATOM     44  HN  UNL     1      10.365  38.242  18.270  1.00  0.00     0.168 HD
HETATM   45  N   UNL     1       9.009  40.910  17.178  1.00  0.00    -0.336 N 
ATOM     46  HN  UNL     1       8.221  41.158  16.579  1.00  0.00     0.168 HD
ENDBRANCH   3  32
BRANCH   4  47
HETATM   47  O   UNL     1       7.693  45.289  18.630  1.00  0.00    -0.388 OA
ATOM     48  HO  UNL     1       7.671  46.021  19.236  1.00  0.00     0.210 HD
ENDBRANCH   4  47
TORSDOF 12
ENDMDL
MODEL 5
REMARK VINA RESULT:   -11.469      3.054      4.690
REMARK INTER + INTRA:         -19.965
REMARK INTER:                 -17.871
REMARK INTRA:                  -2.094
REMARK UNBOUND:                -1.456
REMARK  12 active torsions:
REMARK  status: ('A' for Active; 'I' for Inactive)
REMARK    1  A    between atoms: P_1  and  O_4 
REMARK    2  A    between atoms: P_1  and  O_48 
REMARK    3  A    between atoms: O_4  and  C_5 
REMARK    4  A    between atoms: C_5  and  C_6 
REMARK    5  A    between atoms: C_8  and  N_9 
REMARK    6  A    between atoms: C_24  and  O_25 
REMARK    7  A    between atoms: C_27  and  O_28 
REMARK    8  A    between atoms: N_30  and  C_34 
REMARK    9  A    between atoms: C_34  and  C_35 
REMARK   10  A    between atoms: C_34  and  C_46 
REMARK   11  A    between atoms: C_35  and  C_36 
REMARK   12  A    between atoms: C_46  and  O_48 
ROOT
HETATM    1  C   UNL     1       8.633  45.633  17.023  1.00  0.00     0.180 C 
HETATM    2  O   UNL     1       9.449  45.856  15.900  1.00  0.00    -0.353 OA
HETATM    3  C   UNL     1      10.231  44.745  15.626  1.00  0.00     0.262 C 
HETATM    4  C   UNL     1      10.305  43.919  16.922  1.00  0.00     0.198 C 
HETATM    5  C   UNL     1       8.925  44.197  17.498  1.00  0.00     0.182 C 
ENDROOT
BRANCH   1   6
HETATM    6  C   UNL     1       8.914  46.664  18.088  1.00  0.00     0.216 C 
BRANCH   6   7
HETATM    7  O   UNL     1      10.202  47.152  18.061  1.00  0.00    -0.287 OA
BRANCH   7   8
HETATM    8  P   UNL     1      10.537  48.594  17.607  1.00  0.00     0.416 P 
HETATM    9  O   UNL     1       9.441  49.095  16.697  1.00  0.00    -0.624 OA
HETATM   10  O   UNL     1      10.984  49.399  18.804  1.00  0.00    -0.624 OA
BRANCH   8  11
HETATM   11  O   UNL     1      11.792  48.213  16.742  1.00  0.00    -0.211 OA
BRANCH  11  12
HETATM   12  C   UNL     1      13.122  48.070  17.150  1.00  0.00     0.299 C 
HETATM   13  O   UNL     1      13.357  47.322  17.994  1.00  0.00    -0.262 OA
BRANCH  12  14
HETATM   14  C   UNL     1      14.173  48.906  16.485  1.00  0.00     0.287 C 
BRANCH  14  15
HETATM   15  C   UNL     1      15.493  48.221  16.718  1.00  0.00     0.084 C 
BRANCH  15  16
HETATM   16  C   UNL     1      16.729  49.049  16.625  1.00  0.00    -0.028 A 
HETATM   17  C   UNL     1      17.584  49.524  17.592  1.00  0.00     0.096 A 
HETATM   18  N   UNL     1      18.615  50.162  17.050  1.00  0.00    -0.365 N 
HETATM   19  C   UNL     1      18.553  50.161  15.753  1.00  0.00     0.042 A 
ATOM     20  HN  UNL     1      19.364  50.600  17.586  1.00  0.00     0.165 HD
HETATM   21  C   UNL     1      19.301  50.679  14.723  1.00  0.00     0.030 A 
HETATM   22  C   UNL     1      17.348  49.443  15.379  1.00  0.00    -0.002 A 
HETATM   23  C   UNL     1      18.939  50.485  13.425  1.00  0.00     0.002 A 
HETATM   24  C   UNL     1      17.809  49.784  13.097  1.00  0.00     0.001 A 
HETATM   25  C   UNL     1      17.004  49.245  14.076  1.00  0.00     0.014 A 
ENDBRANCH  15  16
ENDBRANCH  14  15
BRANCH  14  26
HETATM   26  N   UNL     1      14.196  50.226  17.083  1.00  0.00    -0.066 N 
ATOM     27  HN3 UNL     1      13.344  50.426  17.606  1.00  0.00     0.275 HD
ATOM     28  HN2 UNL     1      14.859  50.287  17.856  1.00  0.00     0.275 HD
ATOM     29  HN1 UNL     1      14.379  50.926  16.363  1.00  0.00     0.275 HD
ENDBRANCH  14  26
ENDBRANCH  12  14
ENDBRANCH  11  12
ENDBRANCH   8  11
ENDBRANCH   7   8
ENDBRANCH   6   7
ENDBRANCH   1   6
BRANCH   5  30
HETATM   30  O   UNL     1       7.996  43.240  17.033  1.00  0.00    -0.390 OA
ATOM     31  HO  UNL     1       8.221  42.861  16.191  1.00  0.00     0.210 HD
ENDBRANCH   5  30
BRANCH   3  32
HETATM   32  N   UNL     1      11.530  45.127  15.056  1.00  0.00    -0.297 N 
HETATM   33  C   UNL     1      12.699  44.907  15.632  1.00  0.00     0.188 A 
HETATM   34  N   UNL     1      13.696  45.336  14.893  1.00  0.00    -0.346 N 
HETATM   35  C   UNL     1      13.182  45.842  13.809  1.00  0.00     0.122 A 
ATOM     36  HN  UNL     1      14.688  45.283  15.125  1.00  0.00     0.167 HD
HETATM   37  C   UNL     1      13.711  46.477  12.615  1.00  0.00     0.131 A 
HETATM   38  C   UNL     1      11.738  45.704  13.910  1.00  0.00     0.142 A 
HETATM   39  N   UNL     1      15.004  46.682  12.435  1.00  0.00    -0.383 N 
HETATM   40  N   UNL     1      12.839  46.880  11.724  1.00  0.00    -0.337 N 
ATOM     41  HN2 UNL     1      15.682  46.368  13.128  1.00  0.00     0.157 HD
ATOM     42  HN1 UNL     1      15.375  47.128  11.596  1.00  0.00     0.157 HD
HETATM   43  C   UNL     1      11.558  46.689  11.833  1.00  0.00     0.183 A 
ATOM     44  HN  UNL     1      13.184  47.370  10.898  1.00  0.00     0.168 HD
HETATM   45  N   UNL     1      11.007  46.170  12.891  1.00  0.00    -0.336 N 
ATOM     46  HN  UNL     1       9.990  46.117  12.945  1.00  0.00     0.168 HD
ENDBRANCH   3  32
BRANCH   4  47
HETATM   47  O   UNL     1      10.566  42.547  16.745  1.00  0.00    -0.388 OA
ATOM     48  HO  UNL     1      10.850  42.084  17.525  1.00  0.00     0.210 HD
ENDBRANCH   4  47
TORSDOF 12
ENDMDL
MODEL 6
REMARK VINA RESULT:   -11.444      3.854      6.101
REMARK INTER + INTRA:         -19.924
REMARK INTER:                 -18.127
REMARK INTRA:                  -1.797
REMARK UNBOUND:                -1.456
REMARK  12 active torsions:
REMARK  status: ('A' for Active; 'I' for Inactive)
REMARK    1  A    between atoms: P_1  and  O_4 
REMARK    2  A    between atoms: P_1  and  O_48 
REMARK    3  A    between atoms: O_4  and  C_5 
REMARK    4  A    between atoms: C_5  and  C_6 
REMARK    5  A    between atoms: C_8  and  N_9 
REMARK    6  A    between atoms: C_24  and  O_25 
REMARK    7  A    between atoms: C_27  and  O_28 
REMARK    8  A    between atoms: N_30  and  C_34 
REMARK    9  A    between atoms: C_34  and  C_35 
REMARK   10  A    between atoms: C_34  and  C_46 
REMARK   11  A    between atoms: C_35  and  C_36 
REMARK   12  A    between atoms: C_46  and  O_48 
ROOT
HETATM    1  C   UNL     1      13.177  44.910  12.766  1.00  0.00     0.180 C 
HETATM    2  O   UNL     1      12.016  44.333  12.223  1.00  0.00    -0.353 OA
HETATM    3  C   UNL     1      11.289  45.266  11.499  1.00  0.00     0.262 C 
HETATM    4  C   UNL     1      11.727  46.656  11.994  1.00  0.00     0.198 C 
HETATM    5  C   UNL     1      13.190  46.381  12.309  1.00  0.00     0.182 C 
ENDROOT
BRANCH   1   6
HETATM    6  C   UNL     1      13.178  44.770  14.268  1.00  0.00     0.216 C 
BRANCH   6   7
HETATM    7  O   UNL     1      12.380  45.689  14.911  1.00  0.00    -0.287 OA
BRANCH   7   8
HETATM    8  P   UNL     1      12.945  46.730  15.910  1.00  0.00     0.416 P 
HETATM    9  O   UNL     1      13.351  46.027  17.183  1.00  0.00    -0.624 OA
HETATM   10  O   UNL     1      13.906  47.641  15.183  1.00  0.00    -0.624 OA
BRANCH   8  11
HETATM   11  O   UNL     1      11.592  47.490  16.148  1.00  0.00    -0.211 OA
BRANCH  11  12
HETATM   12  C   UNL     1      10.992  47.846  17.360  1.00  0.00     0.299 C 
HETATM   13  O   UNL     1      11.410  48.755  17.930  1.00  0.00    -0.262 OA
BRANCH  12  14
HETATM   14  C   UNL     1       9.849  47.020  17.868  1.00  0.00     0.287 C 
BRANCH  14  15
HETATM   15  C   UNL     1       9.283  46.279  16.686  1.00  0.00     0.084 C 
BRANCH  15  16
HETATM   16  C   UNL     1       8.735  44.913  16.923  1.00  0.00    -0.028 A 
HETATM   17  C   UNL     1       7.455  44.417  16.845  1.00  0.00     0.096 A 
HETATM   18  N   UNL     1       7.433  43.107  17.065  1.00  0.00    -0.365 N 
HETATM   19  C   UNL     1       8.624  42.636  17.283  1.00  0.00     0.042 A 
ATOM     20  HN  UNL     1       6.585  42.540  17.062  1.00  0.00     0.165 HD
HETATM   21  C   UNL     1       9.165  41.411  17.586  1.00  0.00     0.030 A 
HETATM   22  C   UNL     1       9.550  43.751  17.201  1.00  0.00    -0.002 A 
HETATM   23  C   UNL     1      10.508  41.259  17.758  1.00  0.00     0.002 A 
HETATM   24  C   UNL     1      11.364  42.323  17.653  1.00  0.00     0.001 A 
HETATM   25  C   UNL     1      10.892  43.583  17.362  1.00  0.00     0.014 A 
ENDBRANCH  15  16
ENDBRANCH  14  15
BRANCH  14  26
HETATM   26  N   UNL     1       8.834  47.886  18.432  1.00  0.00    -0.066 N 
ATOM     27  HN3 UNL     1       8.516  47.563  19.345  1.00  0.00     0.275 HD
ATOM     28  HN2 UNL     1       9.214  48.788  18.720  1.00  0.00     0.275 HD
ATOM     29  HN1 UNL     1       8.063  47.988  17.771  1.00  0.00     0.275 HD
ENDBRANCH  14  26
ENDBRANCH  12  14
ENDBRANCH  11  12
ENDBRANCH   8  11
ENDBRANCH   7   8
ENDBRANCH   6   7
ENDBRANCH   1   6
BRANCH   5  30
HETATM   30  O   UNL     1      13.990  46.620  11.170  1.00  0.00    -0.390 OA
ATOM     31  HO  UNL     1      14.700  47.235  11.319  1.00  0.00     0.210 HD
ENDBRANCH   5  30
BRANCH   3  32
HETATM   32  N   UNL     1       9.845  45.004  11.578  1.00  0.00    -0.297 N 
HETATM   33  C   UNL     1       9.161  44.891  12.702  1.00  0.00     0.188 A 
HETATM   34  N   UNL     1       7.885  44.675  12.477  1.00  0.00    -0.346 N 
HETATM   35  C   UNL     1       7.721  44.652  11.186  1.00  0.00     0.122 A 
ATOM     36  HN  UNL     1       7.159  44.549  13.183  1.00  0.00     0.167 HD
HETATM   37  C   UNL     1       6.592  44.454  10.293  1.00  0.00     0.131 A 
HETATM   38  C   UNL     1       9.023  44.873  10.580  1.00  0.00     0.142 A 
HETATM   39  N   UNL     1       5.371  44.215  10.737  1.00  0.00    -0.383 N 
HETATM   40  N   UNL     1       6.843  44.488   9.007  1.00  0.00    -0.337 N 
ATOM     41  HN2 UNL     1       5.176  44.189  11.737  1.00  0.00     0.157 HD
ATOM     42  HN1 UNL     1       4.579  44.076  10.109  1.00  0.00     0.157 HD
HETATM   43  C   UNL     1       8.017  44.740   8.510  1.00  0.00     0.183 A 
ATOM     44  HN  UNL     1       6.075  44.306   8.361  1.00  0.00     0.168 HD
HETATM   45  N   UNL     1       9.081  44.882   9.243  1.00  0.00    -0.336 N 
ATOM     46  HN  UNL     1       9.986  45.002   8.787  1.00  0.00     0.168 HD
ENDBRANCH   3  32
BRANCH   4  47
HETATM   47  O   UNL     1      11.545  47.705  11.075  1.00  0.00    -0.388 OA
ATOM     48  HO  UNL     1      10.650  47.840  10.785  1.00  0.00     0.210 HD
ENDBRANCH   4  47
TORSDOF 12
ENDMDL
MODEL 7
REMARK VINA RESULT:   -11.036      4.146      6.710
REMARK INTER + INTRA:         -19.265
REMARK INTER:                 -17.064
REMARK INTRA:                  -2.201
REMARK UNBOUND:                -1.456
REMARK  12 active torsions:
REMARK  status: ('A' for Active; 'I' for Inactive)
REMARK    1  A    between atoms: P_1  and  O_4 
REMARK    2  A    between atoms: P_1  and  O_48 
REMARK    3  A    between atoms: O_4  and  C_5 
REMARK    4  A    between atoms: C_5  and  C_6 
REMARK    5  A    between atoms: C_8  and  N_9 
REMARK    6  A    between atoms: C_24  and  O_25 
REMARK    7  A    between atoms: C_27  and  O_28 
REMARK    8  A    between atoms: N_30  and  C_34 
REMARK    9  A    between atoms: C_34  and  C_35 
REMARK   10  A    between atoms: C_34  and  C_46 
REMARK   11  A    between atoms: C_35  and  C_36 
REMARK   12  A    between atoms: C_46  and  O_48 
ROOT
HETATM    1  C   UNL     1      13.193  44.903  12.756  1.00  0.00     0.180 C 
HETATM    2  O   UNL     1      12.026  44.341  12.210  1.00  0.00    -0.353 OA
HETATM    3  C   UNL     1      11.289  45.295  11.525  1.00  0.00     0.262 C 
HETATM    4  C   UNL     1      11.731  46.669  12.056  1.00  0.00     0.198 C 
HETATM    5  C   UNL     1      13.199  46.388  12.344  1.00  0.00     0.182 C 
ENDROOT
BRANCH   1   6
HETATM    6  C   UNL     1      13.214  44.718  14.253  1.00  0.00     0.216 C 
BRANCH   6   7
HETATM    7  O   UNL     1      11.961  44.659  14.821  1.00  0.00    -0.287 OA
BRANCH   7   8
HETATM    8  P   UNL     1      11.726  44.838  16.343  1.00  0.00     0.416 P 
HETATM    9  O   UNL     1      13.057  45.032  17.030  1.00  0.00    -0.624 OA
HETATM   10  O   UNL     1      10.590  45.809  16.556  1.00  0.00    -0.624 OA
BRANCH   8  11
HETATM   11  O   UNL     1      11.215  43.377  16.609  1.00  0.00    -0.211 OA
BRANCH  11  12
HETATM   12  C   UNL     1      10.515  42.885  17.715  1.00  0.00     0.299 C 
HETATM   13  O   UNL     1      10.876  43.183  18.767  1.00  0.00    -0.262 OA
BRANCH  12  14
HETATM   14  C   UNL     1       9.343  41.980  17.481  1.00  0.00     0.287 C 
BRANCH  14  15
HETATM   15  C   UNL     1       8.126  42.690  18.012  1.00  0.00     0.084 C 
BRANCH  15  16
HETATM   16  C   UNL     1       7.809  44.034  17.453  1.00  0.00    -0.028 A 
HETATM   17  C   UNL     1       7.480  44.438  16.180  1.00  0.00     0.096 A 
HETATM   18  N   UNL     1       7.198  45.735  16.146  1.00  0.00    -0.365 N 
HETATM   19  C   UNL     1       7.295  46.280  17.322  1.00  0.00     0.042 A 
ATOM     20  HN  UNL     1       6.937  46.243  15.301  1.00  0.00     0.165 HD
HETATM   21  C   UNL     1       7.153  47.542  17.845  1.00  0.00     0.030 A 
HETATM   22  C   UNL     1       7.684  45.234  18.250  1.00  0.00    -0.002 A 
HETATM   23  C   UNL     1       7.334  47.775  19.174  1.00  0.00     0.002 A 
HETATM   24  C   UNL     1       7.679  46.767  20.034  1.00  0.00     0.001 A 
HETATM   25  C   UNL     1       7.848  45.478  19.579  1.00  0.00     0.014 A 
ENDBRANCH  15  16
ENDBRANCH  14  15
BRANCH  14  26
HETATM   26  N   UNL     1       9.536  40.737  18.201  1.00  0.00    -0.066 N 
ATOM     27  HN3 UNL     1       8.704  40.462  18.723  1.00  0.00     0.275 HD
ATOM     28  HN2 UNL     1       9.587  39.934  17.574  1.00  0.00     0.275 HD
ATOM     29  HN1 UNL     1      10.358  40.811  18.799  1.00  0.00     0.275 HD
ENDBRANCH  14  26
ENDBRANCH  12  14
ENDBRANCH  11  12
ENDBRANCH   8  11
ENDBRANCH   7   8
ENDBRANCH   6   7
ENDBRANCH   1   6
BRANCH   5  30
HETATM   30  O   UNL     1      13.984  46.663  11.203  1.00  0.00    -0.390 OA
ATOM     31  HO  UNL     1      14.920  46.626  11.360  1.00  0.00     0.210 HD
ENDBRANCH   5  30
BRANCH   3  32
HETATM   32  N   UNL     1       9.847  45.028  11.614  1.00  0.00    -0.297 N 
HETATM   33  C   UNL     1       9.168  44.923  12.742  1.00  0.00     0.188 A 
HETATM   34  N   UNL     1       7.892  44.700  12.527  1.00  0.00    -0.346 N 
HETATM   35  C   UNL     1       7.721  44.663  11.237  1.00  0.00     0.122 A 
ATOM     36  HN  UNL     1       7.171  44.579  13.237  1.00  0.00     0.167 HD
HETATM   37  C   UNL     1       6.589  44.452  10.352  1.00  0.00     0.131 A 
HETATM   38  C   UNL     1       9.020  44.883  10.622  1.00  0.00     0.142 A 
HETATM   39  N   UNL     1       5.371  44.212  10.804  1.00  0.00    -0.383 N 
HETATM   40  N   UNL     1       6.832  44.474   9.065  1.00  0.00    -0.337 N 
ATOM     41  HN2 UNL     1       5.181  44.196  11.806  1.00  0.00     0.157 HD
ATOM     42  HN1 UNL     1       4.576  44.064  10.183  1.00  0.00     0.157 HD
HETATM   43  C   UNL     1       8.003  44.725   8.558  1.00  0.00     0.183 A 
ATOM     44  HN  UNL     1       6.062  44.282   8.425  1.00  0.00     0.168 HD
HETATM   45  N   UNL     1       9.071  44.878   9.284  1.00  0.00    -0.336 N 
ATOM     46  HN  UNL     1       9.972  44.998   8.822  1.00  0.00     0.168 HD
ENDBRANCH   3  32
BRANCH   4  47
HETATM   47  O   UNL     1      11.536  47.746  11.171  1.00  0.00    -0.388 OA
ATOM     48  HO  UNL     1      11.417  48.594  11.584  1.00  0.00     0.210 HD
ENDBRANCH   4  47
TORSDOF 12
ENDMDL
MODEL 8
REMARK VINA RESULT:   -11.033      4.547      6.109
REMARK INTER + INTRA:         -19.262
REMARK INTER:                 -18.001
REMARK INTRA:                  -1.260
REMARK UNBOUND:                -1.456
REMARK  12 active torsions:
REMARK  status: ('A' for Active; 'I' for Inactive)
REMARK    1  A    between atoms: P_1  and  O_4 
REMARK    2  A    between atoms: P_1  and  O_48 
REMARK    3  A    between atoms: O_4  and  C_5 
REMARK    4  A    between atoms: C_5  and  C_6 
REMARK    5  A    between atoms: C_8  and  N_9 
REMARK    6  A    between atoms: C_24  and  O_25 
REMARK    7  A    between atoms: C_27  and  O_28 
REMARK    8  A    between atoms: N_30  and  C_34 
REMARK    9  A    between atoms: C_34  and  C_35 
REMARK   10  A    between atoms: C_34  and  C_46 
REMARK   11  A    between atoms: C_35  and  C_36 
REMARK   12  A    between atoms: C_46  and  O_48 
ROOT
HETATM    1  C   UNL     1       8.285  46.148  16.695  1.00  0.00     0.180 C 
HETATM    2  O   UNL     1       9.360  45.244  16.677  1.00  0.00    -0.353 OA
HETATM    3  C   UNL     1       8.910  43.936  16.771  1.00  0.00     0.262 C 
HETATM    4  C   UNL     1       7.499  43.990  17.380  1.00  0.00     0.198 C 
HETATM    5  C   UNL     1       7.001  45.302  16.790  1.00  0.00     0.182 C 
ENDROOT
BRANCH   1   6
HETATM    6  C   UNL     1       8.430  47.113  17.846  1.00  0.00     0.216 C 
BRANCH   6   7
HETATM    7  O   UNL     1       9.736  47.453  18.122  1.00  0.00    -0.287 OA
BRANCH   7   8
HETATM    8  P   UNL     1      10.366  48.789  17.653  1.00  0.00     0.416 P 
HETATM    9  O   UNL     1       9.386  49.513  16.760  1.00  0.00    -0.624 OA
HETATM   10  O   UNL     1      10.998  49.479  18.837  1.00  0.00    -0.624 OA
BRANCH   8  11
HETATM   11  O   UNL     1      11.492  48.143  16.768  1.00  0.00    -0.211 OA
BRANCH  11  12
HETATM   12  C   UNL     1      12.528  47.290  17.160  1.00  0.00     0.299 C 
HETATM   13  O   UNL     1      12.290  46.451  17.912  1.00  0.00    -0.262 OA
BRANCH  12  14
HETATM   14  C   UNL     1      13.899  47.517  16.598  1.00  0.00     0.287 C 
BRANCH  14  15
HETATM   15  C   UNL     1      14.182  48.991  16.711  1.00  0.00     0.084 C 
BRANCH  15  16
HETATM   16  C   UNL     1      15.597  49.411  16.916  1.00  0.00    -0.028 A 
HETATM   17  C   UNL     1      16.309  49.693  18.059  1.00  0.00     0.096 A 
HETATM   18  N   UNL     1      17.581  49.955  17.780  1.00  0.00    -0.365 N 
HETATM   19  C   UNL     1      17.822  49.866  16.507  1.00  0.00     0.042 A 
ATOM     20  HN  UNL     1      18.282  50.198  18.479  1.00  0.00     0.165 HD
HETATM   21  C   UNL     1      18.908  50.055  15.687  1.00  0.00     0.030 A 
HETATM   22  C   UNL     1      16.576  49.503  15.856  1.00  0.00    -0.002 A 
HETATM   23  C   UNL     1      18.814  49.869  14.342  1.00  0.00     0.002 A 
HETATM   24  C   UNL     1      17.633  49.505  13.754  1.00  0.00     0.001 A 
HETATM   25  C   UNL     1      16.499  49.307  14.510  1.00  0.00     0.014 A 
ENDBRANCH  15  16
ENDBRANCH  14  15
BRANCH  14  26
HETATM   26  N   UNL     1      13.927  47.120  15.205  1.00  0.00    -0.066 N 
ATOM     27  HN3 UNL     1      14.770  46.595  14.971  1.00  0.00     0.275 HD
ATOM     28  HN2 UNL     1      13.241  46.395  14.997  1.00  0.00     0.275 HD
ATOM     29  HN1 UNL     1      13.810  47.942  14.612  1.00  0.00     0.275 HD
ENDBRANCH  14  26
ENDBRANCH  12  14
ENDBRANCH  11  12
ENDBRANCH   8  11
ENDBRANCH   7   8
ENDBRANCH   6   7
ENDBRANCH   1   6
BRANCH   5  30
HETATM   30  O   UNL     1       6.371  45.073  15.547  1.00  0.00    -0.390 OA
ATOM     31  HO  UNL     1       6.635  45.678  14.863  1.00  0.00     0.210 HD
ENDBRANCH   5  30
BRANCH   3  32
HETATM   32  N   UNL     1       9.867  43.087  17.494  1.00  0.00    -0.297 N 
HETATM   33  C   UNL     1      10.909  43.534  18.170  1.00  0.00     0.188 A 
HETATM   34  N   UNL     1      11.584  42.558  18.733  1.00  0.00    -0.346 N 
HETATM   35  C   UNL     1      10.976  41.447  18.429  1.00  0.00     0.122 A 
ATOM     36  HN  UNL     1      12.426  42.652  19.300  1.00  0.00     0.167 HD
HETATM   37  C   UNL     1      11.196  40.040  18.713  1.00  0.00     0.131 A 
HETATM   38  C   UNL     1       9.829  41.793  17.605  1.00  0.00     0.142 A 
HETATM   39  N   UNL     1      12.224  39.613  19.425  1.00  0.00    -0.383 N 
HETATM   40  N   UNL     1      10.341  39.192  18.197  1.00  0.00    -0.337 N 
ATOM     41  HN2 UNL     1      12.890  40.273  19.827  1.00  0.00     0.157 HD
ATOM     42  HN1 UNL     1      12.379  38.625  19.624  1.00  0.00     0.157 HD
HETATM   43  C   UNL     1       9.299  39.550  17.507  1.00  0.00     0.183 A 
ATOM     44  HN  UNL     1      10.501  38.195  18.345  1.00  0.00     0.168 HD
HETATM   45  N   UNL     1       9.061  40.785  17.174  1.00  0.00    -0.336 N 
ATOM     46  HN  UNL     1       8.267  40.991  16.568  1.00  0.00     0.168 HD
ENDBRANCH   3  32
BRANCH   4  47
HETATM   47  O   UNL     1       6.670  42.895  17.075  1.00  0.00    -0.388 OA
ATOM     48  HO  UNL     1       6.038  43.046  16.380  1.00  0.00     0.210 HD
ENDBRANCH   4  47
TORSDOF 12
ENDMDL
MODEL 9
REMARK VINA RESULT:   -11.018      2.393      4.079
REMARK INTER + INTRA:         -19.237
REMARK INTER:                 -17.888
REMARK INTRA:                  -1.349
REMARK UNBOUND:                -1.456
REMARK  12 active torsions:
REMARK  status: ('A' for Active; 'I' for Inactive)
REMARK    1  A    between atoms: P_1  and  O_4 
REMARK    2  A    between atoms: P_1  and  O_48 
REMARK    3  A    between atoms: O_4  and  C_5 
REMARK    4  A    between atoms: C_5  and  C_6 
REMARK    5  A    between atoms: C_8  and  N_9 
REMARK    6  A    between atoms: C_24  and  O_25 
REMARK    7  A    between atoms: C_27  and  O_28 
REMARK    8  A    between atoms: N_30  and  C_34 
REMARK    9  A    between atoms: C_34  and  C_35 
REMARK   10  A    between atoms: C_34  and  C_46 
REMARK   11  A    between atoms: C_35  and  C_36 
REMARK   12  A    between atoms: C_46  and  O_48 
ROOT
HETATM    1  C   UNL     1       8.445  45.514  18.183  1.00  0.00     0.180 C 
HETATM    2  O   UNL     1       8.405  45.902  16.832  1.00  0.00    -0.353 OA
HETATM    3  C   UNL     1       8.564  44.807  15.997  1.00  0.00     0.262 C 
HETATM    4  C   UNL     1       9.239  43.703  16.828  1.00  0.00     0.198 C 
HETATM    5  C   UNL     1       8.630  43.985  18.194  1.00  0.00     0.182 C 
ENDROOT
BRANCH   1   6
HETATM    6  C   UNL     1       9.555  46.238  18.904  1.00  0.00     0.216 C 
BRANCH   6   7
HETATM    7  O   UNL     1      10.587  46.630  18.080  1.00  0.00    -0.287 OA
BRANCH   7   8
HETATM    8  P   UNL     1      10.888  48.119  17.772  1.00  0.00     0.416 P 
HETATM    9  O   UNL     1      10.496  48.418  16.344  1.00  0.00    -0.624 OA
HETATM   10  O   UNL     1      10.384  48.970  18.913  1.00  0.00    -0.624 OA
BRANCH   8  11
HETATM   11  O   UNL     1      12.450  47.999  17.866  1.00  0.00    -0.211 OA
BRANCH  11  12
HETATM   12  C   UNL     1      13.356  47.596  16.879  1.00  0.00     0.299 C 
HETATM   13  O   UNL     1      13.296  46.512  16.494  1.00  0.00    -0.262 OA
BRANCH  12  14
HETATM   14  C   UNL     1      14.370  48.583  16.386  1.00  0.00     0.287 C 
BRANCH  14  15
HETATM   15  C   UNL     1      15.724  48.059  16.784  1.00  0.00     0.084 C 
BRANCH  15  16
HETATM   16  C   UNL     1      16.889  48.979  16.651  1.00  0.00    -0.028 A 
HETATM   17  C   UNL     1      17.731  49.527  17.591  1.00  0.00     0.096 A 
HETATM   18  N   UNL     1      18.694  50.239  17.015  1.00  0.00    -0.365 N 
HETATM   19  C   UNL     1      18.596  50.223  15.720  1.00  0.00     0.042 A 
ATOM     20  HN  UNL     1      19.421  50.737  17.528  1.00  0.00     0.165 HD
HETATM   21  C   UNL     1      19.272  50.789  14.667  1.00  0.00     0.030 A 
HETATM   22  C   UNL     1      17.440  49.410  15.386  1.00  0.00    -0.002 A 
HETATM   23  C   UNL     1      18.890  50.557  13.381  1.00  0.00     0.002 A 
HETATM   24  C   UNL     1      17.810  49.768  13.090  1.00  0.00     0.001 A 
HETATM   25  C   UNL     1      17.077  49.176  14.094  1.00  0.00     0.014 A 
ENDBRANCH  15  16
ENDBRANCH  14  15
BRANCH  14  26
HETATM   26  N   UNL     1      14.142  49.870  17.011  1.00  0.00    -0.066 N 
ATOM     27  HN3 UNL     1      15.006  50.293  17.347  1.00  0.00     0.275 HD
ATOM     28  HN2 UNL     1      13.883  50.587  16.333  1.00  0.00     0.275 HD
ATOM     29  HN1 UNL     1      13.448  49.773  17.752  1.00  0.00     0.275 HD
ENDBRANCH  14  26
ENDBRANCH  12  14
ENDBRANCH  11  12
ENDBRANCH   8  11
ENDBRANCH   7   8
ENDBRANCH   6   7
ENDBRANCH   1   6
BRANCH   5  30
HETATM   30  O   UNL     1       7.428  43.262  18.355  1.00  0.00    -0.390 OA
ATOM     31  HO  UNL     1       6.844  43.313  17.607  1.00  0.00     0.210 HD
ENDBRANCH   5  30
BRANCH   3  32
HETATM   32  N   UNL     1       9.267  45.172  14.759  1.00  0.00    -0.297 N 
HETATM   33  C   UNL     1      10.481  45.691  14.707  1.00  0.00     0.188 A 
HETATM   34  N   UNL     1      10.870  45.901  13.471  1.00  0.00    -0.346 N 
HETATM   35  C   UNL     1       9.903  45.510  12.692  1.00  0.00     0.122 A 
ATOM     36  HN  UNL     1      11.763  46.297  13.177  1.00  0.00     0.167 HD
HETATM   37  C   UNL     1       9.686  45.474  11.256  1.00  0.00     0.131 A 
HETATM   38  C   UNL     1       8.832  45.020  13.544  1.00  0.00     0.142 A 
HETATM   39  N   UNL     1      10.579  45.923  10.393  1.00  0.00    -0.383 N 
HETATM   40  N   UNL     1       8.534  45.005  10.844  1.00  0.00    -0.337 N 
ATOM     41  HN2 UNL     1      11.476  46.289  10.713  1.00  0.00     0.157 HD
ATOM     42  HN1 UNL     1      10.426  45.898   9.384  1.00  0.00     0.157 HD
HETATM   43  C   UNL     1       7.624  44.529  11.642  1.00  0.00     0.183 A 
ATOM     44  HN  UNL     1       8.340  45.013   9.843  1.00  0.00     0.168 HD
HETATM   45  N   UNL     1       7.728  44.569  12.938  1.00  0.00    -0.336 N 
ATOM     46  HN  UNL     1       6.945  44.248  13.508  1.00  0.00     0.168 HD
ENDBRANCH   3  32
BRANCH   4  47
HETATM   47  O   UNL     1       9.010  42.388  16.380  1.00  0.00    -0.388 OA
ATOM     48  HO  UNL     1       9.089  41.714  17.044  1.00  0.00     0.210 HD
ENDBRANCH   4  47
TORSDOF 12
ENDMDL
MODEL 10
REMARK VINA RESULT:   -10.956      4.281      5.545
REMARK INTER + INTRA:         -19.138
REMARK INTER:                 -17.090
REMARK INTRA:                  -2.047
REMARK UNBOUND:                -1.456
REMARK  12 active torsions:
REMARK  status: ('A' for Active; 'I' for Inactive)
REMARK    1  A    between atoms: P_1  and  O_4 
REMARK    2  A    between atoms: P_1  and  O_48 
REMARK    3  A    between atoms: O_4  and  C_5 
REMARK    4  A    between atoms: C_5  and  C_6 
REMARK    5  A    between atoms: C_8  and  N_9 
REMARK    6  A    between atoms: C_24  and  O_25 
REMARK    7  A    between atoms: C_27  and  O_28 
REMARK    8  A    between atoms: N_30  and  C_34 
REMARK    9  A    between atoms: C_34  and  C_35 
REMARK   10  A    between atoms: C_34  and  C_46 
REMARK   11  A    between atoms: C_35  and  C_36 
REMARK   12  A    between atoms: C_46  and  O_48 
ROOT
HETATM    1  C   UNL     1      10.490  43.547  17.805  1.00  0.00     0.180 C 
HETATM    2  O   UNL     1       9.845  44.676  18.337  1.00  0.00    -0.353 OA
HETATM    3  C   UNL     1       8.469  44.574  18.198  1.00  0.00     0.262 C 
HETATM    4  C   UNL     1       8.207  43.557  17.073  1.00  0.00     0.198 C 
HETATM    5  C   UNL     1       9.381  42.612  17.287  1.00  0.00     0.182 C 
ENDROOT
BRANCH   1   6
HETATM    6  C   UNL     1      11.455  43.956  16.720  1.00  0.00     0.216 C 
BRANCH   6   7
HETATM    7  O   UNL     1      11.382  45.291  16.389  1.00  0.00    -0.287 OA
BRANCH   7   8
HETATM    8  P   UNL     1      12.240  45.918  15.261  1.00  0.00     0.416 P 
HETATM    9  O   UNL     1      12.739  44.822  14.350  1.00  0.00    -0.624 OA
HETATM   10  O   UNL     1      11.520  47.124  14.706  1.00  0.00    -0.624 OA
BRANCH   8  11
HETATM   11  O   UNL     1      13.414  46.397  16.186  1.00  0.00    -0.211 OA
BRANCH  11  12
HETATM   12  C   UNL     1      13.544  47.606  16.877  1.00  0.00     0.299 C 
HETATM   13  O   UNL     1      12.880  47.781  17.802  1.00  0.00    -0.262 OA
BRANCH  12  14
HETATM   14  C   UNL     1      14.524  48.622  16.373  1.00  0.00     0.287 C 
BRANCH  14  15
HETATM   15  C   UNL     1      15.899  48.119  16.724  1.00  0.00     0.084 C 
BRANCH  15  16
HETATM   16  C   UNL     1      17.044  49.056  16.549  1.00  0.00    -0.028 A 
HETATM   17  C   UNL     1      17.893  49.640  17.461  1.00  0.00     0.096 A 
HETATM   18  N   UNL     1      18.833  50.355  16.852  1.00  0.00    -0.365 N 
HETATM   19  C   UNL     1      18.713  50.307  15.560  1.00  0.00     0.042 A 
ATOM     20  HN  UNL     1      19.560  50.878  17.340  1.00  0.00     0.165 HD
HETATM   21  C   UNL     1      19.361  50.859  14.482  1.00  0.00     0.030 A 
HETATM   22  C   UNL     1      17.566  49.467  15.264  1.00  0.00    -0.002 A 
HETATM   23  C   UNL     1      18.962  50.590  13.208  1.00  0.00     0.002 A 
HETATM   24  C   UNL     1      17.890  49.776  12.954  1.00  0.00     0.001 A 
HETATM   25  C   UNL     1      17.185  49.195  13.985  1.00  0.00     0.014 A 
ENDBRANCH  15  16
ENDBRANCH  14  15
BRANCH  14  26
HETATM   26  N   UNL     1      14.288  49.894  17.028  1.00  0.00    -0.066 N 
ATOM     27  HN3 UNL     1      13.743  50.530  16.447  1.00  0.00     0.275 HD
ATOM     28  HN2 UNL     1      13.635  49.810  17.806  1.00  0.00     0.275 HD
ATOM     29  HN1 UNL     1      15.178  50.302  17.314  1.00  0.00     0.275 HD
ENDBRANCH  14  26
ENDBRANCH  12  14
ENDBRANCH  11  12
ENDBRANCH   8  11
ENDBRANCH   7   8
ENDBRANCH   6   7
ENDBRANCH   1   6
BRANCH   5  30
HETATM   30  O   UNL     1       9.027  41.586  18.191  1.00  0.00    -0.390 OA
ATOM     31  HO  UNL     1       9.422  41.675  19.051  1.00  0.00     0.210 HD
ENDBRANCH   5  30
BRANCH   3  32
HETATM   32  N   UNL     1       7.848  45.891  18.002  1.00  0.00    -0.297 N 
HETATM   33  C   UNL     1       6.547  46.114  17.973  1.00  0.00     0.188 A 
HETATM   34  N   UNL     1       6.271  47.386  17.802  1.00  0.00    -0.346 N 
HETATM   35  C   UNL     1       7.407  48.017  17.722  1.00  0.00     0.122 A 
ATOM     36  HN  UNL     1       5.342  47.801  17.742  1.00  0.00     0.167 HD
HETATM   37  C   UNL     1       7.807  49.401  17.529  1.00  0.00     0.131 A 
HETATM   38  C   UNL     1       8.463  47.027  17.857  1.00  0.00     0.142 A 
HETATM   39  N   UNL     1       6.931  50.375  17.364  1.00  0.00    -0.383 N 
HETATM   40  N   UNL     1       9.094  49.643  17.488  1.00  0.00    -0.337 N 
ATOM     41  HN2 UNL     1       5.930  50.187  17.396  1.00  0.00     0.157 HD
ATOM     42  HN1 UNL     1       7.212  51.346  17.228  1.00  0.00     0.157 HD
HETATM   43  C   UNL     1      10.004  48.732  17.665  1.00  0.00     0.183 A 
ATOM     44  HN  UNL     1       9.399  50.600  17.308  1.00  0.00     0.168 HD
HETATM   45  N   UNL     1       9.725  47.468  17.797  1.00  0.00    -0.336 N 
ATOM     46  HN  UNL     1      10.489  46.795  17.856  1.00  0.00     0.168 HD
ENDBRANCH   3  32
BRANCH   4  47
HETATM   47  O   UNL     1       6.958  42.911  17.127  1.00  0.00    -0.388 OA
ATOM     48  HO  UNL     1       6.980  41.973  16.978  1.00  0.00     0.210 HD
ENDBRANCH   4  47
TORSDOF 12
ENDMDL
MODEL 11
REMARK VINA RESULT:   -10.866      4.256      7.106
REMARK INTER + INTRA:         -18.992
REMARK INTER:                 -17.306
REMARK INTRA:                  -1.686
REMARK UNBOUND:                -1.456
REMARK  12 active torsions:
REMARK  status: ('A' for Active; 'I' for Inactive)
REMARK    1  A    between atoms: P_1  and  O_4 
REMARK    2  A    between atoms: P_1  and  O_48 
REMARK    3  A    between atoms: O_4  and  C_5 
REMARK    4  A    between atoms: C_5  and  C_6 
REMARK    5  A    between atoms: C_8  and  N_9 
REMARK    6  A    between atoms: C_24  and  O_25 
REMARK    7  A    between atoms: C_27  and  O_28 
REMARK    8  A    between atoms: N_30  and  C_34 
REMARK    9  A    between atoms: C_34  and  C_35 
REMARK   10  A    between atoms: C_34  and  C_46 
REMARK   11  A    between atoms: C_35  and  C_36 
REMARK   12  A    between atoms: C_46  and  O_48 
ROOT
HETATM    1  C   UNL     1      13.086  44.830  12.560  1.00  0.00     0.180 C 
HETATM    2  O   UNL     1      11.904  44.304  12.010  1.00  0.00    -0.353 OA
HETATM    3  C   UNL     1      11.165  45.296  11.384  1.00  0.00     0.262 C 
HETATM    4  C   UNL     1      11.630  46.640  11.971  1.00  0.00     0.198 C 
HETATM    5  C   UNL     1      13.100  46.331  12.218  1.00  0.00     0.182 C 
ENDROOT
BRANCH   1   6
HETATM    6  C   UNL     1      13.132  44.574  14.046  1.00  0.00     0.216 C 
BRANCH   6   7
HETATM    7  O   UNL     1      13.091  45.721  14.807  1.00  0.00    -0.287 OA
BRANCH   7   8
HETATM    8  P   UNL     1      12.088  45.913  15.973  1.00  0.00     0.416 P 
HETATM    9  O   UNL     1      12.817  45.748  17.286  1.00  0.00    -0.624 OA
HETATM   10  O   UNL     1      11.240  47.132  15.700  1.00  0.00    -0.624 OA
BRANCH   8  11
HETATM   11  O   UNL     1      11.244  44.620  15.685  1.00  0.00    -0.211 OA
BRANCH  11  12
HETATM   12  C   UNL     1      10.546  43.814  16.590  1.00  0.00     0.299 C 
HETATM   13  O   UNL     1      11.060  42.860  16.979  1.00  0.00    -0.262 OA
BRANCH  12  14
HETATM   14  C   UNL     1       9.160  44.217  16.993  1.00  0.00     0.287 C 
BRANCH  14  15
HETATM   15  C   UNL     1       8.865  43.531  18.300  1.00  0.00     0.084 C 
BRANCH  15  16
HETATM   16  C   UNL     1       7.779  44.097  19.150  1.00  0.00    -0.028 A 
HETATM   17  C   UNL     1       6.410  43.988  19.075  1.00  0.00     0.096 A 
HETATM   18  N   UNL     1       5.823  44.599  20.098  1.00  0.00    -0.365 N 
HETATM   19  C   UNL     1       6.692  45.128  20.905  1.00  0.00     0.042 A 
ATOM     20  HN  UNL     1       4.814  44.648  20.232  1.00  0.00     0.165 HD
HETATM   21  C   UNL     1       6.650  45.875  22.057  1.00  0.00     0.030 A 
HETATM   22  C   UNL     1       8.010  44.842  20.368  1.00  0.00    -0.002 A 
HETATM   23  C   UNL     1       7.794  46.283  22.673  1.00  0.00     0.002 A 
HETATM   24  C   UNL     1       9.026  45.980  22.159  1.00  0.00     0.001 A 
HETATM   25  C   UNL     1       9.147  45.244  21.001  1.00  0.00     0.014 A 
ENDBRANCH  15  16
ENDBRANCH  14  15
BRANCH  14  26
HETATM   26  N   UNL     1       8.212  43.779  15.987  1.00  0.00    -0.066 N 
ATOM     27  HN3 UNL     1       8.187  44.407  15.184  1.00  0.00     0.275 HD
ATOM     28  HN2 UNL     1       8.525  42.937  15.505  1.00  0.00     0.275 HD
ATOM     29  HN1 UNL     1       7.292  43.661  16.411  1.00  0.00     0.275 HD
ENDBRANCH  14  26
ENDBRANCH  12  14
ENDBRANCH  11  12
ENDBRANCH   8  11
ENDBRANCH   7   8
ENDBRANCH   6   7
ENDBRANCH   1   6
BRANCH   5  30
HETATM   30  O   UNL     1      13.868  46.653  11.077  1.00  0.00    -0.390 OA
ATOM     31  HO  UNL     1      14.602  46.068  10.928  1.00  0.00     0.210 HD
ENDBRANCH   5  30
BRANCH   3  32
HETATM   32  N   UNL     1       9.722  45.039  11.486  1.00  0.00    -0.297 N 
HETATM   33  C   UNL     1       9.048  44.969  12.620  1.00  0.00     0.188 A 
HETATM   34  N   UNL     1       7.770  44.747  12.416  1.00  0.00    -0.346 N 
HETATM   35  C   UNL     1       7.593  44.675  11.129  1.00  0.00     0.122 A 
ATOM     36  HN  UNL     1       7.051  44.649  13.133  1.00  0.00     0.167 HD
HETATM   37  C   UNL     1       6.455  44.445  10.255  1.00  0.00     0.131 A 
HETATM   38  C   UNL     1       8.890  44.871  10.502  1.00  0.00     0.142 A 
HETATM   39  N   UNL     1       5.239  44.224  10.719  1.00  0.00    -0.383 N 
HETATM   40  N   UNL     1       6.694  44.429   8.967  1.00  0.00    -0.337 N 
ATOM     41  HN2 UNL     1       5.053  44.236  11.722  1.00  0.00     0.157 HD
ATOM     42  HN1 UNL     1       4.440  44.062  10.106  1.00  0.00     0.157 HD
HETATM   43  C   UNL     1       7.863  44.661   8.448  1.00  0.00     0.183 A 
ATOM     44  HN  UNL     1       5.919  44.224   8.335  1.00  0.00     0.168 HD
HETATM   45  N   UNL     1       8.935  44.829   9.165  1.00  0.00    -0.336 N 
ATOM     46  HN  UNL     1       9.835  44.931   8.696  1.00  0.00     0.168 HD
ENDBRANCH   3  32
BRANCH   4  47
HETATM   47  O   UNL     1      11.431  47.759  11.141  1.00  0.00    -0.388 OA
ATOM     48  HO  UNL     1      11.043  48.515  11.566  1.00  0.00     0.210 HD
ENDBRANCH   4  47
TORSDOF 12
ENDMDL
MODEL 12
REMARK VINA RESULT:   -10.859      4.203      8.243
REMARK INTER + INTRA:         -18.980
REMARK INTER:                 -16.973
REMARK INTRA:                  -2.007
REMARK UNBOUND:                -1.456
REMARK  12 active torsions:
REMARK  status: ('A' for Active; 'I' for Inactive)
REMARK    1  A    between atoms: P_1  and  O_4 
REMARK    2  A    between atoms: P_1  and  O_48 
REMARK    3  A    between atoms: O_4  and  C_5 
REMARK    4  A    between atoms: C_5  and  C_6 
REMARK    5  A    between atoms: C_8  and  N_9 
REMARK    6  A    between atoms: C_24  and  O_25 
REMARK    7  A    between atoms: C_27  and  O_28 
REMARK    8  A    between atoms: N_30  and  C_34 
REMARK    9  A    between atoms: C_34  and  C_35 
REMARK   10  A    between atoms: C_34  and  C_46 
REMARK   11  A    between atoms: C_35  and  C_36 
REMARK   12  A    between atoms: C_46  and  O_48 
ROOT
HETATM    1  C   UNL     1       8.788  46.126  15.967  1.00  0.00     0.180 C 
HETATM    2  O   UNL     1       9.633  45.005  16.026  1.00  0.00    -0.353 OA
HETATM    3  C   UNL     1       8.987  43.927  16.612  1.00  0.00     0.262 C 
HETATM    4  C   UNL     1       7.821  44.498  17.437  1.00  0.00     0.198 C 
HETATM    5  C   UNL     1       7.440  45.692  16.573  1.00  0.00     0.182 C 
ENDROOT
BRANCH   1   6
HETATM    6  C   UNL     1       9.407  47.288  16.705  1.00  0.00     0.216 C 
BRANCH   6   7
HETATM    7  O   UNL     1      10.568  47.754  16.130  1.00  0.00    -0.287 OA
BRANCH   7   8
HETATM    8  P   UNL     1      11.910  47.826  16.902  1.00  0.00     0.416 P 
HETATM    9  O   UNL     1      12.128  49.240  17.384  1.00  0.00    -0.624 OA
HETATM   10  O   UNL     1      11.996  46.656  17.853  1.00  0.00    -0.624 OA
BRANCH   8  11
HETATM   11  O   UNL     1      12.834  47.554  15.662  1.00  0.00    -0.211 OA
BRANCH  11  12
HETATM   12  C   UNL     1      12.876  46.427  14.834  1.00  0.00     0.299 C 
HETATM   13  O   UNL     1      13.281  45.442  15.273  1.00  0.00    -0.262 OA
BRANCH  12  14
HETATM   14  C   UNL     1      12.412  46.558  13.415  1.00  0.00     0.287 C 
BRANCH  14  15
HETATM   15  C   UNL     1      11.800  45.238  13.029  1.00  0.00     0.084 C 
BRANCH  15  16
HETATM   16  C   UNL     1      11.057  45.170  11.739  1.00  0.00    -0.028 A 
HETATM   17  C   UNL     1      11.494  45.138  10.435  1.00  0.00     0.096 A 
HETATM   18  N   UNL     1      10.478  44.997   9.591  1.00  0.00    -0.365 N 
HETATM   19  C   UNL     1       9.342  44.915  10.216  1.00  0.00     0.042 A 
ATOM     20  HN  UNL     1      10.577  44.959   8.577  1.00  0.00     0.165 HD
HETATM   21  C   UNL     1       8.021  44.799   9.860  1.00  0.00     0.030 A 
HETATM   22  C   UNL     1       9.624  45.011  11.637  1.00  0.00    -0.002 A 
HETATM   23  C   UNL     1       7.041  44.737  10.804  1.00  0.00     0.002 A 
HETATM   24  C   UNL     1       7.334  44.807  12.140  1.00  0.00     0.001 A 
HETATM   25  C   UNL     1       8.636  44.934  12.571  1.00  0.00     0.014 A 
ENDBRANCH  15  16
ENDBRANCH  14  15
BRANCH  14  26
HETATM   26  N   UNL     1      13.545  46.840  12.556  1.00  0.00    -0.066 N 
ATOM     27  HN3 UNL     1      13.479  47.761  12.123  1.00  0.00     0.275 HD
ATOM     28  HN2 UNL     1      14.403  46.989  13.087  1.00  0.00     0.275 HD
ATOM     29  HN1 UNL     1      13.645  46.097  11.865  1.00  0.00     0.275 HD
ENDBRANCH  14  26
ENDBRANCH  12  14
ENDBRANCH  11  12
ENDBRANCH   8  11
ENDBRANCH   7   8
ENDBRANCH   6   7
ENDBRANCH   1   6
BRANCH   5  30
HETATM   30  O   UNL     1       6.475  45.315  15.613  1.00  0.00    -0.390 OA
ATOM     31  HO  UNL     1       6.382  45.931  14.896  1.00  0.00     0.210 HD
ENDBRANCH   5  30
BRANCH   3  32
HETATM   32  N   UNL     1       9.925  43.081  17.364  1.00  0.00    -0.297 N 
HETATM   33  C   UNL     1      10.986  43.526  18.012  1.00  0.00     0.188 A 
HETATM   34  N   UNL     1      11.636  42.554  18.611  1.00  0.00    -0.346 N 
HETATM   35  C   UNL     1      10.992  41.451  18.362  1.00  0.00     0.122 A 
ATOM     36  HN  UNL     1      12.485  42.648  19.168  1.00  0.00     0.167 HD
HETATM   37  C   UNL     1      11.172  40.051  18.706  1.00  0.00     0.131 A 
HETATM   38  C   UNL     1       9.848  41.795  17.533  1.00  0.00     0.142 A 
HETATM   39  N   UNL     1      12.193  39.624  19.427  1.00  0.00    -0.383 N 
HETATM   40  N   UNL     1      10.286  39.208  18.235  1.00  0.00    -0.337 N 
ATOM     41  HN2 UNL     1      12.882  40.280  19.795  1.00  0.00     0.157 HD
ATOM     42  HN1 UNL     1      12.319  38.641  19.669  1.00  0.00     0.157 HD
HETATM   43  C   UNL     1       9.250  39.568  17.538  1.00  0.00     0.183 A 
ATOM     44  HN  UNL     1      10.417  38.214  18.425  1.00  0.00     0.168 HD
HETATM   45  N   UNL     1       9.046  40.794  17.153  1.00  0.00    -0.336 N 
ATOM     46  HN  UNL     1       8.253  40.997  16.544  1.00  0.00     0.168 HD
ENDBRANCH   3  32
BRANCH   4  47
HETATM   47  O   UNL     1       6.751  43.611  17.659  1.00  0.00    -0.388 OA
ATOM     48  HO  UNL     1       7.002  42.717  17.863  1.00  0.00     0.210 HD
ENDBRANCH   4  47
TORSDOF 12
ENDMDL
MODEL 13
REMARK VINA RESULT:   -10.837      4.987      6.926
REMARK INTER + INTRA:         -18.944
REMARK INTER:                 -17.024
REMARK INTRA:                  -1.920
REMARK UNBOUND:                -1.456
REMARK  12 active torsions:
REMARK  status: ('A' for Active; 'I' for Inactive)
REMARK    1  A    between atoms: P_1  and  O_4 
REMARK    2  A    between atoms: P_1  and  O_48 
REMARK    3  A    between atoms: O_4  and  C_5 
REMARK    4  A    between atoms: C_5  and  C_6 
REMARK    5  A    between atoms: C_8  and  N_9 
REMARK    6  A    between atoms: C_24  and  O_25 
REMARK    7  A    between atoms: C_27  and  O_28 
REMARK    8  A    between atoms: N_30  and  C_34 
REMARK    9  A    between atoms: C_34  and  C_35 
REMARK   10  A    between atoms: C_34  and  C_46 
REMARK   11  A    between atoms: C_35  and  C_36 
REMARK   12  A    between atoms: C_46  and  O_48 
ROOT
HETATM    1  C   UNL     1      10.407  43.149  18.187  1.00  0.00     0.180 C 
HETATM    2  O   UNL     1       9.593  43.354  19.315  1.00  0.00    -0.353 OA
HETATM    3  C   UNL     1       8.253  43.389  18.961  1.00  0.00     0.262 C 
HETATM    4  C   UNL     1       8.195  43.720  17.459  1.00  0.00     0.198 C 
HETATM    5  C   UNL     1       9.458  43.018  16.980  1.00  0.00     0.182 C 
ENDROOT
BRANCH   1   6
HETATM    6  C   UNL     1      11.387  44.285  18.033  1.00  0.00     0.216 C 
BRANCH   6   7
HETATM    7  O   UNL     1      11.030  45.197  17.065  1.00  0.00    -0.287 OA
BRANCH   7   8
HETATM    8  P   UNL     1      10.676  46.669  17.396  1.00  0.00     0.416 P 
HETATM    9  O   UNL     1      10.304  47.388  16.121  1.00  0.00    -0.624 OA
HETATM   10  O   UNL     1       9.766  46.699  18.601  1.00  0.00    -0.624 OA
BRANCH   8  11
HETATM   11  O   UNL     1      12.123  47.099  17.829  1.00  0.00    -0.211 OA
BRANCH  11  12
HETATM   12  C   UNL     1      13.040  47.898  17.139  1.00  0.00     0.299 C 
HETATM   13  O   UNL     1      12.859  49.035  17.109  1.00  0.00    -0.262 OA
BRANCH  12  14
HETATM   14  C   UNL     1      14.200  47.238  16.457  1.00  0.00     0.287 C 
BRANCH  14  15
HETATM   15  C   UNL     1      14.816  48.265  15.545  1.00  0.00     0.084 C 
BRANCH  15  16
HETATM   16  C   UNL     1      16.090  48.903  15.981  1.00  0.00    -0.028 A 
HETATM   17  C   UNL     1      16.640  49.084  17.229  1.00  0.00     0.096 A 
HETATM   18  N   UNL     1      17.844  49.639  17.147  1.00  0.00    -0.365 N 
HETATM   19  C   UNL     1      18.192  49.854  15.914  1.00  0.00     0.042 A 
ATOM     20  HN  UNL     1      18.424  49.869  17.953  1.00  0.00     0.165 HD
HETATM   21  C   UNL     1      19.270  50.411  15.270  1.00  0.00     0.030 A 
HETATM   22  C   UNL     1      17.103  49.393  15.072  1.00  0.00    -0.002 A 
HETATM   23  C   UNL     1      19.317  50.482  13.911  1.00  0.00     0.002 A 
HETATM   24  C   UNL     1      18.287  50.019  13.137  1.00  0.00     0.001 A 
HETATM   25  C   UNL     1      17.169  49.458  13.713  1.00  0.00     0.014 A 
ENDBRANCH  15  16
ENDBRANCH  14  15
BRANCH  14  26
HETATM   26  N   UNL     1      13.730  46.111  15.676  1.00  0.00    -0.066 N 
ATOM     27  HN3 UNL     1      13.001  46.378  15.016  1.00  0.00     0.275 HD
ATOM     28  HN2 UNL     1      14.427  45.791  15.004  1.00  0.00     0.275 HD
ATOM     29  HN1 UNL     1      13.427  45.363  16.301  1.00  0.00     0.275 HD
ENDBRANCH  14  26
ENDBRANCH  12  14
ENDBRANCH  11  12
ENDBRANCH   8  11
ENDBRANCH   7   8
ENDBRANCH   6   7
ENDBRANCH   1   6
BRANCH   5  30
HETATM   30  O   UNL     1       9.170  41.684  16.618  1.00  0.00    -0.390 OA
ATOM     31  HO  UNL     1       8.510  41.602  15.939  1.00  0.00     0.210 HD
ENDBRANCH   5  30
BRANCH   3  32
HETATM   32  N   UNL     1       7.491  44.298  19.828  1.00  0.00    -0.297 N 
HETATM   33  C   UNL     1       6.191  44.513  19.736  1.00  0.00     0.188 A 
HETATM   34  N   UNL     1       5.769  45.359  20.648  1.00  0.00    -0.346 N 
HETATM   35  C   UNL     1       6.804  45.704  21.359  1.00  0.00     0.122 A 
ATOM     36  HN  UNL     1       4.811  45.684  20.775  1.00  0.00     0.167 HD
HETATM   37  C   UNL     1       7.030  46.590  22.488  1.00  0.00     0.131 A 
HETATM   38  C   UNL     1       7.955  44.999  20.819  1.00  0.00     0.142 A 
HETATM   39  N   UNL     1       6.062  47.302  23.035  1.00  0.00    -0.383 N 
HETATM   40  N   UNL     1       8.261  46.685  22.927  1.00  0.00    -0.337 N 
ATOM     41  HN2 UNL     1       5.104  47.229  22.694  1.00  0.00     0.157 HD
ATOM     42  HN1 UNL     1       6.221  47.925  23.827  1.00  0.00     0.157 HD
HETATM   43  C   UNL     1       9.252  45.995  22.445  1.00  0.00     0.183 A 
ATOM     44  HN  UNL     1       8.453  47.335  23.689  1.00  0.00     0.168 HD
HETATM   45  N   UNL     1       9.136  45.218  21.408  1.00  0.00    -0.336 N 
ATOM     46  HN  UNL     1       9.969  44.763  21.033  1.00  0.00     0.168 HD
ENDBRANCH   3  32
BRANCH   4  47
HETATM   47  O   UNL     1       7.033  43.287  16.794  1.00  0.00    -0.388 OA
ATOM     48  HO  UNL     1       6.669  43.906  16.170  1.00  0.00     0.210 HD
ENDBRANCH   4  47
TORSDOF 12
ENDMDL
MODEL 14
REMARK VINA RESULT:   -10.802      2.144      3.905
REMARK INTER + INTRA:         -18.888
REMARK INTER:                 -16.751
REMARK INTRA:                  -2.137
REMARK UNBOUND:                -1.456
REMARK  12 active torsions:
REMARK  status: ('A' for Active; 'I' for Inactive)
REMARK    1  A    between atoms: P_1  and  O_4 
REMARK    2  A    between atoms: P_1  and  O_48 
REMARK    3  A    between atoms: O_4  and  C_5 
REMARK    4  A    between atoms: C_5  and  C_6 
REMARK    5  A    between atoms: C_8  and  N_9 
REMARK    6  A    between atoms: C_24  and  O_25 
REMARK    7  A    between atoms: C_27  and  O_28 
REMARK    8  A    between atoms: N_30  and  C_34 
REMARK    9  A    between atoms: C_34  and  C_35 
REMARK   10  A    between atoms: C_34  and  C_46 
REMARK   11  A    between atoms: C_35  and  C_36 
REMARK   12  A    between atoms: C_46  and  O_48 
ROOT
HETATM    1  C   UNL     1       8.618  46.056  16.771  1.00  0.00     0.180 C 
HETATM    2  O   UNL     1       8.818  46.341  15.409  1.00  0.00    -0.353 OA
HETATM    3  C   UNL     1       7.871  45.703  14.624  1.00  0.00     0.262 C 
HETATM    4  C   UNL     1       7.310  44.537  15.457  1.00  0.00     0.198 C 
HETATM    5  C   UNL     1       7.379  45.144  16.850  1.00  0.00     0.182 C 
ENDROOT
BRANCH   1   6
HETATM    6  C   UNL     1       9.849  45.413  17.359  1.00  0.00     0.216 C 
BRANCH   6   7
HETATM    7  O   UNL     1      10.604  44.718  16.440  1.00  0.00    -0.287 OA
BRANCH   7   8
HETATM    8  P   UNL     1      12.139  44.887  16.324  1.00  0.00     0.416 P 
HETATM    9  O   UNL     1      12.786  44.439  17.613  1.00  0.00    -0.624 OA
HETATM   10  O   UNL     1      12.597  44.342  14.992  1.00  0.00    -0.624 OA
BRANCH   8  11
HETATM   11  O   UNL     1      12.134  46.456  16.267  1.00  0.00    -0.211 OA
BRANCH  11  12
HETATM   12  C   UNL     1      12.980  47.357  16.922  1.00  0.00     0.299 C 
HETATM   13  O   UNL     1      12.586  47.889  17.864  1.00  0.00    -0.262 OA
BRANCH  12  14
HETATM   14  C   UNL     1      14.347  47.600  16.358  1.00  0.00     0.287 C 
BRANCH  14  15
HETATM   15  C   UNL     1      14.640  49.067  16.532  1.00  0.00     0.084 C 
BRANCH  15  16
HETATM   16  C   UNL     1      16.061  49.470  16.735  1.00  0.00    -0.028 A 
HETATM   17  C   UNL     1      16.794  49.686  17.878  1.00  0.00     0.096 A 
HETATM   18  N   UNL     1      18.062  49.958  17.590  1.00  0.00    -0.365 N 
HETATM   19  C   UNL     1      18.280  49.938  16.310  1.00  0.00     0.042 A 
ATOM     20  HN  UNL     1      18.777  50.159  18.289  1.00  0.00     0.165 HD
HETATM   21  C   UNL     1      19.352  50.169  15.483  1.00  0.00     0.030 A 
HETATM   22  C   UNL     1      17.021  49.616  15.663  1.00  0.00    -0.002 A 
HETATM   23  C   UNL     1      19.233  50.057  14.131  1.00  0.00     0.002 A 
HETATM   24  C   UNL     1      18.040  49.730  13.545  1.00  0.00     0.001 A 
HETATM   25  C   UNL     1      16.919  49.495  14.311  1.00  0.00     0.014 A 
ENDBRANCH  15  16
ENDBRANCH  14  15
BRANCH  14  26
HETATM   26  N   UNL     1      14.360  47.264  14.948  1.00  0.00    -0.066 N 
ATOM     27  HN3 UNL     1      13.452  46.935  14.623  1.00  0.00     0.275 HD
ATOM     28  HN2 UNL     1      14.437  48.091  14.357  1.00  0.00     0.275 HD
ATOM     29  HN1 UNL     1      15.103  46.589  14.764  1.00  0.00     0.275 HD
ENDBRANCH  14  26
ENDBRANCH  12  14
ENDBRANCH  11  12
ENDBRANCH   8  11
ENDBRANCH   7   8
ENDBRANCH   6   7
ENDBRANCH   1   6
BRANCH   5  30
HETATM   30  O   UNL     1       6.180  45.829  17.147  1.00  0.00    -0.390 OA
ATOM     31  HO  UNL     1       5.667  45.429  17.839  1.00  0.00     0.210 HD
ENDBRANCH   5  30
BRANCH   3  32
HETATM   32  N   UNL     1       8.422  45.324  13.315  1.00  0.00    -0.297 N 
HETATM   33  C   UNL     1       7.747  44.701  12.366  1.00  0.00     0.188 A 
HETATM   34  N   UNL     1       8.480  44.503  11.295  1.00  0.00    -0.346 N 
HETATM   35  C   UNL     1       9.656  45.009  11.535  1.00  0.00     0.122 A 
ATOM     36  HN  UNL     1       8.184  44.040  10.435  1.00  0.00     0.167 HD
HETATM   37  C   UNL     1      10.902  45.118  10.797  1.00  0.00     0.131 A 
HETATM   38  C   UNL     1       9.623  45.560  12.880  1.00  0.00     0.142 A 
HETATM   39  N   UNL     1      11.052  44.624   9.581  1.00  0.00    -0.383 N 
HETATM   40  N   UNL     1      11.902  45.704  11.409  1.00  0.00    -0.337 N 
ATOM     41  HN2 UNL     1      10.274  44.168   9.105  1.00  0.00     0.157 HD
ATOM     42  HN1 UNL     1      11.927  44.700   9.063  1.00  0.00     0.157 HD
HETATM   43  C   UNL     1      11.812  46.228  12.595  1.00  0.00     0.183 A 
ATOM     44  HN  UNL     1      12.800  45.752  10.929  1.00  0.00     0.168 HD
HETATM   45  N   UNL     1      10.745  46.130  13.333  1.00  0.00    -0.336 N 
ATOM     46  HN  UNL     1      10.765  46.498  14.285  1.00  0.00     0.168 HD
ENDBRANCH   3  32
BRANCH   4  47
HETATM   47  O   UNL     1       6.017  44.111  15.100  1.00  0.00    -0.388 OA
ATOM     48  HO  UNL     1       5.415  43.990  15.826  1.00  0.00     0.210 HD
ENDBRANCH   4  47
TORSDOF 12
ENDMDL
MODEL 15
REMARK VINA RESULT:   -10.666      5.836      8.029
REMARK INTER + INTRA:         -18.669
REMARK INTER:                 -17.204
REMARK INTRA:                  -1.465
REMARK UNBOUND:                -1.456
REMARK  12 active torsions:
REMARK  status: ('A' for Active; 'I' for Inactive)
REMARK    1  A    between atoms: P_1  and  O_4 
REMARK    2  A    between atoms: P_1  and  O_48 
REMARK    3  A    between atoms: O_4  and  C_5 
REMARK    4  A    between atoms: C_5  and  C_6 
REMARK    5  A    between atoms: C_8  and  N_9 
REMARK    6  A    between atoms: C_24  and  O_25 
REMARK    7  A    between atoms: C_27  and  O_28 
REMARK    8  A    between atoms: N_30  and  C_34 
REMARK    9  A    between atoms: C_34  and  C_35 
REMARK   10  A    between atoms: C_34  and  C_46 
REMARK   11  A    between atoms: C_35  and  C_36 
REMARK   12  A    between atoms: C_46  and  O_48 
ROOT
HETATM    1  C   UNL     1       8.749  44.024  18.327  1.00  0.00     0.180 C 
HETATM    2  O   UNL     1       8.772  43.427  19.599  1.00  0.00    -0.353 OA
HETATM    3  C   UNL     1       7.492  43.313  20.118  1.00  0.00     0.262 C 
HETATM    4  C   UNL     1       6.614  44.333  19.372  1.00  0.00     0.198 C 
HETATM    5  C   UNL     1       7.269  44.298  17.999  1.00  0.00     0.182 C 
ENDROOT
BRANCH   1   6
HETATM    6  C   UNL     1       9.586  45.279  18.321  1.00  0.00     0.216 C 
BRANCH   6   7
HETATM    7  O   UNL     1      10.931  45.046  18.142  1.00  0.00    -0.287 OA
BRANCH   7   8
HETATM    8  P   UNL     1      11.593  45.014  16.742  1.00  0.00     0.416 P 
HETATM    9  O   UNL     1      11.851  43.579  16.348  1.00  0.00    -0.624 OA
HETATM   10  O   UNL     1      10.849  45.952  15.822  1.00  0.00    -0.624 OA
BRANCH   8  11
HETATM   11  O   UNL     1      12.946  45.682  17.177  1.00  0.00    -0.211 OA
BRANCH  11  12
HETATM   12  C   UNL     1      13.287  47.038  17.187  1.00  0.00     0.299 C 
HETATM   13  O   UNL     1      12.656  47.755  17.832  1.00  0.00    -0.262 OA
BRANCH  12  14
HETATM   14  C   UNL     1      14.441  47.497  16.348  1.00  0.00     0.287 C 
BRANCH  14  15
HETATM   15  C   UNL     1      14.647  48.958  16.645  1.00  0.00     0.084 C 
BRANCH  15  16
HETATM   16  C   UNL     1      16.049  49.443  16.795  1.00  0.00    -0.028 A 
HETATM   17  C   UNL     1      16.791  49.760  17.908  1.00  0.00     0.096 A 
HETATM   18  N   UNL     1      18.037  50.080  17.580  1.00  0.00    -0.365 N 
HETATM   19  C   UNL     1      18.233  49.998  16.298  1.00  0.00     0.042 A 
ATOM     20  HN  UNL     1      18.754  50.356  18.251  1.00  0.00     0.165 HD
HETATM   21  C   UNL     1      19.277  50.235  15.437  1.00  0.00     0.030 A 
HETATM   22  C   UNL     1      16.981  49.577  15.697  1.00  0.00    -0.002 A 
HETATM   23  C   UNL     1      19.139  50.041  14.096  1.00  0.00     0.002 A 
HETATM   24  C   UNL     1      17.953  49.621  13.555  1.00  0.00     0.001 A 
HETATM   25  C   UNL     1      16.860  49.373  14.356  1.00  0.00     0.014 A 
ENDBRANCH  15  16
ENDBRANCH  14  15
BRANCH  14  26
HETATM   26  N   UNL     1      14.122  47.325  14.945  1.00  0.00    -0.066 N 
ATOM     27  HN3 UNL     1      13.663  48.146  14.551  1.00  0.00     0.275 HD
ATOM     28  HN2 UNL     1      14.955  47.327  14.357  1.00  0.00     0.275 HD
ATOM     29  HN1 UNL     1      13.566  46.478  14.821  1.00  0.00     0.275 HD
ENDBRANCH  14  26
ENDBRANCH  12  14
ENDBRANCH  11  12
ENDBRANCH   8  11
ENDBRANCH   7   8
ENDBRANCH   6   7
ENDBRANCH   1   6
BRANCH   5  30
HETATM   30  O   UNL     1       6.667  43.308  17.193  1.00  0.00    -0.390 OA
ATOM     31  HO  UNL     1       6.032  42.769  17.651  1.00  0.00     0.210 HD
ENDBRANCH   5  30
BRANCH   3  32
HETATM   32  N   UNL     1       7.489  43.443  21.582  1.00  0.00    -0.297 N 
HETATM   33  C   UNL     1       6.935  42.580  22.414  1.00  0.00     0.188 A 
HETATM   34  N   UNL     1       7.098  42.935  23.667  1.00  0.00    -0.346 N 
HETATM   35  C   UNL     1       7.776  44.047  23.666  1.00  0.00     0.122 A 
ATOM     36  HN  UNL     1       6.758  42.434  24.488  1.00  0.00     0.167 HD
HETATM   37  C   UNL     1       8.275  44.952  24.687  1.00  0.00     0.131 A 
HETATM   38  C   UNL     1       8.042  44.390  22.279  1.00  0.00     0.142 A 
HETATM   39  N   UNL     1       8.062  44.753  25.976  1.00  0.00    -0.383 N 
HETATM   40  N   UNL     1       8.923  46.012  24.272  1.00  0.00    -0.337 N 
ATOM     41  HN2 UNL     1       7.558  43.928  26.299  1.00  0.00     0.157 HD
ATOM     42  HN1 UNL     1       8.412  45.389  26.692  1.00  0.00     0.157 HD
HETATM   43  C   UNL     1       9.182  46.253  23.021  1.00  0.00     0.183 A 
ATOM     44  HN  UNL     1       9.243  46.686  24.968  1.00  0.00     0.168 HD
HETATM   45  N   UNL     1       8.731  45.514  22.049  1.00  0.00    -0.336 N 
ATOM     46  HN  UNL     1       8.907  45.800  21.086  1.00  0.00     0.168 HD
ENDBRANCH   3  32
BRANCH   4  47
HETATM   47  O   UNL     1       5.239  44.032  19.339  1.00  0.00    -0.388 OA
ATOM     48  HO  UNL     1       4.697  44.544  19.928  1.00  0.00     0.210 HD
ENDBRANCH   4  47
TORSDOF 12
ENDMDL
MODEL 16
REMARK VINA RESULT:   -10.649      2.432      4.189
REMARK INTER + INTRA:         -18.641
REMARK INTER:                 -16.949
REMARK INTRA:                  -1.692
REMARK UNBOUND:                -1.456
REMARK  12 active torsions:
REMARK  status: ('A' for Active; 'I' for Inactive)
REMARK    1  A    between atoms: P_1  and  O_4 
REMARK    2  A    between atoms: P_1  and  O_48 
REMARK    3  A    between atoms: O_4  and  C_5 
REMARK    4  A    between atoms: C_5  and  C_6 
REMARK    5  A    between atoms: C_8  and  N_9 
REMARK    6  A    between atoms: C_24  and  O_25 
REMARK    7  A    between atoms: C_27  and  O_28 
REMARK    8  A    between atoms: N_30  and  C_34 
REMARK    9  A    between atoms: C_34  and  C_35 
REMARK   10  A    between atoms: C_34  and  C_46 
REMARK   11  A    between atoms: C_35  and  C_36 
REMARK   12  A    between atoms: C_46  and  O_48 
ROOT
HETATM    1  C   UNL     1       8.224  46.700  17.282  1.00  0.00     0.180 C 
HETATM    2  O   UNL     1       8.817  46.966  16.036  1.00  0.00    -0.353 OA
HETATM    3  C   UNL     1       8.245  46.193  15.038  1.00  0.00     0.262 C 
HETATM    4  C   UNL     1       7.576  44.992  15.730  1.00  0.00     0.198 C 
HETATM    5  C   UNL     1       7.130  45.645  17.030  1.00  0.00     0.182 C 
ENDROOT
BRANCH   1   6
HETATM    6  C   UNL     1       9.264  46.231  18.269  1.00  0.00     0.216 C 
BRANCH   6   7
HETATM    7  O   UNL     1       9.571  44.893  18.157  1.00  0.00    -0.287 OA
BRANCH   7   8
HETATM    8  P   UNL     1      10.997  44.390  17.821  1.00  0.00     0.416 P 
HETATM    9  O   UNL     1      11.516  43.564  18.974  1.00  0.00    -0.624 OA
HETATM   10  O   UNL     1      11.013  43.855  16.410  1.00  0.00    -0.624 OA
BRANCH   8  11
HETATM   11  O   UNL     1      11.685  45.802  17.847  1.00  0.00    -0.211 OA
BRANCH  11  12
HETATM   12  C   UNL     1      12.766  46.260  17.086  1.00  0.00     0.299 C 
HETATM   13  O   UNL     1      13.564  45.498  16.757  1.00  0.00    -0.262 OA
BRANCH  12  14
HETATM   14  C   UNL     1      12.843  47.719  16.751  1.00  0.00     0.287 C 
BRANCH  14  15
HETATM   15  C   UNL     1      14.224  48.185  17.129  1.00  0.00     0.084 C 
BRANCH  15  16
HETATM   16  C   UNL     1      15.181  48.480  16.025  1.00  0.00    -0.028 A 
HETATM   17  C   UNL     1      15.052  48.396  14.658  1.00  0.00     0.096 A 
HETATM   18  N   UNL     1      16.144  48.838  14.045  1.00  0.00    -0.365 N 
HETATM   19  C   UNL     1      17.041  49.243  14.893  1.00  0.00     0.042 A 
ATOM     20  HN  UNL     1      16.264  48.856  13.033  1.00  0.00     0.165 HD
HETATM   21  C   UNL     1      18.318  49.746  14.821  1.00  0.00     0.030 A 
HETATM   22  C   UNL     1      16.493  49.055  16.223  1.00  0.00    -0.002 A 
HETATM   23  C   UNL     1      19.004  50.082  15.948  1.00  0.00     0.002 A 
HETATM   24  C   UNL     1      18.457  49.916  17.192  1.00  0.00     0.001 A 
HETATM   25  C   UNL     1      17.185  49.408  17.342  1.00  0.00     0.014 A 
ENDBRANCH  15  16
ENDBRANCH  14  15
BRANCH  14  26
HETATM   26  N   UNL     1      11.855  48.449  17.521  1.00  0.00    -0.066 N 
ATOM     27  HN3 UNL     1      11.268  49.039  16.933  1.00  0.00     0.275 HD
ATOM     28  HN2 UNL     1      11.126  47.838  17.889  1.00  0.00     0.275 HD
ATOM     29  HN1 UNL     1      12.319  48.981  18.258  1.00  0.00     0.275 HD
ENDBRANCH  14  26
ENDBRANCH  12  14
ENDBRANCH  11  12
ENDBRANCH   8  11
ENDBRANCH   7   8
ENDBRANCH   6   7
ENDBRANCH   1   6
BRANCH   5  30
HETATM   30  O   UNL     1       5.833  46.186  16.888  1.00  0.00    -0.390 OA
ATOM     31  HO  UNL     1       5.580  46.353  15.987  1.00  0.00     0.210 HD
ENDBRANCH   5  30
BRANCH   3  32
HETATM   32  N   UNL     1       9.222  45.846  13.997  1.00  0.00    -0.297 N 
HETATM   33  C   UNL     1      10.533  45.878  14.154  1.00  0.00     0.188 A 
HETATM   34  N   UNL     1      11.166  45.501  13.067  1.00  0.00    -0.346 N 
HETATM   35  C   UNL     1      10.261  45.208  12.178  1.00  0.00     0.122 A 
ATOM     36  HN  UNL     1      12.177  45.448  12.943  1.00  0.00     0.167 HD
HETATM   37  C   UNL     1      10.279  44.748  10.801  1.00  0.00     0.131 A 
HETATM   38  C   UNL     1       8.962  45.433  12.793  1.00  0.00     0.142 A 
HETATM   39  N   UNL     1      11.402  44.542  10.137  1.00  0.00    -0.383 N 
HETATM   40  N   UNL     1       9.117  44.577  10.220  1.00  0.00    -0.337 N 
ATOM     41  HN2 UNL     1      12.306  44.676  10.589  1.00  0.00     0.157 HD
ATOM     42  HN1 UNL     1      11.414  44.220   9.169  1.00  0.00     0.157 HD
HETATM   43  C   UNL     1       7.978  44.742  10.825  1.00  0.00     0.183 A 
ATOM     44  HN  UNL     1       9.104  44.299   9.238  1.00  0.00     0.168 HD
HETATM   45  N   UNL     1       7.882  45.195  12.040  1.00  0.00    -0.336 N 
ATOM     46  HN  UNL     1       6.956  45.374  12.431  1.00  0.00     0.168 HD
ENDBRANCH   3  32
BRANCH   4  47
HETATM   47  O   UNL     1       6.518  44.400  15.015  1.00  0.00    -0.388 OA
ATOM     48  HO  UNL     1       6.198  43.579  15.371  1.00  0.00     0.210 HD
ENDBRANCH   4  47
TORSDOF 12
ENDMDL
MODEL 17
REMARK VINA RESULT:   -10.624      3.865      7.859
REMARK INTER + INTRA:         -18.601
REMARK INTER:                 -15.558
REMARK INTRA:                  -3.043
REMARK UNBOUND:                -1.456
REMARK  12 active torsions:
REMARK  status: ('A' for Active; 'I' for Inactive)
REMARK    1  A    between atoms: P_1  and  O_4 
REMARK    2  A    between atoms: P_1  and  O_48 
REMARK    3  A    between atoms: O_4  and  C_5 
REMARK    4  A    between atoms: C_5  and  C_6 
REMARK    5  A    between atoms: C_8  and  N_9 
REMARK    6  A    between atoms: C_24  and  O_25 
REMARK    7  A    between atoms: C_27  and  O_28 
REMARK    8  A    between atoms: N_30  and  C_34 
REMARK    9  A    between atoms: C_34  and  C_35 
REMARK   10  A    between atoms: C_34  and  C_46 
REMARK   11  A    between atoms: C_35  and  C_36 
REMARK   12  A    between atoms: C_46  and  O_48 
ROOT
HETATM    1  C   UNL     1       9.424  48.148  16.786  1.00  0.00     0.180 C 
HETATM    2  O   UNL     1       9.258  46.843  16.292  1.00  0.00    -0.353 OA
HETATM    3  C   UNL     1       8.036  46.317  16.681  1.00  0.00     0.262 C 
HETATM    4  C   UNL     1       7.573  47.120  17.909  1.00  0.00     0.198 C 
HETATM    5  C   UNL     1       8.139  48.490  17.563  1.00  0.00     0.182 C 
ENDROOT
BRANCH   1   6
HETATM    6  C   UNL     1      10.661  48.229  17.647  1.00  0.00     0.216 C 
BRANCH   6   7
HETATM    7  O   UNL     1      11.558  47.209  17.424  1.00  0.00    -0.287 OA
BRANCH   7   8
HETATM    8  P   UNL     1      12.968  47.454  16.830  1.00  0.00     0.416 P 
HETATM    9  O   UNL     1      13.409  48.860  17.163  1.00  0.00    -0.624 OA
HETATM   10  O   UNL     1      13.849  46.268  17.142  1.00  0.00    -0.624 OA
BRANCH   8  11
HETATM   11  O   UNL     1      12.531  47.392  15.323  1.00  0.00    -0.211 OA
BRANCH  11  12
HETATM   12  C   UNL     1      13.252  46.914  14.224  1.00  0.00     0.299 C 
HETATM   13  O   UNL     1      14.109  47.563  13.809  1.00  0.00    -0.262 OA
BRANCH  12  14
HETATM   14  C   UNL     1      12.865  45.595  13.627  1.00  0.00     0.287 C 
BRANCH  14  15
HETATM   15  C   UNL     1      11.370  45.615  13.447  1.00  0.00     0.084 C 
BRANCH  15  16
HETATM   16  C   UNL     1      10.837  45.468  12.064  1.00  0.00    -0.028 A 
HETATM   17  C   UNL     1      11.464  45.469  10.839  1.00  0.00     0.096 A 
HETATM   18  N   UNL     1      10.602  45.226   9.858  1.00  0.00    -0.365 N 
HETATM   19  C   UNL     1       9.399  45.038  10.311  1.00  0.00     0.042 A 
ATOM     20  HN  UNL     1      10.854  45.190   8.871  1.00  0.00     0.165 HD
HETATM   21  C   UNL     1       8.162  44.792   9.766  1.00  0.00     0.030 A 
HETATM   22  C   UNL     1       9.456  45.169  11.755  1.00  0.00    -0.002 A 
HETATM   23  C   UNL     1       7.064  44.642  10.557  1.00  0.00     0.002 A 
HETATM   24  C   UNL     1       7.147  44.748  11.920  1.00  0.00     0.001 A 
HETATM   25  C   UNL     1       8.353  45.004  12.536  1.00  0.00     0.014 A 
ENDBRANCH  15  16
ENDBRANCH  14  15
BRANCH  14  26
HETATM   26  N   UNL     1      13.233  44.524  14.533  1.00  0.00    -0.066 N 
ATOM     27  HN3 UNL     1      14.048  44.761  15.097  1.00  0.00     0.275 HD
ATOM     28  HN2 UNL     1      12.559  44.412  15.290  1.00  0.00     0.275 HD
ATOM     29  HN1 UNL     1      13.367  43.661  14.006  1.00  0.00     0.275 HD
ENDBRANCH  14  26
ENDBRANCH  12  14
ENDBRANCH  11  12
ENDBRANCH   8  11
ENDBRANCH   7   8
ENDBRANCH   6   7
ENDBRANCH   1   6
BRANCH   5  30
HETATM   30  O   UNL     1       7.199  49.235  16.819  1.00  0.00    -0.390 OA
ATOM     31  HO  UNL     1       7.568  49.991  16.377  1.00  0.00     0.210 HD
ENDBRANCH   5  30
BRANCH   3  32
HETATM   32  N   UNL     1       8.114  44.863  16.882  1.00  0.00    -0.297 N 
HETATM   33  C   UNL     1       7.075  44.049  16.907  1.00  0.00     0.188 A 
HETATM   34  N   UNL     1       7.437  42.799  17.085  1.00  0.00    -0.346 N 
HETATM   35  C   UNL     1       8.736  42.784  17.173  1.00  0.00     0.122 A 
ATOM     36  HN  UNL     1       6.816  41.992  17.143  1.00  0.00     0.167 HD
HETATM   37  C   UNL     1       9.744  41.758  17.376  1.00  0.00     0.131 A 
HETATM   38  C   UNL     1       9.194  44.157  17.037  1.00  0.00     0.142 A 
HETATM   39  N   UNL     1       9.436  40.485  17.544  1.00  0.00    -0.383 N 
HETATM   40  N   UNL     1      10.991  42.157  17.424  1.00  0.00    -0.337 N 
ATOM     41  HN2 UNL     1       8.465  40.174  17.506  1.00  0.00     0.157 HD
ATOM     42  HN1 UNL     1      10.144  39.765  17.686  1.00  0.00     0.157 HD
HETATM   43  C   UNL     1      11.359  43.391  17.246  1.00  0.00     0.183 A 
ATOM     44  HN  UNL     1      11.713  41.462  17.611  1.00  0.00     0.168 HD
HETATM   45  N   UNL     1      10.514  44.369  17.105  1.00  0.00    -0.336 N 
ATOM     46  HN  UNL     1      10.866  45.325  17.045  1.00  0.00     0.168 HD
ENDBRANCH   3  32
BRANCH   4  47
HETATM   47  O   UNL     1       6.183  47.133  18.129  1.00  0.00    -0.388 OA
ATOM     48  HO  UNL     1       5.718  46.360  17.831  1.00  0.00     0.210 HD
ENDBRANCH   4  47
TORSDOF 12
ENDMDL
MODEL 18
REMARK VINA RESULT:   -10.592      2.204      3.490
REMARK INTER + INTRA:         -18.550
REMARK INTER:                 -16.627
REMARK INTRA:                  -1.923
REMARK UNBOUND:                -1.456
REMARK  12 active torsions:
REMARK  status: ('A' for Active; 'I' for Inactive)
REMARK    1  A    between atoms: P_1  and  O_4 
REMARK    2  A    between atoms: P_1  and  O_48 
REMARK    3  A    between atoms: O_4  and  C_5 
REMARK    4  A    between atoms: C_5  and  C_6 
REMARK    5  A    between atoms: C_8  and  N_9 
REMARK    6  A    between atoms: C_24  and  O_25 
REMARK    7  A    between atoms: C_27  and  O_28 
REMARK    8  A    between atoms: N_30  and  C_34 
REMARK    9  A    between atoms: C_34  and  C_35 
REMARK   10  A    between atoms: C_34  and  C_46 
REMARK   11  A    between atoms: C_35  and  C_36 
REMARK   12  A    between atoms: C_46  and  O_48 
ROOT
HETATM    1  C   UNL     1      11.364  45.358  11.468  1.00  0.00     0.180 C 
HETATM    2  O   UNL     1      10.648  44.776  12.529  1.00  0.00    -0.353 OA
HETATM    3  C   UNL     1       9.328  44.548  12.171  1.00  0.00     0.262 C 
HETATM    4  C   UNL     1       9.020  45.477  10.983  1.00  0.00     0.198 C 
HETATM    5  C   UNL     1      10.376  45.492  10.294  1.00  0.00     0.182 C 
ENDROOT
BRANCH   1   6
HETATM    6  C   UNL     1      11.943  46.685  11.893  1.00  0.00     0.216 C 
BRANCH   6   7
HETATM    7  O   UNL     1      11.949  46.876  13.256  1.00  0.00    -0.287 OA
BRANCH   7   8
HETATM    8  P   UNL     1      13.212  46.651  14.124  1.00  0.00     0.416 P 
HETATM    9  O   UNL     1      13.336  45.181  14.448  1.00  0.00    -0.624 OA
HETATM   10  O   UNL     1      14.367  47.416  13.523  1.00  0.00    -0.624 OA
BRANCH   8  11
HETATM   11  O   UNL     1      12.687  47.417  15.390  1.00  0.00    -0.211 OA
BRANCH  11  12
HETATM   12  C   UNL     1      13.405  47.847  16.511  1.00  0.00     0.299 C 
HETATM   13  O   UNL     1      13.152  47.381  17.534  1.00  0.00    -0.262 OA
BRANCH  12  14
HETATM   14  C   UNL     1      14.455  48.902  16.333  1.00  0.00     0.287 C 
BRANCH  14  15
HETATM   15  C   UNL     1      15.751  48.323  16.832  1.00  0.00     0.084 C 
BRANCH  15  16
HETATM   16  C   UNL     1      16.990  49.128  16.637  1.00  0.00    -0.028 A 
HETATM   17  C   UNL     1      17.914  49.612  17.534  1.00  0.00     0.096 A 
HETATM   18  N   UNL     1      18.916  50.220  16.909  1.00  0.00    -0.365 N 
HETATM   19  C   UNL     1      18.768  50.189  15.619  1.00  0.00     0.042 A 
ATOM     20  HN  UNL     1      19.705  50.658  17.384  1.00  0.00     0.165 HD
HETATM   21  C   UNL     1      19.454  50.670  14.530  1.00  0.00     0.030 A 
HETATM   22  C   UNL     1      17.531  49.482  15.344  1.00  0.00    -0.002 A 
HETATM   23  C   UNL     1      19.004  50.451  13.264  1.00  0.00     0.002 A 
HETATM   24  C   UNL     1      17.845  49.761  13.029  1.00  0.00     0.001 A 
HETATM   25  C   UNL     1      17.099  49.258  14.072  1.00  0.00     0.014 A 
ENDBRANCH  15  16
ENDBRANCH  14  15
BRANCH  14  26
HETATM   26  N   UNL     1      14.109  50.071  17.119  1.00  0.00    -0.066 N 
ATOM     27  HN3 UNL     1      13.773  50.839  16.538  1.00  0.00     0.275 HD
ATOM     28  HN2 UNL     1      13.264  49.926  17.672  1.00  0.00     0.275 HD
ATOM     29  HN1 UNL     1      14.905  50.344  17.695  1.00  0.00     0.275 HD
ENDBRANCH  14  26
ENDBRANCH  12  14
ENDBRANCH  11  12
ENDBRANCH   8  11
ENDBRANCH   7   8
ENDBRANCH   6   7
ENDBRANCH   1   6
BRANCH   5  30
HETATM   30  O   UNL     1      10.459  44.444   9.351  1.00  0.00    -0.390 OA
ATOM     31  HO  UNL     1       9.619  44.166   9.007  1.00  0.00     0.210 HD
ENDBRANCH   5  30
BRANCH   3  32
HETATM   32  N   UNL     1       8.426  44.689  13.322  1.00  0.00    -0.297 N 
HETATM   33  C   UNL     1       7.147  44.358  13.321  1.00  0.00     0.188 A 
HETATM   34  N   UNL     1       6.586  44.573  14.488  1.00  0.00    -0.346 N 
HETATM   35  C   UNL     1       7.508  45.046  15.277  1.00  0.00     0.122 A 
ATOM     36  HN  UNL     1       5.610  44.401  14.732  1.00  0.00     0.167 HD
HETATM   37  C   UNL     1       7.555  45.489  16.659  1.00  0.00     0.131 A 
HETATM   38  C   UNL     1       8.738  45.123  14.506  1.00  0.00     0.142 A 
HETATM   39  N   UNL     1       6.489  45.490  17.440  1.00  0.00    -0.383 N 
HETATM   40  N   UNL     1       8.708  45.928  17.100  1.00  0.00    -0.337 N 
ATOM     41  HN2 UNL     1       5.592  45.148  17.097  1.00  0.00     0.157 HD
ATOM     42  HN1 UNL     1       6.523  45.802  18.411  1.00  0.00     0.157 HD
HETATM   43  C   UNL     1       9.796  45.932  16.388  1.00  0.00     0.183 A 
ATOM     44  HN  UNL     1       8.755  46.288  18.053  1.00  0.00     0.168 HD
HETATM   45  N   UNL     1       9.822  45.594  15.133  1.00  0.00    -0.336 N 
ATOM     46  HN  UNL     1      10.694  45.692  14.611  1.00  0.00     0.168 HD
ENDBRANCH   3  32
BRANCH   4  47
HETATM   47  O   UNL     1       7.975  45.049  10.143  1.00  0.00    -0.388 OA
ATOM     48  HO  UNL     1       7.238  44.643  10.586  1.00  0.00     0.210 HD
ENDBRANCH   4  47
TORSDOF 12
ENDMDL
MODEL 19
REMARK VINA RESULT:   -10.538      5.161      6.972
REMARK INTER + INTRA:         -18.463
REMARK INTER:                 -16.454
REMARK INTRA:                  -2.009
REMARK UNBOUND:                -1.456
REMARK  12 active torsions:
REMARK  status: ('A' for Active; 'I' for Inactive)
REMARK    1  A    between atoms: P_1  and  O_4 
REMARK    2  A    between atoms: P_1  and  O_48 
REMARK    3  A    between atoms: O_4  and  C_5 
REMARK    4  A    between atoms: C_5  and  C_6 
REMARK    5  A    between atoms: C_8  and  N_9 
REMARK    6  A    between atoms: C_24  and  O_25 
REMARK    7  A    between atoms: C_27  and  O_28 
REMARK    8  A    between atoms: N_30  and  C_34 
REMARK    9  A    between atoms: C_34  and  C_35 
REMARK   10  A    between atoms: C_34  and  C_46 
REMARK   11  A    between atoms: C_35  and  C_36 
REMARK   12  A    between atoms: C_46  and  O_48 
ROOT
HETATM    1  C   UNL     1       7.656  47.766  16.246  1.00  0.00     0.180 C 
HETATM    2  O   UNL     1       6.834  47.308  17.290  1.00  0.00    -0.353 OA
HETATM    3  C   UNL     1       6.448  48.354  18.114  1.00  0.00     0.262 C 
HETATM    4  C   UNL     1       7.463  49.490  17.900  1.00  0.00     0.198 C 
HETATM    5  C   UNL     1       7.783  49.291  16.426  1.00  0.00     0.182 C 
ENDROOT
BRANCH   1   6
HETATM    6  C   UNL     1       8.992  47.065  16.284  1.00  0.00     0.216 C 
BRANCH   6   7
HETATM    7  O   UNL     1      10.067  47.924  16.321  1.00  0.00    -0.287 OA
BRANCH   7   8
HETATM    8  P   UNL     1      11.188  47.811  17.385  1.00  0.00     0.416 P 
HETATM    9  O   UNL     1      11.367  49.149  18.061  1.00  0.00    -0.624 OA
HETATM   10  O   UNL     1      10.977  46.552  18.193  1.00  0.00    -0.624 OA
BRANCH   8  11
HETATM   11  O   UNL     1      12.364  47.583  16.370  1.00  0.00    -0.211 OA
BRANCH  11  12
HETATM   12  C   UNL     1      13.728  47.425  16.635  1.00  0.00     0.299 C 
HETATM   13  O   UNL     1      14.081  46.438  17.112  1.00  0.00    -0.262 OA
BRANCH  12  14
HETATM   14  C   UNL     1      14.661  48.550  16.305  1.00  0.00     0.287 C 
BRANCH  14  15
HETATM   15  C   UNL     1      16.036  48.126  16.747  1.00  0.00     0.084 C 
BRANCH  15  16
HETATM   16  C   UNL     1      17.158  49.085  16.537  1.00  0.00    -0.028 A 
HETATM   17  C   UNL     1      18.012  49.699  17.423  1.00  0.00     0.096 A 
HETATM   18  N   UNL     1      18.923  50.425  16.786  1.00  0.00    -0.365 N 
HETATM   19  C   UNL     1      18.778  50.358  15.497  1.00  0.00     0.042 A 
ATOM     20  HN  UNL     1      19.649  50.970  17.252  1.00  0.00     0.165 HD
HETATM   21  C   UNL     1      19.392  50.910  14.400  1.00  0.00     0.030 A 
HETATM   22  C   UNL     1      17.644  49.490  15.237  1.00  0.00    -0.002 A 
HETATM   23  C   UNL     1      18.973  50.616  13.138  1.00  0.00     0.002 A 
HETATM   24  C   UNL     1      17.914  49.776  12.917  1.00  0.00     0.001 A 
HETATM   25  C   UNL     1      17.243  49.194  13.969  1.00  0.00     0.014 A 
ENDBRANCH  15  16
ENDBRANCH  14  15
BRANCH  14  26
HETATM   26  N   UNL     1      14.263  49.742  17.027  1.00  0.00    -0.066 N 
ATOM     27  HN3 UNL     1      14.578  50.595  16.566  1.00  0.00     0.275 HD
ATOM     28  HN2 UNL     1      13.258  49.908  16.971  1.00  0.00     0.275 HD
ATOM     29  HN1 UNL     1      14.589  49.684  17.992  1.00  0.00     0.275 HD
ENDBRANCH  14  26
ENDBRANCH  12  14
ENDBRANCH  11  12
ENDBRANCH   8  11
ENDBRANCH   7   8
ENDBRANCH   6   7
ENDBRANCH   1   6
BRANCH   5  30
HETATM   30  O   UNL     1       6.894  50.040  15.625  1.00  0.00    -0.390 OA
ATOM     31  HO  UNL     1       7.325  50.637  15.024  1.00  0.00     0.210 HD
ENDBRANCH   5  30
BRANCH   3  32
HETATM   32  N   UNL     1       6.291  47.913  19.507  1.00  0.00    -0.297 N 
HETATM   33  C   UNL     1       5.264  48.212  20.281  1.00  0.00     0.188 A 
HETATM   34  N   UNL     1       5.375  47.671  21.472  1.00  0.00    -0.346 N 
HETATM   35  C   UNL     1       6.490  46.999  21.486  1.00  0.00     0.122 A 
ATOM     36  HN  UNL     1       4.712  47.761  22.242  1.00  0.00     0.167 HD
HETATM   37  C   UNL     1       7.198  46.195  22.468  1.00  0.00     0.131 A 
HETATM   38  C   UNL     1       7.105  47.154  20.178  1.00  0.00     0.142 A 
HETATM   39  N   UNL     1       6.745  46.016  23.696  1.00  0.00    -0.383 N 
HETATM   40  N   UNL     1       8.341  45.677  22.093  1.00  0.00    -0.337 N 
ATOM     41  HN2 UNL     1       5.855  46.419  23.987  1.00  0.00     0.157 HD
ATOM     42  HN1 UNL     1       7.242  45.452  24.385  1.00  0.00     0.157 HD
HETATM   43  C   UNL     1       8.829  45.800  20.895  1.00  0.00     0.183 A 
ATOM     44  HN  UNL     1       8.878  45.147  22.780  1.00  0.00     0.168 HD
HETATM   45  N   UNL     1       8.277  46.540  19.978  1.00  0.00    -0.336 N 
ATOM     46  HN  UNL     1       8.750  46.655  19.082  1.00  0.00     0.168 HD
ENDBRANCH   3  32
BRANCH   4  47
HETATM   47  O   UNL     1       6.988  50.782  18.195  1.00  0.00    -0.388 OA
ATOM     48  HO  UNL     1       6.465  51.188  17.512  1.00  0.00     0.210 HD
ENDBRANCH   4  47
TORSDOF 12
ENDMDL
MODEL 20
REMARK VINA RESULT:   -10.488      4.083      6.609
REMARK INTER + INTRA:         -18.382
REMARK INTER:                 -16.545
REMARK INTRA:                  -1.837
REMARK UNBOUND:                -1.456
REMARK  12 active torsions:
REMARK  status: ('A' for Active; 'I' for Inactive)
REMARK    1  A    between atoms: P_1  and  O_4 
REMARK    2  A    between atoms: P_1  and  O_48 
REMARK    3  A    between atoms: O_4  and  C_5 
REMARK    4  A    between atoms: C_5  and  C_6 
REMARK    5  A    between atoms: C_8  and  N_9 
REMARK    6  A    between atoms: C_24  and  O_25 
REMARK    7  A    between atoms: C_27  and  O_28 
REMARK    8  A    between atoms: N_30  and  C_34 
REMARK    9  A    between atoms: C_34  and  C_35 
REMARK   10  A    between atoms: C_34  and  C_46 
REMARK   11  A    between atoms: C_35  and  C_36 
REMARK   12  A    between atoms: C_46  and  O_48 
ROOT
HETATM    1  C   UNL     1      13.032  44.847  12.622  1.00  0.00     0.180 C 
HETATM    2  O   UNL     1      11.857  44.311  12.067  1.00  0.00    -0.353 OA
HETATM    3  C   UNL     1      11.133  45.287  11.400  1.00  0.00     0.262 C 
HETATM    4  C   UNL     1      11.594  46.646  11.957  1.00  0.00     0.198 C 
HETATM    5  C   UNL     1      13.057  46.339  12.238  1.00  0.00     0.182 C 
ENDROOT
BRANCH   1   6
HETATM    6  C   UNL     1      13.051  44.633  14.115  1.00  0.00     0.216 C 
BRANCH   6   7
HETATM    7  O   UNL     1      12.552  45.697  14.834  1.00  0.00    -0.287 OA
BRANCH   7   8
HETATM    8  P   UNL     1      11.838  45.520  16.197  1.00  0.00     0.416 P 
HETATM    9  O   UNL     1      12.654  44.595  17.068  1.00  0.00    -0.624 OA
HETATM   10  O   UNL     1      11.392  46.872  16.700  1.00  0.00    -0.624 OA
BRANCH   8  11
HETATM   11  O   UNL     1      10.594  44.741  15.638  1.00  0.00    -0.211 OA
BRANCH  11  12
HETATM   12  C   UNL     1       9.436  44.344  16.313  1.00  0.00     0.299 C 
HETATM   13  O   UNL     1       9.478  43.387  16.953  1.00  0.00    -0.262 OA
BRANCH  12  14
HETATM   14  C   UNL     1       8.194  45.169  16.159  1.00  0.00     0.287 C 
BRANCH  14  15
HETATM   15  C   UNL     1       8.038  45.970  17.424  1.00  0.00     0.084 C 
BRANCH  15  16
HETATM   16  C   UNL     1       7.805  47.436  17.290  1.00  0.00    -0.028 A 
HETATM   17  C   UNL     1       8.293  48.360  16.395  1.00  0.00     0.096 A 
HETATM   18  N   UNL     1       7.754  49.556  16.598  1.00  0.00    -0.365 N 
HETATM   19  C   UNL     1       6.902  49.540  17.579  1.00  0.00     0.042 A 
ATOM     20  HN  UNL     1       7.982  50.387  16.053  1.00  0.00     0.165 HD
HETATM   21  C   UNL     1       6.108  50.460  18.218  1.00  0.00     0.030 A 
HETATM   22  C   UNL     1       6.861  48.183  18.091  1.00  0.00    -0.002 A 
HETATM   23  C   UNL     1       5.300  50.094  19.251  1.00  0.00     0.002 A 
HETATM   24  C   UNL     1       5.262  48.802  19.702  1.00  0.00     0.001 A 
HETATM   25  C   UNL     1       6.039  47.827  19.117  1.00  0.00     0.014 A 
ENDBRANCH  15  16
ENDBRANCH  14  15
BRANCH  14  26
HETATM   26  N   UNL     1       7.048  44.297  15.990  1.00  0.00    -0.066 N 
ATOM     27  HN3 UNL     1       6.339  44.708  15.383  1.00  0.00     0.275 HD
ATOM     28  HN2 UNL     1       7.268  43.478  15.424  1.00  0.00     0.275 HD
ATOM     29  HN1 UNL     1       6.672  44.044  16.904  1.00  0.00     0.275 HD
ENDBRANCH  14  26
ENDBRANCH  12  14
ENDBRANCH  11  12
ENDBRANCH   8  11
ENDBRANCH   7   8
ENDBRANCH   6   7
ENDBRANCH   1   6
BRANCH   5  30
HETATM   30  O   UNL     1      13.846  46.625  11.102  1.00  0.00    -0.390 OA
ATOM     31  HO  UNL     1      13.400  47.145  10.443  1.00  0.00     0.210 HD
ENDBRANCH   5  30
BRANCH   3  32
HETATM   32  N   UNL     1       9.687  45.038  11.485  1.00  0.00    -0.297 N 
HETATM   33  C   UNL     1       8.996  44.988  12.609  1.00  0.00     0.188 A 
HETATM   34  N   UNL     1       7.720  44.768  12.390  1.00  0.00    -0.346 N 
HETATM   35  C   UNL     1       7.562  44.679  11.100  1.00  0.00     0.122 A 
ATOM     36  HN  UNL     1       6.990  44.684  13.097  1.00  0.00     0.167 HD
HETATM   37  C   UNL     1       6.436  44.442  10.213  1.00  0.00     0.131 A 
HETATM   38  C   UNL     1       8.869  44.860  10.491  1.00  0.00     0.142 A 
HETATM   39  N   UNL     1       5.212  44.233  10.663  1.00  0.00    -0.383 N 
HETATM   40  N   UNL     1       6.694  44.407   8.929  1.00  0.00    -0.337 N 
ATOM     41  HN2 UNL     1       5.012  44.260  11.662  1.00  0.00     0.157 HD
ATOM     42  HN1 UNL     1       4.422  44.066  10.039  1.00  0.00     0.157 HD
HETATM   43  C   UNL     1       7.871  44.626   8.425  1.00  0.00     0.183 A 
ATOM     44  HN  UNL     1       5.927  44.196   8.289  1.00  0.00     0.168 HD
HETATM   45  N   UNL     1       8.934  44.799   9.155  1.00  0.00    -0.336 N 
ATOM     46  HN  UNL     1       9.841  44.890   8.698  1.00  0.00     0.168 HD
ENDBRANCH   3  32
BRANCH   4  47
HETATM   47  O   UNL     1      11.413  47.742  11.093  1.00  0.00    -0.388 OA
ATOM     48  HO  UNL     1      10.571  47.776  10.652  1.00  0.00     0.210 HD
ENDBRANCH   4  47
TORSDOF 12
ENDMDL
