MODEL 1
REMARK VINA RESULT:   -10.181      0.000      0.000
REMARK INTER + INTRA:         -14.787
REMARK INTER:                 -13.157
REMARK INTRA:                  -1.631
REMARK UNBOUND:                -1.631
REMARK  5 active torsions:
REMARK  status: ('A' for Active; 'I' for Inactive)
REMARK    1  A    between atoms: C_1  and  C_9 
REMARK    2  A    between atoms: N_2  and  C_8 
REMARK    3  A    between atoms: C_9  and  N_21 
REMARK    4  A    between atoms: C_12  and  S_26 
REMARK    5  A    between atoms: N_21  and  S_26 
ROOT
HETATM    1  C   UNL     1      -0.996   5.546  31.295  1.00  0.00    -0.039 A 
HETATM    2  N   UNL     1       2.371   7.475  29.652  1.00  0.00    -0.314 N 
HETATM    3  C   UNL     1       0.021   7.508  30.323  1.00  0.00     0.031 A 
HETATM    4  C   UNL     1       1.242   6.846  30.226  1.00  0.00     0.048 A 
HETATM    5  C   UNL     1       1.357   5.521  30.690  1.00  0.00    -0.003 A 
HETATM    6  C   UNL     1       0.226   4.892  31.221  1.00  0.00     0.023 A 
HETATM    7  C   UNL     1       2.650   4.872  30.579  1.00  0.00    -0.044 A 
HETATM    8  C   UNL     1       2.832   3.460  31.057  1.00  0.00     0.049 C 
HETATM    9  C   UNL     1      -1.081   6.858  30.851  1.00  0.00     0.011 A 
HETATM   10  C   UNL     1       3.676   5.555  30.040  1.00  0.00     0.082 A 
HETATM   11  C   UNL     1       3.609   6.875  29.555  1.00  0.00     0.248 A 
HETATM   12  O   UNL     1       4.565   7.494  29.095  1.00  0.00    -0.268 OA
ENDROOT
BRANCH   1  13
HETATM   13  C   UNL     1      -2.225   4.833  31.808  1.00  0.00     0.170 C 
BRANCH  13  14
HETATM   14  N   UNL     1      -2.033   4.150  33.100  1.00  0.00    -0.311 N 
ATOM     15  HN  UNL     1      -2.134   3.136  33.144  1.00  0.00     0.172 HD
BRANCH  14  16
HETATM   16  S   UNL     1      -1.669   4.959  34.447  1.00  0.00     0.259 S 
HETATM   17  O   UNL     1      -2.212   6.275  34.289  1.00  0.00    -0.201 OA
HETATM   18  O   UNL     1      -2.105   4.156  35.546  1.00  0.00    -0.201 OA
BRANCH  16  19
HETATM   19  C   UNL     1       0.065   5.105  34.537  1.00  0.00     0.079 A 
HETATM   20  C   UNL     1       0.855   3.964  34.628  1.00  0.00     0.025 A 
HETATM   21  C   UNL     1       2.227   4.081  34.690  1.00  0.00     0.002 A 
HETATM   22  C   UNL     1       2.821   5.328  34.665  1.00  0.00     0.000 A 
HETATM   23  C   UNL     1       2.039   6.466  34.578  1.00  0.00     0.002 A 
HETATM   24  C   UNL     1       0.666   6.358  34.515  1.00  0.00     0.025 A 
ENDBRANCH  16  19
ENDBRANCH  14  16
ENDBRANCH  13  14
ENDBRANCH   1  13
BRANCH   2  25
HETATM   25  C   UNL     1       2.247   8.821  29.067  1.00  0.00     0.128 C 
HETATM   26  C   UNL     1       2.480   9.890  30.101  1.00  0.00     0.027 C 
ENDBRANCH   2  25
TORSDOF 5
ENDMDL
MODEL 2
REMARK VINA RESULT:    -8.978      2.472      3.729
REMARK INTER + INTRA:         -13.233
REMARK INTER:                 -11.618
REMARK INTRA:                  -1.614
REMARK UNBOUND:                -1.631
REMARK  5 active torsions:
REMARK  status: ('A' for Active; 'I' for Inactive)
REMARK    1  A    between atoms: C_1  and  C_9 
REMARK    2  A    between atoms: N_2  and  C_8 
REMARK    3  A    between atoms: C_9  and  N_21 
REMARK    4  A    between atoms: C_12  and  S_26 
REMARK    5  A    between atoms: N_21  and  S_26 
ROOT
HETATM    1  C   UNL     1       2.969   6.562  33.725  1.00  0.00    -0.039 A 
HETATM    2  N   UNL     1       2.776   8.460  29.968  1.00  0.00    -0.314 N 
HETATM    3  C   UNL     1       3.710   8.298  32.220  1.00  0.00     0.031 A 
HETATM    4  C   UNL     1       2.868   7.815  31.223  1.00  0.00     0.048 A 
HETATM    5  C   UNL     1       2.077   6.675  31.467  1.00  0.00    -0.003 A 
HETATM    6  C   UNL     1       2.145   6.065  32.725  1.00  0.00     0.023 A 
HETATM    7  C   UNL     1       1.221   6.199  30.397  1.00  0.00    -0.044 A 
HETATM    8  C   UNL     1       0.356   4.988  30.601  1.00  0.00     0.049 C 
HETATM    9  C   UNL     1       3.754   7.674  33.455  1.00  0.00     0.011 A 
HETATM   10  C   UNL     1       1.214   6.862  29.226  1.00  0.00     0.082 A 
HETATM   11  C   UNL     1       1.977   8.010  28.937  1.00  0.00     0.248 A 
HETATM   12  O   UNL     1       1.982   8.584  27.851  1.00  0.00    -0.268 OA
ENDROOT
BRANCH   1  13
HETATM   13  C   UNL     1       2.981   5.935  35.099  1.00  0.00     0.170 C 
BRANCH  13  14
HETATM   14  N   UNL     1       2.491   6.819  36.172  1.00  0.00    -0.311 N 
ATOM     15  HN  UNL     1       3.112   7.539  36.542  1.00  0.00     0.172 HD
BRANCH  14  16
HETATM   16  S   UNL     1       1.003   6.682  36.779  1.00  0.00     0.259 S 
HETATM   17  O   UNL     1       1.003   5.500  37.589  1.00  0.00    -0.201 OA
HETATM   18  O   UNL     1       0.682   7.937  37.383  1.00  0.00    -0.201 OA
BRANCH  16  19
HETATM   19  C   UNL     1      -0.098   6.420  35.455  1.00  0.00     0.079 A 
HETATM   20  C   UNL     1      -0.498   7.489  34.662  1.00  0.00     0.025 A 
HETATM   21  C   UNL     1      -1.363   7.280  33.608  1.00  0.00     0.002 A 
HETATM   22  C   UNL     1      -1.836   6.010  33.340  1.00  0.00     0.000 A 
HETATM   23  C   UNL     1      -1.443   4.942  34.128  1.00  0.00     0.002 A 
HETATM   24  C   UNL     1      -0.579   5.144  35.182  1.00  0.00     0.025 A 
ENDBRANCH  16  19
ENDBRANCH  14  16
ENDBRANCH  13  14
ENDBRANCH   1  13
BRANCH   2  25
HETATM   25  C   UNL     1       3.513   9.712  29.726  1.00  0.00     0.128 C 
HETATM   26  C   UNL     1       2.637  10.915  29.956  1.00  0.00     0.027 C 
ENDBRANCH   2  25
TORSDOF 5
ENDMDL
MODEL 3
REMARK VINA RESULT:    -8.944      1.311      3.142
REMARK INTER + INTRA:         -13.189
REMARK INTER:                 -11.362
REMARK INTRA:                  -1.827
REMARK UNBOUND:                -1.631
REMARK  5 active torsions:
REMARK  status: ('A' for Active; 'I' for Inactive)
REMARK    1  A    between atoms: C_1  and  C_9 
REMARK    2  A    between atoms: N_2  and  C_8 
REMARK    3  A    between atoms: C_9  and  N_21 
REMARK    4  A    between atoms: C_12  and  S_26 
REMARK    5  A    between atoms: N_21  and  S_26 
ROOT
HETATM    1  C   UNL     1       0.794   5.243  34.189  1.00  0.00    -0.039 A 
HETATM    2  N   UNL     1       3.041   7.261  31.249  1.00  0.00    -0.314 N 
HETATM    3  C   UNL     1       1.656   7.300  33.262  1.00  0.00     0.031 A 
HETATM    4  C   UNL     1       2.306   6.592  32.256  1.00  0.00     0.048 A 
HETATM    5  C   UNL     1       2.222   5.186  32.223  1.00  0.00    -0.003 A 
HETATM    6  C   UNL     1       1.461   4.534  33.200  1.00  0.00     0.023 A 
HETATM    7  C   UNL     1       2.924   4.487  31.163  1.00  0.00    -0.044 A 
HETATM    8  C   UNL     1       2.869   2.989  31.078  1.00  0.00     0.049 C 
HETATM    9  C   UNL     1       0.909   6.626  34.213  1.00  0.00     0.011 A 
HETATM   10  C   UNL     1       3.618   5.204  30.260  1.00  0.00     0.082 A 
HETATM   11  C   UNL     1       3.725   6.608  30.245  1.00  0.00     0.248 A 
HETATM   12  O   UNL     1       4.390   7.244  29.431  1.00  0.00    -0.268 OA
ENDROOT
BRANCH   1  13
HETATM   13  C   UNL     1      -0.078   4.532  35.196  1.00  0.00     0.170 C 
BRANCH  13  14
HETATM   14  N   UNL     1      -1.266   3.881  34.614  1.00  0.00    -0.311 N 
ATOM     15  HN  UNL     1      -1.302   2.862  34.572  1.00  0.00     0.172 HD
BRANCH  14  16
HETATM   16  S   UNL     1      -2.511   4.731  34.041  1.00  0.00     0.259 S 
HETATM   17  O   UNL     1      -3.532   3.782  33.709  1.00  0.00    -0.201 OA
HETATM   18  O   UNL     1      -2.796   5.751  35.000  1.00  0.00    -0.201 OA
BRANCH  16  19
HETATM   19  C   UNL     1      -2.003   5.504  32.564  1.00  0.00     0.079 A 
HETATM   20  C   UNL     1      -1.995   6.891  32.472  1.00  0.00     0.025 A 
HETATM   21  C   UNL     1      -1.583   7.501  31.307  1.00  0.00     0.002 A 
HETATM   22  C   UNL     1      -1.183   6.739  30.227  1.00  0.00     0.000 A 
HETATM   23  C   UNL     1      -1.192   5.358  30.311  1.00  0.00     0.002 A 
HETATM   24  C   UNL     1      -1.601   4.740  31.474  1.00  0.00     0.025 A 
ENDBRANCH  16  19
ENDBRANCH  14  16
ENDBRANCH  13  14
ENDBRANCH   1  13
BRANCH   2  25
HETATM   25  C   UNL     1       3.057   8.733  31.203  1.00  0.00     0.128 C 
HETATM   26  C   UNL     1       1.881   9.268  30.429  1.00  0.00     0.027 C 
ENDBRANCH   2  25
TORSDOF 5
ENDMDL
MODEL 4
REMARK VINA RESULT:    -8.899      1.516      3.169
REMARK INTER + INTRA:         -13.132
REMARK INTER:                 -11.300
REMARK INTRA:                  -1.832
REMARK UNBOUND:                -1.631
REMARK  5 active torsions:
REMARK  status: ('A' for Active; 'I' for Inactive)
REMARK    1  A    between atoms: C_1  and  C_9 
REMARK    2  A    between atoms: N_2  and  C_8 
REMARK    3  A    between atoms: C_9  and  N_21 
REMARK    4  A    between atoms: C_12  and  S_26 
REMARK    5  A    between atoms: N_21  and  S_26 
ROOT
HETATM    1  C   UNL     1       1.981   5.105  33.506  1.00  0.00    -0.039 A 
HETATM    2  N   UNL     1       2.872   7.948  30.526  1.00  0.00    -0.314 N 
HETATM    3  C   UNL     1       2.806   7.285  32.877  1.00  0.00     0.031 A 
HETATM    4  C   UNL     1       2.601   6.992  31.532  1.00  0.00     0.048 A 
HETATM    5  C   UNL     1       2.100   5.729  31.160  1.00  0.00    -0.003 A 
HETATM    6  C   UNL     1       1.798   4.802  32.163  1.00  0.00     0.023 A 
HETATM    7  C   UNL     1       1.911   5.461  29.746  1.00  0.00    -0.044 A 
HETATM    8  C   UNL     1       1.380   4.132  29.292  1.00  0.00     0.049 C 
HETATM    9  C   UNL     1       2.496   6.347  33.847  1.00  0.00     0.011 A 
HETATM   10  C   UNL     1       2.217   6.423  28.856  1.00  0.00     0.082 A 
HETATM   11  C   UNL     1       2.711   7.702  29.178  1.00  0.00     0.248 A 
HETATM   12  O   UNL     1       3.015   8.556  28.350  1.00  0.00    -0.268 OA
ENDROOT
BRANCH   1  13
HETATM   13  C   UNL     1       1.588   4.120  34.581  1.00  0.00     0.170 C 
BRANCH  13  14
HETATM   14  N   UNL     1       0.152   3.784  34.598  1.00  0.00    -0.311 N 
ATOM     15  HN  UNL     1      -0.131   2.815  34.449  1.00  0.00     0.172 HD
BRANCH  14  16
HETATM   16  S   UNL     1      -0.984   4.902  34.843  1.00  0.00     0.259 S 
HETATM   17  O   UNL     1      -2.191   4.194  35.146  1.00  0.00    -0.201 OA
HETATM   18  O   UNL     1      -0.461   5.825  35.801  1.00  0.00    -0.201 OA
BRANCH  16  19
HETATM   19  C   UNL     1      -1.231   5.758  33.345  1.00  0.00     0.079 A 
HETATM   20  C   UNL     1      -0.992   7.126  33.279  1.00  0.00     0.025 A 
HETATM   21  C   UNL     1      -1.179   7.800  32.091  1.00  0.00     0.002 A 
HETATM   22  C   UNL     1      -1.607   7.122  30.967  1.00  0.00     0.000 A 
HETATM   23  C   UNL     1      -1.850   5.761  31.028  1.00  0.00     0.002 A 
HETATM   24  C   UNL     1      -1.664   5.080  32.212  1.00  0.00     0.025 A 
ENDBRANCH  16  19
ENDBRANCH  14  16
ENDBRANCH  13  14
ENDBRANCH   1  13
BRANCH   2  25
HETATM   25  C   UNL     1       3.297   9.309  30.897  1.00  0.00     0.128 C 
HETATM   26  C   UNL     1       2.184  10.303  30.696  1.00  0.00     0.027 C 
ENDBRANCH   2  25
TORSDOF 5
ENDMDL
MODEL 5
REMARK VINA RESULT:    -8.791      2.100      5.984
REMARK INTER + INTRA:         -12.992
REMARK INTER:                 -11.385
REMARK INTRA:                  -1.607
REMARK UNBOUND:                -1.631
REMARK  5 active torsions:
REMARK  status: ('A' for Active; 'I' for Inactive)
REMARK    1  A    between atoms: C_1  and  C_9 
REMARK    2  A    between atoms: N_2  and  C_8 
REMARK    3  A    between atoms: C_9  and  N_21 
REMARK    4  A    between atoms: C_12  and  S_26 
REMARK    5  A    between atoms: N_21  and  S_26 
ROOT
HETATM    1  C   UNL     1       1.282   8.374  31.830  1.00  0.00    -0.039 A 
HETATM    2  N   UNL     1      -1.046   5.558  33.931  1.00  0.00    -0.314 N 
HETATM    3  C   UNL     1      -0.845   7.305  32.234  1.00  0.00     0.031 A 
HETATM    4  C   UNL     1      -0.268   6.488  33.201  1.00  0.00     0.048 A 
HETATM    5  C   UNL     1       1.109   6.595  33.477  1.00  0.00    -0.003 A 
HETATM    6  C   UNL     1       1.864   7.544  32.779  1.00  0.00     0.023 A 
HETATM    7  C   UNL     1       1.671   5.717  34.486  1.00  0.00    -0.044 A 
HETATM    8  C   UNL     1       3.134   5.787  34.821  1.00  0.00     0.049 C 
HETATM    9  C   UNL     1      -0.072   8.236  31.561  1.00  0.00     0.011 A 
HETATM   10  C   UNL     1       0.861   4.846  35.115  1.00  0.00     0.082 A 
HETATM   11  C   UNL     1      -0.521   4.708  34.881  1.00  0.00     0.248 A 
HETATM   12  O   UNL     1      -1.240   3.884  35.442  1.00  0.00    -0.268 OA
ENDROOT
BRANCH   1  13
HETATM   13  C   UNL     1       2.095   9.440  31.133  1.00  0.00     0.170 C 
BRANCH  13  14
HETATM   14  N   UNL     1       3.298   8.932  30.449  1.00  0.00    -0.311 N 
ATOM     15  HN  UNL     1       4.217   9.181  30.815  1.00  0.00     0.172 HD
BRANCH  14  16
HETATM   16  S   UNL     1       3.204   7.997  29.139  1.00  0.00     0.259 S 
HETATM   17  O   UNL     1       2.070   8.455  28.393  1.00  0.00    -0.201 OA
HETATM   18  O   UNL     1       4.493   8.013  28.522  1.00  0.00    -0.201 OA
BRANCH  16  19
HETATM   19  C   UNL     1       2.875   6.368  29.662  1.00  0.00     0.079 A 
HETATM   20  C   UNL     1       3.878   5.613  30.259  1.00  0.00     0.025 A 
HETATM   21  C   UNL     1       3.614   4.327  30.680  1.00  0.00     0.002 A 
HETATM   22  C   UNL     1       2.355   3.784  30.508  1.00  0.00     0.000 A 
HETATM   23  C   UNL     1       1.354   4.530  29.911  1.00  0.00     0.002 A 
HETATM   24  C   UNL     1       1.610   5.816  29.488  1.00  0.00     0.025 A 
ENDBRANCH  16  19
ENDBRANCH  14  16
ENDBRANCH  13  14
ENDBRANCH   1  13
BRANCH   2  25
HETATM   25  C   UNL     1      -2.504   5.502  33.734  1.00  0.00     0.128 C 
HETATM   26  C   UNL     1      -2.874   4.498  32.674  1.00  0.00     0.027 C 
ENDBRANCH   2  25
TORSDOF 5
ENDMDL
MODEL 6
REMARK VINA RESULT:    -8.246      1.574      3.830
REMARK INTER + INTRA:         -12.288
REMARK INTER:                 -11.327
REMARK INTRA:                  -0.961
REMARK UNBOUND:                -1.631
REMARK  5 active torsions:
REMARK  status: ('A' for Active; 'I' for Inactive)
REMARK    1  A    between atoms: C_1  and  C_9 
REMARK    2  A    between atoms: N_2  and  C_8 
REMARK    3  A    between atoms: C_9  and  N_21 
REMARK    4  A    between atoms: C_12  and  S_26 
REMARK    5  A    between atoms: N_21  and  S_26 
ROOT
HETATM    1  C   UNL     1       1.960   4.693  33.342  1.00  0.00    -0.039 A 
HETATM    2  N   UNL     1       3.934   6.237  29.953  1.00  0.00    -0.314 N 
HETATM    3  C   UNL     1       3.417   4.371  31.444  1.00  0.00     0.031 A 
HETATM    4  C   UNL     1       3.255   5.702  31.073  1.00  0.00     0.048 A 
HETATM    5  C   UNL     1       2.416   6.541  31.831  1.00  0.00    -0.003 A 
HETATM    6  C   UNL     1       1.778   6.015  32.960  1.00  0.00     0.023 A 
HETATM    7  C   UNL     1       2.267   7.920  31.403  1.00  0.00    -0.044 A 
HETATM    8  C   UNL     1       1.384   8.860  32.173  1.00  0.00     0.049 C 
HETATM    9  C   UNL     1       2.775   3.880  32.568  1.00  0.00     0.011 A 
HETATM   10  C   UNL     1       2.933   8.338  30.311  1.00  0.00     0.082 A 
HETATM   11  C   UNL     1       3.789   7.541  29.527  1.00  0.00     0.248 A 
HETATM   12  O   UNL     1       4.364   7.930  28.514  1.00  0.00    -0.268 OA
ENDROOT
BRANCH   1  13
HETATM   13  C   UNL     1       1.320   4.157  34.601  1.00  0.00     0.170 C 
BRANCH  13  14
HETATM   14  N   UNL     1      -0.101   3.793  34.449  1.00  0.00    -0.311 N 
ATOM     15  HN  UNL     1      -0.347   2.819  34.275  1.00  0.00     0.172 HD
BRANCH  14  16
HETATM   16  S   UNL     1      -1.278   4.890  34.551  1.00  0.00     0.259 S 
HETATM   17  O   UNL     1      -2.479   4.170  34.855  1.00  0.00    -0.201 OA
HETATM   18  O   UNL     1      -0.829   5.903  35.454  1.00  0.00    -0.201 OA
BRANCH  16  19
HETATM   19  C   UNL     1      -1.477   5.616  32.979  1.00  0.00     0.079 A 
HETATM   20  C   UNL     1      -1.713   6.982  32.869  1.00  0.00     0.025 A 
HETATM   21  C   UNL     1      -1.861   7.556  31.625  1.00  0.00     0.002 A 
HETATM   22  C   UNL     1      -1.780   6.779  30.486  1.00  0.00     0.000 A 
HETATM   23  C   UNL     1      -1.550   5.418  30.590  1.00  0.00     0.002 A 
HETATM   24  C   UNL     1      -1.400   4.837  31.831  1.00  0.00     0.025 A 
ENDBRANCH  16  19
ENDBRANCH  14  16
ENDBRANCH  13  14
ENDBRANCH   1  13
BRANCH   2  25
HETATM   25  C   UNL     1       4.896   5.407  29.209  1.00  0.00     0.128 C 
HETATM   26  C   UNL     1       6.272   6.018  29.225  1.00  0.00     0.027 C 
ENDBRANCH   2  25
TORSDOF 5
ENDMDL
MODEL 7
REMARK VINA RESULT:    -8.218      0.951      2.561
REMARK INTER + INTRA:         -12.251
REMARK INTER:                 -11.435
REMARK INTRA:                  -0.816
REMARK UNBOUND:                -1.631
REMARK  5 active torsions:
REMARK  status: ('A' for Active; 'I' for Inactive)
REMARK    1  A    between atoms: C_1  and  C_9 
REMARK    2  A    between atoms: N_2  and  C_8 
REMARK    3  A    between atoms: C_9  and  N_21 
REMARK    4  A    between atoms: C_12  and  S_26 
REMARK    5  A    between atoms: N_21  and  S_26 
ROOT
HETATM    1  C   UNL     1      -0.587   5.785  31.003  1.00  0.00    -0.039 A 
HETATM    2  N   UNL     1       3.521   5.593  30.085  1.00  0.00    -0.314 N 
HETATM    3  C   UNL     1       1.422   4.488  30.670  1.00  0.00     0.031 A 
HETATM    4  C   UNL     1       2.136   5.643  30.369  1.00  0.00     0.048 A 
HETATM    5  C   UNL     1       1.480   6.889  30.361  1.00  0.00    -0.003 A 
HETATM    6  C   UNL     1       0.118   6.936  30.680  1.00  0.00     0.023 A 
HETATM    7  C   UNL     1       2.260   8.067  30.031  1.00  0.00    -0.044 A 
HETATM    8  C   UNL     1       1.612   9.422  30.006  1.00  0.00     0.049 C 
HETATM    9  C   UNL     1       0.076   4.566  30.984  1.00  0.00     0.011 A 
HETATM   10  C   UNL     1       3.568   7.924  29.752  1.00  0.00     0.082 A 
HETATM   11  C   UNL     1       4.271   6.703  29.756  1.00  0.00     0.248 A 
HETATM   12  O   UNL     1       5.459   6.586  29.467  1.00  0.00    -0.268 OA
ENDROOT
BRANCH   1  13
HETATM   13  C   UNL     1      -2.040   5.857  31.412  1.00  0.00     0.170 C 
BRANCH  13  14
HETATM   14  N   UNL     1      -2.375   5.050  32.599  1.00  0.00    -0.311 N 
ATOM     15  HN  UNL     1      -2.837   4.149  32.471  1.00  0.00     0.172 HD
BRANCH  14  16
HETATM   16  S   UNL     1      -2.035   5.548  34.094  1.00  0.00     0.259 S 
HETATM   17  O   UNL     1      -2.347   6.946  34.138  1.00  0.00    -0.201 OA
HETATM   18  O   UNL     1      -2.703   4.660  34.992  1.00  0.00    -0.201 OA
BRANCH  16  19
HETATM   19  C   UNL     1      -0.318   5.379  34.342  1.00  0.00     0.079 A 
HETATM   20  C   UNL     1       0.227   4.126  34.601  1.00  0.00     0.025 A 
HETATM   21  C   UNL     1       1.586   3.992  34.787  1.00  0.00     0.002 A 
HETATM   22  C   UNL     1       2.409   5.099  34.722  1.00  0.00     0.000 A 
HETATM   23  C   UNL     1       1.872   6.349  34.468  1.00  0.00     0.002 A 
HETATM   24  C   UNL     1       0.514   6.491  34.279  1.00  0.00     0.025 A 
ENDBRANCH  16  19
ENDBRANCH  14  16
ENDBRANCH  13  14
ENDBRANCH   1  13
BRANCH   2  25
HETATM   25  C   UNL     1       4.250   4.318  30.190  1.00  0.00     0.128 C 
HETATM   26  C   UNL     1       3.805   3.532  31.395  1.00  0.00     0.027 C 
ENDBRANCH   2  25
TORSDOF 5
ENDMDL
MODEL 8
REMARK VINA RESULT:    -8.170      2.533      3.814
REMARK INTER + INTRA:         -12.188
REMARK INTER:                 -10.808
REMARK INTRA:                  -1.380
REMARK UNBOUND:                -1.631
REMARK  5 active torsions:
REMARK  status: ('A' for Active; 'I' for Inactive)
REMARK    1  A    between atoms: C_1  and  C_9 
REMARK    2  A    between atoms: N_2  and  C_8 
REMARK    3  A    between atoms: C_9  and  N_21 
REMARK    4  A    between atoms: C_12  and  S_26 
REMARK    5  A    between atoms: N_21  and  S_26 
ROOT
HETATM    1  C   UNL     1       2.856   6.661  34.260  1.00  0.00    -0.039 A 
HETATM    2  N   UNL     1       1.746   5.501  30.364  1.00  0.00    -0.314 N 
HETATM    3  C   UNL     1       1.843   7.185  32.132  1.00  0.00     0.031 A 
HETATM    4  C   UNL     1       2.138   5.910  31.660  1.00  0.00     0.048 A 
HETATM    5  C   UNL     1       2.822   4.999  32.488  1.00  0.00    -0.003 A 
HETATM    6  C   UNL     1       3.172   5.397  33.783  1.00  0.00     0.023 A 
HETATM    7  C   UNL     1       3.118   3.683  31.953  1.00  0.00    -0.044 A 
HETATM    8  C   UNL     1       3.845   2.671  32.791  1.00  0.00     0.049 C 
HETATM    9  C   UNL     1       2.200   7.549  33.419  1.00  0.00     0.011 A 
HETATM   10  C   UNL     1       2.727   3.388  30.700  1.00  0.00     0.082 A 
HETATM   11  C   UNL     1       2.034   4.259  29.838  1.00  0.00     0.248 A 
HETATM   12  O   UNL     1       1.714   3.984  28.685  1.00  0.00    -0.268 OA
ENDROOT
BRANCH   1  13
HETATM   13  C   UNL     1       3.179   7.054  35.682  1.00  0.00     0.170 C 
BRANCH  13  14
HETATM   14  N   UNL     1       2.051   7.656  36.415  1.00  0.00    -0.311 N 
ATOM     15  HN  UNL     1       2.050   8.662  36.584  1.00  0.00     0.172 HD
BRANCH  14  16
HETATM   16  S   UNL     1       0.816   6.772  36.958  1.00  0.00     0.259 S 
HETATM   17  O   UNL     1       1.388   5.613  37.577  1.00  0.00    -0.201 OA
HETATM   18  O   UNL     1      -0.008   7.640  37.739  1.00  0.00    -0.201 OA
BRANCH  16  19
HETATM   19  C   UNL     1      -0.111   6.237  35.583  1.00  0.00     0.079 A 
HETATM   20  C   UNL     1      -0.848   7.155  34.842  1.00  0.00     0.025 A 
HETATM   21  C   UNL     1      -1.574   6.733  33.749  1.00  0.00     0.002 A 
HETATM   22  C   UNL     1      -1.575   5.399  33.388  1.00  0.00     0.000 A 
HETATM   23  C   UNL     1      -0.846   4.481  34.124  1.00  0.00     0.002 A 
HETATM   24  C   UNL     1      -0.117   4.896  35.218  1.00  0.00     0.025 A 
ENDBRANCH  16  19
ENDBRANCH  14  16
ENDBRANCH  13  14
ENDBRANCH   1  13
BRANCH   2  25
HETATM   25  C   UNL     1       0.940   6.399  29.520  1.00  0.00     0.128 C 
HETATM   26  C   UNL     1       1.781   7.504  28.938  1.00  0.00     0.027 C 
ENDBRANCH   2  25
TORSDOF 5
ENDMDL
MODEL 9
REMARK VINA RESULT:    -8.154      2.155      6.149
REMARK INTER + INTRA:         -12.168
REMARK INTER:                 -10.367
REMARK INTRA:                  -1.801
REMARK UNBOUND:                -1.631
REMARK  5 active torsions:
REMARK  status: ('A' for Active; 'I' for Inactive)
REMARK    1  A    between atoms: C_1  and  C_9 
REMARK    2  A    between atoms: N_2  and  C_8 
REMARK    3  A    between atoms: C_9  and  N_21 
REMARK    4  A    between atoms: C_12  and  S_26 
REMARK    5  A    between atoms: N_21  and  S_26 
ROOT
HETATM    1  C   UNL     1       1.421   8.568  31.608  1.00  0.00    -0.039 A 
HETATM    2  N   UNL     1      -0.432   5.574  33.924  1.00  0.00    -0.314 N 
HETATM    3  C   UNL     1       1.386   7.169  33.576  1.00  0.00     0.031 A 
HETATM    4  C   UNL     1       0.185   6.598  33.168  1.00  0.00     0.048 A 
HETATM    5  C   UNL     1      -0.425   7.030  31.974  1.00  0.00    -0.003 A 
HETATM    6  C   UNL     1       0.211   8.017  31.211  1.00  0.00     0.023 A 
HETATM    7  C   UNL     1      -1.683   6.416  31.591  1.00  0.00    -0.044 A 
HETATM    8  C   UNL     1      -2.378   6.838  30.328  1.00  0.00     0.049 C 
HETATM    9  C   UNL     1       1.992   8.141  32.799  1.00  0.00     0.011 A 
HETATM   10  C   UNL     1      -2.209   5.465  32.383  1.00  0.00     0.082 A 
HETATM   11  C   UNL     1      -1.634   4.993  33.579  1.00  0.00     0.248 A 
HETATM   12  O   UNL     1      -2.146   4.145  34.307  1.00  0.00    -0.268 OA
ENDROOT
BRANCH   1  13
HETATM   13  C   UNL     1       2.130   9.582  30.742  1.00  0.00     0.170 C 
BRANCH  13  14
HETATM   14  N   UNL     1       3.375   9.088  30.127  1.00  0.00    -0.311 N 
ATOM     15  HN  UNL     1       4.270   9.430  30.478  1.00  0.00     0.172 HD
BRANCH  14  16
HETATM   16  S   UNL     1       3.366   8.021  28.918  1.00  0.00     0.259 S 
HETATM   17  O   UNL     1       2.336   8.441  28.015  1.00  0.00    -0.201 OA
HETATM   18  O   UNL     1       4.709   7.921  28.440  1.00  0.00    -0.201 OA
BRANCH  16  19
HETATM   19  C   UNL     1       2.905   6.472  29.568  1.00  0.00     0.079 A 
HETATM   20  C   UNL     1       3.740   5.820  30.469  1.00  0.00     0.025 A 
HETATM   21  C   UNL     1       3.370   4.598  30.990  1.00  0.00     0.002 A 
HETATM   22  C   UNL     1       2.174   4.016  30.616  1.00  0.00     0.000 A 
HETATM   23  C   UNL     1       1.342   4.659  29.716  1.00  0.00     0.002 A 
HETATM   24  C   UNL     1       1.704   5.881  29.192  1.00  0.00     0.025 A 
ENDBRANCH  16  19
ENDBRANCH  14  16
ENDBRANCH  13  14
ENDBRANCH   1  13
BRANCH   2  25
HETATM   25  C   UNL     1       0.238   5.034  35.119  1.00  0.00     0.128 C 
HETATM   26  C   UNL     1       1.225   3.957  34.752  1.00  0.00     0.027 C 
ENDBRANCH   2  25
TORSDOF 5
ENDMDL
MODEL 10
REMARK VINA RESULT:    -8.150      2.358      6.046
REMARK INTER + INTRA:         -12.163
REMARK INTER:                 -10.442
REMARK INTRA:                  -1.721
REMARK UNBOUND:                -1.631
REMARK  5 active torsions:
REMARK  status: ('A' for Active; 'I' for Inactive)
REMARK    1  A    between atoms: C_1  and  C_9 
REMARK    2  A    between atoms: N_2  and  C_8 
REMARK    3  A    between atoms: C_9  and  N_21 
REMARK    4  A    between atoms: C_12  and  S_26 
REMARK    5  A    between atoms: N_21  and  S_26 
ROOT
HETATM    1  C   UNL     1       2.858   5.583  31.445  1.00  0.00    -0.039 A 
HETATM    2  N   UNL     1       0.642   5.093  34.996  1.00  0.00    -0.314 N 
HETATM    3  C   UNL     1       0.982   4.623  32.622  1.00  0.00     0.031 A 
HETATM    4  C   UNL     1       1.393   5.230  33.805  1.00  0.00     0.048 A 
HETATM    5  C   UNL     1       2.566   6.009  33.820  1.00  0.00    -0.003 A 
HETATM    6  C   UNL     1       3.282   6.171  32.629  1.00  0.00     0.023 A 
HETATM    7  C   UNL     1       2.964   6.615  35.077  1.00  0.00    -0.044 A 
HETATM    8  C   UNL     1       4.206   7.456  35.152  1.00  0.00     0.049 C 
HETATM    9  C   UNL     1       1.711   4.803  31.459  1.00  0.00     0.011 A 
HETATM   10  C   UNL     1       2.201   6.413  36.166  1.00  0.00     0.082 A 
HETATM   11  C   UNL     1       1.017   5.652  36.200  1.00  0.00     0.248 A 
HETATM   12  O   UNL     1       0.350   5.452  37.212  1.00  0.00    -0.268 OA
ENDROOT
BRANCH   1  13
HETATM   13  C   UNL     1       3.603   5.822  30.153  1.00  0.00     0.170 C 
BRANCH  13  14
HETATM   14  N   UNL     1       2.875   6.658  29.181  1.00  0.00    -0.311 N 
ATOM     15  HN  UNL     1       2.663   6.274  28.259  1.00  0.00     0.172 HD
BRANCH  14  16
HETATM   16  S   UNL     1       2.404   8.160  29.530  1.00  0.00     0.259 S 
HETATM   17  O   UNL     1       3.444   8.736  30.330  1.00  0.00    -0.201 OA
HETATM   18  O   UNL     1       2.053   8.785  28.293  1.00  0.00    -0.201 OA
BRANCH  16  19
HETATM   19  C   UNL     1       0.969   8.061  30.513  1.00  0.00     0.079 A 
HETATM   20  C   UNL     1      -0.174   7.445  30.015  1.00  0.00     0.025 A 
HETATM   21  C   UNL     1      -1.306   7.359  30.797  1.00  0.00     0.002 A 
HETATM   22  C   UNL     1      -1.310   7.887  32.073  1.00  0.00     0.000 A 
HETATM   23  C   UNL     1      -0.177   8.504  32.573  1.00  0.00     0.002 A 
HETATM   24  C   UNL     1       0.959   8.593  31.797  1.00  0.00     0.025 A 
ENDBRANCH  16  19
ENDBRANCH  14  16
ENDBRANCH  13  14
ENDBRANCH   1  13
BRANCH   2  25
HETATM   25  C   UNL     1      -0.641   4.371  34.980  1.00  0.00     0.128 C 
HETATM   26  C   UNL     1      -1.773   5.276  34.569  1.00  0.00     0.027 C 
ENDBRANCH   2  25
TORSDOF 5
ENDMDL
MODEL 11
REMARK VINA RESULT:    -8.035      1.605      2.303
REMARK INTER + INTRA:         -12.014
REMARK INTER:                 -10.579
REMARK INTRA:                  -1.436
REMARK UNBOUND:                -1.631
REMARK  5 active torsions:
REMARK  status: ('A' for Active; 'I' for Inactive)
REMARK    1  A    between atoms: C_1  and  C_9 
REMARK    2  A    between atoms: N_2  and  C_8 
REMARK    3  A    between atoms: C_9  and  N_21 
REMARK    4  A    between atoms: C_12  and  S_26 
REMARK    5  A    between atoms: N_21  and  S_26 
ROOT
HETATM    1  C   UNL     1      -0.707   7.534  32.722  1.00  0.00    -0.039 A 
HETATM    2  N   UNL     1       2.402   7.559  29.877  1.00  0.00    -0.314 N 
HETATM    3  C   UNL     1       0.020   7.615  30.421  1.00  0.00     0.031 A 
HETATM    4  C   UNL     1       1.352   7.578  30.824  1.00  0.00     0.048 A 
HETATM    5  C   UNL     1       1.665   7.540  32.197  1.00  0.00    -0.003 A 
HETATM    6  C   UNL     1       0.620   7.520  33.127  1.00  0.00     0.023 A 
HETATM    7  C   UNL     1       3.067   7.512  32.573  1.00  0.00    -0.044 A 
HETATM    8  C   UNL     1       3.460   7.472  34.022  1.00  0.00     0.049 C 
HETATM    9  C   UNL     1      -0.992   7.592  31.365  1.00  0.00     0.011 A 
HETATM   10  C   UNL     1       4.001   7.520  31.605  1.00  0.00     0.082 A 
HETATM   11  C   UNL     1       3.737   7.547  30.222  1.00  0.00     0.248 A 
HETATM   12  O   UNL     1       4.604   7.586  29.352  1.00  0.00    -0.268 OA
ENDROOT
BRANCH   1  13
HETATM   13  C   UNL     1      -1.825   7.444  33.733  1.00  0.00     0.170 C 
BRANCH  13  14
HETATM   14  N   UNL     1      -1.642   6.387  34.744  1.00  0.00    -0.311 N 
ATOM     15  HN  UNL     1      -1.559   6.650  35.726  1.00  0.00     0.172 HD
BRANCH  14  16
HETATM   16  S   UNL     1      -1.568   4.826  34.344  1.00  0.00     0.259 S 
HETATM   17  O   UNL     1      -1.947   4.090  35.513  1.00  0.00    -0.201 OA
HETATM   18  O   UNL     1      -2.330   4.666  33.146  1.00  0.00    -0.201 OA
BRANCH  16  19
HETATM   19  C   UNL     1       0.093   4.439  33.986  1.00  0.00     0.079 A 
HETATM   20  C   UNL     1       0.474   4.154  32.679  1.00  0.00     0.025 A 
HETATM   21  C   UNL     1       1.789   3.857  32.396  1.00  0.00     0.002 A 
HETATM   22  C   UNL     1       2.731   3.836  33.406  1.00  0.00     0.000 A 
HETATM   23  C   UNL     1       2.357   4.115  34.709  1.00  0.00     0.002 A 
HETATM   24  C   UNL     1       1.043   4.414  35.000  1.00  0.00     0.025 A 
ENDBRANCH  16  19
ENDBRANCH  14  16
ENDBRANCH  13  14
ENDBRANCH   1  13
BRANCH   2  25
HETATM   25  C   UNL     1       2.096   7.492  28.438  1.00  0.00     0.128 C 
HETATM   26  C   UNL     1       2.424   8.790  27.749  1.00  0.00     0.027 C 
ENDBRANCH   2  25
TORSDOF 5
ENDMDL
MODEL 12
REMARK VINA RESULT:    -7.965      2.133      6.433
REMARK INTER + INTRA:         -11.924
REMARK INTER:                 -11.331
REMARK INTRA:                  -0.593
REMARK UNBOUND:                -1.631
REMARK  5 active torsions:
REMARK  status: ('A' for Active; 'I' for Inactive)
REMARK    1  A    between atoms: C_1  and  C_9 
REMARK    2  A    between atoms: N_2  and  C_8 
REMARK    3  A    between atoms: C_9  and  N_21 
REMARK    4  A    between atoms: C_12  and  S_26 
REMARK    5  A    between atoms: N_21  and  S_26 
ROOT
HETATM    1  C   UNL     1       0.653   5.787  30.568  1.00  0.00    -0.039 A 
HETATM    2  N   UNL     1      -1.757   4.755  33.868  1.00  0.00    -0.314 N 
HETATM    3  C   UNL     1      -1.531   5.556  31.570  1.00  0.00     0.031 A 
HETATM    4  C   UNL     1      -0.959   5.079  32.746  1.00  0.00     0.048 A 
HETATM    5  C   UNL     1       0.439   4.931  32.832  1.00  0.00    -0.003 A 
HETATM    6  C   UNL     1       1.224   5.290  31.731  1.00  0.00     0.023 A 
HETATM    7  C   UNL     1       0.993   4.421  34.073  1.00  0.00    -0.044 A 
HETATM    8  C   UNL     1       2.477   4.242  34.222  1.00  0.00     0.049 C 
HETATM    9  C   UNL     1      -0.728   5.905  30.498  1.00  0.00     0.011 A 
HETATM   10  C   UNL     1       0.157   4.117  35.082  1.00  0.00     0.082 A 
HETATM   11  C   UNL     1      -1.244   4.256  35.047  1.00  0.00     0.248 A 
HETATM   12  O   UNL     1      -1.995   3.943  35.967  1.00  0.00    -0.268 OA
ENDROOT
BRANCH   1  13
HETATM   13  C   UNL     1       1.517   6.235  29.413  1.00  0.00     0.170 C 
BRANCH  13  14
HETATM   14  N   UNL     1       2.921   5.795  29.501  1.00  0.00    -0.311 N 
ATOM     15  HN  UNL     1       3.151   4.825  29.283  1.00  0.00     0.172 HD
BRANCH  14  16
HETATM   16  S   UNL     1       4.105   6.801  29.933  1.00  0.00     0.259 S 
HETATM   17  O   UNL     1       4.428   6.488  31.293  1.00  0.00    -0.201 OA
HETATM   18  O   UNL     1       5.124   6.697  28.937  1.00  0.00    -0.201 OA
BRANCH  16  19
HETATM   19  C   UNL     1       3.475   8.425  29.896  1.00  0.00     0.079 A 
HETATM   20  C   UNL     1       3.735   9.247  28.805  1.00  0.00     0.025 A 
HETATM   21  C   UNL     1       3.228  10.528  28.773  1.00  0.00     0.002 A 
HETATM   22  C   UNL     1       2.464  11.001  29.822  1.00  0.00     0.000 A 
HETATM   23  C   UNL     1       2.205  10.188  30.912  1.00  0.00     0.002 A 
HETATM   24  C   UNL     1       2.708   8.905  30.951  1.00  0.00     0.025 A 
ENDBRANCH  16  19
ENDBRANCH  14  16
ENDBRANCH  13  14
ENDBRANCH   1  13
BRANCH   2  25
HETATM   25  C   UNL     1      -3.208   5.001  33.837  1.00  0.00     0.128 C 
HETATM   26  C   UNL     1      -3.958   3.785  33.358  1.00  0.00     0.027 C 
ENDBRANCH   2  25
TORSDOF 5
ENDMDL
MODEL 13
REMARK VINA RESULT:    -7.895      1.516      1.952
REMARK INTER + INTRA:         -11.834
REMARK INTER:                 -11.157
REMARK INTRA:                  -0.677
REMARK UNBOUND:                -1.631
REMARK  5 active torsions:
REMARK  status: ('A' for Active; 'I' for Inactive)
REMARK    1  A    between atoms: C_1  and  C_9 
REMARK    2  A    between atoms: N_2  and  C_8 
REMARK    3  A    between atoms: C_9  and  N_21 
REMARK    4  A    between atoms: C_12  and  S_26 
REMARK    5  A    between atoms: N_21  and  S_26 
ROOT
HETATM    1  C   UNL     1       0.279   6.997  32.025  1.00  0.00    -0.039 A 
HETATM    2  N   UNL     1       3.270   8.301  29.357  1.00  0.00    -0.314 N 
HETATM    3  C   UNL     1       1.231   8.727  30.635  1.00  0.00     0.031 A 
HETATM    4  C   UNL     1       2.276   7.882  30.272  1.00  0.00     0.048 A 
HETATM    5  C   UNL     1       2.341   6.581  30.808  1.00  0.00    -0.003 A 
HETATM    6  C   UNL     1       1.333   6.161  31.683  1.00  0.00     0.023 A 
HETATM    7  C   UNL     1       3.453   5.737  30.411  1.00  0.00    -0.044 A 
HETATM    8  C   UNL     1       3.574   4.341  30.951  1.00  0.00     0.049 C 
HETATM    9  C   UNL     1       0.247   8.281  31.501  1.00  0.00     0.011 A 
HETATM   10  C   UNL     1       4.366   6.226  29.552  1.00  0.00     0.082 A 
HETATM   11  C   UNL     1       4.339   7.514  28.983  1.00  0.00     0.248 A 
HETATM   12  O   UNL     1       5.200   7.955  28.225  1.00  0.00    -0.268 OA
ENDROOT
BRANCH   1  13
HETATM   13  C   UNL     1      -0.838   6.508  32.916  1.00  0.00     0.170 C 
BRANCH  13  14
HETATM   14  N   UNL     1      -0.719   5.093  33.313  1.00  0.00    -0.311 N 
ATOM     15  HN  UNL     1      -0.955   4.367  32.636  1.00  0.00     0.172 HD
BRANCH  14  16
HETATM   16  S   UNL     1      -0.227   4.657  34.786  1.00  0.00     0.259 S 
HETATM   17  O   UNL     1      -1.358   4.807  35.652  1.00  0.00    -0.201 OA
HETATM   18  O   UNL     1       0.385   3.372  34.658  1.00  0.00    -0.201 OA
BRANCH  16  19
HETATM   19  C   UNL     1       0.993   5.788  35.304  1.00  0.00     0.079 A 
HETATM   20  C   UNL     1       0.677   6.776  36.231  1.00  0.00     0.025 A 
HETATM   21  C   UNL     1       1.645   7.664  36.647  1.00  0.00     0.002 A 
HETATM   22  C   UNL     1       2.929   7.580  36.143  1.00  0.00     0.000 A 
HETATM   23  C   UNL     1       3.248   6.602  35.217  1.00  0.00     0.002 A 
HETATM   24  C   UNL     1       2.285   5.709  34.797  1.00  0.00     0.025 A 
ENDBRANCH  16  19
ENDBRANCH  14  16
ENDBRANCH  13  14
ENDBRANCH   1  13
BRANCH   2  25
HETATM   25  C   UNL     1       3.165   9.616  28.705  1.00  0.00     0.128 C 
HETATM   26  C   UNL     1       3.378  10.734  29.691  1.00  0.00     0.027 C 
ENDBRANCH   2  25
TORSDOF 5
ENDMDL
MODEL 14
REMARK VINA RESULT:    -7.892      2.107      5.691
REMARK INTER + INTRA:         -11.830
REMARK INTER:                 -10.052
REMARK INTRA:                  -1.778
REMARK UNBOUND:                -1.631
REMARK  5 active torsions:
REMARK  status: ('A' for Active; 'I' for Inactive)
REMARK    1  A    between atoms: C_1  and  C_9 
REMARK    2  A    between atoms: N_2  and  C_8 
REMARK    3  A    between atoms: C_9  and  N_21 
REMARK    4  A    between atoms: C_12  and  S_26 
REMARK    5  A    between atoms: N_21  and  S_26 
ROOT
HETATM    1  C   UNL     1       0.635   8.203  30.561  1.00  0.00    -0.039 A 
HETATM    2  N   UNL     1      -1.204   6.272  33.824  1.00  0.00    -0.314 N 
HETATM    3  C   UNL     1       0.109   8.122  32.916  1.00  0.00     0.031 A 
HETATM    4  C   UNL     1      -0.605   6.942  32.732  1.00  0.00     0.048 A 
HETATM    5  C   UNL     1      -0.724   6.391  31.441  1.00  0.00    -0.003 A 
HETATM    6  C   UNL     1      -0.097   7.039  30.371  1.00  0.00     0.023 A 
HETATM    7  C   UNL     1      -1.487   5.166  31.292  1.00  0.00    -0.044 A 
HETATM    8  C   UNL     1      -1.648   4.534  29.939  1.00  0.00     0.049 C 
HETATM    9  C   UNL     1       0.721   8.739  31.839  1.00  0.00     0.011 A 
HETATM   10  C   UNL     1      -2.042   4.609  32.384  1.00  0.00     0.082 A 
HETATM   11  C   UNL     1      -1.944   5.115  33.694  1.00  0.00     0.248 A 
HETATM   12  O   UNL     1      -2.484   4.610  34.675  1.00  0.00    -0.268 OA
ENDROOT
BRANCH   1  13
HETATM   13  C   UNL     1       1.363   8.855  29.410  1.00  0.00     0.170 C 
BRANCH  13  14
HETATM   14  N   UNL     1       2.486   8.062  28.877  1.00  0.00    -0.311 N 
ATOM     15  HN  UNL     1       2.517   7.855  27.879  1.00  0.00     0.172 HD
BRANCH  14  16
HETATM   16  S   UNL     1       3.667   7.510  29.827  1.00  0.00     0.259 S 
HETATM   17  O   UNL     1       4.756   7.168  28.962  1.00  0.00    -0.201 OA
HETATM   18  O   UNL     1       3.873   8.488  30.848  1.00  0.00    -0.201 OA
BRANCH  16  19
HETATM   19  C   UNL     1       3.110   6.044  30.585  1.00  0.00     0.079 A 
HETATM   20  C   UNL     1       2.988   5.979  31.969  1.00  0.00     0.025 A 
HETATM   21  C   UNL     1       2.538   4.822  32.567  1.00  0.00     0.002 A 
HETATM   22  C   UNL     1       2.211   3.723  31.797  1.00  0.00     0.000 A 
HETATM   23  C   UNL     1       2.333   3.780  30.419  1.00  0.00     0.002 A 
HETATM   24  C   UNL     1       2.781   4.934  29.814  1.00  0.00     0.025 A 
ENDBRANCH  16  19
ENDBRANCH  14  16
ENDBRANCH  13  14
ENDBRANCH   1  13
BRANCH   2  25
HETATM   25  C   UNL     1      -1.005   6.772  35.195  1.00  0.00     0.128 C 
HETATM   26  C   UNL     1       0.277   6.249  35.787  1.00  0.00     0.027 C 
ENDBRANCH   2  25
TORSDOF 5
ENDMDL
MODEL 15
REMARK VINA RESULT:    -7.752      2.646      4.574
REMARK INTER + INTRA:         -11.649
REMARK INTER:                 -11.319
REMARK INTRA:                  -0.330
REMARK UNBOUND:                -1.631
REMARK  5 active torsions:
REMARK  status: ('A' for Active; 'I' for Inactive)
REMARK    1  A    between atoms: C_1  and  C_9 
REMARK    2  A    between atoms: N_2  and  C_8 
REMARK    3  A    between atoms: C_9  and  N_21 
REMARK    4  A    between atoms: C_12  and  S_26 
REMARK    5  A    between atoms: N_21  and  S_26 
ROOT
HETATM    1  C   UNL     1       2.743   6.618  34.399  1.00  0.00    -0.039 A 
HETATM    2  N   UNL     1       2.356   4.179  30.984  1.00  0.00    -0.314 N 
HETATM    3  C   UNL     1       2.868   4.442  33.359  1.00  0.00     0.031 A 
HETATM    4  C   UNL     1       2.464   4.983  32.142  1.00  0.00     0.048 A 
HETATM    5  C   UNL     1       2.172   6.358  32.051  1.00  0.00    -0.003 A 
HETATM    6  C   UNL     1       2.318   7.155  33.192  1.00  0.00     0.023 A 
HETATM    7  C   UNL     1       1.744   6.879  30.766  1.00  0.00    -0.044 A 
HETATM    8  C   UNL     1       1.419   8.337  30.610  1.00  0.00     0.049 C 
HETATM    9  C   UNL     1       3.005   5.257  34.470  1.00  0.00     0.011 A 
HETATM   10  C   UNL     1       1.648   6.036  29.722  1.00  0.00     0.082 A 
HETATM   11  C   UNL     1       1.937   4.658  29.760  1.00  0.00     0.248 A 
HETATM   12  O   UNL     1       1.813   3.897  28.805  1.00  0.00    -0.268 OA
ENDROOT
BRANCH   1  13
HETATM   13  C   UNL     1       2.961   7.501  35.604  1.00  0.00     0.170 C 
BRANCH  13  14
HETATM   14  N   UNL     1       2.517   6.907  36.878  1.00  0.00    -0.311 N 
ATOM     15  HN  UNL     1       3.213   6.506  37.507  1.00  0.00     0.172 HD
BRANCH  14  16
HETATM   16  S   UNL     1       0.963   6.872  37.308  1.00  0.00     0.259 S 
HETATM   17  O   UNL     1       0.825   5.799  38.247  1.00  0.00    -0.201 OA
HETATM   18  O   UNL     1       0.612   8.198  37.712  1.00  0.00    -0.201 OA
BRANCH  16  19
HETATM   19  C   UNL     1       0.022   6.470  35.898  1.00  0.00     0.079 A 
HETATM   20  C   UNL     1      -0.538   7.480  35.123  1.00  0.00     0.025 A 
HETATM   21  C   UNL     1      -1.274   7.161  34.003  1.00  0.00     0.002 A 
HETATM   22  C   UNL     1      -1.463   5.839  33.648  1.00  0.00     0.000 A 
HETATM   23  C   UNL     1      -0.911   4.829  34.418  1.00  0.00     0.002 A 
HETATM   24  C   UNL     1      -0.173   5.141  35.539  1.00  0.00     0.025 A 
ENDBRANCH  16  19
ENDBRANCH  14  16
ENDBRANCH  13  14
ENDBRANCH   1  13
BRANCH   2  25
HETATM   25  C   UNL     1       2.756   2.762  31.030  1.00  0.00     0.128 C 
HETATM   26  C   UNL     1       4.030   2.579  31.812  1.00  0.00     0.027 C 
ENDBRANCH   2  25
TORSDOF 5
ENDMDL
MODEL 16
REMARK VINA RESULT:    -7.487      2.637      4.272
REMARK INTER + INTRA:         -11.306
REMARK INTER:                 -10.229
REMARK INTRA:                  -1.077
REMARK UNBOUND:                -1.631
REMARK  5 active torsions:
REMARK  status: ('A' for Active; 'I' for Inactive)
REMARK    1  A    between atoms: C_1  and  C_9 
REMARK    2  A    between atoms: N_2  and  C_8 
REMARK    3  A    between atoms: C_9  and  N_21 
REMARK    4  A    between atoms: C_12  and  S_26 
REMARK    5  A    between atoms: N_21  and  S_26 
ROOT
HETATM    1  C   UNL     1       1.158   4.474  34.943  1.00  0.00    -0.039 A 
HETATM    2  N   UNL     1       2.200   4.184  30.870  1.00  0.00    -0.314 N 
HETATM    3  C   UNL     1       2.803   4.028  33.233  1.00  0.00     0.031 A 
HETATM    4  C   UNL     1       1.855   4.253  32.240  1.00  0.00     0.048 A 
HETATM    5  C   UNL     1       0.530   4.572  32.597  1.00  0.00    -0.003 A 
HETATM    6  C   UNL     1       0.205   4.676  33.954  1.00  0.00     0.023 A 
HETATM    7  C   UNL     1      -0.429   4.789  31.530  1.00  0.00    -0.044 A 
HETATM    8  C   UNL     1      -1.855   5.132  31.852  1.00  0.00     0.049 C 
HETATM    9  C   UNL     1       2.451   4.141  34.567  1.00  0.00     0.011 A 
HETATM   10  C   UNL     1      -0.017   4.680  30.254  1.00  0.00     0.082 A 
HETATM   11  C   UNL     1       1.295   4.373  29.847  1.00  0.00     0.248 A 
HETATM   12  O   UNL     1       1.646   4.246  28.676  1.00  0.00    -0.268 OA
ENDROOT
BRANCH   1  13
HETATM   13  C   UNL     1       0.809   4.657  36.401  1.00  0.00     0.170 C 
BRANCH  13  14
HETATM   14  N   UNL     1       1.474   5.806  37.043  1.00  0.00    -0.311 N 
ATOM     15  HN  UNL     1       2.026   5.650  37.887  1.00  0.00     0.172 HD
BRANCH  14  16
HETATM   16  S   UNL     1       1.356   7.301  36.451  1.00  0.00     0.259 S 
HETATM   17  O   UNL     1       0.136   7.345  35.701  1.00  0.00    -0.201 OA
HETATM   18  O   UNL     1       1.529   8.199  37.548  1.00  0.00    -0.201 OA
BRANCH  16  19
HETATM   19  C   UNL     1       2.673   7.546  35.337  1.00  0.00     0.079 A 
HETATM   20  C   UNL     1       3.967   7.718  35.817  1.00  0.00     0.025 A 
HETATM   21  C   UNL     1       5.010   7.902  34.935  1.00  0.00     0.002 A 
HETATM   22  C   UNL     1       4.774   7.921  33.574  1.00  0.00     0.000 A 
HETATM   23  C   UNL     1       3.488   7.754  33.091  1.00  0.00     0.002 A 
HETATM   24  C   UNL     1       2.440   7.568  33.966  1.00  0.00     0.025 A 
ENDBRANCH  16  19
ENDBRANCH  14  16
ENDBRANCH  13  14
ENDBRANCH   1  13
BRANCH   2  25
HETATM   25  C   UNL     1       3.600   3.955  30.473  1.00  0.00     0.128 C 
HETATM   26  C   UNL     1       4.285   5.247  30.116  1.00  0.00     0.027 C 
ENDBRANCH   2  25
TORSDOF 5
ENDMDL
MODEL 17
REMARK VINA RESULT:    -7.453      2.089      5.698
REMARK INTER + INTRA:         -11.262
REMARK INTER:                  -9.653
REMARK INTRA:                  -1.609
REMARK UNBOUND:                -1.631
REMARK  5 active torsions:
REMARK  status: ('A' for Active; 'I' for Inactive)
REMARK    1  A    between atoms: C_1  and  C_9 
REMARK    2  A    between atoms: N_2  and  C_8 
REMARK    3  A    between atoms: C_9  and  N_21 
REMARK    4  A    between atoms: C_12  and  S_26 
REMARK    5  A    between atoms: N_21  and  S_26 
ROOT
HETATM    1  C   UNL     1       1.128   4.756  30.419  1.00  0.00    -0.039 A 
HETATM    2  N   UNL     1      -1.612   4.570  33.615  1.00  0.00    -0.314 N 
HETATM    3  C   UNL     1      -1.137   4.900  31.241  1.00  0.00     0.031 A 
HETATM    4  C   UNL     1      -0.704   4.609  32.531  1.00  0.00     0.048 A 
HETATM    5  C   UNL     1       0.662   4.364  32.771  1.00  0.00    -0.003 A 
HETATM    6  C   UNL     1       1.559   4.442  31.700  1.00  0.00     0.023 A 
HETATM    7  C   UNL     1       1.069   4.054  34.129  1.00  0.00    -0.044 A 
HETATM    8  C   UNL     1       2.512   3.783  34.444  1.00  0.00     0.049 C 
HETATM    9  C   UNL     1      -0.225   4.973  30.202  1.00  0.00     0.011 A 
HETATM   10  C   UNL     1       0.133   4.016  35.096  1.00  0.00     0.082 A 
HETATM   11  C   UNL     1      -1.240   4.262  34.907  1.00  0.00     0.248 A 
HETATM   12  O   UNL     1      -2.085   4.192  35.796  1.00  0.00    -0.268 OA
ENDROOT
BRANCH   1  13
HETATM   13  C   UNL     1       2.116   4.903  29.285  1.00  0.00     0.170 C 
BRANCH  13  14
HETATM   14  N   UNL     1       3.126   5.955  29.497  1.00  0.00    -0.311 N 
ATOM     15  HN  UNL     1       4.113   5.697  29.521  1.00  0.00     0.172 HD
BRANCH  14  16
HETATM   16  S   UNL     1       2.719   7.504  29.692  1.00  0.00     0.259 S 
HETATM   17  O   UNL     1       3.942   8.250  29.668  1.00  0.00    -0.201 OA
HETATM   18  O   UNL     1       1.709   7.794  28.725  1.00  0.00    -0.201 OA
BRANCH  16  19
HETATM   19  C   UNL     1       2.019   7.682  31.278  1.00  0.00     0.079 A 
HETATM   20  C   UNL     1       0.710   8.133  31.412  1.00  0.00     0.025 A 
HETATM   21  C   UNL     1       0.154   8.265  32.667  1.00  0.00     0.002 A 
HETATM   22  C   UNL     1       0.893   7.954  33.792  1.00  0.00     0.000 A 
HETATM   23  C   UNL     1       2.197   7.508  33.663  1.00  0.00     0.002 A 
HETATM   24  C   UNL     1       2.760   7.373  32.412  1.00  0.00     0.025 A 
ENDBRANCH  16  19
ENDBRANCH  14  16
ENDBRANCH  13  14
ENDBRANCH   1  13
BRANCH   2  25
HETATM   25  C   UNL     1      -3.026   4.925  33.407  1.00  0.00     0.128 C 
HETATM   26  C   UNL     1      -3.884   3.695  33.276  1.00  0.00     0.027 C 
ENDBRANCH   2  25
TORSDOF 5
ENDMDL
MODEL 18
REMARK VINA RESULT:    -7.432      2.810      5.921
REMARK INTER + INTRA:         -11.235
REMARK INTER:                  -9.970
REMARK INTRA:                  -1.265
REMARK UNBOUND:                -1.631
REMARK  5 active torsions:
REMARK  status: ('A' for Active; 'I' for Inactive)
REMARK    1  A    between atoms: C_1  and  C_9 
REMARK    2  A    between atoms: N_2  and  C_8 
REMARK    3  A    between atoms: C_9  and  N_21 
REMARK    4  A    between atoms: C_12  and  S_26 
REMARK    5  A    between atoms: N_21  and  S_26 
ROOT
HETATM    1  C   UNL     1       2.717   4.205  33.009  1.00  0.00    -0.039 A 
HETATM    2  N   UNL     1       1.032   6.775  35.891  1.00  0.00    -0.314 N 
HETATM    3  C   UNL     1       0.819   4.918  34.318  1.00  0.00     0.031 A 
HETATM    4  C   UNL     1       1.594   5.890  34.942  1.00  0.00     0.048 A 
HETATM    5  C   UNL     1       2.959   6.012  34.614  1.00  0.00    -0.003 A 
HETATM    6  C   UNL     1       3.498   5.159  33.646  1.00  0.00     0.023 A 
HETATM    7  C   UNL     1       3.733   7.033  35.296  1.00  0.00    -0.044 A 
HETATM    8  C   UNL     1       5.192   7.209  34.987  1.00  0.00     0.049 C 
HETATM    9  C   UNL     1       1.381   4.089  33.362  1.00  0.00     0.011 A 
HETATM   10  C   UNL     1       3.121   7.817  36.203  1.00  0.00     0.082 A 
HETATM   11  C   UNL     1       1.760   7.740  36.557  1.00  0.00     0.248 A 
HETATM   12  O   UNL     1       1.225   8.442  37.411  1.00  0.00    -0.268 OA
ENDROOT
BRANCH   1  13
HETATM   13  C   UNL     1       3.296   3.336  31.917  1.00  0.00     0.170 C 
BRANCH  13  14
HETATM   14  N   UNL     1       2.423   3.181  30.740  1.00  0.00    -0.311 N 
ATOM     15  HN  UNL     1       1.932   2.297  30.600  1.00  0.00     0.172 HD
BRANCH  14  16
HETATM   16  S   UNL     1       2.218   4.367  29.666  1.00  0.00     0.259 S 
HETATM   17  O   UNL     1       3.434   5.124  29.662  1.00  0.00    -0.201 OA
HETATM   18  O   UNL     1       1.776   3.758  28.451  1.00  0.00    -0.201 OA
BRANCH  16  19
HETATM   19  C   UNL     1       0.946   5.407  30.246  1.00  0.00     0.079 A 
HETATM   20  C   UNL     1       1.217   6.737  30.544  1.00  0.00     0.025 A 
HETATM   21  C   UNL     1       0.208   7.561  30.994  1.00  0.00     0.002 A 
HETATM   22  C   UNL     1      -1.073   7.069  31.154  1.00  0.00     0.000 A 
HETATM   23  C   UNL     1      -1.347   5.744  30.862  1.00  0.00     0.002 A 
HETATM   24  C   UNL     1      -0.344   4.914  30.411  1.00  0.00     0.025 A 
ENDBRANCH  16  19
ENDBRANCH  14  16
ENDBRANCH  13  14
ENDBRANCH   1  13
BRANCH   2  25
HETATM   25  C   UNL     1      -0.413   6.735  36.172  1.00  0.00     0.128 C 
HETATM   26  C   UNL     1      -1.215   7.149  34.967  1.00  0.00     0.027 C 
ENDBRANCH   2  25
TORSDOF 5
ENDMDL
MODEL 19
REMARK VINA RESULT:    -7.384      2.892      4.737
REMARK INTER + INTRA:         -11.173
REMARK INTER:                 -10.010
REMARK INTRA:                  -1.163
REMARK UNBOUND:                -1.631
REMARK  5 active torsions:
REMARK  status: ('A' for Active; 'I' for Inactive)
REMARK    1  A    between atoms: C_1  and  C_9 
REMARK    2  A    between atoms: N_2  and  C_8 
REMARK    3  A    between atoms: C_9  and  N_21 
REMARK    4  A    between atoms: C_12  and  S_26 
REMARK    5  A    between atoms: N_21  and  S_26 
ROOT
HETATM    1  C   UNL     1      -0.590   7.303  32.553  1.00  0.00    -0.039 A 
HETATM    2  N   UNL     1       2.248   7.316  35.668  1.00  0.00    -0.314 N 
HETATM    3  C   UNL     1      -0.066   7.137  34.904  1.00  0.00     0.031 A 
HETATM    4  C   UNL     1       1.290   7.283  34.628  1.00  0.00     0.048 A 
HETATM    5  C   UNL     1       1.721   7.420  33.294  1.00  0.00    -0.003 A 
HETATM    6  C   UNL     1       0.764   7.425  32.274  1.00  0.00     0.023 A 
HETATM    7  C   UNL     1       3.145   7.560  33.051  1.00  0.00    -0.044 A 
HETATM    8  C   UNL     1       3.662   7.708  31.648  1.00  0.00     0.049 C 
HETATM    9  C   UNL     1      -0.990   7.149  33.873  1.00  0.00     0.011 A 
HETATM   10  C   UNL     1       3.987   7.557  34.100  1.00  0.00     0.082 A 
HETATM   11  C   UNL     1       3.605   7.433  35.449  1.00  0.00     0.248 A 
HETATM   12  O   UNL     1       4.391   7.401  36.393  1.00  0.00    -0.268 OA
ENDROOT
BRANCH   1  13
HETATM   13  C   UNL     1      -1.617   7.379  31.448  1.00  0.00     0.170 C 
BRANCH  13  14
HETATM   14  N   UNL     1      -1.394   6.424  30.347  1.00  0.00    -0.311 N 
ATOM     15  HN  UNL     1      -1.357   6.773  29.389  1.00  0.00     0.172 HD
BRANCH  14  16
HETATM   16  S   UNL     1      -1.206   4.844  30.612  1.00  0.00     0.259 S 
HETATM   17  O   UNL     1      -1.881   4.556  31.842  1.00  0.00    -0.201 OA
HETATM   18  O   UNL     1      -1.616   4.170  29.421  1.00  0.00    -0.201 OA
BRANCH  16  19
HETATM   19  C   UNL     1       0.492   4.535  30.852  1.00  0.00     0.079 A 
HETATM   20  C   UNL     1       0.943   4.042  32.071  1.00  0.00     0.025 A 
HETATM   21  C   UNL     1       2.285   3.789  32.257  1.00  0.00     0.002 A 
HETATM   22  C   UNL     1       3.186   4.028  31.237  1.00  0.00     0.000 A 
HETATM   23  C   UNL     1       2.742   4.523  30.023  1.00  0.00     0.002 A 
HETATM   24  C   UNL     1       1.402   4.777  29.829  1.00  0.00     0.025 A 
ENDBRANCH  16  19
ENDBRANCH  14  16
ENDBRANCH  13  14
ENDBRANCH   1  13
BRANCH   2  25
HETATM   25  C   UNL     1       1.812   7.280  37.074  1.00  0.00     0.128 C 
HETATM   26  C   UNL     1       1.321   5.910  37.460  1.00  0.00     0.027 C 
ENDBRANCH   2  25
TORSDOF 5
ENDMDL
MODEL 20
REMARK VINA RESULT:    -7.281      2.278      6.142
REMARK INTER + INTRA:         -11.041
REMARK INTER:                 -10.602
REMARK INTRA:                  -0.439
REMARK UNBOUND:                -1.631
REMARK  5 active torsions:
REMARK  status: ('A' for Active; 'I' for Inactive)
REMARK    1  A    between atoms: C_1  and  C_9 
REMARK    2  A    between atoms: N_2  and  C_8 
REMARK    3  A    between atoms: C_9  and  N_21 
REMARK    4  A    between atoms: C_12  and  S_26 
REMARK    5  A    between atoms: N_21  and  S_26 
ROOT
HETATM    1  C   UNL     1       0.060   6.569  30.540  1.00  0.00    -0.039 A 
HETATM    2  N   UNL     1      -1.818   4.929  33.937  1.00  0.00    -0.314 N 
HETATM    3  C   UNL     1      -1.953   6.008  31.749  1.00  0.00     0.031 A 
HETATM    4  C   UNL     1      -1.199   5.458  32.780  1.00  0.00     0.048 A 
HETATM    5  C   UNL     1       0.206   5.440  32.686  1.00  0.00    -0.003 A 
HETATM    6  C   UNL     1       0.814   6.000  31.557  1.00  0.00     0.023 A 
HETATM    7  C   UNL     1       0.954   4.848  33.780  1.00  0.00    -0.044 A 
HETATM    8  C   UNL     1       2.455   4.801  33.734  1.00  0.00     0.049 C 
HETATM    9  C   UNL     1      -1.324   6.557  30.645  1.00  0.00     0.011 A 
HETATM   10  C   UNL     1       0.281   4.347  34.832  1.00  0.00     0.082 A 
HETATM   11  C   UNL     1      -1.120   4.350  34.976  1.00  0.00     0.248 A 
HETATM   12  O   UNL     1      -1.720   3.859  35.929  1.00  0.00    -0.268 OA
ENDROOT
BRANCH   1  13
HETATM   13  C   UNL     1       0.730   7.231  29.359  1.00  0.00     0.170 C 
BRANCH  13  14
HETATM   14  N   UNL     1       0.973   8.674  29.532  1.00  0.00    -0.311 N 
ATOM     15  HN  UNL     1       0.222   9.332  29.323  1.00  0.00     0.172 HD
BRANCH  14  16
HETATM   16  S   UNL     1       2.393   9.246  30.041  1.00  0.00     0.259 S 
HETATM   17  O   UNL     1       2.689  10.384  29.224  1.00  0.00    -0.201 OA
HETATM   18  O   UNL     1       2.290   9.416  31.457  1.00  0.00    -0.201 OA
BRANCH  16  19
HETATM   19  C   UNL     1       3.606   8.036  29.728  1.00  0.00     0.079 A 
HETATM   20  C   UNL     1       3.704   6.920  30.552  1.00  0.00     0.025 A 
HETATM   21  C   UNL     1       4.659   5.959  30.298  1.00  0.00     0.002 A 
HETATM   22  C   UNL     1       5.522   6.101  29.229  1.00  0.00     0.000 A 
HETATM   23  C   UNL     1       5.431   7.211  28.407  1.00  0.00     0.002 A 
HETATM   24  C   UNL     1       4.478   8.177  28.655  1.00  0.00     0.025 A 
ENDBRANCH  16  19
ENDBRANCH  14  16
ENDBRANCH  13  14
ENDBRANCH   1  13
BRANCH   2  25
HETATM   25  C   UNL     1      -3.277   5.031  34.104  1.00  0.00     0.128 C 
HETATM   26  C   UNL     1      -3.987   3.897  33.413  1.00  0.00     0.027 C 
ENDBRANCH   2  25
TORSDOF 5
ENDMDL
