MODEL 1
REMARK VINA RESULT:    -7.613      0.000      0.000
REMARK INTER + INTRA:         -10.564
REMARK INTER:                  -9.838
REMARK INTRA:                  -0.726
REMARK UNBOUND:                -0.726
REMARK  5 active torsions:
REMARK  status: ('A' for Active; 'I' for Inactive)
REMARK       I    between atoms: C_5  and  N_6 
REMARK    1  A    between atoms: C_5  and  C_9 
REMARK    2  A    between atoms: C_9  and  N_10 
REMARK    3  A    between atoms: C_18  and  C_19 
REMARK    4  A    between atoms: C_19  and  C_20 
REMARK    5  A    between atoms: C_20  and  C_21 
ROOT
HETATM    1  C   UNL     1      -1.480   5.609   4.317  1.00  0.00     0.001 A 
HETATM    2  C   UNL     1      -1.856   4.792   5.363  1.00  0.00     0.019 A 
HETATM    3  C   UNL     1      -1.221   3.275   7.201  1.00  0.00     0.261 A 
HETATM    4  N   UNL     1      -0.141   2.645   7.828  1.00  0.00    -0.294 N 
HETATM    5  O   UNL     1      -2.341   3.216   7.697  1.00  0.00    -0.267 OA
HETATM    6  C   UNL     1      -0.878   4.068   6.051  1.00  0.00     0.059 A 
HETATM    7  C   UNL     1      -0.158   5.706   3.935  1.00  0.00     0.002 A 
HETATM    8  C   UNL     1       0.815   5.006   4.615  1.00  0.00     0.030 A 
HETATM    9  C   UNL     1       0.465   4.176   5.674  1.00  0.00     0.049 A 
HETATM   10  N   UNL     1       1.484   3.510   6.348  1.00  0.00    -0.345 N 
ATOM     11  HN  UNL     1       2.452   3.576   6.032  1.00  0.00     0.167 HD
HETATM   12  C   UNL     1       1.174   2.808   7.381  1.00  0.00     0.087 A 
ENDROOT
BRANCH   4  13
HETATM   13  C   UNL     1      -0.419   1.816   8.985  1.00  0.00     0.236 C 
BRANCH  13  14
HETATM   14  C   UNL     1      -0.803   2.655  10.196  1.00  0.00     0.235 C 
HETATM   15  O   UNL     1      -0.027   3.511  10.615  1.00  0.00    -0.272 OA
HETATM   16  N   UNL     1      -1.958   2.393  10.796  1.00  0.00    -0.364 N 
HETATM   17  C   UNL     1      -2.465   3.221  11.883  1.00  0.00     0.149 C 
ATOM     18  HN  UNL     1      -2.506   1.589  10.489  1.00  0.00     0.161 HD
ENDBRANCH  13  14
ENDBRANCH   4  13
BRANCH  12  19
HETATM   19  C   UNL     1       2.260   2.096   8.119  1.00  0.00     0.087 C 
BRANCH  19  20
HETATM   20  C   UNL     1       3.097   2.987   9.010  1.00  0.00     0.120 C 
BRANCH  20  21
HETATM   21  C   UNL     1       4.360   3.489   8.368  1.00  0.00     0.172 C 
HETATM   22  O   UNL     1       4.358   4.493   7.658  1.00  0.00    -0.648 OA
HETATM   23  O   UNL     1       5.416   2.824   8.668  1.00  0.00    -0.648 OA
ENDBRANCH  20  21
ENDBRANCH  19  20
ENDBRANCH  12  19
TORSDOF 5
ENDMDL
MODEL 2
REMARK VINA RESULT:    -6.701      3.019      5.612
REMARK INTER + INTRA:          -9.386
REMARK INTER:                  -8.637
REMARK INTRA:                  -0.748
REMARK UNBOUND:                -0.726
REMARK  5 active torsions:
REMARK  status: ('A' for Active; 'I' for Inactive)
REMARK       I    between atoms: C_5  and  N_6 
REMARK    1  A    between atoms: C_5  and  C_9 
REMARK    2  A    between atoms: C_9  and  N_10 
REMARK    3  A    between atoms: C_18  and  C_19 
REMARK    4  A    between atoms: C_19  and  C_20 
REMARK    5  A    between atoms: C_20  and  C_21 
ROOT
HETATM    1  C   UNL     1       3.298   3.264   8.210  1.00  0.00     0.001 A 
HETATM    2  C   UNL     1       2.867   3.519   9.495  1.00  0.00     0.019 A 
HETATM    3  C   UNL     1       1.060   3.467  11.174  1.00  0.00     0.261 A 
HETATM    4  N   UNL     1      -0.289   3.161  11.376  1.00  0.00    -0.294 N 
HETATM    5  O   UNL     1       1.778   3.749  12.128  1.00  0.00    -0.267 OA
HETATM    6  C   UNL     1       1.526   3.297   9.824  1.00  0.00     0.059 A 
HETATM    7  C   UNL     1       2.421   2.810   7.247  1.00  0.00     0.002 A 
HETATM    8  C   UNL     1       1.101   2.576   7.564  1.00  0.00     0.030 A 
HETATM    9  C   UNL     1       0.639   2.823   8.851  1.00  0.00     0.049 A 
HETATM   10  N   UNL     1      -0.696   2.546   9.132  1.00  0.00    -0.345 N 
ATOM     11  HN  UNL     1      -1.332   2.235   8.398  1.00  0.00     0.167 HD
HETATM   12  C   UNL     1      -1.106   2.692  10.343  1.00  0.00     0.087 A 
ENDROOT
BRANCH   4  13
HETATM   13  C   UNL     1      -0.828   3.327  12.713  1.00  0.00     0.236 C 
BRANCH  13  14
HETATM   14  C   UNL     1      -0.381   2.206  13.640  1.00  0.00     0.235 C 
HETATM   15  O   UNL     1      -0.857   1.080  13.510  1.00  0.00    -0.272 OA
HETATM   16  N   UNL     1       0.482   2.500  14.605  1.00  0.00    -0.364 N 
HETATM   17  C   UNL     1       1.060   1.472  15.461  1.00  0.00     0.149 C 
ATOM     18  HN  UNL     1       0.749   3.474  14.751  1.00  0.00     0.161 HD
ENDBRANCH  13  14
ENDBRANCH   4  13
BRANCH  12  19
HETATM   19  C   UNL     1      -2.534   2.389  10.659  1.00  0.00     0.087 C 
BRANCH  19  20
HETATM   20  C   UNL     1      -3.334   1.857   9.490  1.00  0.00     0.120 C 
BRANCH  20  21
HETATM   21  C   UNL     1      -4.009   2.921   8.670  1.00  0.00     0.172 C 
HETATM   22  O   UNL     1      -5.095   3.390   9.006  1.00  0.00    -0.648 OA
HETATM   23  O   UNL     1      -3.339   3.319   7.650  1.00  0.00    -0.648 OA
ENDBRANCH  20  21
ENDBRANCH  19  20
ENDBRANCH  12  19
TORSDOF 5
ENDMDL
MODEL 3
REMARK VINA RESULT:    -6.481      3.296      6.008
REMARK INTER + INTRA:          -9.102
REMARK INTER:                  -8.519
REMARK INTRA:                  -0.582
REMARK UNBOUND:                -0.726
REMARK  5 active torsions:
REMARK  status: ('A' for Active; 'I' for Inactive)
REMARK       I    between atoms: C_5  and  N_6 
REMARK    1  A    between atoms: C_5  and  C_9 
REMARK    2  A    between atoms: C_9  and  N_10 
REMARK    3  A    between atoms: C_18  and  C_19 
REMARK    4  A    between atoms: C_19  and  C_20 
REMARK    5  A    between atoms: C_20  and  C_21 
ROOT
HETATM    1  C   UNL     1       3.032   3.127   7.984  1.00  0.00     0.001 A 
HETATM    2  C   UNL     1       2.866   3.577   9.278  1.00  0.00     0.019 A 
HETATM    3  C   UNL     1       1.477   3.715  11.311  1.00  0.00     0.261 A 
HETATM    4  N   UNL     1       0.238   3.372  11.862  1.00  0.00    -0.294 N 
HETATM    5  O   UNL     1       2.353   4.199  12.020  1.00  0.00    -0.267 OA
HETATM    6  C   UNL     1       1.655   3.339   9.934  1.00  0.00     0.059 A 
HETATM    7  C   UNL     1       2.016   2.462   7.330  1.00  0.00     0.002 A 
HETATM    8  C   UNL     1       0.823   2.212   7.973  1.00  0.00     0.030 A 
HETATM    9  C   UNL     1       0.628   2.652   9.277  1.00  0.00     0.049 A 
HETATM   10  N   UNL     1      -0.582   2.352   9.895  1.00  0.00    -0.345 N 
ATOM     11  HN  UNL     1      -1.329   1.882   9.384  1.00  0.00     0.167 HD
HETATM   12  C   UNL     1      -0.734   2.684  11.129  1.00  0.00     0.087 A 
ENDROOT
BRANCH   4  13
HETATM   13  C   UNL     1      -0.014   3.737  13.243  1.00  0.00     0.236 C 
BRANCH  13  14
HETATM   14  C   UNL     1       0.350   2.607  14.196  1.00  0.00     0.235 C 
HETATM   15  O   UNL     1      -0.512   2.125  14.928  1.00  0.00    -0.272 OA
HETATM   16  N   UNL     1       1.616   2.212  14.241  1.00  0.00    -0.364 N 
HETATM   17  C   UNL     1       2.036   1.059  15.029  1.00  0.00     0.149 C 
ATOM     18  HN  UNL     1       2.317   2.729  13.709  1.00  0.00     0.161 HD
ENDBRANCH  13  14
ENDBRANCH   4  13
BRANCH  12  19
HETATM   19  C   UNL     1      -2.025   2.359  11.806  1.00  0.00     0.087 C 
BRANCH  19  20
HETATM   20  C   UNL     1      -3.227   3.086  11.244  1.00  0.00     0.120 C 
BRANCH  20  21
HETATM   21  C   UNL     1      -3.793   4.138  12.156  1.00  0.00     0.172 C 
HETATM   22  O   UNL     1      -4.459   5.073  11.715  1.00  0.00    -0.648 OA
HETATM   23  O   UNL     1      -3.569   3.942  13.405  1.00  0.00    -0.648 OA
ENDBRANCH  20  21
ENDBRANCH  19  20
ENDBRANCH  12  19
TORSDOF 5
ENDMDL
MODEL 4
REMARK VINA RESULT:    -6.424      3.432      5.884
REMARK INTER + INTRA:          -9.028
REMARK INTER:                  -8.398
REMARK INTRA:                  -0.630
REMARK UNBOUND:                -0.726
REMARK  5 active torsions:
REMARK  status: ('A' for Active; 'I' for Inactive)
REMARK       I    between atoms: C_5  and  N_6 
REMARK    1  A    between atoms: C_5  and  C_9 
REMARK    2  A    between atoms: C_9  and  N_10 
REMARK    3  A    between atoms: C_18  and  C_19 
REMARK    4  A    between atoms: C_19  and  C_20 
REMARK    5  A    between atoms: C_20  and  C_21 
ROOT
HETATM    1  C   UNL     1      -0.105   1.813   8.800  1.00  0.00     0.001 A 
HETATM    2  C   UNL     1      -1.171   2.507   8.266  1.00  0.00     0.019 A 
HETATM    3  C   UNL     1      -2.071   3.986   6.509  1.00  0.00     0.261 A 
HETATM    4  N   UNL     1      -1.737   4.723   5.368  1.00  0.00    -0.294 N 
HETATM    5  O   UNL     1      -3.246   3.858   6.838  1.00  0.00    -0.267 OA
HETATM    6  C   UNL     1      -0.968   3.318   7.146  1.00  0.00     0.059 A 
HETATM    7  C   UNL     1       1.157   1.926   8.253  1.00  0.00     0.002 A 
HETATM    8  C   UNL     1       1.365   2.713   7.142  1.00  0.00     0.030 A 
HETATM    9  C   UNL     1       0.309   3.422   6.582  1.00  0.00     0.049 A 
HETATM   10  N   UNL     1       0.561   4.183   5.444  1.00  0.00    -0.345 N 
ATOM     11  HN  UNL     1       1.507   4.272   5.073  1.00  0.00     0.167 HD
HETATM   12  C   UNL     1      -0.430   4.772   4.874  1.00  0.00     0.087 A 
ENDROOT
BRANCH   4  13
HETATM   13  C   UNL     1      -2.801   5.435   4.686  1.00  0.00     0.236 C 
BRANCH  13  14
HETATM   14  C   UNL     1      -3.683   4.489   3.883  1.00  0.00     0.235 C 
HETATM   15  O   UNL     1      -3.327   4.127   2.764  1.00  0.00    -0.272 OA
HETATM   16  N   UNL     1      -4.847   4.125   4.407  1.00  0.00    -0.364 N 
HETATM   17  C   UNL     1      -5.700   3.129   3.769  1.00  0.00     0.149 C 
ATOM     18  HN  UNL     1      -5.154   4.554   5.280  1.00  0.00     0.161 HD
ENDBRANCH  13  14
ENDBRANCH   4  13
BRANCH  12  19
HETATM   19  C   UNL     1      -0.174   5.584   3.647  1.00  0.00     0.087 C 
BRANCH  19  20
HETATM   20  C   UNL     1       0.581   4.851   2.559  1.00  0.00     0.120 C 
BRANCH  20  21
HETATM   21  C   UNL     1      -0.269   3.919   1.741  1.00  0.00     0.172 C 
HETATM   22  O   UNL     1      -0.817   4.297   0.708  1.00  0.00    -0.648 OA
HETATM   23  O   UNL     1      -0.320   2.714   2.182  1.00  0.00    -0.648 OA
ENDBRANCH  20  21
ENDBRANCH  19  20
ENDBRANCH  12  19
TORSDOF 5
ENDMDL
MODEL 5
REMARK VINA RESULT:    -6.347      3.447      4.872
REMARK INTER + INTRA:          -8.928
REMARK INTER:                  -8.628
REMARK INTRA:                  -0.300
REMARK UNBOUND:                -0.726
REMARK  5 active torsions:
REMARK  status: ('A' for Active; 'I' for Inactive)
REMARK       I    between atoms: C_5  and  N_6 
REMARK    1  A    between atoms: C_5  and  C_9 
REMARK    2  A    between atoms: C_9  and  N_10 
REMARK    3  A    between atoms: C_18  and  C_19 
REMARK    4  A    between atoms: C_19  and  C_20 
REMARK    5  A    between atoms: C_20  and  C_21 
ROOT
HETATM    1  C   UNL     1       1.755   2.797   7.374  1.00  0.00     0.001 A 
HETATM    2  C   UNL     1       0.581   2.424   7.994  1.00  0.00     0.019 A 
HETATM    3  C   UNL     1      -0.806   2.344  10.032  1.00  0.00     0.261 A 
HETATM    4  N   UNL     1      -0.834   2.654  11.396  1.00  0.00    -0.294 N 
HETATM    5  O   UNL     1      -1.823   1.955   9.467  1.00  0.00    -0.267 OA
HETATM    6  C   UNL     1       0.436   2.638   9.368  1.00  0.00     0.059 A 
HETATM    7  C   UNL     1       2.788   3.361   8.094  1.00  0.00     0.002 A 
HETATM    8  C   UNL     1       2.650   3.587   9.446  1.00  0.00     0.030 A 
HETATM    9  C   UNL     1       1.477   3.222  10.097  1.00  0.00     0.049 A 
HETATM   10  N   UNL     1       1.372   3.495  11.458  1.00  0.00    -0.345 N 
ATOM     11  HN  UNL     1       2.158   3.889  11.975  1.00  0.00     0.167 HD
HETATM   12  C   UNL     1       0.258   3.237  12.046  1.00  0.00     0.087 A 
ENDROOT
BRANCH   4  13
HETATM   13  C   UNL     1      -2.051   2.366  12.131  1.00  0.00     0.236 C 
BRANCH  13  14
HETATM   14  C   UNL     1      -3.194   3.274  11.698  1.00  0.00     0.235 C 
HETATM   15  O   UNL     1      -3.105   4.489  11.866  1.00  0.00    -0.272 OA
HETATM   16  N   UNL     1      -4.284   2.709  11.195  1.00  0.00    -0.364 N 
HETATM   17  C   UNL     1      -5.376   3.500  10.641  1.00  0.00     0.149 C 
ATOM     18  HN  UNL     1      -4.361   1.692  11.195  1.00  0.00     0.161 HD
ENDBRANCH  13  14
ENDBRANCH   4  13
BRANCH  12  19
HETATM   19  C   UNL     1       0.130   3.534  13.504  1.00  0.00     0.087 C 
BRANCH  19  20
HETATM   20  C   UNL     1       0.179   2.314  14.398  1.00  0.00     0.120 C 
BRANCH  20  21
HETATM   21  C   UNL     1       1.502   1.601  14.395  1.00  0.00     0.172 C 
HETATM   22  O   UNL     1       2.544   2.192  14.115  1.00  0.00    -0.648 OA
HETATM   23  O   UNL     1       1.449   0.370  14.755  1.00  0.00    -0.648 OA
ENDBRANCH  20  21
ENDBRANCH  19  20
ENDBRANCH  12  19
TORSDOF 5
ENDMDL
MODEL 6
REMARK VINA RESULT:    -6.114      3.385      4.835
REMARK INTER + INTRA:          -8.627
REMARK INTER:                  -8.232
REMARK INTRA:                  -0.395
REMARK UNBOUND:                -0.726
REMARK  5 active torsions:
REMARK  status: ('A' for Active; 'I' for Inactive)
REMARK       I    between atoms: C_5  and  N_6 
REMARK    1  A    between atoms: C_5  and  C_9 
REMARK    2  A    between atoms: C_9  and  N_10 
REMARK    3  A    between atoms: C_18  and  C_19 
REMARK    4  A    between atoms: C_19  and  C_20 
REMARK    5  A    between atoms: C_20  and  C_21 
ROOT
HETATM    1  C   UNL     1      -4.974   2.088  10.445  1.00  0.00     0.001 A 
HETATM    2  C   UNL     1      -4.132   2.394  11.494  1.00  0.00     0.019 A 
HETATM    3  C   UNL     1      -1.875   2.978  12.299  1.00  0.00     0.261 A 
HETATM    4  N   UNL     1      -0.546   3.170  11.905  1.00  0.00    -0.294 N 
HETATM    5  O   UNL     1      -2.225   3.253  13.442  1.00  0.00    -0.267 OA
HETATM    6  C   UNL     1      -2.768   2.572  11.247  1.00  0.00     0.059 A 
HETATM    7  C   UNL     1      -4.484   1.940   9.165  1.00  0.00     0.002 A 
HETATM    8  C   UNL     1      -3.143   2.125   8.909  1.00  0.00     0.030 A 
HETATM    9  C   UNL     1      -2.271   2.435   9.946  1.00  0.00     0.049 A 
HETATM   10  N   UNL     1      -0.930   2.640   9.635  1.00  0.00    -0.345 N 
ATOM     11  HN  UNL     1      -0.585   2.500   8.686  1.00  0.00     0.167 HD
HETATM   12  C   UNL     1      -0.137   3.010  10.578  1.00  0.00     0.087 A 
ENDROOT
BRANCH   4  13
HETATM   13  C   UNL     1       0.411   3.564  12.921  1.00  0.00     0.236 C 
BRANCH  13  14
HETATM   14  C   UNL     1       1.006   2.356  13.629  1.00  0.00     0.235 C 
HETATM   15  O   UNL     1       2.222   2.279  13.787  1.00  0.00    -0.272 OA
HETATM   16  N   UNL     1       0.181   1.388  14.012  1.00  0.00    -0.364 N 
HETATM   17  C   UNL     1       0.641   0.254  14.804  1.00  0.00     0.149 C 
ATOM     18  HN  UNL     1      -0.802   1.439  13.745  1.00  0.00     0.161 HD
ENDBRANCH  13  14
ENDBRANCH   4  13
BRANCH  12  19
HETATM   19  C   UNL     1       1.303   3.242  10.255  1.00  0.00     0.087 C 
BRANCH  19  20
HETATM   20  C   UNL     1       1.703   2.834   8.854  1.00  0.00     0.120 C 
BRANCH  20  21
HETATM   21  C   UNL     1       3.174   2.969   8.569  1.00  0.00     0.172 C 
HETATM   22  O   UNL     1       3.768   4.026   8.774  1.00  0.00    -0.648 OA
HETATM   23  O   UNL     1       3.741   1.894   8.157  1.00  0.00    -0.648 OA
ENDBRANCH  20  21
ENDBRANCH  19  20
ENDBRANCH  12  19
TORSDOF 5
ENDMDL
MODEL 7
REMARK VINA RESULT:    -6.036      3.645      5.322
REMARK INTER + INTRA:          -8.527
REMARK INTER:                  -7.824
REMARK INTRA:                  -0.702
REMARK UNBOUND:                -0.726
REMARK  5 active torsions:
REMARK  status: ('A' for Active; 'I' for Inactive)
REMARK       I    between atoms: C_5  and  N_6 
REMARK    1  A    between atoms: C_5  and  C_9 
REMARK    2  A    between atoms: C_9  and  N_10 
REMARK    3  A    between atoms: C_18  and  C_19 
REMARK    4  A    between atoms: C_19  and  C_20 
REMARK    5  A    between atoms: C_20  and  C_21 
ROOT
HETATM    1  C   UNL     1       1.797   2.648   7.545  1.00  0.00     0.001 A 
HETATM    2  C   UNL     1       0.561   2.261   8.021  1.00  0.00     0.019 A 
HETATM    3  C   UNL     1      -1.074   2.198   9.867  1.00  0.00     0.261 A 
HETATM    4  N   UNL     1      -1.283   2.541  11.206  1.00  0.00    -0.294 N 
HETATM    5  O   UNL     1      -2.001   1.769   9.188  1.00  0.00    -0.267 OA
HETATM    6  C   UNL     1       0.236   2.506   9.358  1.00  0.00     0.059 A 
HETATM    7  C   UNL     1       2.716   3.255   8.375  1.00  0.00     0.002 A 
HETATM    8  C   UNL     1       2.401   3.512   9.691  1.00  0.00     0.030 A 
HETATM    9  C   UNL     1       1.163   3.135  10.198  1.00  0.00     0.049 A 
HETATM   10  N   UNL     1       0.878   3.439  11.526  1.00  0.00    -0.345 N 
ATOM     11  HN  UNL     1       1.582   3.866  12.127  1.00  0.00     0.167 HD
HETATM   12  C   UNL     1      -0.297   3.168  11.974  1.00  0.00     0.087 A 
ENDROOT
BRANCH   4  13
HETATM   13  C   UNL     1      -2.578   2.242  11.787  1.00  0.00     0.236 C 
BRANCH  13  14
HETATM   14  C   UNL     1      -3.640   3.230  11.327  1.00  0.00     0.235 C 
HETATM   15  O   UNL     1      -3.570   4.407  11.674  1.00  0.00    -0.272 OA
HETATM   16  N   UNL     1      -4.649   2.768  10.598  1.00  0.00    -0.364 N 
HETATM   17  C   UNL     1      -5.644   3.657  10.010  1.00  0.00     0.149 C 
ATOM     18  HN  UNL     1      -4.730   1.763  10.444  1.00  0.00     0.161 HD
ENDBRANCH  13  14
ENDBRANCH   4  13
BRANCH  12  19
HETATM   19  C   UNL     1      -0.617   3.499  13.395  1.00  0.00     0.087 C 
BRANCH  19  20
HETATM   20  C   UNL     1       0.128   2.666  14.414  1.00  0.00     0.120 C 
BRANCH  20  21
HETATM   21  C   UNL     1      -0.451   1.296  14.633  1.00  0.00     0.172 C 
HETATM   22  O   UNL     1      -1.329   1.102  15.472  1.00  0.00    -0.648 OA
HETATM   23  O   UNL     1       0.005   0.389  13.847  1.00  0.00    -0.648 OA
ENDBRANCH  20  21
ENDBRANCH  19  20
ENDBRANCH  12  19
TORSDOF 5
ENDMDL
MODEL 8
REMARK VINA RESULT:    -6.033      3.260      7.711
REMARK INTER + INTRA:          -8.522
REMARK INTER:                  -7.981
REMARK INTRA:                  -0.541
REMARK UNBOUND:                -0.726
REMARK  5 active torsions:
REMARK  status: ('A' for Active; 'I' for Inactive)
REMARK       I    between atoms: C_5  and  N_6 
REMARK    1  A    between atoms: C_5  and  C_9 
REMARK    2  A    between atoms: C_9  and  N_10 
REMARK    3  A    between atoms: C_18  and  C_19 
REMARK    4  A    between atoms: C_19  and  C_20 
REMARK    5  A    between atoms: C_20  and  C_21 
ROOT
HETATM    1  C   UNL     1       0.737   0.660  15.811  1.00  0.00     0.001 A 
HETATM    2  C   UNL     1       1.428   1.475  14.939  1.00  0.00     0.019 A 
HETATM    3  C   UNL     1       1.459   2.828  12.877  1.00  0.00     0.261 A 
HETATM    4  N   UNL     1       0.702   3.219  11.767  1.00  0.00    -0.294 N 
HETATM    5  O   UNL     1       2.552   3.343  13.090  1.00  0.00    -0.267 OA
HETATM    6  C   UNL     1       0.803   1.907  13.765  1.00  0.00     0.059 A 
HETATM    7  C   UNL     1      -0.551   0.254  15.530  1.00  0.00     0.002 A 
HETATM    8  C   UNL     1      -1.180   0.684  14.382  1.00  0.00     0.030 A 
HETATM    9  C   UNL     1      -0.509   1.508  13.486  1.00  0.00     0.049 A 
HETATM   10  N   UNL     1      -1.194   1.939  12.354  1.00  0.00    -0.345 N 
ATOM     11  HN  UNL     1      -2.137   1.606  12.154  1.00  0.00     0.167 HD
HETATM   12  C   UNL     1      -0.606   2.768  11.566  1.00  0.00     0.087 A 
ENDROOT
BRANCH   4  13
HETATM   13  C   UNL     1       1.311   4.135  10.821  1.00  0.00     0.236 C 
BRANCH  13  14
HETATM   14  C   UNL     1       2.191   3.402   9.819  1.00  0.00     0.235 C 
HETATM   15  O   UNL     1       3.414   3.490   9.902  1.00  0.00    -0.272 OA
HETATM   16  N   UNL     1       1.597   2.725   8.844  1.00  0.00    -0.364 N 
HETATM   17  C   UNL     1       2.350   1.894   7.913  1.00  0.00     0.149 C 
ATOM     18  HN  UNL     1       0.583   2.789   8.742  1.00  0.00     0.161 HD
ENDBRANCH  13  14
ENDBRANCH   4  13
BRANCH  12  19
HETATM   19  C   UNL     1      -1.334   3.246  10.353  1.00  0.00     0.087 C 
BRANCH  19  20
HETATM   20  C   UNL     1      -1.970   2.146   9.531  1.00  0.00     0.120 C 
BRANCH  20  21
HETATM   21  C   UNL     1      -3.470   2.102   9.616  1.00  0.00     0.172 C 
HETATM   22  O   UNL     1      -4.040   1.542  10.551  1.00  0.00    -0.648 OA
HETATM   23  O   UNL     1      -4.079   2.733   8.677  1.00  0.00    -0.648 OA
ENDBRANCH  20  21
ENDBRANCH  19  20
ENDBRANCH  12  19
TORSDOF 5
ENDMDL
MODEL 9
REMARK VINA RESULT:    -6.014      3.504      5.170
REMARK INTER + INTRA:          -8.497
REMARK INTER:                  -7.949
REMARK INTRA:                  -0.548
REMARK UNBOUND:                -0.726
REMARK  5 active torsions:
REMARK  status: ('A' for Active; 'I' for Inactive)
REMARK       I    between atoms: C_5  and  N_6 
REMARK    1  A    between atoms: C_5  and  C_9 
REMARK    2  A    between atoms: C_9  and  N_10 
REMARK    3  A    between atoms: C_18  and  C_19 
REMARK    4  A    between atoms: C_19  and  C_20 
REMARK    5  A    between atoms: C_20  and  C_21 
ROOT
HETATM    1  C   UNL     1       0.263   2.598   7.559  1.00  0.00     0.001 A 
HETATM    2  C   UNL     1      -0.853   2.564   8.369  1.00  0.00     0.019 A 
HETATM    3  C   UNL     1      -1.850   2.782  10.614  1.00  0.00     0.261 A 
HETATM    4  N   UNL     1      -1.561   2.998  11.966  1.00  0.00    -0.294 N 
HETATM    5  O   UNL     1      -3.014   2.760  10.229  1.00  0.00    -0.267 OA
HETATM    6  C   UNL     1      -0.702   2.724   9.750  1.00  0.00     0.059 A 
HETATM    7  C   UNL     1       1.522   2.772   8.097  1.00  0.00     0.002 A 
HETATM    8  C   UNL     1       1.679   2.943   9.454  1.00  0.00     0.030 A 
HETATM    9  C   UNL     1       0.573   2.914  10.294  1.00  0.00     0.049 A 
HETATM   10  N   UNL     1       0.778   3.118  11.656  1.00  0.00    -0.345 N 
ATOM     11  HN  UNL     1       1.719   3.219  12.034  1.00  0.00     0.167 HD
HETATM   12  C   UNL     1      -0.252   3.177  12.424  1.00  0.00     0.087 A 
ENDROOT
BRANCH   4  13
HETATM   13  C   UNL     1      -2.672   3.051  12.896  1.00  0.00     0.236 C 
BRANCH  13  14
HETATM   14  C   UNL     1      -3.312   1.682  13.083  1.00  0.00     0.235 C 
HETATM   15  O   UNL     1      -2.711   0.808  13.703  1.00  0.00    -0.272 OA
HETATM   16  N   UNL     1      -4.492   1.462  12.516  1.00  0.00    -0.364 N 
HETATM   17  C   UNL     1      -5.237   0.229  12.742  1.00  0.00     0.149 C 
ATOM     18  HN  UNL     1      -4.890   2.176  11.906  1.00  0.00     0.161 HD
ENDBRANCH  13  14
ENDBRANCH   4  13
BRANCH  12  19
HETATM   19  C   UNL     1      -0.045   3.406  13.886  1.00  0.00     0.087 C 
BRANCH  19  20
HETATM   20  C   UNL     1       0.116   2.141  14.700  1.00  0.00     0.120 C 
BRANCH  20  21
HETATM   21  C   UNL     1       1.412   1.416  14.463  1.00  0.00     0.172 C 
HETATM   22  O   UNL     1       2.433   2.024  14.147  1.00  0.00    -0.648 OA
HETATM   23  O   UNL     1       1.364   0.150  14.669  1.00  0.00    -0.648 OA
ENDBRANCH  20  21
ENDBRANCH  19  20
ENDBRANCH  12  19
TORSDOF 5
ENDMDL
MODEL 10
REMARK VINA RESULT:    -5.966      2.731      5.221
REMARK INTER + INTRA:          -8.436
REMARK INTER:                  -7.747
REMARK INTRA:                  -0.689
REMARK UNBOUND:                -0.726
REMARK  5 active torsions:
REMARK  status: ('A' for Active; 'I' for Inactive)
REMARK       I    between atoms: C_5  and  N_6 
REMARK    1  A    between atoms: C_5  and  C_9 
REMARK    2  A    between atoms: C_9  and  N_10 
REMARK    3  A    between atoms: C_18  and  C_19 
REMARK    4  A    between atoms: C_19  and  C_20 
REMARK    5  A    between atoms: C_20  and  C_21 
ROOT
HETATM    1  C   UNL     1      -0.924   3.645  14.372  1.00  0.00     0.001 A 
HETATM    2  C   UNL     1      -1.749   3.214  13.354  1.00  0.00     0.019 A 
HETATM    3  C   UNL     1      -2.019   2.448  11.025  1.00  0.00     0.261 A 
HETATM    4  N   UNL     1      -1.341   2.214   9.824  1.00  0.00    -0.294 N 
HETATM    5  O   UNL     1      -3.190   2.104  11.149  1.00  0.00    -0.267 OA
HETATM    6  C   UNL     1      -1.208   2.982  12.086  1.00  0.00     0.059 A 
HETATM    7  C   UNL     1       0.419   3.865  14.148  1.00  0.00     0.002 A 
HETATM    8  C   UNL     1       0.964   3.627  12.906  1.00  0.00     0.030 A 
HETATM    9  C   UNL     1       0.157   3.191  11.862  1.00  0.00     0.049 A 
HETATM   10  N   UNL     1       0.757   2.938  10.631  1.00  0.00    -0.345 N 
ATOM     11  HN  UNL     1       1.747   3.132  10.482  1.00  0.00     0.167 HD
HETATM   12  C   UNL     1       0.030   2.453   9.688  1.00  0.00     0.087 A 
ENDROOT
BRANCH   4  13
HETATM   13  C   UNL     1      -2.104   1.691   8.707  1.00  0.00     0.236 C 
BRANCH  13  14
HETATM   14  C   UNL     1      -2.922   2.780   8.028  1.00  0.00     0.235 C 
HETATM   15  O   UNL     1      -2.357   3.633   7.348  1.00  0.00    -0.272 OA
HETATM   16  N   UNL     1      -4.233   2.800   8.241  1.00  0.00    -0.364 N 
HETATM   17  C   UNL     1      -5.112   3.727   7.539  1.00  0.00     0.149 C 
ATOM     18  HN  UNL     1      -4.636   2.149   8.915  1.00  0.00     0.161 HD
ENDBRANCH  13  14
ENDBRANCH   4  13
BRANCH  12  19
HETATM   19  C   UNL     1       0.664   2.169   8.366  1.00  0.00     0.087 C 
BRANCH  19  20
HETATM   20  C   UNL     1       1.783   3.116   7.992  1.00  0.00     0.120 C 
BRANCH  20  21
HETATM   21  C   UNL     1       3.132   2.717   8.524  1.00  0.00     0.172 C 
HETATM   22  O   UNL     1       3.663   3.336   9.444  1.00  0.00    -0.648 OA
HETATM   23  O   UNL     1       3.634   1.668   7.979  1.00  0.00    -0.648 OA
ENDBRANCH  20  21
ENDBRANCH  19  20
ENDBRANCH  12  19
TORSDOF 5
ENDMDL
MODEL 11
REMARK VINA RESULT:    -5.912      3.499      5.826
REMARK INTER + INTRA:          -8.365
REMARK INTER:                  -7.637
REMARK INTRA:                  -0.729
REMARK UNBOUND:                -0.726
REMARK  5 active torsions:
REMARK  status: ('A' for Active; 'I' for Inactive)
REMARK       I    between atoms: C_5  and  N_6 
REMARK    1  A    between atoms: C_5  and  C_9 
REMARK    2  A    between atoms: C_9  and  N_10 
REMARK    3  A    between atoms: C_18  and  C_19 
REMARK    4  A    between atoms: C_19  and  C_20 
REMARK    5  A    between atoms: C_20  and  C_21 
ROOT
HETATM    1  C   UNL     1      -0.280   1.861   8.851  1.00  0.00     0.001 A 
HETATM    2  C   UNL     1      -1.275   2.568   8.210  1.00  0.00     0.019 A 
HETATM    3  C   UNL     1      -1.981   4.011   6.338  1.00  0.00     0.261 A 
HETATM    4  N   UNL     1      -1.532   4.696   5.204  1.00  0.00    -0.294 N 
HETATM    5  O   UNL     1      -3.182   3.933   6.575  1.00  0.00    -0.267 OA
HETATM    6  C   UNL     1      -0.955   3.332   7.084  1.00  0.00     0.059 A 
HETATM    7  C   UNL     1       1.025   1.913   8.405  1.00  0.00     0.002 A 
HETATM    8  C   UNL     1       1.348   2.654   7.289  1.00  0.00     0.030 A 
HETATM    9  C   UNL     1       0.365   3.375   6.622  1.00  0.00     0.049 A 
HETATM   10  N   UNL     1       0.733   4.087   5.484  1.00  0.00    -0.345 N 
ATOM     11  HN  UNL     1       1.707   4.132   5.187  1.00  0.00     0.167 HD
HETATM   12  C   UNL     1      -0.189   4.686   4.816  1.00  0.00     0.087 A 
ENDROOT
BRANCH   4  13
HETATM   13  C   UNL     1      -2.513   5.417   4.415  1.00  0.00     0.236 C 
BRANCH  13  14
HETATM   14  C   UNL     1      -2.953   6.701   5.104  1.00  0.00     0.235 C 
HETATM   15  O   UNL     1      -2.162   7.635   5.215  1.00  0.00    -0.272 OA
HETATM   16  N   UNL     1      -4.177   6.748   5.615  1.00  0.00    -0.364 N 
HETATM   17  C   UNL     1      -4.728   7.973   6.182  1.00  0.00     0.149 C 
ATOM     18  HN  UNL     1      -4.749   5.903   5.610  1.00  0.00     0.161 HD
ENDBRANCH  13  14
ENDBRANCH   4  13
BRANCH  12  19
HETATM   19  C   UNL     1       0.192   5.445   3.587  1.00  0.00     0.087 C 
BRANCH  19  20
HETATM   20  C   UNL     1       0.713   4.584   2.457  1.00  0.00     0.120 C 
BRANCH  20  21
HETATM   21  C   UNL     1      -0.097   4.671   1.193  1.00  0.00     0.172 C 
HETATM   22  O   UNL     1       0.390   5.109   0.153  1.00  0.00    -0.648 OA
HETATM   23  O   UNL     1      -1.291   4.207   1.288  1.00  0.00    -0.648 OA
ENDBRANCH  20  21
ENDBRANCH  19  20
ENDBRANCH  12  19
TORSDOF 5
ENDMDL
MODEL 12
REMARK VINA RESULT:    -5.812      3.027      7.245
REMARK INTER + INTRA:          -8.237
REMARK INTER:                  -7.546
REMARK INTRA:                  -0.691
REMARK UNBOUND:                -0.726
REMARK  5 active torsions:
REMARK  status: ('A' for Active; 'I' for Inactive)
REMARK       I    between atoms: C_5  and  N_6 
REMARK    1  A    between atoms: C_5  and  C_9 
REMARK    2  A    between atoms: C_9  and  N_10 
REMARK    3  A    between atoms: C_18  and  C_19 
REMARK    4  A    between atoms: C_19  and  C_20 
REMARK    5  A    between atoms: C_20  and  C_21 
ROOT
HETATM    1  C   UNL     1       1.273   2.190   8.177  1.00  0.00     0.001 A 
HETATM    2  C   UNL     1       1.458   2.978   7.060  1.00  0.00     0.019 A 
HETATM    3  C   UNL     1       0.508   4.449   5.323  1.00  0.00     0.261 A 
HETATM    4  N   UNL     1      -0.681   4.994   4.826  1.00  0.00    -0.294 N 
HETATM    5  O   UNL     1       1.590   4.824   4.882  1.00  0.00    -0.267 OA
HETATM    6  C   UNL     1       0.346   3.552   6.436  1.00  0.00     0.059 A 
HETATM    7  C   UNL     1       0.007   1.951   8.672  1.00  0.00     0.002 A 
HETATM    8  C   UNL     1      -1.093   2.522   8.071  1.00  0.00     0.030 A 
HETATM    9  C   UNL     1      -0.936   3.321   6.945  1.00  0.00     0.049 A 
HETATM   10  N   UNL     1      -2.074   3.899   6.388  1.00  0.00    -0.345 N 
ATOM     11  HN  UNL     1      -3.001   3.687   6.755  1.00  0.00     0.167 HD
HETATM   12  C   UNL     1      -1.924   4.706   5.398  1.00  0.00     0.087 A 
ENDROOT
BRANCH   4  13
HETATM   13  C   UNL     1      -0.591   5.895   3.693  1.00  0.00     0.236 C 
BRANCH  13  14
HETATM   14  C   UNL     1      -0.391   5.136   2.389  1.00  0.00     0.235 C 
HETATM   15  O   UNL     1      -1.363   4.669   1.799  1.00  0.00    -0.272 OA
HETATM   16  N   UNL     1       0.851   4.959   1.953  1.00  0.00    -0.364 N 
HETATM   17  C   UNL     1       1.134   4.355   0.657  1.00  0.00     0.149 C 
ATOM     18  HN  UNL     1       1.630   5.253   2.543  1.00  0.00     0.161 HD
ENDBRANCH  13  14
ENDBRANCH   4  13
BRANCH  12  19
HETATM   19  C   UNL     1      -3.136   5.340   4.798  1.00  0.00     0.087 C 
BRANCH  19  20
HETATM   20  C   UNL     1      -4.406   4.532   4.953  1.00  0.00     0.120 C 
BRANCH  20  21
HETATM   21  C   UNL     1      -4.868   3.862   3.689  1.00  0.00     0.172 C 
HETATM   22  O   UNL     1      -4.471   4.238   2.587  1.00  0.00    -0.648 OA
HETATM   23  O   UNL     1      -5.648   2.858   3.868  1.00  0.00    -0.648 OA
ENDBRANCH  20  21
ENDBRANCH  19  20
ENDBRANCH  12  19
TORSDOF 5
ENDMDL
MODEL 13
REMARK VINA RESULT:    -5.778      3.124      5.091
REMARK INTER + INTRA:          -8.193
REMARK INTER:                  -7.850
REMARK INTRA:                  -0.342
REMARK UNBOUND:                -0.726
REMARK  5 active torsions:
REMARK  status: ('A' for Active; 'I' for Inactive)
REMARK       I    between atoms: C_5  and  N_6 
REMARK    1  A    between atoms: C_5  and  C_9 
REMARK    2  A    between atoms: C_9  and  N_10 
REMARK    3  A    between atoms: C_18  and  C_19 
REMARK    4  A    between atoms: C_19  and  C_20 
REMARK    5  A    between atoms: C_20  and  C_21 
ROOT
HETATM    1  C   UNL     1      -6.177   2.789  10.554  1.00  0.00     0.001 A 
HETATM    2  C   UNL     1      -5.078   3.101  11.328  1.00  0.00     0.019 A 
HETATM    3  C   UNL     1      -2.629   3.130  11.617  1.00  0.00     0.261 A 
HETATM    4  N   UNL     1      -1.415   2.755  11.033  1.00  0.00    -0.294 N 
HETATM    5  O   UNL     1      -2.638   3.830  12.624  1.00  0.00    -0.267 OA
HETATM    6  C   UNL     1      -3.803   2.744  10.881  1.00  0.00     0.059 A 
HETATM    7  C   UNL     1      -6.032   2.117   9.358  1.00  0.00     0.002 A 
HETATM    8  C   UNL     1      -4.778   1.772   8.903  1.00  0.00     0.030 A 
HETATM    9  C   UNL     1      -3.653   2.075   9.661  1.00  0.00     0.049 A 
HETATM   10  N   UNL     1      -2.406   1.731   9.149  1.00  0.00    -0.345 N 
ATOM     11  HN  UNL     1      -2.324   1.212   8.275  1.00  0.00     0.167 HD
HETATM   12  C   UNL     1      -1.359   2.084   9.807  1.00  0.00     0.087 A 
ENDROOT
BRANCH   4  13
HETATM   13  C   UNL     1      -0.192   3.099  11.732  1.00  0.00     0.236 C 
BRANCH  13  14
HETATM   14  C   UNL     1       0.130   2.092  12.827  1.00  0.00     0.235 C 
HETATM   15  O   UNL     1      -0.427   0.996  12.831  1.00  0.00    -0.272 OA
HETATM   16  N   UNL     1       0.974   2.459  13.784  1.00  0.00    -0.364 N 
HETATM   17  C   UNL     1       1.436   1.524  14.803  1.00  0.00     0.149 C 
ATOM     18  HN  UNL     1       1.309   3.422  13.807  1.00  0.00     0.161 HD
ENDBRANCH  13  14
ENDBRANCH   4  13
BRANCH  12  19
HETATM   19  C   UNL     1      -0.014   1.729   9.262  1.00  0.00     0.087 C 
BRANCH  19  20
HETATM   20  C   UNL     1       0.347   2.439   7.975  1.00  0.00     0.120 C 
BRANCH  20  21
HETATM   21  C   UNL     1       1.821   2.468   7.680  1.00  0.00     0.172 C 
HETATM   22  O   UNL     1       2.530   1.483   7.878  1.00  0.00    -0.648 OA
HETATM   23  O   UNL     1       2.244   3.567   7.167  1.00  0.00    -0.648 OA
ENDBRANCH  20  21
ENDBRANCH  19  20
ENDBRANCH  12  19
TORSDOF 5
ENDMDL
MODEL 14
REMARK VINA RESULT:    -5.759      3.357      5.883
REMARK INTER + INTRA:          -8.169
REMARK INTER:                  -7.470
REMARK INTRA:                  -0.699
REMARK UNBOUND:                -0.726
REMARK  5 active torsions:
REMARK  status: ('A' for Active; 'I' for Inactive)
REMARK       I    between atoms: C_5  and  N_6 
REMARK    1  A    between atoms: C_5  and  C_9 
REMARK    2  A    between atoms: C_9  and  N_10 
REMARK    3  A    between atoms: C_18  and  C_19 
REMARK    4  A    between atoms: C_19  and  C_20 
REMARK    5  A    between atoms: C_20  and  C_21 
ROOT
HETATM    1  C   UNL     1       2.016   3.103   9.115  1.00  0.00     0.001 A 
HETATM    2  C   UNL     1       1.160   3.144  10.196  1.00  0.00     0.019 A 
HETATM    3  C   UNL     1      -1.106   2.828  11.118  1.00  0.00     0.261 A 
HETATM    4  N   UNL     1      -2.427   2.505  10.790  1.00  0.00    -0.294 N 
HETATM    5  O   UNL     1      -0.772   2.939  12.293  1.00  0.00    -0.267 OA
HETATM    6  C   UNL     1      -0.200   2.882  10.002  1.00  0.00     0.059 A 
HETATM    7  C   UNL     1       1.544   2.826   7.850  1.00  0.00     0.002 A 
HETATM    8  C   UNL     1       0.208   2.554   7.650  1.00  0.00     0.030 A 
HETATM    9  C   UNL     1      -0.677   2.586   8.721  1.00  0.00     0.049 A 
HETATM   10  N   UNL     1      -2.013   2.279   8.476  1.00  0.00    -0.345 N 
ATOM     11  HN  UNL     1      -2.343   2.101   7.528  1.00  0.00     0.167 HD
HETATM   12  C   UNL     1      -2.818   2.224   9.478  1.00  0.00     0.087 A 
ENDROOT
BRANCH   4  13
HETATM   13  C   UNL     1      -3.398   2.450  11.867  1.00  0.00     0.236 C 
BRANCH  13  14
HETATM   14  C   UNL     1      -3.700   3.835  12.421  1.00  0.00     0.235 C 
HETATM   15  O   UNL     1      -4.005   4.745  11.653  1.00  0.00    -0.272 OA
HETATM   16  N   UNL     1      -3.571   4.027  13.728  1.00  0.00    -0.364 N 
HETATM   17  C   UNL     1      -3.955   5.281  14.364  1.00  0.00     0.149 C 
ATOM     18  HN  UNL     1      -3.192   3.276  14.304  1.00  0.00     0.161 HD
ENDBRANCH  13  14
ENDBRANCH   4  13
BRANCH  12  19
HETATM   19  C   UNL     1      -4.251   1.886   9.229  1.00  0.00     0.087 C 
BRANCH  19  20
HETATM   20  C   UNL     1      -5.105   3.059   8.799  1.00  0.00     0.120 C 
BRANCH  20  21
HETATM   21  C   UNL     1      -5.093   3.321   7.319  1.00  0.00     0.172 C 
HETATM   22  O   UNL     1      -5.968   2.865   6.584  1.00  0.00    -0.648 OA
HETATM   23  O   UNL     1      -4.144   4.086   6.917  1.00  0.00    -0.648 OA
ENDBRANCH  20  21
ENDBRANCH  19  20
ENDBRANCH  12  19
TORSDOF 5
ENDMDL
MODEL 15
REMARK VINA RESULT:    -5.522      4.796      6.950
REMARK INTER + INTRA:          -7.862
REMARK INTER:                  -7.211
REMARK INTRA:                  -0.650
REMARK UNBOUND:                -0.726
REMARK  5 active torsions:
REMARK  status: ('A' for Active; 'I' for Inactive)
REMARK       I    between atoms: C_5  and  N_6 
REMARK    1  A    between atoms: C_5  and  C_9 
REMARK    2  A    between atoms: C_9  and  N_10 
REMARK    3  A    between atoms: C_18  and  C_19 
REMARK    4  A    between atoms: C_19  and  C_20 
REMARK    5  A    between atoms: C_20  and  C_21 
ROOT
HETATM    1  C   UNL     1       1.346   3.259   9.818  1.00  0.00     0.001 A 
HETATM    2  C   UNL     1       0.114   2.813  10.250  1.00  0.00     0.019 A 
HETATM    3  C   UNL     1      -1.525   2.554  12.075  1.00  0.00     0.261 A 
HETATM    4  N   UNL     1      -1.743   2.765  13.440  1.00  0.00    -0.294 N 
HETATM    5  O   UNL     1      -2.445   2.181  11.354  1.00  0.00    -0.267 OA
HETATM    6  C   UNL     1      -0.218   2.925  11.604  1.00  0.00     0.059 A 
HETATM    7  C   UNL     1       2.256   3.795  10.706  1.00  0.00     0.002 A 
HETATM    8  C   UNL     1       1.933   3.921  12.040  1.00  0.00     0.030 A 
HETATM    9  C   UNL     1       0.698   3.482  12.503  1.00  0.00     0.049 A 
HETATM   10  N   UNL     1       0.406   3.654  13.853  1.00  0.00    -0.345 N 
ATOM     11  HN  UNL     1       1.103   4.030  14.495  1.00  0.00     0.167 HD
HETATM   12  C   UNL     1      -0.767   3.328  14.268  1.00  0.00     0.087 A 
ENDROOT
BRANCH   4  13
HETATM   13  C   UNL     1      -3.036   2.396  13.985  1.00  0.00     0.236 C 
BRANCH  13  14
HETATM   14  C   UNL     1      -3.003   1.012  14.616  1.00  0.00     0.235 C 
HETATM   15  O   UNL     1      -2.464   0.082  14.020  1.00  0.00    -0.272 OA
HETATM   16  N   UNL     1      -3.613   0.843  15.784  1.00  0.00    -0.364 N 
HETATM   17  C   UNL     1      -3.530  -0.411  16.521  1.00  0.00     0.149 C 
ATOM     18  HN  UNL     1      -4.155   1.613  16.175  1.00  0.00     0.161 HD
ENDBRANCH  13  14
ENDBRANCH   4  13
BRANCH  12  19
HETATM   19  C   UNL     1      -1.095   3.517  15.713  1.00  0.00     0.087 C 
BRANCH  19  20
HETATM   20  C   UNL     1      -0.093   2.907  16.667  1.00  0.00     0.120 C 
BRANCH  20  21
HETATM   21  C   UNL     1       0.341   1.515  16.300  1.00  0.00     0.172 C 
HETATM   22  O   UNL     1       1.375   1.317  15.665  1.00  0.00    -0.648 OA
HETATM   23  O   UNL     1      -0.419   0.581  16.745  1.00  0.00    -0.648 OA
ENDBRANCH  20  21
ENDBRANCH  19  20
ENDBRANCH  12  19
TORSDOF 5
ENDMDL
MODEL 16
REMARK VINA RESULT:    -5.514      3.852      6.844
REMARK INTER + INTRA:          -7.851
REMARK INTER:                  -7.424
REMARK INTRA:                  -0.427
REMARK UNBOUND:                -0.726
REMARK  5 active torsions:
REMARK  status: ('A' for Active; 'I' for Inactive)
REMARK       I    between atoms: C_5  and  N_6 
REMARK    1  A    between atoms: C_5  and  C_9 
REMARK    2  A    between atoms: C_9  and  N_10 
REMARK    3  A    between atoms: C_18  and  C_19 
REMARK    4  A    between atoms: C_19  and  C_20 
REMARK    5  A    between atoms: C_20  and  C_21 
ROOT
HETATM    1  C   UNL     1      -0.608   0.241  16.147  1.00  0.00     0.001 A 
HETATM    2  C   UNL     1      -1.435   0.780  15.183  1.00  0.00     0.019 A 
HETATM    3  C   UNL     1      -1.718   2.202  13.188  1.00  0.00     0.261 A 
HETATM    4  N   UNL     1      -1.053   3.059  12.305  1.00  0.00    -0.294 N 
HETATM    5  O   UNL     1      -2.873   1.858  12.960  1.00  0.00    -0.267 OA
HETATM    6  C   UNL     1      -0.908   1.688  14.260  1.00  0.00     0.059 A 
HETATM    7  C   UNL     1       0.722   0.599  16.219  1.00  0.00     0.002 A 
HETATM    8  C   UNL     1       1.253   1.483  15.306  1.00  0.00     0.030 A 
HETATM    9  C   UNL     1       0.444   2.041  14.323  1.00  0.00     0.049 A 
HETATM   10  N   UNL     1       1.031   2.908  13.406  1.00  0.00    -0.345 N 
ATOM     11  HN  UNL     1       2.010   3.178  13.493  1.00  0.00     0.167 HD
HETATM   12  C   UNL     1       0.305   3.360  12.445  1.00  0.00     0.087 A 
ENDROOT
BRANCH   4  13
HETATM   13  C   UNL     1      -1.816   3.627  11.209  1.00  0.00     0.236 C 
BRANCH  13  14
HETATM   14  C   UNL     1      -2.346   2.547  10.277  1.00  0.00     0.235 C 
HETATM   15  O   UNL     1      -1.568   1.737   9.778  1.00  0.00    -0.272 OA
HETATM   16  N   UNL     1      -3.642   2.551   9.989  1.00  0.00    -0.364 N 
HETATM   17  C   UNL     1      -4.260   1.487   9.207  1.00  0.00     0.149 C 
ATOM     18  HN  UNL     1      -4.222   3.320  10.325  1.00  0.00     0.161 HD
ENDBRANCH  13  14
ENDBRANCH   4  13
BRANCH  12  19
HETATM   19  C   UNL     1       0.926   4.283  11.449  1.00  0.00     0.087 C 
BRANCH  19  20
HETATM   20  C   UNL     1       2.324   3.894  11.022  1.00  0.00     0.120 C 
BRANCH  20  21
HETATM   21  C   UNL     1       2.417   3.373   9.614  1.00  0.00     0.172 C 
HETATM   22  O   UNL     1       1.429   3.337   8.882  1.00  0.00    -0.648 OA
HETATM   23  O   UNL     1       3.598   3.032   9.245  1.00  0.00    -0.648 OA
ENDBRANCH  20  21
ENDBRANCH  19  20
ENDBRANCH  12  19
TORSDOF 5
ENDMDL
MODEL 17
REMARK VINA RESULT:    -5.399      4.820      7.155
REMARK INTER + INTRA:          -7.703
REMARK INTER:                  -7.094
REMARK INTRA:                  -0.609
REMARK UNBOUND:                -0.726
REMARK  5 active torsions:
REMARK  status: ('A' for Active; 'I' for Inactive)
REMARK       I    between atoms: C_5  and  N_6 
REMARK    1  A    between atoms: C_5  and  C_9 
REMARK    2  A    between atoms: C_9  and  N_10 
REMARK    3  A    between atoms: C_18  and  C_19 
REMARK    4  A    between atoms: C_19  and  C_20 
REMARK    5  A    between atoms: C_20  and  C_21 
ROOT
HETATM    1  C   UNL     1       1.324   3.192   9.776  1.00  0.00     0.001 A 
HETATM    2  C   UNL     1       0.137   2.728  10.305  1.00  0.00     0.019 A 
HETATM    3  C   UNL     1      -1.383   2.514  12.235  1.00  0.00     0.261 A 
HETATM    4  N   UNL     1      -1.530   2.796  13.598  1.00  0.00    -0.294 N 
HETATM    5  O   UNL     1      -2.327   2.067  11.593  1.00  0.00    -0.267 OA
HETATM    6  C   UNL     1      -0.121   2.905  11.667  1.00  0.00     0.059 A 
HETATM    7  C   UNL     1       2.260   3.812  10.577  1.00  0.00     0.002 A 
HETATM    8  C   UNL     1       2.010   4.003  11.918  1.00  0.00     0.030 A 
HETATM    9  C   UNL     1       0.822   3.547  12.478  1.00  0.00     0.049 A 
HETATM   10  N   UNL     1       0.601   3.786  13.831  1.00  0.00    -0.345 N 
ATOM     11  HN  UNL     1       1.319   4.223  14.409  1.00  0.00     0.167 HD
HETATM   12  C   UNL     1      -0.531   3.441  14.333  1.00  0.00     0.087 A 
ENDROOT
BRANCH   4  13
HETATM   13  C   UNL     1      -2.774   2.412  14.238  1.00  0.00     0.236 C 
BRANCH  13  14
HETATM   14  C   UNL     1      -2.833   0.913  14.494  1.00  0.00     0.235 C 
HETATM   15  O   UNL     1      -2.009   0.389  15.240  1.00  0.00    -0.272 OA
HETATM   16  N   UNL     1      -3.754   0.205  13.851  1.00  0.00    -0.364 N 
HETATM   17  C   UNL     1      -3.966  -1.211  14.124  1.00  0.00     0.149 C 
ATOM     18  HN  UNL     1      -4.330   0.665  13.146  1.00  0.00     0.161 HD
ENDBRANCH  13  14
ENDBRANCH   4  13
BRANCH  12  19
HETATM   19  C   UNL     1      -0.784   3.702  15.782  1.00  0.00     0.087 C 
BRANCH  19  20
HETATM   20  C   UNL     1      -1.212   5.118  16.097  1.00  0.00     0.120 C 
BRANCH  20  21
HETATM   21  C   UNL     1      -0.334   5.820  17.095  1.00  0.00     0.172 C 
HETATM   22  O   UNL     1       0.332   6.804  16.777  1.00  0.00    -0.648 OA
HETATM   23  O   UNL     1      -0.386   5.343  18.286  1.00  0.00    -0.648 OA
ENDBRANCH  20  21
ENDBRANCH  19  20
ENDBRANCH  12  19
TORSDOF 5
ENDMDL
MODEL 18
REMARK VINA RESULT:    -5.356      3.876      6.064
REMARK INTER + INTRA:          -7.648
REMARK INTER:                  -6.994
REMARK INTRA:                  -0.654
REMARK UNBOUND:                -0.726
REMARK  5 active torsions:
REMARK  status: ('A' for Active; 'I' for Inactive)
REMARK       I    between atoms: C_5  and  N_6 
REMARK    1  A    between atoms: C_5  and  C_9 
REMARK    2  A    between atoms: C_9  and  N_10 
REMARK    3  A    between atoms: C_18  and  C_19 
REMARK    4  A    between atoms: C_19  and  C_20 
REMARK    5  A    between atoms: C_20  and  C_21 
ROOT
HETATM    1  C   UNL     1       2.138   3.026   8.671  1.00  0.00     0.001 A 
HETATM    2  C   UNL     1       0.851   2.531   8.617  1.00  0.00     0.019 A 
HETATM    3  C   UNL     1      -1.359   2.251   9.676  1.00  0.00     0.261 A 
HETATM    4  N   UNL     1      -2.098   2.501  10.837  1.00  0.00    -0.294 N 
HETATM    5  O   UNL     1      -1.912   1.803   8.678  1.00  0.00    -0.267 OA
HETATM    6  C   UNL     1       0.015   2.675   9.728  1.00  0.00     0.059 A 
HETATM    7  C   UNL     1       2.610   3.643   9.811  1.00  0.00     0.002 A 
HETATM    8  C   UNL     1       1.790   3.801  10.906  1.00  0.00     0.030 A 
HETATM    9  C   UNL     1       0.489   3.314  10.879  1.00  0.00     0.049 A 
HETATM   10  N   UNL     1      -0.312   3.520  11.999  1.00  0.00    -0.345 N 
ATOM     11  HN  UNL     1       0.067   3.956  12.839  1.00  0.00     0.167 HD
HETATM   12  C   UNL     1      -1.541   3.146  11.946  1.00  0.00     0.087 A 
ENDROOT
BRANCH   4  13
HETATM   13  C   UNL     1      -3.487   2.084  10.859  1.00  0.00     0.236 C 
BRANCH  13  14
HETATM   14  C   UNL     1      -4.368   3.026  10.051  1.00  0.00     0.235 C 
HETATM   15  O   UNL     1      -4.713   4.102  10.534  1.00  0.00    -0.272 OA
HETATM   16  N   UNL     1      -4.781   2.624   8.855  1.00  0.00    -0.364 N 
HETATM   17  C   UNL     1      -5.523   3.504   7.960  1.00  0.00     0.149 C 
ATOM     18  HN  UNL     1      -4.573   1.672   8.553  1.00  0.00     0.161 HD
ENDBRANCH  13  14
ENDBRANCH   4  13
BRANCH  12  19
HETATM   19  C   UNL     1      -2.413   3.371  13.138  1.00  0.00     0.087 C 
BRANCH  19  20
HETATM   20  C   UNL     1      -1.842   2.848  14.438  1.00  0.00     0.120 C 
BRANCH  20  21
HETATM   21  C   UNL     1      -2.196   1.418  14.735  1.00  0.00     0.172 C 
HETATM   22  O   UNL     1      -1.911   0.515  13.951  1.00  0.00    -0.648 OA
HETATM   23  O   UNL     1      -2.758   1.230  15.875  1.00  0.00    -0.648 OA
ENDBRANCH  20  21
ENDBRANCH  19  20
ENDBRANCH  12  19
TORSDOF 5
ENDMDL
MODEL 19
REMARK VINA RESULT:    -5.290      3.787      6.393
REMARK INTER + INTRA:          -7.562
REMARK INTER:                  -6.888
REMARK INTRA:                  -0.674
REMARK UNBOUND:                -0.726
REMARK  5 active torsions:
REMARK  status: ('A' for Active; 'I' for Inactive)
REMARK       I    between atoms: C_5  and  N_6 
REMARK    1  A    between atoms: C_5  and  C_9 
REMARK    2  A    between atoms: C_9  and  N_10 
REMARK    3  A    between atoms: C_18  and  C_19 
REMARK    4  A    between atoms: C_19  and  C_20 
REMARK    5  A    between atoms: C_20  and  C_21 
ROOT
HETATM    1  C   UNL     1       1.703   3.144   9.650  1.00  0.00     0.001 A 
HETATM    2  C   UNL     1       0.747   3.356  10.622  1.00  0.00     0.019 A 
HETATM    3  C   UNL     1      -1.593   3.151  11.375  1.00  0.00     0.261 A 
HETATM    4  N   UNL     1      -2.873   2.738  10.993  1.00  0.00    -0.294 N 
HETATM    5  O   UNL     1      -1.373   3.484  12.534  1.00  0.00    -0.267 OA
HETATM    6  C   UNL     1      -0.585   3.026  10.356  1.00  0.00     0.059 A 
HETATM    7  C   UNL     1       1.356   2.627   8.419  1.00  0.00     0.002 A 
HETATM    8  C   UNL     1       0.048   2.287   8.152  1.00  0.00     0.030 A 
HETATM    9  C   UNL     1      -0.936   2.489   9.112  1.00  0.00     0.049 A 
HETATM   10  N   UNL     1      -2.238   2.105   8.808  1.00  0.00    -0.345 N 
ATOM     11  HN  UNL     1      -2.476   1.748   7.882  1.00  0.00     0.167 HD
HETATM   12  C   UNL     1      -3.134   2.211   9.724  1.00  0.00     0.087 A 
ENDROOT
BRANCH   4  13
HETATM   13  C   UNL     1      -3.941   2.852  11.968  1.00  0.00     0.236 C 
BRANCH  13  14
HETATM   14  C   UNL     1      -3.887   1.728  12.993  1.00  0.00     0.235 C 
HETATM   15  O   UNL     1      -4.252   0.598  12.678  1.00  0.00    -0.272 OA
HETATM   16  N   UNL     1      -3.490   2.025  14.224  1.00  0.00    -0.364 N 
HETATM   17  C   UNL     1      -3.289   0.996  15.237  1.00  0.00     0.149 C 
ATOM     18  HN  UNL     1      -3.321   3.001  14.470  1.00  0.00     0.161 HD
ENDBRANCH  13  14
ENDBRANCH   4  13
BRANCH  12  19
HETATM   19  C   UNL     1      -4.534   1.794   9.412  1.00  0.00     0.087 C 
BRANCH  19  20
HETATM   20  C   UNL     1      -5.124   2.453   8.184  1.00  0.00     0.120 C 
BRANCH  20  21
HETATM   21  C   UNL     1      -5.949   3.675   8.477  1.00  0.00     0.172 C 
HETATM   22  O   UNL     1      -5.621   4.469   9.358  1.00  0.00    -0.648 OA
HETATM   23  O   UNL     1      -6.965   3.834   7.709  1.00  0.00    -0.648 OA
ENDBRANCH  20  21
ENDBRANCH  19  20
ENDBRANCH  12  19
TORSDOF 5
ENDMDL
MODEL 20
REMARK VINA RESULT:    -5.249      3.600      7.068
REMARK INTER + INTRA:          -7.509
REMARK INTER:                  -6.904
REMARK INTRA:                  -0.605
REMARK UNBOUND:                -0.726
REMARK  5 active torsions:
REMARK  status: ('A' for Active; 'I' for Inactive)
REMARK       I    between atoms: C_5  and  N_6 
REMARK    1  A    between atoms: C_5  and  C_9 
REMARK    2  A    between atoms: C_9  and  N_10 
REMARK    3  A    between atoms: C_18  and  C_19 
REMARK    4  A    between atoms: C_19  and  C_20 
REMARK    5  A    between atoms: C_20  and  C_21 
ROOT
HETATM    1  C   UNL     1       0.668   1.759  16.208  1.00  0.00     0.001 A 
HETATM    2  C   UNL     1      -0.540   2.276  15.788  1.00  0.00     0.019 A 
HETATM    3  C   UNL     1      -2.049   2.902  13.940  1.00  0.00     0.261 A 
HETATM    4  N   UNL     1      -2.162   2.982  12.548  1.00  0.00    -0.294 N 
HETATM    5  O   UNL     1      -3.027   3.106  14.651  1.00  0.00    -0.267 OA
HETATM    6  C   UNL     1      -0.770   2.450  14.420  1.00  0.00     0.059 A 
HETATM    7  C   UNL     1       1.652   1.431  15.299  1.00  0.00     0.002 A 
HETATM    8  C   UNL     1       1.429   1.586  13.948  1.00  0.00     0.030 A 
HETATM    9  C   UNL     1       0.221   2.103  13.495  1.00  0.00     0.049 A 
HETATM   10  N   UNL     1       0.031   2.217  12.121  1.00  0.00    -0.345 N 
ATOM     11  HN  UNL     1       0.782   1.992  11.469  1.00  0.00     0.167 HD
HETATM   12  C   UNL     1      -1.116   2.615  11.696  1.00  0.00     0.087 A 
ENDROOT
BRANCH   4  13
HETATM   13  C   UNL     1      -3.421   3.447  11.997  1.00  0.00     0.236 C 
BRANCH  13  14
HETATM   14  C   UNL     1      -4.482   2.355  12.024  1.00  0.00     0.235 C 
HETATM   15  O   UNL     1      -4.367   1.376  11.290  1.00  0.00    -0.272 OA
HETATM   16  N   UNL     1      -5.535   2.528  12.813  1.00  0.00    -0.364 N 
HETATM   17  C   UNL     1      -6.537   1.485  12.998  1.00  0.00     0.149 C 
ATOM     18  HN  UNL     1      -5.647   3.415  13.304  1.00  0.00     0.161 HD
ENDBRANCH  13  14
ENDBRANCH   4  13
BRANCH  12  19
HETATM   19  C   UNL     1      -1.335   2.732  10.224  1.00  0.00     0.087 C 
BRANCH  19  20
HETATM   20  C   UNL     1      -0.645   1.665   9.402  1.00  0.00     0.120 C 
BRANCH  20  21
HETATM   21  C   UNL     1       0.278   2.204   8.344  1.00  0.00     0.172 C 
HETATM   22  O   UNL     1       1.440   1.810   8.252  1.00  0.00    -0.648 OA
HETATM   23  O   UNL     1      -0.261   3.046   7.539  1.00  0.00    -0.648 OA
ENDBRANCH  20  21
ENDBRANCH  19  20
ENDBRANCH  12  19
TORSDOF 5
ENDMDL
