REMARK  13 active torsions:
REMARK  status: ('A' for Active; 'I' for Inactive)
REMARK    1  A    between atoms: N_1  and  C_8 
REMARK    2  A    between atoms: N_2  and  C_26 
REMARK    3  A    between atoms: N_2  and  C_10 
REMARK    4  A    between atoms: C_4  and  N_19 
REMARK    5  A    between atoms: C_5  and  N_19 
REMARK    6  A    between atoms: C_11  and  N_41 
REMARK    7  A    between atoms: C_11  and  C_26 
REMARK    8  A    between atoms: C_13  and  O_45 
REMARK    9  A    between atoms: C_14  and  O_45 
REMARK   10  A    between atoms: C_14  and  C_15 
REMARK   11  A    between atoms: C_15  and  C_31 
REMARK   12  A    between atoms: O_22  and  C_23 
REMARK   13  A    between atoms: C_31  and  N_44 
ROOT
HETATM    1  C   UNL     1      -7.756 -40.420  -6.765  1.00  0.00     0.130 A 
HETATM    2  C   UNL     1      -5.472 -40.231  -6.646  1.00  0.00     0.680 A 
HETATM    3  C   UNL     1      -7.867 -36.215  -7.192  1.00  0.00     0.104 A 
HETATM    4  C   UNL     1      -9.090 -36.911  -7.149  1.00  0.00     0.102 A 
HETATM    5  C   UNL     1      -6.663 -38.267  -6.810  1.00  0.00     0.066 A 
HETATM    6  C   UNL     1      -6.683 -36.873  -7.028  1.00  0.00     0.070 A 
HETATM    7  C   UNL     1      -9.106 -38.266  -6.968  1.00  0.00     0.057 A 
HETATM    8  C   UNL     1      -7.882 -38.983  -6.802  1.00  0.00     0.038 A 
HETATM    9  N   UNL     1      -6.561 -41.021  -6.715  1.00  0.00    -0.176 N 
ATOM     10  HN  UNL     1      -6.478 -42.038  -6.729  1.00  0.00     0.186 HD
HETATM   11  N   UNL     1      -5.454 -38.888  -6.672  1.00  0.00    -0.191 N 
ATOM     12  HN  UNL     1      -4.585 -38.360  -6.593  1.00  0.00     0.184 HD
ENDROOT
BRANCH   3  13
HETATM   13  O   UNL     1      -8.029 -34.891  -7.445  1.00  0.00    -0.348 OA
BRANCH  13  14
HETATM   14  C   UNL     1      -6.918 -34.019  -7.221  1.00  0.00     0.177 C 
BRANCH  14  15
HETATM   15  C   UNL     1      -7.464 -32.625  -7.343  1.00  0.00     0.057 C 
BRANCH  15  16
HETATM   16  C   UNL     1      -8.577 -32.359  -6.372  1.00  0.00     0.275 C 
BRANCH  16  17
HETATM   17  N   UNL     1      -9.860 -33.014  -6.662  1.00  0.00     0.096 N 
HETATM   18  C   UNL     1     -10.483 -32.830  -8.017  1.00  0.00     0.311 C 
HETATM   19  C   UNL     1     -11.952 -32.981  -7.766  1.00  0.00    -0.022 A 
HETATM   20  C   UNL     1     -12.992 -33.057  -8.685  1.00  0.00     0.009 A 
HETATM   21  C   UNL     1     -12.231 -32.985  -6.405  1.00  0.00    -0.022 A 
HETATM   22  C   UNL     1     -14.300 -33.134  -8.235  1.00  0.00     0.001 A 
HETATM   23  C   UNL     1     -14.573 -33.150  -6.884  1.00  0.00     0.001 A 
HETATM   24  C   UNL     1     -13.545 -33.073  -5.966  1.00  0.00     0.009 A 
HETATM   25  C   UNL     1     -10.969 -32.883  -5.599  1.00  0.00     0.311 C 
ENDBRANCH  16  17
ENDBRANCH  15  16
ENDBRANCH  14  15
ENDBRANCH  13  14
ENDBRANCH   3  13
BRANCH   4  26
HETATM   26  O   UNL     1     -10.189 -36.109  -7.256  1.00  0.00    -0.353 OA
HETATM   27  C   UNL     1     -11.482 -36.745  -7.291  1.00  0.00     0.210 C 
ENDBRANCH   4  26
BRANCH   1  28
HETATM   28  N   UNL     1      -8.897 -41.195  -6.806  1.00  0.00    -0.370 N 
ATOM     29  HN  UNL     1      -9.788 -40.700  -6.773  1.00  0.00     0.161 HD
BRANCH  28  30
HETATM   30  C   UNL     1      -8.959 -42.653  -6.892  1.00  0.00     0.086 C 
HETATM   31  C   UNL     1      -8.938 -43.412  -5.597  1.00  0.00     0.055 C 
HETATM   32  C   UNL     1      -9.575 -44.809  -5.797  1.00  0.00     0.275 C 
HETATM   33  N   UNL     1      -9.398 -45.312  -7.173  1.00  0.00     0.092 N 
HETATM   34  C   UNL     1     -10.103 -44.468  -8.149  1.00  0.00     0.275 C 
HETATM   35  C   UNL     1     -10.198 -43.032  -7.673  1.00  0.00     0.055 C 
BRANCH  33  36
HETATM   36  C   UNL     1      -9.676 -46.751  -7.376  1.00  0.00     0.215 C 
HETATM   37  C   UNL     1     -11.145 -47.104  -7.136  1.00  0.00     0.042 C 
HETATM   38  C   UNL     1      -8.754 -47.607  -6.524  1.00  0.00     0.042 C 
ENDBRANCH  33  36
ENDBRANCH  28  30
ENDBRANCH   1  28
BRANCH   2  39
HETATM   39  N   UNL     1      -4.271 -40.839  -6.577  1.00  0.00    -0.224 N 
ATOM     40  HN  UNL     1      -3.438 -40.252  -6.538  1.00  0.00     0.177 HD
BRANCH  39  41
HETATM   41  C   UNL     1      -4.091 -42.285  -6.555  1.00  0.00     0.168 C 
BRANCH  41  42
HETATM   42  C   UNL     1      -4.016 -42.858  -7.935  1.00  0.00     0.291 C 
BRANCH  42  43
HETATM   43  N   UNL     1      -2.964 -42.236  -8.743  1.00  0.00     0.081 N 
HETATM   44  C   UNL     1      -1.638 -42.419  -8.132  1.00  0.00     0.309 C 
HETATM   45  C   UNL     1      -2.934 -42.773 -10.101  1.00  0.00     0.309 C 
ENDBRANCH  42  43
ENDBRANCH  41  42
ENDBRANCH  39  41
ENDBRANCH   2  39
TORSDOF 13
