MODEL 1
REMARK VINA RESULT:   -10.184      0.000      0.000
REMARK INTER + INTRA:         -17.289
REMARK INTER:                 -15.543
REMARK INTRA:                  -1.747
REMARK UNBOUND:                -1.747
REMARK  9 active torsions:
REMARK  status: ('A' for Active; 'I' for Inactive)
REMARK    1  A    between atoms: C_1  and  C_2 
REMARK    2  A    between atoms: C_2  and  C_3 
REMARK    3  A    between atoms: C_3  and  C_31 
REMARK    4  A    between atoms: C_9  and  N_23 
REMARK    5  A    between atoms: C_10  and  C_12 
REMARK       I    between atoms: C_12  and  N_19 
REMARK    6  A    between atoms: N_23  and  C_25 
REMARK    7  A    between atoms: C_27  and  N_28 
REMARK    8  A    between atoms: N_28  and  C_30 
REMARK    9  A    between atoms: C_30  and  C_31 
ROOT
HETATM    1  C   UNL     1     -46.383   9.949   1.295  1.00  0.00     0.031 A 
HETATM    2  C   UNL     1     -47.269  10.344   2.255  1.00  0.00     0.033 A 
HETATM    3  C   UNL     1     -46.876  11.263   3.258  1.00  0.00     0.044 A 
HETATM    4  C   UNL     1     -45.557  11.774   3.241  1.00  0.00     0.021 A 
HETATM    5  C   UNL     1     -44.678  11.364   2.209  1.00  0.00     0.045 A 
HETATM    6  C   UNL     1     -45.199  12.693   4.262  1.00  0.00     0.062 A 
HETATM    7  C   UNL     1     -46.175  13.144   5.167  1.00  0.00     0.074 A 
HETATM    8  C   UNL     1     -47.442  12.545   5.083  1.00  0.00     0.107 A 
HETATM    9  N   UNL     1     -47.788  11.639   4.196  1.00  0.00    -0.364 N 
ATOM     10  HN  UNL     1     -48.721  11.226   4.210  1.00  0.00     0.165 HD
HETATM   11  C   UNL     1     -45.090  10.464   1.244  1.00  0.00     0.028 A 
ENDROOT
BRANCH   6  12
HETATM   12  N   UNL     1     -43.900  13.173   4.364  1.00  0.00    -0.355 N 
ATOM     13  HN  UNL     1     -43.750  14.161   4.160  1.00  0.00     0.166 HD
BRANCH  12  14
HETATM   14  C   UNL     1     -42.741  12.392   4.733  1.00  0.00     0.032 A 
HETATM   15  C   UNL     1     -41.465  12.615   4.244  1.00  0.00     0.029 A 
HETATM   16  C   UNL     1     -40.428  11.758   4.569  1.00  0.00     0.002 A 
HETATM   17  C   UNL     1     -40.662  10.699   5.411  1.00  0.00     0.000 A 
HETATM   18  C   UNL     1     -41.947  10.451   5.871  1.00  0.00     0.002 A 
HETATM   19  C   UNL     1     -42.986  11.294   5.550  1.00  0.00     0.029 A 
ENDBRANCH  12  14
ENDBRANCH   6  12
BRANCH   7  20
HETATM   20  C   UNL     1     -45.881  14.190   6.188  1.00  0.00     0.254 C 
HETATM   21  O   UNL     1     -44.846  14.878   6.153  1.00  0.00    -0.268 OA
HETATM   22  N   UNL     1     -46.780  14.443   7.137  1.00  0.00    -0.361 N 
HETATM   23  C   UNL     1     -46.576  15.513   8.102  1.00  0.00     0.149 C 
ATOM     24  HN  UNL     1     -47.628  13.877   7.188  1.00  0.00     0.162 HD
ENDBRANCH   7  20
BRANCH  11  25
HETATM   25  N   UNL     1     -44.231  10.125   0.218  1.00  0.00    -0.390 N 
ATOM     26  HN  UNL     1     -44.562   9.544  -0.552  1.00  0.00     0.159 HD
BRANCH  25  27
HETATM   27  C   UNL     1     -42.853  10.596   0.236  1.00  0.00     0.119 C 
BRANCH  27  28
HETATM   28  C   UNL     1     -41.920   9.679  -0.520  1.00  0.00     0.020 C 
BRANCH  28  29
HETATM   29  C   UNL     1     -40.596   9.396   0.145  1.00  0.00     0.002 C 
BRANCH  29  30
HETATM   30  C   UNL     1     -40.306  10.301   1.332  1.00  0.00    -0.000 C 
BRANCH  30  31
HETATM   31  C   UNL     1     -39.251  11.357   1.018  1.00  0.00    -0.005 C 
HETATM   32  C   UNL     1     -39.789  12.760   0.863  1.00  0.00     0.005 C 
ENDBRANCH  30  31
ENDBRANCH  29  30
ENDBRANCH  28  29
ENDBRANCH  27  28
ENDBRANCH  25  27
ENDBRANCH  11  25
TORSDOF 9
ENDMDL
MODEL 2
REMARK VINA RESULT:    -9.684      1.016      1.621
REMARK INTER + INTRA:         -16.526
REMARK INTER:                 -15.433
REMARK INTRA:                  -1.093
REMARK UNBOUND:                -1.747
REMARK  9 active torsions:
REMARK  status: ('A' for Active; 'I' for Inactive)
REMARK    1  A    between atoms: C_1  and  C_2 
REMARK    2  A    between atoms: C_2  and  C_3 
REMARK    3  A    between atoms: C_3  and  C_31 
REMARK    4  A    between atoms: C_9  and  N_23 
REMARK    5  A    between atoms: C_10  and  C_12 
REMARK       I    between atoms: C_12  and  N_19 
REMARK    6  A    between atoms: N_23  and  C_25 
REMARK    7  A    between atoms: C_27  and  N_28 
REMARK    8  A    between atoms: N_28  and  C_30 
REMARK    9  A    between atoms: C_30  and  C_31 
ROOT
HETATM    1  C   UNL     1     -46.393   9.997   1.408  1.00  0.00     0.031 A 
HETATM    2  C   UNL     1     -47.279  10.426   2.353  1.00  0.00     0.033 A 
HETATM    3  C   UNL     1     -46.873  11.346   3.349  1.00  0.00     0.044 A 
HETATM    4  C   UNL     1     -45.540  11.821   3.342  1.00  0.00     0.021 A 
HETATM    5  C   UNL     1     -44.661  11.375   2.325  1.00  0.00     0.045 A 
HETATM    6  C   UNL     1     -45.169  12.742   4.357  1.00  0.00     0.062 A 
HETATM    7  C   UNL     1     -46.142  13.230   5.245  1.00  0.00     0.074 A 
HETATM    8  C   UNL     1     -47.423  12.664   5.153  1.00  0.00     0.107 A 
HETATM    9  N   UNL     1     -47.784  11.758   4.273  1.00  0.00    -0.364 N 
ATOM     10  HN  UNL     1     -48.728  11.370   4.281  1.00  0.00     0.165 HD
HETATM   11  C   UNL     1     -45.086  10.475   1.366  1.00  0.00     0.028 A 
ENDROOT
BRANCH   6  12
HETATM   12  N   UNL     1     -43.858  13.187   4.468  1.00  0.00    -0.355 N 
ATOM     13  HN  UNL     1     -43.695  14.188   4.366  1.00  0.00     0.166 HD
BRANCH  12  14
HETATM   14  C   UNL     1     -42.704  12.352   4.716  1.00  0.00     0.032 A 
HETATM   15  C   UNL     1     -41.509  12.453   4.024  1.00  0.00     0.029 A 
HETATM   16  C   UNL     1     -40.486  11.548   4.252  1.00  0.00     0.002 A 
HETATM   17  C   UNL     1     -40.648  10.566   5.197  1.00  0.00     0.000 A 
HETATM   18  C   UNL     1     -41.858  10.440   5.864  1.00  0.00     0.002 A 
HETATM   19  C   UNL     1     -42.883  11.330   5.641  1.00  0.00     0.029 A 
ENDBRANCH  12  14
ENDBRANCH   6  12
BRANCH   7  20
HETATM   20  C   UNL     1     -45.831  14.279   6.258  1.00  0.00     0.254 C 
HETATM   21  O   UNL     1     -44.782  14.945   6.221  1.00  0.00    -0.268 OA
HETATM   22  N   UNL     1     -46.729  14.560   7.199  1.00  0.00    -0.361 N 
HETATM   23  C   UNL     1     -46.507  15.635   8.155  1.00  0.00     0.149 C 
ATOM     24  HN  UNL     1     -47.589  14.013   7.252  1.00  0.00     0.162 HD
ENDBRANCH   7  20
BRANCH  11  25
HETATM   25  N   UNL     1     -44.225  10.101   0.354  1.00  0.00    -0.390 N 
ATOM     26  HN  UNL     1     -44.482   9.345  -0.280  1.00  0.00     0.159 HD
BRANCH  25  27
HETATM   27  C   UNL     1     -42.950  10.785   0.192  1.00  0.00     0.119 C 
BRANCH  27  28
HETATM   28  C   UNL     1     -41.923   9.933  -0.515  1.00  0.00     0.020 C 
BRANCH  28  29
HETATM   29  C   UNL     1     -40.599  10.598  -0.799  1.00  0.00     0.002 C 
BRANCH  29  30
HETATM   30  C   UNL     1     -39.737   9.835  -1.791  1.00  0.00    -0.000 C 
BRANCH  30  31
HETATM   31  C   UNL     1     -40.498   8.707  -2.481  1.00  0.00    -0.005 C 
HETATM   32  C   UNL     1     -40.614   8.848  -3.981  1.00  0.00     0.005 C 
ENDBRANCH  30  31
ENDBRANCH  29  30
ENDBRANCH  28  29
ENDBRANCH  27  28
ENDBRANCH  25  27
ENDBRANCH  11  25
TORSDOF 9
ENDMDL
MODEL 3
REMARK VINA RESULT:    -8.535      2.322      5.390
REMARK INTER + INTRA:         -14.772
REMARK INTER:                 -13.810
REMARK INTRA:                  -0.962
REMARK UNBOUND:                -1.747
REMARK  9 active torsions:
REMARK  status: ('A' for Active; 'I' for Inactive)
REMARK    1  A    between atoms: C_1  and  C_2 
REMARK    2  A    between atoms: C_2  and  C_3 
REMARK    3  A    between atoms: C_3  and  C_31 
REMARK    4  A    between atoms: C_9  and  N_23 
REMARK    5  A    between atoms: C_10  and  C_12 
REMARK       I    between atoms: C_12  and  N_19 
REMARK    6  A    between atoms: N_23  and  C_25 
REMARK    7  A    between atoms: C_27  and  N_28 
REMARK    8  A    between atoms: N_28  and  C_30 
REMARK    9  A    between atoms: C_30  and  C_31 
ROOT
HETATM    1  C   UNL     1     -38.916  10.569   1.300  1.00  0.00     0.031 A 
HETATM    2  C   UNL     1     -38.936  10.926   2.617  1.00  0.00     0.033 A 
HETATM    3  C   UNL     1     -40.115  11.447   3.201  1.00  0.00     0.044 A 
HETATM    4  C   UNL     1     -41.275  11.581   2.401  1.00  0.00     0.021 A 
HETATM    5  C   UNL     1     -41.222  11.170   1.046  1.00  0.00     0.045 A 
HETATM    6  C   UNL     1     -42.438  12.109   3.020  1.00  0.00     0.062 A 
HETATM    7  C   UNL     1     -42.438  12.366   4.401  1.00  0.00     0.074 A 
HETATM    8  C   UNL     1     -41.216  12.204   5.074  1.00  0.00     0.107 A 
HETATM    9  N   UNL     1     -40.101  11.787   4.519  1.00  0.00    -0.364 N 
ATOM     10  HN  UNL     1     -39.241  11.719   5.064  1.00  0.00     0.165 HD
HETATM   11  C   UNL     1     -40.055  10.665   0.505  1.00  0.00     0.028 A 
ENDROOT
BRANCH   6  12
HETATM   12  N   UNL     1     -43.590  12.350   2.281  1.00  0.00    -0.355 N 
ATOM     13  HN  UNL     1     -43.684  13.270   1.852  1.00  0.00     0.166 HD
BRANCH  12  14
HETATM   14  C   UNL     1     -44.666  11.408   2.069  1.00  0.00     0.032 A 
HETATM   15  C   UNL     1     -44.691  10.474   1.047  1.00  0.00     0.029 A 
HETATM   16  C   UNL     1     -45.806   9.676   0.852  1.00  0.00     0.002 A 
HETATM   17  C   UNL     1     -46.879   9.791   1.700  1.00  0.00     0.000 A 
HETATM   18  C   UNL     1     -46.870  10.752   2.701  1.00  0.00     0.002 A 
HETATM   19  C   UNL     1     -45.770  11.554   2.901  1.00  0.00     0.029 A 
ENDBRANCH  12  14
ENDBRANCH   6  12
BRANCH   7  20
HETATM   20  C   UNL     1     -43.663  12.815   5.121  1.00  0.00     0.254 C 
HETATM   21  O   UNL     1     -44.353  12.037   5.804  1.00  0.00    -0.268 OA
HETATM   22  N   UNL     1     -44.003  14.102   5.087  1.00  0.00    -0.361 N 
HETATM   23  C   UNL     1     -45.140  14.601   5.846  1.00  0.00     0.149 C 
ATOM     24  HN  UNL     1     -43.456  14.750   4.520  1.00  0.00     0.162 HD
ENDBRANCH   7  20
BRANCH  11  25
HETATM   25  N   UNL     1     -40.048  10.220  -0.802  1.00  0.00    -0.390 N 
ATOM     26  HN  UNL     1     -39.833  10.868  -1.560  1.00  0.00     0.159 HD
BRANCH  25  27
HETATM   27  C   UNL     1     -40.347   8.826  -1.099  1.00  0.00     0.119 C 
BRANCH  27  28
HETATM   28  C   UNL     1     -41.816   8.593  -1.354  1.00  0.00     0.020 C 
BRANCH  28  29
HETATM   29  C   UNL     1     -42.148   7.735  -2.550  1.00  0.00     0.002 C 
BRANCH  29  30
HETATM   30  C   UNL     1     -43.552   7.154  -2.511  1.00  0.00    -0.000 C 
BRANCH  30  31
HETATM   31  C   UNL     1     -43.877   6.324  -3.749  1.00  0.00    -0.005 C 
HETATM   32  C   UNL     1     -43.863   7.095  -5.048  1.00  0.00     0.005 C 
ENDBRANCH  30  31
ENDBRANCH  29  30
ENDBRANCH  28  29
ENDBRANCH  27  28
ENDBRANCH  25  27
ENDBRANCH  11  25
TORSDOF 9
ENDMDL
MODEL 4
REMARK VINA RESULT:    -8.518      2.048      6.228
REMARK INTER + INTRA:         -14.746
REMARK INTER:                 -13.266
REMARK INTRA:                  -1.480
REMARK UNBOUND:                -1.747
REMARK  9 active torsions:
REMARK  status: ('A' for Active; 'I' for Inactive)
REMARK    1  A    between atoms: C_1  and  C_2 
REMARK    2  A    between atoms: C_2  and  C_3 
REMARK    3  A    between atoms: C_3  and  C_31 
REMARK    4  A    between atoms: C_9  and  N_23 
REMARK    5  A    between atoms: C_10  and  C_12 
REMARK       I    between atoms: C_12  and  N_19 
REMARK    6  A    between atoms: N_23  and  C_25 
REMARK    7  A    between atoms: C_27  and  N_28 
REMARK    8  A    between atoms: N_28  and  C_30 
REMARK    9  A    between atoms: C_30  and  C_31 
ROOT
HETATM    1  C   UNL     1     -47.577  10.257   2.329  1.00  0.00     0.031 A 
HETATM    2  C   UNL     1     -46.866   9.743   1.284  1.00  0.00     0.033 A 
HETATM    3  C   UNL     1     -45.537  10.167   1.044  1.00  0.00     0.044 A 
HETATM    4  C   UNL     1     -44.956  11.123   1.911  1.00  0.00     0.021 A 
HETATM    5  C   UNL     1     -45.717  11.609   3.002  1.00  0.00     0.045 A 
HETATM    6  C   UNL     1     -43.622  11.526   1.638  1.00  0.00     0.062 A 
HETATM    7  C   UNL     1     -42.899  10.895   0.613  1.00  0.00     0.074 A 
HETATM    8  C   UNL     1     -43.600   9.973  -0.182  1.00  0.00     0.107 A 
HETATM    9  N   UNL     1     -44.855   9.629  -0.004  1.00  0.00    -0.364 N 
ATOM     10  HN  UNL     1     -45.310   8.971  -0.637  1.00  0.00     0.165 HD
HETATM   11  C   UNL     1     -47.013  11.175   3.210  1.00  0.00     0.028 A 
ENDROOT
BRANCH   6  12
HETATM   12  N   UNL     1     -43.013  12.522   2.390  1.00  0.00    -0.355 N 
ATOM     13  HN  UNL     1     -43.091  13.479   2.048  1.00  0.00     0.166 HD
BRANCH  12  14
HETATM   14  C   UNL     1     -42.277  12.318   3.618  1.00  0.00     0.032 A 
HETATM   15  C   UNL     1     -41.484  13.281   4.218  1.00  0.00     0.029 A 
HETATM   16  C   UNL     1     -40.731  12.973   5.338  1.00  0.00     0.002 A 
HETATM   17  C   UNL     1     -40.800  11.712   5.876  1.00  0.00     0.000 A 
HETATM   18  C   UNL     1     -41.564  10.735   5.254  1.00  0.00     0.002 A 
HETATM   19  C   UNL     1     -42.312  11.029   4.137  1.00  0.00     0.029 A 
ENDBRANCH  12  14
ENDBRANCH   6  12
BRANCH   7  20
HETATM   20  C   UNL     1     -41.462  11.201   0.356  1.00  0.00     0.254 C 
HETATM   21  O   UNL     1     -40.552  10.761   1.079  1.00  0.00    -0.268 OA
HETATM   22  N   UNL     1     -41.132  11.918  -0.716  1.00  0.00    -0.361 N 
HETATM   23  C   UNL     1     -39.739  12.167  -1.055  1.00  0.00     0.149 C 
ATOM     24  HN  UNL     1     -41.868  12.298  -1.311  1.00  0.00     0.162 HD
ENDBRANCH   7  20
BRANCH  11  25
HETATM   25  N   UNL     1     -47.711  11.622   4.314  1.00  0.00    -0.390 N 
ATOM     26  HN  UNL     1     -48.729  11.676   4.285  1.00  0.00     0.159 HD
BRANCH  25  27
HETATM   27  C   UNL     1     -46.995  12.018   5.518  1.00  0.00     0.119 C 
BRANCH  27  28
HETATM   28  C   UNL     1     -47.048  13.508   5.758  1.00  0.00     0.020 C 
BRANCH  28  29
HETATM   29  C   UNL     1     -45.729  14.235   5.669  1.00  0.00     0.002 C 
BRANCH  29  30
HETATM   30  C   UNL     1     -45.448  15.130   6.865  1.00  0.00    -0.000 C 
BRANCH  30  31
HETATM   31  C   UNL     1     -46.658  15.277   7.783  1.00  0.00    -0.005 C 
HETATM   32  C   UNL     1     -46.329  15.670   9.204  1.00  0.00     0.005 C 
ENDBRANCH  30  31
ENDBRANCH  29  30
ENDBRANCH  28  29
ENDBRANCH  27  28
ENDBRANCH  25  27
ENDBRANCH  11  25
TORSDOF 9
ENDMDL
MODEL 5
REMARK VINA RESULT:    -7.976      2.953      6.972
REMARK INTER + INTRA:         -13.918
REMARK INTER:                 -12.337
REMARK INTRA:                  -1.582
REMARK UNBOUND:                -1.747
REMARK  9 active torsions:
REMARK  status: ('A' for Active; 'I' for Inactive)
REMARK    1  A    between atoms: C_1  and  C_2 
REMARK    2  A    between atoms: C_2  and  C_3 
REMARK    3  A    between atoms: C_3  and  C_31 
REMARK    4  A    between atoms: C_9  and  N_23 
REMARK    5  A    between atoms: C_10  and  C_12 
REMARK       I    between atoms: C_12  and  N_19 
REMARK    6  A    between atoms: N_23  and  C_25 
REMARK    7  A    between atoms: C_27  and  N_28 
REMARK    8  A    between atoms: N_28  and  C_30 
REMARK    9  A    between atoms: C_30  and  C_31 
ROOT
HETATM    1  C   UNL     1     -43.447  13.136   5.290  1.00  0.00     0.031 A 
HETATM    2  C   UNL     1     -42.505  14.109   5.126  1.00  0.00     0.033 A 
HETATM    3  C   UNL     1     -41.325  13.847   4.390  1.00  0.00     0.044 A 
HETATM    4  C   UNL     1     -41.143  12.566   3.818  1.00  0.00     0.021 A 
HETATM    5  C   UNL     1     -42.159  11.593   3.985  1.00  0.00     0.045 A 
HETATM    6  C   UNL     1     -39.947  12.339   3.088  1.00  0.00     0.062 A 
HETATM    7  C   UNL     1     -39.056  13.401   2.863  1.00  0.00     0.074 A 
HETATM    8  C   UNL     1     -39.348  14.618   3.499  1.00  0.00     0.107 A 
HETATM    9  N   UNL     1     -40.409  14.844   4.242  1.00  0.00    -0.364 N 
ATOM     10  HN  UNL     1     -40.544  15.746   4.697  1.00  0.00     0.165 HD
HETATM   11  C   UNL     1     -43.301  11.879   4.710  1.00  0.00     0.028 A 
ENDROOT
BRANCH   6  12
HETATM   12  N   UNL     1     -39.657  11.083   2.570  1.00  0.00    -0.355 N 
ATOM     13  HN  UNL     1     -39.159  10.433   3.176  1.00  0.00     0.166 HD
BRANCH  12  14
HETATM   14  C   UNL     1     -40.002  10.620   1.245  1.00  0.00     0.032 A 
HETATM   15  C   UNL     1     -41.264  10.734   0.686  1.00  0.00     0.029 A 
HETATM   16  C   UNL     1     -41.537  10.173  -0.550  1.00  0.00     0.002 A 
HETATM   17  C   UNL     1     -40.539   9.530  -1.239  1.00  0.00     0.000 A 
HETATM   18  C   UNL     1     -39.285   9.382  -0.664  1.00  0.00     0.002 A 
HETATM   19  C   UNL     1     -39.004   9.931   0.566  1.00  0.00     0.029 A 
ENDBRANCH  12  14
ENDBRANCH   6  12
BRANCH   7  20
HETATM   20  C   UNL     1     -37.842  13.247   2.011  1.00  0.00     0.254 C 
HETATM   21  O   UNL     1     -37.897  13.268   0.769  1.00  0.00    -0.268 OA
HETATM   22  N   UNL     1     -36.649  13.144   2.592  1.00  0.00    -0.361 N 
HETATM   23  C   UNL     1     -35.429  13.080   1.801  1.00  0.00     0.149 C 
ATOM     24  HN  UNL     1     -36.588  13.111   3.610  1.00  0.00     0.162 HD
ENDBRANCH   7  20
BRANCH  11  25
HETATM   25  N   UNL     1     -44.300  10.931   4.809  1.00  0.00    -0.390 N 
ATOM     26  HN  UNL     1     -44.059   9.941   4.865  1.00  0.00     0.159 HD
BRANCH  25  27
HETATM   27  C   UNL     1     -45.696  11.343   4.833  1.00  0.00     0.119 C 
BRANCH  27  28
HETATM   28  C   UNL     1     -46.217  11.699   3.461  1.00  0.00     0.020 C 
BRANCH  28  29
HETATM   29  C   UNL     1     -47.484  11.000   3.036  1.00  0.00     0.002 C 
BRANCH  29  30
HETATM   30  C   UNL     1     -47.284  10.028   1.885  1.00  0.00    -0.000 C 
BRANCH  30  31
HETATM   31  C   UNL     1     -45.828   9.599   1.727  1.00  0.00    -0.005 C 
HETATM   32  C   UNL     1     -45.204   9.963   0.401  1.00  0.00     0.005 C 
ENDBRANCH  30  31
ENDBRANCH  29  30
ENDBRANCH  28  29
ENDBRANCH  27  28
ENDBRANCH  25  27
ENDBRANCH  11  25
TORSDOF 9
ENDMDL
MODEL 6
REMARK VINA RESULT:    -7.971      2.276      5.080
REMARK INTER + INTRA:         -13.911
REMARK INTER:                 -12.594
REMARK INTRA:                  -1.318
REMARK UNBOUND:                -1.747
REMARK  9 active torsions:
REMARK  status: ('A' for Active; 'I' for Inactive)
REMARK    1  A    between atoms: C_1  and  C_2 
REMARK    2  A    between atoms: C_2  and  C_3 
REMARK    3  A    between atoms: C_3  and  C_31 
REMARK    4  A    between atoms: C_9  and  N_23 
REMARK    5  A    between atoms: C_10  and  C_12 
REMARK       I    between atoms: C_12  and  N_19 
REMARK    6  A    between atoms: N_23  and  C_25 
REMARK    7  A    between atoms: C_27  and  N_28 
REMARK    8  A    between atoms: N_28  and  C_30 
REMARK    9  A    between atoms: C_30  and  C_31 
ROOT
HETATM    1  C   UNL     1     -38.726  12.711   0.867  1.00  0.00     0.031 A 
HETATM    2  C   UNL     1     -38.752  12.893   2.219  1.00  0.00     0.033 A 
HETATM    3  C   UNL     1     -39.986  12.987   2.906  1.00  0.00     0.044 A 
HETATM    4  C   UNL     1     -41.190  12.878   2.171  1.00  0.00     0.021 A 
HETATM    5  C   UNL     1     -41.120  12.658   0.773  1.00  0.00     0.045 A 
HETATM    6  C   UNL     1     -42.408  12.979   2.893  1.00  0.00     0.062 A 
HETATM    7  C   UNL     1     -42.382  13.065   4.295  1.00  0.00     0.074 A 
HETATM    8  C   UNL     1     -41.120  13.180   4.899  1.00  0.00     0.107 A 
HETATM    9  N   UNL     1     -39.974  13.163   4.256  1.00  0.00    -0.364 N 
ATOM     10  HN  UNL     1     -39.093  13.278   4.758  1.00  0.00     0.165 HD
HETATM   11  C   UNL     1     -39.899  12.571   0.131  1.00  0.00     0.028 A 
ENDROOT
BRANCH   6  12
HETATM   12  N   UNL     1     -43.629  12.968   2.232  1.00  0.00    -0.355 N 
ATOM     13  HN  UNL     1     -43.996  13.865   1.914  1.00  0.00     0.166 HD
BRANCH  12  14
HETATM   14  C   UNL     1     -44.426  11.794   1.956  1.00  0.00     0.032 A 
HETATM   15  C   UNL     1     -44.226  10.956   0.872  1.00  0.00     0.029 A 
HETATM   16  C   UNL     1     -45.097   9.909   0.623  1.00  0.00     0.002 A 
HETATM   17  C   UNL     1     -46.146   9.681   1.479  1.00  0.00     0.000 A 
HETATM   18  C   UNL     1     -46.369  10.542   2.544  1.00  0.00     0.002 A 
HETATM   19  C   UNL     1     -45.513  11.589   2.798  1.00  0.00     0.029 A 
ENDBRANCH  12  14
ENDBRANCH   6  12
BRANCH   7  20
HETATM   20  C   UNL     1     -43.631  13.062   5.109  1.00  0.00     0.254 C 
HETATM   21  O   UNL     1     -44.055  12.035   5.668  1.00  0.00    -0.268 OA
HETATM   22  N   UNL     1     -44.285  14.206   5.300  1.00  0.00    -0.361 N 
HETATM   23  C   UNL     1     -45.459  14.267   6.159  1.00  0.00     0.149 C 
ATOM     24  HN  UNL     1     -43.959  15.054   4.837  1.00  0.00     0.162 HD
ENDBRANCH   7  20
BRANCH  11  25
HETATM   25  N   UNL     1     -39.860  12.300  -1.222  1.00  0.00    -0.390 N 
ATOM     26  HN  UNL     1     -40.710  12.369  -1.781  1.00  0.00     0.159 HD
BRANCH  25  27
HETATM   27  C   UNL     1     -38.605  11.914  -1.853  1.00  0.00     0.119 C 
BRANCH  27  28
HETATM   28  C   UNL     1     -38.517  10.428  -2.104  1.00  0.00     0.020 C 
BRANCH  28  29
HETATM   29  C   UNL     1     -38.096   9.586  -0.925  1.00  0.00     0.002 C 
BRANCH  29  30
HETATM   30  C   UNL     1     -36.740   9.972  -0.357  1.00  0.00    -0.000 C 
BRANCH  30  31
HETATM   31  C   UNL     1     -36.633   9.696   1.140  1.00  0.00    -0.005 C 
HETATM   32  C   UNL     1     -35.315  10.091   1.762  1.00  0.00     0.005 C 
ENDBRANCH  30  31
ENDBRANCH  29  30
ENDBRANCH  28  29
ENDBRANCH  27  28
ENDBRANCH  25  27
ENDBRANCH  11  25
TORSDOF 9
ENDMDL
MODEL 7
REMARK VINA RESULT:    -7.940      4.327      9.613
REMARK INTER + INTRA:         -13.864
REMARK INTER:                 -12.487
REMARK INTRA:                  -1.377
REMARK UNBOUND:                -1.747
REMARK  9 active torsions:
REMARK  status: ('A' for Active; 'I' for Inactive)
REMARK    1  A    between atoms: C_1  and  C_2 
REMARK    2  A    between atoms: C_2  and  C_3 
REMARK    3  A    between atoms: C_3  and  C_31 
REMARK    4  A    between atoms: C_9  and  N_23 
REMARK    5  A    between atoms: C_10  and  C_12 
REMARK       I    between atoms: C_12  and  N_19 
REMARK    6  A    between atoms: N_23  and  C_25 
REMARK    7  A    between atoms: C_27  and  N_28 
REMARK    8  A    between atoms: N_28  and  C_30 
REMARK    9  A    between atoms: C_30  and  C_31 
ROOT
HETATM    1  C   UNL     1     -41.575  11.756   0.635  1.00  0.00     0.031 A 
HETATM    2  C   UNL     1     -40.254  11.539   0.372  1.00  0.00     0.033 A 
HETATM    3  C   UNL     1     -39.841  10.365  -0.301  1.00  0.00     0.044 A 
HETATM    4  C   UNL     1     -40.819   9.426  -0.706  1.00  0.00     0.021 A 
HETATM    5  C   UNL     1     -42.183   9.703  -0.441  1.00  0.00     0.045 A 
HETATM    6  C   UNL     1     -40.368   8.259  -1.377  1.00  0.00     0.062 A 
HETATM    7  C   UNL     1     -39.010   8.130  -1.713  1.00  0.00     0.074 A 
HETATM    8  C   UNL     1     -38.143   9.127  -1.238  1.00  0.00     0.107 A 
HETATM    9  N   UNL     1     -38.515  10.184  -0.552  1.00  0.00    -0.364 N 
ATOM     10  HN  UNL     1     -37.826  10.856  -0.215  1.00  0.00     0.165 HD
HETATM   11  C   UNL     1     -42.556  10.859   0.218  1.00  0.00     0.028 A 
ENDROOT
BRANCH   6  12
HETATM   12  N   UNL     1     -41.257   7.253  -1.729  1.00  0.00    -0.355 N 
ATOM     13  HN  UNL     1     -41.341   6.460  -1.093  1.00  0.00     0.166 HD
BRANCH  12  14
HETATM   14  C   UNL     1     -42.075   7.232  -2.921  1.00  0.00     0.032 A 
HETATM   15  C   UNL     1     -41.732   7.853  -4.110  1.00  0.00     0.029 A 
HETATM   16  C   UNL     1     -42.617   7.872  -5.174  1.00  0.00     0.002 A 
HETATM   17  C   UNL     1     -43.829   7.238  -5.059  1.00  0.00     0.000 A 
HETATM   18  C   UNL     1     -44.190   6.647  -3.856  1.00  0.00     0.002 A 
HETATM   19  C   UNL     1     -43.320   6.627  -2.790  1.00  0.00     0.029 A 
ENDBRANCH  12  14
ENDBRANCH   6  12
BRANCH   7  20
HETATM   20  C   UNL     1     -38.500   6.980  -2.513  1.00  0.00     0.254 C 
HETATM   21  O   UNL     1     -38.726   5.799  -2.195  1.00  0.00    -0.268 OA
HETATM   22  N   UNL     1     -37.833   7.217  -3.641  1.00  0.00    -0.361 N 
HETATM   23  C   UNL     1     -37.393   6.127  -4.498  1.00  0.00     0.149 C 
ATOM     24  HN  UNL     1     -37.627   8.180  -3.908  1.00  0.00     0.162 HD
ENDBRANCH   7  20
BRANCH  11  25
HETATM   25  N   UNL     1     -43.895  11.131   0.413  1.00  0.00    -0.390 N 
ATOM     26  HN  UNL     1     -44.457  11.499  -0.355  1.00  0.00     0.159 HD
BRANCH  25  27
HETATM   27  C   UNL     1     -44.506  10.892   1.713  1.00  0.00     0.119 C 
BRANCH  27  28
HETATM   28  C   UNL     1     -45.898  10.317   1.600  1.00  0.00     0.020 C 
BRANCH  28  29
HETATM   29  C   UNL     1     -46.858  10.700   2.699  1.00  0.00     0.002 C 
BRANCH  29  30
HETATM   30  C   UNL     1     -46.258  11.642   3.729  1.00  0.00    -0.000 C 
BRANCH  30  31
HETATM   31  C   UNL     1     -47.293  12.153   4.728  1.00  0.00    -0.005 C 
HETATM   32  C   UNL     1     -46.827  13.304   5.587  1.00  0.00     0.005 C 
ENDBRANCH  30  31
ENDBRANCH  29  30
ENDBRANCH  28  29
ENDBRANCH  27  28
ENDBRANCH  25  27
ENDBRANCH  11  25
TORSDOF 9
ENDMDL
MODEL 8
REMARK VINA RESULT:    -7.902      2.254      5.361
REMARK INTER + INTRA:         -13.806
REMARK INTER:                 -12.495
REMARK INTRA:                  -1.311
REMARK UNBOUND:                -1.747
REMARK  9 active torsions:
REMARK  status: ('A' for Active; 'I' for Inactive)
REMARK    1  A    between atoms: C_1  and  C_2 
REMARK    2  A    between atoms: C_2  and  C_3 
REMARK    3  A    between atoms: C_3  and  C_31 
REMARK    4  A    between atoms: C_9  and  N_23 
REMARK    5  A    between atoms: C_10  and  C_12 
REMARK       I    between atoms: C_12  and  N_19 
REMARK    6  A    between atoms: N_23  and  C_25 
REMARK    7  A    between atoms: C_27  and  N_28 
REMARK    8  A    between atoms: N_28  and  C_30 
REMARK    9  A    between atoms: C_30  and  C_31 
ROOT
HETATM    1  C   UNL     1     -38.970  11.134   1.058  1.00  0.00     0.031 A 
HETATM    2  C   UNL     1     -38.992  10.936   2.408  1.00  0.00     0.033 A 
HETATM    3  C   UNL     1     -40.180  11.158   3.145  1.00  0.00     0.044 A 
HETATM    4  C   UNL     1     -41.345  11.577   2.459  1.00  0.00     0.021 A 
HETATM    5  C   UNL     1     -41.288  11.741   1.053  1.00  0.00     0.045 A 
HETATM    6  C   UNL     1     -42.516  11.792   3.231  1.00  0.00     0.062 A 
HETATM    7  C   UNL     1     -42.516  11.478   4.600  1.00  0.00     0.074 A 
HETATM    8  C   UNL     1     -41.290  11.085   5.159  1.00  0.00     0.107 A 
HETATM    9  N   UNL     1     -40.168  10.945   4.489  1.00  0.00    -0.364 N 
ATOM     10  HN  UNL     1     -39.306  10.682   4.967  1.00  0.00     0.165 HD
HETATM   11  C   UNL     1     -40.112  11.516   0.361  1.00  0.00     0.028 A 
ENDROOT
BRANCH   6  12
HETATM   12  N   UNL     1     -43.674  12.285   2.643  1.00  0.00    -0.355 N 
ATOM     13  HN  UNL     1     -43.697  13.280   2.421  1.00  0.00     0.166 HD
BRANCH  12  14
HETATM   14  C   UNL     1     -44.850  11.509   2.320  1.00  0.00     0.032 A 
HETATM   15  C   UNL     1     -46.038  11.566   3.028  1.00  0.00     0.029 A 
HETATM   16  C   UNL     1     -47.085  10.715   2.715  1.00  0.00     0.002 A 
HETATM   17  C   UNL     1     -46.952   9.832   1.672  1.00  0.00     0.000 A 
HETATM   18  C   UNL     1     -45.750   9.748   0.985  1.00  0.00     0.002 A 
HETATM   19  C   UNL     1     -44.701  10.585   1.291  1.00  0.00     0.029 A 
ENDBRANCH  12  14
ENDBRANCH   6  12
BRANCH   7  20
HETATM   20  C   UNL     1     -43.749  11.579   5.433  1.00  0.00     0.254 C 
HETATM   21  O   UNL     1     -44.294  12.669   5.680  1.00  0.00    -0.268 OA
HETATM   22  N   UNL     1     -44.324  10.465   5.881  1.00  0.00    -0.361 N 
HETATM   23  C   UNL     1     -45.574  10.509   6.624  1.00  0.00     0.149 C 
ATOM     24  HN  UNL     1     -43.880   9.564   5.700  1.00  0.00     0.162 HD
ENDBRANCH   7  20
BRANCH  11  25
HETATM   25  N   UNL     1     -40.100  11.629  -1.015  1.00  0.00    -0.390 N 
ATOM     26  HN  UNL     1     -40.575  12.410  -1.466  1.00  0.00     0.159 HD
BRANCH  25  27
HETATM   27  C   UNL     1     -39.411  10.631  -1.822  1.00  0.00     0.119 C 
BRANCH  27  28
HETATM   28  C   UNL     1     -40.360   9.627  -2.432  1.00  0.00     0.020 C 
BRANCH  28  29
HETATM   29  C   UNL     1     -41.019   8.673  -1.467  1.00  0.00     0.002 C 
BRANCH  29  30
HETATM   30  C   UNL     1     -41.410   7.346  -2.097  1.00  0.00    -0.000 C 
BRANCH  30  31
HETATM   31  C   UNL     1     -42.763   7.409  -2.800  1.00  0.00    -0.005 C 
HETATM   32  C   UNL     1     -43.590   6.150  -2.692  1.00  0.00     0.005 C 
ENDBRANCH  30  31
ENDBRANCH  29  30
ENDBRANCH  28  29
ENDBRANCH  27  28
ENDBRANCH  25  27
ENDBRANCH  11  25
TORSDOF 9
ENDMDL
MODEL 9
REMARK VINA RESULT:    -7.895      2.402      6.819
REMARK INTER + INTRA:         -13.796
REMARK INTER:                 -12.150
REMARK INTRA:                  -1.646
REMARK UNBOUND:                -1.747
REMARK  9 active torsions:
REMARK  status: ('A' for Active; 'I' for Inactive)
REMARK    1  A    between atoms: C_1  and  C_2 
REMARK    2  A    between atoms: C_2  and  C_3 
REMARK    3  A    between atoms: C_3  and  C_31 
REMARK    4  A    between atoms: C_9  and  N_23 
REMARK    5  A    between atoms: C_10  and  C_12 
REMARK       I    between atoms: C_12  and  N_19 
REMARK    6  A    between atoms: N_23  and  C_25 
REMARK    7  A    between atoms: C_27  and  N_28 
REMARK    8  A    between atoms: N_28  and  C_30 
REMARK    9  A    between atoms: C_30  and  C_31 
ROOT
HETATM    1  C   UNL     1     -44.337  10.410   5.323  1.00  0.00     0.031 A 
HETATM    2  C   UNL     1     -43.106  10.744   5.807  1.00  0.00     0.033 A 
HETATM    3  C   UNL     1     -42.152  11.369   4.970  1.00  0.00     0.044 A 
HETATM    4  C   UNL     1     -42.498  11.652   3.627  1.00  0.00     0.021 A 
HETATM    5  C   UNL     1     -43.797  11.317   3.171  1.00  0.00     0.045 A 
HETATM    6  C   UNL     1     -41.515  12.278   2.817  1.00  0.00     0.062 A 
HETATM    7  C   UNL     1     -40.301  12.692   3.389  1.00  0.00     0.074 A 
HETATM    8  C   UNL     1     -40.078  12.337   4.728  1.00  0.00     0.107 A 
HETATM    9  N   UNL     1     -40.936  11.694   5.489  1.00  0.00    -0.364 N 
ATOM     10  HN  UNL     1     -40.696  11.444   6.448  1.00  0.00     0.165 HD
HETATM   11  C   UNL     1     -44.707  10.707   4.014  1.00  0.00     0.028 A 
ENDROOT
BRANCH   6  12
HETATM   12  N   UNL     1     -41.749  12.510   1.467  1.00  0.00    -0.355 N 
ATOM     13  HN  UNL     1     -42.237  13.369   1.219  1.00  0.00     0.166 HD
BRANCH  12  14
HETATM   14  C   UNL     1     -41.359  11.636   0.384  1.00  0.00     0.032 A 
HETATM   15  C   UNL     1     -41.880  10.368   0.182  1.00  0.00     0.029 A 
HETATM   16  C   UNL     1     -41.379   9.555  -0.821  1.00  0.00     0.002 A 
HETATM   17  C   UNL     1     -40.383  10.024  -1.641  1.00  0.00     0.000 A 
HETATM   18  C   UNL     1     -39.835  11.278  -1.416  1.00  0.00     0.002 A 
HETATM   19  C   UNL     1     -40.321  12.093  -0.419  1.00  0.00     0.029 A 
ENDBRANCH  12  14
ENDBRANCH   6  12
BRANCH   7  20
HETATM   20  C   UNL     1     -39.280  13.452   2.611  1.00  0.00     0.254 C 
HETATM   21  O   UNL     1     -39.525  14.559   2.101  1.00  0.00    -0.268 OA
HETATM   22  N   UNL     1     -38.046  12.964   2.507  1.00  0.00    -0.361 N 
HETATM   23  C   UNL     1     -36.995  13.711   1.833  1.00  0.00     0.149 C 
ATOM     24  HN  UNL     1     -37.833  12.050   2.907  1.00  0.00     0.162 HD
ENDBRANCH   7  20
BRANCH  11  25
HETATM   25  N   UNL     1     -45.984  10.444   3.560  1.00  0.00    -0.390 N 
ATOM     26  HN  UNL     1     -46.232   9.503   3.252  1.00  0.00     0.159 HD
BRANCH  25  27
HETATM   27  C   UNL     1     -46.977  11.508   3.519  1.00  0.00     0.119 C 
BRANCH  27  28
HETATM   28  C   UNL     1     -47.225  12.118   4.878  1.00  0.00     0.020 C 
BRANCH  28  29
HETATM   29  C   UNL     1     -46.728  13.530   5.065  1.00  0.00     0.002 C 
BRANCH  29  30
HETATM   30  C   UNL     1     -46.243  13.820   6.477  1.00  0.00    -0.000 C 
BRANCH  30  31
HETATM   31  C   UNL     1     -46.384  15.292   6.853  1.00  0.00    -0.005 C 
HETATM   32  C   UNL     1     -46.734  15.543   8.300  1.00  0.00     0.005 C 
ENDBRANCH  30  31
ENDBRANCH  29  30
ENDBRANCH  28  29
ENDBRANCH  27  28
ENDBRANCH  25  27
ENDBRANCH  11  25
TORSDOF 9
ENDMDL
MODEL 10
REMARK VINA RESULT:    -7.768      3.555      7.997
REMARK INTER + INTRA:         -13.601
REMARK INTER:                 -12.038
REMARK INTRA:                  -1.563
REMARK UNBOUND:                -1.747
REMARK  9 active torsions:
REMARK  status: ('A' for Active; 'I' for Inactive)
REMARK    1  A    between atoms: C_1  and  C_2 
REMARK    2  A    between atoms: C_2  and  C_3 
REMARK    3  A    between atoms: C_3  and  C_31 
REMARK    4  A    between atoms: C_9  and  N_23 
REMARK    5  A    between atoms: C_10  and  C_12 
REMARK       I    between atoms: C_12  and  N_19 
REMARK    6  A    between atoms: N_23  and  C_25 
REMARK    7  A    between atoms: C_27  and  N_28 
REMARK    8  A    between atoms: N_28  and  C_30 
REMARK    9  A    between atoms: C_30  and  C_31 
ROOT
HETATM    1  C   UNL     1     -41.472  12.614   5.026  1.00  0.00     0.031 A 
HETATM    2  C   UNL     1     -40.661  13.650   4.666  1.00  0.00     0.033 A 
HETATM    3  C   UNL     1     -39.649  13.464   3.694  1.00  0.00     0.044 A 
HETATM    4  C   UNL     1     -39.500  12.191   3.094  1.00  0.00     0.021 A 
HETATM    5  C   UNL     1     -40.383  11.150   3.473  1.00  0.00     0.045 A 
HETATM    6  C   UNL     1     -38.474  12.042   2.125  1.00  0.00     0.062 A 
HETATM    7  C   UNL     1     -37.732  13.163   1.716  1.00  0.00     0.074 A 
HETATM    8  C   UNL     1     -37.970  14.364   2.403  1.00  0.00     0.107 A 
HETATM    9  N   UNL     1     -38.862  14.522   3.355  1.00  0.00    -0.364 N 
ATOM     10  HN  UNL     1     -38.963  15.419   3.831  1.00  0.00     0.165 HD
HETATM   11  C   UNL     1     -41.361  11.363   4.426  1.00  0.00     0.028 A 
ENDROOT
BRANCH   6  12
HETATM   12  N   UNL     1     -38.210  10.803   1.555  1.00  0.00    -0.355 N 
ATOM     13  HN  UNL     1     -37.568  10.188   2.053  1.00  0.00     0.166 HD
BRANCH  12  14
HETATM   14  C   UNL     1     -38.767  10.312   0.315  1.00  0.00     0.032 A 
HETATM   15  C   UNL     1     -39.854  10.881  -0.328  1.00  0.00     0.029 A 
HETATM   16  C   UNL     1     -40.390  10.289  -1.459  1.00  0.00     0.002 A 
HETATM   17  C   UNL     1     -39.817   9.149  -1.965  1.00  0.00     0.000 A 
HETATM   18  C   UNL     1     -38.752   8.557  -1.300  1.00  0.00     0.002 A 
HETATM   19  C   UNL     1     -38.215   9.133  -0.173  1.00  0.00     0.029 A 
ENDBRANCH  12  14
ENDBRANCH   6  12
BRANCH   7  20
HETATM   20  C   UNL     1     -36.720  13.085   0.624  1.00  0.00     0.254 C 
HETATM   21  O   UNL     1     -35.679  12.414   0.733  1.00  0.00    -0.268 OA
HETATM   22  N   UNL     1     -36.961  13.701  -0.531  1.00  0.00    -0.361 N 
HETATM   23  C   UNL     1     -36.044  13.581  -1.654  1.00  0.00     0.149 C 
ATOM     24  HN  UNL     1     -37.804  14.268  -0.630  1.00  0.00     0.162 HD
ENDBRANCH   7  20
BRANCH  11  25
HETATM   25  N   UNL     1     -42.243  10.347   4.734  1.00  0.00    -0.390 N 
ATOM     26  HN  UNL     1     -42.258   9.497   4.171  1.00  0.00     0.159 HD
BRANCH  25  27
HETATM   27  C   UNL     1     -43.153  10.488   5.862  1.00  0.00     0.119 C 
BRANCH  27  28
HETATM   28  C   UNL     1     -44.577  10.738   5.428  1.00  0.00     0.020 C 
BRANCH  28  29
HETATM   29  C   UNL     1     -44.855  10.572   3.954  1.00  0.00     0.002 C 
BRANCH  29  30
HETATM   30  C   UNL     1     -45.952  11.488   3.436  1.00  0.00    -0.000 C 
BRANCH  30  31
HETATM   31  C   UNL     1     -47.000  10.739   2.618  1.00  0.00    -0.005 C 
HETATM   32  C   UNL     1     -46.444   9.676   1.701  1.00  0.00     0.005 C 
ENDBRANCH  30  31
ENDBRANCH  29  30
ENDBRANCH  28  29
ENDBRANCH  27  28
ENDBRANCH  25  27
ENDBRANCH  11  25
TORSDOF 9
ENDMDL
MODEL 11
REMARK VINA RESULT:    -7.651      2.509      7.429
REMARK INTER + INTRA:         -13.423
REMARK INTER:                 -12.949
REMARK INTRA:                  -0.474
REMARK UNBOUND:                -1.747
REMARK  9 active torsions:
REMARK  status: ('A' for Active; 'I' for Inactive)
REMARK    1  A    between atoms: C_1  and  C_2 
REMARK    2  A    between atoms: C_2  and  C_3 
REMARK    3  A    between atoms: C_3  and  C_31 
REMARK    4  A    between atoms: C_9  and  N_23 
REMARK    5  A    between atoms: C_10  and  C_12 
REMARK       I    between atoms: C_12  and  N_19 
REMARK    6  A    between atoms: N_23  and  C_25 
REMARK    7  A    between atoms: C_27  and  N_28 
REMARK    8  A    between atoms: N_28  and  C_30 
REMARK    9  A    between atoms: C_30  and  C_31 
ROOT
HETATM    1  C   UNL     1     -41.932  10.540   6.192  1.00  0.00     0.031 A 
HETATM    2  C   UNL     1     -40.773  10.375   5.490  1.00  0.00     0.033 A 
HETATM    3  C   UNL     1     -40.720  10.694   4.111  1.00  0.00     0.044 A 
HETATM    4  C   UNL     1     -41.882  11.196   3.478  1.00  0.00     0.021 A 
HETATM    5  C   UNL     1     -43.055  11.382   4.250  1.00  0.00     0.045 A 
HETATM    6  C   UNL     1     -41.791  11.503   2.095  1.00  0.00     0.062 A 
HETATM    7  C   UNL     1     -40.552  11.412   1.441  1.00  0.00     0.074 A 
HETATM    8  C   UNL     1     -39.481  10.885   2.182  1.00  0.00     0.107 A 
HETATM    9  N   UNL     1     -39.547  10.523   3.443  1.00  0.00    -0.364 N 
ATOM     10  HN  UNL     1     -38.734  10.122   3.913  1.00  0.00     0.165 HD
HETATM   11  C   UNL     1     -43.076  11.061   5.595  1.00  0.00     0.028 A 
ENDROOT
BRANCH   6  12
HETATM   12  N   UNL     1     -42.910  11.919   1.384  1.00  0.00    -0.355 N 
ATOM     13  HN  UNL     1     -42.810  12.748   0.801  1.00  0.00     0.166 HD
BRANCH  12  14
HETATM   14  C   UNL     1     -44.204  11.275   1.402  1.00  0.00     0.032 A 
HETATM   15  C   UNL     1     -45.184  11.526   2.348  1.00  0.00     0.029 A 
HETATM   16  C   UNL     1     -46.359  10.793   2.353  1.00  0.00     0.002 A 
HETATM   17  C   UNL     1     -46.565   9.835   1.392  1.00  0.00     0.000 A 
HETATM   18  C   UNL     1     -45.569   9.557   0.467  1.00  0.00     0.002 A 
HETATM   19  C   UNL     1     -44.396  10.276   0.455  1.00  0.00     0.029 A 
ENDBRANCH  12  14
ENDBRANCH   6  12
BRANCH   7  20
HETATM   20  C   UNL     1     -40.376  11.827   0.020  1.00  0.00     0.254 C 
HETATM   21  O   UNL     1     -41.327  11.866  -0.782  1.00  0.00    -0.268 OA
HETATM   22  N   UNL     1     -39.178  12.230  -0.397  1.00  0.00    -0.361 N 
HETATM   23  C   UNL     1     -38.979  12.727  -1.750  1.00  0.00     0.149 C 
ATOM     24  HN  UNL     1     -38.385  12.191   0.244  1.00  0.00     0.162 HD
ENDBRANCH   7  20
BRANCH  11  25
HETATM   25  N   UNL     1     -44.215  11.305   6.335  1.00  0.00    -0.390 N 
ATOM     26  HN  UNL     1     -44.137  11.613   7.304  1.00  0.00     0.159 HD
BRANCH  25  27
HETATM   27  C   UNL     1     -45.529  11.123   5.733  1.00  0.00     0.119 C 
BRANCH  27  28
HETATM   28  C   UNL     1     -46.358  12.385   5.763  1.00  0.00     0.020 C 
BRANCH  28  29
HETATM   29  C   UNL     1     -45.603  13.673   5.543  1.00  0.00     0.002 C 
BRANCH  29  30
HETATM   30  C   UNL     1     -46.283  14.886   6.157  1.00  0.00    -0.000 C 
BRANCH  30  31
HETATM   31  C   UNL     1     -46.583  14.700   7.642  1.00  0.00    -0.005 C 
HETATM   32  C   UNL     1     -46.730  15.985   8.421  1.00  0.00     0.005 C 
ENDBRANCH  30  31
ENDBRANCH  29  30
ENDBRANCH  28  29
ENDBRANCH  27  28
ENDBRANCH  25  27
ENDBRANCH  11  25
TORSDOF 9
ENDMDL
MODEL 12
REMARK VINA RESULT:    -7.603      3.409      8.156
REMARK INTER + INTRA:         -13.349
REMARK INTER:                 -11.745
REMARK INTRA:                  -1.605
REMARK UNBOUND:                -1.747
REMARK  9 active torsions:
REMARK  status: ('A' for Active; 'I' for Inactive)
REMARK    1  A    between atoms: C_1  and  C_2 
REMARK    2  A    between atoms: C_2  and  C_3 
REMARK    3  A    between atoms: C_3  and  C_31 
REMARK    4  A    between atoms: C_9  and  N_23 
REMARK    5  A    between atoms: C_10  and  C_12 
REMARK       I    between atoms: C_12  and  N_19 
REMARK    6  A    between atoms: N_23  and  C_25 
REMARK    7  A    between atoms: C_27  and  N_28 
REMARK    8  A    between atoms: N_28  and  C_30 
REMARK    9  A    between atoms: C_30  and  C_31 
ROOT
HETATM    1  C   UNL     1     -41.481  13.388   4.248  1.00  0.00     0.031 A 
HETATM    2  C   UNL     1     -40.125  13.513   4.150  1.00  0.00     0.033 A 
HETATM    3  C   UNL     1     -39.472  13.288   2.915  1.00  0.00     0.044 A 
HETATM    4  C   UNL     1     -40.247  12.943   1.782  1.00  0.00     0.021 A 
HETATM    5  C   UNL     1     -41.654  12.855   1.918  1.00  0.00     0.045 A 
HETATM    6  C   UNL     1     -39.557  12.724   0.561  1.00  0.00     0.062 A 
HETATM    7  C   UNL     1     -38.175  12.962   0.488  1.00  0.00     0.074 A 
HETATM    8  C   UNL     1     -37.524  13.285   1.689  1.00  0.00     0.107 A 
HETATM    9  N   UNL     1     -38.119  13.427   2.853  1.00  0.00    -0.364 N 
ATOM     10  HN  UNL     1     -37.579  13.636   3.692  1.00  0.00     0.165 HD
HETATM   11  C   UNL     1     -42.263  13.080   3.138  1.00  0.00     0.028 A 
ENDROOT
BRANCH   6  12
HETATM   12  N   UNL     1     -40.238  12.300  -0.574  1.00  0.00    -0.355 N 
ATOM     13  HN  UNL     1     -40.653  13.019  -1.165  1.00  0.00     0.166 HD
BRANCH  12  14
HETATM   14  C   UNL     1     -40.409  10.925  -0.987  1.00  0.00     0.032 A 
HETATM   15  C   UNL     1     -41.018   9.951  -0.214  1.00  0.00     0.029 A 
HETATM   16  C   UNL     1     -41.051   8.634  -0.641  1.00  0.00     0.002 A 
HETATM   17  C   UNL     1     -40.508   8.301  -1.856  1.00  0.00     0.000 A 
HETATM   18  C   UNL     1     -39.864   9.269  -2.615  1.00  0.00     0.002 A 
HETATM   19  C   UNL     1     -39.821  10.580  -2.198  1.00  0.00     0.029 A 
ENDBRANCH  12  14
ENDBRANCH   6  12
BRANCH   7  20
HETATM   20  C   UNL     1     -37.422  12.854  -0.794  1.00  0.00     0.254 C 
HETATM   21  O   UNL     1     -37.576  13.666  -1.724  1.00  0.00    -0.268 OA
HETATM   22  N   UNL     1     -36.507  11.897  -0.932  1.00  0.00    -0.361 N 
HETATM   23  C   UNL     1     -35.687  11.806  -2.130  1.00  0.00     0.149 C 
ATOM     24  HN  UNL     1     -36.379  11.214  -0.185  1.00  0.00     0.162 HD
ENDBRANCH   7  20
BRANCH  11  25
HETATM   25  N   UNL     1     -43.640  13.043   3.229  1.00  0.00    -0.390 N 
ATOM     26  HN  UNL     1     -44.206  13.013   2.381  1.00  0.00     0.159 HD
BRANCH  25  27
HETATM   27  C   UNL     1     -44.285  13.048   4.535  1.00  0.00     0.119 C 
BRANCH  27  28
HETATM   28  C   UNL     1     -44.772  11.678   4.943  1.00  0.00     0.020 C 
BRANCH  28  29
HETATM   29  C   UNL     1     -45.358  10.832   3.840  1.00  0.00     0.002 C 
BRANCH  29  30
HETATM   30  C   UNL     1     -46.766  11.245   3.442  1.00  0.00    -0.000 C 
BRANCH  30  31
HETATM   31  C   UNL     1     -47.287  10.462   2.240  1.00  0.00    -0.005 C 
HETATM   32  C   UNL     1     -46.222   9.753   1.438  1.00  0.00     0.005 C 
ENDBRANCH  30  31
ENDBRANCH  29  30
ENDBRANCH  28  29
ENDBRANCH  27  28
ENDBRANCH  25  27
ENDBRANCH  11  25
TORSDOF 9
ENDMDL
MODEL 13
REMARK VINA RESULT:    -7.597      4.490      9.748
REMARK INTER + INTRA:         -13.340
REMARK INTER:                 -12.023
REMARK INTRA:                  -1.318
REMARK UNBOUND:                -1.747
REMARK  9 active torsions:
REMARK  status: ('A' for Active; 'I' for Inactive)
REMARK    1  A    between atoms: C_1  and  C_2 
REMARK    2  A    between atoms: C_2  and  C_3 
REMARK    3  A    between atoms: C_3  and  C_31 
REMARK    4  A    between atoms: C_9  and  N_23 
REMARK    5  A    between atoms: C_10  and  C_12 
REMARK       I    between atoms: C_12  and  N_19 
REMARK    6  A    between atoms: N_23  and  C_25 
REMARK    7  A    between atoms: C_27  and  N_28 
REMARK    8  A    between atoms: N_28  and  C_30 
REMARK    9  A    between atoms: C_30  and  C_31 
ROOT
HETATM    1  C   UNL     1     -40.765  12.174  -0.307  1.00  0.00     0.031 A 
HETATM    2  C   UNL     1     -39.654  11.829  -1.019  1.00  0.00     0.033 A 
HETATM    3  C   UNL     1     -39.447  10.487  -1.419  1.00  0.00     0.044 A 
HETATM    4  C   UNL     1     -40.415   9.513  -1.078  1.00  0.00     0.021 A 
HETATM    5  C   UNL     1     -41.570   9.918  -0.365  1.00  0.00     0.045 A 
HETATM    6  C   UNL     1     -40.173   8.178  -1.495  1.00  0.00     0.062 A 
HETATM    7  C   UNL     1     -39.067   7.892  -2.312  1.00  0.00     0.074 A 
HETATM    8  C   UNL     1     -38.176   8.948  -2.563  1.00  0.00     0.107 A 
HETATM    9  N   UNL     1     -38.330  10.181  -2.134  1.00  0.00    -0.364 N 
ATOM     10  HN  UNL     1     -37.627  10.893  -2.333  1.00  0.00     0.165 HD
HETATM   11  C   UNL     1     -41.744  11.236   0.012  1.00  0.00     0.028 A 
ENDROOT
BRANCH   6  12
HETATM   12  N   UNL     1     -41.033   7.151  -1.126  1.00  0.00    -0.355 N 
ATOM     13  HN  UNL     1     -40.933   6.775  -0.184  1.00  0.00     0.166 HD
BRANCH  12  14
HETATM   14  C   UNL     1     -42.057   6.570  -1.964  1.00  0.00     0.032 A 
HETATM   15  C   UNL     1     -42.171   5.215  -2.225  1.00  0.00     0.029 A 
HETATM   16  C   UNL     1     -43.119   4.749  -3.120  1.00  0.00     0.002 A 
HETATM   17  C   UNL     1     -43.974   5.636  -3.725  1.00  0.00     0.000 A 
HETATM   18  C   UNL     1     -43.837   6.997  -3.494  1.00  0.00     0.002 A 
HETATM   19  C   UNL     1     -42.894   7.472  -2.610  1.00  0.00     0.029 A 
ENDBRANCH  12  14
ENDBRANCH   6  12
BRANCH   7  20
HETATM   20  C   UNL     1     -38.826   6.530  -2.868  1.00  0.00     0.254 C 
HETATM   21  O   UNL     1     -38.488   5.571  -2.152  1.00  0.00    -0.268 OA
HETATM   22  N   UNL     1     -39.038   6.310  -4.164  1.00  0.00    -0.361 N 
HETATM   23  C   UNL     1     -38.902   4.979  -4.734  1.00  0.00     0.149 C 
ATOM     24  HN  UNL     1     -39.302   7.089  -4.768  1.00  0.00     0.162 HD
ENDBRANCH   7  20
BRANCH  11  25
HETATM   25  N   UNL     1     -42.905  11.613   0.656  1.00  0.00    -0.390 N 
ATOM     26  HN  UNL     1     -42.987  12.548   1.053  1.00  0.00     0.159 HD
BRANCH  25  27
HETATM   27  C   UNL     1     -44.012  10.674   0.771  1.00  0.00     0.119 C 
BRANCH  27  28
HETATM   28  C   UNL     1     -44.820  10.885   2.029  1.00  0.00     0.020 C 
BRANCH  28  29
HETATM   29  C   UNL     1     -46.206  10.288   2.029  1.00  0.00     0.002 C 
BRANCH  29  30
HETATM   30  C   UNL     1     -47.165  10.978   2.985  1.00  0.00    -0.000 C 
BRANCH  30  31
HETATM   31  C   UNL     1     -46.447  11.890   3.976  1.00  0.00    -0.005 C 
HETATM   32  C   UNL     1     -47.214  12.168   5.247  1.00  0.00     0.005 C 
ENDBRANCH  30  31
ENDBRANCH  29  30
ENDBRANCH  28  29
ENDBRANCH  27  28
ENDBRANCH  25  27
ENDBRANCH  11  25
TORSDOF 9
ENDMDL
MODEL 14
REMARK VINA RESULT:    -7.545      3.465      7.811
REMARK INTER + INTRA:         -13.262
REMARK INTER:                 -10.931
REMARK INTRA:                  -2.331
REMARK UNBOUND:                -1.747
REMARK  9 active torsions:
REMARK  status: ('A' for Active; 'I' for Inactive)
REMARK    1  A    between atoms: C_1  and  C_2 
REMARK    2  A    between atoms: C_2  and  C_3 
REMARK    3  A    between atoms: C_3  and  C_31 
REMARK    4  A    between atoms: C_9  and  N_23 
REMARK    5  A    between atoms: C_10  and  C_12 
REMARK       I    between atoms: C_12  and  N_19 
REMARK    6  A    between atoms: N_23  and  C_25 
REMARK    7  A    between atoms: C_27  and  N_28 
REMARK    8  A    between atoms: N_28  and  C_30 
REMARK    9  A    between atoms: C_30  and  C_31 
ROOT
HETATM    1  C   UNL     1     -41.620  13.751   4.327  1.00  0.00     0.031 A 
HETATM    2  C   UNL     1     -40.286  14.035   4.320  1.00  0.00     0.033 A 
HETATM    3  C   UNL     1     -39.504  13.775   3.169  1.00  0.00     0.044 A 
HETATM    4  C   UNL     1     -40.129  13.228   2.024  1.00  0.00     0.021 A 
HETATM    5  C   UNL     1     -41.523  12.976   2.061  1.00  0.00     0.045 A 
HETATM    6  C   UNL     1     -39.313  12.979   0.889  1.00  0.00     0.062 A 
HETATM    7  C   UNL     1     -37.967  13.382   0.897  1.00  0.00     0.074 A 
HETATM    8  C   UNL     1     -37.468  13.899   2.103  1.00  0.00     0.107 A 
HETATM    9  N   UNL     1     -38.177  14.077   3.196  1.00  0.00    -0.364 N 
ATOM     10  HN  UNL     1     -37.741  14.433   4.047  1.00  0.00     0.165 HD
HETATM   11  C   UNL     1     -42.260  13.240   3.200  1.00  0.00     0.028 A 
ENDROOT
BRANCH   6  12
HETATM   12  N   UNL     1     -39.836  12.365  -0.241  1.00  0.00    -0.355 N 
ATOM     13  HN  UNL     1     -40.145  12.971  -1.000  1.00  0.00     0.166 HD
BRANCH  12  14
HETATM   14  C   UNL     1     -39.978  10.939  -0.434  1.00  0.00     0.032 A 
HETATM   15  C   UNL     1     -38.917  10.070  -0.619  1.00  0.00     0.029 A 
HETATM   16  C   UNL     1     -39.144   8.733  -0.898  1.00  0.00     0.002 A 
HETATM   17  C   UNL     1     -40.432   8.262  -0.958  1.00  0.00     0.000 A 
HETATM   18  C   UNL     1     -41.497   9.139  -0.810  1.00  0.00     0.002 A 
HETATM   19  C   UNL     1     -41.283  10.470  -0.538  1.00  0.00     0.029 A 
ENDBRANCH  12  14
ENDBRANCH   6  12
BRANCH   7  20
HETATM   20  C   UNL     1     -37.096  13.246  -0.305  1.00  0.00     0.254 C 
HETATM   21  O   UNL     1     -37.403  13.736  -1.405  1.00  0.00    -0.268 OA
HETATM   22  N   UNL     1     -35.919  12.634  -0.189  1.00  0.00    -0.361 N 
HETATM   23  C   UNL     1     -34.997  12.555  -1.312  1.00  0.00     0.149 C 
ATOM     24  HN  UNL     1     -35.658  12.214   0.704  1.00  0.00     0.162 HD
ENDBRANCH   7  20
BRANCH  11  25
HETATM   25  N   UNL     1     -43.625  13.039   3.189  1.00  0.00    -0.390 N 
ATOM     26  HN  UNL     1     -44.116  12.919   2.303  1.00  0.00     0.159 HD
BRANCH  25  27
HETATM   27  C   UNL     1     -44.366  12.997   4.442  1.00  0.00     0.119 C 
BRANCH  27  28
HETATM   28  C   UNL     1     -44.816  11.601   4.801  1.00  0.00     0.020 C 
BRANCH  28  29
HETATM   29  C   UNL     1     -43.955  10.868   5.799  1.00  0.00     0.002 C 
BRANCH  29  30
HETATM   30  C   UNL     1     -42.901   9.981   5.156  1.00  0.00    -0.000 C 
BRANCH  30  31
HETATM   31  C   UNL     1     -41.527  10.145   5.799  1.00  0.00    -0.005 C 
HETATM   32  C   UNL     1     -40.397  10.375   4.823  1.00  0.00     0.005 C 
ENDBRANCH  30  31
ENDBRANCH  29  30
ENDBRANCH  28  29
ENDBRANCH  27  28
ENDBRANCH  25  27
ENDBRANCH  11  25
TORSDOF 9
ENDMDL
MODEL 15
REMARK VINA RESULT:    -7.497      3.970      8.474
REMARK INTER + INTRA:         -13.188
REMARK INTER:                 -11.681
REMARK INTRA:                  -1.507
REMARK UNBOUND:                -1.747
REMARK  9 active torsions:
REMARK  status: ('A' for Active; 'I' for Inactive)
REMARK    1  A    between atoms: C_1  and  C_2 
REMARK    2  A    between atoms: C_2  and  C_3 
REMARK    3  A    between atoms: C_3  and  C_31 
REMARK    4  A    between atoms: C_9  and  N_23 
REMARK    5  A    between atoms: C_10  and  C_12 
REMARK       I    between atoms: C_12  and  N_19 
REMARK    6  A    between atoms: N_23  and  C_25 
REMARK    7  A    between atoms: C_27  and  N_28 
REMARK    8  A    between atoms: N_28  and  C_30 
REMARK    9  A    between atoms: C_30  and  C_31 
ROOT
HETATM    1  C   UNL     1     -40.636  14.651   2.605  1.00  0.00     0.031 A 
HETATM    2  C   UNL     1     -39.287  14.817   2.728  1.00  0.00     0.033 A 
HETATM    3  C   UNL     1     -38.403  13.756   2.415  1.00  0.00     0.044 A 
HETATM    4  C   UNL     1     -38.941  12.527   1.963  1.00  0.00     0.021 A 
HETATM    5  C   UNL     1     -40.344  12.406   1.819  1.00  0.00     0.045 A 
HETATM    6  C   UNL     1     -38.024  11.486   1.660  1.00  0.00     0.062 A 
HETATM    7  C   UNL     1     -36.643  11.737   1.706  1.00  0.00     0.074 A 
HETATM    8  C   UNL     1     -36.244  12.995   2.185  1.00  0.00     0.107 A 
HETATM    9  N   UNL     1     -37.064  13.958   2.543  1.00  0.00    -0.364 N 
ATOM     10  HN  UNL     1     -36.703  14.839   2.909  1.00  0.00     0.165 HD
HETATM   11  C   UNL     1     -41.182  13.461   2.133  1.00  0.00     0.028 A 
ENDROOT
BRANCH   6  12
HETATM   12  N   UNL     1     -38.477  10.225   1.293  1.00  0.00    -0.355 N 
ATOM     13  HN  UNL     1     -38.372   9.475   1.975  1.00  0.00     0.166 HD
BRANCH  12  14
HETATM   14  C   UNL     1     -39.085   9.886   0.026  1.00  0.00     0.032 A 
HETATM   15  C   UNL     1     -38.525  10.175  -1.207  1.00  0.00     0.029 A 
HETATM   16  C   UNL     1     -39.220   9.907  -2.375  1.00  0.00     0.002 A 
HETATM   17  C   UNL     1     -40.458   9.317  -2.307  1.00  0.00     0.000 A 
HETATM   18  C   UNL     1     -41.036   9.061  -1.072  1.00  0.00     0.002 A 
HETATM   19  C   UNL     1     -40.357   9.328   0.095  1.00  0.00     0.029 A 
ENDBRANCH  12  14
ENDBRANCH   6  12
BRANCH   7  20
HETATM   20  C   UNL     1     -35.640  10.715   1.291  1.00  0.00     0.254 C 
HETATM   21  O   UNL     1     -35.516   9.629   1.886  1.00  0.00    -0.268 OA
HETATM   22  N   UNL     1     -34.891  10.938   0.214  1.00  0.00    -0.361 N 
HETATM   23  C   UNL     1     -33.962   9.932  -0.279  1.00  0.00     0.149 C 
ATOM     24  HN  UNL     1     -34.971  11.829  -0.276  1.00  0.00     0.162 HD
ENDBRANCH   7  20
BRANCH  11  25
HETATM   25  N   UNL     1     -42.541  13.334   1.930  1.00  0.00    -0.390 N 
ATOM     26  HN  UNL     1     -43.195  13.675   2.634  1.00  0.00     0.159 HD
BRANCH  25  27
HETATM   27  C   UNL     1     -43.041  12.714   0.711  1.00  0.00     0.119 C 
BRANCH  27  28
HETATM   28  C   UNL     1     -43.452  11.276   0.922  1.00  0.00     0.020 C 
BRANCH  28  29
HETATM   29  C   UNL     1     -44.697  11.062   1.747  1.00  0.00     0.002 C 
BRANCH  29  30
HETATM   30  C   UNL     1     -45.643  10.026   1.161  1.00  0.00    -0.000 C 
BRANCH  30  31
HETATM   31  C   UNL     1     -47.010  10.033   1.839  1.00  0.00    -0.005 C 
HETATM   32  C   UNL     1     -47.129  10.979   3.011  1.00  0.00     0.005 C 
ENDBRANCH  30  31
ENDBRANCH  29  30
ENDBRANCH  28  29
ENDBRANCH  27  28
ENDBRANCH  25  27
ENDBRANCH  11  25
TORSDOF 9
ENDMDL
MODEL 16
REMARK VINA RESULT:    -7.493      2.608      5.898
REMARK INTER + INTRA:         -13.183
REMARK INTER:                 -11.757
REMARK INTRA:                  -1.426
REMARK UNBOUND:                -1.747
REMARK  9 active torsions:
REMARK  status: ('A' for Active; 'I' for Inactive)
REMARK    1  A    between atoms: C_1  and  C_2 
REMARK    2  A    between atoms: C_2  and  C_3 
REMARK    3  A    between atoms: C_3  and  C_31 
REMARK    4  A    between atoms: C_9  and  N_23 
REMARK    5  A    between atoms: C_10  and  C_12 
REMARK       I    between atoms: C_12  and  N_19 
REMARK    6  A    between atoms: N_23  and  C_25 
REMARK    7  A    between atoms: C_27  and  N_28 
REMARK    8  A    between atoms: N_28  and  C_30 
REMARK    9  A    between atoms: C_30  and  C_31 
ROOT
HETATM    1  C   UNL     1     -38.601  10.310  -0.315  1.00  0.00     0.031 A 
HETATM    2  C   UNL     1     -38.422  10.293   1.038  1.00  0.00     0.033 A 
HETATM    3  C   UNL     1     -39.456  10.725   1.903  1.00  0.00     0.044 A 
HETATM    4  C   UNL     1     -40.680  11.163   1.344  1.00  0.00     0.021 A 
HETATM    5  C   UNL     1     -40.837  11.136  -0.063  1.00  0.00     0.045 A 
HETATM    6  C   UNL     1     -41.693  11.590   2.242  1.00  0.00     0.062 A 
HETATM    7  C   UNL     1     -41.497  11.459   3.627  1.00  0.00     0.074 A 
HETATM    8  C   UNL     1     -40.231  11.024   4.049  1.00  0.00     0.107 A 
HETATM    9  N   UNL     1     -39.245  10.689   3.247  1.00  0.00    -0.364 N 
ATOM     10  HN  UNL     1     -38.340  10.406   3.624  1.00  0.00     0.165 HD
HETATM   11  C   UNL     1     -39.808  10.709  -0.882  1.00  0.00     0.028 A 
ENDROOT
BRANCH   6  12
HETATM   12  N   UNL     1     -42.889  12.114   1.768  1.00  0.00    -0.355 N 
ATOM     13  HN  UNL     1     -42.886  13.090   1.472  1.00  0.00     0.166 HD
BRANCH  12  14
HETATM   14  C   UNL     1     -44.137  11.394   1.658  1.00  0.00     0.032 A 
HETATM   15  C   UNL     1     -45.159  11.463   2.591  1.00  0.00     0.029 A 
HETATM   16  C   UNL     1     -46.282  10.664   2.463  1.00  0.00     0.002 A 
HETATM   17  C   UNL     1     -46.397   9.823   1.384  1.00  0.00     0.000 A 
HETATM   18  C   UNL     1     -45.358   9.725   0.470  1.00  0.00     0.002 A 
HETATM   19  C   UNL     1     -44.235  10.511   0.590  1.00  0.00     0.029 A 
ENDBRANCH  12  14
ENDBRANCH   6  12
BRANCH   7  20
HETATM   20  C   UNL     1     -42.568  11.788   4.611  1.00  0.00     0.254 C 
HETATM   21  O   UNL     1     -42.927  12.958   4.834  1.00  0.00    -0.268 OA
HETATM   22  N   UNL     1     -43.209  10.799   5.229  1.00  0.00    -0.361 N 
HETATM   23  C   UNL     1     -44.319  11.068   6.131  1.00  0.00     0.149 C 
ATOM     24  HN  UNL     1     -42.917   9.834   5.068  1.00  0.00     0.162 HD
ENDBRANCH   7  20
BRANCH  11  25
HETATM   25  N   UNL     1     -40.009  10.639  -2.246  1.00  0.00    -0.390 N 
ATOM     26  HN  UNL     1     -40.289  11.472  -2.763  1.00  0.00     0.159 HD
BRANCH  25  27
HETATM   27  C   UNL     1     -39.820   9.377  -2.947  1.00  0.00     0.119 C 
BRANCH  27  28
HETATM   28  C   UNL     1     -41.126   8.683  -3.249  1.00  0.00     0.020 C 
BRANCH  28  29
HETATM   29  C   UNL     1     -41.872   8.135  -2.057  1.00  0.00     0.002 C 
BRANCH  29  30
HETATM   30  C   UNL     1     -43.090   7.306  -2.431  1.00  0.00    -0.000 C 
BRANCH  30  31
HETATM   31  C   UNL     1     -42.966   6.677  -3.816  1.00  0.00    -0.005 C 
HETATM   32  C   UNL     1     -44.085   7.026  -4.769  1.00  0.00     0.005 C 
ENDBRANCH  30  31
ENDBRANCH  29  30
ENDBRANCH  28  29
ENDBRANCH  27  28
ENDBRANCH  25  27
ENDBRANCH  11  25
TORSDOF 9
ENDMDL
MODEL 17
REMARK VINA RESULT:    -7.478      2.694      6.583
REMARK INTER + INTRA:         -13.158
REMARK INTER:                 -11.613
REMARK INTRA:                  -1.546
REMARK UNBOUND:                -1.747
REMARK  9 active torsions:
REMARK  status: ('A' for Active; 'I' for Inactive)
REMARK    1  A    between atoms: C_1  and  C_2 
REMARK    2  A    between atoms: C_2  and  C_3 
REMARK    3  A    between atoms: C_3  and  C_31 
REMARK    4  A    between atoms: C_9  and  N_23 
REMARK    5  A    between atoms: C_10  and  C_12 
REMARK       I    between atoms: C_12  and  N_19 
REMARK    6  A    between atoms: N_23  and  C_25 
REMARK    7  A    between atoms: C_27  and  N_28 
REMARK    8  A    between atoms: N_28  and  C_30 
REMARK    9  A    between atoms: C_30  and  C_31 
ROOT
HETATM    1  C   UNL     1     -44.435  11.379   5.690  1.00  0.00     0.031 A 
HETATM    2  C   UNL     1     -43.274  10.741   6.020  1.00  0.00     0.033 A 
HETATM    3  C   UNL     1     -42.138  10.841   5.182  1.00  0.00     0.044 A 
HETATM    4  C   UNL     1     -42.222  11.621   4.004  1.00  0.00     0.021 A 
HETATM    5  C   UNL     1     -43.434  12.292   3.713  1.00  0.00     0.045 A 
HETATM    6  C   UNL     1     -41.063  11.697   3.187  1.00  0.00     0.062 A 
HETATM    7  C   UNL     1     -39.864  11.106   3.621  1.00  0.00     0.074 A 
HETATM    8  C   UNL     1     -39.923  10.349   4.802  1.00  0.00     0.107 A 
HETATM    9  N   UNL     1     -40.996  10.197   5.546  1.00  0.00    -0.364 N 
ATOM     10  HN  UNL     1     -40.973   9.609   6.379  1.00  0.00     0.165 HD
HETATM   11  C   UNL     1     -44.527  12.175   4.551  1.00  0.00     0.028 A 
ENDROOT
BRANCH   6  12
HETATM   12  N   UNL     1     -41.092  12.371   1.973  1.00  0.00    -0.355 N 
ATOM     13  HN  UNL     1     -41.293  13.370   2.000  1.00  0.00     0.166 HD
BRANCH  12  14
HETATM   14  C   UNL     1     -40.862  11.778   0.675  1.00  0.00     0.032 A 
HETATM   15  C   UNL     1     -41.369  10.551   0.281  1.00  0.00     0.029 A 
HETATM   16  C   UNL     1     -41.018  10.006  -0.943  1.00  0.00     0.002 A 
HETATM   17  C   UNL     1     -40.189  10.706  -1.784  1.00  0.00     0.000 A 
HETATM   18  C   UNL     1     -39.650  11.917  -1.375  1.00  0.00     0.002 A 
HETATM   19  C   UNL     1     -39.988  12.465  -0.158  1.00  0.00     0.029 A 
ENDBRANCH  12  14
ENDBRANCH   6  12
BRANCH   7  20
HETATM   20  C   UNL     1     -38.592  11.249   2.857  1.00  0.00     0.254 C 
HETATM   21  O   UNL     1     -38.155  10.347   2.122  1.00  0.00    -0.268 OA
HETATM   22  N   UNL     1     -37.927  12.401   2.911  1.00  0.00    -0.361 N 
HETATM   23  C   UNL     1     -36.728  12.617   2.115  1.00  0.00     0.149 C 
ATOM     24  HN  UNL     1     -38.264  13.146   3.521  1.00  0.00     0.162 HD
ENDBRANCH   7  20
BRANCH  11  25
HETATM   25  N   UNL     1     -45.678  12.885   4.273  1.00  0.00    -0.390 N 
ATOM     26  HN  UNL     1     -45.631  13.726   3.699  1.00  0.00     0.159 HD
BRANCH  25  27
HETATM   27  C   UNL     1     -46.958  12.435   4.801  1.00  0.00     0.119 C 
BRANCH  27  28
HETATM   28  C   UNL     1     -47.454  11.181   4.121  1.00  0.00     0.020 C 
BRANCH  28  29
HETATM   29  C   UNL     1     -47.250  11.119   2.627  1.00  0.00     0.002 C 
BRANCH  29  30
HETATM   30  C   UNL     1     -46.370   9.962   2.182  1.00  0.00    -0.000 C 
BRANCH  30  31
HETATM   31  C   UNL     1     -45.143  10.427   1.404  1.00  0.00    -0.005 C 
HETATM   32  C   UNL     1     -44.957   9.760   0.061  1.00  0.00     0.005 C 
ENDBRANCH  30  31
ENDBRANCH  29  30
ENDBRANCH  28  29
ENDBRANCH  27  28
ENDBRANCH  25  27
ENDBRANCH  11  25
TORSDOF 9
ENDMDL
MODEL 18
REMARK VINA RESULT:    -7.432      3.294      6.479
REMARK INTER + INTRA:         -13.089
REMARK INTER:                 -11.597
REMARK INTRA:                  -1.492
REMARK UNBOUND:                -1.747
REMARK  9 active torsions:
REMARK  status: ('A' for Active; 'I' for Inactive)
REMARK    1  A    between atoms: C_1  and  C_2 
REMARK    2  A    between atoms: C_2  and  C_3 
REMARK    3  A    between atoms: C_3  and  C_31 
REMARK    4  A    between atoms: C_9  and  N_23 
REMARK    5  A    between atoms: C_10  and  C_12 
REMARK       I    between atoms: C_12  and  N_19 
REMARK    6  A    between atoms: N_23  and  C_25 
REMARK    7  A    between atoms: C_27  and  N_28 
REMARK    8  A    between atoms: N_28  and  C_30 
REMARK    9  A    between atoms: C_30  and  C_31 
ROOT
HETATM    1  C   UNL     1     -40.663   7.787  -1.662  1.00  0.00     0.031 A 
HETATM    2  C   UNL     1     -39.716   8.412  -0.904  1.00  0.00     0.033 A 
HETATM    3  C   UNL     1     -40.053   9.550  -0.132  1.00  0.00     0.044 A 
HETATM    4  C   UNL     1     -41.387  10.021  -0.151  1.00  0.00     0.021 A 
HETATM    5  C   UNL     1     -42.347   9.325  -0.927  1.00  0.00     0.045 A 
HETATM    6  C   UNL     1     -41.687  11.165   0.633  1.00  0.00     0.062 A 
HETATM    7  C   UNL     1     -40.704  11.711   1.474  1.00  0.00     0.074 A 
HETATM    8  C   UNL     1     -39.417  11.157   1.386  1.00  0.00     0.107 A 
HETATM    9  N   UNL     1     -39.085  10.144   0.618  1.00  0.00    -0.364 N 
ATOM     10  HN  UNL     1     -38.122   9.810   0.584  1.00  0.00     0.165 HD
HETATM   11  C   UNL     1     -41.987   8.217  -1.671  1.00  0.00     0.028 A 
ENDROOT
BRANCH   6  12
HETATM   12  N   UNL     1     -42.952  11.738   0.600  1.00  0.00    -0.355 N 
ATOM     13  HN  UNL     1     -43.073  12.569   0.022  1.00  0.00     0.166 HD
BRANCH  12  14
HETATM   14  C   UNL     1     -44.113  11.257   1.316  1.00  0.00     0.032 A 
HETATM   15  C   UNL     1     -44.993  10.309   0.821  1.00  0.00     0.029 A 
HETATM   16  C   UNL     1     -46.137   9.977   1.527  1.00  0.00     0.002 A 
HETATM   17  C   UNL     1     -46.379  10.568   2.743  1.00  0.00     0.000 A 
HETATM   18  C   UNL     1     -45.518  11.545   3.221  1.00  0.00     0.002 A 
HETATM   19  C   UNL     1     -44.381  11.887   2.525  1.00  0.00     0.029 A 
ENDBRANCH  12  14
ENDBRANCH   6  12
BRANCH   7  20
HETATM   20  C   UNL     1     -40.996  12.842   2.401  1.00  0.00     0.254 C 
HETATM   21  O   UNL     1     -41.284  13.980   1.988  1.00  0.00    -0.268 OA
HETATM   22  N   UNL     1     -41.011  12.621   3.713  1.00  0.00    -0.361 N 
HETATM   23  C   UNL     1     -41.376  13.672   4.650  1.00  0.00     0.149 C 
ATOM     24  HN  UNL     1     -40.762  11.697   4.068  1.00  0.00     0.162 HD
ENDBRANCH   7  20
BRANCH  11  25
HETATM   25  N   UNL     1     -42.953   7.525  -2.372  1.00  0.00    -0.390 N 
ATOM     26  HN  UNL     1     -43.794   7.199  -1.896  1.00  0.00     0.159 HD
BRANCH  25  27
HETATM   27  C   UNL     1     -42.773   7.259  -3.793  1.00  0.00     0.119 C 
BRANCH  27  28
HETATM   28  C   UNL     1     -43.364   5.935  -4.212  1.00  0.00     0.020 C 
BRANCH  28  29
HETATM   29  C   UNL     1     -43.571   4.928  -3.108  1.00  0.00     0.002 C 
BRANCH  29  30
HETATM   30  C   UNL     1     -42.442   3.918  -2.988  1.00  0.00    -0.000 C 
BRANCH  30  31
HETATM   31  C   UNL     1     -41.569   4.160  -1.760  1.00  0.00    -0.005 C 
HETATM   32  C   UNL     1     -40.411   3.201  -1.609  1.00  0.00     0.005 C 
ENDBRANCH  30  31
ENDBRANCH  29  30
ENDBRANCH  28  29
ENDBRANCH  27  28
ENDBRANCH  25  27
ENDBRANCH  11  25
TORSDOF 9
ENDMDL
MODEL 19
REMARK VINA RESULT:    -7.428      3.330      7.312
REMARK INTER + INTRA:         -13.082
REMARK INTER:                 -11.675
REMARK INTRA:                  -1.408
REMARK UNBOUND:                -1.747
REMARK  9 active torsions:
REMARK  status: ('A' for Active; 'I' for Inactive)
REMARK    1  A    between atoms: C_1  and  C_2 
REMARK    2  A    between atoms: C_2  and  C_3 
REMARK    3  A    between atoms: C_3  and  C_31 
REMARK    4  A    between atoms: C_9  and  N_23 
REMARK    5  A    between atoms: C_10  and  C_12 
REMARK       I    between atoms: C_12  and  N_19 
REMARK    6  A    between atoms: N_23  and  C_25 
REMARK    7  A    between atoms: C_27  and  N_28 
REMARK    8  A    between atoms: N_28  and  C_30 
REMARK    9  A    between atoms: C_30  and  C_31 
ROOT
HETATM    1  C   UNL     1     -42.367   9.206  -0.874  1.00  0.00     0.031 A 
HETATM    2  C   UNL     1     -41.125   8.686  -1.094  1.00  0.00     0.033 A 
HETATM    3  C   UNL     1     -39.989   9.254  -0.468  1.00  0.00     0.044 A 
HETATM    4  C   UNL     1     -40.164  10.361   0.396  1.00  0.00     0.021 A 
HETATM    5  C   UNL     1     -41.474  10.851   0.622  1.00  0.00     0.045 A 
HETATM    6  C   UNL     1     -39.003  10.905   1.004  1.00  0.00     0.062 A 
HETATM    7  C   UNL     1     -37.761  10.272   0.826  1.00  0.00     0.074 A 
HETATM    8  C   UNL     1     -37.724   9.191  -0.069  1.00  0.00     0.107 A 
HETATM    9  N   UNL     1     -38.766   8.705  -0.706  1.00  0.00    -0.364 N 
ATOM     10  HN  UNL     1     -38.661   7.933  -1.364  1.00  0.00     0.165 HD
HETATM   11  C   UNL     1     -42.563  10.275  -0.004  1.00  0.00     0.028 A 
ENDROOT
BRANCH   6  12
HETATM   12  N   UNL     1     -39.082  12.043   1.796  1.00  0.00    -0.355 N 
ATOM     13  HN  UNL     1     -38.674  12.900   1.424  1.00  0.00     0.166 HD
BRANCH  12  14
HETATM   14  C   UNL     1     -39.694  12.116   3.104  1.00  0.00     0.032 A 
HETATM   15  C   UNL     1     -39.911  11.021   3.923  1.00  0.00     0.029 A 
HETATM   16  C   UNL     1     -40.596  11.163   5.118  1.00  0.00     0.002 A 
HETATM   17  C   UNL     1     -41.029  12.406   5.509  1.00  0.00     0.000 A 
HETATM   18  C   UNL     1     -40.845  13.497   4.672  1.00  0.00     0.002 A 
HETATM   19  C   UNL     1     -40.171  13.367   3.479  1.00  0.00     0.029 A 
ENDBRANCH  12  14
ENDBRANCH   6  12
BRANCH   7  20
HETATM   20  C   UNL     1     -36.531  10.735   1.529  1.00  0.00     0.254 C 
HETATM   21  O   UNL     1     -36.461  11.849   2.077  1.00  0.00    -0.268 OA
HETATM   22  N   UNL     1     -35.491   9.911   1.631  1.00  0.00    -0.361 N 
HETATM   23  C   UNL     1     -34.303  10.286   2.382  1.00  0.00     0.149 C 
ATOM     24  HN  UNL     1     -35.527   8.999   1.174  1.00  0.00     0.162 HD
ENDBRANCH   7  20
BRANCH  11  25
HETATM   25  N   UNL     1     -43.833  10.737   0.278  1.00  0.00    -0.390 N 
ATOM     26  HN  UNL     1     -44.412  11.125  -0.467  1.00  0.00     0.159 HD
BRANCH  25  27
HETATM   27  C   UNL     1     -44.347  10.671   1.639  1.00  0.00     0.119 C 
BRANCH  27  28
HETATM   28  C   UNL     1     -45.778  10.192   1.693  1.00  0.00     0.020 C 
BRANCH  28  29
HETATM   29  C   UNL     1     -46.632  10.794   2.782  1.00  0.00     0.002 C 
BRANCH  29  30
HETATM   30  C   UNL     1     -45.907  11.839   3.615  1.00  0.00    -0.000 C 
BRANCH  30  31
HETATM   31  C   UNL     1     -45.775  11.432   5.079  1.00  0.00    -0.005 C 
HETATM   32  C   UNL     1     -44.526  10.648   5.406  1.00  0.00     0.005 C 
ENDBRANCH  30  31
ENDBRANCH  29  30
ENDBRANCH  28  29
ENDBRANCH  27  28
ENDBRANCH  25  27
ENDBRANCH  11  25
TORSDOF 9
ENDMDL
MODEL 20
REMARK VINA RESULT:    -7.416      4.362      9.576
REMARK INTER + INTRA:         -13.065
REMARK INTER:                 -11.507
REMARK INTRA:                  -1.557
REMARK UNBOUND:                -1.747
REMARK  9 active torsions:
REMARK  status: ('A' for Active; 'I' for Inactive)
REMARK    1  A    between atoms: C_1  and  C_2 
REMARK    2  A    between atoms: C_2  and  C_3 
REMARK    3  A    between atoms: C_3  and  C_31 
REMARK    4  A    between atoms: C_9  and  N_23 
REMARK    5  A    between atoms: C_10  and  C_12 
REMARK       I    between atoms: C_12  and  N_19 
REMARK    6  A    between atoms: N_23  and  C_25 
REMARK    7  A    between atoms: C_27  and  N_28 
REMARK    8  A    between atoms: N_28  and  C_30 
REMARK    9  A    between atoms: C_30  and  C_31 
ROOT
HETATM    1  C   UNL     1     -40.844  12.023   0.644  1.00  0.00     0.031 A 
HETATM    2  C   UNL     1     -39.583  11.709   0.226  1.00  0.00     0.033 A 
HETATM    3  C   UNL     1     -39.332  10.481  -0.432  1.00  0.00     0.044 A 
HETATM    4  C   UNL     1     -40.408   9.591  -0.659  1.00  0.00     0.021 A 
HETATM    5  C   UNL     1     -41.707   9.968  -0.237  1.00  0.00     0.045 A 
HETATM    6  C   UNL     1     -40.117   8.369  -1.320  1.00  0.00     0.062 A 
HETATM    7  C   UNL     1     -38.825   8.137  -1.820  1.00  0.00     0.074 A 
HETATM    8  C   UNL     1     -37.846   9.095  -1.513  1.00  0.00     0.107 A 
HETATM    9  N   UNL     1     -38.063  10.204  -0.841  1.00  0.00    -0.364 N 
ATOM     10  HN  UNL     1     -37.297  10.844  -0.631  1.00  0.00     0.165 HD
HETATM   11  C   UNL     1     -41.921  11.174   0.404  1.00  0.00     0.028 A 
ENDROOT
BRANCH   6  12
HETATM   12  N   UNL     1     -41.103   7.407  -1.502  1.00  0.00    -0.355 N 
ATOM     13  HN  UNL     1     -41.243   6.735  -0.749  1.00  0.00     0.166 HD
BRANCH  12  14
HETATM   14  C   UNL     1     -41.946   7.278  -2.669  1.00  0.00     0.032 A 
HETATM   15  C   UNL     1     -41.709   7.918  -3.874  1.00  0.00     0.029 A 
HETATM   16  C   UNL     1     -42.621   7.822  -4.911  1.00  0.00     0.002 A 
HETATM   17  C   UNL     1     -43.751   7.058  -4.753  1.00  0.00     0.000 A 
HETATM   18  C   UNL     1     -44.008   6.447  -3.534  1.00  0.00     0.002 A 
HETATM   19  C   UNL     1     -43.112   6.540  -2.494  1.00  0.00     0.029 A 
ENDBRANCH  12  14
ENDBRANCH   6  12
BRANCH   7  20
HETATM   20  C   UNL     1     -38.493   6.922  -2.617  1.00  0.00     0.254 C 
HETATM   21  O   UNL     1     -38.647   5.772  -2.168  1.00  0.00    -0.268 OA
HETATM   22  N   UNL     1     -38.076   7.062  -3.873  1.00  0.00    -0.361 N 
HETATM   23  C   UNL     1     -37.824   5.904  -4.717  1.00  0.00     0.149 C 
ATOM     24  HN  UNL     1     -37.930   7.999  -4.251  1.00  0.00     0.162 HD
ENDBRANCH   7  20
BRANCH  11  25
HETATM   25  N   UNL     1     -43.205  11.540   0.753  1.00  0.00    -0.390 N 
ATOM     26  HN  UNL     1     -44.003  11.120   0.276  1.00  0.00     0.159 HD
BRANCH  25  27
HETATM   27  C   UNL     1     -43.422  12.527   1.802  1.00  0.00     0.119 C 
BRANCH  27  28
HETATM   28  C   UNL     1     -43.543  11.899   3.170  1.00  0.00     0.020 C 
BRANCH  28  29
HETATM   29  C   UNL     1     -44.837  12.157   3.900  1.00  0.00     0.002 C 
BRANCH  29  30
HETATM   30  C   UNL     1     -46.059  11.605   3.183  1.00  0.00    -0.000 C 
BRANCH  30  31
HETATM   31  C   UNL     1     -45.904  10.133   2.811  1.00  0.00    -0.005 C 
HETATM   32  C   UNL     1     -46.397   9.777   1.429  1.00  0.00     0.005 C 
ENDBRANCH  30  31
ENDBRANCH  29  30
ENDBRANCH  28  29
ENDBRANCH  27  28
ENDBRANCH  25  27
ENDBRANCH  11  25
TORSDOF 9
ENDMDL
