REMARK  3 active torsions:
REMARK  status: ('A' for Active; 'I' for Inactive)
REMARK    1  A    between atoms: P_1  and  O_2 
REMARK    2  A    between atoms: O_2  and  C_6 
REMARK    3  A    between atoms: C_6  and  C_7 
ROOT
HETATM    1  O   UNL     1      37.621  36.031 114.826  1.00  0.00    -0.272 OA
ENDROOT
BRANCH   1   2
HETATM    2  P   UNL     1      36.487  35.851 115.959  1.00  0.00     0.422 P 
HETATM    3  O   UNL     1      36.973  36.331 117.302  1.00  0.00    -0.617 OA
HETATM    4  O   UNL     1      35.394  36.729 115.430  1.00  0.00    -0.617 OA
HETATM    5  O   UNL     1      36.111  34.388 116.040  1.00  0.00    -0.617 OA
ENDBRANCH   1   2
BRANCH   1   6
HETATM    6  C   UNL     1      38.925  35.461 114.867  1.00  0.00     0.295 C 
BRANCH   6   7
HETATM    7  C   UNL     1      39.543  35.644 113.500  1.00  0.00     0.198 C 
HETATM    8  O   UNL     1      40.037  34.676 112.909  1.00  0.00    -0.646 OA
HETATM    9  O   UNL     1      39.543  36.742 112.916  1.00  0.00    -0.646 OA
ENDBRANCH   6   7
ENDBRANCH   1   6
TORSDOF 3
