REMARK  6 active torsions:
REMARK  status: ('A' for Active; 'I' for Inactive)
REMARK    1  A    between atoms: P_1  and  O_2 
REMARK    2  A    between atoms: P_1  and  O_4 
REMARK    3  A    between atoms: P_1  and  O_5 
REMARK    4  A    between atoms: O_2  and  C_6 
REMARK    5  A    between atoms: C_6  and  C_7 
REMARK    6  A    between atoms: C_7  and  O_9 
ROOT
HETATM    1  P   UNL     1      -0.909  -0.334   0.857  1.00  0.00     0.391 P 
HETATM    2  O   UNL     1      -1.445   0.762   1.751  1.00  0.00    -0.632 OA
ENDROOT
BRANCH   1   3
HETATM    3  O   UNL     1       0.777  -0.161   0.664  1.00  0.00    -0.287 OA
BRANCH   3   4
HETATM    4  C   UNL     1       1.025   1.052  -0.004  1.00  0.00     0.290 C 
BRANCH   4   5
HETATM    5  C   UNL     1       2.499   1.220  -0.163  1.00  0.00     0.165 C 
HETATM    6  O   UNL     1       3.176   1.759   0.753  1.00  0.00    -0.648 OA
BRANCH   5   7
HETATM    7  O   UNL     1       3.133   0.734  -1.302  1.00  0.00    -0.775 OA
HETATM    8  H   UNL     1       4.136   0.825  -1.417  1.00  0.00     0.167 HD
ENDBRANCH   5   7
ENDBRANCH   4   5
ENDBRANCH   3   4
ENDBRANCH   1   3
BRANCH   1   9
HETATM    9  O   UNL     1      -1.230  -1.835   1.569  1.00  0.00    -0.307 OA
HETATM   10  H   UNL     1      -0.687  -1.843   2.397  1.00  0.00     0.222 HD
ENDBRANCH   1   9
BRANCH   1  11
HETATM   11  O   UNL     1      -1.683  -0.263  -0.647  1.00  0.00    -0.307 OA
HETATM   12  H   UNL     1      -1.289  -1.007  -1.168  1.00  0.00     0.222 HD
ENDBRANCH   1  11
TORSDOF 6
