MODEL 1
REMARK VINA RESULT:   -10.762      0.000      0.000
REMARK INTER + INTRA:         -14.026
REMARK INTER:                 -13.907
REMARK INTRA:                  -0.119
REMARK UNBOUND:                -0.119
REMARK  5 active torsions:
REMARK  status: ('A' for Active; 'I' for Inactive)
REMARK    1  A    between atoms: C_4  and  C_8 
REMARK    2  A    between atoms: C_5  and  C_7 
REMARK    3  A    between atoms: C_9  and  N_14 
REMARK    4  A    between atoms: N_12  and  N_14 
REMARK    5  A    between atoms: C_17  and  C_20 
ROOT
HETATM    1  N   UNL     1      27.584 -22.489  23.703  1.00  0.00    -0.276 N 
HETATM    2  C   UNL     1      27.439 -23.450  24.821  1.00  0.00     0.180 C 
ENDROOT
BRANCH   1   3
HETATM    3  C   UNL     1      26.615 -22.329  22.765  1.00  0.00     0.165 A 
HETATM    4  N   UNL     1      25.469 -23.012  22.780  1.00  0.00    -0.334 N 
HETATM    5  C   UNL     1      24.678 -22.769  21.690  1.00  0.00     0.052 A 
ATOM      6  HN  UNL     1      25.209 -23.653  23.529  1.00  0.00     0.168 HD
HETATM    7  C   UNL     1      25.298 -21.892  20.824  1.00  0.00     0.083 A 
HETATM    8  S   UNL     1      26.830 -21.373  21.371  1.00  0.00    -0.062 SA
BRANCH   5   9
HETATM    9  C   UNL     1      23.418 -23.499  21.444  1.00  0.00     0.013 A 
HETATM   10  C   UNL     1      22.356 -23.526  22.302  1.00  0.00     0.046 A 
HETATM   11 CL   UNL     1      22.386 -22.501  23.729  1.00  0.00    -0.083 Cl
HETATM   12  C   UNL     1      21.208 -24.283  22.062  1.00  0.00     0.025 A 
HETATM   13  C   UNL     1      21.192 -25.061  20.922  1.00  0.00     0.002 A 
HETATM   14  C   UNL     1      22.269 -25.051  20.038  1.00  0.00     0.001 A 
HETATM   15  C   UNL     1      23.401 -24.322  20.298  1.00  0.00     0.015 A 
ENDBRANCH   5   9
ENDBRANCH   1   3
BRANCH   1  16
HETATM   16  N   UNL     1      28.842 -22.069  23.334  1.00  0.00    -0.307 N 
HETATM   17  C   UNL     1      29.870 -22.457  23.914  1.00  0.00     0.119 C 
ATOM     18  HN  UNL     1      28.933 -21.415  22.557  1.00  0.00     0.186 HD
BRANCH  17  19
HETATM   19  C   UNL     1      31.206 -21.966  23.555  1.00  0.00    -0.002 A 
HETATM   20  C   UNL     1      31.910 -21.117  24.378  1.00  0.00     0.052 A 
HETATM   21  C   UNL     1      33.157 -20.673  23.955  1.00  0.00     0.019 A 
HETATM   22  C   UNL     1      33.716 -21.102  22.757  1.00  0.00     0.001 A 
HETATM   23  C   UNL     1      33.012 -21.983  21.952  1.00  0.00     0.001 A 
HETATM   24  C   UNL     1      31.784 -22.411  22.362  1.00  0.00     0.014 A 
BRANCH  20  25
HETATM   25  C   UNL     1      31.391 -20.606  25.693  1.00  0.00     0.210 C 
HETATM   26  O   UNL     1      31.734 -19.409  26.100  1.00  0.00    -0.644 OA
HETATM   27  O   UNL     1      30.654 -21.302  26.429  1.00  0.00    -0.644 OA
ENDBRANCH  20  25
ENDBRANCH  17  19
ENDBRANCH   1  16
TORSDOF 5
ENDMDL
MODEL 2
REMARK VINA RESULT:   -10.280      1.931      2.197
REMARK INTER + INTRA:         -13.404
REMARK INTER:                 -13.050
REMARK INTRA:                  -0.354
REMARK UNBOUND:                -0.119
REMARK  5 active torsions:
REMARK  status: ('A' for Active; 'I' for Inactive)
REMARK    1  A    between atoms: C_4  and  C_8 
REMARK    2  A    between atoms: C_5  and  C_7 
REMARK    3  A    between atoms: C_9  and  N_14 
REMARK    4  A    between atoms: N_12  and  N_14 
REMARK    5  A    between atoms: C_17  and  C_20 
ROOT
HETATM    1  N   UNL     1      27.080 -23.506  24.593  1.00  0.00    -0.276 N 
HETATM    2  C   UNL     1      27.232 -23.158  26.025  1.00  0.00     0.180 C 
ENDROOT
BRANCH   1   3
HETATM    3  C   UNL     1      26.086 -24.320  24.155  1.00  0.00     0.165 A 
HETATM    4  N   UNL     1      25.075 -23.892  23.398  1.00  0.00    -0.334 N 
HETATM    5  C   UNL     1      24.134 -24.855  23.153  1.00  0.00     0.052 A 
ATOM      6  HN  UNL     1      25.010 -22.940  23.036  1.00  0.00     0.168 HD
HETATM    7  C   UNL     1      24.461 -26.031  23.795  1.00  0.00     0.083 A 
HETATM    8  S   UNL     1      25.923 -25.936  24.673  1.00  0.00    -0.062 SA
BRANCH   5   9
HETATM    9  C   UNL     1      22.877 -24.571  22.430  1.00  0.00     0.013 A 
HETATM   10  C   UNL     1      21.784 -23.968  22.981  1.00  0.00     0.046 A 
HETATM   11 CL   UNL     1      21.898 -23.319  24.610  1.00  0.00    -0.083 Cl
HETATM   12  C   UNL     1      20.590 -23.778  22.282  1.00  0.00     0.025 A 
HETATM   13  C   UNL     1      20.530 -24.271  20.994  1.00  0.00     0.002 A 
HETATM   14  C   UNL     1      21.633 -24.895  20.416  1.00  0.00     0.001 A 
HETATM   15  C   UNL     1      22.791 -25.097  21.123  1.00  0.00     0.015 A 
ENDBRANCH   5   9
ENDBRANCH   1   3
BRANCH   1  16
HETATM   16  N   UNL     1      28.162 -23.385  23.752  1.00  0.00    -0.307 N 
HETATM   17  C   UNL     1      29.047 -22.530  23.924  1.00  0.00     0.119 C 
ATOM     18  HN  UNL     1      28.240 -24.020  22.958  1.00  0.00     0.186 HD
BRANCH  17  19
HETATM   19  C   UNL     1      30.173 -22.367  22.995  1.00  0.00    -0.002 A 
HETATM   20  C   UNL     1      31.434 -22.036  23.438  1.00  0.00     0.052 A 
HETATM   21  C   UNL     1      32.440 -21.871  22.494  1.00  0.00     0.019 A 
HETATM   22  C   UNL     1      32.210 -22.075  21.138  1.00  0.00     0.001 A 
HETATM   23  C   UNL     1      30.944 -22.439  20.708  1.00  0.00     0.001 A 
HETATM   24  C   UNL     1      29.954 -22.592  21.633  1.00  0.00     0.014 A 
BRANCH  20  25
HETATM   25  C   UNL     1      31.779 -21.803  24.881  1.00  0.00     0.210 C 
HETATM   26  O   UNL     1      32.440 -20.724  25.220  1.00  0.00    -0.644 OA
HETATM   27  O   UNL     1      31.473 -22.625  25.776  1.00  0.00    -0.644 OA
ENDBRANCH  20  25
ENDBRANCH  17  19
ENDBRANCH   1  16
TORSDOF 5
ENDMDL
MODEL 3
REMARK VINA RESULT:   -10.139      1.845      2.084
REMARK INTER + INTRA:         -13.221
REMARK INTER:                 -12.808
REMARK INTRA:                  -0.413
REMARK UNBOUND:                -0.119
REMARK  5 active torsions:
REMARK  status: ('A' for Active; 'I' for Inactive)
REMARK    1  A    between atoms: C_4  and  C_8 
REMARK    2  A    between atoms: C_5  and  C_7 
REMARK    3  A    between atoms: C_9  and  N_14 
REMARK    4  A    between atoms: N_12  and  N_14 
REMARK    5  A    between atoms: C_17  and  C_20 
ROOT
HETATM    1  N   UNL     1      28.196 -22.070  24.563  1.00  0.00    -0.276 N 
HETATM    2  C   UNL     1      28.385 -22.468  25.977  1.00  0.00     0.180 C 
ENDROOT
BRANCH   1   3
HETATM    3  C   UNL     1      27.096 -22.436  23.856  1.00  0.00     0.165 A 
HETATM    4  N   UNL     1      26.235 -23.363  24.280  1.00  0.00    -0.334 N 
HETATM    5  C   UNL     1      25.253 -23.649  23.370  1.00  0.00     0.052 A 
ATOM      6  HN  UNL     1      26.302 -23.814  25.192  1.00  0.00     0.168 HD
HETATM    7  C   UNL     1      25.432 -22.917  22.215  1.00  0.00     0.083 A 
HETATM    8  S   UNL     1      26.791 -21.885  22.273  1.00  0.00    -0.062 SA
BRANCH   5   9
HETATM    9  C   UNL     1      24.260 -24.721  23.584  1.00  0.00     0.013 A 
HETATM   10  C   UNL     1      22.916 -24.521  23.710  1.00  0.00     0.046 A 
HETATM   11 CL   UNL     1      22.264 -22.913  23.439  1.00  0.00    -0.083 Cl
HETATM   12  C   UNL     1      22.018 -25.557  23.977  1.00  0.00     0.025 A 
HETATM   13  C   UNL     1      22.547 -26.818  24.160  1.00  0.00     0.002 A 
HETATM   14  C   UNL     1      23.917 -27.041  24.042  1.00  0.00     0.001 A 
HETATM   15  C   UNL     1      24.791 -26.011  23.803  1.00  0.00     0.015 A 
ENDBRANCH   5   9
ENDBRANCH   1   3
BRANCH   1  16
HETATM   16  N   UNL     1      29.291 -21.711  23.811  1.00  0.00    -0.307 N 
HETATM   17  C   UNL     1      30.382 -22.299  23.900  1.00  0.00     0.119 C 
ATOM     18  HN  UNL     1      29.204 -20.933  23.158  1.00  0.00     0.186 HD
BRANCH  17  19
HETATM   19  C   UNL     1      31.565 -21.880  23.138  1.00  0.00    -0.002 A 
HETATM   20  C   UNL     1      32.533 -21.074  23.691  1.00  0.00     0.052 A 
HETATM   21  C   UNL     1      33.609 -20.697  22.895  1.00  0.00     0.019 A 
HETATM   22  C   UNL     1      33.745 -21.151  21.588  1.00  0.00     0.001 A 
HETATM   23  C   UNL     1      32.779 -21.989  21.053  1.00  0.00     0.001 A 
HETATM   24  C   UNL     1      31.718 -22.351  21.830  1.00  0.00     0.014 A 
BRANCH  20  25
HETATM   25  C   UNL     1      32.477 -20.541  25.094  1.00  0.00     0.210 C 
HETATM   26  O   UNL     1      32.414 -21.379  26.100  1.00  0.00    -0.644 OA
HETATM   27  O   UNL     1      32.464 -19.312  25.336  1.00  0.00    -0.644 OA
ENDBRANCH  20  25
ENDBRANCH  17  19
ENDBRANCH   1  16
TORSDOF 5
ENDMDL
MODEL 4
REMARK VINA RESULT:   -10.049      3.670      9.065
REMARK INTER + INTRA:         -13.105
REMARK INTER:                 -12.496
REMARK INTRA:                  -0.609
REMARK UNBOUND:                -0.119
REMARK  5 active torsions:
REMARK  status: ('A' for Active; 'I' for Inactive)
REMARK    1  A    between atoms: C_4  and  C_8 
REMARK    2  A    between atoms: C_5  and  C_7 
REMARK    3  A    between atoms: C_9  and  N_14 
REMARK    4  A    between atoms: N_12  and  N_14 
REMARK    5  A    between atoms: C_17  and  C_20 
ROOT
HETATM    1  N   UNL     1      25.620 -24.765  23.841  1.00  0.00    -0.276 N 
HETATM    2  C   UNL     1      26.012 -25.810  24.814  1.00  0.00     0.180 C 
ENDROOT
BRANCH   1   3
HETATM    3  C   UNL     1      26.481 -23.791  23.450  1.00  0.00     0.165 A 
HETATM    4  N   UNL     1      27.758 -23.752  23.834  1.00  0.00    -0.334 N 
HETATM    5  C   UNL     1      28.420 -22.634  23.405  1.00  0.00     0.052 A 
ATOM      6  HN  UNL     1      28.197 -24.483  24.392  1.00  0.00     0.168 HD
HETATM    7  C   UNL     1      27.571 -21.803  22.704  1.00  0.00     0.083 A 
HETATM    8  S   UNL     1      25.983 -22.417  22.574  1.00  0.00    -0.062 SA
BRANCH   5   9
HETATM    9  C   UNL     1      29.809 -22.330  23.807  1.00  0.00     0.013 A 
HETATM   10  C   UNL     1      30.172 -21.812  25.017  1.00  0.00     0.046 A 
HETATM   11 CL   UNL     1      28.953 -21.635  26.269  1.00  0.00    -0.083 Cl
HETATM   12  C   UNL     1      31.490 -21.477  25.332  1.00  0.00     0.025 A 
HETATM   13  C   UNL     1      32.438 -21.648  24.344  1.00  0.00     0.002 A 
HETATM   14  C   UNL     1      32.085 -22.169  23.101  1.00  0.00     0.001 A 
HETATM   15  C   UNL     1      30.783 -22.471  22.795  1.00  0.00     0.015 A 
ENDBRANCH   5   9
ENDBRANCH   1   3
BRANCH   1  16
HETATM   16  N   UNL     1      24.286 -24.490  23.648  1.00  0.00    -0.307 N 
HETATM   17  C   UNL     1      23.540 -25.235  22.991  1.00  0.00     0.119 C 
ATOM     18  HN  UNL     1      23.895 -23.643  24.060  1.00  0.00     0.186 HD
BRANCH  17  19
HETATM   19  C   UNL     1      22.130 -24.913  22.740  1.00  0.00    -0.002 A 
HETATM   20  C   UNL     1      21.662 -24.651  21.472  1.00  0.00     0.052 A 
HETATM   21  C   UNL     1      20.319 -24.326  21.321  1.00  0.00     0.019 A 
HETATM   22  C   UNL     1      19.446 -24.305  22.403  1.00  0.00     0.001 A 
HETATM   23  C   UNL     1      19.923 -24.602  23.670  1.00  0.00     0.001 A 
HETATM   24  C   UNL     1      21.242 -24.912  23.820  1.00  0.00     0.014 A 
BRANCH  20  25
HETATM   25  C   UNL     1      22.526 -24.657  20.244  1.00  0.00     0.210 C 
HETATM   26  O   UNL     1      23.444 -23.734  20.097  1.00  0.00    -0.644 OA
HETATM   27  O   UNL     1      22.382 -25.509  19.337  1.00  0.00    -0.644 OA
ENDBRANCH  20  25
ENDBRANCH  17  19
ENDBRANCH   1  16
TORSDOF 5
ENDMDL
MODEL 5
REMARK VINA RESULT:    -9.980      3.716      9.202
REMARK INTER + INTRA:         -13.017
REMARK INTER:                 -13.156
REMARK INTRA:                   0.140
REMARK UNBOUND:                -0.119
REMARK  5 active torsions:
REMARK  status: ('A' for Active; 'I' for Inactive)
REMARK    1  A    between atoms: C_4  and  C_8 
REMARK    2  A    between atoms: C_5  and  C_7 
REMARK    3  A    between atoms: C_9  and  N_14 
REMARK    4  A    between atoms: N_12  and  N_14 
REMARK    5  A    between atoms: C_17  and  C_20 
ROOT
HETATM    1  N   UNL     1      26.100 -22.187  22.150  1.00  0.00    -0.276 N 
HETATM    2  C   UNL     1      26.260 -21.539  20.827  1.00  0.00     0.180 C 
ENDROOT
BRANCH   1   3
HETATM    3  C   UNL     1      27.154 -22.380  22.984  1.00  0.00     0.165 A 
HETATM    4  N   UNL     1      28.383 -21.935  22.720  1.00  0.00    -0.334 N 
HETATM    5  C   UNL     1      29.313 -22.325  23.645  1.00  0.00     0.052 A 
ATOM      6  HN  UNL     1      28.608 -21.361  21.907  1.00  0.00     0.168 HD
HETATM    7  C   UNL     1      28.735 -23.122  24.611  1.00  0.00     0.083 A 
HETATM    8  S   UNL     1      27.062 -23.366  24.372  1.00  0.00    -0.062 SA
BRANCH   5   9
HETATM    9  C   UNL     1      30.754 -22.039  23.492  1.00  0.00     0.013 A 
HETATM   10  C   UNL     1      31.453 -22.173  22.326  1.00  0.00     0.046 A 
HETATM   11 CL   UNL     1      30.581 -22.547  20.848  1.00  0.00    -0.083 Cl
HETATM   12  C   UNL     1      32.829 -21.956  22.240  1.00  0.00     0.025 A 
HETATM   13  C   UNL     1      33.492 -21.637  23.408  1.00  0.00     0.002 A 
HETATM   14  C   UNL     1      32.797 -21.502  24.608  1.00  0.00     0.001 A 
HETATM   15  C   UNL     1      31.449 -21.741  24.684  1.00  0.00     0.015 A 
ENDBRANCH   5   9
ENDBRANCH   1   3
BRANCH   1  16
HETATM   16  N   UNL     1      25.006 -22.987  22.381  1.00  0.00    -0.307 N 
HETATM   17  C   UNL     1      23.852 -22.640  22.079  1.00  0.00     0.119 C 
ATOM     18  HN  UNL     1      25.147 -23.899  22.815  1.00  0.00     0.186 HD
BRANCH  17  19
HETATM   19  C   UNL     1      22.678 -23.472  22.375  1.00  0.00    -0.002 A 
HETATM   20  C   UNL     1      22.209 -24.405  21.479  1.00  0.00     0.052 A 
HETATM   21  C   UNL     1      21.075 -25.133  21.821  1.00  0.00     0.019 A 
HETATM   22  C   UNL     1      20.445 -24.970  23.049  1.00  0.00     0.001 A 
HETATM   23  C   UNL     1      20.947 -24.050  23.957  1.00  0.00     0.001 A 
HETATM   24  C   UNL     1      22.053 -23.329  23.618  1.00  0.00     0.014 A 
BRANCH  20  25
HETATM   25  C   UNL     1      22.826 -24.656  20.133  1.00  0.00     0.210 C 
HETATM   26  O   UNL     1      22.327 -25.588  19.359  1.00  0.00    -0.644 OA
HETATM   27  O   UNL     1      23.824 -24.014  19.732  1.00  0.00    -0.644 OA
ENDBRANCH  20  25
ENDBRANCH  17  19
ENDBRANCH   1  16
TORSDOF 5
ENDMDL
MODEL 6
REMARK VINA RESULT:    -9.908      4.052      8.977
REMARK INTER + INTRA:         -12.922
REMARK INTER:                 -12.523
REMARK INTRA:                  -0.399
REMARK UNBOUND:                -0.119
REMARK  5 active torsions:
REMARK  status: ('A' for Active; 'I' for Inactive)
REMARK    1  A    between atoms: C_4  and  C_8 
REMARK    2  A    between atoms: C_5  and  C_7 
REMARK    3  A    between atoms: C_9  and  N_14 
REMARK    4  A    between atoms: N_12  and  N_14 
REMARK    5  A    between atoms: C_17  and  C_20 
ROOT
HETATM    1  N   UNL     1      27.002 -22.314  23.170  1.00  0.00    -0.276 N 
HETATM    2  C   UNL     1      26.787 -21.662  21.857  1.00  0.00     0.180 C 
ENDROOT
BRANCH   1   3
HETATM    3  C   UNL     1      28.123 -22.095  23.903  1.00  0.00     0.165 A 
HETATM    4  N   UNL     1      29.314 -21.849  23.355  1.00  0.00    -0.334 N 
HETATM    5  C   UNL     1      30.326 -21.756  24.272  1.00  0.00     0.052 A 
ATOM      6  HN  UNL     1      29.457 -21.740  22.351  1.00  0.00     0.168 HD
HETATM    7  C   UNL     1      29.850 -21.981  25.547  1.00  0.00     0.083 A 
HETATM    8  S   UNL     1      28.171 -22.288  25.596  1.00  0.00    -0.062 SA
BRANCH   5   9
HETATM    9  C   UNL     1      31.741 -21.599  23.880  1.00  0.00     0.013 A 
HETATM   10  C   UNL     1      32.589 -20.659  24.391  1.00  0.00     0.046 A 
HETATM   11 CL   UNL     1      32.045 -19.656  25.727  1.00  0.00    -0.083 Cl
HETATM   12  C   UNL     1      33.902 -20.501  23.944  1.00  0.00     0.025 A 
HETATM   13  C   UNL     1      34.319 -21.316  22.912  1.00  0.00     0.002 A 
HETATM   14  C   UNL     1      33.466 -22.278  22.373  1.00  0.00     0.001 A 
HETATM   15  C   UNL     1      32.171 -22.406  22.804  1.00  0.00     0.015 A 
ENDBRANCH   5   9
ENDBRANCH   1   3
BRANCH   1  16
HETATM   16  N   UNL     1      26.309 -23.463  23.473  1.00  0.00    -0.307 N 
HETATM   17  C   UNL     1      25.114 -23.619  23.174  1.00  0.00     0.119 C 
ATOM     18  HN  UNL     1      26.795 -24.215  23.962  1.00  0.00     0.186 HD
BRANCH  17  19
HETATM   19  C   UNL     1      24.361 -24.823  23.546  1.00  0.00    -0.002 A 
HETATM   20  C   UNL     1      23.009 -24.932  23.313  1.00  0.00     0.052 A 
HETATM   21  C   UNL     1      22.362 -26.093  23.721  1.00  0.00     0.019 A 
HETATM   22  C   UNL     1      23.053 -27.146  24.308  1.00  0.00     0.001 A 
HETATM   23  C   UNL     1      24.421 -27.038  24.508  1.00  0.00     0.001 A 
HETATM   24  C   UNL     1      25.054 -25.895  24.117  1.00  0.00     0.014 A 
BRANCH  20  25
HETATM   25  C   UNL     1      22.180 -23.852  22.678  1.00  0.00     0.210 C 
HETATM   26  O   UNL     1      21.932 -23.900  21.393  1.00  0.00    -0.644 OA
HETATM   27  O   UNL     1      21.734 -22.886  23.340  1.00  0.00    -0.644 OA
ENDBRANCH  20  25
ENDBRANCH  17  19
ENDBRANCH   1  16
TORSDOF 5
ENDMDL
MODEL 7
REMARK VINA RESULT:    -9.702      4.102      8.810
REMARK INTER + INTRA:         -12.656
REMARK INTER:                 -12.449
REMARK INTRA:                  -0.207
REMARK UNBOUND:                -0.119
REMARK  5 active torsions:
REMARK  status: ('A' for Active; 'I' for Inactive)
REMARK    1  A    between atoms: C_4  and  C_8 
REMARK    2  A    between atoms: C_5  and  C_7 
REMARK    3  A    between atoms: C_9  and  N_14 
REMARK    4  A    between atoms: N_12  and  N_14 
REMARK    5  A    between atoms: C_17  and  C_20 
ROOT
HETATM    1  N   UNL     1      26.466 -24.713  24.512  1.00  0.00    -0.276 N 
HETATM    2  C   UNL     1      26.448 -25.700  25.617  1.00  0.00     0.180 C 
ENDROOT
BRANCH   1   3
HETATM    3  C   UNL     1      27.379 -23.710  24.463  1.00  0.00     0.165 A 
HETATM    4  N   UNL     1      28.348 -23.652  23.548  1.00  0.00    -0.334 N 
HETATM    5  C   UNL     1      29.216 -22.612  23.741  1.00  0.00     0.052 A 
ATOM      6  HN  UNL     1      28.434 -24.318  22.780  1.00  0.00     0.168 HD
HETATM    7  C   UNL     1      28.880 -21.900  24.873  1.00  0.00     0.083 A 
HETATM    8  S   UNL     1      27.499 -22.512  25.670  1.00  0.00    -0.062 SA
BRANCH   5   9
HETATM    9  C   UNL     1      30.425 -22.422  22.914  1.00  0.00     0.013 A 
HETATM   10  C   UNL     1      31.660 -22.106  23.404  1.00  0.00     0.046 A 
HETATM   11 CL   UNL     1      31.905 -22.076  25.143  1.00  0.00    -0.083 Cl
HETATM   12  C   UNL     1      32.763 -21.870  22.581  1.00  0.00     0.025 A 
HETATM   13  C   UNL     1      32.556 -21.925  21.218  1.00  0.00     0.002 A 
HETATM   14  C   UNL     1      31.302 -22.240  20.699  1.00  0.00     0.001 A 
HETATM   15  C   UNL     1      30.221 -22.445  21.517  1.00  0.00     0.015 A 
ENDBRANCH   5   9
ENDBRANCH   1   3
BRANCH   1  16
HETATM   16  N   UNL     1      25.328 -24.517  23.764  1.00  0.00    -0.307 N 
HETATM   17  C   UNL     1      24.473 -25.405  23.608  1.00  0.00     0.119 C 
ATOM     18  HN  UNL     1      25.181 -23.610  23.323  1.00  0.00     0.186 HD
BRANCH  17  19
HETATM   19  C   UNL     1      23.286 -25.212  22.765  1.00  0.00    -0.002 A 
HETATM   20  C   UNL     1      22.021 -25.511  23.219  1.00  0.00     0.052 A 
HETATM   21  C   UNL     1      20.951 -25.329  22.351  1.00  0.00     0.019 A 
HETATM   22  C   UNL     1      21.127 -24.816  21.072  1.00  0.00     0.001 A 
HETATM   23  C   UNL     1      22.403 -24.487  20.638  1.00  0.00     0.001 A 
HETATM   24  C   UNL     1      23.454 -24.676  21.486  1.00  0.00     0.014 A 
BRANCH  20  25
HETATM   25  C   UNL     1      21.732 -26.063  24.586  1.00  0.00     0.210 C 
HETATM   26  O   UNL     1      21.993 -27.321  24.842  1.00  0.00    -0.644 OA
HETATM   27  O   UNL     1      21.222 -25.360  25.489  1.00  0.00    -0.644 OA
ENDBRANCH  20  25
ENDBRANCH  17  19
ENDBRANCH   1  16
TORSDOF 5
ENDMDL
MODEL 8
REMARK VINA RESULT:    -9.616      3.701      8.765
REMARK INTER + INTRA:         -12.545
REMARK INTER:                 -12.248
REMARK INTRA:                  -0.297
REMARK UNBOUND:                -0.119
REMARK  5 active torsions:
REMARK  status: ('A' for Active; 'I' for Inactive)
REMARK    1  A    between atoms: C_4  and  C_8 
REMARK    2  A    between atoms: C_5  and  C_7 
REMARK    3  A    between atoms: C_9  and  N_14 
REMARK    4  A    between atoms: N_12  and  N_14 
REMARK    5  A    between atoms: C_17  and  C_20 
ROOT
HETATM    1  N   UNL     1      26.114 -24.825  24.229  1.00  0.00    -0.276 N 
HETATM    2  C   UNL     1      26.305 -26.108  24.945  1.00  0.00     0.180 C 
ENDROOT
BRANCH   1   3
HETATM    3  C   UNL     1      27.050 -23.842  24.259  1.00  0.00     0.165 A 
HETATM    4  N   UNL     1      28.038 -23.750  23.368  1.00  0.00    -0.334 N 
HETATM    5  C   UNL     1      28.925 -22.744  23.641  1.00  0.00     0.052 A 
ATOM      6  HN  UNL     1      28.124 -24.369  22.561  1.00  0.00     0.168 HD
HETATM    7  C   UNL     1      28.582 -22.097  24.809  1.00  0.00     0.083 A 
HETATM    8  S   UNL     1      27.173 -22.725  25.541  1.00  0.00    -0.062 SA
BRANCH   5   9
HETATM    9  C   UNL     1      30.154 -22.533  22.849  1.00  0.00     0.013 A 
HETATM   10  C   UNL     1      31.381 -22.255  23.379  1.00  0.00     0.046 A 
HETATM   11 CL   UNL     1      31.589 -22.308  25.123  1.00  0.00    -0.083 Cl
HETATM   12  C   UNL     1      32.505 -21.996  22.592  1.00  0.00     0.025 A 
HETATM   13  C   UNL     1      32.327 -21.985  21.224  1.00  0.00     0.002 A 
HETATM   14  C   UNL     1      31.081 -22.260  20.664  1.00  0.00     0.001 A 
HETATM   15  C   UNL     1      29.980 -22.489  21.449  1.00  0.00     0.015 A 
ENDBRANCH   5   9
ENDBRANCH   1   3
BRANCH   1  16
HETATM   16  N   UNL     1      24.842 -24.423  23.894  1.00  0.00    -0.307 N 
HETATM   17  C   UNL     1      23.957 -25.227  23.558  1.00  0.00     0.119 C 
ATOM     18  HN  UNL     1      24.618 -23.428  23.922  1.00  0.00     0.186 HD
BRANCH  17  19
HETATM   19  C   UNL     1      22.615 -24.792  23.148  1.00  0.00    -0.002 A 
HETATM   20  C   UNL     1      22.378 -24.255  21.903  1.00  0.00     0.052 A 
HETATM   21  C   UNL     1      21.086 -23.840  21.600  1.00  0.00     0.019 A 
HETATM   22  C   UNL     1      20.039 -23.999  22.500  1.00  0.00     0.001 A 
HETATM   23  C   UNL     1      20.284 -24.571  23.739  1.00  0.00     0.001 A 
HETATM   24  C   UNL     1      21.554 -24.969  24.040  1.00  0.00     0.014 A 
BRANCH  20  25
HETATM   25  C   UNL     1      23.443 -24.051  20.863  1.00  0.00     0.210 C 
HETATM   26  O   UNL     1      23.435 -24.786  19.779  1.00  0.00    -0.644 OA
HETATM   27  O   UNL     1      24.360 -23.210  21.011  1.00  0.00    -0.644 OA
ENDBRANCH  20  25
ENDBRANCH  17  19
ENDBRANCH   1  16
TORSDOF 5
ENDMDL
MODEL 9
REMARK VINA RESULT:    -9.589      2.673      3.714
REMARK INTER + INTRA:         -12.510
REMARK INTER:                 -11.738
REMARK INTRA:                  -0.772
REMARK UNBOUND:                -0.119
REMARK  5 active torsions:
REMARK  status: ('A' for Active; 'I' for Inactive)
REMARK    1  A    between atoms: C_4  and  C_8 
REMARK    2  A    between atoms: C_5  and  C_7 
REMARK    3  A    between atoms: C_9  and  N_14 
REMARK    4  A    between atoms: N_12  and  N_14 
REMARK    5  A    between atoms: C_17  and  C_20 
ROOT
HETATM    1  N   UNL     1      25.027 -22.270  21.403  1.00  0.00    -0.276 N 
HETATM    2  C   UNL     1      24.585 -20.857  21.453  1.00  0.00     0.180 C 
ENDROOT
BRANCH   1   3
HETATM    3  C   UNL     1      24.145 -23.299  21.479  1.00  0.00     0.165 A 
HETATM    4  N   UNL     1      23.824 -23.899  22.626  1.00  0.00    -0.334 N 
HETATM    5  C   UNL     1      22.993 -24.974  22.463  1.00  0.00     0.052 A 
ATOM      6  HN  UNL     1      24.164 -23.586  23.536  1.00  0.00     0.168 HD
HETATM    7  C   UNL     1      22.727 -25.186  21.127  1.00  0.00     0.083 A 
HETATM    8  S   UNL     1      23.489 -24.055  20.099  1.00  0.00    -0.062 SA
BRANCH   5   9
HETATM    9  C   UNL     1      22.600 -25.851  23.585  1.00  0.00     0.013 A 
HETATM   10  C   UNL     1      21.511 -25.651  24.383  1.00  0.00     0.046 A 
HETATM   11 CL   UNL     1      20.381 -24.368  23.978  1.00  0.00    -0.083 Cl
HETATM   12  C   UNL     1      21.212 -26.468  25.476  1.00  0.00     0.025 A 
HETATM   13  C   UNL     1      22.098 -27.487  25.762  1.00  0.00     0.002 A 
HETATM   14  C   UNL     1      23.219 -27.703  24.963  1.00  0.00     0.001 A 
HETATM   15  C   UNL     1      23.514 -26.878  23.907  1.00  0.00     0.015 A 
ENDBRANCH   5   9
ENDBRANCH   1   3
BRANCH   1  16
HETATM   16  N   UNL     1      26.330 -22.580  21.718  1.00  0.00    -0.307 N 
HETATM   17  C   UNL     1      27.176 -21.710  21.984  1.00  0.00     0.119 C 
ATOM     18  HN  UNL     1      26.611 -23.560  21.733  1.00  0.00     0.186 HD
BRANCH  17  19
HETATM   19  C   UNL     1      28.579 -22.039  22.267  1.00  0.00    -0.002 A 
HETATM   20  C   UNL     1      29.003 -22.369  23.534  1.00  0.00     0.052 A 
HETATM   21  C   UNL     1      30.353 -22.640  23.726  1.00  0.00     0.019 A 
HETATM   22  C   UNL     1      31.257 -22.627  22.671  1.00  0.00     0.001 A 
HETATM   23  C   UNL     1      30.812 -22.324  21.393  1.00  0.00     0.001 A 
HETATM   24  C   UNL     1      29.489 -22.049  21.206  1.00  0.00     0.014 A 
BRANCH  20  25
HETATM   25  C   UNL     1      28.099 -22.416  24.733  1.00  0.00     0.210 C 
HETATM   26  O   UNL     1      28.355 -21.649  25.763  1.00  0.00    -0.644 OA
HETATM   27  O   UNL     1      27.114 -23.188  24.789  1.00  0.00    -0.644 OA
ENDBRANCH  20  25
ENDBRANCH  17  19
ENDBRANCH   1  16
TORSDOF 5
ENDMDL
MODEL 10
REMARK VINA RESULT:    -9.439      3.891      8.846
REMARK INTER + INTRA:         -12.317
REMARK INTER:                 -11.963
REMARK INTRA:                  -0.353
REMARK UNBOUND:                -0.119
REMARK  5 active torsions:
REMARK  status: ('A' for Active; 'I' for Inactive)
REMARK    1  A    between atoms: C_4  and  C_8 
REMARK    2  A    between atoms: C_5  and  C_7 
REMARK    3  A    between atoms: C_9  and  N_14 
REMARK    4  A    between atoms: N_12  and  N_14 
REMARK    5  A    between atoms: C_17  and  C_20 
ROOT
HETATM    1  N   UNL     1      26.479 -24.784  24.579  1.00  0.00    -0.276 N 
HETATM    2  C   UNL     1      26.467 -25.873  25.583  1.00  0.00     0.180 C 
ENDROOT
BRANCH   1   3
HETATM    3  C   UNL     1      27.351 -23.746  24.659  1.00  0.00     0.165 A 
HETATM    4  N   UNL     1      28.400 -23.614  23.845  1.00  0.00    -0.334 N 
HETATM    5  C   UNL     1      29.203 -22.552  24.162  1.00  0.00     0.052 A 
ATOM      6  HN  UNL     1      28.585 -24.242  23.063  1.00  0.00     0.168 HD
HETATM    7  C   UNL     1      28.731 -21.903  25.284  1.00  0.00     0.083 A 
HETATM    8  S   UNL     1      27.307 -22.599  25.918  1.00  0.00    -0.062 SA
BRANCH   5   9
HETATM    9  C   UNL     1      30.477 -22.283  23.465  1.00  0.00     0.013 A 
HETATM   10  C   UNL     1      30.649 -22.341  22.112  1.00  0.00     0.046 A 
HETATM   11 CL   UNL     1      29.246 -22.585  21.083  1.00  0.00    -0.083 Cl
HETATM   12  C   UNL     1      31.887 -22.144  21.497  1.00  0.00     0.025 A 
HETATM   13  C   UNL     1      32.973 -21.927  22.321  1.00  0.00     0.002 A 
HETATM   14  C   UNL     1      32.818 -21.871  23.705  1.00  0.00     0.001 A 
HETATM   15  C   UNL     1      31.601 -22.090  24.297  1.00  0.00     0.015 A 
ENDBRANCH   5   9
ENDBRANCH   1   3
BRANCH   1  16
HETATM   16  N   UNL     1      25.357 -24.559  23.815  1.00  0.00    -0.307 N 
HETATM   17  C   UNL     1      24.490 -25.429  23.634  1.00  0.00     0.119 C 
ATOM     18  HN  UNL     1      25.234 -23.644  23.382  1.00  0.00     0.186 HD
BRANCH  17  19
HETATM   19  C   UNL     1      23.320 -25.206  22.774  1.00  0.00    -0.002 A 
HETATM   20  C   UNL     1      22.048 -25.534  23.184  1.00  0.00     0.052 A 
HETATM   21  C   UNL     1      20.996 -25.319  22.301  1.00  0.00     0.019 A 
HETATM   22  C   UNL     1      21.198 -24.745  21.051  1.00  0.00     0.001 A 
HETATM   23  C   UNL     1      22.480 -24.389  20.663  1.00  0.00     0.001 A 
HETATM   24  C   UNL     1      23.513 -24.609  21.525  1.00  0.00     0.014 A 
BRANCH  20  25
HETATM   25  C   UNL     1      21.732 -26.151  24.517  1.00  0.00     0.210 C 
HETATM   26  O   UNL     1      21.218 -25.407  25.466  1.00  0.00    -0.644 OA
HETATM   27  O   UNL     1      21.966 -27.357  24.760  1.00  0.00    -0.644 OA
ENDBRANCH  20  25
ENDBRANCH  17  19
ENDBRANCH   1  16
TORSDOF 5
ENDMDL
MODEL 11
REMARK VINA RESULT:    -9.432      3.504      8.788
REMARK INTER + INTRA:         -12.307
REMARK INTER:                 -11.916
REMARK INTRA:                  -0.391
REMARK UNBOUND:                -0.119
REMARK  5 active torsions:
REMARK  status: ('A' for Active; 'I' for Inactive)
REMARK    1  A    between atoms: C_4  and  C_8 
REMARK    2  A    between atoms: C_5  and  C_7 
REMARK    3  A    between atoms: C_9  and  N_14 
REMARK    4  A    between atoms: N_12  and  N_14 
REMARK    5  A    between atoms: C_17  and  C_20 
ROOT
HETATM    1  N   UNL     1      26.435 -23.810  24.010  1.00  0.00    -0.276 N 
HETATM    2  C   UNL     1      26.879 -24.368  25.309  1.00  0.00     0.180 C 
ENDROOT
BRANCH   1   3
HETATM    3  C   UNL     1      27.276 -23.109  23.208  1.00  0.00     0.165 A 
HETATM    4  N   UNL     1      28.604 -23.216  23.274  1.00  0.00    -0.334 N 
HETATM    5  C   UNL     1      29.261 -22.348  22.445  1.00  0.00     0.052 A 
ATOM      6  HN  UNL     1      29.082 -23.880  23.883  1.00  0.00     0.168 HD
HETATM    7  C   UNL     1      28.365 -21.547  21.770  1.00  0.00     0.083 A 
HETATM    8  S   UNL     1      26.736 -21.883  22.154  1.00  0.00    -0.062 SA
BRANCH   5   9
HETATM    9  C   UNL     1      30.733 -22.218  22.438  1.00  0.00     0.013 A 
HETATM   10  C   UNL     1      31.496 -21.973  23.542  1.00  0.00     0.046 A 
HETATM   11 CL   UNL     1      30.733 -21.972  25.124  1.00  0.00    -0.083 Cl
HETATM   12  C   UNL     1      32.880 -21.791  23.482  1.00  0.00     0.025 A 
HETATM   13  C   UNL     1      33.465 -21.822  22.232  1.00  0.00     0.002 A 
HETATM   14  C   UNL     1      32.701 -22.064  21.092  1.00  0.00     0.001 A 
HETATM   15  C   UNL     1      31.340 -22.218  21.164  1.00  0.00     0.015 A 
ENDBRANCH   5   9
ENDBRANCH   1   3
BRANCH   1  16
HETATM   16  N   UNL     1      25.093 -23.605  23.788  1.00  0.00    -0.307 N 
HETATM   17  C   UNL     1      24.337 -24.509  23.395  1.00  0.00     0.119 C 
ATOM     18  HN  UNL     1      24.705 -22.676  23.952  1.00  0.00     0.186 HD
BRANCH  17  19
HETATM   19  C   UNL     1      22.917 -24.276  23.106  1.00  0.00    -0.002 A 
HETATM   20  C   UNL     1      22.462 -24.083  21.821  1.00  0.00     0.052 A 
HETATM   21  C   UNL     1      21.107 -23.839  21.632  1.00  0.00     0.019 A 
HETATM   22  C   UNL     1      20.211 -23.832  22.695  1.00  0.00     0.001 A 
HETATM   23  C   UNL     1      20.676 -24.061  23.981  1.00  0.00     0.001 A 
HETATM   24  C   UNL     1      22.008 -24.290  24.168  1.00  0.00     0.014 A 
BRANCH  20  25
HETATM   25  C   UNL     1      23.352 -24.079  20.611  1.00  0.00     0.210 C 
HETATM   26  O   UNL     1      23.363 -25.120  19.816  1.00  0.00    -0.644 OA
HETATM   27  O   UNL     1      24.108 -23.115  20.348  1.00  0.00    -0.644 OA
ENDBRANCH  20  25
ENDBRANCH  17  19
ENDBRANCH   1  16
TORSDOF 5
ENDMDL
MODEL 12
REMARK VINA RESULT:    -9.422      3.436      8.769
REMARK INTER + INTRA:         -12.295
REMARK INTER:                 -12.172
REMARK INTRA:                  -0.123
REMARK UNBOUND:                -0.119
REMARK  5 active torsions:
REMARK  status: ('A' for Active; 'I' for Inactive)
REMARK    1  A    between atoms: C_4  and  C_8 
REMARK    2  A    between atoms: C_5  and  C_7 
REMARK    3  A    between atoms: C_9  and  N_14 
REMARK    4  A    between atoms: N_12  and  N_14 
REMARK    5  A    between atoms: C_17  and  C_20 
ROOT
HETATM    1  N   UNL     1      26.254 -22.252  22.353  1.00  0.00    -0.276 N 
HETATM    2  C   UNL     1      26.198 -22.027  20.890  1.00  0.00     0.180 C 
ENDROOT
BRANCH   1   3
HETATM    3  C   UNL     1      27.434 -22.361  23.016  1.00  0.00     0.165 A 
HETATM    4  N   UNL     1      28.609 -22.048  22.467  1.00  0.00    -0.334 N 
HETATM    5  C   UNL     1      29.678 -22.326  23.275  1.00  0.00     0.052 A 
ATOM      6  HN  UNL     1      28.701 -21.641  21.536  1.00  0.00     0.168 HD
HETATM    7  C   UNL     1      29.258 -22.903  24.456  1.00  0.00     0.083 A 
HETATM    8  S   UNL     1      27.563 -23.079  24.556  1.00  0.00    -0.062 SA
BRANCH   5   9
HETATM    9  C   UNL     1      31.076 -22.163  22.827  1.00  0.00     0.013 A 
HETATM   10  C   UNL     1      32.120 -21.838  23.644  1.00  0.00     0.046 A 
HETATM   11 CL   UNL     1      31.855 -21.763  25.379  1.00  0.00    -0.083 Cl
HETATM   12  C   UNL     1      33.416 -21.629  23.168  1.00  0.00     0.025 A 
HETATM   13  C   UNL     1      33.610 -21.719  21.805  1.00  0.00     0.002 A 
HETATM   14  C   UNL     1      32.554 -22.043  20.955  1.00  0.00     0.001 A 
HETATM   15  C   UNL     1      31.282 -22.223  21.432  1.00  0.00     0.015 A 
ENDBRANCH   5   9
ENDBRANCH   1   3
BRANCH   1  16
HETATM   16  N   UNL     1      25.161 -22.785  22.995  1.00  0.00    -0.307 N 
HETATM   17  C   UNL     1      24.327 -23.496  22.411  1.00  0.00     0.119 C 
ATOM     18  HN  UNL     1      25.031 -22.589  23.988  1.00  0.00     0.186 HD
BRANCH  17  19
HETATM   19  C   UNL     1      23.131 -24.019  23.085  1.00  0.00    -0.002 A 
HETATM   20  C   UNL     1      23.125 -25.255  23.690  1.00  0.00     0.052 A 
HETATM   21  C   UNL     1      21.946 -25.693  24.282  1.00  0.00     0.019 A 
HETATM   22  C   UNL     1      20.806 -24.898  24.311  1.00  0.00     0.001 A 
HETATM   23  C   UNL     1      20.834 -23.642  23.726  1.00  0.00     0.001 A 
HETATM   24  C   UNL     1      21.988 -23.217  23.137  1.00  0.00     0.014 A 
BRANCH  20  25
HETATM   25  C   UNL     1      24.309 -26.180  23.716  1.00  0.00     0.210 C 
HETATM   26  O   UNL     1      25.462 -25.739  24.157  1.00  0.00    -0.644 OA
HETATM   27  O   UNL     1      24.236 -27.361  23.305  1.00  0.00    -0.644 OA
ENDBRANCH  20  25
ENDBRANCH  17  19
ENDBRANCH   1  16
TORSDOF 5
ENDMDL
MODEL 13
REMARK VINA RESULT:    -9.408      2.773      3.573
REMARK INTER + INTRA:         -12.277
REMARK INTER:                 -11.763
REMARK INTRA:                  -0.514
REMARK UNBOUND:                -0.119
REMARK  5 active torsions:
REMARK  status: ('A' for Active; 'I' for Inactive)
REMARK    1  A    between atoms: C_4  and  C_8 
REMARK    2  A    between atoms: C_5  and  C_7 
REMARK    3  A    between atoms: C_9  and  N_14 
REMARK    4  A    between atoms: N_12  and  N_14 
REMARK    5  A    between atoms: C_17  and  C_20 
ROOT
HETATM    1  N   UNL     1      29.032 -22.668  22.622  1.00  0.00    -0.276 N 
HETATM    2  C   UNL     1      28.689 -22.454  21.197  1.00  0.00     0.180 C 
ENDROOT
BRANCH   1   3
HETATM    3  C   UNL     1      28.141 -23.192  23.502  1.00  0.00     0.165 A 
HETATM    4  N   UNL     1      27.132 -23.983  23.133  1.00  0.00    -0.334 N 
HETATM    5  C   UNL     1      26.298 -24.318  24.165  1.00  0.00     0.052 A 
ATOM      6  HN  UNL     1      26.995 -24.305  22.175  1.00  0.00     0.168 HD
HETATM    7  C   UNL     1      26.703 -23.711  25.335  1.00  0.00     0.083 A 
HETATM    8  S   UNL     1      28.105 -22.754  25.149  1.00  0.00    -0.062 SA
BRANCH   5   9
HETATM    9  C   UNL     1      25.056 -25.092  23.963  1.00  0.00     0.013 A 
HETATM   10  C   UNL     1      23.876 -24.567  23.522  1.00  0.00     0.046 A 
HETATM   11 CL   UNL     1      23.834 -22.894  22.988  1.00  0.00    -0.083 Cl
HETATM   12  C   UNL     1      22.707 -25.321  23.408  1.00  0.00     0.025 A 
HETATM   13  C   UNL     1      22.767 -26.641  23.807  1.00  0.00     0.002 A 
HETATM   14  C   UNL     1      23.961 -27.194  24.266  1.00  0.00     0.001 A 
HETATM   15  C   UNL     1      25.096 -26.435  24.396  1.00  0.00     0.015 A 
ENDBRANCH   5   9
ENDBRANCH   1   3
BRANCH   1  16
HETATM   16  N   UNL     1      30.069 -21.958  23.180  1.00  0.00    -0.307 N 
HETATM   17  C   UNL     1      31.259 -22.263  22.999  1.00  0.00     0.119 C 
ATOM     18  HN  UNL     1      29.853 -21.150  23.764  1.00  0.00     0.186 HD
BRANCH  17  19
HETATM   19  C   UNL     1      32.364 -21.537  23.638  1.00  0.00    -0.002 A 
HETATM   20  C   UNL     1      33.604 -21.441  23.049  1.00  0.00     0.052 A 
HETATM   21  C   UNL     1      34.606 -20.761  23.731  1.00  0.00     0.019 A 
HETATM   22  C   UNL     1      34.369 -20.148  24.956  1.00  0.00     0.001 A 
HETATM   23  C   UNL     1      33.106 -20.224  25.524  1.00  0.00     0.001 A 
HETATM   24  C   UNL     1      32.126 -20.899  24.859  1.00  0.00     0.014 A 
BRANCH  20  25
HETATM   25  C   UNL     1      33.952 -22.064  21.727  1.00  0.00     0.210 C 
HETATM   26  O   UNL     1      34.883 -22.984  21.673  1.00  0.00    -0.644 OA
HETATM   27  O   UNL     1      33.393 -21.713  20.662  1.00  0.00    -0.644 OA
ENDBRANCH  20  25
ENDBRANCH  17  19
ENDBRANCH   1  16
TORSDOF 5
ENDMDL
MODEL 14
REMARK VINA RESULT:    -9.340      2.991      4.108
REMARK INTER + INTRA:         -12.189
REMARK INTER:                 -11.646
REMARK INTRA:                  -0.543
REMARK UNBOUND:                -0.119
REMARK  5 active torsions:
REMARK  status: ('A' for Active; 'I' for Inactive)
REMARK    1  A    between atoms: C_4  and  C_8 
REMARK    2  A    between atoms: C_5  and  C_7 
REMARK    3  A    between atoms: C_9  and  N_14 
REMARK    4  A    between atoms: N_12  and  N_14 
REMARK    5  A    between atoms: C_17  and  C_20 
ROOT
HETATM    1  N   UNL     1      25.239 -22.282  21.570  1.00  0.00    -0.276 N 
HETATM    2  C   UNL     1      24.955 -20.975  20.931  1.00  0.00     0.180 C 
ENDROOT
BRANCH   1   3
HETATM    3  C   UNL     1      24.304 -23.264  21.636  1.00  0.00     0.165 A 
HETATM    4  N   UNL     1      23.980 -23.885  22.771  1.00  0.00    -0.334 N 
HETATM    5  C   UNL     1      23.088 -24.908  22.595  1.00  0.00     0.052 A 
ATOM      6  HN  UNL     1      24.361 -23.623  23.681  1.00  0.00     0.168 HD
HETATM    7  C   UNL     1      22.776 -25.059  21.261  1.00  0.00     0.083 A 
HETATM    8  S   UNL     1      23.572 -23.935  20.251  1.00  0.00    -0.062 SA
BRANCH   5   9
HETATM    9  C   UNL     1      22.677 -25.801  23.698  1.00  0.00     0.013 A 
HETATM   10  C   UNL     1      21.626 -25.567  24.537  1.00  0.00     0.046 A 
HETATM   11 CL   UNL     1      20.563 -24.206  24.213  1.00  0.00    -0.083 Cl
HETATM   12  C   UNL     1      21.312 -26.404  25.609  1.00  0.00     0.025 A 
HETATM   13  C   UNL     1      22.143 -27.483  25.831  1.00  0.00     0.002 A 
HETATM   14  C   UNL     1      23.225 -27.735  24.989  1.00  0.00     0.001 A 
HETATM   15  C   UNL     1      23.537 -26.891  23.954  1.00  0.00     0.015 A 
ENDBRANCH   5   9
ENDBRANCH   1   3
BRANCH   1  16
HETATM   16  N   UNL     1      26.267 -22.379  22.478  1.00  0.00    -0.307 N 
HETATM   17  C   UNL     1      27.363 -21.821  22.305  1.00  0.00     0.119 C 
ATOM     18  HN  UNL     1      26.125 -22.930  23.324  1.00  0.00     0.186 HD
BRANCH  17  19
HETATM   19  C   UNL     1      28.479 -21.970  23.248  1.00  0.00    -0.002 A 
HETATM   20  C   UNL     1      29.728 -22.372  22.833  1.00  0.00     0.052 A 
HETATM   21  C   UNL     1      30.724 -22.518  23.792  1.00  0.00     0.019 A 
HETATM   22  C   UNL     1      30.497 -22.225  25.131  1.00  0.00     0.001 A 
HETATM   23  C   UNL     1      29.243 -21.789  25.532  1.00  0.00     0.001 A 
HETATM   24  C   UNL     1      28.263 -21.656  24.593  1.00  0.00     0.014 A 
BRANCH  20  25
HETATM   25  C   UNL     1      30.070 -22.703  21.409  1.00  0.00     0.210 C 
HETATM   26  O   UNL     1      31.035 -22.051  20.809  1.00  0.00    -0.644 OA
HETATM   27  O   UNL     1      29.442 -23.574  20.763  1.00  0.00    -0.644 OA
ENDBRANCH  20  25
ENDBRANCH  17  19
ENDBRANCH   1  16
TORSDOF 5
ENDMDL
MODEL 15
REMARK VINA RESULT:    -9.264      3.783      8.779
REMARK INTER + INTRA:         -12.090
REMARK INTER:                 -11.952
REMARK INTRA:                  -0.138
REMARK UNBOUND:                -0.119
REMARK  5 active torsions:
REMARK  status: ('A' for Active; 'I' for Inactive)
REMARK    1  A    between atoms: C_4  and  C_8 
REMARK    2  A    between atoms: C_5  and  C_7 
REMARK    3  A    between atoms: C_9  and  N_14 
REMARK    4  A    between atoms: N_12  and  N_14 
REMARK    5  A    between atoms: C_17  and  C_20 
ROOT
HETATM    1  N   UNL     1      26.890 -23.411  24.254  1.00  0.00    -0.276 N 
HETATM    2  C   UNL     1      27.208 -23.369  25.700  1.00  0.00     0.180 C 
ENDROOT
BRANCH   1   3
HETATM    3  C   UNL     1      27.754 -22.944  23.316  1.00  0.00     0.165 A 
HETATM    4  N   UNL     1      29.079 -22.996  23.458  1.00  0.00    -0.334 N 
HETATM    5  C   UNL     1      29.759 -22.381  22.442  1.00  0.00     0.052 A 
ATOM      6  HN  UNL     1      29.540 -23.449  24.247  1.00  0.00     0.168 HD
HETATM    7  C   UNL     1      28.881 -21.824  21.535  1.00  0.00     0.083 A 
HETATM    8  S   UNL     1      27.242 -22.078  21.940  1.00  0.00    -0.062 SA
BRANCH   5   9
HETATM    9  C   UNL     1      31.227 -22.222  22.451  1.00  0.00     0.013 A 
HETATM   10  C   UNL     1      31.979 -22.014  23.571  1.00  0.00     0.046 A 
HETATM   11 CL   UNL     1      31.206 -22.101  25.146  1.00  0.00    -0.083 Cl
HETATM   12  C   UNL     1      33.359 -21.803  23.528  1.00  0.00     0.025 A 
HETATM   13  C   UNL     1      33.953 -21.765  22.283  1.00  0.00     0.002 A 
HETATM   14  C   UNL     1      33.200 -21.969  21.127  1.00  0.00     0.001 A 
HETATM   15  C   UNL     1      31.842 -22.151  21.182  1.00  0.00     0.015 A 
ENDBRANCH   5   9
ENDBRANCH   1   3
BRANCH   1  16
HETATM   16  N   UNL     1      25.576 -23.507  23.855  1.00  0.00    -0.307 N 
HETATM   17  C   UNL     1      25.018 -24.599  23.659  1.00  0.00     0.119 C 
ATOM     18  HN  UNL     1      25.042 -22.649  23.715  1.00  0.00     0.186 HD
BRANCH  17  19
HETATM   19  C   UNL     1      23.633 -24.699  23.182  1.00  0.00    -0.002 A 
HETATM   20  C   UNL     1      22.841 -25.784  23.482  1.00  0.00     0.052 A 
HETATM   21  C   UNL     1      21.550 -25.818  22.969  1.00  0.00     0.019 A 
HETATM   22  C   UNL     1      21.039 -24.773  22.208  1.00  0.00     0.001 A 
HETATM   23  C   UNL     1      21.835 -23.671  21.939  1.00  0.00     0.001 A 
HETATM   24  C   UNL     1      23.106 -23.642  22.435  1.00  0.00     0.014 A 
BRANCH  20  25
HETATM   25  C   UNL     1      23.303 -26.955  24.301  1.00  0.00     0.210 C 
HETATM   26  O   UNL     1      22.909 -27.068  25.546  1.00  0.00    -0.644 OA
HETATM   27  O   UNL     1      24.078 -27.823  23.837  1.00  0.00    -0.644 OA
ENDBRANCH  20  25
ENDBRANCH  17  19
ENDBRANCH   1  16
TORSDOF 5
ENDMDL
MODEL 16
REMARK VINA RESULT:    -9.246      3.458      8.832
REMARK INTER + INTRA:         -12.067
REMARK INTER:                 -12.066
REMARK INTRA:                  -0.001
REMARK UNBOUND:                -0.119
REMARK  5 active torsions:
REMARK  status: ('A' for Active; 'I' for Inactive)
REMARK    1  A    between atoms: C_4  and  C_8 
REMARK    2  A    between atoms: C_5  and  C_7 
REMARK    3  A    between atoms: C_9  and  N_14 
REMARK    4  A    between atoms: N_12  and  N_14 
REMARK    5  A    between atoms: C_17  and  C_20 
ROOT
HETATM    1  N   UNL     1      27.679 -23.413  24.419  1.00  0.00    -0.276 N 
HETATM    2  C   UNL     1      27.438 -22.873  25.778  1.00  0.00     0.180 C 
ENDROOT
BRANCH   1   3
HETATM    3  C   UNL     1      28.770 -23.060  23.692  1.00  0.00     0.165 A 
HETATM    4  N   UNL     1      29.865 -22.527  24.235  1.00  0.00    -0.334 N 
HETATM    5  C   UNL     1      30.804 -22.155  23.311  1.00  0.00     0.052 A 
ATOM      6  HN  UNL     1      29.990 -22.407  25.240  1.00  0.00     0.168 HD
HETATM    7  C   UNL     1      30.352 -22.400  22.031  1.00  0.00     0.083 A 
HETATM    8  S   UNL     1      28.791 -23.092  21.988  1.00  0.00    -0.062 SA
BRANCH   5   9
HETATM    9  C   UNL     1      32.044 -21.444  23.681  1.00  0.00     0.013 A 
HETATM   10  C   UNL     1      33.160 -21.369  22.899  1.00  0.00     0.046 A 
HETATM   11 CL   UNL     1      33.099 -22.007  21.263  1.00  0.00    -0.083 Cl
HETATM   12  C   UNL     1      34.337 -20.742  23.315  1.00  0.00     0.025 A 
HETATM   13  C   UNL     1      34.356 -20.223  24.593  1.00  0.00     0.002 A 
HETATM   14  C   UNL     1      33.229 -20.295  25.410  1.00  0.00     0.001 A 
HETATM   15  C   UNL     1      32.088 -20.935  24.998  1.00  0.00     0.015 A 
ENDBRANCH   5   9
ENDBRANCH   1   3
BRANCH   1  16
HETATM   16  N   UNL     1      26.623 -23.919  23.697  1.00  0.00    -0.307 N 
HETATM   17  C   UNL     1      25.532 -23.330  23.611  1.00  0.00     0.119 C 
ATOM     18  HN  UNL     1      26.739 -24.810  23.216  1.00  0.00     0.186 HD
BRANCH  17  19
HETATM   19  C   UNL     1      24.388 -23.897  22.886  1.00  0.00    -0.002 A 
HETATM   20  C   UNL     1      24.006 -23.421  21.652  1.00  0.00     0.052 A 
HETATM   21  C   UNL     1      22.895 -23.991  21.042  1.00  0.00     0.019 A 
HETATM   22  C   UNL     1      22.202 -25.045  21.626  1.00  0.00     0.001 A 
HETATM   23  C   UNL     1      22.616 -25.538  22.854  1.00  0.00     0.001 A 
HETATM   24  C   UNL     1      23.701 -24.972  23.457  1.00  0.00     0.014 A 
BRANCH  20  25
HETATM   25  C   UNL     1      24.696 -22.292  20.941  1.00  0.00     0.210 C 
HETATM   26  O   UNL     1      24.587 -21.073  21.408  1.00  0.00    -0.644 OA
HETATM   27  O   UNL     1      25.360 -22.476  19.894  1.00  0.00    -0.644 OA
ENDBRANCH  20  25
ENDBRANCH  17  19
ENDBRANCH   1  16
TORSDOF 5
ENDMDL
MODEL 17
REMARK VINA RESULT:    -9.210      3.542      9.032
REMARK INTER + INTRA:         -12.020
REMARK INTER:                 -11.716
REMARK INTRA:                  -0.305
REMARK UNBOUND:                -0.119
REMARK  5 active torsions:
REMARK  status: ('A' for Active; 'I' for Inactive)
REMARK    1  A    between atoms: C_4  and  C_8 
REMARK    2  A    between atoms: C_5  and  C_7 
REMARK    3  A    between atoms: C_9  and  N_14 
REMARK    4  A    between atoms: N_12  and  N_14 
REMARK    5  A    between atoms: C_17  and  C_20 
ROOT
HETATM    1  N   UNL     1      25.277 -22.417  22.238  1.00  0.00    -0.276 N 
HETATM    2  C   UNL     1      25.511 -22.062  20.819  1.00  0.00     0.180 C 
ENDROOT
BRANCH   1   3
HETATM    3  C   UNL     1      26.303 -22.667  23.092  1.00  0.00     0.165 A 
HETATM    4  N   UNL     1      27.504 -22.099  22.974  1.00  0.00    -0.334 N 
HETATM    5  C   UNL     1      28.417 -22.566  23.879  1.00  0.00     0.052 A 
ATOM      6  HN  UNL     1      27.719 -21.387  22.276  1.00  0.00     0.168 HD
HETATM    7  C   UNL     1      27.860 -23.548  24.671  1.00  0.00     0.083 A 
HETATM    8  S   UNL     1      26.225 -23.868  24.299  1.00  0.00    -0.062 SA
BRANCH   5   9
HETATM    9  C   UNL     1      29.837 -22.157  23.857  1.00  0.00     0.013 A 
HETATM   10  C   UNL     1      30.685 -22.351  22.806  1.00  0.00     0.046 A 
HETATM   11 CL   UNL     1      30.042 -22.975  21.295  1.00  0.00    -0.083 Cl
HETATM   12  C   UNL     1      32.038 -22.010  22.851  1.00  0.00     0.025 A 
HETATM   13  C   UNL     1      32.519 -21.496  24.038  1.00  0.00     0.002 A 
HETATM   14  C   UNL     1      31.670 -21.297  25.125  1.00  0.00     0.001 A 
HETATM   15  C   UNL     1      30.348 -21.659  25.075  1.00  0.00     0.015 A 
ENDBRANCH   5   9
ENDBRANCH   1   3
BRANCH   1  16
HETATM   16  N   UNL     1      24.055 -22.925  22.613  1.00  0.00    -0.307 N 
HETATM   17  C   UNL     1      23.543 -23.909  22.054  1.00  0.00     0.119 C 
ATOM     18  HN  UNL     1      23.551 -22.477  23.378  1.00  0.00     0.186 HD
BRANCH  17  19
HETATM   19  C   UNL     1      22.214 -24.417  22.419  1.00  0.00    -0.002 A 
HETATM   20  C   UNL     1      22.058 -25.551  23.183  1.00  0.00     0.052 A 
HETATM   21  C   UNL     1      20.767 -25.984  23.462  1.00  0.00     0.019 A 
HETATM   22  C   UNL     1      19.651 -25.278  23.029  1.00  0.00     0.001 A 
HETATM   23  C   UNL     1      19.821 -24.119  22.288  1.00  0.00     0.001 A 
HETATM   24  C   UNL     1      21.088 -23.700  22.006  1.00  0.00     0.014 A 
BRANCH  20  25
HETATM   25  C   UNL     1      23.203 -26.375  23.701  1.00  0.00     0.210 C 
HETATM   26  O   UNL     1      24.019 -26.949  22.853  1.00  0.00    -0.644 OA
HETATM   27  O   UNL     1      23.390 -26.551  24.927  1.00  0.00    -0.644 OA
ENDBRANCH  20  25
ENDBRANCH  17  19
ENDBRANCH   1  16
TORSDOF 5
ENDMDL
MODEL 18
REMARK VINA RESULT:    -9.166      3.131      4.342
REMARK INTER + INTRA:         -11.963
REMARK INTER:                 -11.588
REMARK INTRA:                  -0.375
REMARK UNBOUND:                -0.119
REMARK  5 active torsions:
REMARK  status: ('A' for Active; 'I' for Inactive)
REMARK    1  A    between atoms: C_4  and  C_8 
REMARK    2  A    between atoms: C_5  and  C_7 
REMARK    3  A    between atoms: C_9  and  N_14 
REMARK    4  A    between atoms: N_12  and  N_14 
REMARK    5  A    between atoms: C_17  and  C_20 
ROOT
HETATM    1  N   UNL     1      25.214 -22.394  21.620  1.00  0.00    -0.276 N 
HETATM    2  C   UNL     1      24.941 -21.127  20.901  1.00  0.00     0.180 C 
ENDROOT
BRANCH   1   3
HETATM    3  C   UNL     1      24.275 -23.366  21.740  1.00  0.00     0.165 A 
HETATM    4  N   UNL     1      23.983 -23.957  22.900  1.00  0.00    -0.334 N 
HETATM    5  C   UNL     1      23.078 -24.976  22.778  1.00  0.00     0.052 A 
ATOM      6  HN  UNL     1      24.393 -23.675  23.790  1.00  0.00     0.168 HD
HETATM    7  C   UNL     1      22.723 -25.157  21.457  1.00  0.00     0.083 A 
HETATM    8  S   UNL     1      23.495 -24.065  20.395  1.00  0.00    -0.062 SA
BRANCH   5   9
HETATM    9  C   UNL     1      22.695 -25.839  23.914  1.00  0.00     0.013 A 
HETATM   10  C   UNL     1      23.552 -26.658  24.590  1.00  0.00     0.046 A 
HETATM   11 CL   UNL     1      25.268 -26.588  24.223  1.00  0.00    -0.083 Cl
HETATM   12  C   UNL     1      23.135 -27.508  25.617  1.00  0.00     0.025 A 
HETATM   13  C   UNL     1      21.786 -27.529  25.909  1.00  0.00     0.002 A 
HETATM   14  C   UNL     1      20.896 -26.704  25.225  1.00  0.00     0.001 A 
HETATM   15  C   UNL     1      21.314 -25.893  24.203  1.00  0.00     0.015 A 
ENDBRANCH   5   9
ENDBRANCH   1   3
BRANCH   1  16
HETATM   16  N   UNL     1      26.237 -22.439  22.540  1.00  0.00    -0.307 N 
HETATM   17  C   UNL     1      27.346 -21.921  22.328  1.00  0.00     0.119 C 
ATOM     18  HN  UNL     1      26.078 -22.917  23.427  1.00  0.00     0.186 HD
BRANCH  17  19
HETATM   19  C   UNL     1      28.454 -22.017  23.288  1.00  0.00    -0.002 A 
HETATM   20  C   UNL     1      29.723 -22.376  22.893  1.00  0.00     0.052 A 
HETATM   21  C   UNL     1      30.711 -22.473  23.866  1.00  0.00     0.019 A 
HETATM   22  C   UNL     1      30.455 -22.175  25.199  1.00  0.00     0.001 A 
HETATM   23  C   UNL     1      29.180 -21.784  25.579  1.00  0.00     0.001 A 
HETATM   24  C   UNL     1      28.208 -21.698  24.626  1.00  0.00     0.014 A 
BRANCH  20  25
HETATM   25  C   UNL     1      30.095 -22.709  21.477  1.00  0.00     0.210 C 
HETATM   26  O   UNL     1      29.409 -23.614  20.825  1.00  0.00    -0.644 OA
HETATM   27  O   UNL     1      31.064 -22.161  20.901  1.00  0.00    -0.644 OA
ENDBRANCH  20  25
ENDBRANCH  17  19
ENDBRANCH   1  16
TORSDOF 5
ENDMDL
MODEL 19
REMARK VINA RESULT:    -9.142      4.176      8.596
REMARK INTER + INTRA:         -11.933
REMARK INTER:                 -11.394
REMARK INTRA:                  -0.539
REMARK UNBOUND:                -0.119
REMARK  5 active torsions:
REMARK  status: ('A' for Active; 'I' for Inactive)
REMARK    1  A    between atoms: C_4  and  C_8 
REMARK    2  A    between atoms: C_5  and  C_7 
REMARK    3  A    between atoms: C_9  and  N_14 
REMARK    4  A    between atoms: N_12  and  N_14 
REMARK    5  A    between atoms: C_17  and  C_20 
ROOT
HETATM    1  N   UNL     1      24.204 -23.277  21.567  1.00  0.00    -0.276 N 
HETATM    2  C   UNL     1      23.452 -23.453  20.302  1.00  0.00     0.180 C 
ENDROOT
BRANCH   1   3
HETATM    3  C   UNL     1      25.450 -22.738  21.590  1.00  0.00     0.165 A 
HETATM    4  N   UNL     1      26.271 -22.850  22.635  1.00  0.00    -0.334 N 
HETATM    5  C   UNL     1      27.437 -22.149  22.487  1.00  0.00     0.052 A 
ATOM      6  HN  UNL     1      26.052 -23.403  23.464  1.00  0.00     0.168 HD
HETATM    7  C   UNL     1      27.447 -21.467  21.288  1.00  0.00     0.083 A 
HETATM    8  S   UNL     1      26.032 -21.709  20.363  1.00  0.00    -0.062 SA
BRANCH   5   9
HETATM    9  C   UNL     1      28.442 -22.041  23.565  1.00  0.00     0.013 A 
HETATM   10  C   UNL     1      29.780 -22.256  23.404  1.00  0.00     0.046 A 
HETATM   11 CL   UNL     1      30.414 -22.519  21.787  1.00  0.00    -0.083 Cl
HETATM   12  C   UNL     1      30.687 -22.208  24.464  1.00  0.00     0.025 A 
HETATM   13  C   UNL     1      30.173 -21.974  25.724  1.00  0.00     0.002 A 
HETATM   14  C   UNL     1      28.809 -21.758  25.908  1.00  0.00     0.001 A 
HETATM   15  C   UNL     1      27.926 -21.832  24.862  1.00  0.00     0.015 A 
ENDBRANCH   5   9
ENDBRANCH   1   3
BRANCH   1  16
HETATM   16  N   UNL     1      23.865 -24.036  22.664  1.00  0.00    -0.307 N 
HETATM   17  C   UNL     1      23.173 -25.064  22.574  1.00  0.00     0.119 C 
ATOM     18  HN  UNL     1      24.193 -23.743  23.584  1.00  0.00     0.186 HD
BRANCH  17  19
HETATM   19  C   UNL     1      22.767 -25.842  23.751  1.00  0.00    -0.002 A 
HETATM   20  C   UNL     1      21.695 -25.469  24.530  1.00  0.00     0.052 A 
HETATM   21  C   UNL     1      21.391 -26.242  25.644  1.00  0.00     0.019 A 
HETATM   22  C   UNL     1      22.109 -27.391  25.954  1.00  0.00     0.001 A 
HETATM   23  C   UNL     1      23.166 -27.775  25.143  1.00  0.00     0.001 A 
HETATM   24  C   UNL     1      23.471 -27.011  24.055  1.00  0.00     0.014 A 
BRANCH  20  25
HETATM   25  C   UNL     1      20.857 -24.249  24.270  1.00  0.00     0.210 C 
HETATM   26  O   UNL     1      21.391 -23.060  24.400  1.00  0.00    -0.644 OA
HETATM   27  O   UNL     1      19.648 -24.332  23.953  1.00  0.00    -0.644 OA
ENDBRANCH  20  25
ENDBRANCH  17  19
ENDBRANCH   1  16
TORSDOF 5
ENDMDL
MODEL 20
REMARK VINA RESULT:    -9.087      4.121      9.457
REMARK INTER + INTRA:         -11.862
REMARK INTER:                 -11.307
REMARK INTRA:                  -0.555
REMARK UNBOUND:                -0.119
REMARK  5 active torsions:
REMARK  status: ('A' for Active; 'I' for Inactive)
REMARK    1  A    between atoms: C_4  and  C_8 
REMARK    2  A    between atoms: C_5  and  C_7 
REMARK    3  A    between atoms: C_9  and  N_14 
REMARK    4  A    between atoms: N_12  and  N_14 
REMARK    5  A    between atoms: C_17  and  C_20 
ROOT
HETATM    1  N   UNL     1      24.831 -25.369  23.833  1.00  0.00    -0.276 N 
HETATM    2  C   UNL     1      25.407 -26.518  24.570  1.00  0.00     0.180 C 
ENDROOT
BRANCH   1   3
HETATM    3  C   UNL     1      25.578 -24.285  23.500  1.00  0.00     0.165 A 
HETATM    4  N   UNL     1      26.804 -24.071  23.981  1.00  0.00    -0.334 N 
HETATM    5  C   UNL     1      27.337 -22.871  23.593  1.00  0.00     0.052 A 
ATOM      6  HN  UNL     1      27.295 -24.736  24.578  1.00  0.00     0.168 HD
HETATM    7  C   UNL     1      26.438 -22.165  22.822  1.00  0.00     0.083 A 
HETATM    8  S   UNL     1      24.964 -22.991  22.576  1.00  0.00    -0.062 SA
BRANCH   5   9
HETATM    9  C   UNL     1      28.635 -22.380  24.097  1.00  0.00     0.013 A 
HETATM   10  C   UNL     1      29.813 -22.451  23.410  1.00  0.00     0.046 A 
HETATM   11 CL   UNL     1      29.796 -23.007  21.744  1.00  0.00    -0.083 Cl
HETATM   12  C   UNL     1      31.031 -22.034  23.951  1.00  0.00     0.025 A 
HETATM   13  C   UNL     1      31.020 -21.576  25.252  1.00  0.00     0.002 A 
HETATM   14  C   UNL     1      29.829 -21.502  25.972  1.00  0.00     0.001 A 
HETATM   15  C   UNL     1      28.643 -21.937  25.438  1.00  0.00     0.015 A 
ENDBRANCH   5   9
ENDBRANCH   1   3
BRANCH   1  16
HETATM   16  N   UNL     1      23.470 -25.168  23.855  1.00  0.00    -0.307 N 
HETATM   17  C   UNL     1      22.658 -26.105  23.784  1.00  0.00     0.119 C 
ATOM     18  HN  UNL     1      23.116 -24.215  23.931  1.00  0.00     0.186 HD
BRANCH  17  19
HETATM   19  C   UNL     1      21.206 -25.886  23.752  1.00  0.00    -0.002 A 
HETATM   20  C   UNL     1      20.594 -25.247  22.698  1.00  0.00     0.052 A 
HETATM   21  C   UNL     1      19.219 -25.051  22.755  1.00  0.00     0.019 A 
HETATM   22  C   UNL     1      18.459 -25.523  23.819  1.00  0.00     0.001 A 
HETATM   23  C   UNL     1      19.082 -26.193  24.860  1.00  0.00     0.001 A 
HETATM   24  C   UNL     1      20.433 -26.376  24.808  1.00  0.00     0.014 A 
BRANCH  20  25
HETATM   25  C   UNL     1      21.331 -24.710  21.504  1.00  0.00     0.210 C 
HETATM   26  O   UNL     1      21.379 -25.420  20.404  1.00  0.00    -0.644 OA
HETATM   27  O   UNL     1      21.925 -23.608  21.533  1.00  0.00    -0.644 OA
ENDBRANCH  20  25
ENDBRANCH  17  19
ENDBRANCH   1  16
TORSDOF 5
ENDMDL
