MODEL 1
REMARK VINA RESULT:    -9.939      0.000      0.000
REMARK INTER + INTRA:         -15.688
REMARK INTER:                 -14.006
REMARK INTRA:                  -1.682
REMARK UNBOUND:                -1.682
REMARK  7 active torsions:
REMARK  status: ('A' for Active; 'I' for Inactive)
REMARK    1  A    between atoms: C_1  and  C_2 
REMARK    2  A    between atoms: C_2  and  N_25 
REMARK    3  A    between atoms: C_9  and  C_16 
REMARK    4  A    between atoms: C_10  and  C_11 
REMARK    5  A    between atoms: C_10  and  O_27 
REMARK    6  A    between atoms: C_11  and  C_12 
REMARK    7  A    between atoms: C_13  and  O_27 
ROOT
HETATM    1  C   UNL     1       6.351  50.417  63.184  1.00  0.00     0.082 A 
HETATM    2  C   UNL     1       6.860  49.272  63.823  1.00  0.00     0.079 A 
HETATM    3  C   UNL     1       5.538  51.341  63.921  1.00  0.00     0.008 A 
HETATM    4  C   UNL     1       6.587  49.181  65.170  1.00  0.00     0.119 A 
HETATM    5  C   UNL     1       5.854  50.086  65.924  1.00  0.00     0.043 A 
HETATM    6  C   UNL     1       5.334  51.206  65.284  1.00  0.00     0.018 A 
HETATM    7  F   UNL     1       7.013  48.111  65.889  1.00  0.00    -0.206 F 
ENDROOT
BRANCH   3   8
HETATM    8  C   UNL     1       4.997  52.594  63.277  1.00  0.00    -0.022 A 
HETATM    9  C   UNL     1       5.733  53.715  63.409  1.00  0.00     0.028 A 
HETATM   10  C   UNL     1       5.342  54.865  62.745  1.00  0.00     0.019 A 
HETATM   11  C   UNL     1       5.924  56.192  62.672  1.00  0.00     0.066 A 
HETATM   12  C   UNL     1       4.126  54.952  61.970  1.00  0.00     0.060 A 
HETATM   13  N   UNL     1       5.093  56.920  61.918  1.00  0.00    -0.302 N 
HETATM   14  N   UNL     1       4.019  56.199  61.439  1.00  0.00    -0.300 N 
ATOM     15  HN  UNL     1       5.239  57.910  61.717  1.00  0.00     0.186 HD
ATOM     16  HN  UNL     1       3.289  56.535  60.811  1.00  0.00     0.187 HD
HETATM   17  C   UNL     1       3.328  53.777  61.863  1.00  0.00     0.033 A 
HETATM   18  C   UNL     1       3.820  52.626  62.510  1.00  0.00     0.014 A 
BRANCH  11  19
HETATM   19  C   UNL     1       7.180  56.621  63.375  1.00  0.00     0.330 C 
BRANCH  19  20
HETATM   20  N   UNL     1       8.418  56.748  62.558  1.00  0.00     0.085 N 
HETATM   21  C   UNL     1       9.294  57.827  63.008  1.00  0.00     0.309 C 
HETATM   22  C   UNL     1       9.044  55.406  62.398  1.00  0.00     0.309 C 
ENDBRANCH  19  20
ENDBRANCH  11  19
ENDBRANCH   3   8
BRANCH   1  23
HETATM   23  O   UNL     1       6.507  50.637  61.882  1.00  0.00    -0.350 OA
BRANCH  23  24
HETATM   24  C   UNL     1       5.898  49.822  60.889  1.00  0.00     0.180 C 
BRANCH  24  25
HETATM   25  C   UNL     1       5.207  50.754  59.919  1.00  0.00     0.066 C 
BRANCH  25  26
HETATM   26  C   UNL     1       3.943  50.201  59.336  1.00  0.00    -0.041 A 
HETATM   27  C   UNL     1       3.022  51.096  58.766  1.00  0.00     0.010 A 
HETATM   28  C   UNL     1       1.874  50.489  58.248  1.00  0.00     0.018 A 
HETATM   29  C   UNL     1       1.626  49.129  58.326  1.00  0.00     0.087 A 
HETATM   30  N   UNL     1       2.535  48.285  58.873  1.00  0.00    -0.375 N 
HETATM   31  C   UNL     1       3.676  48.831  59.386  1.00  0.00     0.094 A 
ATOM     32  HN  UNL     1       2.372  47.278  58.900  1.00  0.00     0.164 HD
ENDBRANCH  25  26
ENDBRANCH  24  25
ENDBRANCH  23  24
ENDBRANCH   1  23
TORSDOF 7
ENDMDL
MODEL 2
REMARK VINA RESULT:    -9.867      3.829      6.661
REMARK INTER + INTRA:         -15.587
REMARK INTER:                 -13.318
REMARK INTRA:                  -2.269
REMARK UNBOUND:                -1.682
REMARK  7 active torsions:
REMARK  status: ('A' for Active; 'I' for Inactive)
REMARK    1  A    between atoms: C_1  and  C_2 
REMARK    2  A    between atoms: C_2  and  N_25 
REMARK    3  A    between atoms: C_9  and  C_16 
REMARK    4  A    between atoms: C_10  and  C_11 
REMARK    5  A    between atoms: C_10  and  O_27 
REMARK    6  A    between atoms: C_11  and  C_12 
REMARK    7  A    between atoms: C_13  and  O_27 
ROOT
HETATM    1  C   UNL     1       2.673  47.253  59.134  1.00  0.00     0.082 A 
HETATM    2  C   UNL     1       1.636  46.312  58.996  1.00  0.00     0.079 A 
HETATM    3  C   UNL     1       4.037  46.811  59.144  1.00  0.00     0.008 A 
HETATM    4  C   UNL     1       2.046  45.012  58.796  1.00  0.00     0.119 A 
HETATM    5  C   UNL     1       3.357  44.562  58.742  1.00  0.00     0.043 A 
HETATM    6  C   UNL     1       4.379  45.492  58.900  1.00  0.00     0.018 A 
HETATM    7  F   UNL     1       1.134  44.014  58.666  1.00  0.00    -0.206 F 
ENDROOT
BRANCH   3   8
HETATM    8  C   UNL     1       5.177  47.794  59.262  1.00  0.00    -0.022 A 
HETATM    9  C   UNL     1       5.636  48.051  60.502  1.00  0.00     0.028 A 
HETATM   10  C   UNL     1       6.750  48.856  60.659  1.00  0.00     0.019 A 
HETATM   11  C   UNL     1       7.481  49.288  61.836  1.00  0.00     0.066 A 
HETATM   12  C   UNL     1       7.411  49.512  59.554  1.00  0.00     0.060 A 
HETATM   13  N   UNL     1       8.450  50.099  61.394  1.00  0.00    -0.302 N 
HETATM   14  N   UNL     1       8.469  50.226  60.022  1.00  0.00    -0.300 N 
ATOM     15  HN  UNL     1       9.108  50.574  62.012  1.00  0.00     0.186 HD
ATOM     16  HN  UNL     1       9.145  50.751  59.467  1.00  0.00     0.187 HD
HETATM   17  C   UNL     1       6.900  49.271  58.246  1.00  0.00     0.033 A 
HETATM   18  C   UNL     1       5.804  48.389  58.155  1.00  0.00     0.014 A 
BRANCH  11  19
HETATM   19  C   UNL     1       7.133  48.917  63.249  1.00  0.00     0.330 C 
BRANCH  19  20
HETATM   20  N   UNL     1       6.884  50.026  64.211  1.00  0.00     0.085 N 
HETATM   21  C   UNL     1       5.834  50.942  63.770  1.00  0.00     0.309 C 
HETATM   22  C   UNL     1       6.744  49.467  65.584  1.00  0.00     0.309 C 
ENDBRANCH  19  20
ENDBRANCH  11  19
ENDBRANCH   3   8
BRANCH   1  23
HETATM   23  O   UNL     1       2.441  48.543  59.358  1.00  0.00    -0.350 OA
BRANCH  23  24
HETATM   24  C   UNL     1       1.779  49.378  58.416  1.00  0.00     0.180 C 
BRANCH  24  25
HETATM   25  C   UNL     1       2.748  50.479  58.049  1.00  0.00     0.066 C 
BRANCH  25  26
HETATM   26  C   UNL     1       2.954  51.497  59.129  1.00  0.00    -0.041 A 
HETATM   27  C   UNL     1       4.125  51.424  59.902  1.00  0.00     0.010 A 
HETATM   28  C   UNL     1       4.230  52.414  60.883  1.00  0.00     0.018 A 
HETATM   29  C   UNL     1       3.251  53.363  61.120  1.00  0.00     0.087 A 
HETATM   30  N   UNL     1       2.133  53.418  60.355  1.00  0.00    -0.375 N 
HETATM   31  C   UNL     1       1.989  52.475  59.379  1.00  0.00     0.094 A 
ATOM     32  HN  UNL     1       1.425  54.137  60.504  1.00  0.00     0.164 HD
ENDBRANCH  25  26
ENDBRANCH  24  25
ENDBRANCH  23  24
ENDBRANCH   1  23
TORSDOF 7
ENDMDL
MODEL 3
REMARK VINA RESULT:    -9.824      3.318      5.091
REMARK INTER + INTRA:         -15.526
REMARK INTER:                 -14.195
REMARK INTRA:                  -1.330
REMARK UNBOUND:                -1.682
REMARK  7 active torsions:
REMARK  status: ('A' for Active; 'I' for Inactive)
REMARK    1  A    between atoms: C_1  and  C_2 
REMARK    2  A    between atoms: C_2  and  N_25 
REMARK    3  A    between atoms: C_9  and  C_16 
REMARK    4  A    between atoms: C_10  and  C_11 
REMARK    5  A    between atoms: C_10  and  O_27 
REMARK    6  A    between atoms: C_11  and  C_12 
REMARK    7  A    between atoms: C_13  and  O_27 
ROOT
HETATM    1  C   UNL     1       1.850  49.254  59.839  1.00  0.00     0.082 A 
HETATM    2  C   UNL     1       1.984  47.890  59.523  1.00  0.00     0.079 A 
HETATM    3  C   UNL     1       3.014  50.091  59.882  1.00  0.00     0.008 A 
HETATM    4  C   UNL     1       3.259  47.485  59.194  1.00  0.00     0.119 A 
HETATM    5  C   UNL     1       4.394  48.282  59.169  1.00  0.00     0.043 A 
HETATM    6  C   UNL     1       4.262  49.626  59.503  1.00  0.00     0.018 A 
HETATM    7  F   UNL     1       3.514  46.187  58.887  1.00  0.00    -0.206 F 
ENDROOT
BRANCH   3   8
HETATM    8  C   UNL     1       2.907  51.565  60.190  1.00  0.00    -0.022 A 
HETATM    9  C   UNL     1       3.773  52.066  61.092  1.00  0.00     0.028 A 
HETATM   10  C   UNL     1       3.794  53.429  61.329  1.00  0.00     0.019 A 
HETATM   11  C   UNL     1       4.608  54.253  62.202  1.00  0.00     0.066 A 
HETATM   12  C   UNL     1       2.868  54.350  60.710  1.00  0.00     0.060 A 
HETATM   13  N   UNL     1       4.159  55.505  62.056  1.00  0.00    -0.302 N 
HETATM   14  N   UNL     1       3.140  55.613  61.134  1.00  0.00    -0.300 N 
ATOM     15  HN  UNL     1       4.533  56.300  62.575  1.00  0.00     0.186 HD
ATOM     16  HN  UNL     1       2.680  56.471  60.829  1.00  0.00     0.187 HD
HETATM   17  C   UNL     1       1.926  53.814  59.785  1.00  0.00     0.033 A 
HETATM   18  C   UNL     1       2.006  52.428  59.544  1.00  0.00     0.014 A 
BRANCH  11  19
HETATM   19  C   UNL     1       5.685  53.738  63.113  1.00  0.00     0.330 C 
BRANCH  19  20
HETATM   20  N   UNL     1       7.041  53.536  62.531  1.00  0.00     0.085 N 
HETATM   21  C   UNL     1       7.994  54.573  62.923  1.00  0.00     0.309 C 
HETATM   22  C   UNL     1       7.466  52.126  62.747  1.00  0.00     0.309 C 
ENDBRANCH  19  20
ENDBRANCH  11  19
ENDBRANCH   3   8
BRANCH   1  23
HETATM   23  O   UNL     1       0.690  49.792  60.202  1.00  0.00    -0.350 OA
BRANCH  23  24
HETATM   24  C   UNL     1      -0.531  49.503  59.534  1.00  0.00     0.180 C 
BRANCH  24  25
HETATM   25  C   UNL     1      -0.378  49.986  58.110  1.00  0.00     0.066 C 
BRANCH  25  26
HETATM   26  C   UNL     1      -1.416  50.979  57.686  1.00  0.00    -0.041 A 
HETATM   27  C   UNL     1      -1.640  52.101  58.501  1.00  0.00     0.010 A 
HETATM   28  C   UNL     1      -2.625  52.971  58.026  1.00  0.00     0.018 A 
HETATM   29  C   UNL     1      -3.362  52.738  56.878  1.00  0.00     0.087 A 
HETATM   30  N   UNL     1      -3.122  51.652  56.103  1.00  0.00    -0.375 N 
HETATM   31  C   UNL     1      -2.163  50.776  56.524  1.00  0.00     0.094 A 
ATOM     32  HN  UNL     1      -3.638  51.494  55.238  1.00  0.00     0.164 HD
ENDBRANCH  25  26
ENDBRANCH  24  25
ENDBRANCH  23  24
ENDBRANCH   1  23
TORSDOF 7
ENDMDL
MODEL 4
REMARK VINA RESULT:    -9.719      4.003      8.761
REMARK INTER + INTRA:         -15.378
REMARK INTER:                 -13.806
REMARK INTRA:                  -1.572
REMARK UNBOUND:                -1.682
REMARK  7 active torsions:
REMARK  status: ('A' for Active; 'I' for Inactive)
REMARK    1  A    between atoms: C_1  and  C_2 
REMARK    2  A    between atoms: C_2  and  N_25 
REMARK    3  A    between atoms: C_9  and  C_16 
REMARK    4  A    between atoms: C_10  and  C_11 
REMARK    5  A    between atoms: C_10  and  O_27 
REMARK    6  A    between atoms: C_11  and  C_12 
REMARK    7  A    between atoms: C_13  and  O_27 
ROOT
HETATM    1  C   UNL     1       3.920  51.506  60.528  1.00  0.00     0.082 A 
HETATM    2  C   UNL     1       3.068  52.616  60.674  1.00  0.00     0.079 A 
HETATM    3  C   UNL     1       3.718  50.592  59.441  1.00  0.00     0.008 A 
HETATM    4  C   UNL     1       2.133  52.774  59.675  1.00  0.00     0.119 A 
HETATM    5  C   UNL     1       1.950  51.941  58.580  1.00  0.00     0.043 A 
HETATM    6  C   UNL     1       2.781  50.832  58.451  1.00  0.00     0.018 A 
HETATM    7  F   UNL     1       1.244  53.800  59.717  1.00  0.00    -0.206 F 
ENDROOT
BRANCH   3   8
HETATM    8  C   UNL     1       4.629  49.406  59.237  1.00  0.00    -0.022 A 
HETATM    9  C   UNL     1       4.046  48.194  59.161  1.00  0.00     0.028 A 
HETATM   10  C   UNL     1       4.819  47.086  58.863  1.00  0.00     0.019 A 
HETATM   11  C   UNL     1       4.487  45.684  58.693  1.00  0.00     0.066 A 
HETATM   12  C   UNL     1       6.255  47.148  58.705  1.00  0.00     0.060 A 
HETATM   13  N   UNL     1       5.645  45.055  58.458  1.00  0.00    -0.302 N 
HETATM   14  N   UNL     1       6.728  45.906  58.414  1.00  0.00    -0.300 N 
ATOM     15  HN  UNL     1       5.718  44.046  58.325  1.00  0.00     0.186 HD
ATOM     16  HN  UNL     1       7.694  45.655  58.204  1.00  0.00     0.187 HD
HETATM   17  C   UNL     1       6.876  48.424  58.823  1.00  0.00     0.033 A 
HETATM   18  C   UNL     1       6.018  49.517  59.063  1.00  0.00     0.014 A 
BRANCH  11  19
HETATM   19  C   UNL     1       3.109  45.104  58.828  1.00  0.00     0.330 C 
BRANCH  19  20
HETATM   20  N   UNL     1       2.241  45.102  57.618  1.00  0.00     0.085 N 
HETATM   21  C   UNL     1       1.746  43.773  57.269  1.00  0.00     0.309 C 
HETATM   22  C   UNL     1       1.222  46.181  57.740  1.00  0.00     0.309 C 
ENDBRANCH  19  20
ENDBRANCH  11  19
ENDBRANCH   3   8
BRANCH   1  23
HETATM   23  O   UNL     1       4.857  51.203  61.422  1.00  0.00    -0.350 OA
BRANCH  23  24
HETATM   24  C   UNL     1       5.890  52.109  61.786  1.00  0.00     0.180 C 
BRANCH  24  25
HETATM   25  C   UNL     1       7.119  51.279  62.081  1.00  0.00     0.066 C 
BRANCH  25  26
HETATM   26  C   UNL     1       6.961  50.346  63.242  1.00  0.00    -0.041 A 
HETATM   27  C   UNL     1       6.972  48.963  62.995  1.00  0.00     0.010 A 
HETATM   28  C   UNL     1       6.820  48.173  64.138  1.00  0.00     0.018 A 
HETATM   29  C   UNL     1       6.623  48.691  65.406  1.00  0.00     0.087 A 
HETATM   30  N   UNL     1       6.625  50.030  65.620  1.00  0.00    -0.375 N 
HETATM   31  C   UNL     1       6.778  50.843  64.534  1.00  0.00     0.094 A 
ATOM     32  HN  UNL     1       6.516  50.415  66.558  1.00  0.00     0.164 HD
ENDBRANCH  25  26
ENDBRANCH  24  25
ENDBRANCH  23  24
ENDBRANCH   1  23
TORSDOF 7
ENDMDL
MODEL 5
REMARK VINA RESULT:    -9.675      1.528      2.006
REMARK INTER + INTRA:         -15.316
REMARK INTER:                 -13.893
REMARK INTRA:                  -1.423
REMARK UNBOUND:                -1.682
REMARK  7 active torsions:
REMARK  status: ('A' for Active; 'I' for Inactive)
REMARK    1  A    between atoms: C_1  and  C_2 
REMARK    2  A    between atoms: C_2  and  N_25 
REMARK    3  A    between atoms: C_9  and  C_16 
REMARK    4  A    between atoms: C_10  and  C_11 
REMARK    5  A    between atoms: C_10  and  O_27 
REMARK    6  A    between atoms: C_11  and  C_12 
REMARK    7  A    between atoms: C_13  and  O_27 
ROOT
HETATM    1  C   UNL     1       6.668  50.693  63.397  1.00  0.00     0.082 A 
HETATM    2  C   UNL     1       6.785  49.343  63.775  1.00  0.00     0.079 A 
HETATM    3  C   UNL     1       6.260  51.670  64.365  1.00  0.00     0.008 A 
HETATM    4  C   UNL     1       6.567  49.085  65.111  1.00  0.00     0.119 A 
HETATM    5  C   UNL     1       6.229  50.016  66.083  1.00  0.00     0.043 A 
HETATM    6  C   UNL     1       6.092  51.346  65.701  1.00  0.00     0.018 A 
HETATM    7  F   UNL     1       6.635  47.817  65.589  1.00  0.00    -0.206 F 
ENDROOT
BRANCH   3   8
HETATM    8  C   UNL     1       6.150  53.131  64.004  1.00  0.00    -0.022 A 
HETATM    9  C   UNL     1       7.288  53.852  64.022  1.00  0.00     0.028 A 
HETATM   10  C   UNL     1       7.265  55.166  63.591  1.00  0.00     0.019 A 
HETATM   11  C   UNL     1       8.306  56.171  63.472  1.00  0.00     0.066 A 
HETATM   12  C   UNL     1       6.052  55.844  63.193  1.00  0.00     0.060 A 
HETATM   13  N   UNL     1       7.700  57.284  63.042  1.00  0.00    -0.302 N 
HETATM   14  N   UNL     1       6.349  57.117  62.819  1.00  0.00    -0.300 N 
ATOM     15  HN  UNL     1       8.188  58.167  62.893  1.00  0.00     0.186 HD
ATOM     16  HN  UNL     1       5.701  57.812  62.448  1.00  0.00     0.187 HD
HETATM   17  C   UNL     1       4.842  55.092  63.212  1.00  0.00     0.033 A 
HETATM   18  C   UNL     1       4.952  53.741  63.598  1.00  0.00     0.014 A 
BRANCH  11  19
HETATM   19  C   UNL     1       9.748  55.962  63.835  1.00  0.00     0.330 C 
BRANCH  19  20
HETATM   20  N   UNL     1      10.204  56.466  65.159  1.00  0.00     0.085 N 
HETATM   21  C   UNL     1       9.673  55.695  66.281  1.00  0.00     0.309 C 
HETATM   22  C   UNL     1      11.680  56.667  65.130  1.00  0.00     0.309 C 
ENDBRANCH  19  20
ENDBRANCH  11  19
ENDBRANCH   3   8
BRANCH   1  23
HETATM   23  O   UNL     1       6.823  51.099  62.140  1.00  0.00    -0.350 OA
BRANCH  23  24
HETATM   24  C   UNL     1       5.970  50.671  61.087  1.00  0.00     0.180 C 
BRANCH  24  25
HETATM   25  C   UNL     1       5.038  51.823  60.782  1.00  0.00     0.066 C 
BRANCH  25  26
HETATM   26  C   UNL     1       3.878  51.455  59.908  1.00  0.00    -0.041 A 
HETATM   27  C   UNL     1       2.764  52.311  59.881  1.00  0.00     0.010 A 
HETATM   28  C   UNL     1       1.732  51.887  59.038  1.00  0.00     0.018 A 
HETATM   29  C   UNL     1       1.767  50.702  58.323  1.00  0.00     0.087 A 
HETATM   30  N   UNL     1       2.857  49.897  58.359  1.00  0.00    -0.375 N 
HETATM   31  C   UNL     1       3.894  50.274  59.164  1.00  0.00     0.094 A 
ATOM     32  HN  UNL     1       2.901  49.041  57.807  1.00  0.00     0.164 HD
ENDBRANCH  25  26
ENDBRANCH  24  25
ENDBRANCH  23  24
ENDBRANCH   1  23
TORSDOF 7
ENDMDL
MODEL 6
REMARK VINA RESULT:    -9.621      2.557      8.149
REMARK INTER + INTRA:         -15.241
REMARK INTER:                 -14.043
REMARK INTRA:                  -1.198
REMARK UNBOUND:                -1.682
REMARK  7 active torsions:
REMARK  status: ('A' for Active; 'I' for Inactive)
REMARK    1  A    between atoms: C_1  and  C_2 
REMARK    2  A    between atoms: C_2  and  N_25 
REMARK    3  A    between atoms: C_9  and  C_16 
REMARK    4  A    between atoms: C_10  and  C_11 
REMARK    5  A    between atoms: C_10  and  O_27 
REMARK    6  A    between atoms: C_11  and  C_12 
REMARK    7  A    between atoms: C_13  and  O_27 
ROOT
HETATM    1  C   UNL     1       5.700  50.310  60.393  1.00  0.00     0.082 A 
HETATM    2  C   UNL     1       7.070  50.385  60.704  1.00  0.00     0.079 A 
HETATM    3  C   UNL     1       5.279  49.660  59.185  1.00  0.00     0.008 A 
HETATM    4  C   UNL     1       7.908  49.731  59.827  1.00  0.00     0.119 A 
HETATM    5  C   UNL     1       7.528  49.044  58.683  1.00  0.00     0.043 A 
HETATM    6  C   UNL     1       6.174  48.991  58.367  1.00  0.00     0.018 A 
HETATM    7  F   UNL     1       9.253  49.748  60.015  1.00  0.00    -0.206 F 
ENDROOT
BRANCH   3   8
HETATM    8  C   UNL     1       3.817  49.536  58.832  1.00  0.00    -0.022 A 
HETATM    9  C   UNL     1       3.238  48.337  59.037  1.00  0.00     0.028 A 
HETATM   10  C   UNL     1       1.876  48.198  58.837  1.00  0.00     0.019 A 
HETATM   11  C   UNL     1       0.980  47.068  58.993  1.00  0.00     0.066 A 
HETATM   12  C   UNL     1       1.041  49.266  58.336  1.00  0.00     0.060 A 
HETATM   13  N   UNL     1      -0.229  47.499  58.613  1.00  0.00    -0.302 N 
HETATM   14  N   UNL     1      -0.244  48.829  58.251  1.00  0.00    -0.300 N 
ATOM     15  HN  UNL     1      -1.057  46.902  58.594  1.00  0.00     0.186 HD
ATOM     16  HN  UNL     1      -1.058  49.377  57.975  1.00  0.00     0.187 HD
HETATM   17  C   UNL     1       1.661  50.523  58.082  1.00  0.00     0.033 A 
HETATM   18  C   UNL     1       3.038  50.610  58.370  1.00  0.00     0.014 A 
BRANCH  11  19
HETATM   19  C   UNL     1       1.396  45.695  59.436  1.00  0.00     0.330 C 
BRANCH  19  20
HETATM   20  N   UNL     1       2.362  44.958  58.576  1.00  0.00     0.085 N 
HETATM   21  C   UNL     1       3.469  44.371  59.330  1.00  0.00     0.309 C 
HETATM   22  C   UNL     1       1.617  44.042  57.668  1.00  0.00     0.309 C 
ENDBRANCH  19  20
ENDBRANCH  11  19
ENDBRANCH   3   8
BRANCH   1  23
HETATM   23  O   UNL     1       4.768  50.911  61.126  1.00  0.00    -0.350 OA
BRANCH  23  24
HETATM   24  C   UNL     1       5.027  51.419  62.429  1.00  0.00     0.180 C 
BRANCH  24  25
HETATM   25  C   UNL     1       3.871  52.326  62.785  1.00  0.00     0.066 C 
BRANCH  25  26
HETATM   26  C   UNL     1       4.106  53.770  62.465  1.00  0.00    -0.041 A 
HETATM   27  C   UNL     1       5.028  54.487  63.247  1.00  0.00     0.010 A 
HETATM   28  C   UNL     1       5.181  55.825  62.873  1.00  0.00     0.018 A 
HETATM   29  C   UNL     1       4.459  56.423  61.856  1.00  0.00     0.087 A 
HETATM   30  N   UNL     1       3.581  55.708  61.110  1.00  0.00    -0.375 N 
HETATM   31  C   UNL     1       3.403  54.394  61.432  1.00  0.00     0.094 A 
ATOM     32  HN  UNL     1       3.073  56.136  60.336  1.00  0.00     0.164 HD
ENDBRANCH  25  26
ENDBRANCH  24  25
ENDBRANCH  23  24
ENDBRANCH   1  23
TORSDOF 7
ENDMDL
MODEL 7
REMARK VINA RESULT:    -9.585      3.929      6.516
REMARK INTER + INTRA:         -15.189
REMARK INTER:                 -13.358
REMARK INTRA:                  -1.831
REMARK UNBOUND:                -1.682
REMARK  7 active torsions:
REMARK  status: ('A' for Active; 'I' for Inactive)
REMARK    1  A    between atoms: C_1  and  C_2 
REMARK    2  A    between atoms: C_2  and  N_25 
REMARK    3  A    between atoms: C_9  and  C_16 
REMARK    4  A    between atoms: C_10  and  C_11 
REMARK    5  A    between atoms: C_10  and  O_27 
REMARK    6  A    between atoms: C_11  and  C_12 
REMARK    7  A    between atoms: C_13  and  O_27 
ROOT
HETATM    1  C   UNL     1       1.058  50.385  58.561  1.00  0.00     0.082 A 
HETATM    2  C   UNL     1      -0.242  50.919  58.501  1.00  0.00     0.079 A 
HETATM    3  C   UNL     1       2.166  51.243  58.871  1.00  0.00     0.008 A 
HETATM    4  C   UNL     1      -0.346  52.251  58.837  1.00  0.00     0.119 A 
HETATM    5  C   UNL     1       0.696  53.092  59.197  1.00  0.00     0.043 A 
HETATM    6  C   UNL     1       1.984  52.566  59.234  1.00  0.00     0.018 A 
HETATM    7  F   UNL     1      -1.549  52.880  58.799  1.00  0.00    -0.206 F 
ENDROOT
BRANCH   3   8
HETATM    8  C   UNL     1       3.570  50.701  58.971  1.00  0.00    -0.022 A 
HETATM    9  C   UNL     1       4.188  50.820  60.163  1.00  0.00     0.028 A 
HETATM   10  C   UNL     1       5.431  50.242  60.344  1.00  0.00     0.019 A 
HETATM   11  C   UNL     1       6.319  50.179  61.490  1.00  0.00     0.066 A 
HETATM   12  C   UNL     1       6.151  49.574  59.283  1.00  0.00     0.060 A 
HETATM   13  N   UNL     1       7.413  49.529  61.077  1.00  0.00    -0.302 N 
HETATM   14  N   UNL     1       7.335  49.109  59.766  1.00  0.00    -0.300 N 
ATOM     15  HN  UNL     1       8.224  49.360  61.673  1.00  0.00     0.186 HD
ATOM     16  HN  UNL     1       8.027  48.559  59.259  1.00  0.00     0.187 HD
HETATM   17  C   UNL     1       5.515  49.482  58.012  1.00  0.00     0.033 A 
HETATM   18  C   UNL     1       4.222  50.036  57.919  1.00  0.00     0.014 A 
BRANCH  11  19
HETATM   19  C   UNL     1       6.037  50.795  62.831  1.00  0.00     0.330 C 
BRANCH  19  20
HETATM   20  N   UNL     1       7.088  51.668  63.422  1.00  0.00     0.085 N 
HETATM   21  C   UNL     1       7.388  52.840  62.601  1.00  0.00     0.309 C 
HETATM   22  C   UNL     1       6.770  51.923  64.854  1.00  0.00     0.309 C 
ENDBRANCH  19  20
ENDBRANCH  11  19
ENDBRANCH   3   8
BRANCH   1  23
HETATM   23  O   UNL     1       1.327  49.123  58.242  1.00  0.00    -0.350 OA
BRANCH  23  24
HETATM   24  C   UNL     1       0.468  48.045  58.590  1.00  0.00     0.180 C 
BRANCH  24  25
HETATM   25  C   UNL     1       1.255  47.134  59.505  1.00  0.00     0.066 C 
BRANCH  25  26
HETATM   26  C   UNL     1       2.374  46.404  58.826  1.00  0.00    -0.041 A 
HETATM   27  C   UNL     1       3.684  46.606  59.294  1.00  0.00     0.010 A 
HETATM   28  C   UNL     1       4.659  45.884  58.600  1.00  0.00     0.018 A 
HETATM   29  C   UNL     1       4.384  45.074  57.513  1.00  0.00     0.087 A 
HETATM   30  N   UNL     1       3.110  44.889  57.086  1.00  0.00    -0.375 N 
HETATM   31  C   UNL     1       2.121  45.568  57.737  1.00  0.00     0.094 A 
ATOM     32  HN  UNL     1       2.899  44.265  56.307  1.00  0.00     0.164 HD
ENDBRANCH  25  26
ENDBRANCH  24  25
ENDBRANCH  23  24
ENDBRANCH   1  23
TORSDOF 7
ENDMDL
MODEL 8
REMARK VINA RESULT:    -9.560      3.482      5.887
REMARK INTER + INTRA:         -15.154
REMARK INTER:                 -13.960
REMARK INTRA:                  -1.194
REMARK UNBOUND:                -1.682
REMARK  7 active torsions:
REMARK  status: ('A' for Active; 'I' for Inactive)
REMARK    1  A    between atoms: C_1  and  C_2 
REMARK    2  A    between atoms: C_2  and  N_25 
REMARK    3  A    between atoms: C_9  and  C_16 
REMARK    4  A    between atoms: C_10  and  C_11 
REMARK    5  A    between atoms: C_10  and  O_27 
REMARK    6  A    between atoms: C_11  and  C_12 
REMARK    7  A    between atoms: C_13  and  O_27 
ROOT
HETATM    1  C   UNL     1       6.081  54.963  63.528  1.00  0.00     0.082 A 
HETATM    2  C   UNL     1       6.442  56.213  62.992  1.00  0.00     0.079 A 
HETATM    3  C   UNL     1       7.077  54.146  64.159  1.00  0.00     0.008 A 
HETATM    4  C   UNL     1       7.750  56.587  63.204  1.00  0.00     0.119 A 
HETATM    5  C   UNL     1       8.722  55.847  63.861  1.00  0.00     0.043 A 
HETATM    6  C   UNL     1       8.367  54.601  64.370  1.00  0.00     0.018 A 
HETATM    7  F   UNL     1       8.218  57.766  62.718  1.00  0.00    -0.206 F 
ENDROOT
BRANCH   3   8
HETATM    8  C   UNL     1       6.722  52.812  64.769  1.00  0.00    -0.022 A 
HETATM    9  C   UNL     1       6.916  51.720  64.004  1.00  0.00     0.028 A 
HETATM   10  C   UNL     1       6.714  50.465  64.550  1.00  0.00     0.019 A 
HETATM   11  C   UNL     1       6.859  49.129  64.001  1.00  0.00     0.066 A 
HETATM   12  C   UNL     1       6.223  50.260  65.894  1.00  0.00     0.060 A 
HETATM   13  N   UNL     1       6.483  48.287  64.971  1.00  0.00    -0.302 N 
HETATM   14  N   UNL     1       6.134  48.925  66.142  1.00  0.00    -0.300 N 
ATOM     15  HN  UNL     1       6.458  47.273  64.855  1.00  0.00     0.186 HD
ATOM     16  HN  UNL     1       5.863  48.484  67.020  1.00  0.00     0.187 HD
HETATM   17  C   UNL     1       5.981  51.416  66.689  1.00  0.00     0.033 A 
HETATM   18  C   UNL     1       6.270  52.659  66.090  1.00  0.00     0.014 A 
BRANCH  11  19
HETATM   19  C   UNL     1       7.289  48.819  62.596  1.00  0.00     0.330 C 
BRANCH  19  20
HETATM   20  N   UNL     1       7.576  49.968  61.695  1.00  0.00     0.085 N 
HETATM   21  C   UNL     1       8.943  49.966  61.179  1.00  0.00     0.309 C 
HETATM   22  C   UNL     1       6.485  50.090  60.688  1.00  0.00     0.309 C 
ENDBRANCH  19  20
ENDBRANCH  11  19
ENDBRANCH   3   8
BRANCH   1  23
HETATM   23  O   UNL     1       4.863  54.450  63.385  1.00  0.00    -0.350 OA
BRANCH  23  24
HETATM   24  C   UNL     1       4.164  54.467  62.147  1.00  0.00     0.180 C 
BRANCH  24  25
HETATM   25  C   UNL     1       4.255  53.071  61.572  1.00  0.00     0.066 C 
BRANCH  25  26
HETATM   26  C   UNL     1       3.144  52.726  60.628  1.00  0.00    -0.041 A 
HETATM   27  C   UNL     1       3.187  51.486  59.969  1.00  0.00     0.010 A 
HETATM   28  C   UNL     1       2.110  51.252  59.110  1.00  0.00     0.018 A 
HETATM   29  C   UNL     1       1.104  52.173  58.877  1.00  0.00     0.087 A 
HETATM   30  N   UNL     1       1.080  53.361  59.530  1.00  0.00    -0.375 N 
HETATM   31  C   UNL     1       2.108  53.631  60.387  1.00  0.00     0.094 A 
ATOM     32  HN  UNL     1       0.321  54.028  59.388  1.00  0.00     0.164 HD
ENDBRANCH  25  26
ENDBRANCH  24  25
ENDBRANCH  23  24
ENDBRANCH   1  23
TORSDOF 7
ENDMDL
MODEL 9
REMARK VINA RESULT:    -9.528      3.070      5.008
REMARK INTER + INTRA:         -15.109
REMARK INTER:                 -13.329
REMARK INTRA:                  -1.780
REMARK UNBOUND:                -1.682
REMARK  7 active torsions:
REMARK  status: ('A' for Active; 'I' for Inactive)
REMARK    1  A    between atoms: C_1  and  C_2 
REMARK    2  A    between atoms: C_2  and  N_25 
REMARK    3  A    between atoms: C_9  and  C_16 
REMARK    4  A    between atoms: C_10  and  C_11 
REMARK    5  A    between atoms: C_10  and  O_27 
REMARK    6  A    between atoms: C_11  and  C_12 
REMARK    7  A    between atoms: C_13  and  O_27 
ROOT
HETATM    1  C   UNL     1       4.888  47.572  58.946  1.00  0.00     0.082 A 
HETATM    2  C   UNL     1       5.900  46.598  58.869  1.00  0.00     0.079 A 
HETATM    3  C   UNL     1       5.242  48.961  59.016  1.00  0.00     0.008 A 
HETATM    4  C   UNL     1       7.184  47.090  58.782  1.00  0.00     0.119 A 
HETATM    5  C   UNL     1       7.554  48.426  58.788  1.00  0.00     0.043 A 
HETATM    6  C   UNL     1       6.553  49.387  58.887  1.00  0.00     0.018 A 
HETATM    7  F   UNL     1       8.244  46.244  58.720  1.00  0.00    -0.206 F 
ENDROOT
BRANCH   3   8
HETATM    8  C   UNL     1       4.184  50.036  59.073  1.00  0.00    -0.022 A 
HETATM    9  C   UNL     1       4.231  50.885  60.117  1.00  0.00     0.028 A 
HETATM   10  C   UNL     1       3.357  51.956  60.161  1.00  0.00     0.019 A 
HETATM   11  C   UNL     1       3.182  53.033  61.118  1.00  0.00     0.066 A 
HETATM   12  C   UNL     1       2.325  52.172  59.171  1.00  0.00     0.060 A 
HETATM   13  N   UNL     1       2.151  53.761  60.674  1.00  0.00    -0.302 N 
HETATM   14  N   UNL     1       1.634  53.301  59.481  1.00  0.00    -0.300 N 
ATOM     15  HN  UNL     1       1.784  54.575  61.168  1.00  0.00     0.186 HD
ATOM     16  HN  UNL     1       0.882  53.725  58.938  1.00  0.00     0.187 HD
HETATM   17  C   UNL     1       2.250  51.251  58.088  1.00  0.00     0.033 A 
HETATM   18  C   UNL     1       3.215  50.222  58.073  1.00  0.00     0.014 A 
BRANCH  11  19
HETATM   19  C   UNL     1       3.988  53.206  62.374  1.00  0.00     0.330 C 
BRANCH  19  20
HETATM   20  N   UNL     1       5.237  54.012  62.283  1.00  0.00     0.085 N 
HETATM   21  C   UNL     1       5.103  55.345  62.867  1.00  0.00     0.309 C 
HETATM   22  C   UNL     1       6.388  53.193  62.754  1.00  0.00     0.309 C 
ENDBRANCH  19  20
ENDBRANCH  11  19
ENDBRANCH   3   8
BRANCH   1  23
HETATM   23  O   UNL     1       3.601  47.258  59.061  1.00  0.00    -0.350 OA
BRANCH  23  24
HETATM   24  C   UNL     1       3.123  45.926  58.926  1.00  0.00     0.180 C 
BRANCH  24  25
HETATM   25  C   UNL     1       1.795  45.861  59.645  1.00  0.00     0.066 C 
BRANCH  25  26
HETATM   26  C   UNL     1       0.983  47.116  59.546  1.00  0.00    -0.041 A 
HETATM   27  C   UNL     1       0.778  47.874  60.711  1.00  0.00     0.010 A 
HETATM   28  C   UNL     1       0.011  49.026  60.521  1.00  0.00     0.018 A 
HETATM   29  C   UNL     1      -0.549  49.380  59.306  1.00  0.00     0.087 A 
HETATM   30  N   UNL     1      -0.330  48.637  58.193  1.00  0.00    -0.375 N 
HETATM   31  C   UNL     1       0.421  47.505  58.329  1.00  0.00     0.094 A 
ATOM     32  HN  UNL     1      -0.712  48.913  57.289  1.00  0.00     0.164 HD
ENDBRANCH  25  26
ENDBRANCH  24  25
ENDBRANCH  23  24
ENDBRANCH   1  23
TORSDOF 7
ENDMDL
MODEL 10
REMARK VINA RESULT:    -9.484      2.126      7.699
REMARK INTER + INTRA:         -15.046
REMARK INTER:                 -13.435
REMARK INTRA:                  -1.612
REMARK UNBOUND:                -1.682
REMARK  7 active torsions:
REMARK  status: ('A' for Active; 'I' for Inactive)
REMARK    1  A    between atoms: C_1  and  C_2 
REMARK    2  A    between atoms: C_2  and  N_25 
REMARK    3  A    between atoms: C_9  and  C_16 
REMARK    4  A    between atoms: C_10  and  C_11 
REMARK    5  A    between atoms: C_10  and  O_27 
REMARK    6  A    between atoms: C_11  and  C_12 
REMARK    7  A    between atoms: C_13  and  O_27 
ROOT
HETATM    1  C   UNL     1       4.806  51.195  62.009  1.00  0.00     0.082 A 
HETATM    2  C   UNL     1       6.086  50.950  62.541  1.00  0.00     0.079 A 
HETATM    3  C   UNL     1       4.543  50.905  60.629  1.00  0.00     0.008 A 
HETATM    4  C   UNL     1       6.978  50.356  61.676  1.00  0.00     0.119 A 
HETATM    5  C   UNL     1       6.737  50.010  60.355  1.00  0.00     0.043 A 
HETATM    6  C   UNL     1       5.478  50.274  59.825  1.00  0.00     0.018 A 
HETATM    7  F   UNL     1       8.249  50.087  62.074  1.00  0.00    -0.206 F 
ENDROOT
BRANCH   3   8
HETATM    8  C   UNL     1       3.177  51.128  60.030  1.00  0.00    -0.022 A 
HETATM    9  C   UNL     1       2.382  50.048  59.901  1.00  0.00     0.028 A 
HETATM   10  C   UNL     1       1.080  50.212  59.463  1.00  0.00     0.019 A 
HETATM   11  C   UNL     1      -0.002  49.268  59.249  1.00  0.00     0.066 A 
HETATM   12  C   UNL     1       0.541  51.489  59.053  1.00  0.00     0.060 A 
HETATM   13  N   UNL     1      -1.028  49.983  58.772  1.00  0.00    -0.302 N 
HETATM   14  N   UNL     1      -0.757  51.331  58.680  1.00  0.00    -0.300 N 
ATOM     15  HN  UNL     1      -1.922  49.571  58.505  1.00  0.00     0.186 HD
ATOM     16  HN  UNL     1      -1.402  52.066  58.390  1.00  0.00     0.187 HD
HETATM   17  C   UNL     1       1.395  52.625  59.153  1.00  0.00     0.033 A 
HETATM   18  C   UNL     1       2.686  52.394  59.669  1.00  0.00     0.014 A 
BRANCH  11  19
HETATM   19  C   UNL     1       0.092  47.787  59.475  1.00  0.00     0.330 C 
BRANCH  19  20
HETATM   20  N   UNL     1       1.104  47.033  58.686  1.00  0.00     0.085 N 
HETATM   21  C   UNL     1       1.728  45.947  59.440  1.00  0.00     0.309 C 
HETATM   22  C   UNL     1       0.530  46.677  57.358  1.00  0.00     0.309 C 
ENDBRANCH  19  20
ENDBRANCH  11  19
ENDBRANCH   3   8
BRANCH   1  23
HETATM   23  O   UNL     1       3.843  51.785  62.709  1.00  0.00    -0.350 OA
BRANCH  23  24
HETATM   24  C   UNL     1       4.072  52.940  63.506  1.00  0.00     0.180 C 
BRANCH  24  25
HETATM   25  C   UNL     1       4.184  54.113  62.558  1.00  0.00     0.066 C 
BRANCH  25  26
HETATM   26  C   UNL     1       5.377  54.985  62.802  1.00  0.00    -0.041 A 
HETATM   27  C   UNL     1       6.444  54.463  63.553  1.00  0.00     0.010 A 
HETATM   28  C   UNL     1       7.512  55.347  63.727  1.00  0.00     0.018 A 
HETATM   29  C   UNL     1       7.515  56.647  63.251  1.00  0.00     0.087 A 
HETATM   30  N   UNL     1       6.477  57.125  62.522  1.00  0.00    -0.375 N 
HETATM   31  C   UNL     1       5.413  56.294  62.318  1.00  0.00     0.094 A 
ATOM     32  HN  UNL     1       6.491  58.070  62.139  1.00  0.00     0.164 HD
ENDBRANCH  25  26
ENDBRANCH  24  25
ENDBRANCH  23  24
ENDBRANCH   1  23
TORSDOF 7
ENDMDL
MODEL 11
REMARK VINA RESULT:    -9.383      2.449      4.781
REMARK INTER + INTRA:         -14.905
REMARK INTER:                 -13.978
REMARK INTRA:                  -0.927
REMARK UNBOUND:                -1.682
REMARK  7 active torsions:
REMARK  status: ('A' for Active; 'I' for Inactive)
REMARK    1  A    between atoms: C_1  and  C_2 
REMARK    2  A    between atoms: C_2  and  N_25 
REMARK    3  A    between atoms: C_9  and  C_16 
REMARK    4  A    between atoms: C_10  and  C_11 
REMARK    5  A    between atoms: C_10  and  O_27 
REMARK    6  A    between atoms: C_11  and  C_12 
REMARK    7  A    between atoms: C_13  and  O_27 
ROOT
HETATM    1  C   UNL     1       5.094  49.665  59.954  1.00  0.00     0.082 A 
HETATM    2  C   UNL     1       5.331  48.316  59.628  1.00  0.00     0.079 A 
HETATM    3  C   UNL     1       3.768  50.201  59.838  1.00  0.00     0.008 A 
HETATM    4  C   UNL     1       4.211  47.587  59.293  1.00  0.00     0.119 A 
HETATM    5  C   UNL     1       2.909  48.062  59.229  1.00  0.00     0.043 A 
HETATM    6  C   UNL     1       2.681  49.401  59.530  1.00  0.00     0.018 A 
HETATM    7  F   UNL     1       4.318  46.280  58.944  1.00  0.00    -0.206 F 
ENDROOT
BRANCH   3   8
HETATM    8  C   UNL     1       3.471  51.635  60.205  1.00  0.00    -0.022 A 
HETATM    9  C   UNL     1       4.305  52.228  61.081  1.00  0.00     0.028 A 
HETATM   10  C   UNL     1       4.146  53.572  61.366  1.00  0.00     0.019 A 
HETATM   11  C   UNL     1       4.882  54.478  62.228  1.00  0.00     0.066 A 
HETATM   12  C   UNL     1       3.067  54.369  60.828  1.00  0.00     0.060 A 
HETATM   13  N   UNL     1       4.253  55.657  62.150  1.00  0.00    -0.302 N 
HETATM   14  N   UNL     1       3.180  55.645  61.284  1.00  0.00    -0.300 N 
ATOM     15  HN  UNL     1       4.539  56.481  62.679  1.00  0.00     0.186 HD
ATOM     16  HN  UNL     1       2.588  56.437  61.035  1.00  0.00     0.187 HD
HETATM   17  C   UNL     1       2.162  53.732  59.932  1.00  0.00     0.033 A 
HETATM   18  C   UNL     1       2.423  52.378  59.637  1.00  0.00     0.014 A 
BRANCH  11  19
HETATM   19  C   UNL     1       6.069  54.096  63.065  1.00  0.00     0.330 C 
BRANCH  19  20
HETATM   20  N   UNL     1       7.328  54.865  62.866  1.00  0.00     0.085 N 
HETATM   21  C   UNL     1       7.281  56.204  63.449  1.00  0.00     0.309 C 
HETATM   22  C   UNL     1       8.491  54.016  63.244  1.00  0.00     0.309 C 
ENDBRANCH  19  20
ENDBRANCH  11  19
ENDBRANCH   3   8
BRANCH   1  23
HETATM   23  O   UNL     1       6.073  50.505  60.273  1.00  0.00    -0.350 OA
BRANCH  23  24
HETATM   24  C   UNL     1       7.341  50.062  60.739  1.00  0.00     0.180 C 
BRANCH  24  25
HETATM   25  C   UNL     1       7.631  50.820  62.014  1.00  0.00     0.066 C 
BRANCH  25  26
HETATM   26  C   UNL     1       7.215  50.101  63.261  1.00  0.00    -0.041 A 
HETATM   27  C   UNL     1       7.070  48.704  63.211  1.00  0.00     0.010 A 
HETATM   28  C   UNL     1       6.679  48.122  64.420  1.00  0.00     0.018 A 
HETATM   29  C   UNL     1       6.406  48.848  65.566  1.00  0.00     0.087 A 
HETATM   30  N   UNL     1       6.562  50.195  65.592  1.00  0.00    -0.375 N 
HETATM   31  C   UNL     1       6.949  50.808  64.435  1.00  0.00     0.094 A 
ATOM     32  HN  UNL     1       6.396  50.730  66.444  1.00  0.00     0.164 HD
ENDBRANCH  25  26
ENDBRANCH  24  25
ENDBRANCH  23  24
ENDBRANCH   1  23
TORSDOF 7
ENDMDL
MODEL 12
REMARK VINA RESULT:    -9.360      3.264      4.809
REMARK INTER + INTRA:         -14.872
REMARK INTER:                 -13.390
REMARK INTRA:                  -1.482
REMARK UNBOUND:                -1.682
REMARK  7 active torsions:
REMARK  status: ('A' for Active; 'I' for Inactive)
REMARK    1  A    between atoms: C_1  and  C_2 
REMARK    2  A    between atoms: C_2  and  N_25 
REMARK    3  A    between atoms: C_9  and  C_16 
REMARK    4  A    between atoms: C_10  and  C_11 
REMARK    5  A    between atoms: C_10  and  O_27 
REMARK    6  A    between atoms: C_11  and  C_12 
REMARK    7  A    between atoms: C_13  and  O_27 
ROOT
HETATM    1  C   UNL     1       6.861  49.307  60.137  1.00  0.00     0.082 A 
HETATM    2  C   UNL     1       7.358  49.194  58.825  1.00  0.00     0.079 A 
HETATM    3  C   UNL     1       7.775  49.454  61.233  1.00  0.00     0.008 A 
HETATM    4  C   UNL     1       8.724  49.322  58.701  1.00  0.00     0.119 A 
HETATM    5  C   UNL     1       9.628  49.524  59.734  1.00  0.00     0.043 A 
HETATM    6  C   UNL     1       9.136  49.612  61.032  1.00  0.00     0.018 A 
HETATM    7  F   UNL     1       9.319  49.214  57.485  1.00  0.00    -0.206 F 
ENDROOT
BRANCH   3   8
HETATM    8  C   UNL     1       7.279  49.605  62.650  1.00  0.00    -0.022 A 
HETATM    9  C   UNL     1       6.997  50.854  63.068  1.00  0.00     0.028 A 
HETATM   10  C   UNL     1       6.433  51.040  64.318  1.00  0.00     0.019 A 
HETATM   11  C   UNL     1       6.004  52.232  65.026  1.00  0.00     0.066 A 
HETATM   12  C   UNL     1       6.200  49.956  65.246  1.00  0.00     0.060 A 
HETATM   13  N   UNL     1       5.575  51.818  66.224  1.00  0.00    -0.302 N 
HETATM   14  N   UNL     1       5.635  50.450  66.381  1.00  0.00    -0.300 N 
ATOM     15  HN  UNL     1       5.236  52.452  66.948  1.00  0.00     0.186 HD
ATOM     16  HN  UNL     1       5.319  49.913  67.188  1.00  0.00     0.187 HD
HETATM   17  C   UNL     1       6.535  48.640  64.818  1.00  0.00     0.033 A 
HETATM   18  C   UNL     1       7.044  48.519  63.508  1.00  0.00     0.014 A 
BRANCH  11  19
HETATM   19  C   UNL     1       6.106  53.632  64.492  1.00  0.00     0.330 C 
BRANCH  19  20
HETATM   20  N   UNL     1       7.457  54.257  64.452  1.00  0.00     0.085 N 
HETATM   21  C   UNL     1       8.392  53.665  65.407  1.00  0.00     0.309 C 
HETATM   22  C   UNL     1       7.917  54.345  63.038  1.00  0.00     0.309 C 
ENDBRANCH  19  20
ENDBRANCH  11  19
ENDBRANCH   3   8
BRANCH   1  23
HETATM   23  O   UNL     1       5.570  49.181  60.424  1.00  0.00    -0.350 OA
BRANCH  23  24
HETATM   24  C   UNL     1       4.554  49.868  59.705  1.00  0.00     0.180 C 
BRANCH  24  25
HETATM   25  C   UNL     1       4.345  51.195  60.400  1.00  0.00     0.066 C 
BRANCH  25  26
HETATM   26  C   UNL     1       3.078  51.895  60.013  1.00  0.00    -0.041 A 
HETATM   27  C   UNL     1       2.897  53.226  60.424  1.00  0.00     0.010 A 
HETATM   28  C   UNL     1       1.688  53.795  60.017  1.00  0.00     0.018 A 
HETATM   29  C   UNL     1       0.717  53.106  59.310  1.00  0.00     0.087 A 
HETATM   30  N   UNL     1       0.919  51.824  58.917  1.00  0.00    -0.375 N 
HETATM   31  C   UNL     1       2.090  51.227  59.286  1.00  0.00     0.094 A 
ATOM     32  HN  UNL     1       0.222  51.324  58.366  1.00  0.00     0.164 HD
ENDBRANCH  25  26
ENDBRANCH  24  25
ENDBRANCH  23  24
ENDBRANCH   1  23
TORSDOF 7
ENDMDL
MODEL 13
REMARK VINA RESULT:    -9.345      3.635      5.583
REMARK INTER + INTRA:         -14.851
REMARK INTER:                 -14.341
REMARK INTRA:                  -0.511
REMARK UNBOUND:                -1.682
REMARK  7 active torsions:
REMARK  status: ('A' for Active; 'I' for Inactive)
REMARK    1  A    between atoms: C_1  and  C_2 
REMARK    2  A    between atoms: C_2  and  N_25 
REMARK    3  A    between atoms: C_9  and  C_16 
REMARK    4  A    between atoms: C_10  and  C_11 
REMARK    5  A    between atoms: C_10  and  O_27 
REMARK    6  A    between atoms: C_11  and  C_12 
REMARK    7  A    between atoms: C_13  and  O_27 
ROOT
HETATM    1  C   UNL     1       1.913  50.894  59.171  1.00  0.00     0.082 A 
HETATM    2  C   UNL     1       0.612  51.137  58.693  1.00  0.00     0.079 A 
HETATM    3  C   UNL     1       2.672  51.968  59.742  1.00  0.00     0.008 A 
HETATM    4  C   UNL     1       0.139  52.414  58.899  1.00  0.00     0.119 A 
HETATM    5  C   UNL     1       0.826  53.458  59.501  1.00  0.00     0.043 A 
HETATM    6  C   UNL     1       2.120  53.221  59.952  1.00  0.00     0.018 A 
HETATM    7  F   UNL     1      -1.097  52.770  58.465  1.00  0.00    -0.206 F 
ENDROOT
BRANCH   3   8
HETATM    8  C   UNL     1       4.060  51.740  60.290  1.00  0.00    -0.022 A 
HETATM    9  C   UNL     1       4.519  52.638  61.184  1.00  0.00     0.028 A 
HETATM   10  C   UNL     1       5.737  52.418  61.802  1.00  0.00     0.019 A 
HETATM   11  C   UNL     1       6.472  53.170  62.802  1.00  0.00     0.066 A 
HETATM   12  C   UNL     1       6.594  51.300  61.478  1.00  0.00     0.060 A 
HETATM   13  N   UNL     1       7.618  52.507  62.996  1.00  0.00    -0.302 N 
HETATM   14  N   UNL     1       7.712  51.352  62.250  1.00  0.00    -0.300 N 
ATOM     15  HN  UNL     1       8.349  52.825  63.634  1.00  0.00     0.186 HD
ATOM     16  HN  UNL     1       8.471  50.670  62.273  1.00  0.00     0.187 HD
HETATM   17  C   UNL     1       6.126  50.372  60.504  1.00  0.00     0.033 A 
HETATM   18  C   UNL     1       4.848  50.624  59.964  1.00  0.00     0.014 A 
BRANCH  11  19
HETATM   19  C   UNL     1       6.014  54.463  63.413  1.00  0.00     0.330 C 
BRANCH  19  20
HETATM   20  N   UNL     1       6.152  55.699  62.593  1.00  0.00     0.085 N 
HETATM   21  C   UNL     1       4.869  56.328  62.284  1.00  0.00     0.309 C 
HETATM   22  C   UNL     1       7.195  56.576  63.194  1.00  0.00     0.309 C 
ENDBRANCH  19  20
ENDBRANCH  11  19
ENDBRANCH   3   8
BRANCH   1  23
HETATM   23  O   UNL     1       2.519  49.720  59.025  1.00  0.00    -0.350 OA
BRANCH  23  24
HETATM   24  C   UNL     1       1.842  48.560  58.560  1.00  0.00     0.180 C 
BRANCH  24  25
HETATM   25  C   UNL     1       2.150  47.449  59.539  1.00  0.00     0.066 C 
BRANCH  25  26
HETATM   26  C   UNL     1       2.119  46.078  58.937  1.00  0.00    -0.041 A 
HETATM   27  C   UNL     1       2.614  45.909  57.633  1.00  0.00     0.010 A 
HETATM   28  C   UNL     1       2.545  44.597  57.157  1.00  0.00     0.018 A 
HETATM   29  C   UNL     1       1.993  43.550  57.874  1.00  0.00     0.087 A 
HETATM   30  N   UNL     1       1.529  43.736  59.135  1.00  0.00    -0.375 N 
HETATM   31  C   UNL     1       1.583  45.001  59.646  1.00  0.00     0.094 A 
ATOM     32  HN  UNL     1       1.154  42.961  59.681  1.00  0.00     0.164 HD
ENDBRANCH  25  26
ENDBRANCH  24  25
ENDBRANCH  23  24
ENDBRANCH   1  23
TORSDOF 7
ENDMDL
MODEL 14
REMARK VINA RESULT:    -9.297      3.360      6.406
REMARK INTER + INTRA:         -14.783
REMARK INTER:                 -14.152
REMARK INTRA:                  -0.631
REMARK UNBOUND:                -1.682
REMARK  7 active torsions:
REMARK  status: ('A' for Active; 'I' for Inactive)
REMARK    1  A    between atoms: C_1  and  C_2 
REMARK    2  A    between atoms: C_2  and  N_25 
REMARK    3  A    between atoms: C_9  and  C_16 
REMARK    4  A    between atoms: C_10  and  C_11 
REMARK    5  A    between atoms: C_10  and  O_27 
REMARK    6  A    between atoms: C_11  and  C_12 
REMARK    7  A    between atoms: C_13  and  O_27 
ROOT
HETATM    1  C   UNL     1       6.246  53.395  62.231  1.00  0.00     0.082 A 
HETATM    2  C   UNL     1       7.123  54.150  63.031  1.00  0.00     0.079 A 
HETATM    3  C   UNL     1       4.937  53.903  61.937  1.00  0.00     0.008 A 
HETATM    4  C   UNL     1       6.655  55.390  63.407  1.00  0.00     0.119 A 
HETATM    5  C   UNL     1       5.419  55.933  63.091  1.00  0.00     0.043 A 
HETATM    6  C   UNL     1       4.545  55.175  62.317  1.00  0.00     0.018 A 
HETATM    7  F   UNL     1       7.407  56.201  64.195  1.00  0.00    -0.206 F 
ENDROOT
BRANCH   3   8
HETATM    8  C   UNL     1       3.979  53.135  61.059  1.00  0.00    -0.022 A 
HETATM    9  C   UNL     1       4.345  51.890  60.699  1.00  0.00     0.028 A 
HETATM   10  C   UNL     1       3.457  51.100  59.989  1.00  0.00     0.019 A 
HETATM   11  C   UNL     1       3.548  49.740  59.489  1.00  0.00     0.066 A 
HETATM   12  C   UNL     1       2.169  51.574  59.537  1.00  0.00     0.060 A 
HETATM   13  N   UNL     1       2.405  49.510  58.833  1.00  0.00    -0.302 N 
HETATM   14  N   UNL     1       1.529  50.573  58.876  1.00  0.00    -0.300 N 
ATOM     15  HN  UNL     1       2.202  48.634  58.351  1.00  0.00     0.186 HD
ATOM     16  HN  UNL     1       0.586  50.604  58.487  1.00  0.00     0.187 HD
HETATM   17  C   UNL     1       1.798  52.904  59.885  1.00  0.00     0.033 A 
HETATM   18  C   UNL     1       2.724  53.628  60.664  1.00  0.00     0.014 A 
BRANCH  11  19
HETATM   19  C   UNL     1       4.740  48.842  59.653  1.00  0.00     0.330 C 
BRANCH  19  20
HETATM   20  N   UNL     1       5.445  48.402  58.417  1.00  0.00     0.085 N 
HETATM   21  C   UNL     1       5.778  49.508  57.522  1.00  0.00     0.309 C 
HETATM   22  C   UNL     1       6.559  47.484  58.784  1.00  0.00     0.309 C 
ENDBRANCH  19  20
ENDBRANCH  11  19
ENDBRANCH   3   8
BRANCH   1  23
HETATM   23  O   UNL     1       6.540  52.169  61.809  1.00  0.00    -0.350 OA
BRANCH  23  24
HETATM   24  C   UNL     1       7.720  51.485  62.208  1.00  0.00     0.180 C 
BRANCH  24  25
HETATM   25  C   UNL     1       7.367  50.018  62.303  1.00  0.00     0.066 C 
BRANCH  25  26
HETATM   26  C   UNL     1       6.948  49.578  63.672  1.00  0.00    -0.041 A 
HETATM   27  C   UNL     1       6.711  50.561  64.647  1.00  0.00     0.010 A 
HETATM   28  C   UNL     1       6.324  50.056  65.892  1.00  0.00     0.018 A 
HETATM   29  C   UNL     1       6.226  48.704  66.173  1.00  0.00     0.087 A 
HETATM   30  N   UNL     1       6.452  47.775  65.212  1.00  0.00    -0.375 N 
HETATM   31  C   UNL     1       6.825  48.220  63.977  1.00  0.00     0.094 A 
ATOM     32  HN  UNL     1       6.347  46.779  65.405  1.00  0.00     0.164 HD
ENDBRANCH  25  26
ENDBRANCH  24  25
ENDBRANCH  23  24
ENDBRANCH   1  23
TORSDOF 7
ENDMDL
MODEL 15
REMARK VINA RESULT:    -9.254      3.934      6.302
REMARK INTER + INTRA:         -14.724
REMARK INTER:                 -14.321
REMARK INTRA:                  -0.402
REMARK UNBOUND:                -1.682
REMARK  7 active torsions:
REMARK  status: ('A' for Active; 'I' for Inactive)
REMARK    1  A    between atoms: C_1  and  C_2 
REMARK    2  A    between atoms: C_2  and  N_25 
REMARK    3  A    between atoms: C_9  and  C_16 
REMARK    4  A    between atoms: C_10  and  C_11 
REMARK    5  A    between atoms: C_10  and  O_27 
REMARK    6  A    between atoms: C_11  and  C_12 
REMARK    7  A    between atoms: C_13  and  O_27 
ROOT
HETATM    1  C   UNL     1       2.326  51.240  59.695  1.00  0.00     0.082 A 
HETATM    2  C   UNL     1       1.054  51.448  59.129  1.00  0.00     0.079 A 
HETATM    3  C   UNL     1       3.060  52.354  60.223  1.00  0.00     0.008 A 
HETATM    4  C   UNL     1       0.580  52.739  59.210  1.00  0.00     0.119 A 
HETATM    5  C   UNL     1       1.240  53.825  59.767  1.00  0.00     0.043 A 
HETATM    6  C   UNL     1       2.506  53.620  60.305  1.00  0.00     0.018 A 
HETATM    7  F   UNL     1      -0.629  53.064  58.683  1.00  0.00    -0.206 F 
ENDROOT
BRANCH   3   8
HETATM    8  C   UNL     1       4.414  52.165  60.862  1.00  0.00    -0.022 A 
HETATM    9  C   UNL     1       5.129  51.092  60.472  1.00  0.00     0.028 A 
HETATM   10  C   UNL     1       6.421  50.931  60.941  1.00  0.00     0.019 A 
HETATM   11  C   UNL     1       7.429  49.917  60.692  1.00  0.00     0.066 A 
HETATM   12  C   UNL     1       7.027  51.824  61.903  1.00  0.00     0.060 A 
HETATM   13  N   UNL     1       8.481  50.245  61.451  1.00  0.00    -0.302 N 
HETATM   14  N   UNL     1       8.296  51.410  62.163  1.00  0.00    -0.300 N 
ATOM     15  HN  UNL     1       9.334  49.688  61.497  1.00  0.00     0.186 HD
ATOM     16  HN  UNL     1       8.977  51.872  62.766  1.00  0.00     0.187 HD
HETATM   17  C   UNL     1       6.255  52.937  62.345  1.00  0.00     0.033 A 
HETATM   18  C   UNL     1       4.973  53.074  61.776  1.00  0.00     0.014 A 
BRANCH  11  19
HETATM   19  C   UNL     1       7.246  48.725  59.797  1.00  0.00     0.330 C 
BRANCH  19  20
HETATM   20  N   UNL     1       8.323  48.431  58.812  1.00  0.00     0.085 N 
HETATM   21  C   UNL     1       8.773  49.615  58.084  1.00  0.00     0.309 C 
HETATM   22  C   UNL     1       9.381  47.613  59.468  1.00  0.00     0.309 C 
ENDBRANCH  19  20
ENDBRANCH  11  19
ENDBRANCH   3   8
BRANCH   1  23
HETATM   23  O   UNL     1       2.932  50.057  59.673  1.00  0.00    -0.350 OA
BRANCH  23  24
HETATM   24  C   UNL     1       2.763  49.129  58.609  1.00  0.00     0.180 C 
BRANCH  24  25
HETATM   25  C   UNL     1       3.683  47.963  58.893  1.00  0.00     0.066 C 
BRANCH  25  26
HETATM   26  C   UNL     1       2.970  46.695  59.249  1.00  0.00    -0.041 A 
HETATM   27  C   UNL     1       3.716  45.507  59.323  1.00  0.00     0.010 A 
HETATM   28  C   UNL     1       2.967  44.377  59.662  1.00  0.00     0.018 A 
HETATM   29  C   UNL     1       1.597  44.398  59.861  1.00  0.00     0.087 A 
HETATM   30  N   UNL     1       0.900  45.558  59.791  1.00  0.00    -0.375 N 
HETATM   31  C   UNL     1       1.591  46.691  59.471  1.00  0.00     0.094 A 
ATOM     32  HN  UNL     1      -0.103  45.585  59.972  1.00  0.00     0.164 HD
ENDBRANCH  25  26
ENDBRANCH  24  25
ENDBRANCH  23  24
ENDBRANCH   1  23
TORSDOF 7
ENDMDL
MODEL 16
REMARK VINA RESULT:    -9.244      3.203      7.317
REMARK INTER + INTRA:         -14.709
REMARK INTER:                 -13.993
REMARK INTRA:                  -0.716
REMARK UNBOUND:                -1.682
REMARK  7 active torsions:
REMARK  status: ('A' for Active; 'I' for Inactive)
REMARK    1  A    between atoms: C_1  and  C_2 
REMARK    2  A    between atoms: C_2  and  N_25 
REMARK    3  A    between atoms: C_9  and  C_16 
REMARK    4  A    between atoms: C_10  and  C_11 
REMARK    5  A    between atoms: C_10  and  O_27 
REMARK    6  A    between atoms: C_11  and  C_12 
REMARK    7  A    between atoms: C_13  and  O_27 
ROOT
HETATM    1  C   UNL     1       5.270  52.281  61.415  1.00  0.00     0.082 A 
HETATM    2  C   UNL     1       6.539  51.842  61.838  1.00  0.00     0.079 A 
HETATM    3  C   UNL     1       4.566  51.548  60.403  1.00  0.00     0.008 A 
HETATM    4  C   UNL     1       6.968  50.659  61.278  1.00  0.00     0.119 A 
HETATM    5  C   UNL     1       6.285  49.897  60.342  1.00  0.00     0.043 A 
HETATM    6  C   UNL     1       5.041  50.345  59.909  1.00  0.00     0.018 A 
HETATM    7  F   UNL     1       8.184  50.146  61.598  1.00  0.00    -0.206 F 
ENDROOT
BRANCH   3   8
HETATM    8  C   UNL     1       3.192  51.972  59.944  1.00  0.00    -0.022 A 
HETATM    9  C   UNL     1       2.398  51.014  59.426  1.00  0.00     0.028 A 
HETATM   10  C   UNL     1       1.091  51.323  59.093  1.00  0.00     0.019 A 
HETATM   11  C   UNL     1       0.009  50.522  58.551  1.00  0.00     0.066 A 
HETATM   12  C   UNL     1       0.546  52.658  59.198  1.00  0.00     0.060 A 
HETATM   13  N   UNL     1      -1.024  51.357  58.387  1.00  0.00    -0.302 N 
HETATM   14  N   UNL     1      -0.756  52.643  58.805  1.00  0.00    -0.300 N 
ATOM     15  HN  UNL     1      -1.919  51.070  57.992  1.00  0.00     0.186 HD
ATOM     16  HN  UNL     1      -1.406  53.429  58.818  1.00  0.00     0.187 HD
HETATM   17  C   UNL     1       1.398  53.678  59.709  1.00  0.00     0.033 A 
HETATM   18  C   UNL     1       2.695  53.278  60.089  1.00  0.00     0.014 A 
BRANCH  11  19
HETATM   19  C   UNL     1       0.109  49.065  58.204  1.00  0.00     0.330 C 
BRANCH  19  20
HETATM   20  N   UNL     1       0.091  48.087  59.327  1.00  0.00     0.085 N 
HETATM   21  C   UNL     1       1.361  47.383  59.494  1.00  0.00     0.309 C 
HETATM   22  C   UNL     1      -0.472  48.740  60.541  1.00  0.00     0.309 C 
ENDBRANCH  19  20
ENDBRANCH  11  19
ENDBRANCH   3   8
BRANCH   1  23
HETATM   23  O   UNL     1       4.728  53.416  61.844  1.00  0.00    -0.350 OA
BRANCH  23  24
HETATM   24  C   UNL     1       5.456  54.376  62.599  1.00  0.00     0.180 C 
BRANCH  24  25
HETATM   25  C   UNL     1       4.770  54.492  63.941  1.00  0.00     0.066 C 
BRANCH  25  26
HETATM   26  C   UNL     1       5.116  53.397  64.902  1.00  0.00    -0.041 A 
HETATM   27  C   UNL     1       6.470  53.180  65.209  1.00  0.00     0.010 A 
HETATM   28  C   UNL     1       6.696  52.139  66.113  1.00  0.00     0.018 A 
HETATM   29  C   UNL     1       5.688  51.346  66.634  1.00  0.00     0.087 A 
HETATM   30  N   UNL     1       4.388  51.580  66.330  1.00  0.00    -0.375 N 
HETATM   31  C   UNL     1       4.118  52.593  65.455  1.00  0.00     0.094 A 
ATOM     32  HN  UNL     1       3.640  51.021  66.739  1.00  0.00     0.164 HD
ENDBRANCH  25  26
ENDBRANCH  24  25
ENDBRANCH  23  24
ENDBRANCH   1  23
TORSDOF 7
ENDMDL
MODEL 17
REMARK VINA RESULT:    -9.204      3.595      7.733
REMARK INTER + INTRA:         -14.652
REMARK INTER:                 -13.574
REMARK INTRA:                  -1.078
REMARK UNBOUND:                -1.682
REMARK  7 active torsions:
REMARK  status: ('A' for Active; 'I' for Inactive)
REMARK    1  A    between atoms: C_1  and  C_2 
REMARK    2  A    between atoms: C_2  and  N_25 
REMARK    3  A    between atoms: C_9  and  C_16 
REMARK    4  A    between atoms: C_10  and  C_11 
REMARK    5  A    between atoms: C_10  and  O_27 
REMARK    6  A    between atoms: C_11  and  C_12 
REMARK    7  A    between atoms: C_13  and  O_27 
ROOT
HETATM    1  C   UNL     1       3.882  53.258  61.013  1.00  0.00     0.082 A 
HETATM    2  C   UNL     1       2.689  53.941  60.713  1.00  0.00     0.079 A 
HETATM    3  C   UNL     1       4.045  51.895  60.596  1.00  0.00     0.008 A 
HETATM    4  C   UNL     1       1.786  53.237  59.947  1.00  0.00     0.119 A 
HETATM    5  C   UNL     1       1.939  51.940  59.479  1.00  0.00     0.043 A 
HETATM    6  C   UNL     1       3.110  51.260  59.796  1.00  0.00     0.018 A 
HETATM    7  F   UNL     1       0.591  53.787  59.609  1.00  0.00    -0.206 F 
ENDROOT
BRANCH   3   8
HETATM    8  C   UNL     1       5.321  51.140  60.875  1.00  0.00    -0.022 A 
HETATM    9  C   UNL     1       5.559  50.045  60.127  1.00  0.00     0.028 A 
HETATM   10  C   UNL     1       6.764  49.379  60.263  1.00  0.00     0.019 A 
HETATM   11  C   UNL     1       7.312  48.210  59.598  1.00  0.00     0.066 A 
HETATM   12  C   UNL     1       7.766  49.753  61.236  1.00  0.00     0.060 A 
HETATM   13  N   UNL     1       8.504  47.987  60.164  1.00  0.00    -0.302 N 
HETATM   14  N   UNL     1       8.834  48.919  61.125  1.00  0.00    -0.300 N 
ATOM     15  HN  UNL     1       9.108  47.205  59.910  1.00  0.00     0.186 HD
ATOM     16  HN  UNL     1       9.707  48.972  61.649  1.00  0.00     0.187 HD
HETATM   17  C   UNL     1       7.497  50.888  62.054  1.00  0.00     0.033 A 
HETATM   18  C   UNL     1       6.279  51.556  61.815  1.00  0.00     0.014 A 
BRANCH  11  19
HETATM   19  C   UNL     1       6.607  47.415  58.537  1.00  0.00     0.330 C 
BRANCH  19  20
HETATM   20  N   UNL     1       5.604  46.409  58.983  1.00  0.00     0.085 N 
HETATM   21  C   UNL     1       4.230  46.902  58.921  1.00  0.00     0.309 C 
HETATM   22  C   UNL     1       5.876  45.109  58.310  1.00  0.00     0.309 C 
ENDBRANCH  19  20
ENDBRANCH  11  19
ENDBRANCH   3   8
BRANCH   1  23
HETATM   23  O   UNL     1       4.841  53.792  61.764  1.00  0.00    -0.350 OA
BRANCH  23  24
HETATM   24  C   UNL     1       4.574  54.750  62.779  1.00  0.00     0.180 C 
BRANCH  24  25
HETATM   25  C   UNL     1       5.697  54.647  63.786  1.00  0.00     0.066 C 
BRANCH  25  26
HETATM   26  C   UNL     1       5.576  53.483  64.721  1.00  0.00    -0.041 A 
HETATM   27  C   UNL     1       6.746  52.970  65.306  1.00  0.00     0.010 A 
HETATM   28  C   UNL     1       6.533  51.887  66.163  1.00  0.00     0.018 A 
HETATM   29  C   UNL     1       5.290  51.322  66.389  1.00  0.00     0.087 A 
HETATM   30  N   UNL     1       4.175  51.841  65.820  1.00  0.00    -0.375 N 
HETATM   31  C   UNL     1       4.331  52.905  64.980  1.00  0.00     0.094 A 
ATOM     32  HN  UNL     1       3.252  51.450  66.011  1.00  0.00     0.164 HD
ENDBRANCH  25  26
ENDBRANCH  24  25
ENDBRANCH  23  24
ENDBRANCH   1  23
TORSDOF 7
ENDMDL
MODEL 18
REMARK VINA RESULT:    -9.200      2.842      8.230
REMARK INTER + INTRA:         -14.647
REMARK INTER:                 -13.268
REMARK INTRA:                  -1.379
REMARK UNBOUND:                -1.682
REMARK  7 active torsions:
REMARK  status: ('A' for Active; 'I' for Inactive)
REMARK    1  A    between atoms: C_1  and  C_2 
REMARK    2  A    between atoms: C_2  and  N_25 
REMARK    3  A    between atoms: C_9  and  C_16 
REMARK    4  A    between atoms: C_10  and  C_11 
REMARK    5  A    between atoms: C_10  and  O_27 
REMARK    6  A    between atoms: C_11  and  C_12 
REMARK    7  A    between atoms: C_13  and  O_27 
ROOT
HETATM    1  C   UNL     1       5.530  50.563  60.725  1.00  0.00     0.082 A 
HETATM    2  C   UNL     1       6.862  50.671  61.165  1.00  0.00     0.079 A 
HETATM    3  C   UNL     1       5.240  49.879  59.498  1.00  0.00     0.008 A 
HETATM    4  C   UNL     1       7.792  50.017  60.389  1.00  0.00     0.119 A 
HETATM    5  C   UNL     1       7.537  49.298  59.230  1.00  0.00     0.043 A 
HETATM    6  C   UNL     1       6.222  49.212  58.785  1.00  0.00     0.018 A 
HETATM    7  F   UNL     1       9.112  50.065  60.706  1.00  0.00    -0.206 F 
ENDROOT
BRANCH   3   8
HETATM    8  C   UNL     1       3.822  49.719  59.008  1.00  0.00    -0.022 A 
HETATM    9  C   UNL     1       3.269  48.496  59.126  1.00  0.00     0.028 A 
HETATM   10  C   UNL     1       1.937  48.319  58.798  1.00  0.00     0.019 A 
HETATM   11  C   UNL     1       1.069  47.156  58.840  1.00  0.00     0.066 A 
HETATM   12  C   UNL     1       1.114  49.374  58.249  1.00  0.00     0.060 A 
HETATM   13  N   UNL     1      -0.114  47.559  58.361  1.00  0.00    -0.302 N 
HETATM   14  N   UNL     1      -0.142  48.898  58.035  1.00  0.00    -0.300 N 
ATOM     15  HN  UNL     1      -0.915  46.937  58.249  1.00  0.00     0.186 HD
ATOM     16  HN  UNL     1      -0.946  49.428  57.698  1.00  0.00     0.187 HD
HETATM   17  C   UNL     1       1.710  50.657  58.087  1.00  0.00     0.033 A 
HETATM   18  C   UNL     1       3.051  50.780  58.504  1.00  0.00     0.014 A 
BRANCH  11  19
HETATM   19  C   UNL     1       1.491  45.785  59.283  1.00  0.00     0.330 C 
BRANCH  19  20
HETATM   20  N   UNL     1       2.382  45.012  58.375  1.00  0.00     0.085 N 
HETATM   21  C   UNL     1       3.552  44.458  59.053  1.00  0.00     0.309 C 
HETATM   22  C   UNL     1       1.564  44.058  57.575  1.00  0.00     0.309 C 
ENDBRANCH  19  20
ENDBRANCH  11  19
ENDBRANCH   3   8
BRANCH   1  23
HETATM   23  O   UNL     1       4.520  51.159  61.351  1.00  0.00    -0.350 OA
BRANCH  23  24
HETATM   24  C   UNL     1       4.424  52.572  61.477  1.00  0.00     0.180 C 
BRANCH  24  25
HETATM   25  C   UNL     1       3.897  52.855  62.865  1.00  0.00     0.066 C 
BRANCH  25  26
HETATM   26  C   UNL     1       4.907  52.661  63.955  1.00  0.00    -0.041 A 
HETATM   27  C   UNL     1       4.593  51.789  65.010  1.00  0.00     0.010 A 
HETATM   28  C   UNL     1       5.595  51.671  65.977  1.00  0.00     0.018 A 
HETATM   29  C   UNL     1       6.781  52.384  65.941  1.00  0.00     0.087 A 
HETATM   30  N   UNL     1       7.064  53.214  64.907  1.00  0.00    -0.375 N 
HETATM   31  C   UNL     1       6.118  53.356  63.934  1.00  0.00     0.094 A 
ATOM     32  HN  UNL     1       7.952  53.714  64.858  1.00  0.00     0.164 HD
ENDBRANCH  25  26
ENDBRANCH  24  25
ENDBRANCH  23  24
ENDBRANCH   1  23
TORSDOF 7
ENDMDL
MODEL 19
REMARK VINA RESULT:    -9.036      3.100      5.080
REMARK INTER + INTRA:         -14.415
REMARK INTER:                 -13.020
REMARK INTRA:                  -1.396
REMARK UNBOUND:                -1.682
REMARK  7 active torsions:
REMARK  status: ('A' for Active; 'I' for Inactive)
REMARK    1  A    between atoms: C_1  and  C_2 
REMARK    2  A    between atoms: C_2  and  N_25 
REMARK    3  A    between atoms: C_9  and  C_16 
REMARK    4  A    between atoms: C_10  and  C_11 
REMARK    5  A    between atoms: C_10  and  O_27 
REMARK    6  A    between atoms: C_11  and  C_12 
REMARK    7  A    between atoms: C_13  and  O_27 
ROOT
HETATM    1  C   UNL     1       3.276  48.590  59.500  1.00  0.00     0.082 A 
HETATM    2  C   UNL     1       3.483  47.333  58.905  1.00  0.00     0.079 A 
HETATM    3  C   UNL     1       4.394  49.458  59.737  1.00  0.00     0.008 A 
HETATM    4  C   UNL     1       4.779  47.073  58.515  1.00  0.00     0.119 A 
HETATM    5  C   UNL     1       5.870  47.914  58.676  1.00  0.00     0.043 A 
HETATM    6  C   UNL     1       5.666  49.148  59.286  1.00  0.00     0.018 A 
HETATM    7  F   UNL     1       5.103  45.885  57.944  1.00  0.00    -0.206 F 
ENDROOT
BRANCH   3   8
HETATM    8  C   UNL     1       4.207  50.825  60.348  1.00  0.00    -0.022 A 
HETATM    9  C   UNL     1       4.992  51.137  61.397  1.00  0.00     0.028 A 
HETATM   10  C   UNL     1       4.943  52.415  61.925  1.00  0.00     0.019 A 
HETATM   11  C   UNL     1       5.665  53.049  63.013  1.00  0.00     0.066 A 
HETATM   12  C   UNL     1       4.022  53.426  61.455  1.00  0.00     0.060 A 
HETATM   13  N   UNL     1       5.175  54.290  63.109  1.00  0.00    -0.302 N 
HETATM   14  N   UNL     1       4.215  54.572  62.162  1.00  0.00    -0.300 N 
ATOM     15  HN  UNL     1       5.483  54.961  63.814  1.00  0.00     0.186 HD
ATOM     16  HN  UNL     1       3.741  55.464  62.018  1.00  0.00     0.187 HD
HETATM   17  C   UNL     1       3.164  53.083  60.371  1.00  0.00     0.033 A 
HETATM   18  C   UNL     1       3.316  51.785  59.841  1.00  0.00     0.014 A 
BRANCH  11  19
HETATM   19  C   UNL     1       6.700  52.374  63.865  1.00  0.00     0.330 C 
BRANCH  19  20
HETATM   20  N   UNL     1       6.221  51.570  65.023  1.00  0.00     0.085 N 
HETATM   21  C   UNL     1       6.844  50.250  65.103  1.00  0.00     0.309 C 
HETATM   22  C   UNL     1       6.269  52.403  66.256  1.00  0.00     0.309 C 
ENDBRANCH  19  20
ENDBRANCH  11  19
ENDBRANCH   3   8
BRANCH   1  23
HETATM   23  O   UNL     1       2.088  48.979  59.953  1.00  0.00    -0.350 OA
BRANCH  23  24
HETATM   24  C   UNL     1       0.874  48.678  59.276  1.00  0.00     0.180 C 
BRANCH  24  25
HETATM   25  C   UNL     1       0.821  49.566  58.053  1.00  0.00     0.066 C 
BRANCH  25  26
HETATM   26  C   UNL     1      -0.261  50.602  58.097  1.00  0.00    -0.041 A 
HETATM   27  C   UNL     1      -0.049  51.758  58.866  1.00  0.00     0.010 A 
HETATM   28  C   UNL     1      -1.111  52.666  58.846  1.00  0.00     0.018 A 
HETATM   29  C   UNL     1      -2.298  52.440  58.171  1.00  0.00     0.087 A 
HETATM   30  N   UNL     1      -2.476  51.320  57.428  1.00  0.00    -0.375 N 
HETATM   31  C   UNL     1      -1.461  50.406  57.412  1.00  0.00     0.094 A 
ATOM     32  HN  UNL     1      -3.335  51.165  56.901  1.00  0.00     0.164 HD
ENDBRANCH  25  26
ENDBRANCH  24  25
ENDBRANCH  23  24
ENDBRANCH   1  23
TORSDOF 7
ENDMDL
