MODEL 1
REMARK VINA RESULT:    -6.794      0.000      0.000
REMARK INTER + INTRA:          -8.596
REMARK INTER:                  -8.184
REMARK INTRA:                  -0.412
REMARK UNBOUND:                -0.412
REMARK  5 active torsions:
REMARK  status: ('A' for Active; 'I' for Inactive)
REMARK    1  A    between atoms: C_1  and  N_16 
REMARK    2  A    between atoms: C_2  and  O_7 
REMARK    3  A    between atoms: C_3  and  O_9 
REMARK    4  A    between atoms: C_4  and  O_11 
REMARK    5  A    between atoms: C_15  and  C_18 
REMARK       I    between atoms: C_15  and  N_16 
ROOT
HETATM    1  C   UNL     1       5.845  20.958  24.023  1.00  0.00     0.255 C 
HETATM    2  C   UNL     1       5.585  20.050  22.814  1.00  0.00     0.198 C 
HETATM    3  C   UNL     1       6.824  19.265  22.440  1.00  0.00     0.182 C 
HETATM    4  C   UNL     1       7.370  18.520  23.648  1.00  0.00     0.178 C 
HETATM    5  C   UNL     1       7.614  19.479  24.799  1.00  0.00     0.151 C 
HETATM    6  C   UNL     1       8.036  18.759  26.060  1.00  0.00     0.042 C 
HETATM    7  O   UNL     1       6.407  20.209  25.104  1.00  0.00    -0.356 OA
ENDROOT
BRANCH   1   8
HETATM    8  N   UNL     1       6.665  22.088  23.663  1.00  0.00    -0.328 N 
HETATM    9  C   UNL     1       6.264  23.328  23.880  1.00  0.00     0.253 C 
HETATM   10  O   UNL     1       5.306  23.581  24.613  1.00  0.00    -0.268 OA
ATOM     11  HN  UNL     1       7.576  21.926  23.232  1.00  0.00     0.165 HD
BRANCH   9  12
HETATM   12  C   UNL     1       7.000  24.418  23.162  1.00  0.00     0.032 A 
HETATM   13  C   UNL     1       6.335  25.567  22.725  1.00  0.00     0.017 A 
HETATM   14  C   UNL     1       7.031  26.573  22.065  1.00  0.00     0.001 A 
HETATM   15  C   UNL     1       8.386  26.440  21.873  1.00  0.00     0.000 A 
HETATM   16  C   UNL     1       9.047  25.312  22.319  1.00  0.00     0.001 A 
HETATM   17  C   UNL     1       8.358  24.292  22.954  1.00  0.00     0.017 A 
ENDBRANCH   9  12
ENDBRANCH   1   8
BRANCH   2  18
HETATM   18  O   UNL     1       5.137  20.800  21.693  1.00  0.00    -0.389 OA
ATOM     19  HO  UNL     1       5.660  20.576  20.932  1.00  0.00     0.210 HD
ENDBRANCH   2  18
BRANCH   3  20
HETATM   20  O   UNL     1       6.494  18.334  21.413  1.00  0.00    -0.390 OA
ATOM     21  HO  UNL     1       6.112  18.796  20.676  1.00  0.00     0.210 HD
ENDBRANCH   3  20
BRANCH   4  22
HETATM   22  O   UNL     1       6.403  17.507  23.976  1.00  0.00    -0.390 OA
ATOM     23  HO  UNL     1       6.628  17.038  24.770  1.00  0.00     0.210 HD
ENDBRANCH   4  22
TORSDOF 5
ENDMDL
MODEL 2
REMARK VINA RESULT:    -6.566      1.682      2.150
REMARK INTER + INTRA:          -8.321
REMARK INTER:                  -7.983
REMARK INTRA:                  -0.338
REMARK UNBOUND:                -0.412
REMARK  5 active torsions:
REMARK  status: ('A' for Active; 'I' for Inactive)
REMARK    1  A    between atoms: C_1  and  N_16 
REMARK    2  A    between atoms: C_2  and  O_7 
REMARK    3  A    between atoms: C_3  and  O_9 
REMARK    4  A    between atoms: C_4  and  O_11 
REMARK    5  A    between atoms: C_15  and  C_18 
REMARK       I    between atoms: C_15  and  N_16 
ROOT
HETATM    1  C   UNL     1       6.498  20.308  24.901  1.00  0.00     0.255 C 
HETATM    2  C   UNL     1       5.998  19.452  23.731  1.00  0.00     0.198 C 
HETATM    3  C   UNL     1       6.985  19.462  22.583  1.00  0.00     0.182 C 
HETATM    4  C   UNL     1       8.373  19.070  23.067  1.00  0.00     0.178 C 
HETATM    5  C   UNL     1       8.806  19.963  24.216  1.00  0.00     0.151 C 
HETATM    6  C   UNL     1      10.126  19.526  24.810  1.00  0.00     0.042 C 
HETATM    7  O   UNL     1       7.825  19.927  25.274  1.00  0.00    -0.356 OA
ENDROOT
BRANCH   1   8
HETATM    8  N   UNL     1       6.402  21.715  24.601  1.00  0.00    -0.328 N 
HETATM    9  C   UNL     1       5.339  22.422  24.941  1.00  0.00     0.253 C 
HETATM   10  O   UNL     1       4.502  21.993  25.737  1.00  0.00    -0.268 OA
ATOM     11  HN  UNL     1       7.173  22.175  24.115  1.00  0.00     0.165 HD
BRANCH   9  12
HETATM   12  C   UNL     1       5.171  23.758  24.285  1.00  0.00     0.032 A 
HETATM   13  C   UNL     1       4.004  24.507  24.468  1.00  0.00     0.017 A 
HETATM   14  C   UNL     1       3.863  25.748  23.857  1.00  0.00     0.001 A 
HETATM   15  C   UNL     1       4.894  26.245  23.096  1.00  0.00     0.000 A 
HETATM   16  C   UNL     1       6.054  25.513  22.928  1.00  0.00     0.001 A 
HETATM   17  C   UNL     1       6.194  24.264  23.510  1.00  0.00     0.017 A 
ENDBRANCH   9  12
ENDBRANCH   1   8
BRANCH   2  18
HETATM   18  O   UNL     1       4.729  19.896  23.272  1.00  0.00    -0.389 OA
ATOM     19  HO  UNL     1       4.107  19.179  23.312  1.00  0.00     0.210 HD
ENDBRANCH   2  18
BRANCH   3  20
HETATM   20  O   UNL     1       6.551  18.542  21.585  1.00  0.00    -0.390 OA
ATOM     21  HO  UNL     1       6.596  17.657  21.928  1.00  0.00     0.210 HD
ENDBRANCH   3  20
BRANCH   4  22
HETATM   22  O   UNL     1       8.298  17.686  23.450  1.00  0.00    -0.390 OA
ATOM     23  HO  UNL     1       8.945  17.458  24.106  1.00  0.00     0.210 HD
ENDBRANCH   4  22
TORSDOF 5
ENDMDL
MODEL 3
REMARK VINA RESULT:    -5.836      2.871      6.989
REMARK INTER + INTRA:          -7.442
REMARK INTER:                  -7.062
REMARK INTRA:                  -0.380
REMARK UNBOUND:                -0.412
REMARK  5 active torsions:
REMARK  status: ('A' for Active; 'I' for Inactive)
REMARK    1  A    between atoms: C_1  and  N_16 
REMARK    2  A    between atoms: C_2  and  O_7 
REMARK    3  A    between atoms: C_3  and  O_9 
REMARK    4  A    between atoms: C_4  and  O_11 
REMARK    5  A    between atoms: C_15  and  C_18 
REMARK       I    between atoms: C_15  and  N_16 
ROOT
HETATM    1  C   UNL     1       8.568  18.660  23.356  1.00  0.00     0.255 C 
HETATM    2  C   UNL     1       7.059  18.637  23.085  1.00  0.00     0.198 C 
HETATM    3  C   UNL     1       6.389  19.891  23.604  1.00  0.00     0.182 C 
HETATM    4  C   UNL     1       7.080  21.131  23.061  1.00  0.00     0.178 C 
HETATM    5  C   UNL     1       8.565  21.092  23.374  1.00  0.00     0.151 C 
HETATM    6  C   UNL     1       9.311  22.245  22.741  1.00  0.00     0.042 C 
HETATM    7  O   UNL     1       9.150  19.872  22.870  1.00  0.00    -0.356 OA
ENDROOT
BRANCH   1   8
HETATM    8  N   UNL     1       8.854  18.444  24.753  1.00  0.00    -0.328 N 
HETATM    9  C   UNL     1       9.932  17.789  25.143  1.00  0.00     0.253 C 
HETATM   10  O   UNL     1      10.862  17.551  24.371  1.00  0.00    -0.268 OA
ATOM     11  HN  UNL     1       8.208  18.806  25.455  1.00  0.00     0.165 HD
BRANCH   9  12
HETATM   12  C   UNL     1       9.962  17.307  26.562  1.00  0.00     0.032 A 
HETATM   13  C   UNL     1      10.334  15.995  26.868  1.00  0.00     0.017 A 
HETATM   14  C   UNL     1      10.362  15.563  28.189  1.00  0.00     0.001 A 
HETATM   15  C   UNL     1      10.047  16.448  29.193  1.00  0.00     0.000 A 
HETATM   16  C   UNL     1       9.694  17.749  28.893  1.00  0.00     0.001 A 
HETATM   17  C   UNL     1       9.638  18.182  27.579  1.00  0.00     0.017 A 
ENDBRANCH   9  12
ENDBRANCH   1   8
BRANCH   2  18
HETATM   18  O   UNL     1       6.448  17.493  23.665  1.00  0.00    -0.389 OA
ATOM     19  HO  UNL     1       7.005  17.148  24.353  1.00  0.00     0.210 HD
ENDBRANCH   2  18
BRANCH   3  20
HETATM   20  O   UNL     1       5.022  19.891  23.200  1.00  0.00    -0.390 OA
ATOM     21  HO  UNL     1       4.468  20.054  23.955  1.00  0.00     0.210 HD
ENDBRANCH   3  20
BRANCH   4  22
HETATM   22  O   UNL     1       6.822  21.159  21.646  1.00  0.00    -0.390 OA
ATOM     23  HO  UNL     1       6.754  20.287  21.275  1.00  0.00     0.210 HD
ENDBRANCH   4  22
TORSDOF 5
ENDMDL
MODEL 4
REMARK VINA RESULT:    -5.829      3.252      6.713
REMARK INTER + INTRA:          -7.434
REMARK INTER:                  -7.026
REMARK INTRA:                  -0.408
REMARK UNBOUND:                -0.412
REMARK  5 active torsions:
REMARK  status: ('A' for Active; 'I' for Inactive)
REMARK    1  A    between atoms: C_1  and  N_16 
REMARK    2  A    between atoms: C_2  and  O_7 
REMARK    3  A    between atoms: C_3  and  O_9 
REMARK    4  A    between atoms: C_4  and  O_11 
REMARK    5  A    between atoms: C_15  and  C_18 
REMARK       I    between atoms: C_15  and  N_16 
ROOT
HETATM    1  C   UNL     1       8.554  20.020  24.319  1.00  0.00     0.255 C 
HETATM    2  C   UNL     1       8.192  19.346  22.990  1.00  0.00     0.198 C 
HETATM    3  C   UNL     1       6.743  18.906  22.973  1.00  0.00     0.182 C 
HETATM    4  C   UNL     1       5.828  20.067  23.329  1.00  0.00     0.178 C 
HETATM    5  C   UNL     1       6.237  20.678  24.658  1.00  0.00     0.151 C 
HETATM    6  C   UNL     1       5.432  21.915  24.988  1.00  0.00     0.042 C 
HETATM    7  O   UNL     1       7.627  21.065  24.623  1.00  0.00    -0.356 OA
ENDROOT
BRANCH   1   8
HETATM    8  N   UNL     1       8.652  19.056  25.387  1.00  0.00    -0.328 N 
HETATM    9  C   UNL     1       9.575  19.159  26.326  1.00  0.00     0.253 C 
HETATM   10  O   UNL     1      10.225  20.194  26.487  1.00  0.00    -0.268 OA
ATOM     11  HN  UNL     1       7.994  18.276  25.417  1.00  0.00     0.165 HD
BRANCH   9  12
HETATM   12  C   UNL     1       9.829  17.947  27.169  1.00  0.00     0.032 A 
HETATM   13  C   UNL     1       9.698  17.998  28.560  1.00  0.00     0.017 A 
HETATM   14  C   UNL     1       9.932  16.864  29.330  1.00  0.00     0.001 A 
HETATM   15  C   UNL     1      10.265  15.685  28.707  1.00  0.00     0.000 A 
HETATM   16  C   UNL     1      10.379  15.629  27.331  1.00  0.00     0.001 A 
HETATM   17  C   UNL     1      10.174  16.759  26.557  1.00  0.00     0.017 A 
ENDBRANCH   9  12
ENDBRANCH   1   8
BRANCH   2  18
HETATM   18  O   UNL     1       9.032  18.229  22.732  1.00  0.00    -0.389 OA
ATOM     19  HO  UNL     1       9.093  18.086  21.795  1.00  0.00     0.210 HD
ENDBRANCH   2  18
BRANCH   3  20
HETATM   20  O   UNL     1       6.417  18.423  21.674  1.00  0.00    -0.390 OA
ATOM     21  HO  UNL     1       5.845  17.667  21.750  1.00  0.00     0.210 HD
ENDBRANCH   3  20
BRANCH   4  22
HETATM   22  O   UNL     1       5.919  21.008  22.246  1.00  0.00    -0.390 OA
ATOM     23  HO  UNL     1       6.547  21.698  22.419  1.00  0.00     0.210 HD
ENDBRANCH   4  22
TORSDOF 5
ENDMDL
MODEL 5
REMARK VINA RESULT:    -5.716      4.109      5.212
REMARK INTER + INTRA:          -7.298
REMARK INTER:                  -6.915
REMARK INTRA:                  -0.383
REMARK UNBOUND:                -0.412
REMARK  5 active torsions:
REMARK  status: ('A' for Active; 'I' for Inactive)
REMARK    1  A    between atoms: C_1  and  N_16 
REMARK    2  A    between atoms: C_2  and  O_7 
REMARK    3  A    between atoms: C_3  and  O_9 
REMARK    4  A    between atoms: C_4  and  O_11 
REMARK    5  A    between atoms: C_15  and  C_18 
REMARK       I    between atoms: C_15  and  N_16 
ROOT
HETATM    1  C   UNL     1       8.508  21.670  22.726  1.00  0.00     0.255 C 
HETATM    2  C   UNL     1       7.235  21.895  21.900  1.00  0.00     0.198 C 
HETATM    3  C   UNL     1       6.420  20.623  21.791  1.00  0.00     0.182 C 
HETATM    4  C   UNL     1       6.150  20.041  23.170  1.00  0.00     0.178 C 
HETATM    5  C   UNL     1       7.452  19.836  23.924  1.00  0.00     0.151 C 
HETATM    6  C   UNL     1       7.219  19.378  25.347  1.00  0.00     0.042 C 
HETATM    7  O   UNL     1       8.193  21.073  23.986  1.00  0.00    -0.356 OA
ENDROOT
BRANCH   1   8
HETATM    8  N   UNL     1       9.481  20.902  21.991  1.00  0.00    -0.328 N 
HETATM    9  C   UNL     1      10.776  21.138  22.107  1.00  0.00     0.253 C 
HETATM   10  O   UNL     1      11.230  21.836  23.015  1.00  0.00    -0.268 OA
ATOM     11  HN  UNL     1       9.164  20.159  21.367  1.00  0.00     0.165 HD
BRANCH   9  12
HETATM   12  C   UNL     1      11.673  20.551  21.059  1.00  0.00     0.032 A 
HETATM   13  C   UNL     1      11.864  19.169  20.969  1.00  0.00     0.017 A 
HETATM   14  C   UNL     1      12.695  18.638  19.989  1.00  0.00     0.001 A 
HETATM   15  C   UNL     1      13.304  19.484  19.092  1.00  0.00     0.000 A 
HETATM   16  C   UNL     1      13.103  20.848  19.170  1.00  0.00     0.001 A 
HETATM   17  C   UNL     1      12.298  21.389  20.159  1.00  0.00     0.017 A 
ENDBRANCH   9  12
ENDBRANCH   1   8
BRANCH   2  18
HETATM   18  O   UNL     1       7.542  22.378  20.600  1.00  0.00    -0.389 OA
ATOM     19  HO  UNL     1       7.358  21.703  19.957  1.00  0.00     0.210 HD
ENDBRANCH   2  18
BRANCH   3  20
HETATM   20  O   UNL     1       5.184  20.915  21.146  1.00  0.00    -0.390 OA
ATOM     21  HO  UNL     1       4.514  21.075  21.800  1.00  0.00     0.210 HD
ENDBRANCH   3  20
BRANCH   4  22
HETATM   22  O   UNL     1       5.271  20.962  23.839  1.00  0.00    -0.390 OA
ATOM     23  HO  UNL     1       5.653  21.827  23.924  1.00  0.00     0.210 HD
ENDBRANCH   4  22
TORSDOF 5
ENDMDL
MODEL 6
REMARK VINA RESULT:    -5.614      3.179      4.604
REMARK INTER + INTRA:          -7.175
REMARK INTER:                  -6.866
REMARK INTRA:                  -0.309
REMARK UNBOUND:                -0.412
REMARK  5 active torsions:
REMARK  status: ('A' for Active; 'I' for Inactive)
REMARK    1  A    between atoms: C_1  and  N_16 
REMARK    2  A    between atoms: C_2  and  O_7 
REMARK    3  A    between atoms: C_3  and  O_9 
REMARK    4  A    between atoms: C_4  and  O_11 
REMARK    5  A    between atoms: C_15  and  C_18 
REMARK       I    between atoms: C_15  and  N_16 
ROOT
HETATM    1  C   UNL     1       6.995  22.926  22.564  1.00  0.00     0.255 C 
HETATM    2  C   UNL     1       6.042  21.748  22.330  1.00  0.00     0.198 C 
HETATM    3  C   UNL     1       6.013  20.819  23.526  1.00  0.00     0.182 C 
HETATM    4  C   UNL     1       5.711  21.596  24.798  1.00  0.00     0.178 C 
HETATM    5  C   UNL     1       6.697  22.737  24.971  1.00  0.00     0.151 C 
HETATM    6  C   UNL     1       6.355  23.611  26.157  1.00  0.00     0.042 C 
HETATM    7  O   UNL     1       6.694  23.581  23.799  1.00  0.00    -0.356 OA
ENDROOT
BRANCH   1   8
HETATM    8  N   UNL     1       8.373  22.509  22.494  1.00  0.00    -0.328 N 
HETATM    9  C   UNL     1       9.022  22.461  21.344  1.00  0.00     0.253 C 
HETATM   10  O   UNL     1       8.580  22.999  20.327  1.00  0.00    -0.268 OA
ATOM     11  HN  UNL     1       8.858  22.244  23.352  1.00  0.00     0.165 HD
BRANCH   9  12
HETATM   12  C   UNL     1      10.305  21.689  21.316  1.00  0.00     0.032 A 
HETATM   13  C   UNL     1      10.463  20.530  22.082  1.00  0.00     0.017 A 
HETATM   14  C   UNL     1      11.658  19.820  22.043  1.00  0.00     0.001 A 
HETATM   15  C   UNL     1      12.672  20.254  21.222  1.00  0.00     0.000 A 
HETATM   16  C   UNL     1      12.511  21.390  20.453  1.00  0.00     0.001 A 
HETATM   17  C   UNL     1      11.335  22.119  20.504  1.00  0.00     0.017 A 
ENDBRANCH   9  12
ENDBRANCH   1   8
BRANCH   2  18
HETATM   18  O   UNL     1       6.402  21.016  21.167  1.00  0.00    -0.389 OA
ATOM     19  HO  UNL     1       7.343  20.887  21.150  1.00  0.00     0.210 HD
ENDBRANCH   2  18
BRANCH   3  20
HETATM   20  O   UNL     1       5.011  19.828  23.323  1.00  0.00    -0.390 OA
ATOM     21  HO  UNL     1       5.371  18.969  23.509  1.00  0.00     0.210 HD
ENDBRANCH   3  20
BRANCH   4  22
HETATM   22  O   UNL     1       4.355  22.059  24.684  1.00  0.00    -0.390 OA
ATOM     23  HO  UNL     1       3.799  21.437  24.230  1.00  0.00     0.210 HD
ENDBRANCH   4  22
TORSDOF 5
ENDMDL
MODEL 7
REMARK VINA RESULT:    -5.589      3.099      6.600
REMARK INTER + INTRA:          -7.145
REMARK INTER:                  -6.743
REMARK INTRA:                  -0.402
REMARK UNBOUND:                -0.412
REMARK  5 active torsions:
REMARK  status: ('A' for Active; 'I' for Inactive)
REMARK    1  A    between atoms: C_1  and  N_16 
REMARK    2  A    between atoms: C_2  and  O_7 
REMARK    3  A    between atoms: C_3  and  O_9 
REMARK    4  A    between atoms: C_4  and  O_11 
REMARK    5  A    between atoms: C_15  and  C_18 
REMARK       I    between atoms: C_15  and  N_16 
ROOT
HETATM    1  C   UNL     1       8.194  20.161  22.630  1.00  0.00     0.255 C 
HETATM    2  C   UNL     1       6.728  19.885  22.275  1.00  0.00     0.198 C 
HETATM    3  C   UNL     1       5.856  19.877  23.513  1.00  0.00     0.182 C 
HETATM    4  C   UNL     1       6.053  21.154  24.315  1.00  0.00     0.178 C 
HETATM    5  C   UNL     1       7.523  21.357  24.638  1.00  0.00     0.151 C 
HETATM    6  C   UNL     1       7.777  22.680  25.325  1.00  0.00     0.042 C 
HETATM    7  O   UNL     1       8.307  21.343  23.427  1.00  0.00    -0.356 OA
ENDROOT
BRANCH   1   8
HETATM    8  N   UNL     1       8.804  19.019  23.265  1.00  0.00    -0.328 N 
HETATM    9  C   UNL     1      10.028  18.630  22.956  1.00  0.00     0.253 C 
HETATM   10  O   UNL     1      10.795  19.350  22.313  1.00  0.00    -0.268 OA
ATOM     11  HN  UNL     1       8.278  18.500  23.968  1.00  0.00     0.165 HD
BRANCH   9  12
HETATM   12  C   UNL     1      10.437  17.255  23.387  1.00  0.00     0.032 A 
HETATM   13  C   UNL     1      10.753  16.985  24.722  1.00  0.00     0.017 A 
HETATM   14  C   UNL     1      11.126  15.703  25.110  1.00  0.00     0.001 A 
HETATM   15  C   UNL     1      11.152  14.697  24.173  1.00  0.00     0.000 A 
HETATM   16  C   UNL     1      10.823  14.959  22.857  1.00  0.00     0.001 A 
HETATM   17  C   UNL     1      10.476  16.238  22.455  1.00  0.00     0.017 A 
ENDBRANCH   9  12
ENDBRANCH   1   8
BRANCH   2  18
HETATM   18  O   UNL     1       6.587  18.652  21.584  1.00  0.00    -0.389 OA
ATOM     19  HO  UNL     1       5.695  18.336  21.675  1.00  0.00     0.210 HD
ENDBRANCH   2  18
BRANCH   3  20
HETATM   20  O   UNL     1       4.491  19.765  23.122  1.00  0.00    -0.390 OA
ATOM     21  HO  UNL     1       4.120  18.969  23.485  1.00  0.00     0.210 HD
ENDBRANCH   3  20
BRANCH   4  22
HETATM   22  O   UNL     1       5.517  22.225  23.519  1.00  0.00    -0.390 OA
ATOM     23  HO  UNL     1       6.184  22.846  23.252  1.00  0.00     0.210 HD
ENDBRANCH   4  22
TORSDOF 5
ENDMDL
MODEL 8
REMARK VINA RESULT:    -5.527      3.191      6.120
REMARK INTER + INTRA:          -7.070
REMARK INTER:                  -6.711
REMARK INTRA:                  -0.359
REMARK UNBOUND:                -0.412
REMARK  5 active torsions:
REMARK  status: ('A' for Active; 'I' for Inactive)
REMARK    1  A    between atoms: C_1  and  N_16 
REMARK    2  A    between atoms: C_2  and  O_7 
REMARK    3  A    between atoms: C_3  and  O_9 
REMARK    4  A    between atoms: C_4  and  O_11 
REMARK    5  A    between atoms: C_15  and  C_18 
REMARK       I    between atoms: C_15  and  N_16 
ROOT
HETATM    1  C   UNL     1       5.337  24.368  25.317  1.00  0.00     0.255 C 
HETATM    2  C   UNL     1       4.132  24.720  24.436  1.00  0.00     0.198 C 
HETATM    3  C   UNL     1       2.848  24.166  25.015  1.00  0.00     0.182 C 
HETATM    4  C   UNL     1       2.684  24.601  26.463  1.00  0.00     0.178 C 
HETATM    5  C   UNL     1       3.905  24.212  27.277  1.00  0.00     0.151 C 
HETATM    6  C   UNL     1       3.837  24.738  28.693  1.00  0.00     0.042 C 
HETATM    7  O   UNL     1       5.100  24.753  26.673  1.00  0.00    -0.356 OA
ENDROOT
BRANCH   1   8
HETATM    8  N   UNL     1       5.682  22.973  25.202  1.00  0.00    -0.328 N 
HETATM    9  C   UNL     1       6.757  22.580  24.543  1.00  0.00     0.253 C 
HETATM   10  O   UNL     1       7.643  23.372  24.215  1.00  0.00    -0.268 OA
ATOM     11  HN  UNL     1       5.081  22.273  25.640  1.00  0.00     0.165 HD
BRANCH   9  12
HETATM   12  C   UNL     1       6.839  21.130  24.174  1.00  0.00     0.032 A 
HETATM   13  C   UNL     1       7.252  20.173  25.107  1.00  0.00     0.017 A 
HETATM   14  C   UNL     1       7.319  18.831  24.752  1.00  0.00     0.001 A 
HETATM   15  C   UNL     1       6.948  18.450  23.484  1.00  0.00     0.000 A 
HETATM   16  C   UNL     1       6.525  19.393  22.567  1.00  0.00     0.001 A 
HETATM   17  C   UNL     1       6.480  20.736  22.902  1.00  0.00     0.017 A 
ENDBRANCH   9  12
ENDBRANCH   1   8
BRANCH   2  18
HETATM   18  O   UNL     1       4.304  24.238  23.110  1.00  0.00    -0.389 OA
ATOM     19  HO  UNL     1       5.154  23.822  23.029  1.00  0.00     0.210 HD
ENDBRANCH   2  18
BRANCH   3  20
HETATM   20  O   UNL     1       1.746  24.640  24.247  1.00  0.00    -0.390 OA
ATOM     21  HO  UNL     1       1.286  23.903  23.862  1.00  0.00     0.210 HD
ENDBRANCH   3  20
BRANCH   4  22
HETATM   22  O   UNL     1       2.471  26.023  26.443  1.00  0.00    -0.390 OA
ATOM     23  HO  UNL     1       2.317  26.352  25.565  1.00  0.00     0.210 HD
ENDBRANCH   4  22
TORSDOF 5
ENDMDL
MODEL 9
REMARK VINA RESULT:    -5.320      1.707      2.418
REMARK INTER + INTRA:          -6.820
REMARK INTER:                  -6.398
REMARK INTRA:                  -0.422
REMARK UNBOUND:                -0.412
REMARK  5 active torsions:
REMARK  status: ('A' for Active; 'I' for Inactive)
REMARK    1  A    between atoms: C_1  and  N_16 
REMARK    2  A    between atoms: C_2  and  O_7 
REMARK    3  A    between atoms: C_3  and  O_9 
REMARK    4  A    between atoms: C_4  and  O_11 
REMARK    5  A    between atoms: C_15  and  C_18 
REMARK       I    between atoms: C_15  and  N_16 
ROOT
HETATM    1  C   UNL     1       7.039  19.544  24.778  1.00  0.00     0.255 C 
HETATM    2  C   UNL     1       7.558  18.702  23.606  1.00  0.00     0.198 C 
HETATM    3  C   UNL     1       9.054  18.859  23.438  1.00  0.00     0.182 C 
HETATM    4  C   UNL     1       9.772  18.576  24.749  1.00  0.00     0.178 C 
HETATM    5  C   UNL     1       9.215  19.450  25.859  1.00  0.00     0.151 C 
HETATM    6  C   UNL     1       9.814  19.110  27.205  1.00  0.00     0.042 C 
HETATM    7  O   UNL     1       7.787  19.272  25.966  1.00  0.00    -0.356 OA
ENDROOT
BRANCH   1   8
HETATM    8  N   UNL     1       7.031  20.948  24.452  1.00  0.00    -0.328 N 
HETATM    9  C   UNL     1       5.986  21.712  24.717  1.00  0.00     0.253 C 
HETATM   10  O   UNL     1       5.083  21.339  25.467  1.00  0.00    -0.268 OA
ATOM     11  HN  UNL     1       7.851  21.362  24.007  1.00  0.00     0.165 HD
BRANCH   9  12
HETATM   12  C   UNL     1       5.924  23.044  24.033  1.00  0.00     0.032 A 
HETATM   13  C   UNL     1       4.812  23.878  24.183  1.00  0.00     0.017 A 
HETATM   14  C   UNL     1       4.769  25.113  23.547  1.00  0.00     0.001 A 
HETATM   15  C   UNL     1       5.845  25.519  22.792  1.00  0.00     0.000 A 
HETATM   16  C   UNL     1       6.951  24.703  22.657  1.00  0.00     0.001 A 
HETATM   17  C   UNL     1       6.992  23.460  23.265  1.00  0.00     0.017 A 
ENDBRANCH   9  12
ENDBRANCH   1   8
BRANCH   2  18
HETATM   18  O   UNL     1       6.903  19.046  22.393  1.00  0.00    -0.389 OA
ATOM     19  HO  UNL     1       7.117  18.407  21.723  1.00  0.00     0.210 HD
ENDBRANCH   2  18
BRANCH   3  20
HETATM   20  O   UNL     1       9.510  17.951  22.439  1.00  0.00    -0.390 OA
ATOM     21  HO  UNL     1      10.425  17.743  22.592  1.00  0.00     0.210 HD
ENDBRANCH   3  20
BRANCH   4  22
HETATM   22  O   UNL     1       9.597  17.175  25.018  1.00  0.00    -0.390 OA
ATOM     23  HO  UNL     1       8.748  16.856  24.735  1.00  0.00     0.210 HD
ENDBRANCH   4  22
TORSDOF 5
ENDMDL
MODEL 10
REMARK VINA RESULT:    -5.281      3.268      4.988
REMARK INTER + INTRA:          -6.774
REMARK INTER:                  -6.380
REMARK INTRA:                  -0.394
REMARK UNBOUND:                -0.412
REMARK  5 active torsions:
REMARK  status: ('A' for Active; 'I' for Inactive)
REMARK    1  A    between atoms: C_1  and  N_16 
REMARK    2  A    between atoms: C_2  and  O_7 
REMARK    3  A    between atoms: C_3  and  O_9 
REMARK    4  A    between atoms: C_4  and  O_11 
REMARK    5  A    between atoms: C_15  and  C_18 
REMARK       I    between atoms: C_15  and  N_16 
ROOT
HETATM    1  C   UNL     1       8.892  20.142  23.780  1.00  0.00     0.255 C 
HETATM    2  C   UNL     1       8.311  18.733  23.946  1.00  0.00     0.198 C 
HETATM    3  C   UNL     1       6.797  18.761  23.962  1.00  0.00     0.182 C 
HETATM    4  C   UNL     1       6.263  19.494  22.742  1.00  0.00     0.178 C 
HETATM    5  C   UNL     1       6.871  20.882  22.647  1.00  0.00     0.151 C 
HETATM    6  C   UNL     1       6.463  21.596  21.378  1.00  0.00     0.042 C 
HETATM    7  O   UNL     1       8.312  20.797  22.649  1.00  0.00    -0.356 OA
ENDROOT
BRANCH   1   8
HETATM    8  N   UNL     1       8.745  20.916  24.988  1.00  0.00    -0.328 N 
HETATM    9  C   UNL     1       9.712  21.702  25.425  1.00  0.00     0.253 C 
HETATM   10  O   UNL     1      10.670  22.010  24.713  1.00  0.00    -0.268 OA
ATOM     11  HN  UNL     1       7.874  20.855  25.517  1.00  0.00     0.165 HD
BRANCH   9  12
HETATM   12  C   UNL     1       9.618  22.177  26.843  1.00  0.00     0.032 A 
HETATM   13  C   UNL     1      10.431  21.629  27.840  1.00  0.00     0.017 A 
HETATM   14  C   UNL     1      10.336  22.082  29.151  1.00  0.00     0.001 A 
HETATM   15  C   UNL     1       9.455  23.094  29.451  1.00  0.00     0.000 A 
HETATM   16  C   UNL     1       8.663  23.647  28.464  1.00  0.00     0.001 A 
HETATM   17  C   UNL     1       8.731  23.185  27.160  1.00  0.00     0.017 A 
ENDBRANCH   9  12
ENDBRANCH   1   8
BRANCH   2  18
HETATM   18  O   UNL     1       8.789  18.114  25.132  1.00  0.00    -0.389 OA
ATOM     19  HO  UNL     1       8.145  18.209  25.824  1.00  0.00     0.210 HD
ENDBRANCH   2  18
BRANCH   3  20
HETATM   20  O   UNL     1       6.305  17.424  23.970  1.00  0.00    -0.390 OA
ATOM     21  HO  UNL     1       5.358  17.434  23.892  1.00  0.00     0.210 HD
ENDBRANCH   3  20
BRANCH   4  22
HETATM   22  O   UNL     1       6.583  18.678  21.601  1.00  0.00    -0.390 OA
ATOM     23  HO  UNL     1       6.181  17.819  21.648  1.00  0.00     0.210 HD
ENDBRANCH   4  22
TORSDOF 5
ENDMDL
MODEL 11
REMARK VINA RESULT:    -5.253      3.990      7.876
REMARK INTER + INTRA:          -6.740
REMARK INTER:                  -6.350
REMARK INTRA:                  -0.390
REMARK UNBOUND:                -0.412
REMARK  5 active torsions:
REMARK  status: ('A' for Active; 'I' for Inactive)
REMARK    1  A    between atoms: C_1  and  N_16 
REMARK    2  A    between atoms: C_2  and  O_7 
REMARK    3  A    between atoms: C_3  and  O_9 
REMARK    4  A    between atoms: C_4  and  O_11 
REMARK    5  A    between atoms: C_15  and  C_18 
REMARK       I    between atoms: C_15  and  N_16 
ROOT
HETATM    1  C   UNL     1       9.461  18.601  23.600  1.00  0.00     0.255 C 
HETATM    2  C   UNL     1       8.101  18.337  22.941  1.00  0.00     0.198 C 
HETATM    3  C   UNL     1       6.972  18.464  23.942  1.00  0.00     0.182 C 
HETATM    4  C   UNL     1       7.044  19.802  24.663  1.00  0.00     0.178 C 
HETATM    5  C   UNL     1       8.411  19.990  25.298  1.00  0.00     0.151 C 
HETATM    6  C   UNL     1       8.567  21.361  25.916  1.00  0.00     0.042 C 
HETATM    7  O   UNL     1       9.448  19.846  24.304  1.00  0.00    -0.356 OA
ENDROOT
BRANCH   1   8
HETATM    8  N   UNL     1       9.855  17.504  24.447  1.00  0.00    -0.328 N 
HETATM    9  C   UNL     1      10.915  16.765  24.171  1.00  0.00     0.253 C 
HETATM   10  O   UNL     1      11.753  17.118  23.339  1.00  0.00    -0.268 OA
ATOM     11  HN  UNL     1       9.303  17.292  25.279  1.00  0.00     0.165 HD
BRANCH   9  12
HETATM   12  C   UNL     1      11.039  15.454  24.885  1.00  0.00     0.032 A 
HETATM   13  C   UNL     1      10.716  15.341  26.241  1.00  0.00     0.017 A 
HETATM   14  C   UNL     1      10.830  14.117  26.890  1.00  0.00     0.001 A 
HETATM   15  C   UNL     1      11.237  13.013  26.179  1.00  0.00     0.000 A 
HETATM   16  C   UNL     1      11.541  13.121  24.836  1.00  0.00     0.001 A 
HETATM   17  C   UNL     1      11.456  14.340  24.186  1.00  0.00     0.017 A 
ENDBRANCH   9  12
ENDBRANCH   1   8
BRANCH   2  18
HETATM   18  O   UNL     1       8.061  17.052  22.337  1.00  0.00    -0.389 OA
ATOM     19  HO  UNL     1       8.057  17.144  21.392  1.00  0.00     0.210 HD
ENDBRANCH   2  18
BRANCH   3  20
HETATM   20  O   UNL     1       5.727  18.357  23.259  1.00  0.00    -0.390 OA
ATOM     21  HO  UNL     1       5.511  17.441  23.134  1.00  0.00     0.210 HD
ENDBRANCH   3  20
BRANCH   4  22
HETATM   22  O   UNL     1       6.754  20.812  23.682  1.00  0.00    -0.390 OA
ATOM     23  HO  UNL     1       7.003  20.545  22.805  1.00  0.00     0.210 HD
ENDBRANCH   4  22
TORSDOF 5
ENDMDL
MODEL 12
REMARK VINA RESULT:    -5.135      3.191      4.484
REMARK INTER + INTRA:          -6.597
REMARK INTER:                  -6.255
REMARK INTRA:                  -0.342
REMARK UNBOUND:                -0.412
REMARK  5 active torsions:
REMARK  status: ('A' for Active; 'I' for Inactive)
REMARK    1  A    between atoms: C_1  and  N_16 
REMARK    2  A    between atoms: C_2  and  O_7 
REMARK    3  A    between atoms: C_3  and  O_9 
REMARK    4  A    between atoms: C_4  and  O_11 
REMARK    5  A    between atoms: C_15  and  C_18 
REMARK       I    between atoms: C_15  and  N_16 
ROOT
HETATM    1  C   UNL     1       7.453  21.229  22.353  1.00  0.00     0.255 C 
HETATM    2  C   UNL     1       7.286  19.966  23.206  1.00  0.00     0.198 C 
HETATM    3  C   UNL     1       7.549  20.252  24.669  1.00  0.00     0.182 C 
HETATM    4  C   UNL     1       6.698  21.418  25.147  1.00  0.00     0.178 C 
HETATM    5  C   UNL     1       6.922  22.635  24.266  1.00  0.00     0.151 C 
HETATM    6  C   UNL     1       6.000  23.778  24.629  1.00  0.00     0.042 C 
HETATM    7  O   UNL     1       6.671  22.303  22.883  1.00  0.00    -0.356 OA
ENDROOT
BRANCH   1   8
HETATM    8  N   UNL     1       8.842  21.588  22.214  1.00  0.00    -0.328 N 
HETATM    9  C   UNL     1       9.275  22.276  21.172  1.00  0.00     0.253 C 
HETATM   10  O   UNL     1       8.500  22.854  20.408  1.00  0.00    -0.268 OA
ATOM     11  HN  UNL     1       9.505  21.306  22.935  1.00  0.00     0.165 HD
BRANCH   9  12
HETATM   12  C   UNL     1      10.754  22.291  20.932  1.00  0.00     0.032 A 
HETATM   13  C   UNL     1      11.410  23.469  20.560  1.00  0.00     0.017 A 
HETATM   14  C   UNL     1      12.784  23.470  20.345  1.00  0.00     0.001 A 
HETATM   15  C   UNL     1      13.495  22.308  20.530  1.00  0.00     0.000 A 
HETATM   16  C   UNL     1      12.850  21.148  20.913  1.00  0.00     0.001 A 
HETATM   17  C   UNL     1      11.479  21.129  21.104  1.00  0.00     0.017 A 
ENDBRANCH   9  12
ENDBRANCH   1   8
BRANCH   2  18
HETATM   18  O   UNL     1       8.146  18.925  22.761  1.00  0.00    -0.389 OA
ATOM     19  HO  UNL     1       8.771  18.715  23.445  1.00  0.00     0.210 HD
ENDBRANCH   2  18
BRANCH   3  20
HETATM   20  O   UNL     1       7.240  19.091  25.435  1.00  0.00    -0.390 OA
ATOM     21  HO  UNL     1       7.566  18.319  24.987  1.00  0.00     0.210 HD
ENDBRANCH   3  20
BRANCH   4  22
HETATM   22  O   UNL     1       5.333  20.969  25.120  1.00  0.00    -0.390 OA
ATOM     23  HO  UNL     1       5.084  20.522  25.921  1.00  0.00     0.210 HD
ENDBRANCH   4  22
TORSDOF 5
ENDMDL
MODEL 13
REMARK VINA RESULT:    -5.099      2.599      3.275
REMARK INTER + INTRA:          -6.555
REMARK INTER:                  -6.136
REMARK INTRA:                  -0.418
REMARK UNBOUND:                -0.412
REMARK  5 active torsions:
REMARK  status: ('A' for Active; 'I' for Inactive)
REMARK    1  A    between atoms: C_1  and  N_16 
REMARK    2  A    between atoms: C_2  and  O_7 
REMARK    3  A    between atoms: C_3  and  O_9 
REMARK    4  A    between atoms: C_4  and  O_11 
REMARK    5  A    between atoms: C_15  and  C_18 
REMARK       I    between atoms: C_15  and  N_16 
ROOT
HETATM    1  C   UNL     1       5.720  20.978  24.350  1.00  0.00     0.255 C 
HETATM    2  C   UNL     1       6.356  21.165  22.968  1.00  0.00     0.198 C 
HETATM    3  C   UNL     1       7.867  21.171  23.055  1.00  0.00     0.182 C 
HETATM    4  C   UNL     1       8.366  19.934  23.785  1.00  0.00     0.178 C 
HETATM    5  C   UNL     1       7.704  19.818  25.147  1.00  0.00     0.151 C 
HETATM    6  C   UNL     1       8.076  18.534  25.853  1.00  0.00     0.042 C 
HETATM    7  O   UNL     1       6.267  19.831  25.006  1.00  0.00    -0.356 OA
ENDROOT
BRANCH   1   8
HETATM    8  N   UNL     1       5.843  22.170  25.151  1.00  0.00    -0.328 N 
HETATM    9  C   UNL     1       4.780  22.818  25.592  1.00  0.00     0.253 C 
HETATM   10  O   UNL     1       3.655  22.315  25.563  1.00  0.00    -0.268 OA
ATOM     11  HN  UNL     1       6.773  22.522  25.382  1.00  0.00     0.165 HD
BRANCH   9  12
HETATM   12  C   UNL     1       4.991  24.213  26.097  1.00  0.00     0.032 A 
HETATM   13  C   UNL     1       6.026  25.009  25.597  1.00  0.00     0.017 A 
HETATM   14  C   UNL     1       6.208  26.303  26.071  1.00  0.00     0.001 A 
HETATM   15  C   UNL     1       5.341  26.802  27.014  1.00  0.00     0.000 A 
HETATM   16  C   UNL     1       4.309  26.022  27.497  1.00  0.00     0.001 A 
HETATM   17  C   UNL     1       4.135  24.723  27.051  1.00  0.00     0.017 A 
ENDBRANCH   9  12
ENDBRANCH   1   8
BRANCH   2  18
HETATM   18  O   UNL     1       5.909  22.366  22.352  1.00  0.00    -0.389 OA
ATOM     19  HO  UNL     1       5.091  22.642  22.749  1.00  0.00     0.210 HD
ENDBRANCH   2  18
BRANCH   3  20
HETATM   20  O   UNL     1       8.411  21.200  21.738  1.00  0.00    -0.390 OA
ATOM     21  HO  UNL     1       9.305  20.880  21.757  1.00  0.00     0.210 HD
ENDBRANCH   3  20
BRANCH   4  22
HETATM   22  O   UNL     1       8.071  18.811  22.937  1.00  0.00    -0.390 OA
ATOM     23  HO  UNL     1       7.454  19.031  22.249  1.00  0.00     0.210 HD
ENDBRANCH   4  22
TORSDOF 5
ENDMDL
MODEL 14
REMARK VINA RESULT:    -5.092      2.935      4.407
REMARK INTER + INTRA:          -6.546
REMARK INTER:                  -6.158
REMARK INTRA:                  -0.388
REMARK UNBOUND:                -0.412
REMARK  5 active torsions:
REMARK  status: ('A' for Active; 'I' for Inactive)
REMARK    1  A    between atoms: C_1  and  N_16 
REMARK    2  A    between atoms: C_2  and  O_7 
REMARK    3  A    between atoms: C_3  and  O_9 
REMARK    4  A    between atoms: C_4  and  O_11 
REMARK    5  A    between atoms: C_15  and  C_18 
REMARK       I    between atoms: C_15  and  N_16 
ROOT
HETATM    1  C   UNL     1       7.349  21.740  24.727  1.00  0.00     0.255 C 
HETATM    2  C   UNL     1       6.980  20.450  23.985  1.00  0.00     0.198 C 
HETATM    3  C   UNL     1       6.706  20.717  22.520  1.00  0.00     0.182 C 
HETATM    4  C   UNL     1       7.868  21.467  21.887  1.00  0.00     0.178 C 
HETATM    5  C   UNL     1       8.169  22.735  22.665  1.00  0.00     0.151 C 
HETATM    6  C   UNL     1       9.399  23.444  22.143  1.00  0.00     0.042 C 
HETATM    7  O   UNL     1       8.409  22.424  24.054  1.00  0.00    -0.356 OA
ENDROOT
BRANCH   1   8
HETATM    8  N   UNL     1       6.195  22.583  24.917  1.00  0.00    -0.328 N 
HETATM    9  C   UNL     1       6.075  23.358  25.981  1.00  0.00     0.253 C 
HETATM   10  O   UNL     1       7.030  23.592  26.725  1.00  0.00    -0.268 OA
ATOM     11  HN  UNL     1       5.455  22.582  24.215  1.00  0.00     0.165 HD
BRANCH   9  12
HETATM   12  C   UNL     1       4.714  23.912  26.271  1.00  0.00     0.032 A 
HETATM   13  C   UNL     1       4.474  24.661  27.427  1.00  0.00     0.017 A 
HETATM   14  C   UNL     1       3.207  25.174  27.682  1.00  0.00     0.001 A 
HETATM   15  C   UNL     1       2.199  24.962  26.770  1.00  0.00     0.000 A 
HETATM   16  C   UNL     1       2.439  24.235  25.620  1.00  0.00     0.001 A 
HETATM   17  C   UNL     1       3.691  23.698  25.370  1.00  0.00     0.017 A 
ENDBRANCH   9  12
ENDBRANCH   1   8
BRANCH   2  18
HETATM   18  O   UNL     1       5.852  19.819  24.575  1.00  0.00    -0.389 OA
ATOM     19  HO  UNL     1       6.141  19.116  25.144  1.00  0.00     0.210 HD
ENDBRANCH   2  18
BRANCH   3  20
HETATM   20  O   UNL     1       6.514  19.477  21.847  1.00  0.00    -0.390 OA
ATOM     21  HO  UNL     1       7.274  18.922  21.980  1.00  0.00     0.210 HD
ENDBRANCH   3  20
BRANCH   4  22
HETATM   22  O   UNL     1       8.982  20.558  21.871  1.00  0.00    -0.390 OA
ATOM     23  HO  UNL     1       9.504  20.641  21.082  1.00  0.00     0.210 HD
ENDBRANCH   4  22
TORSDOF 5
ENDMDL
MODEL 15
REMARK VINA RESULT:    -5.087     10.007     12.124
REMARK INTER + INTRA:          -6.540
REMARK INTER:                  -6.126
REMARK INTRA:                  -0.414
REMARK UNBOUND:                -0.412
REMARK  5 active torsions:
REMARK  status: ('A' for Active; 'I' for Inactive)
REMARK    1  A    between atoms: C_1  and  N_16 
REMARK    2  A    between atoms: C_2  and  O_7 
REMARK    3  A    between atoms: C_3  and  O_9 
REMARK    4  A    between atoms: C_4  and  O_11 
REMARK    5  A    between atoms: C_15  and  C_18 
REMARK       I    between atoms: C_15  and  N_16 
ROOT
HETATM    1  C   UNL     1      -0.667  26.178  17.520  1.00  0.00     0.255 C 
HETATM    2  C   UNL     1       0.656  25.812  18.203  1.00  0.00     0.198 C 
HETATM    3  C   UNL     1       1.564  27.017  18.324  1.00  0.00     0.182 C 
HETATM    4  C   UNL     1       0.836  28.170  18.998  1.00  0.00     0.178 C 
HETATM    5  C   UNL     1      -0.456  28.484  18.264  1.00  0.00     0.151 C 
HETATM    6  C   UNL     1      -1.272  29.540  18.976  1.00  0.00     0.042 C 
HETATM    7  O   UNL     1      -1.275  27.300  18.166  1.00  0.00    -0.356 OA
ENDROOT
BRANCH   1   8
HETATM    8  N   UNL     1      -0.485  26.401  16.108  1.00  0.00    -0.328 N 
HETATM    9  C   UNL     1      -1.351  25.945  15.220  1.00  0.00     0.253 C 
HETATM   10  O   UNL     1      -2.466  25.537  15.551  1.00  0.00    -0.268 OA
ATOM     11  HN  UNL     1       0.332  26.922  15.786  1.00  0.00     0.165 HD
BRANCH   9  12
HETATM   12  C   UNL     1      -0.906  25.908  13.790  1.00  0.00     0.032 A 
HETATM   13  C   UNL     1       0.394  25.523  13.451  1.00  0.00     0.017 A 
HETATM   14  C   UNL     1       0.792  25.488  12.120  1.00  0.00     0.001 A 
HETATM   15  C   UNL     1      -0.115  25.808  11.137  1.00  0.00     0.000 A 
HETATM   16  C   UNL     1      -1.405  26.173  11.470  1.00  0.00     0.001 A 
HETATM   17  C   UNL     1      -1.804  26.237  12.795  1.00  0.00     0.017 A 
ENDBRANCH   9  12
ENDBRANCH   1   8
BRANCH   2  18
HETATM   18  O   UNL     1       1.329  24.776  17.502  1.00  0.00    -0.389 OA
ATOM     19  HO  UNL     1       2.152  24.580  17.935  1.00  0.00     0.210 HD
ENDBRANCH   2  18
BRANCH   3  20
HETATM   20  O   UNL     1       2.711  26.663  19.091  1.00  0.00    -0.390 OA
ATOM     21  HO  UNL     1       2.888  27.344  19.730  1.00  0.00     0.210 HD
ENDBRANCH   3  20
BRANCH   4  22
HETATM   22  O   UNL     1       0.607  27.770  20.360  1.00  0.00    -0.390 OA
ATOM     23  HO  UNL     1       1.390  27.424  20.771  1.00  0.00     0.210 HD
ENDBRANCH   4  22
TORSDOF 5
ENDMDL
MODEL 16
REMARK VINA RESULT:    -5.040      2.863      3.835
REMARK INTER + INTRA:          -6.483
REMARK INTER:                  -6.063
REMARK INTRA:                  -0.419
REMARK UNBOUND:                -0.412
REMARK  5 active torsions:
REMARK  status: ('A' for Active; 'I' for Inactive)
REMARK    1  A    between atoms: C_1  and  N_16 
REMARK    2  A    between atoms: C_2  and  O_7 
REMARK    3  A    between atoms: C_3  and  O_9 
REMARK    4  A    between atoms: C_4  and  O_11 
REMARK    5  A    between atoms: C_15  and  C_18 
REMARK       I    between atoms: C_15  and  N_16 
ROOT
HETATM    1  C   UNL     1       6.743  21.478  23.927  1.00  0.00     0.255 C 
HETATM    2  C   UNL     1       6.714  21.531  22.395  1.00  0.00     0.198 C 
HETATM    3  C   UNL     1       7.805  22.432  21.856  1.00  0.00     0.182 C 
HETATM    4  C   UNL     1       9.159  22.028  22.420  1.00  0.00     0.178 C 
HETATM    5  C   UNL     1       9.117  22.007  23.937  1.00  0.00     0.151 C 
HETATM    6  C   UNL     1      10.406  21.487  24.535  1.00  0.00     0.042 C 
HETATM    7  O   UNL     1       8.053  21.146  24.395  1.00  0.00    -0.356 OA
ENDROOT
BRANCH   1   8
HETATM    8  N   UNL     1       6.256  22.705  24.504  1.00  0.00    -0.328 N 
HETATM    9  C   UNL     1       5.173  22.730  25.260  1.00  0.00     0.253 C 
HETATM   10  O   UNL     1       4.674  21.698  25.713  1.00  0.00    -0.268 OA
ATOM     11  HN  UNL     1       6.760  23.575  24.326  1.00  0.00     0.165 HD
BRANCH   9  12
HETATM   12  C   UNL     1       4.548  24.068  25.513  1.00  0.00     0.032 A 
HETATM   13  C   UNL     1       3.820  24.312  26.681  1.00  0.00     0.017 A 
HETATM   14  C   UNL     1       3.249  25.560  26.905  1.00  0.00     0.001 A 
HETATM   15  C   UNL     1       3.433  26.560  25.980  1.00  0.00     0.000 A 
HETATM   16  C   UNL     1       4.165  26.325  24.833  1.00  0.00     0.001 A 
HETATM   17  C   UNL     1       4.715  25.078  24.587  1.00  0.00     0.017 A 
ENDBRANCH   9  12
ENDBRANCH   1   8
BRANCH   2  18
HETATM   18  O   UNL     1       5.451  21.974  21.917  1.00  0.00    -0.389 OA
ATOM     19  HO  UNL     1       5.546  22.322  21.038  1.00  0.00     0.210 HD
ENDBRANCH   2  18
BRANCH   3  20
HETATM   20  O   UNL     1       7.832  22.335  20.435  1.00  0.00    -0.390 OA
ATOM     21  HO  UNL     1       7.124  21.773  20.141  1.00  0.00     0.210 HD
ENDBRANCH   3  20
BRANCH   4  22
HETATM   22  O   UNL     1       9.466  20.739  21.864  1.00  0.00    -0.390 OA
ATOM     23  HO  UNL     1       8.689  20.209  21.729  1.00  0.00     0.210 HD
ENDBRANCH   4  22
TORSDOF 5
ENDMDL
MODEL 17
REMARK VINA RESULT:    -5.039      1.373      2.083
REMARK INTER + INTRA:          -6.482
REMARK INTER:                  -6.145
REMARK INTRA:                  -0.336
REMARK UNBOUND:                -0.412
REMARK  5 active torsions:
REMARK  status: ('A' for Active; 'I' for Inactive)
REMARK    1  A    between atoms: C_1  and  N_16 
REMARK    2  A    between atoms: C_2  and  O_7 
REMARK    3  A    between atoms: C_3  and  O_9 
REMARK    4  A    between atoms: C_4  and  O_11 
REMARK    5  A    between atoms: C_15  and  C_18 
REMARK       I    between atoms: C_15  and  N_16 
ROOT
HETATM    1  C   UNL     1       7.084  21.523  24.530  1.00  0.00     0.255 C 
HETATM    2  C   UNL     1       5.876  21.394  23.594  1.00  0.00     0.198 C 
HETATM    3  C   UNL     1       6.259  20.726  22.291  1.00  0.00     0.182 C 
HETATM    4  C   UNL     1       6.961  19.403  22.554  1.00  0.00     0.178 C 
HETATM    5  C   UNL     1       8.150  19.607  23.476  1.00  0.00     0.151 C 
HETATM    6  C   UNL     1       8.799  18.297  23.865  1.00  0.00     0.042 C 
HETATM    7  O   UNL     1       7.731  20.258  24.695  1.00  0.00    -0.356 OA
ENDROOT
BRANCH   1   8
HETATM    8  N   UNL     1       7.996  22.541  24.073  1.00  0.00    -0.328 N 
HETATM    9  C   UNL     1       7.872  23.800  24.456  1.00  0.00     0.253 C 
HETATM   10  O   UNL     1       7.147  24.123  25.399  1.00  0.00    -0.268 OA
ATOM     11  HN  UNL     1       8.754  22.285  23.440  1.00  0.00     0.165 HD
BRANCH   9  12
HETATM   12  C   UNL     1       8.621  24.830  23.667  1.00  0.00     0.032 A 
HETATM   13  C   UNL     1       9.998  25.006  23.840  1.00  0.00     0.017 A 
HETATM   14  C   UNL     1      10.682  25.962  23.098  1.00  0.00     0.001 A 
HETATM   15  C   UNL     1       9.996  26.713  22.172  1.00  0.00     0.000 A 
HETATM   16  C   UNL     1       8.639  26.529  21.990  1.00  0.00     0.001 A 
HETATM   17  C   UNL     1       7.944  25.598  22.742  1.00  0.00     0.017 A 
ENDBRANCH   9  12
ENDBRANCH   1   8
BRANCH   2  18
HETATM   18  O   UNL     1       5.293  22.662  23.327  1.00  0.00    -0.389 OA
ATOM     19  HO  UNL     1       5.760  23.084  22.615  1.00  0.00     0.210 HD
ENDBRANCH   2  18
BRANCH   3  20
HETATM   20  O   UNL     1       5.084  20.497  21.520  1.00  0.00    -0.390 OA
ATOM     21  HO  UNL     1       5.318  20.078  20.700  1.00  0.00     0.210 HD
ENDBRANCH   3  20
BRANCH   4  22
HETATM   22  O   UNL     1       5.976  18.522  23.120  1.00  0.00    -0.390 OA
ATOM     23  HO  UNL     1       6.332  17.981  23.815  1.00  0.00     0.210 HD
ENDBRANCH   4  22
TORSDOF 5
ENDMDL
MODEL 18
REMARK VINA RESULT:    -5.030      2.346      3.137
REMARK INTER + INTRA:          -6.471
REMARK INTER:                  -6.052
REMARK INTRA:                  -0.419
REMARK UNBOUND:                -0.412
REMARK  5 active torsions:
REMARK  status: ('A' for Active; 'I' for Inactive)
REMARK    1  A    between atoms: C_1  and  N_16 
REMARK    2  A    between atoms: C_2  and  O_7 
REMARK    3  A    between atoms: C_3  and  O_9 
REMARK    4  A    between atoms: C_4  and  O_11 
REMARK    5  A    between atoms: C_15  and  C_18 
REMARK       I    between atoms: C_15  and  N_16 
ROOT
HETATM    1  C   UNL     1       7.860  20.161  25.421  1.00  0.00     0.255 C 
HETATM    2  C   UNL     1       6.413  20.160  24.914  1.00  0.00     0.198 C 
HETATM    3  C   UNL     1       6.358  20.002  23.409  1.00  0.00     0.182 C 
HETATM    4  C   UNL     1       7.152  18.781  22.971  1.00  0.00     0.178 C 
HETATM    5  C   UNL     1       8.574  18.854  23.498  1.00  0.00     0.151 C 
HETATM    6  C   UNL     1       9.359  17.598  23.192  1.00  0.00     0.042 C 
HETATM    7  O   UNL     1       8.567  19.018  24.932  1.00  0.00    -0.356 OA
ENDROOT
BRANCH   1   8
HETATM    8  N   UNL     1       8.531  21.394  25.091  1.00  0.00    -0.328 N 
HETATM    9  C   UNL     1       8.972  22.211  26.031  1.00  0.00     0.253 C 
HETATM   10  O   UNL     1       9.062  21.858  27.208  1.00  0.00    -0.268 OA
ATOM     11  HN  UNL     1       8.668  21.641  24.111  1.00  0.00     0.165 HD
BRANCH   9  12
HETATM   12  C   UNL     1       9.323  23.606  25.612  1.00  0.00     0.032 A 
HETATM   13  C   UNL     1      10.411  24.275  26.180  1.00  0.00     0.017 A 
HETATM   14  C   UNL     1      10.728  25.568  25.778  1.00  0.00     0.001 A 
HETATM   15  C   UNL     1       9.979  26.171  24.795  1.00  0.00     0.000 A 
HETATM   16  C   UNL     1       8.914  25.504  24.222  1.00  0.00     0.001 A 
HETATM   17  C   UNL     1       8.573  24.227  24.633  1.00  0.00     0.017 A 
ENDBRANCH   9  12
ENDBRANCH   1   8
BRANCH   2  18
HETATM   18  O   UNL     1       5.732  21.348  25.293  1.00  0.00    -0.389 OA
ATOM     19  HO  UNL     1       6.172  21.744  26.037  1.00  0.00     0.210 HD
ENDBRANCH   2  18
BRANCH   3  20
HETATM   20  O   UNL     1       5.000  19.859  23.004  1.00  0.00    -0.390 OA
ATOM     21  HO  UNL     1       4.747  18.944  23.055  1.00  0.00     0.210 HD
ENDBRANCH   3  20
BRANCH   4  22
HETATM   22  O   UNL     1       6.444  17.632  23.467  1.00  0.00    -0.390 OA
ATOM     23  HO  UNL     1       6.584  17.496  24.397  1.00  0.00     0.210 HD
ENDBRANCH   4  22
TORSDOF 5
ENDMDL
MODEL 19
REMARK VINA RESULT:    -4.978      9.727     11.546
REMARK INTER + INTRA:          -6.409
REMARK INTER:                  -6.070
REMARK INTRA:                  -0.339
REMARK UNBOUND:                -0.412
REMARK  5 active torsions:
REMARK  status: ('A' for Active; 'I' for Inactive)
REMARK    1  A    between atoms: C_1  and  N_16 
REMARK    2  A    between atoms: C_2  and  O_7 
REMARK    3  A    between atoms: C_3  and  O_9 
REMARK    4  A    between atoms: C_4  and  O_11 
REMARK    5  A    between atoms: C_15  and  C_18 
REMARK       I    between atoms: C_15  and  N_16 
ROOT
HETATM    1  C   UNL     1       0.144  25.110  15.415  1.00  0.00     0.255 C 
HETATM    2  C   UNL     1       0.538  25.112  16.896  1.00  0.00     0.198 C 
HETATM    3  C   UNL     1       0.799  26.518  17.393  1.00  0.00     0.182 C 
HETATM    4  C   UNL     1      -0.384  27.423  17.083  1.00  0.00     0.178 C 
HETATM    5  C   UNL     1      -0.711  27.379  15.601  1.00  0.00     0.151 C 
HETATM    6  C   UNL     1      -1.960  28.165  15.271  1.00  0.00     0.042 C 
HETATM    7  O   UNL     1      -0.936  26.017  15.179  1.00  0.00    -0.356 OA
ENDROOT
BRANCH   1   8
HETATM    8  N   UNL     1       1.277  25.386  14.569  1.00  0.00    -0.328 N 
HETATM    9  C   UNL     1       2.015  24.413  14.065  1.00  0.00     0.253 C 
HETATM   10  O   UNL     1       1.638  23.240  14.077  1.00  0.00    -0.268 OA
ATOM     11  HN  UNL     1       1.516  26.355  14.355  1.00  0.00     0.165 HD
BRANCH   9  12
HETATM   12  C   UNL     1       3.355  24.790  13.509  1.00  0.00     0.032 A 
HETATM   13  C   UNL     1       4.383  25.230  14.348  1.00  0.00     0.017 A 
HETATM   14  C   UNL     1       5.623  25.572  13.820  1.00  0.00     0.001 A 
HETATM   15  C   UNL     1       5.836  25.445  12.467  1.00  0.00     0.000 A 
HETATM   16  C   UNL     1       4.826  24.996  11.640  1.00  0.00     0.001 A 
HETATM   17  C   UNL     1       3.579  24.678  12.152  1.00  0.00     0.017 A 
ENDBRANCH   9  12
ENDBRANCH   1   8
BRANCH   2  18
HETATM   18  O   UNL     1       1.685  24.305  17.126  1.00  0.00    -0.389 OA
ATOM     19  HO  UNL     1       2.433  24.860  17.315  1.00  0.00     0.210 HD
ENDBRANCH   2  18
BRANCH   3  20
HETATM   20  O   UNL     1       1.016  26.484  18.801  1.00  0.00    -0.390 OA
ATOM     21  HO  UNL     1       0.526  27.184  19.215  1.00  0.00     0.210 HD
ENDBRANCH   3  20
BRANCH   4  22
HETATM   22  O   UNL     1      -1.476  26.963  17.897  1.00  0.00    -0.390 OA
ATOM     23  HO  UNL     1      -1.842  27.655  18.435  1.00  0.00     0.210 HD
ENDBRANCH   4  22
TORSDOF 5
ENDMDL
MODEL 20
REMARK VINA RESULT:    -4.924      1.789      2.446
REMARK INTER + INTRA:          -6.344
REMARK INTER:                  -5.936
REMARK INTRA:                  -0.408
REMARK UNBOUND:                -0.412
REMARK  5 active torsions:
REMARK  status: ('A' for Active; 'I' for Inactive)
REMARK    1  A    between atoms: C_1  and  N_16 
REMARK    2  A    between atoms: C_2  and  O_7 
REMARK    3  A    between atoms: C_3  and  O_9 
REMARK    4  A    between atoms: C_4  and  O_11 
REMARK    5  A    between atoms: C_15  and  C_18 
REMARK       I    between atoms: C_15  and  N_16 
ROOT
HETATM    1  C   UNL     1       7.822  21.256  24.698  1.00  0.00     0.255 C 
HETATM    2  C   UNL     1       6.777  20.134  24.667  1.00  0.00     0.198 C 
HETATM    3  C   UNL     1       6.802  19.398  23.344  1.00  0.00     0.182 C 
HETATM    4  C   UNL     1       8.209  18.919  23.024  1.00  0.00     0.178 C 
HETATM    5  C   UNL     1       9.187  20.081  23.063  1.00  0.00     0.151 C 
HETATM    6  C   UNL     1      10.617  19.627  22.876  1.00  0.00     0.042 C 
HETATM    7  O   UNL     1       9.112  20.754  24.338  1.00  0.00    -0.356 OA
ENDROOT
BRANCH   1   8
HETATM    8  N   UNL     1       7.424  22.368  23.872  1.00  0.00    -0.328 N 
HETATM    9  C   UNL     1       7.580  23.616  24.275  1.00  0.00     0.253 C 
HETATM   10  O   UNL     1       8.288  23.903  25.242  1.00  0.00    -0.268 OA
ATOM     11  HN  UNL     1       7.013  22.187  22.956  1.00  0.00     0.165 HD
BRANCH   9  12
HETATM   12  C   UNL     1       6.825  24.673  23.528  1.00  0.00     0.032 A 
HETATM   13  C   UNL     1       7.436  25.408  22.508  1.00  0.00     0.017 A 
HETATM   14  C   UNL     1       6.722  26.383  21.820  1.00  0.00     0.001 A 
HETATM   15  C   UNL     1       5.401  26.596  22.133  1.00  0.00     0.000 A 
HETATM   16  C   UNL     1       4.792  25.860  23.131  1.00  0.00     0.001 A 
HETATM   17  C   UNL     1       5.501  24.905  23.840  1.00  0.00     0.017 A 
ENDBRANCH   9  12
ENDBRANCH   1   8
BRANCH   2  18
HETATM   18  O   UNL     1       5.471  20.639  24.907  1.00  0.00    -0.389 OA
ATOM     19  HO  UNL     1       5.423  21.545  24.628  1.00  0.00     0.210 HD
ENDBRANCH   2  18
BRANCH   3  20
HETATM   20  O   UNL     1       5.922  18.279  23.416  1.00  0.00    -0.390 OA
ATOM     21  HO  UNL     1       6.350  17.568  23.878  1.00  0.00     0.210 HD
ENDBRANCH   3  20
BRANCH   4  22
HETATM   22  O   UNL     1       8.528  17.905  23.992  1.00  0.00    -0.390 OA
ATOM     23  HO  UNL     1       8.423  17.028  23.644  1.00  0.00     0.210 HD
ENDBRANCH   4  22
TORSDOF 5
ENDMDL
