REMARK  7 active torsions:
REMARK  status: ('A' for Active; 'I' for Inactive)
REMARK    1  A    between atoms: C_1  and  N_21 
REMARK    2  A    between atoms: C_2  and  C_3 
REMARK    3  A    between atoms: C_2  and  N_19 
REMARK    4  A    between atoms: C_7  and  N_25 
REMARK    5  A    between atoms: C_9  and  N_21 
REMARK    6  A    between atoms: C_18  and  N_19 
REMARK    7  A    between atoms: N_25  and  S_26 
ROOT
HETATM    1  C   UNL     1       2.824   3.189 -22.939  1.00  0.00     0.684 A 
HETATM    2  N   UNL     1       2.079   3.808 -22.009  1.00  0.00    -0.177 N 
ATOM      3  HN  UNL     1       2.336   4.719 -21.628  1.00  0.00     0.186 HD
HETATM    4  N   UNL     1       2.569   1.999 -23.502  1.00  0.00    -0.202 N 
ATOM      5  HN  UNL     1       3.178   1.590 -24.211  1.00  0.00     0.183 HD
HETATM    6  C   UNL     1       1.461   1.385 -23.070  1.00  0.00     0.110 A 
HETATM    7  C   UNL     1       0.616   1.915 -22.121  1.00  0.00     0.066 A 
HETATM    8  C   UNL     1       0.976   3.157 -21.611  1.00  0.00     0.118 A 
ENDROOT
BRANCH   8   9
HETATM    9  N   UNL     1       0.197   3.761 -20.675  1.00  0.00    -0.371 N 
ATOM     10  HN  UNL     1      -0.542   3.214 -20.234  1.00  0.00     0.161 HD
BRANCH   9  11
HETATM   11  C   UNL     1       0.364   5.145 -20.271  1.00  0.00     0.163 C 
BRANCH  11  12
HETATM   12  C   UNL     1      -0.408   6.135 -21.108  1.00  0.00     0.004 A 
HETATM   13  C   UNL     1      -1.374   5.740 -22.029  1.00  0.00     0.014 A 
HETATM   14  C   UNL     1      -2.044   6.686 -22.785  1.00  0.00     0.018 A 
HETATM   15  C   UNL     1      -1.740   8.017 -22.602  1.00  0.00     0.090 A 
HETATM   16  N   UNL     1      -0.825   8.457 -21.728  1.00  0.00    -0.351 N 
HETATM   17  C   UNL     1      -0.188   7.520 -21.014  1.00  0.00     0.124 A 
ATOM     18  HN  UNL     1      -0.625   9.450 -21.613  1.00  0.00     0.166 HD
BRANCH  17  19
HETATM   19  N   UNL     1       0.810   7.987 -20.085  1.00  0.00    -0.265 N 
HETATM   20  C   UNL     1       2.006   8.599 -20.671  1.00  0.00     0.171 C 
BRANCH  19  21
HETATM   21  S   UNL     1       0.299   8.558 -18.646  1.00  0.00     0.229 S 
HETATM   22  C   UNL     1      -0.211  10.216 -18.898  1.00  0.00     0.186 C 
HETATM   23  O   UNL     1       1.435   8.562 -17.783  1.00  0.00    -0.206 OA
HETATM   24  O   UNL     1      -0.841   7.784 -18.281  1.00  0.00    -0.206 OA
ENDBRANCH  19  21
ENDBRANCH  17  19
ENDBRANCH  11  12
ENDBRANCH   9  11
ENDBRANCH   8   9
BRANCH   1  25
HETATM   25  N   UNL     1       3.981   3.749 -23.387  1.00  0.00    -0.192 N 
ATOM     26  HN  UNL     1       4.431   3.196 -24.116  1.00  0.00     0.184 HD
BRANCH  25  27
HETATM   27  C   UNL     1       4.695   4.919 -23.070  1.00  0.00     0.049 A 
HETATM   28  C   UNL     1       6.086   4.890 -23.145  1.00  0.00     0.040 A 
HETATM   29  C   UNL     1       6.817   6.022 -22.817  1.00  0.00    -0.021 A 
HETATM   30  C   UNL     1       6.153   7.175 -22.420  1.00  0.00     0.041 A 
HETATM   31  C   UNL     1       8.289   6.300 -22.793  1.00  0.00     0.144 A 
HETATM   32  C   UNL     1       4.767   7.222 -22.345  1.00  0.00     0.032 A 
HETATM   33  N   UNL     1       7.089   8.166 -22.116  1.00  0.00    -0.326 N 
HETATM   34  C   UNL     1       4.044   6.086 -22.673  1.00  0.00     0.032 A 
HETATM   35  C   UNL     1       8.361   7.725 -22.292  1.00  0.00     0.226 A 
ATOM     36  HN  UNL     1       6.847   9.105 -21.801  1.00  0.00     0.169 HD
HETATM   37  O   UNL     1       9.375   8.372 -22.058  1.00  0.00    -0.273 OA
ENDBRANCH  25  27
ENDBRANCH   1  25
TORSDOF 7
