REMARK  7 active torsions:
REMARK  status: ('A' for Active; 'I' for Inactive)
REMARK    1  A    between atoms: C_1  and  N_20 
REMARK    2  A    between atoms: C_2  and  C_3 
REMARK    3  A    between atoms: C_2  and  N_19 
REMARK    4  A    between atoms: C_7  and  N_23 
REMARK    5  A    between atoms: C_9  and  N_20 
REMARK    6  A    between atoms: C_18  and  N_19 
REMARK    7  A    between atoms: N_23  and  S_24 
ROOT
HETATM    1  C   UNL     1       0.228   0.360  -1.034  1.00  0.00     0.684 A 
HETATM    2  N   UNL     1      -1.050  -0.027  -0.781  1.00  0.00    -0.177 N 
ATOM      3  HN  UNL     1      -1.520  -0.648  -1.439  1.00  0.00     0.186 HD
HETATM    4  N   UNL     1       0.854   1.212  -0.177  1.00  0.00    -0.202 N 
ATOM      5  HN  UNL     1       1.808   1.512  -0.375  1.00  0.00     0.183 HD
HETATM    6  C   UNL     1       0.228   1.668   0.937  1.00  0.00     0.110 A 
HETATM    7  C   UNL     1      -1.078   1.267   1.217  1.00  0.00     0.066 A 
HETATM    8  C   UNL     1      -1.718   0.392   0.327  1.00  0.00     0.118 A 
ENDROOT
BRANCH   8   9
HETATM    9  N   UNL     1      -3.055  -0.084   0.551  1.00  0.00    -0.371 N 
HETATM   10  H   UNL     1      -3.513  -0.631  -0.213  1.00  0.00     0.161 HD
BRANCH   9  11
HETATM   11  C   UNL     1      -3.806   0.102   1.794  1.00  0.00     0.163 C 
BRANCH  11  12
HETATM   12  C   UNL     1      -3.135  -0.592   2.958  1.00  0.00     0.004 A 
HETATM   13  C   UNL     1      -2.929   0.121   4.151  1.00  0.00     0.014 A 
HETATM   14  C   UNL     1      -2.286  -0.480   5.232  1.00  0.00     0.018 A 
HETATM   15  C   UNL     1      -1.854  -1.800   5.121  1.00  0.00     0.090 A 
HETATM   16  N   UNL     1      -2.072  -2.491   3.973  1.00  0.00    -0.351 N 
HETATM   17  C   UNL     1      -2.706  -1.940   2.901  1.00  0.00     0.124 A 
ATOM     18  HN  UNL     1      -1.750  -3.457   3.911  1.00  0.00     0.166 HD
BRANCH  17  19
HETATM   19  N   UNL     1      -2.899  -2.745   1.730  1.00  0.00    -0.265 N 
HETATM   20  C   UNL     1      -4.225  -3.288   1.441  1.00  0.00     0.171 C 
BRANCH  19  21
HETATM   21  S   UNL     1      -1.503  -3.421   0.948  1.00  0.00     0.229 S 
HETATM   22  C   UNL     1      -1.765  -3.520  -0.811  1.00  0.00     0.186 C 
HETATM   23  O   UNL     1      -0.309  -2.544   1.202  1.00  0.00    -0.206 OA
HETATM   24  O   UNL     1      -1.235  -4.794   1.497  1.00  0.00    -0.206 OA
ENDBRANCH  19  21
ENDBRANCH  17  19
ENDBRANCH  11  12
ENDBRANCH   9  11
ENDBRANCH   8   9
BRANCH   1  25
HETATM   25  N   UNL     1       0.882  -0.098  -2.225  1.00  0.00    -0.192 N 
HETATM   26  H   UNL     1       0.281  -0.477  -2.991  1.00  0.00     0.184 HD
BRANCH  25  27
HETATM   27  C   UNL     1       2.294   0.019  -2.467  1.00  0.00     0.049 A 
HETATM   28  C   UNL     1       2.752   0.231  -3.783  1.00  0.00     0.040 A 
HETATM   29  C   UNL     1       4.124   0.319  -4.014  1.00  0.00    -0.021 A 
HETATM   30  C   UNL     1       5.028   0.187  -2.982  1.00  0.00     0.041 A 
HETATM   31  C   UNL     1       4.831   0.547  -5.311  1.00  0.00     0.144 A 
HETATM   32  C   UNL     1       4.613  -0.047  -1.674  1.00  0.00     0.032 A 
HETATM   33  N   UNL     1       6.365   0.301  -3.432  1.00  0.00    -0.326 N 
HETATM   34  C   UNL     1       3.235  -0.137  -1.418  1.00  0.00     0.032 A 
HETATM   35  C   UNL     1       6.253   0.518  -4.834  1.00  0.00     0.226 A 
HETATM   36  H   UNL     1       7.238   0.237  -2.864  1.00  0.00     0.169 HD
HETATM   37  O   UNL     1       7.253   0.668  -5.584  1.00  0.00    -0.273 OA
ENDBRANCH  25  27
ENDBRANCH   1  25
TORSDOF 7
