MODEL 1
REMARK VINA RESULT:    -7.990      0.000      0.000
REMARK INTER + INTRA:         -12.275
REMARK INTER:                 -10.792
REMARK INTRA:                  -1.483
REMARK UNBOUND:                -1.483
REMARK  6 active torsions:
REMARK  status: ('A' for Active; 'I' for Inactive)
REMARK    1  A    between atoms: C_1  and  C_13 
REMARK    2  A    between atoms: C_2  and  C_17 
REMARK    3  A    between atoms: C_9  and  C_10 
REMARK    4  A    between atoms: C_10  and  C_11 
REMARK    5  A    between atoms: C_11  and  C_12 
REMARK    6  A    between atoms: C_12  and  C_13 
ROOT
HETATM    1  C   UNL     1      -4.538 -17.241  -2.576  1.00  0.00     0.026 A 
HETATM    2  C   UNL     1      -4.801 -18.277  -1.712  1.00  0.00     0.038 A 
HETATM    3  C   UNL     1      -5.656 -19.284  -2.135  1.00  0.00     0.131 A 
HETATM    4  N   UNL     1      -6.184 -19.277  -3.339  1.00  0.00    -0.318 N 
ATOM      5  HN  UNL     1      -6.803 -20.019  -3.666  1.00  0.00     0.169 HD
HETATM    6  N   UNL     1      -5.074 -17.224  -3.785  1.00  0.00    -0.333 N 
ATOM      7  HN  UNL     1      -4.890 -16.465  -4.442  1.00  0.00     0.168 HD
HETATM    8  C   UNL     1      -5.862 -18.242  -4.099  1.00  0.00     0.194 A 
HETATM    9  N   UNL     1      -6.439 -18.188  -5.426  1.00  0.00    -0.063 NA
HETATM   10  N   UNL     1      -5.983 -20.387  -1.274  1.00  0.00    -0.082 NA
ENDROOT
BRANCH   1  11
HETATM   11  C   UNL     1      -3.607 -16.089  -2.196  1.00  0.00     0.058 C 
BRANCH  11  12
HETATM   12  C   UNL     1      -2.144 -16.384  -2.523  1.00  0.00     0.006 C 
BRANCH  12  13
HETATM   13  C   UNL     1      -1.238 -15.637  -1.547  1.00  0.00     0.000 C 
BRANCH  13  14
HETATM   14  C   UNL     1      -1.818 -15.662  -0.133  1.00  0.00    -0.000 C 
BRANCH  14  15
HETATM   15  C   UNL     1      -1.515 -14.306   0.498  1.00  0.00    -0.005 C 
HETATM   16  C   UNL     1      -1.995 -14.310   1.953  1.00  0.00     0.005 C 
ENDBRANCH  14  15
ENDBRANCH  13  14
ENDBRANCH  12  13
ENDBRANCH  11  12
ENDBRANCH   1  11
BRANCH   2  17
HETATM   17  C   UNL     1      -4.232 -18.343  -0.291  1.00  0.00    -0.021 A 
HETATM   18  C   UNL     1      -3.226 -19.151   0.038  1.00  0.00     0.012 A 
HETATM   19  C   UNL     1      -2.734 -19.157   1.482  1.00  0.00     0.001 A 
HETATM   20  C   UNL     1      -3.316 -18.384   2.384  1.00  0.00     0.000 A 
HETATM   21  C   UNL     1      -4.466 -17.474   1.996  1.00  0.00     0.001 A 
HETATM   22  C   UNL     1      -4.892 -17.461   0.751  1.00  0.00     0.012 A 
ENDBRANCH   2  17
TORSDOF 6
ENDMDL
MODEL 2
REMARK VINA RESULT:    -7.986      0.163      1.115
REMARK INTER + INTRA:         -12.270
REMARK INTER:                 -10.665
REMARK INTRA:                  -1.605
REMARK UNBOUND:                -1.483
REMARK  6 active torsions:
REMARK  status: ('A' for Active; 'I' for Inactive)
REMARK    1  A    between atoms: C_1  and  C_13 
REMARK    2  A    between atoms: C_2  and  C_17 
REMARK    3  A    between atoms: C_9  and  C_10 
REMARK    4  A    between atoms: C_10  and  C_11 
REMARK    5  A    between atoms: C_11  and  C_12 
REMARK    6  A    between atoms: C_12  and  C_13 
ROOT
HETATM    1  C   UNL     1      -4.644 -17.184  -2.562  1.00  0.00     0.026 A 
HETATM    2  C   UNL     1      -4.954 -18.187  -1.677  1.00  0.00     0.038 A 
HETATM    3  C   UNL     1      -5.807 -19.196  -2.100  1.00  0.00     0.131 A 
HETATM    4  N   UNL     1      -6.291 -19.219  -3.323  1.00  0.00    -0.318 N 
ATOM      5  HN  UNL     1      -6.908 -19.962  -3.649  1.00  0.00     0.169 HD
HETATM    6  N   UNL     1      -5.134 -17.197  -3.790  1.00  0.00    -0.333 N 
ATOM      7  HN  UNL     1      -4.915 -16.462  -4.463  1.00  0.00     0.168 HD
HETATM    8  C   UNL     1      -5.925 -18.213  -4.102  1.00  0.00     0.194 A 
HETATM    9  N   UNL     1      -6.452 -18.193  -5.450  1.00  0.00    -0.063 NA
HETATM   10  N   UNL     1      -6.183 -20.266  -1.219  1.00  0.00    -0.082 NA
ENDROOT
BRANCH   1  11
HETATM   11  C   UNL     1      -3.710 -16.033  -2.183  1.00  0.00     0.058 C 
BRANCH  11  12
HETATM   12  C   UNL     1      -2.239 -16.367  -2.425  1.00  0.00     0.006 C 
BRANCH  12  13
HETATM   13  C   UNL     1      -1.363 -15.539  -1.487  1.00  0.00     0.000 C 
BRANCH  13  14
HETATM   14  C   UNL     1      -1.801 -15.712  -0.033  1.00  0.00    -0.000 C 
BRANCH  14  15
HETATM   15  C   UNL     1      -1.769 -14.329   0.611  1.00  0.00    -0.005 C 
HETATM   16  C   UNL     1      -2.144 -14.454   2.091  1.00  0.00     0.005 C 
ENDBRANCH  14  15
ENDBRANCH  13  14
ENDBRANCH  12  13
ENDBRANCH  11  12
ENDBRANCH   1  11
BRANCH   2  17
HETATM   17  C   UNL     1      -4.438 -18.217  -0.235  1.00  0.00    -0.021 A 
HETATM   18  C   UNL     1      -4.954 -17.450   0.723  1.00  0.00     0.012 A 
HETATM   19  C   UNL     1      -4.366 -17.538   2.129  1.00  0.00     0.001 A 
HETATM   20  C   UNL     1      -3.351 -18.352   2.373  1.00  0.00     0.000 A 
HETATM   21  C   UNL     1      -2.769 -19.214   1.269  1.00  0.00     0.001 A 
HETATM   22  C   UNL     1      -3.274 -19.145   0.056  1.00  0.00     0.012 A 
ENDBRANCH   2  17
TORSDOF 6
ENDMDL
MODEL 3
REMARK VINA RESULT:    -7.811      1.877      3.243
REMARK INTER + INTRA:         -12.033
REMARK INTER:                 -10.205
REMARK INTRA:                  -1.828
REMARK UNBOUND:                -1.483
REMARK  6 active torsions:
REMARK  status: ('A' for Active; 'I' for Inactive)
REMARK    1  A    between atoms: C_1  and  C_13 
REMARK    2  A    between atoms: C_2  and  C_17 
REMARK    3  A    between atoms: C_9  and  C_10 
REMARK    4  A    between atoms: C_10  and  C_11 
REMARK    5  A    between atoms: C_11  and  C_12 
REMARK    6  A    between atoms: C_12  and  C_13 
ROOT
HETATM    1  C   UNL     1      -3.876 -17.617  -1.597  1.00  0.00     0.026 A 
HETATM    2  C   UNL     1      -4.145 -17.160  -0.330  1.00  0.00     0.038 A 
HETATM    3  C   UNL     1      -5.044 -17.873   0.449  1.00  0.00     0.131 A 
HETATM    4  N   UNL     1      -5.609 -18.976   0.010  1.00  0.00    -0.318 N 
ATOM      5  HN  UNL     1      -6.261 -19.517   0.579  1.00  0.00     0.169 HD
HETATM    6  N   UNL     1      -4.448 -18.722  -2.047  1.00  0.00    -0.333 N 
ATOM      7  HN  UNL     1      -4.260 -19.080  -2.984  1.00  0.00     0.168 HD
HETATM    8  C   UNL     1      -5.277 -19.340  -1.219  1.00  0.00     0.194 A 
HETATM    9  N   UNL     1      -5.893 -20.540  -1.745  1.00  0.00    -0.063 NA
HETATM   10  N   UNL     1      -5.380 -17.440   1.777  1.00  0.00    -0.082 NA
ENDROOT
BRANCH   1  11
HETATM   11  C   UNL     1      -2.897 -16.897  -2.525  1.00  0.00     0.058 C 
BRANCH  11  12
HETATM   12  C   UNL     1      -1.481 -17.465  -2.441  1.00  0.00     0.006 C 
BRANCH  12  13
HETATM   13  C   UNL     1      -0.467 -16.324  -2.434  1.00  0.00     0.000 C 
BRANCH  13  14
HETATM   14  C   UNL     1      -1.154 -14.983  -2.168  1.00  0.00    -0.000 C 
BRANCH  14  15
HETATM   15  C   UNL     1      -0.075 -14.015  -1.695  1.00  0.00    -0.005 C 
HETATM   16  C   UNL     1      -0.644 -12.593  -1.684  1.00  0.00     0.005 C 
ENDBRANCH  14  15
ENDBRANCH  13  14
ENDBRANCH  12  13
ENDBRANCH  11  12
ENDBRANCH   1  11
BRANCH   2  17
HETATM   17  C   UNL     1      -3.534 -15.876   0.240  1.00  0.00    -0.021 A 
HETATM   18  C   UNL     1      -2.477 -15.886   1.049  1.00  0.00     0.012 A 
HETATM   19  C   UNL     1      -1.946 -14.558   1.579  1.00  0.00     0.001 A 
HETATM   20  C   UNL     1      -2.545 -13.425   1.247  1.00  0.00     0.000 A 
HETATM   21  C   UNL     1      -3.754 -13.430   0.331  1.00  0.00     0.001 A 
HETATM   22  C   UNL     1      -4.214 -14.572  -0.132  1.00  0.00     0.012 A 
ENDBRANCH   2  17
TORSDOF 6
ENDMDL
MODEL 4
REMARK VINA RESULT:    -7.778      2.235      3.798
REMARK INTER + INTRA:         -11.990
REMARK INTER:                 -10.092
REMARK INTRA:                  -1.897
REMARK UNBOUND:                -1.483
REMARK  6 active torsions:
REMARK  status: ('A' for Active; 'I' for Inactive)
REMARK    1  A    between atoms: C_1  and  C_13 
REMARK    2  A    between atoms: C_2  and  C_17 
REMARK    3  A    between atoms: C_9  and  C_10 
REMARK    4  A    between atoms: C_10  and  C_11 
REMARK    5  A    between atoms: C_11  and  C_12 
REMARK    6  A    between atoms: C_12  and  C_13 
ROOT
HETATM    1  C   UNL     1      -4.015 -17.764  -1.511  1.00  0.00     0.026 A 
HETATM    2  C   UNL     1      -4.912 -16.778  -1.841  1.00  0.00     0.038 A 
HETATM    3  C   UNL     1      -6.227 -17.142  -2.094  1.00  0.00     0.131 A 
HETATM    4  N   UNL     1      -6.624 -18.391  -1.994  1.00  0.00    -0.318 N 
ATOM      5  HN  UNL     1      -7.591 -18.669  -2.163  1.00  0.00     0.169 HD
HETATM    6  N   UNL     1      -4.408 -19.024  -1.418  1.00  0.00    -0.333 N 
ATOM      7  HN  UNL     1      -3.758 -19.772  -1.173  1.00  0.00     0.168 HD
HETATM    8  C   UNL     1      -5.688 -19.265  -1.660  1.00  0.00     0.194 A 
HETATM    9  N   UNL     1      -6.083 -20.655  -1.559  1.00  0.00    -0.063 NA
HETATM   10  N   UNL     1      -7.210 -16.161  -2.458  1.00  0.00    -0.082 NA
ENDROOT
BRANCH   1  11
HETATM   11  C   UNL     1      -2.547 -17.455  -1.215  1.00  0.00     0.058 C 
BRANCH  11  12
HETATM   12  C   UNL     1      -1.664 -17.550  -2.459  1.00  0.00     0.006 C 
BRANCH  12  13
HETATM   13  C   UNL     1      -0.690 -16.375  -2.488  1.00  0.00     0.000 C 
BRANCH  13  14
HETATM   14  C   UNL     1      -1.043 -15.343  -1.417  1.00  0.00    -0.000 C 
BRANCH  14  15
HETATM   15  C   UNL     1      -0.396 -14.026  -1.834  1.00  0.00    -0.005 C 
HETATM   16  C   UNL     1      -0.251 -13.125  -0.604  1.00  0.00     0.005 C 
ENDBRANCH  14  15
ENDBRANCH  13  14
ENDBRANCH  12  13
ENDBRANCH  11  12
ENDBRANCH   1  11
BRANCH   2  17
HETATM   17  C   UNL     1      -4.515 -15.305  -1.989  1.00  0.00    -0.021 A 
HETATM   18  C   UNL     1      -4.199 -14.766  -3.164  1.00  0.00     0.012 A 
HETATM   19  C   UNL     1      -3.804 -13.293  -3.212  1.00  0.00     0.001 A 
HETATM   20  C   UNL     1      -3.762 -12.582  -2.096  1.00  0.00     0.000 A 
HETATM   21  C   UNL     1      -4.116 -13.213  -0.763  1.00  0.00     0.001 A 
HETATM   22  C   UNL     1      -4.462 -14.481  -0.717  1.00  0.00     0.012 A 
ENDBRANCH   2  17
TORSDOF 6
ENDMDL
MODEL 5
REMARK VINA RESULT:    -7.764      2.793      5.174
REMARK INTER + INTRA:         -11.971
REMARK INTER:                  -9.972
REMARK INTRA:                  -1.999
REMARK UNBOUND:                -1.483
REMARK  6 active torsions:
REMARK  status: ('A' for Active; 'I' for Inactive)
REMARK    1  A    between atoms: C_1  and  C_13 
REMARK    2  A    between atoms: C_2  and  C_17 
REMARK    3  A    between atoms: C_9  and  C_10 
REMARK    4  A    between atoms: C_10  and  C_11 
REMARK    5  A    between atoms: C_11  and  C_12 
REMARK    6  A    between atoms: C_12  and  C_13 
ROOT
HETATM    1  C   UNL     1      -3.074 -16.642   1.936  1.00  0.00     0.026 A 
HETATM    2  C   UNL     1      -3.071 -17.480   0.849  1.00  0.00     0.038 A 
HETATM    3  C   UNL     1      -2.932 -18.843   1.069  1.00  0.00     0.131 A 
HETATM    4  N   UNL     1      -2.833 -19.335   2.285  1.00  0.00    -0.318 N 
ATOM      5  HN  UNL     1      -2.744 -20.336   2.460  1.00  0.00     0.169 HD
HETATM    6  N   UNL     1      -2.967 -17.131   3.161  1.00  0.00    -0.333 N 
ATOM      7  HN  UNL     1      -2.968 -16.525   3.982  1.00  0.00     0.168 HD
HETATM    8  C   UNL     1      -2.856 -18.447   3.266  1.00  0.00     0.194 A 
HETATM    9  N   UNL     1      -2.732 -18.949   4.618  1.00  0.00    -0.063 NA
HETATM   10  N   UNL     1      -2.906 -19.772  -0.026  1.00  0.00    -0.082 NA
ENDROOT
BRANCH   1  11
HETATM   11  C   UNL     1      -3.225 -15.127   1.788  1.00  0.00     0.058 C 
BRANCH  11  12
HETATM   12  C   UNL     1      -1.907 -14.383   1.997  1.00  0.00     0.006 C 
BRANCH  12  13
HETATM   13  C   UNL     1      -1.459 -13.751   0.681  1.00  0.00     0.000 C 
BRANCH  13  14
HETATM   14  C   UNL     1      -2.660 -13.258  -0.127  1.00  0.00    -0.000 C 
BRANCH  14  15
HETATM   15  C   UNL     1      -2.159 -12.959  -1.536  1.00  0.00    -0.005 C 
HETATM   16  C   UNL     1      -0.637 -13.133  -1.577  1.00  0.00     0.005 C 
ENDBRANCH  14  15
ENDBRANCH  13  14
ENDBRANCH  12  13
ENDBRANCH  11  12
ENDBRANCH   1  11
BRANCH   2  17
HETATM   17  C   UNL     1      -3.168 -16.975  -0.594  1.00  0.00    -0.021 A 
HETATM   18  C   UNL     1      -4.330 -16.667  -1.167  1.00  0.00     0.012 A 
HETATM   19  C   UNL     1      -4.328 -16.183  -2.614  1.00  0.00     0.001 A 
HETATM   20  C   UNL     1      -3.189 -16.094  -3.282  1.00  0.00     0.000 A 
HETATM   21  C   UNL     1      -1.874 -16.457  -2.619  1.00  0.00     0.001 A 
HETATM   22  C   UNL     1      -1.869 -16.871  -1.370  1.00  0.00     0.012 A 
ENDBRANCH   2  17
TORSDOF 6
ENDMDL
MODEL 6
REMARK VINA RESULT:    -7.682      1.452      4.406
REMARK INTER + INTRA:         -11.859
REMARK INTER:                 -10.822
REMARK INTRA:                  -1.037
REMARK UNBOUND:                -1.483
REMARK  6 active torsions:
REMARK  status: ('A' for Active; 'I' for Inactive)
REMARK    1  A    between atoms: C_1  and  C_13 
REMARK    2  A    between atoms: C_2  and  C_17 
REMARK    3  A    between atoms: C_9  and  C_10 
REMARK    4  A    between atoms: C_10  and  C_11 
REMARK    5  A    between atoms: C_11  and  C_12 
REMARK    6  A    between atoms: C_12  and  C_13 
ROOT
HETATM    1  C   UNL     1      -3.219 -17.593  -1.692  1.00  0.00     0.026 A 
HETATM    2  C   UNL     1      -3.225 -16.258  -2.013  1.00  0.00     0.038 A 
HETATM    3  C   UNL     1      -4.097 -15.822  -3.001  1.00  0.00     0.131 A 
HETATM    4  N   UNL     1      -4.923 -16.651  -3.601  1.00  0.00    -0.318 N 
ATOM      5  HN  UNL     1      -5.579 -16.340  -4.318  1.00  0.00     0.169 HD
HETATM    6  N   UNL     1      -4.042 -18.432  -2.299  1.00  0.00    -0.333 N 
ATOM      7  HN  UNL     1      -4.055 -19.428  -2.074  1.00  0.00     0.168 HD
HETATM    8  C   UNL     1      -4.848 -17.914  -3.214  1.00  0.00     0.194 A 
HETATM    9  N   UNL     1      -5.730 -18.861  -3.865  1.00  0.00    -0.063 NA
HETATM   10  N   UNL     1      -4.142 -14.442  -3.393  1.00  0.00    -0.082 NA
ENDROOT
BRANCH   1  11
HETATM   11  C   UNL     1      -2.293 -18.161  -0.616  1.00  0.00     0.058 C 
BRANCH  11  12
HETATM   12  C   UNL     1      -3.057 -18.850   0.513  1.00  0.00     0.006 C 
BRANCH  12  13
HETATM   13  C   UNL     1      -3.797 -17.805   1.345  1.00  0.00     0.000 C 
BRANCH  13  14
HETATM   14  C   UNL     1      -3.183 -17.682   2.740  1.00  0.00    -0.000 C 
BRANCH  14  15
HETATM   15  C   UNL     1      -2.657 -19.063   3.121  1.00  0.00    -0.005 C 
HETATM   16  C   UNL     1      -2.302 -19.073   4.611  1.00  0.00     0.005 C 
ENDBRANCH  14  15
ENDBRANCH  13  14
ENDBRANCH  12  13
ENDBRANCH  11  12
ENDBRANCH   1  11
BRANCH   2  17
HETATM   17  C   UNL     1      -2.281 -15.240  -1.365  1.00  0.00    -0.021 A 
HETATM   18  C   UNL     1      -2.568 -14.629  -0.218  1.00  0.00     0.012 A 
HETATM   19  C   UNL     1      -1.572 -13.620   0.345  1.00  0.00     0.001 A 
HETATM   20  C   UNL     1      -0.456 -13.353  -0.314  1.00  0.00     0.000 A 
HETATM   21  C   UNL     1      -0.145 -14.051  -1.624  1.00  0.00     0.001 A 
HETATM   22  C   UNL     1      -0.998 -14.925  -2.112  1.00  0.00     0.012 A 
ENDBRANCH   2  17
TORSDOF 6
ENDMDL
MODEL 7
REMARK VINA RESULT:    -7.630      1.420      4.254
REMARK INTER + INTRA:         -11.790
REMARK INTER:                 -10.797
REMARK INTRA:                  -0.993
REMARK UNBOUND:                -1.483
REMARK  6 active torsions:
REMARK  status: ('A' for Active; 'I' for Inactive)
REMARK    1  A    between atoms: C_1  and  C_13 
REMARK    2  A    between atoms: C_2  and  C_17 
REMARK    3  A    between atoms: C_9  and  C_10 
REMARK    4  A    between atoms: C_10  and  C_11 
REMARK    5  A    between atoms: C_11  and  C_12 
REMARK    6  A    between atoms: C_12  and  C_13 
ROOT
HETATM    1  C   UNL     1      -3.276 -17.629  -1.712  1.00  0.00     0.026 A 
HETATM    2  C   UNL     1      -3.239 -16.308  -2.088  1.00  0.00     0.038 A 
HETATM    3  C   UNL     1      -4.097 -15.887  -3.094  1.00  0.00     0.131 A 
HETATM    4  N   UNL     1      -4.950 -16.712  -3.660  1.00  0.00    -0.318 N 
ATOM      5  HN  UNL     1      -5.595 -16.410  -4.390  1.00  0.00     0.169 HD
HETATM    6  N   UNL     1      -4.127 -18.466  -2.284  1.00  0.00    -0.333 N 
ATOM      7  HN  UNL     1      -4.172 -19.450  -2.018  1.00  0.00     0.168 HD
HETATM    8  C   UNL     1      -4.916 -17.960  -3.220  1.00  0.00     0.194 A 
HETATM    9  N   UNL     1      -5.828 -18.904  -3.832  1.00  0.00    -0.063 NA
HETATM   10  N   UNL     1      -4.096 -14.523  -3.544  1.00  0.00    -0.082 NA
ENDROOT
BRANCH   1  11
HETATM   11  C   UNL     1      -2.369 -18.181  -0.612  1.00  0.00     0.058 C 
BRANCH  11  12
HETATM   12  C   UNL     1      -3.121 -19.066   0.381  1.00  0.00     0.006 C 
BRANCH  12  13
HETATM   13  C   UNL     1      -3.988 -18.197   1.290  1.00  0.00     0.000 C 
BRANCH  13  14
HETATM   14  C   UNL     1      -3.231 -17.811   2.561  1.00  0.00    -0.000 C 
BRANCH  14  15
HETATM   15  C   UNL     1      -2.591 -19.084   3.105  1.00  0.00    -0.005 C 
HETATM   16  C   UNL     1      -2.196 -18.864   4.568  1.00  0.00     0.005 C 
ENDBRANCH  14  15
ENDBRANCH  13  14
ENDBRANCH  12  13
ENDBRANCH  11  12
ENDBRANCH   1  11
BRANCH   2  17
HETATM   17  C   UNL     1      -2.262 -15.296  -1.482  1.00  0.00    -0.021 A 
HETATM   18  C   UNL     1      -1.106 -14.983  -2.063  1.00  0.00     0.012 A 
HETATM   19  C   UNL     1      -0.191 -13.973  -1.378  1.00  0.00     0.001 A 
HETATM   20  C   UNL     1      -0.543 -13.439  -0.220  1.00  0.00     0.000 A 
HETATM   21  C   UNL     1      -1.860 -13.811   0.435  1.00  0.00     0.001 A 
HETATM   22  C   UNL     1      -2.655 -14.678  -0.153  1.00  0.00     0.012 A 
ENDBRANCH   2  17
TORSDOF 6
ENDMDL
MODEL 8
REMARK VINA RESULT:    -7.599      1.351      3.983
REMARK INTER + INTRA:         -11.747
REMARK INTER:                  -9.786
REMARK INTRA:                  -1.961
REMARK UNBOUND:                -1.483
REMARK  6 active torsions:
REMARK  status: ('A' for Active; 'I' for Inactive)
REMARK    1  A    between atoms: C_1  and  C_13 
REMARK    2  A    between atoms: C_2  and  C_17 
REMARK    3  A    between atoms: C_9  and  C_10 
REMARK    4  A    between atoms: C_10  and  C_11 
REMARK    5  A    between atoms: C_11  and  C_12 
REMARK    6  A    between atoms: C_12  and  C_13 
ROOT
HETATM    1  C   UNL     1      -3.974 -17.935  -0.483  1.00  0.00     0.026 A 
HETATM    2  C   UNL     1      -3.881 -17.129  -1.592  1.00  0.00     0.038 A 
HETATM    3  C   UNL     1      -4.522 -17.532  -2.754  1.00  0.00     0.131 A 
HETATM    4  N   UNL     1      -5.229 -18.640  -2.799  1.00  0.00    -0.318 N 
ATOM      5  HN  UNL     1      -5.717 -18.940  -3.644  1.00  0.00     0.169 HD
HETATM    6  N   UNL     1      -4.677 -19.055  -0.526  1.00  0.00    -0.333 N 
ATOM      7  HN  UNL     1      -4.760 -19.667   0.287  1.00  0.00     0.168 HD
HETATM    8  C   UNL     1      -5.266 -19.342  -1.677  1.00  0.00     0.194 A 
HETATM    9  N   UNL     1      -6.020 -20.578  -1.692  1.00  0.00    -0.063 NA
HETATM   10  N   UNL     1      -4.451 -16.742  -3.951  1.00  0.00    -0.082 NA
ENDROOT
BRANCH   1  11
HETATM   11  C   UNL     1      -3.302 -17.569   0.840  1.00  0.00     0.058 C 
BRANCH  11  12
HETATM   12  C   UNL     1      -4.268 -16.921   1.830  1.00  0.00     0.006 C 
BRANCH  12  13
HETATM   13  C   UNL     1      -3.870 -15.464   2.058  1.00  0.00     0.000 C 
BRANCH  13  14
HETATM   14  C   UNL     1      -2.356 -15.285   1.941  1.00  0.00    -0.000 C 
BRANCH  14  15
HETATM   15  C   UNL     1      -2.079 -13.786   1.986  1.00  0.00    -0.005 C 
HETATM   16  C   UNL     1      -3.409 -13.030   2.059  1.00  0.00     0.005 C 
ENDBRANCH  14  15
ENDBRANCH  13  14
ENDBRANCH  12  13
ENDBRANCH  11  12
ENDBRANCH   1  11
BRANCH   2  17
HETATM   17  C   UNL     1      -3.063 -15.833  -1.614  1.00  0.00    -0.021 A 
HETATM   18  C   UNL     1      -3.631 -14.630  -1.561  1.00  0.00     0.012 A 
HETATM   19  C   UNL     1      -2.736 -13.396  -1.602  1.00  0.00     0.001 A 
HETATM   20  C   UNL     1      -1.424 -13.531  -1.707  1.00  0.00     0.000 A 
HETATM   21  C   UNL     1      -0.792 -14.909  -1.775  1.00  0.00     0.001 A 
HETATM   22  C   UNL     1      -1.558 -15.977  -1.736  1.00  0.00     0.012 A 
ENDBRANCH   2  17
TORSDOF 6
ENDMDL
MODEL 9
REMARK VINA RESULT:    -7.553      3.196      5.690
REMARK INTER + INTRA:         -11.685
REMARK INTER:                 -10.200
REMARK INTRA:                  -1.484
REMARK UNBOUND:                -1.483
REMARK  6 active torsions:
REMARK  status: ('A' for Active; 'I' for Inactive)
REMARK    1  A    between atoms: C_1  and  C_13 
REMARK    2  A    between atoms: C_2  and  C_17 
REMARK    3  A    between atoms: C_9  and  C_10 
REMARK    4  A    between atoms: C_10  and  C_11 
REMARK    5  A    between atoms: C_11  and  C_12 
REMARK    6  A    between atoms: C_12  and  C_13 
ROOT
HETATM    1  C   UNL     1      -2.815 -16.054   2.337  1.00  0.00     0.026 A 
HETATM    2  C   UNL     1      -2.928 -16.529   1.053  1.00  0.00     0.038 A 
HETATM    3  C   UNL     1      -3.051 -17.898   0.867  1.00  0.00     0.131 A 
HETATM    4  N   UNL     1      -3.090 -18.729   1.885  1.00  0.00    -0.318 N 
ATOM      5  HN  UNL     1      -3.194 -19.736   1.761  1.00  0.00     0.169 HD
HETATM    6  N   UNL     1      -2.845 -16.887   3.365  1.00  0.00    -0.333 N 
ATOM      7  HN  UNL     1      -2.764 -16.555   4.327  1.00  0.00     0.168 HD
HETATM    8  C   UNL     1      -2.984 -18.173   3.082  1.00  0.00     0.194 A 
HETATM    9  N   UNL     1      -3.003 -19.058   4.228  1.00  0.00    -0.063 NA
HETATM   10  N   UNL     1      -3.158 -18.459  -0.451  1.00  0.00    -0.082 NA
ENDROOT
BRANCH   1  11
HETATM   11  C   UNL     1      -2.678 -14.561   2.637  1.00  0.00     0.058 C 
BRANCH  11  12
HETATM   12  C   UNL     1      -4.029 -13.869   2.807  1.00  0.00     0.006 C 
BRANCH  12  13
HETATM   13  C   UNL     1      -3.900 -12.392   2.446  1.00  0.00     0.000 C 
BRANCH  13  14
HETATM   14  C   UNL     1      -3.493 -12.220   0.982  1.00  0.00    -0.000 C 
BRANCH  14  15
HETATM   15  C   UNL     1      -3.999 -10.852   0.535  1.00  0.00    -0.005 C 
HETATM   16  C   UNL     1      -4.632 -10.979  -0.854  1.00  0.00     0.005 C 
ENDBRANCH  14  15
ENDBRANCH  13  14
ENDBRANCH  12  13
ENDBRANCH  11  12
ENDBRANCH   1  11
BRANCH   2  17
HETATM   17  C   UNL     1      -2.877 -15.620  -0.179  1.00  0.00    -0.021 A 
HETATM   18  C   UNL     1      -3.972 -15.251  -0.840  1.00  0.00     0.012 A 
HETATM   19  C   UNL     1      -3.822 -14.354  -2.065  1.00  0.00     0.001 A 
HETATM   20  C   UNL     1      -2.619 -13.972  -2.463  1.00  0.00     0.000 A 
HETATM   21  C   UNL     1      -1.379 -14.407  -1.704  1.00  0.00     0.001 A 
HETATM   22  C   UNL     1      -1.503 -15.177  -0.645  1.00  0.00     0.012 A 
ENDBRANCH   2  17
TORSDOF 6
ENDMDL
MODEL 10
REMARK VINA RESULT:    -7.466      2.035      3.525
REMARK INTER + INTRA:         -11.568
REMARK INTER:                  -9.530
REMARK INTRA:                  -2.038
REMARK UNBOUND:                -1.483
REMARK  6 active torsions:
REMARK  status: ('A' for Active; 'I' for Inactive)
REMARK    1  A    between atoms: C_1  and  C_13 
REMARK    2  A    between atoms: C_2  and  C_17 
REMARK    3  A    between atoms: C_9  and  C_10 
REMARK    4  A    between atoms: C_10  and  C_11 
REMARK    5  A    between atoms: C_11  and  C_12 
REMARK    6  A    between atoms: C_12  and  C_13 
ROOT
HETATM    1  C   UNL     1      -4.914 -17.148  -1.064  1.00  0.00     0.026 A 
HETATM    2  C   UNL     1      -4.347 -17.222   0.184  1.00  0.00     0.038 A 
HETATM    3  C   UNL     1      -4.332 -18.451   0.828  1.00  0.00     0.131 A 
HETATM    4  N   UNL     1      -4.817 -19.531   0.257  1.00  0.00    -0.318 N 
ATOM      5  HN  UNL     1      -4.799 -20.443   0.714  1.00  0.00     0.169 HD
HETATM    6  N   UNL     1      -5.412 -18.230  -1.640  1.00  0.00    -0.333 N 
ATOM      7  HN  UNL     1      -5.836 -18.197  -2.568  1.00  0.00     0.168 HD
HETATM    8  C   UNL     1      -5.332 -19.358  -0.950  1.00  0.00     0.194 A 
HETATM    9  N   UNL     1      -5.894 -20.521  -1.605  1.00  0.00    -0.063 NA
HETATM   10  N   UNL     1      -3.767 -18.593   2.141  1.00  0.00    -0.082 NA
ENDROOT
BRANCH   1  11
HETATM   11  C   UNL     1      -4.974 -15.836  -1.848  1.00  0.00     0.058 C 
BRANCH  11  12
HETATM   12  C   UNL     1      -3.766 -15.644  -2.764  1.00  0.00     0.006 C 
BRANCH  12  13
HETATM   13  C   UNL     1      -3.252 -14.211  -2.643  1.00  0.00     0.000 C 
BRANCH  13  14
HETATM   14  C   UNL     1      -4.203 -13.357  -1.805  1.00  0.00    -0.000 C 
BRANCH  14  15
HETATM   15  C   UNL     1      -3.367 -12.253  -1.165  1.00  0.00    -0.005 C 
HETATM   16  C   UNL     1      -1.962 -12.268  -1.776  1.00  0.00     0.005 C 
ENDBRANCH  14  15
ENDBRANCH  13  14
ENDBRANCH  12  13
ENDBRANCH  11  12
ENDBRANCH   1  11
BRANCH   2  17
HETATM   17  C   UNL     1      -3.775 -16.002   0.914  1.00  0.00    -0.021 A 
HETATM   18  C   UNL     1      -4.506 -15.258   1.742  1.00  0.00     0.012 A 
HETATM   19  C   UNL     1      -3.854 -14.054   2.414  1.00  0.00     0.001 A 
HETATM   20  C   UNL     1      -2.591 -13.755   2.157  1.00  0.00     0.000 A 
HETATM   21  C   UNL     1      -1.773 -14.608   1.206  1.00  0.00     0.001 A 
HETATM   22  C   UNL     1      -2.328 -15.649   0.626  1.00  0.00     0.012 A 
ENDBRANCH   2  17
TORSDOF 6
ENDMDL
MODEL 11
REMARK VINA RESULT:    -7.419      1.678      2.401
REMARK INTER + INTRA:         -11.504
REMARK INTER:                  -9.593
REMARK INTRA:                  -1.911
REMARK UNBOUND:                -1.483
REMARK  6 active torsions:
REMARK  status: ('A' for Active; 'I' for Inactive)
REMARK    1  A    between atoms: C_1  and  C_13 
REMARK    2  A    between atoms: C_2  and  C_17 
REMARK    3  A    between atoms: C_9  and  C_10 
REMARK    4  A    between atoms: C_10  and  C_11 
REMARK    5  A    between atoms: C_11  and  C_12 
REMARK    6  A    between atoms: C_12  and  C_13 
ROOT
HETATM    1  C   UNL     1      -5.121 -17.408  -2.431  1.00  0.00     0.026 A 
HETATM    2  C   UNL     1      -4.712 -17.964  -1.244  1.00  0.00     0.038 A 
HETATM    3  C   UNL     1      -4.780 -19.343  -1.107  1.00  0.00     0.131 A 
HETATM    4  N   UNL     1      -5.195 -20.112  -2.090  1.00  0.00    -0.318 N 
ATOM      5  HN  UNL     1      -5.235 -21.128  -2.005  1.00  0.00     0.169 HD
HETATM    6  N   UNL     1      -5.548 -18.176  -3.421  1.00  0.00    -0.333 N 
ATOM      7  HN  UNL     1      -5.854 -17.783  -4.311  1.00  0.00     0.168 HD
HETATM    8  C   UNL     1      -5.556 -19.481  -3.196  1.00  0.00     0.194 A 
HETATM    9  N   UNL     1      -6.037 -20.292  -4.295  1.00  0.00    -0.063 NA
HETATM   10  N   UNL     1      -4.381 -19.986   0.114  1.00  0.00    -0.082 NA
ENDROOT
BRANCH   1  11
HETATM   11  C   UNL     1      -5.080 -15.898  -2.673  1.00  0.00     0.058 C 
BRANCH  11  12
HETATM   12  C   UNL     1      -3.702 -15.412  -3.117  1.00  0.00     0.006 C 
BRANCH  12  13
HETATM   13  C   UNL     1      -3.508 -13.958  -2.692  1.00  0.00     0.000 C 
BRANCH  13  14
HETATM   14  C   UNL     1      -4.535 -13.555  -1.634  1.00  0.00    -0.000 C 
BRANCH  14  15
HETATM   15  C   UNL     1      -3.762 -12.945  -0.469  1.00  0.00    -0.005 C 
HETATM   16  C   UNL     1      -2.295 -12.773  -0.874  1.00  0.00     0.005 C 
ENDBRANCH  14  15
ENDBRANCH  13  14
ENDBRANCH  12  13
ENDBRANCH  11  12
ENDBRANCH   1  11
BRANCH   2  17
HETATM   17  C   UNL     1      -4.232 -17.129  -0.053  1.00  0.00    -0.021 A 
HETATM   18  C   UNL     1      -5.057 -16.708   0.903  1.00  0.00     0.012 A 
HETATM   19  C   UNL     1      -4.489 -15.870   2.044  1.00  0.00     0.001 A 
HETATM   20  C   UNL     1      -3.203 -15.558   2.061  1.00  0.00     0.000 A 
HETATM   21  C   UNL     1      -2.277 -16.038   0.960  1.00  0.00     0.001 A 
HETATM   22  C   UNL     1      -2.760 -16.764  -0.024  1.00  0.00     0.012 A 
ENDBRANCH   2  17
TORSDOF 6
ENDMDL
MODEL 12
REMARK VINA RESULT:    -7.309      1.623      4.242
REMARK INTER + INTRA:         -11.356
REMARK INTER:                  -9.785
REMARK INTRA:                  -1.571
REMARK UNBOUND:                -1.483
REMARK  6 active torsions:
REMARK  status: ('A' for Active; 'I' for Inactive)
REMARK    1  A    between atoms: C_1  and  C_13 
REMARK    2  A    between atoms: C_2  and  C_17 
REMARK    3  A    between atoms: C_9  and  C_10 
REMARK    4  A    between atoms: C_10  and  C_11 
REMARK    5  A    between atoms: C_11  and  C_12 
REMARK    6  A    between atoms: C_12  and  C_13 
ROOT
HETATM    1  C   UNL     1      -3.355 -17.340  -1.382  1.00  0.00     0.026 A 
HETATM    2  C   UNL     1      -3.293 -16.114  -1.997  1.00  0.00     0.038 A 
HETATM    3  C   UNL     1      -4.036 -15.921  -3.154  1.00  0.00     0.131 A 
HETATM    4  N   UNL     1      -4.806 -16.868  -3.642  1.00  0.00    -0.318 N 
ATOM      5  HN  UNL     1      -5.367 -16.733  -4.483  1.00  0.00     0.169 HD
HETATM    6  N   UNL     1      -4.122 -18.300  -1.873  1.00  0.00    -0.333 N 
ATOM      7  HN  UNL     1      -4.183 -19.217  -1.430  1.00  0.00     0.168 HD
HETATM    8  C   UNL     1      -4.805 -18.009  -2.970  1.00  0.00     0.194 A 
HETATM    9  N   UNL     1      -5.627 -19.083  -3.487  1.00  0.00    -0.063 NA
HETATM   10  N   UNL     1      -4.003 -14.667  -3.853  1.00  0.00    -0.082 NA
ENDROOT
BRANCH   1  11
HETATM   11  C   UNL     1      -2.573 -17.643  -0.103  1.00  0.00     0.058 C 
BRANCH  11  12
HETATM   12  C   UNL     1      -3.484 -17.919   1.092  1.00  0.00     0.006 C 
BRANCH  12  13
HETATM   13  C   UNL     1      -3.857 -16.603   1.770  1.00  0.00     0.000 C 
BRANCH  13  14
HETATM   14  C   UNL     1      -2.633 -15.958   2.422  1.00  0.00    -0.000 C 
BRANCH  14  15
HETATM   15  C   UNL     1      -3.027 -14.533   2.798  1.00  0.00    -0.005 C 
HETATM   16  C   UNL     1      -4.522 -14.336   2.531  1.00  0.00     0.005 C 
ENDBRANCH  14  15
ENDBRANCH  13  14
ENDBRANCH  12  13
ENDBRANCH  11  12
ENDBRANCH   1  11
BRANCH   2  17
HETATM   17  C   UNL     1      -2.407 -14.971  -1.492  1.00  0.00    -0.021 A 
HETATM   18  C   UNL     1      -2.878 -13.987  -0.729  1.00  0.00     0.012 A 
HETATM   19  C   UNL     1      -1.922 -12.884  -0.284  1.00  0.00     0.001 A 
HETATM   20  C   UNL     1      -0.657 -12.907  -0.672  1.00  0.00     0.000 A 
HETATM   21  C   UNL     1      -0.137 -14.030  -1.548  1.00  0.00     0.001 A 
HETATM   22  C   UNL     1      -0.955 -14.986  -1.931  1.00  0.00     0.012 A 
ENDBRANCH   2  17
TORSDOF 6
ENDMDL
MODEL 13
REMARK VINA RESULT:    -7.276      3.888      5.536
REMARK INTER + INTRA:         -11.311
REMARK INTER:                  -9.842
REMARK INTRA:                  -1.469
REMARK UNBOUND:                -1.483
REMARK  6 active torsions:
REMARK  status: ('A' for Active; 'I' for Inactive)
REMARK    1  A    between atoms: C_1  and  C_13 
REMARK    2  A    between atoms: C_2  and  C_17 
REMARK    3  A    between atoms: C_9  and  C_10 
REMARK    4  A    between atoms: C_10  and  C_11 
REMARK    5  A    between atoms: C_11  and  C_12 
REMARK    6  A    between atoms: C_12  and  C_13 
ROOT
HETATM    1  C   UNL     1      -3.743 -13.614   0.668  1.00  0.00     0.026 A 
HETATM    2  C   UNL     1      -3.416 -14.940   0.820  1.00  0.00     0.038 A 
HETATM    3  C   UNL     1      -3.376 -15.464   2.104  1.00  0.00     0.131 A 
HETATM    4  N   UNL     1      -3.669 -14.729   3.155  1.00  0.00    -0.318 N 
ATOM      5  HN  UNL     1      -3.657 -15.107   4.103  1.00  0.00     0.169 HD
HETATM    6  N   UNL     1      -4.031 -12.869   1.722  1.00  0.00    -0.333 N 
ATOM      7  HN  UNL     1      -4.278 -11.883   1.631  1.00  0.00     0.168 HD
HETATM    8  C   UNL     1      -3.982 -13.468   2.903  1.00  0.00     0.194 A 
HETATM    9  N   UNL     1      -4.294 -12.623   4.036  1.00  0.00    -0.063 NA
HETATM   10  N   UNL     1      -3.026 -16.838   2.333  1.00  0.00    -0.082 NA
ENDROOT
BRANCH   1  11
HETATM   11  C   UNL     1      -3.814 -12.953  -0.709  1.00  0.00     0.058 C 
BRANCH  11  12
HETATM   12  C   UNL     1      -3.286 -11.519  -0.700  1.00  0.00     0.006 C 
BRANCH  12  13
HETATM   13  C   UNL     1      -1.895 -11.479  -1.327  1.00  0.00     0.000 C 
BRANCH  13  14
HETATM   14  C   UNL     1      -1.624 -12.744  -2.141  1.00  0.00    -0.000 C 
BRANCH  14  15
HETATM   15  C   UNL     1      -0.183 -13.157  -1.860  1.00  0.00    -0.005 C 
HETATM   16  C   UNL     1       0.105 -12.993  -0.365  1.00  0.00     0.005 C 
ENDBRANCH  14  15
ENDBRANCH  13  14
ENDBRANCH  12  13
ENDBRANCH  11  12
ENDBRANCH   1  11
BRANCH   2  17
HETATM   17  C   UNL     1      -3.049 -15.849  -0.357  1.00  0.00    -0.021 A 
HETATM   18  C   UNL     1      -1.788 -16.078  -0.716  1.00  0.00     0.012 A 
HETATM   19  C   UNL     1      -1.520 -16.988  -1.911  1.00  0.00     0.001 A 
HETATM   20  C   UNL     1      -2.531 -17.518  -2.580  1.00  0.00     0.000 A 
HETATM   21  C   UNL     1      -3.963 -17.241  -2.165  1.00  0.00     0.001 A 
HETATM   22  C   UNL     1      -4.200 -16.460  -1.133  1.00  0.00     0.012 A 
ENDBRANCH   2  17
TORSDOF 6
ENDMDL
MODEL 14
REMARK VINA RESULT:    -7.243      4.462      7.025
REMARK INTER + INTRA:         -11.267
REMARK INTER:                  -9.585
REMARK INTRA:                  -1.682
REMARK UNBOUND:                -1.483
REMARK  6 active torsions:
REMARK  status: ('A' for Active; 'I' for Inactive)
REMARK    1  A    between atoms: C_1  and  C_13 
REMARK    2  A    between atoms: C_2  and  C_17 
REMARK    3  A    between atoms: C_9  and  C_10 
REMARK    4  A    between atoms: C_10  and  C_11 
REMARK    5  A    between atoms: C_11  and  C_12 
REMARK    6  A    between atoms: C_12  and  C_13 
ROOT
HETATM    1  C   UNL     1      -3.281 -14.134   2.482  1.00  0.00     0.026 A 
HETATM    2  C   UNL     1      -3.154 -13.118   1.567  1.00  0.00     0.038 A 
HETATM    3  C   UNL     1      -3.769 -11.904   1.842  1.00  0.00     0.131 A 
HETATM    4  N   UNL     1      -4.434 -11.709   2.959  1.00  0.00    -0.318 N 
ATOM      5  HN  UNL     1      -4.878 -10.817   3.178  1.00  0.00     0.169 HD
HETATM    6  N   UNL     1      -3.956 -13.945   3.604  1.00  0.00    -0.333 N 
ATOM      7  HN  UNL     1      -4.061 -14.686   4.298  1.00  0.00     0.168 HD
HETATM    8  C   UNL     1      -4.490 -12.746   3.780  1.00  0.00     0.194 A 
HETATM    9  N   UNL     1      -5.229 -12.576   5.014  1.00  0.00    -0.063 NA
HETATM   10  N   UNL     1      -3.687 -10.807   0.919  1.00  0.00    -0.082 NA
ENDROOT
BRANCH   1  11
HETATM   11  C   UNL     1      -2.636 -15.503   2.264  1.00  0.00     0.058 C 
BRANCH  11  12
HETATM   12  C   UNL     1      -3.658 -16.585   1.920  1.00  0.00     0.006 C 
BRANCH  12  13
HETATM   13  C   UNL     1      -3.727 -16.765   0.405  1.00  0.00     0.000 C 
BRANCH  13  14
HETATM   14  C   UNL     1      -2.330 -16.937  -0.190  1.00  0.00    -0.000 C 
BRANCH  14  15
HETATM   15  C   UNL     1      -2.512 -17.343  -1.649  1.00  0.00    -0.005 C 
HETATM   16  C   UNL     1      -1.172 -17.213  -2.379  1.00  0.00     0.005 C 
ENDBRANCH  14  15
ENDBRANCH  13  14
ENDBRANCH  12  13
ENDBRANCH  11  12
ENDBRANCH   1  11
BRANCH   2  17
HETATM   17  C   UNL     1      -2.407 -13.280   0.239  1.00  0.00    -0.021 A 
HETATM   18  C   UNL     1      -3.039 -13.383  -0.928  1.00  0.00     0.012 A 
HETATM   19  C   UNL     1      -2.210 -13.555  -2.197  1.00  0.00     0.001 A 
HETATM   20  C   UNL     1      -0.890 -13.617  -2.124  1.00  0.00     0.000 A 
HETATM   21  C   UNL     1      -0.184 -13.506  -0.786  1.00  0.00     0.001 A 
HETATM   22  C   UNL     1      -0.893 -13.354   0.311  1.00  0.00     0.012 A 
ENDBRANCH   2  17
TORSDOF 6
ENDMDL
MODEL 15
REMARK VINA RESULT:    -7.225      3.676      6.284
REMARK INTER + INTRA:         -11.242
REMARK INTER:                  -9.375
REMARK INTRA:                  -1.867
REMARK UNBOUND:                -1.483
REMARK  6 active torsions:
REMARK  status: ('A' for Active; 'I' for Inactive)
REMARK    1  A    between atoms: C_1  and  C_13 
REMARK    2  A    between atoms: C_2  and  C_17 
REMARK    3  A    between atoms: C_9  and  C_10 
REMARK    4  A    between atoms: C_10  and  C_11 
REMARK    5  A    between atoms: C_11  and  C_12 
REMARK    6  A    between atoms: C_12  and  C_13 
ROOT
HETATM    1  C   UNL     1      -4.181 -15.296   2.055  1.00  0.00     0.026 A 
HETATM    2  C   UNL     1      -3.543 -14.706   0.992  1.00  0.00     0.038 A 
HETATM    3  C   UNL     1      -3.266 -13.348   1.063  1.00  0.00     0.131 A 
HETATM    4  N   UNL     1      -3.575 -12.639   2.126  1.00  0.00    -0.318 N 
ATOM      5  HN  UNL     1      -3.364 -11.643   2.195  1.00  0.00     0.169 HD
HETATM    6  N   UNL     1      -4.502 -14.585   3.124  1.00  0.00    -0.333 N 
ATOM      7  HN  UNL     1      -4.975 -15.005   3.925  1.00  0.00     0.168 HD
HETATM    8  C   UNL     1      -4.178 -13.301   3.101  1.00  0.00     0.194 A 
HETATM    9  N   UNL     1      -4.551 -12.550   4.281  1.00  0.00    -0.063 NA
HETATM   10  N   UNL     1      -2.614 -12.668  -0.021  1.00  0.00    -0.082 NA
ENDROOT
BRANCH   1  11
HETATM   11  C   UNL     1      -4.524 -16.786   2.066  1.00  0.00     0.058 C 
BRANCH  11  12
HETATM   12  C   UNL     1      -3.341 -17.658   2.482  1.00  0.00     0.006 C 
BRANCH  12  13
HETATM   13  C   UNL     1      -3.252 -18.876   1.565  1.00  0.00     0.000 C 
BRANCH  13  14
HETATM   14  C   UNL     1      -4.589 -19.139   0.872  1.00  0.00    -0.000 C 
BRANCH  14  15
HETATM   15  C   UNL     1      -4.298 -19.296  -0.617  1.00  0.00    -0.005 C 
HETATM   16  C   UNL     1      -5.621 -19.387  -1.382  1.00  0.00     0.005 C 
ENDBRANCH  14  15
ENDBRANCH  13  14
ENDBRANCH  12  13
ENDBRANCH  11  12
ENDBRANCH   1  11
BRANCH   2  17
HETATM   17  C   UNL     1      -3.167 -15.468  -0.282  1.00  0.00    -0.021 A 
HETATM   18  C   UNL     1      -1.960 -15.998  -0.468  1.00  0.00     0.012 A 
HETATM   19  C   UNL     1      -1.673 -16.729  -1.776  1.00  0.00     0.001 A 
HETATM   20  C   UNL     1      -2.609 -16.811  -2.708  1.00  0.00     0.000 A 
HETATM   21  C   UNL     1      -3.977 -16.195  -2.486  1.00  0.00     0.001 A 
HETATM   22  C   UNL     1      -4.231 -15.567  -1.359  1.00  0.00     0.012 A 
ENDBRANCH   2  17
TORSDOF 6
ENDMDL
MODEL 16
REMARK VINA RESULT:    -7.169      3.129      5.957
REMARK INTER + INTRA:         -11.166
REMARK INTER:                  -9.732
REMARK INTRA:                  -1.435
REMARK UNBOUND:                -1.483
REMARK  6 active torsions:
REMARK  status: ('A' for Active; 'I' for Inactive)
REMARK    1  A    between atoms: C_1  and  C_13 
REMARK    2  A    between atoms: C_2  and  C_17 
REMARK    3  A    between atoms: C_9  and  C_10 
REMARK    4  A    between atoms: C_10  and  C_11 
REMARK    5  A    between atoms: C_11  and  C_12 
REMARK    6  A    between atoms: C_12  and  C_13 
ROOT
HETATM    1  C   UNL     1      -2.330 -16.626   0.018  1.00  0.00     0.026 A 
HETATM    2  C   UNL     1      -2.330 -15.356   0.541  1.00  0.00     0.038 A 
HETATM    3  C   UNL     1      -2.734 -15.187   1.858  1.00  0.00     0.131 A 
HETATM    4  N   UNL     1      -3.080 -16.211   2.606  1.00  0.00    -0.318 N 
ATOM      5  HN  UNL     1      -3.365 -16.101   3.580  1.00  0.00     0.169 HD
HETATM    6  N   UNL     1      -2.686 -17.659   0.764  1.00  0.00    -0.333 N 
ATOM      7  HN  UNL     1      -2.691 -18.611   0.396  1.00  0.00     0.168 HD
HETATM    8  C   UNL     1      -3.036 -17.394   2.014  1.00  0.00     0.194 A 
HETATM    9  N   UNL     1      -3.429 -18.545   2.801  1.00  0.00    -0.063 NA
HETATM   10  N   UNL     1      -2.771 -13.884   2.459  1.00  0.00    -0.082 NA
ENDROOT
BRANCH   1  11
HETATM   11  C   UNL     1      -1.899 -16.907  -1.422  1.00  0.00     0.058 C 
BRANCH  11  12
HETATM   12  C   UNL     1      -3.027 -17.496  -2.268  1.00  0.00     0.006 C 
BRANCH  12  13
HETATM   13  C   UNL     1      -3.868 -16.368  -2.861  1.00  0.00     0.000 C 
BRANCH  13  14
HETATM   14  C   UNL     1      -5.221 -16.265  -2.157  1.00  0.00    -0.000 C 
BRANCH  14  15
HETATM   15  C   UNL     1      -5.655 -17.686  -1.813  1.00  0.00    -0.005 C 
HETATM   16  C   UNL     1      -6.178 -17.718  -0.374  1.00  0.00     0.005 C 
ENDBRANCH  14  15
ENDBRANCH  13  14
ENDBRANCH  12  13
ENDBRANCH  11  12
ENDBRANCH   1  11
BRANCH   2  17
HETATM   17  C   UNL     1      -1.953 -14.117  -0.278  1.00  0.00    -0.021 A 
HETATM   18  C   UNL     1      -2.855 -13.397  -0.940  1.00  0.00     0.012 A 
HETATM   19  C   UNL     1      -2.383 -12.186  -1.739  1.00  0.00     0.001 A 
HETATM   20  C   UNL     1      -1.096 -11.880  -1.780  1.00  0.00     0.000 A 
HETATM   21  C   UNL     1      -0.078 -12.715  -1.026  1.00  0.00     0.001 A 
HETATM   22  C   UNL     1      -0.480 -13.758  -0.333  1.00  0.00     0.012 A 
ENDBRANCH   2  17
TORSDOF 6
ENDMDL
MODEL 17
REMARK VINA RESULT:    -7.083      2.306      3.361
REMARK INTER + INTRA:         -11.051
REMARK INTER:                  -8.985
REMARK INTRA:                  -2.066
REMARK UNBOUND:                -1.483
REMARK  6 active torsions:
REMARK  status: ('A' for Active; 'I' for Inactive)
REMARK    1  A    between atoms: C_1  and  C_13 
REMARK    2  A    between atoms: C_2  and  C_17 
REMARK    3  A    between atoms: C_9  and  C_10 
REMARK    4  A    between atoms: C_10  and  C_11 
REMARK    5  A    between atoms: C_11  and  C_12 
REMARK    6  A    between atoms: C_12  and  C_13 
ROOT
HETATM    1  C   UNL     1      -4.305 -15.948  -2.755  1.00  0.00     0.026 A 
HETATM    2  C   UNL     1      -3.758 -16.432  -1.593  1.00  0.00     0.038 A 
HETATM    3  C   UNL     1      -3.889 -17.786  -1.318  1.00  0.00     0.131 A 
HETATM    4  N   UNL     1      -4.493 -18.601  -2.155  1.00  0.00    -0.318 N 
ATOM      5  HN  UNL     1      -4.583 -19.600  -1.970  1.00  0.00     0.169 HD
HETATM    6  N   UNL     1      -4.922 -16.761  -3.596  1.00  0.00    -0.333 N 
ATOM      7  HN  UNL     1      -5.334 -16.422  -4.466  1.00  0.00     0.168 HD
HETATM    8  C   UNL     1      -4.978 -18.039  -3.251  1.00  0.00     0.194 A 
HETATM    9  N   UNL     1      -5.667 -18.901  -4.189  1.00  0.00    -0.063 NA
HETATM   10  N   UNL     1      -3.352 -18.352  -0.113  1.00  0.00    -0.082 NA
ENDROOT
BRANCH   1  11
HETATM   11  C   UNL     1      -4.208 -14.471  -3.140  1.00  0.00     0.058 C 
BRANCH  11  12
HETATM   12  C   UNL     1      -5.370 -13.643  -2.593  1.00  0.00     0.006 C 
BRANCH  12  13
HETATM   13  C   UNL     1      -4.856 -12.287  -2.117  1.00  0.00     0.000 C 
BRANCH  13  14
HETATM   14  C   UNL     1      -3.327 -12.258  -2.093  1.00  0.00    -0.000 C 
BRANCH  14  15
HETATM   15  C   UNL     1      -2.915 -11.299  -0.980  1.00  0.00    -0.005 C 
HETATM   16  C   UNL     1      -4.105 -11.077  -0.042  1.00  0.00     0.005 C 
ENDBRANCH  14  15
ENDBRANCH  13  14
ENDBRANCH  12  13
ENDBRANCH  11  12
ENDBRANCH   1  11
BRANCH   2  17
HETATM   17  C   UNL     1      -3.053 -15.538  -0.567  1.00  0.00    -0.021 A 
HETATM   18  C   UNL     1      -1.764 -15.218  -0.666  1.00  0.00     0.012 A 
HETATM   19  C   UNL     1      -1.145 -14.332   0.411  1.00  0.00     0.001 A 
HETATM   20  C   UNL     1      -1.881 -13.912   1.428  1.00  0.00     0.000 A 
HETATM   21  C   UNL     1      -3.346 -14.293   1.531  1.00  0.00     0.001 A 
HETATM   22  C   UNL     1      -3.886 -15.053   0.604  1.00  0.00     0.012 A 
ENDBRANCH   2  17
TORSDOF 6
ENDMDL
MODEL 18
REMARK VINA RESULT:    -7.045      2.758      4.190
REMARK INTER + INTRA:         -10.999
REMARK INTER:                  -9.506
REMARK INTRA:                  -1.493
REMARK UNBOUND:                -1.483
REMARK  6 active torsions:
REMARK  status: ('A' for Active; 'I' for Inactive)
REMARK    1  A    between atoms: C_1  and  C_13 
REMARK    2  A    between atoms: C_2  and  C_17 
REMARK    3  A    between atoms: C_9  and  C_10 
REMARK    4  A    between atoms: C_10  and  C_11 
REMARK    5  A    between atoms: C_11  and  C_12 
REMARK    6  A    between atoms: C_12  and  C_13 
ROOT
HETATM    1  C   UNL     1      -4.064 -13.296  -2.653  1.00  0.00     0.026 A 
HETATM    2  C   UNL     1      -4.391 -14.629  -2.611  1.00  0.00     0.038 A 
HETATM    3  C   UNL     1      -5.716 -14.988  -2.819  1.00  0.00     0.131 A 
HETATM    4  N   UNL     1      -6.638 -14.088  -3.080  1.00  0.00    -0.318 N 
ATOM      5  HN  UNL     1      -7.612 -14.341  -3.248  1.00  0.00     0.169 HD
HETATM    6  N   UNL     1      -4.990 -12.386  -2.906  1.00  0.00    -0.333 N 
ATOM      7  HN  UNL     1      -4.768 -11.390  -2.943  1.00  0.00     0.168 HD
HETATM    8  C   UNL     1      -6.221 -12.832  -3.108  1.00  0.00     0.194 A 
HETATM    9  N   UNL     1      -7.212 -11.810  -3.374  1.00  0.00    -0.063 NA
HETATM   10  N   UNL     1      -6.126 -16.364  -2.774  1.00  0.00    -0.082 NA
ENDROOT
BRANCH   1  11
HETATM   11  C   UNL     1      -2.631 -12.809  -2.437  1.00  0.00     0.058 C 
BRANCH  11  12
HETATM   12  C   UNL     1      -2.506 -11.859  -1.247  1.00  0.00     0.006 C 
BRANCH  12  13
HETATM   13  C   UNL     1      -2.289 -12.663   0.032  1.00  0.00     0.000 C 
BRANCH  13  14
HETATM   14  C   UNL     1      -3.533 -12.623   0.922  1.00  0.00    -0.000 C 
BRANCH  14  15
HETATM   15  C   UNL     1      -3.322 -13.650   2.030  1.00  0.00    -0.005 C 
HETATM   16  C   UNL     1      -1.855 -14.089   2.037  1.00  0.00     0.005 C 
ENDBRANCH  14  15
ENDBRANCH  13  14
ENDBRANCH  12  13
ENDBRANCH  11  12
ENDBRANCH   1  11
BRANCH   2  17
HETATM   17  C   UNL     1      -3.371 -15.729  -2.300  1.00  0.00    -0.021 A 
HETATM   18  C   UNL     1      -2.699 -16.370  -3.254  1.00  0.00     0.012 A 
HETATM   19  C   UNL     1      -1.712 -17.460  -2.848  1.00  0.00     0.001 A 
HETATM   20  C   UNL     1      -1.551 -17.767  -1.571  1.00  0.00     0.000 A 
HETATM   21  C   UNL     1      -2.330 -17.033  -0.496  1.00  0.00     0.001 A 
HETATM   22  C   UNL     1      -3.179 -16.089  -0.839  1.00  0.00     0.012 A 
ENDBRANCH   2  17
TORSDOF 6
ENDMDL
MODEL 19
REMARK VINA RESULT:    -7.041      2.239      4.633
REMARK INTER + INTRA:         -10.993
REMARK INTER:                  -9.934
REMARK INTRA:                  -1.059
REMARK UNBOUND:                -1.483
REMARK  6 active torsions:
REMARK  status: ('A' for Active; 'I' for Inactive)
REMARK    1  A    between atoms: C_1  and  C_13 
REMARK    2  A    between atoms: C_2  and  C_17 
REMARK    3  A    between atoms: C_9  and  C_10 
REMARK    4  A    between atoms: C_10  and  C_11 
REMARK    5  A    between atoms: C_11  and  C_12 
REMARK    6  A    between atoms: C_12  and  C_13 
ROOT
HETATM    1  C   UNL     1      -3.391 -17.111   0.577  1.00  0.00     0.026 A 
HETATM    2  C   UNL     1      -3.243 -16.711  -0.728  1.00  0.00     0.038 A 
HETATM    3  C   UNL     1      -3.748 -17.530  -1.728  1.00  0.00     0.131 A 
HETATM    4  N   UNL     1      -4.380 -18.648  -1.446  1.00  0.00    -0.318 N 
ATOM      5  HN  UNL     1      -4.768 -19.251  -2.172  1.00  0.00     0.169 HD
HETATM    6  N   UNL     1      -4.018 -18.240   0.866  1.00  0.00    -0.333 N 
ATOM      7  HN  UNL     1      -4.140 -18.554   1.829  1.00  0.00     0.168 HD
HETATM    8  C   UNL     1      -4.479 -18.940  -0.159  1.00  0.00     0.194 A 
HETATM    9  N   UNL     1      -5.152 -20.174   0.191  1.00  0.00    -0.063 NA
HETATM   10  N   UNL     1      -3.613 -17.176  -3.113  1.00  0.00    -0.082 NA
ENDROOT
BRANCH   1  11
HETATM   11  C   UNL     1      -2.867 -16.272   1.744  1.00  0.00     0.058 C 
BRANCH  11  12
HETATM   12  C   UNL     1      -3.896 -15.260   2.247  1.00  0.00     0.006 C 
BRANCH  12  13
HETATM   13  C   UNL     1      -3.179 -14.039   2.819  1.00  0.00     0.000 C 
BRANCH  13  14
HETATM   14  C   UNL     1      -3.657 -12.755   2.139  1.00  0.00    -0.000 C 
BRANCH  14  15
HETATM   15  C   UNL     1      -4.244 -11.864   3.230  1.00  0.00    -0.005 C 
HETATM   16  C   UNL     1      -4.900 -12.743   4.299  1.00  0.00     0.005 C 
ENDBRANCH  14  15
ENDBRANCH  13  14
ENDBRANCH  12  13
ENDBRANCH  11  12
ENDBRANCH   1  11
BRANCH   2  17
HETATM   17  C   UNL     1      -2.506 -15.429  -1.129  1.00  0.00    -0.021 A 
HETATM   18  C   UNL     1      -1.190 -15.392  -1.322  1.00  0.00     0.012 A 
HETATM   19  C   UNL     1      -0.542 -14.066  -1.707  1.00  0.00     0.001 A 
HETATM   20  C   UNL     1      -1.283 -12.976  -1.826  1.00  0.00     0.000 A 
HETATM   21  C   UNL     1      -2.781 -13.031  -1.595  1.00  0.00     0.001 A 
HETATM   22  C   UNL     1      -3.346 -14.173  -1.267  1.00  0.00     0.012 A 
ENDBRANCH   2  17
TORSDOF 6
ENDMDL
MODEL 20
REMARK VINA RESULT:    -6.944      2.353      4.279
REMARK INTER + INTRA:         -10.862
REMARK INTER:                  -9.255
REMARK INTRA:                  -1.607
REMARK UNBOUND:                -1.483
REMARK  6 active torsions:
REMARK  status: ('A' for Active; 'I' for Inactive)
REMARK    1  A    between atoms: C_1  and  C_13 
REMARK    2  A    between atoms: C_2  and  C_17 
REMARK    3  A    between atoms: C_9  and  C_10 
REMARK    4  A    between atoms: C_10  and  C_11 
REMARK    5  A    between atoms: C_11  and  C_12 
REMARK    6  A    between atoms: C_12  and  C_13 
ROOT
HETATM    1  C   UNL     1      -4.537 -17.171  -1.273  1.00  0.00     0.026 A 
HETATM    2  C   UNL     1      -3.624 -16.876  -0.290  1.00  0.00     0.038 A 
HETATM    3  C   UNL     1      -3.669 -17.606   0.890  1.00  0.00     0.131 A 
HETATM    4  N   UNL     1      -4.539 -18.576   1.064  1.00  0.00    -0.318 N 
ATOM      5  HN  UNL     1      -4.573 -19.129   1.921  1.00  0.00     0.169 HD
HETATM    6  N   UNL     1      -5.420 -18.141  -1.099  1.00  0.00    -0.333 N 
ATOM      7  HN  UNL     1      -6.105 -18.376  -1.818  1.00  0.00     0.168 HD
HETATM    8  C   UNL     1      -5.368 -18.789   0.055  1.00  0.00     0.194 A 
HETATM    9  N   UNL     1      -6.354 -19.838   0.216  1.00  0.00    -0.063 NA
HETATM   10  N   UNL     1      -2.752 -17.337   1.962  1.00  0.00    -0.082 NA
ENDROOT
BRANCH   1  11
HETATM   11  C   UNL     1      -4.559 -16.420  -2.605  1.00  0.00     0.058 C 
BRANCH  11  12
HETATM   12  C   UNL     1      -5.832 -15.597  -2.793  1.00  0.00     0.006 C 
BRANCH  12  13
HETATM   13  C   UNL     1      -5.475 -14.116  -2.903  1.00  0.00     0.000 C 
BRANCH  13  14
HETATM   14  C   UNL     1      -4.018 -13.934  -3.329  1.00  0.00    -0.000 C 
BRANCH  14  15
HETATM   15  C   UNL     1      -3.511 -12.664  -2.653  1.00  0.00    -0.005 C 
HETATM   16  C   UNL     1      -4.582 -12.143  -1.691  1.00  0.00     0.005 C 
ENDBRANCH  14  15
ENDBRANCH  13  14
ENDBRANCH  12  13
ENDBRANCH  11  12
ENDBRANCH   1  11
BRANCH   2  17
HETATM   17  C   UNL     1      -2.593 -15.751  -0.419  1.00  0.00    -0.021 A 
HETATM   18  C   UNL     1      -1.590 -15.798  -1.294  1.00  0.00     0.012 A 
HETATM   19  C   UNL     1      -0.604 -14.635  -1.342  1.00  0.00     0.001 A 
HETATM   20  C   UNL     1      -0.743 -13.614  -0.512  1.00  0.00     0.000 A 
HETATM   21  C   UNL     1      -1.885 -13.578   0.485  1.00  0.00     0.001 A 
HETATM   22  C   UNL     1      -2.741 -14.575   0.529  1.00  0.00     0.012 A 
ENDBRANCH   2  17
TORSDOF 6
ENDMDL
