MODEL 1
REMARK VINA RESULT:    -3.864      0.000      0.000
REMARK INTER + INTRA:          -4.344
REMARK INTER:                  -4.316
REMARK INTRA:                  -0.028
REMARK UNBOUND:                -0.028
REMARK  2 active torsions:
REMARK  status: ('A' for Active; 'I' for Inactive)
REMARK    1  A    between atoms: C_2  and  C_4 
REMARK    2  A    between atoms: C_5  and  C_6 
ROOT
HETATM    1  C   UNL     1      -0.965 -32.102   8.327  1.00  0.00     0.091 C 
HETATM    2  C   UNL     1       0.164 -31.491   8.687  1.00  0.00     0.091 C 
ENDROOT
BRANCH   1   3
HETATM    3  C   UNL     1      -1.138 -33.126   7.268  1.00  0.00     0.198 C 
HETATM    4  O   UNL     1      -0.319 -34.050   7.244  1.00  0.00    -0.645 OA
HETATM    5  O   UNL     1      -2.045 -32.986   6.433  1.00  0.00    -0.645 OA
ENDBRANCH   1   3
BRANCH   2   6
HETATM    6  C   UNL     1       0.253 -30.536   9.827  1.00  0.00     0.198 C 
HETATM    7  O   UNL     1       1.157 -30.692  10.668  1.00  0.00    -0.645 OA
HETATM    8  O   UNL     1      -0.582 -29.632   9.885  1.00  0.00    -0.645 OA
ENDBRANCH   2   6
TORSDOF 2
ENDMDL
MODEL 2
REMARK VINA RESULT:    -3.839      0.411      4.259
REMARK INTER + INTRA:          -4.316
REMARK INTER:                  -4.289
REMARK INTRA:                  -0.027
REMARK UNBOUND:                -0.028
REMARK  2 active torsions:
REMARK  status: ('A' for Active; 'I' for Inactive)
REMARK    1  A    between atoms: C_2  and  C_4 
REMARK    2  A    between atoms: C_5  and  C_6 
ROOT
HETATM    1  C   UNL     1      -0.218 -31.569   8.481  1.00  0.00     0.091 C 
HETATM    2  C   UNL     1      -1.264 -32.353   8.217  1.00  0.00     0.091 C 
ENDROOT
BRANCH   1   3
HETATM    3  C   UNL     1      -0.101 -30.550   9.553  1.00  0.00     0.198 C 
HETATM    4  O   UNL     1       0.851 -30.663  10.330  1.00  0.00    -0.645 OA
HETATM    5  O   UNL     1      -0.978 -29.679   9.657  1.00  0.00    -0.645 OA
ENDBRANCH   1   3
BRANCH   2   6
HETATM    6  C   UNL     1      -1.252 -33.412   7.169  1.00  0.00     0.198 C 
HETATM    7  O   UNL     1      -2.177 -33.440   6.337  1.00  0.00    -0.645 OA
HETATM    8  O   UNL     1      -0.319 -34.217   7.177  1.00  0.00    -0.645 OA
ENDBRANCH   2   6
TORSDOF 2
ENDMDL
MODEL 3
REMARK VINA RESULT:    -3.764      9.751     11.085
REMARK INTER + INTRA:          -4.232
REMARK INTER:                  -4.202
REMARK INTRA:                  -0.030
REMARK UNBOUND:                -0.028
REMARK  2 active torsions:
REMARK  status: ('A' for Active; 'I' for Inactive)
REMARK    1  A    between atoms: C_2  and  C_4 
REMARK    2  A    between atoms: C_5  and  C_6 
ROOT
HETATM    1  C   UNL     1       1.615 -22.734  14.033  1.00  0.00     0.091 C 
HETATM    2  C   UNL     1       1.664 -22.068  12.879  1.00  0.00     0.091 C 
ENDROOT
BRANCH   1   3
HETATM    3  C   UNL     1       0.745 -23.887  14.374  1.00  0.00     0.198 C 
HETATM    4  O   UNL     1       0.944 -24.434  15.463  1.00  0.00    -0.645 OA
HETATM    5  O   UNL     1      -0.089 -24.281  13.545  1.00  0.00    -0.645 OA
ENDBRANCH   1   3
BRANCH   2   6
HETATM    6  C   UNL     1       2.638 -20.975  12.603  1.00  0.00     0.198 C 
HETATM    7  O   UNL     1       3.410 -20.619  13.512  1.00  0.00    -0.645 OA
HETATM    8  O   UNL     1       2.633 -20.472  11.479  1.00  0.00    -0.645 OA
ENDBRANCH   2   6
TORSDOF 2
ENDMDL
MODEL 4
REMARK VINA RESULT:    -3.709      9.878     11.953
REMARK INTER + INTRA:          -4.171
REMARK INTER:                  -4.139
REMARK INTRA:                  -0.032
REMARK UNBOUND:                -0.028
REMARK  2 active torsions:
REMARK  status: ('A' for Active; 'I' for Inactive)
REMARK    1  A    between atoms: C_2  and  C_4 
REMARK    2  A    between atoms: C_5  and  C_6 
ROOT
HETATM    1  C   UNL     1       2.679 -22.344  14.701  1.00  0.00     0.091 C 
HETATM    2  C   UNL     1       1.606 -22.835  14.078  1.00  0.00     0.091 C 
ENDROOT
BRANCH   1   3
HETATM    3  C   UNL     1       3.513 -21.189  14.286  1.00  0.00     0.198 C 
HETATM    4  O   UNL     1       3.144 -20.563  13.288  1.00  0.00    -0.645 OA
HETATM    5  O   UNL     1       4.554 -20.939  14.912  1.00  0.00    -0.645 OA
ENDBRANCH   1   3
BRANCH   2   6
HETATM    6  C   UNL     1       0.780 -23.949  14.623  1.00  0.00     0.198 C 
HETATM    7  O   UNL     1      -0.182 -24.363  13.951  1.00  0.00    -0.645 OA
HETATM    8  O   UNL     1       1.091 -24.409  15.722  1.00  0.00    -0.645 OA
ENDBRANCH   2   6
TORSDOF 2
ENDMDL
MODEL 5
REMARK VINA RESULT:    -3.702      9.769     11.396
REMARK INTER + INTRA:          -4.163
REMARK INTER:                  -4.132
REMARK INTRA:                  -0.031
REMARK UNBOUND:                -0.028
REMARK  2 active torsions:
REMARK  status: ('A' for Active; 'I' for Inactive)
REMARK    1  A    between atoms: C_2  and  C_4 
REMARK    2  A    between atoms: C_5  and  C_6 
ROOT
HETATM    1  C   UNL     1       1.713 -22.085  12.970  1.00  0.00     0.091 C 
HETATM    2  C   UNL     1       1.676 -22.749  14.126  1.00  0.00     0.091 C 
ENDROOT
BRANCH   1   3
HETATM    3  C   UNL     1       2.656 -21.010  12.575  1.00  0.00     0.198 C 
HETATM    4  O   UNL     1       3.414 -20.583  13.452  1.00  0.00    -0.645 OA
HETATM    5  O   UNL     1       2.608 -20.554  11.423  1.00  0.00    -0.645 OA
ENDBRANCH   1   3
BRANCH   2   6
HETATM    6  C   UNL     1       0.741 -23.877  14.395  1.00  0.00     0.198 C 
HETATM    7  O   UNL     1      -0.044 -24.230  13.496  1.00  0.00    -0.645 OA
HETATM    8  O   UNL     1       0.790 -24.411  15.504  1.00  0.00    -0.645 OA
ENDBRANCH   2   6
TORSDOF 2
ENDMDL
MODEL 6
REMARK VINA RESULT:    -3.660      9.868     11.502
REMARK INTER + INTRA:          -4.116
REMARK INTER:                  -4.085
REMARK INTRA:                  -0.031
REMARK UNBOUND:                -0.028
REMARK  2 active torsions:
REMARK  status: ('A' for Active; 'I' for Inactive)
REMARK    1  A    between atoms: C_2  and  C_4 
REMARK    2  A    between atoms: C_5  and  C_6 
ROOT
HETATM    1  C   UNL     1       1.700 -22.889  14.198  1.00  0.00     0.091 C 
HETATM    2  C   UNL     1       2.698 -22.329  14.882  1.00  0.00     0.091 C 
ENDROOT
BRANCH   1   3
HETATM    3  C   UNL     1       0.776 -23.954  14.660  1.00  0.00     0.198 C 
HETATM    4  O   UNL     1       0.972 -24.413  15.789  1.00  0.00    -0.645 OA
HETATM    5  O   UNL     1      -0.101 -24.371  13.888  1.00  0.00    -0.645 OA
ENDBRANCH   1   3
BRANCH   2   6
HETATM    6  C   UNL     1       3.518 -21.199  14.360  1.00  0.00     0.198 C 
HETATM    7  O   UNL     1       3.085 -20.543  13.394  1.00  0.00    -0.645 OA
HETATM    8  O   UNL     1       4.593 -20.967  14.914  1.00  0.00    -0.645 OA
ENDBRANCH   2   6
TORSDOF 2
ENDMDL
MODEL 7
REMARK VINA RESULT:    -3.519     12.758     13.739
REMARK INTER + INTRA:          -3.958
REMARK INTER:                  -3.931
REMARK INTRA:                  -0.027
REMARK UNBOUND:                -0.028
REMARK  2 active torsions:
REMARK  status: ('A' for Active; 'I' for Inactive)
REMARK    1  A    between atoms: C_2  and  C_4 
REMARK    2  A    between atoms: C_5  and  C_6 
ROOT
HETATM    1  C   UNL     1       1.360 -33.975  21.288  1.00  0.00     0.091 C 
HETATM    2  C   UNL     1       0.513 -34.678  22.041  1.00  0.00     0.091 C 
ENDROOT
BRANCH   1   3
HETATM    3  C   UNL     1       2.775 -34.296  20.979  1.00  0.00     0.198 C 
HETATM    4  O   UNL     1       3.495 -34.615  21.930  1.00  0.00    -0.645 OA
HETATM    5  O   UNL     1       3.182 -34.179  19.814  1.00  0.00    -0.645 OA
ENDBRANCH   1   3
BRANCH   2   6
HETATM    6  C   UNL     1      -0.921 -34.317  22.220  1.00  0.00     0.198 C 
HETATM    7  O   UNL     1      -1.201 -33.247  22.791  1.00  0.00    -0.645 OA
HETATM    8  O   UNL     1      -1.768 -35.102  21.792  1.00  0.00    -0.645 OA
ENDBRANCH   2   6
TORSDOF 2
ENDMDL
MODEL 8
REMARK VINA RESULT:    -3.477      9.723     11.137
REMARK INTER + INTRA:          -3.912
REMARK INTER:                  -3.885
REMARK INTRA:                  -0.027
REMARK UNBOUND:                -0.028
REMARK  2 active torsions:
REMARK  status: ('A' for Active; 'I' for Inactive)
REMARK    1  A    between atoms: C_2  and  C_4 
REMARK    2  A    between atoms: C_5  and  C_6 
ROOT
HETATM    1  C   UNL     1      -5.838 -27.156  15.492  1.00  0.00     0.091 C 
HETATM    2  C   UNL     1      -6.790 -27.225  16.424  1.00  0.00     0.091 C 
ENDROOT
BRANCH   1   3
HETATM    3  C   UNL     1      -4.522 -26.480  15.594  1.00  0.00     0.198 C 
HETATM    4  O   UNL     1      -4.090 -25.940  14.571  1.00  0.00    -0.645 OA
HETATM    5  O   UNL     1      -3.897 -26.531  16.664  1.00  0.00    -0.645 OA
ENDBRANCH   1   3
BRANCH   2   6
HETATM    6  C   UNL     1      -8.047 -28.006  16.256  1.00  0.00     0.198 C 
HETATM    7  O   UNL     1      -8.865 -27.644  15.390  1.00  0.00    -0.645 OA
HETATM    8  O   UNL     1      -8.219 -28.982  16.989  1.00  0.00    -0.645 OA
ENDBRANCH   2   6
TORSDOF 2
ENDMDL
MODEL 9
REMARK VINA RESULT:    -3.453     10.089     10.781
REMARK INTER + INTRA:          -3.885
REMARK INTER:                  -3.855
REMARK INTRA:                  -0.030
REMARK UNBOUND:                -0.028
REMARK  2 active torsions:
REMARK  status: ('A' for Active; 'I' for Inactive)
REMARK    1  A    between atoms: C_2  and  C_4 
REMARK    2  A    between atoms: C_5  and  C_6 
ROOT
HETATM    1  C   UNL     1      -0.852 -32.550  18.739  1.00  0.00     0.091 C 
HETATM    2  C   UNL     1      -0.418 -31.639  19.612  1.00  0.00     0.091 C 
ENDROOT
BRANCH   1   3
HETATM    3  C   UNL     1      -1.071 -33.997  18.978  1.00  0.00     0.198 C 
HETATM    4  O   UNL     1      -1.506 -34.321  20.088  1.00  0.00    -0.645 OA
HETATM    5  O   UNL     1      -0.760 -34.811  18.095  1.00  0.00    -0.645 OA
ENDBRANCH   1   3
BRANCH   2   6
HETATM    6  C   UNL     1      -0.315 -30.186  19.299  1.00  0.00     0.198 C 
HETATM    7  O   UNL     1      -0.399 -29.824  18.111  1.00  0.00    -0.645 OA
HETATM    8  O   UNL     1      -0.149 -29.407  20.238  1.00  0.00    -0.645 OA
ENDBRANCH   2   6
TORSDOF 2
ENDMDL
MODEL 10
REMARK VINA RESULT:    -3.431      9.847     10.760
REMARK INTER + INTRA:          -3.861
REMARK INTER:                  -3.835
REMARK INTRA:                  -0.025
REMARK UNBOUND:                -0.028
REMARK  2 active torsions:
REMARK  status: ('A' for Active; 'I' for Inactive)
REMARK    1  A    between atoms: C_2  and  C_4 
REMARK    2  A    between atoms: C_5  and  C_6 
ROOT
HETATM    1  C   UNL     1      -6.934 -27.067  15.991  1.00  0.00     0.091 C 
HETATM    2  C   UNL     1      -5.715 -27.408  15.571  1.00  0.00     0.091 C 
ENDROOT
BRANCH   1   3
HETATM    3  C   UNL     1      -8.155 -27.909  15.997  1.00  0.00     0.198 C 
HETATM    4  O   UNL     1      -9.036 -27.621  15.182  1.00  0.00    -0.645 OA
HETATM    5  O   UNL     1      -8.263 -28.812  16.840  1.00  0.00    -0.645 OA
ENDBRANCH   1   3
BRANCH   2   6
HETATM    6  C   UNL     1      -4.527 -26.515  15.688  1.00  0.00     0.198 C 
HETATM    7  O   UNL     1      -4.238 -25.776  14.729  1.00  0.00    -0.645 OA
HETATM    8  O   UNL     1      -3.882 -26.553  16.737  1.00  0.00    -0.645 OA
ENDBRANCH   2   6
TORSDOF 2
ENDMDL
MODEL 11
REMARK VINA RESULT:    -3.402     10.462     11.961
REMARK INTER + INTRA:          -3.828
REMARK INTER:                  -3.799
REMARK INTRA:                  -0.029
REMARK UNBOUND:                -0.028
REMARK  2 active torsions:
REMARK  status: ('A' for Active; 'I' for Inactive)
REMARK    1  A    between atoms: C_2  and  C_4 
REMARK    2  A    between atoms: C_5  and  C_6 
ROOT
HETATM    1  C   UNL     1       0.385 -32.768  20.589  1.00  0.00     0.091 C 
HETATM    2  C   UNL     1      -0.160 -32.446  19.415  1.00  0.00     0.091 C 
ENDROOT
BRANCH   1   3
HETATM    3  C   UNL     1       1.372 -33.841  20.862  1.00  0.00     0.198 C 
HETATM    4  O   UNL     1       1.260 -34.444  21.934  1.00  0.00    -0.645 OA
HETATM    5  O   UNL     1       2.284 -34.046  20.047  1.00  0.00    -0.645 OA
ENDBRANCH   1   3
BRANCH   2   6
HETATM    6  C   UNL     1      -1.080 -31.289  19.228  1.00  0.00     0.198 C 
HETATM    7  O   UNL     1      -1.019 -30.644  18.165  1.00  0.00    -0.645 OA
HETATM    8  O   UNL     1      -1.862 -31.024  20.142  1.00  0.00    -0.645 OA
ENDBRANCH   2   6
TORSDOF 2
ENDMDL
MODEL 12
REMARK VINA RESULT:    -3.379     10.780     12.120
REMARK INTER + INTRA:          -3.802
REMARK INTER:                  -3.772
REMARK INTRA:                  -0.030
REMARK UNBOUND:                -0.028
REMARK  2 active torsions:
REMARK  status: ('A' for Active; 'I' for Inactive)
REMARK    1  A    between atoms: C_2  and  C_4 
REMARK    2  A    between atoms: C_5  and  C_6 
ROOT
HETATM    1  C   UNL     1       3.013 -21.452  12.999  1.00  0.00     0.091 C 
HETATM    2  C   UNL     1       1.770 -21.578  12.531  1.00  0.00     0.091 C 
ENDROOT
BRANCH   1   3
HETATM    3  C   UNL     1       3.464 -21.582  14.406  1.00  0.00     0.198 C 
HETATM    4  O   UNL     1       4.483 -20.961  14.725  1.00  0.00    -0.645 OA
HETATM    5  O   UNL     1       2.848 -22.337  15.173  1.00  0.00    -0.645 OA
ENDBRANCH   1   3
BRANCH   2   6
HETATM    6  C   UNL     1       1.429 -21.517  11.082  1.00  0.00     0.198 C 
HETATM    7  O   UNL     1       2.324 -21.219  10.269  1.00  0.00    -0.645 OA
HETATM    8  O   UNL     1       0.268 -21.766  10.755  1.00  0.00    -0.645 OA
ENDBRANCH   2   6
TORSDOF 2
ENDMDL
MODEL 13
REMARK VINA RESULT:    -3.377      9.026     10.597
REMARK INTER + INTRA:          -3.799
REMARK INTER:                  -3.768
REMARK INTRA:                  -0.031
REMARK UNBOUND:                -0.028
REMARK  2 active torsions:
REMARK  status: ('A' for Active; 'I' for Inactive)
REMARK    1  A    between atoms: C_2  and  C_4 
REMARK    2  A    between atoms: C_5  and  C_6 
ROOT
HETATM    1  C   UNL     1       0.782 -22.522  12.024  1.00  0.00     0.091 C 
HETATM    2  C   UNL     1       1.696 -22.111  12.904  1.00  0.00     0.091 C 
ENDROOT
BRANCH   1   3
HETATM    3  C   UNL     1      -0.246 -23.574  12.215  1.00  0.00     0.198 C 
HETATM    4  O   UNL     1      -0.215 -24.199  13.279  1.00  0.00    -0.645 OA
HETATM    5  O   UNL     1      -1.041 -23.818  11.294  1.00  0.00    -0.645 OA
ENDBRANCH   1   3
BRANCH   2   6
HETATM    6  C   UNL     1       2.632 -20.981  12.648  1.00  0.00     0.198 C 
HETATM    7  O   UNL     1       2.633 -20.448  11.523  1.00  0.00    -0.645 OA
HETATM    8  O   UNL     1       3.368 -20.625  13.570  1.00  0.00    -0.645 OA
ENDBRANCH   2   6
TORSDOF 2
ENDMDL
MODEL 14
REMARK VINA RESULT:    -3.362     11.617     12.309
REMARK INTER + INTRA:          -3.783
REMARK INTER:                  -3.754
REMARK INTRA:                  -0.029
REMARK UNBOUND:                -0.028
REMARK  2 active torsions:
REMARK  status: ('A' for Active; 'I' for Inactive)
REMARK    1  A    between atoms: C_2  and  C_4 
REMARK    2  A    between atoms: C_5  and  C_6 
ROOT
HETATM    1  C   UNL     1       2.980 -21.247  12.670  1.00  0.00     0.091 C 
HETATM    2  C   UNL     1       2.635 -21.209  13.957  1.00  0.00     0.091 C 
ENDROOT
BRANCH   1   3
HETATM    3  C   UNL     1       2.198 -20.752  11.510  1.00  0.00     0.198 C 
HETATM    4  O   UNL     1       1.393 -19.842  11.728  1.00  0.00    -0.645 OA
HETATM    5  O   UNL     1       2.340 -21.300  10.406  1.00  0.00    -0.645 OA
ENDBRANCH   1   3
BRANCH   2   6
HETATM    6  C   UNL     1       3.531 -21.654  15.061  1.00  0.00     0.198 C 
HETATM    7  O   UNL     1       3.132 -22.544  15.834  1.00  0.00    -0.645 OA
HETATM    8  O   UNL     1       4.635 -21.114  15.157  1.00  0.00    -0.645 OA
ENDBRANCH   2   6
TORSDOF 2
ENDMDL
MODEL 15
REMARK VINA RESULT:    -3.315     10.781     11.134
REMARK INTER + INTRA:          -3.731
REMARK INTER:                  -3.705
REMARK INTRA:                  -0.025
REMARK UNBOUND:                -0.028
REMARK  2 active torsions:
REMARK  status: ('A' for Active; 'I' for Inactive)
REMARK    1  A    between atoms: C_2  and  C_4 
REMARK    2  A    between atoms: C_5  and  C_6 
ROOT
HETATM    1  C   UNL     1      -9.302 -27.430  13.924  1.00  0.00     0.091 C 
HETATM    2  C   UNL     1      -8.168 -27.786  14.530  1.00  0.00     0.091 C 
ENDROOT
BRANCH   1   3
HETATM    3  C   UNL     1      -9.608 -27.493  12.474  1.00  0.00     0.198 C 
HETATM    4  O   UNL     1      -9.584 -26.428  11.851  1.00  0.00    -0.645 OA
HETATM    5  O   UNL     1      -9.926 -28.581  11.969  1.00  0.00    -0.645 OA
ENDBRANCH   1   3
BRANCH   2   6
HETATM    6  C   UNL     1      -7.987 -27.768  16.008  1.00  0.00     0.198 C 
HETATM    7  O   UNL     1      -8.413 -28.729  16.674  1.00  0.00    -0.645 OA
HETATM    8  O   UNL     1      -7.421 -26.793  16.505  1.00  0.00    -0.645 OA
ENDBRANCH   2   6
TORSDOF 2
ENDMDL
MODEL 16
REMARK VINA RESULT:    -3.279     12.854     15.165
REMARK INTER + INTRA:          -3.691
REMARK INTER:                  -3.661
REMARK INTRA:                  -0.030
REMARK UNBOUND:                -0.028
REMARK  2 active torsions:
REMARK  status: ('A' for Active; 'I' for Inactive)
REMARK    1  A    between atoms: C_2  and  C_4 
REMARK    2  A    between atoms: C_5  and  C_6 
ROOT
HETATM    1  C   UNL     1       5.423 -20.578  16.995  1.00  0.00     0.091 C 
HETATM    2  C   UNL     1       4.807 -21.638  16.472  1.00  0.00     0.091 C 
ENDROOT
BRANCH   1   3
HETATM    3  C   UNL     1       6.427 -20.565  18.087  1.00  0.00     0.198 C 
HETATM    4  O   UNL     1       6.797 -21.661  18.519  1.00  0.00    -0.645 OA
HETATM    5  O   UNL     1       6.803 -19.478  18.551  1.00  0.00    -0.645 OA
ENDBRANCH   1   3
BRANCH   2   6
HETATM    6  C   UNL     1       3.874 -21.556  15.312  1.00  0.00     0.198 C 
HETATM    7  O   UNL     1       2.777 -22.139  15.386  1.00  0.00    -0.645 OA
HETATM    8  O   UNL     1       4.238 -20.911  14.328  1.00  0.00    -0.645 OA
ENDBRANCH   2   6
TORSDOF 2
ENDMDL
MODEL 17
REMARK VINA RESULT:    -3.275     11.058     12.663
REMARK INTER + INTRA:          -3.686
REMARK INTER:                  -3.657
REMARK INTRA:                  -0.028
REMARK UNBOUND:                -0.028
REMARK  2 active torsions:
REMARK  status: ('A' for Active; 'I' for Inactive)
REMARK    1  A    between atoms: C_2  and  C_4 
REMARK    2  A    between atoms: C_5  and  C_6 
ROOT
HETATM    1  C   UNL     1      -0.632 -34.193  20.840  1.00  0.00     0.091 C 
HETATM    2  C   UNL     1      -0.301 -33.038  20.262  1.00  0.00     0.091 C 
ENDROOT
BRANCH   1   3
HETATM    3  C   UNL     1      -0.218 -34.684  22.178  1.00  0.00     0.198 C 
HETATM    4  O   UNL     1      -1.120 -34.979  22.968  1.00  0.00    -0.645 OA
HETATM    5  O   UNL     1       0.988 -34.723  22.462  1.00  0.00    -0.645 OA
ENDBRANCH   1   3
BRANCH   2   6
HETATM    6  C   UNL     1      -0.841 -32.595  18.946  1.00  0.00     0.198 C 
HETATM    7  O   UNL     1      -1.955 -33.016  18.585  1.00  0.00    -0.645 OA
HETATM    8  O   UNL     1      -0.153 -31.827  18.272  1.00  0.00    -0.645 OA
ENDBRANCH   2   6
TORSDOF 2
ENDMDL
MODEL 18
REMARK VINA RESULT:    -3.265      9.035     10.593
REMARK INTER + INTRA:          -3.675
REMARK INTER:                  -3.645
REMARK INTRA:                  -0.030
REMARK UNBOUND:                -0.028
REMARK  2 active torsions:
REMARK  status: ('A' for Active; 'I' for Inactive)
REMARK    1  A    between atoms: C_2  and  C_4 
REMARK    2  A    between atoms: C_5  and  C_6 
ROOT
HETATM    1  C   UNL     1      -6.858 -27.538  15.667  1.00  0.00     0.091 C 
HETATM    2  C   UNL     1      -6.788 -28.246  14.539  1.00  0.00     0.091 C 
ENDROOT
BRANCH   1   3
HETATM    3  C   UNL     1      -7.606 -27.881  16.902  1.00  0.00     0.198 C 
HETATM    4  O   UNL     1      -7.376 -27.195  17.902  1.00  0.00    -0.645 OA
HETATM    5  O   UNL     1      -8.371 -28.857  16.895  1.00  0.00    -0.645 OA
ENDBRANCH   1   3
BRANCH   2   6
HETATM    6  C   UNL     1      -5.935 -27.859  13.380  1.00  0.00     0.198 C 
HETATM    7  O   UNL     1      -5.477 -28.756  12.649  1.00  0.00    -0.645 OA
HETATM    8  O   UNL     1      -5.722 -26.659  13.200  1.00  0.00    -0.645 OA
ENDBRANCH   2   6
TORSDOF 2
ENDMDL
MODEL 19
REMARK VINA RESULT:    -3.260     10.423     11.287
REMARK INTER + INTRA:          -3.669
REMARK INTER:                  -3.640
REMARK INTRA:                  -0.028
REMARK UNBOUND:                -0.028
REMARK  2 active torsions:
REMARK  status: ('A' for Active; 'I' for Inactive)
REMARK    1  A    between atoms: C_2  and  C_4 
REMARK    2  A    between atoms: C_5  and  C_6 
ROOT
HETATM    1  C   UNL     1      -8.526 -27.401  13.478  1.00  0.00     0.091 C 
HETATM    2  C   UNL     1      -9.515 -28.052  12.865  1.00  0.00     0.091 C 
ENDROOT
BRANCH   1   3
HETATM    3  C   UNL     1      -8.184 -27.431  14.921  1.00  0.00     0.198 C 
HETATM    4  O   UNL     1      -7.490 -26.504  15.350  1.00  0.00    -0.645 OA
HETATM    5  O   UNL     1      -8.551 -28.394  15.611  1.00  0.00    -0.645 OA
ENDBRANCH   1   3
BRANCH   2   6
HETATM    6  C   UNL     1      -9.725 -28.026  11.390  1.00  0.00     0.198 C 
HETATM    7  O   UNL     1      -9.530 -26.960  10.778  1.00  0.00    -0.645 OA
HETATM    8  O   UNL     1     -10.085 -29.070  10.844  1.00  0.00    -0.645 OA
ENDBRANCH   2   6
TORSDOF 2
ENDMDL
MODEL 20
REMARK VINA RESULT:    -3.237     10.225     11.494
REMARK INTER + INTRA:          -3.643
REMARK INTER:                  -3.617
REMARK INTRA:                  -0.026
REMARK UNBOUND:                -0.028
REMARK  2 active torsions:
REMARK  status: ('A' for Active; 'I' for Inactive)
REMARK    1  A    between atoms: C_2  and  C_4 
REMARK    2  A    between atoms: C_5  and  C_6 
ROOT
HETATM    1  C   UNL     1      -7.475 -27.054  15.447  1.00  0.00     0.091 C 
HETATM    2  C   UNL     1      -8.061 -28.137  14.935  1.00  0.00     0.091 C 
ENDROOT
BRANCH   1   3
HETATM    3  C   UNL     1      -6.638 -26.973  16.669  1.00  0.00     0.198 C 
HETATM    4  O   UNL     1      -5.413 -26.982  16.509  1.00  0.00    -0.645 OA
HETATM    5  O   UNL     1      -7.188 -26.959  17.780  1.00  0.00    -0.645 OA
ENDBRANCH   1   3
BRANCH   2   6
HETATM    6  C   UNL     1      -8.813 -28.132  13.648  1.00  0.00     0.198 C 
HETATM    7  O   UNL     1     -10.039 -28.341  13.672  1.00  0.00    -0.645 OA
HETATM    8  O   UNL     1      -8.178 -27.921  12.614  1.00  0.00    -0.645 OA
ENDBRANCH   2   6
TORSDOF 2
ENDMDL
