REMARK  2 active torsions:
REMARK  status: ('A' for Active; 'I' for Inactive)
REMARK    1  A    between atoms: C_5  and  O_6 
REMARK    2  A    between atoms: C_8  and  O_10 
ROOT
HETATM    1 CL   UNL     1      -3.870  -9.237   3.565  1.00  0.00    -0.084 Cl
HETATM    2  C   UNL     1      -2.944  -9.331   5.036  1.00  0.00     0.036 A 
HETATM    3  C   UNL     1      -2.033 -10.355   5.196  1.00  0.00     0.026 A 
HETATM    4  C   UNL     1      -1.289 -10.419   6.360  1.00  0.00     0.041 A 
HETATM    5  C   UNL     1      -1.449  -9.456   7.353  1.00  0.00     0.098 A 
HETATM    6  C   UNL     1      -2.379  -8.426   7.172  1.00  0.00     0.100 A 
HETATM    7  C   UNL     1      -3.136  -8.370   6.011  1.00  0.00     0.063 A 
ENDROOT
BRANCH   5   8
HETATM    8  O   UNL     1      -0.716  -9.496   8.497  1.00  0.00    -0.358 OA
ATOM      9  HO  UNL     1      -0.825  -8.839   9.174  1.00  0.00     0.217 HD
ENDBRANCH   5   8
BRANCH   6  10
HETATM   10  O   UNL     1      -2.512  -7.480   8.138  1.00  0.00    -0.358 OA
ATOM     11  HO  UNL     1      -3.143  -6.781   8.015  1.00  0.00     0.217 HD
ENDBRANCH   6  10
TORSDOF 2
