REMARK  2 active torsions:
REMARK  status: ('A' for Active; 'I' for Inactive)
REMARK    1  A    between atoms: C_1  and  C_2 
REMARK    2  A    between atoms: CA_5  and  C_6 
ROOT
HETATM    1  C   UNL     1      58.616  16.483  14.416  1.00  0.00     0.083 A 
HETATM    2  C   UNL     1      58.597  15.645  15.504  1.00  0.00     0.038 A 
HETATM    3  C   UNL     1      57.947  16.050  16.660  1.00  0.00     0.090 A 
HETATM    4  CA  UNL     1      57.356  18.057  15.707  1.00  0.00     0.149 A 
HETATM    5  C   UNL     1      57.980  17.706  14.483  1.00  0.00     0.167 A 
HETATM    6  F   UNL     1      57.993  18.497  13.426  1.00  0.00    -0.202 F 
HETATM    7  N   UNL     1      57.344  17.187  16.752  1.00  0.00    -0.358 N 
ATOM      8  HN  UNL     1      56.856  17.434  17.613  1.00  0.00     0.165 HD
ENDROOT
BRANCH   1   9
HETATM    9  C   UNL     1      59.269  16.050  13.126  1.00  0.00     0.212 C 
HETATM   10  O   UNL     1      58.820  14.988  12.672  1.00  0.00    -0.644 OA
HETATM   11  O   UNL     1      60.125  16.743  12.480  1.00  0.00    -0.644 OA
ENDBRANCH   1   9
BRANCH   4  12
HETATM   12  C   UNL     1      56.642  19.381  15.831  1.00  0.00     0.230 C 
HETATM   13  O   UNL     1      56.523  20.198  14.833  1.00  0.00    -0.643 OA
HETATM   14  OXT UNL     1      56.186  19.762  16.919  1.00  0.00    -0.643 OA
ENDBRANCH   4  12
TORSDOF 2
