MODEL 1
REMARK VINA RESULT:   -11.453      0.000      0.000
REMARK INTER + INTRA:         -23.178
REMARK INTER:                 -21.832
REMARK INTRA:                  -1.346
REMARK UNBOUND:                -1.346
REMARK  18 active torsions:
REMARK  status: ('A' for Active; 'I' for Inactive)
REMARK    1  A    between atoms: P_1  and  O_4 
REMARK    2  A    between atoms: P_1  and  O_66 
REMARK    3  A    between atoms: O_4  and  C_5 
REMARK    4  A    between atoms: C_5  and  C_6 
REMARK    5  A    between atoms: C_8  and  O_9 
REMARK    6  A    between atoms: C_11  and  O_12 
REMARK    7  A    between atoms: C_14  and  N_15 
REMARK    8  A    between atoms: N_49  and  C_51 
REMARK    9  A    between atoms: C_51  and  C_52 
REMARK   10  A    between atoms: C_52  and  O_53 
REMARK   11  A    between atoms: C_52  and  C_55 
REMARK   12  A    between atoms: C_55  and  C_58 
REMARK   13  A    between atoms: C_55  and  O_56 
REMARK   14  A    between atoms: C_58  and  O_59 
REMARK   15  A    between atoms: C_58  and  C_61 
REMARK   16  A    between atoms: C_61  and  O_62 
REMARK   17  A    between atoms: O_62  and  P_63 
REMARK   18  A    between atoms: P_63  and  O_66 
ROOT
HETATM    1  O   UNL     1       3.151 -30.581  -3.847  1.00  0.00    -0.287 OA
ENDROOT
BRANCH   1   2
HETATM    2  P   UNL     1       2.436 -29.644  -4.882  1.00  0.00     0.417 P 
HETATM    3  O   UNL     1       1.262 -30.372  -5.300  1.00  0.00    -0.624 OA
HETATM    4  O   UNL     1       2.306 -28.306  -4.338  1.00  0.00    -0.624 OA
BRANCH   2   5
HETATM    5  O   UNL     1       3.457 -29.568  -6.068  1.00  0.00    -0.180 OA
BRANCH   5   6
HETATM    6  P   UNL     1       4.890 -30.184  -6.245  1.00  0.00     0.417 P 
HETATM    7  O   UNL     1       4.889 -31.568  -5.814  1.00  0.00    -0.624 OA
HETATM    8  O   UNL     1       5.789 -29.284  -5.522  1.00  0.00    -0.624 OA
BRANCH   6   9
HETATM    9  O   UNL     1       5.154 -30.110  -7.798  1.00  0.00    -0.287 OA
BRANCH   9  10
HETATM   10  C   UNL     1       4.362 -29.264  -8.630  1.00  0.00     0.216 C 
BRANCH  10  11
HETATM   11  C   UNL     1       4.166 -29.944  -9.959  1.00  0.00     0.180 C 
HETATM   12  C   UNL     1       5.184 -31.049 -10.263  1.00  0.00     0.182 C 
HETATM   13  C   UNL     1       6.113 -30.364 -11.281  1.00  0.00     0.198 C 
HETATM   14  C   UNL     1       5.141 -29.452 -12.019  1.00  0.00     0.262 C 
HETATM   15  O   UNL     1       4.242 -28.991 -11.039  1.00  0.00    -0.353 OA
BRANCH  12  16
HETATM   16  O   UNL     1       4.559 -32.222 -10.736  1.00  0.00    -0.390 OA
ATOM     17  HO  UNL     1       4.194 -32.778 -10.058  1.00  0.00     0.210 HD
ENDBRANCH  12  16
BRANCH  13  18
HETATM   18  O   UNL     1       6.725 -31.279 -12.139  1.00  0.00    -0.388 OA
ATOM     19  HO  UNL     1       6.112 -31.655 -12.759  1.00  0.00     0.210 HD
ENDBRANCH  13  18
BRANCH  14  20
HETATM   20  N   UNL     1       5.719 -28.304 -12.683  1.00  0.00    -0.297 N 
HETATM   21  C   UNL     1       5.243 -27.709 -13.816  1.00  0.00     0.142 A 
HETATM   22  N   UNL     1       4.222 -28.113 -14.569  1.00  0.00    -0.336 N 
HETATM   23  C   UNL     1       6.032 -26.606 -14.039  1.00  0.00     0.122 A 
HETATM   24  C   UNL     1       4.019 -27.306 -15.594  1.00  0.00     0.183 A 
ATOM     25  HN  UNL     1       3.664 -28.945 -14.376  1.00  0.00     0.168 HD
HETATM   26  N   UNL     1       4.700 -26.217 -15.937  1.00  0.00    -0.337 N 
HETATM   27  C   UNL     1       5.740 -25.830 -15.175  1.00  0.00     0.131 A 
ATOM     28  HN  UNL     1       4.438 -25.681 -16.764  1.00  0.00     0.168 HD
HETATM   29  N   UNL     1       6.391 -24.724 -15.497  1.00  0.00    -0.383 N 
ATOM     30  HN2 UNL     1       6.180 -24.161 -16.321  1.00  0.00     0.157 HD
ATOM     31  HN1 UNL     1       7.180 -24.431 -14.919  1.00  0.00     0.157 HD
HETATM   32  N   UNL     1       6.983 -26.496 -13.042  1.00  0.00    -0.346 N 
HETATM   33  C   UNL     1       6.738 -27.514 -12.254  1.00  0.00     0.188 A 
ATOM     34  HN  UNL     1       7.708 -25.786 -12.943  1.00  0.00     0.167 HD
ENDBRANCH  14  20
ENDBRANCH  10  11
ENDBRANCH   9  10
ENDBRANCH   6   9
ENDBRANCH   5   6
ENDBRANCH   2   5
ENDBRANCH   1   2
BRANCH   1  35
HETATM   35  C   UNL     1       2.508 -30.965  -2.668  1.00  0.00     0.215 C 
BRANCH  35  36
HETATM   36  C   UNL     1       3.297 -30.406  -1.503  1.00  0.00     0.173 C 
BRANCH  36  37
HETATM   37  O   UNL     1       2.456 -29.575  -0.715  1.00  0.00    -0.391 OA
ATOM     38  HO  UNL     1       2.752 -29.589   0.188  1.00  0.00     0.210 HD
ENDBRANCH  36  37
BRANCH  36  39
HETATM   39  C   UNL     1       3.870 -31.545  -0.674  1.00  0.00     0.179 C 
BRANCH  39  40
HETATM   40  C   UNL     1       5.319 -31.361  -0.205  1.00  0.00     0.167 C 
BRANCH  40  41
HETATM   41  O   UNL     1       5.979 -30.379  -0.951  1.00  0.00    -0.391 OA
ATOM     42  HO  UNL     1       6.890 -30.604  -1.095  1.00  0.00     0.210 HD
ENDBRANCH  40  41
BRANCH  40  43
HETATM   43  C   UNL     1       5.340 -30.992   1.275  1.00  0.00     0.165 C 
BRANCH  43  44
HETATM   44  N   UNL     1       6.004 -32.034   2.062  1.00  0.00    -0.327 N 
HETATM   45  C   UNL     1       5.250 -32.738   2.923  1.00  0.00     0.145 A 
HETATM   46  N   UNL     1       3.974 -32.488   2.992  1.00  0.00    -0.292 N 
HETATM   47  C   UNL     1       5.923 -33.754   3.682  1.00  0.00     0.146 A 
HETATM   48  C   UNL     1       3.255 -33.149   3.847  1.00  0.00     0.328 A 
ATOM     49  HN  UNL     1       3.548 -31.786   2.387  1.00  0.00     0.172 HD
HETATM   50  O   UNL     1       2.089 -32.914   3.962  1.00  0.00    -0.247 OA
HETATM   51  N   UNL     1       3.794 -34.148   4.611  1.00  0.00    -0.273 N 
HETATM   52  C   UNL     1       5.125 -34.483   4.541  1.00  0.00     0.280 A 
ATOM     53  HN  UNL     1       3.188 -34.660   5.252  1.00  0.00     0.173 HD
HETATM   54  O   UNL     1       5.570 -35.382   5.229  1.00  0.00    -0.265 OA
HETATM   55  N   UNL     1       7.188 -34.017   3.610  1.00  0.00    -0.347 N 
HETATM   56  C   UNL     1       7.950 -33.225   2.802  1.00  0.00     0.060 A 
ATOM     57  HN  UNL     1       7.600 -34.786   4.139  1.00  0.00     0.166 HD
HETATM   58  C   UNL     1       9.336 -33.447   2.757  1.00  0.00     0.039 A 
HETATM   59  C   UNL     1       7.378 -32.225   1.995  1.00  0.00     0.063 A 
HETATM   60  C   UNL     1      10.152 -32.658   1.993  1.00  0.00    -0.054 A 
HETATM   61  C   UNL     1       9.582 -31.646   1.186  1.00  0.00    -0.054 A 
HETATM   62  C   UNL     1      11.643 -32.881   1.989  1.00  0.00     0.049 C 
HETATM   63  C   UNL     1      10.450 -30.794   0.305  1.00  0.00     0.049 C 
HETATM   64  C   UNL     1       8.216 -31.461   1.177  1.00  0.00     0.039 A 
ENDBRANCH  43  44
ENDBRANCH  40  43
ENDBRANCH  39  40
BRANCH  39  65
HETATM   65  O   UNL     1       3.716 -32.715  -1.423  1.00  0.00    -0.390 OA
ATOM     66  HO  UNL     1       4.539 -33.176  -1.528  1.00  0.00     0.210 HD
ENDBRANCH  39  65
ENDBRANCH  36  39
ENDBRANCH  35  36
ENDBRANCH   1  35
TORSDOF 18
ENDMDL
MODEL 2
REMARK VINA RESULT:   -11.436      3.838      6.669
REMARK INTER + INTRA:         -23.145
REMARK INTER:                 -20.951
REMARK INTRA:                  -2.194
REMARK UNBOUND:                -1.346
REMARK  18 active torsions:
REMARK  status: ('A' for Active; 'I' for Inactive)
REMARK    1  A    between atoms: P_1  and  O_4 
REMARK    2  A    between atoms: P_1  and  O_66 
REMARK    3  A    between atoms: O_4  and  C_5 
REMARK    4  A    between atoms: C_5  and  C_6 
REMARK    5  A    between atoms: C_8  and  O_9 
REMARK    6  A    between atoms: C_11  and  O_12 
REMARK    7  A    between atoms: C_14  and  N_15 
REMARK    8  A    between atoms: N_49  and  C_51 
REMARK    9  A    between atoms: C_51  and  C_52 
REMARK   10  A    between atoms: C_52  and  O_53 
REMARK   11  A    between atoms: C_52  and  C_55 
REMARK   12  A    between atoms: C_55  and  C_58 
REMARK   13  A    between atoms: C_55  and  O_56 
REMARK   14  A    between atoms: C_58  and  O_59 
REMARK   15  A    between atoms: C_58  and  C_61 
REMARK   16  A    between atoms: C_61  and  O_62 
REMARK   17  A    between atoms: O_62  and  P_63 
REMARK   18  A    between atoms: P_63  and  O_66 
ROOT
HETATM    1  O   UNL     1       5.791 -32.983   1.928  1.00  0.00    -0.287 OA
ENDROOT
BRANCH   1   2
HETATM    2  P   UNL     1       6.617 -31.835   1.249  1.00  0.00     0.417 P 
HETATM    3  O   UNL     1       6.314 -30.651   2.014  1.00  0.00    -0.624 OA
HETATM    4  O   UNL     1       7.994 -32.251   1.069  1.00  0.00    -0.624 OA
BRANCH   2   5
HETATM    5  O   UNL     1       5.974 -31.719  -0.175  1.00  0.00    -0.180 OA
BRANCH   5   6
HETATM    6  P   UNL     1       4.477 -31.596  -0.632  1.00  0.00     0.417 P 
HETATM    7  O   UNL     1       3.749 -30.747   0.290  1.00  0.00    -0.624 OA
HETATM    8  O   UNL     1       3.997 -32.972  -0.757  1.00  0.00    -0.624 OA
BRANCH   6   9
HETATM    9  O   UNL     1       4.559 -30.900  -2.044  1.00  0.00    -0.287 OA
BRANCH   9  10
HETATM   10  C   UNL     1       3.481 -31.013  -2.973  1.00  0.00     0.216 C 
BRANCH  10  11
HETATM   11  C   UNL     1       3.499 -29.810  -3.878  1.00  0.00     0.180 C 
HETATM   12  C   UNL     1       2.139 -29.461  -4.496  1.00  0.00     0.182 C 
HETATM   13  C   UNL     1       2.300 -29.967  -5.941  1.00  0.00     0.198 C 
HETATM   14  C   UNL     1       3.782 -29.716  -6.191  1.00  0.00     0.262 C 
HETATM   15  O   UNL     1       4.421 -30.004  -4.970  1.00  0.00    -0.353 OA
BRANCH  12  16
HETATM   16  O   UNL     1       1.850 -28.085  -4.384  1.00  0.00    -0.390 OA
ATOM     17  HO  UNL     1       1.156 -27.778  -4.954  1.00  0.00     0.210 HD
ENDBRANCH  12  16
BRANCH  13  18
HETATM   18  O   UNL     1       1.493 -29.265  -6.839  1.00  0.00    -0.388 OA
ATOM     19  HO  UNL     1       0.634 -29.078  -6.479  1.00  0.00     0.210 HD
ENDBRANCH  13  18
BRANCH  14  20
HETATM   20  N   UNL     1       4.399 -30.515  -7.227  1.00  0.00    -0.297 N 
HETATM   21  C   UNL     1       4.321 -30.285  -8.571  1.00  0.00     0.142 A 
HETATM   22  N   UNL     1       3.603 -29.347  -9.186  1.00  0.00    -0.336 N 
HETATM   23  C   UNL     1       5.128 -31.219  -9.175  1.00  0.00     0.122 A 
HETATM   24  C   UNL     1       3.756 -29.393 -10.497  1.00  0.00     0.183 A 
ATOM     25  HN  UNL     1       3.007 -28.675  -8.703  1.00  0.00     0.168 HD
HETATM   26  N   UNL     1       4.490 -30.238 -11.214  1.00  0.00    -0.337 N 
HETATM   27  C   UNL     1       5.198 -31.191 -10.579  1.00  0.00     0.131 A 
ATOM     28  HN  UNL     1       4.518 -30.166 -12.232  1.00  0.00     0.168 HD
HETATM   29  N   UNL     1       5.957 -32.006 -11.293  1.00  0.00    -0.383 N 
ATOM     30  HN2 UNL     1       6.008 -31.985 -12.312  1.00  0.00     0.157 HD
ATOM     31  HN1 UNL     1       6.494 -32.728 -10.812  1.00  0.00     0.157 HD
HETATM   32  N   UNL     1       5.724 -32.017  -8.218  1.00  0.00    -0.346 N 
HETATM   33  C   UNL     1       5.277 -31.542  -7.082  1.00  0.00     0.188 A 
ATOM     34  HN  UNL     1       6.366 -32.797  -8.363  1.00  0.00     0.167 HD
ENDBRANCH  14  20
ENDBRANCH  10  11
ENDBRANCH   9  10
ENDBRANCH   6   9
ENDBRANCH   5   6
ENDBRANCH   2   5
ENDBRANCH   1   2
BRANCH   1  35
HETATM   35  C   UNL     1       5.142 -32.772   3.147  1.00  0.00     0.215 C 
BRANCH  35  36
HETATM   36  C   UNL     1       6.125 -33.079   4.257  1.00  0.00     0.173 C 
BRANCH  36  37
HETATM   37  O   UNL     1       5.701 -32.445   5.455  1.00  0.00    -0.391 OA
ATOM     38  HO  UNL     1       4.938 -32.894   5.800  1.00  0.00     0.210 HD
ENDBRANCH  36  37
BRANCH  36  39
HETATM   39  C   UNL     1       6.237 -34.584   4.445  1.00  0.00     0.179 C 
BRANCH  39  40
HETATM   40  C   UNL     1       7.621 -35.186   4.172  1.00  0.00     0.167 C 
BRANCH  40  41
HETATM   41  O   UNL     1       8.321 -34.449   3.212  1.00  0.00    -0.391 OA
ATOM     42  HO  UNL     1       8.111 -33.524   3.262  1.00  0.00     0.210 HD
ENDBRANCH  40  41
BRANCH  40  43
HETATM   43  C   UNL     1       8.423 -35.248   5.468  1.00  0.00     0.165 C 
BRANCH  43  44
HETATM   44  N   UNL     1       9.598 -36.109   5.312  1.00  0.00    -0.327 N 
HETATM   45  C   UNL     1       9.411 -37.437   5.405  1.00  0.00     0.145 A 
HETATM   46  N   UNL     1       8.205 -37.891   5.594  1.00  0.00    -0.292 N 
HETATM   47  C   UNL     1      10.576 -38.261   5.250  1.00  0.00     0.146 A 
HETATM   48  C   UNL     1       8.034 -39.172   5.714  1.00  0.00     0.328 A 
ATOM     49  HN  UNL     1       7.411 -37.253   5.646  1.00  0.00     0.172 HD
HETATM   50  O   UNL     1       6.945 -39.616   5.927  1.00  0.00    -0.247 OA
HETATM   51  N   UNL     1       9.075 -40.048   5.569  1.00  0.00    -0.273 N 
HETATM   52  C   UNL     1      10.358 -39.622   5.322  1.00  0.00     0.280 A 
ATOM     53  HN  UNL     1       8.893 -41.049   5.646  1.00  0.00     0.173 HD
HETATM   54  O   UNL     1      11.260 -40.429   5.191  1.00  0.00    -0.265 OA
HETATM   55  N   UNL     1      11.776 -37.818   5.050  1.00  0.00    -0.347 N 
HETATM   56  C   UNL     1      11.955 -36.465   5.055  1.00  0.00     0.060 A 
ATOM     57  HN  UNL     1      12.557 -38.455   4.896  1.00  0.00     0.166 HD
HETATM   58  C   UNL     1      13.258 -35.960   4.908  1.00  0.00     0.039 A 
HETATM   59  C   UNL     1      10.872 -35.576   5.170  1.00  0.00     0.063 A 
HETATM   60  C   UNL     1      13.500 -34.614   4.945  1.00  0.00    -0.054 A 
HETATM   61  C   UNL     1      12.414 -33.716   5.068  1.00  0.00    -0.054 A 
HETATM   62  C   UNL     1      14.908 -34.089   4.829  1.00  0.00     0.049 C 
HETATM   63  C   UNL     1      12.647 -32.233   5.068  1.00  0.00     0.049 C 
HETATM   64  C   UNL     1      11.127 -34.201   5.152  1.00  0.00     0.039 A 
ENDBRANCH  43  44
ENDBRANCH  40  43
ENDBRANCH  39  40
BRANCH  39  65
HETATM   65  O   UNL     1       5.252 -35.171   3.647  1.00  0.00    -0.390 OA
ATOM     66  HO  UNL     1       5.308 -34.876   2.746  1.00  0.00     0.210 HD
ENDBRANCH  39  65
ENDBRANCH  36  39
ENDBRANCH  35  36
ENDBRANCH   1  35
TORSDOF 18
ENDMDL
MODEL 3
REMARK VINA RESULT:   -11.389      3.893      6.674
REMARK INTER + INTRA:         -23.054
REMARK INTER:                 -21.363
REMARK INTRA:                  -1.692
REMARK UNBOUND:                -1.346
REMARK  18 active torsions:
REMARK  status: ('A' for Active; 'I' for Inactive)
REMARK    1  A    between atoms: P_1  and  O_4 
REMARK    2  A    between atoms: P_1  and  O_66 
REMARK    3  A    between atoms: O_4  and  C_5 
REMARK    4  A    between atoms: C_5  and  C_6 
REMARK    5  A    between atoms: C_8  and  O_9 
REMARK    6  A    between atoms: C_11  and  O_12 
REMARK    7  A    between atoms: C_14  and  N_15 
REMARK    8  A    between atoms: N_49  and  C_51 
REMARK    9  A    between atoms: C_51  and  C_52 
REMARK   10  A    between atoms: C_52  and  O_53 
REMARK   11  A    between atoms: C_52  and  C_55 
REMARK   12  A    between atoms: C_55  and  C_58 
REMARK   13  A    between atoms: C_55  and  O_56 
REMARK   14  A    between atoms: C_58  and  O_59 
REMARK   15  A    between atoms: C_58  and  C_61 
REMARK   16  A    between atoms: C_61  and  O_62 
REMARK   17  A    between atoms: O_62  and  P_63 
REMARK   18  A    between atoms: P_63  and  O_66 
ROOT
HETATM    1  O   UNL     1       6.172 -32.343   1.327  1.00  0.00    -0.287 OA
ENDROOT
BRANCH   1   2
HETATM    2  P   UNL     1       6.516 -31.386   0.133  1.00  0.00     0.417 P 
HETATM    3  O   UNL     1       7.385 -30.380   0.696  1.00  0.00    -0.624 OA
HETATM    4  O   UNL     1       6.947 -32.157  -1.017  1.00  0.00    -0.624 OA
BRANCH   2   5
HETATM    5  O   UNL     1       5.133 -30.744  -0.227  1.00  0.00    -0.180 OA
BRANCH   5   6
HETATM    6  P   UNL     1       4.023 -31.176  -1.249  1.00  0.00     0.417 P 
HETATM    7  O   UNL     1       2.830 -30.377  -1.049  1.00  0.00    -0.624 OA
HETATM    8  O   UNL     1       3.870 -32.620  -1.066  1.00  0.00    -0.624 OA
BRANCH   6   9
HETATM    9  O   UNL     1       4.649 -30.854  -2.660  1.00  0.00    -0.287 OA
BRANCH   9  10
HETATM   10  C   UNL     1       3.912 -31.105  -3.856  1.00  0.00     0.216 C 
BRANCH  10  11
HETATM   11  C   UNL     1       3.657 -29.793  -4.548  1.00  0.00     0.180 C 
HETATM   12  C   UNL     1       2.179 -29.504  -4.837  1.00  0.00     0.182 C 
HETATM   13  C   UNL     1       2.082 -29.784  -6.347  1.00  0.00     0.198 C 
HETATM   14  C   UNL     1       3.460 -29.349  -6.829  1.00  0.00     0.262 C 
HETATM   15  O   UNL     1       4.352 -29.736  -5.811  1.00  0.00    -0.353 OA
BRANCH  12  16
HETATM   16  O   UNL     1       1.817 -28.194  -4.457  1.00  0.00    -0.390 OA
ATOM     17  HO  UNL     1       1.572 -27.626  -5.178  1.00  0.00     0.210 HD
ENDBRANCH  12  16
BRANCH  13  18
HETATM   18  O   UNL     1       1.061 -29.051  -6.956  1.00  0.00    -0.388 OA
ATOM     19  HO  UNL     1       0.552 -29.579  -7.560  1.00  0.00     0.210 HD
ENDBRANCH  13  18
BRANCH  14  20
HETATM   20  N   UNL     1       3.914 -29.928  -8.075  1.00  0.00    -0.297 N 
HETATM   21  C   UNL     1       4.518 -31.144  -8.222  1.00  0.00     0.142 A 
HETATM   22  N   UNL     1       4.881 -31.983  -7.254  1.00  0.00    -0.336 N 
HETATM   23  C   UNL     1       4.689 -31.335  -9.571  1.00  0.00     0.122 A 
HETATM   24  C   UNL     1       5.437 -33.079  -7.739  1.00  0.00     0.183 A 
ATOM     25  HN  UNL     1       4.745 -31.802  -6.259  1.00  0.00     0.168 HD
HETATM   26  N   UNL     1       5.672 -33.395  -9.008  1.00  0.00    -0.337 N 
HETATM   27  C   UNL     1       5.314 -32.528  -9.974  1.00  0.00     0.131 A 
ATOM     28  HN  UNL     1       6.117 -34.281  -9.248  1.00  0.00     0.168 HD
HETATM   29  N   UNL     1       5.515 -32.862 -11.239  1.00  0.00    -0.383 N 
ATOM     30  HN2 UNL     1       5.969 -33.728 -11.531  1.00  0.00     0.157 HD
ATOM     31  HN1 UNL     1       5.244 -32.206 -11.970  1.00  0.00     0.157 HD
HETATM   32  N   UNL     1       4.178 -30.257 -10.269  1.00  0.00    -0.346 N 
HETATM   33  C   UNL     1       3.711 -29.465  -9.336  1.00  0.00     0.188 A 
ATOM     34  HN  UNL     1       4.166 -30.113 -11.279  1.00  0.00     0.167 HD
ENDBRANCH  14  20
ENDBRANCH  10  11
ENDBRANCH   9  10
ENDBRANCH   6   9
ENDBRANCH   5   6
ENDBRANCH   2   5
ENDBRANCH   1   2
BRANCH   1  35
HETATM   35  C   UNL     1       7.077 -32.532   2.375  1.00  0.00     0.215 C 
BRANCH  35  36
HETATM   36  C   UNL     1       6.313 -33.093   3.555  1.00  0.00     0.173 C 
BRANCH  36  37
HETATM   37  O   UNL     1       4.918 -32.985   3.314  1.00  0.00    -0.391 OA
ATOM     38  HO  UNL     1       4.746 -32.217   2.782  1.00  0.00     0.210 HD
ENDBRANCH  36  37
BRANCH  36  39
HETATM   39  C   UNL     1       6.716 -34.541   3.790  1.00  0.00     0.179 C 
BRANCH  39  40
HETATM   40  C   UNL     1       8.162 -34.762   4.253  1.00  0.00     0.167 C 
BRANCH  40  41
HETATM   41  O   UNL     1       8.211 -35.285   5.549  1.00  0.00    -0.391 OA
ATOM     42  HO  UNL     1       7.400 -35.724   5.778  1.00  0.00     0.210 HD
ENDBRANCH  40  41
BRANCH  40  43
HETATM   43  C   UNL     1       8.877 -35.699   3.285  1.00  0.00     0.165 C 
BRANCH  43  44
HETATM   44  N   UNL     1      10.035 -36.326   3.928  1.00  0.00    -0.327 N 
HETATM   45  C   UNL     1       9.856 -37.539   4.479  1.00  0.00     0.145 A 
HETATM   46  N   UNL     1       8.688 -38.106   4.388  1.00  0.00    -0.292 N 
HETATM   47  C   UNL     1      11.004 -38.134   5.103  1.00  0.00     0.146 A 
HETATM   48  C   UNL     1       8.512 -39.264   4.949  1.00  0.00     0.328 A 
ATOM     49  HN  UNL     1       7.926 -37.650   3.886  1.00  0.00     0.172 HD
HETATM   50  O   UNL     1       7.441 -39.791   4.917  1.00  0.00    -0.247 OA
HETATM   51  N   UNL     1       9.543 -39.926   5.559  1.00  0.00    -0.273 N 
HETATM   52  C   UNL     1      10.807 -39.391   5.640  1.00  0.00     0.280 A 
ATOM     53  HN  UNL     1       9.369 -40.844   5.965  1.00  0.00     0.173 HD
HETATM   54  O   UNL     1      11.703 -40.009   6.183  1.00  0.00    -0.265 OA
HETATM   55  N   UNL     1      12.172 -37.581   5.188  1.00  0.00    -0.347 N 
HETATM   56  C   UNL     1      12.303 -36.312   4.706  1.00  0.00     0.060 A 
ATOM     57  HN  UNL     1      12.964 -38.076   5.599  1.00  0.00     0.166 HD
HETATM   58  C   UNL     1      13.542 -35.665   4.846  1.00  0.00     0.039 A 
HETATM   59  C   UNL     1      11.245 -35.657   4.051  1.00  0.00     0.063 A 
HETATM   60  C   UNL     1      13.717 -34.378   4.416  1.00  0.00    -0.054 A 
HETATM   61  C   UNL     1      12.654 -33.712   3.762  1.00  0.00    -0.054 A 
HETATM   62  C   UNL     1      15.041 -33.682   4.612  1.00  0.00     0.049 C 
HETATM   63  C   UNL     1      12.833 -32.316   3.242  1.00  0.00     0.049 C 
HETATM   64  C   UNL     1      11.454 -34.362   3.567  1.00  0.00     0.039 A 
ENDBRANCH  43  44
ENDBRANCH  40  43
ENDBRANCH  39  40
BRANCH  39  65
HETATM   65  O   UNL     1       6.440 -35.239   2.611  1.00  0.00    -0.390 OA
ATOM     66  HO  UNL     1       5.751 -34.821   2.109  1.00  0.00     0.210 HD
ENDBRANCH  39  65
ENDBRANCH  36  39
ENDBRANCH  35  36
ENDBRANCH   1  35
TORSDOF 18
ENDMDL
MODEL 4
REMARK VINA RESULT:   -11.384      7.346     13.072
REMARK INTER + INTRA:         -23.046
REMARK INTER:                 -18.370
REMARK INTRA:                  -4.676
REMARK UNBOUND:                -1.346
REMARK  18 active torsions:
REMARK  status: ('A' for Active; 'I' for Inactive)
REMARK    1  A    between atoms: P_1  and  O_4 
REMARK    2  A    between atoms: P_1  and  O_66 
REMARK    3  A    between atoms: O_4  and  C_5 
REMARK    4  A    between atoms: C_5  and  C_6 
REMARK    5  A    between atoms: C_8  and  O_9 
REMARK    6  A    between atoms: C_11  and  O_12 
REMARK    7  A    between atoms: C_14  and  N_15 
REMARK    8  A    between atoms: N_49  and  C_51 
REMARK    9  A    between atoms: C_51  and  C_52 
REMARK   10  A    between atoms: C_52  and  O_53 
REMARK   11  A    between atoms: C_52  and  C_55 
REMARK   12  A    between atoms: C_55  and  C_58 
REMARK   13  A    between atoms: C_55  and  O_56 
REMARK   14  A    between atoms: C_58  and  O_59 
REMARK   15  A    between atoms: C_58  and  C_61 
REMARK   16  A    between atoms: C_61  and  O_62 
REMARK   17  A    between atoms: O_62  and  P_63 
REMARK   18  A    between atoms: P_63  and  O_66 
ROOT
HETATM    1  O   UNL     1       9.460 -32.940   0.076  1.00  0.00    -0.287 OA
ENDROOT
BRANCH   1   2
HETATM    2  P   UNL     1       9.750 -32.609   1.582  1.00  0.00     0.417 P 
HETATM    3  O   UNL     1      10.752 -31.571   1.553  1.00  0.00    -0.624 OA
HETATM    4  O   UNL     1       8.505 -32.396   2.295  1.00  0.00    -0.624 OA
BRANCH   2   5
HETATM    5  O   UNL     1      10.381 -33.934   2.130  1.00  0.00    -0.180 OA
BRANCH   5   6
HETATM    6  P   UNL     1      10.022 -35.439   1.869  1.00  0.00     0.417 P 
HETATM    7  O   UNL     1      10.576 -35.866   0.599  1.00  0.00    -0.624 OA
HETATM    8  O   UNL     1       8.566 -35.517   1.996  1.00  0.00    -0.624 OA
BRANCH   6   9
HETATM    9  O   UNL     1      10.728 -36.216   3.046  1.00  0.00    -0.287 OA
BRANCH   9  10
HETATM   10  C   UNL     1      10.659 -35.725   4.384  1.00  0.00     0.216 C 
BRANCH  10  11
HETATM   11  C   UNL     1      10.214 -36.847   5.285  1.00  0.00     0.180 C 
HETATM   12  C   UNL     1       9.781 -38.120   4.547  1.00  0.00     0.182 C 
HETATM   13  C   UNL     1       8.247 -38.052   4.654  1.00  0.00     0.198 C 
HETATM   14  C   UNL     1       8.064 -37.383   6.010  1.00  0.00     0.262 C 
HETATM   15  O   UNL     1       9.100 -36.435   6.104  1.00  0.00    -0.353 OA
BRANCH  12  16
HETATM   16  O   UNL     1      10.359 -39.275   5.113  1.00  0.00    -0.390 OA
ATOM     17  HO  UNL     1      11.250 -39.162   5.422  1.00  0.00     0.210 HD
ENDBRANCH  12  16
BRANCH  13  18
HETATM   18  O   UNL     1       7.658 -39.317   4.612  1.00  0.00    -0.388 OA
ATOM     19  HO  UNL     1       6.823 -39.309   4.159  1.00  0.00     0.210 HD
ENDBRANCH  13  18
BRANCH  14  20
HETATM   20  N   UNL     1       6.804 -36.702   6.222  1.00  0.00    -0.297 N 
HETATM   21  C   UNL     1       6.314 -35.670   5.473  1.00  0.00     0.142 A 
HETATM   22  N   UNL     1       6.928 -35.042   4.471  1.00  0.00    -0.336 N 
HETATM   23  C   UNL     1       5.059 -35.397   5.959  1.00  0.00     0.122 A 
HETATM   24  C   UNL     1       6.171 -34.090   3.954  1.00  0.00     0.183 A 
ATOM     25  HN  UNL     1       7.867 -35.267   4.144  1.00  0.00     0.168 HD
HETATM   26  N   UNL     1       4.951 -33.712   4.322  1.00  0.00    -0.337 N 
HETATM   27  C   UNL     1       4.351 -34.346   5.347  1.00  0.00     0.131 A 
ATOM     28  HN  UNL     1       4.476 -32.952   3.836  1.00  0.00     0.168 HD
HETATM   29  N   UNL     1       3.123 -33.992   5.686  1.00  0.00    -0.383 N 
ATOM     30  HN2 UNL     1       2.609 -33.230   5.242  1.00  0.00     0.157 HD
ATOM     31  HN1 UNL     1       2.668 -34.473   6.463  1.00  0.00     0.157 HD
HETATM   32  N   UNL     1       4.753 -36.262   6.991  1.00  0.00    -0.346 N 
HETATM   33  C   UNL     1       5.811 -37.028   7.090  1.00  0.00     0.188 A 
ATOM     34  HN  UNL     1       3.899 -36.297   7.548  1.00  0.00     0.167 HD
ENDBRANCH  14  20
ENDBRANCH  10  11
ENDBRANCH   9  10
ENDBRANCH   6   9
ENDBRANCH   5   6
ENDBRANCH   2   5
ENDBRANCH   1   2
BRANCH   1  35
HETATM   35  C   UNL     1      10.398 -32.641  -0.914  1.00  0.00     0.215 C 
BRANCH  35  36
HETATM   36  C   UNL     1      10.005 -33.389  -2.170  1.00  0.00     0.173 C 
BRANCH  36  37
HETATM   37  O   UNL     1       9.384 -34.617  -1.818  1.00  0.00    -0.391 OA
ATOM     38  HO  UNL     1       9.963 -35.339  -2.031  1.00  0.00     0.210 HD
ENDBRANCH  36  37
BRANCH  36  39
HETATM   39  C   UNL     1       9.076 -32.529  -3.013  1.00  0.00     0.179 C 
BRANCH  39  40
HETATM   40  C   UNL     1       9.236 -31.013  -2.842  1.00  0.00     0.167 C 
BRANCH  40  41
HETATM   41  O   UNL     1       9.813 -30.428  -3.974  1.00  0.00    -0.391 OA
ATOM     42  HO  UNL     1      10.017 -31.077  -4.636  1.00  0.00     0.210 HD
ENDBRANCH  40  41
BRANCH  40  43
HETATM   43  C   UNL     1       7.877 -30.378  -2.562  1.00  0.00     0.165 C 
BRANCH  43  44
HETATM   44  N   UNL     1       7.701 -30.137  -1.128  1.00  0.00    -0.327 N 
HETATM   45  C   UNL     1       6.646 -30.712  -0.527  1.00  0.00     0.145 A 
HETATM   46  N   UNL     1       5.859 -31.474  -1.231  1.00  0.00    -0.292 N 
HETATM   47  C   UNL     1       6.494 -30.462   0.878  1.00  0.00     0.146 A 
HETATM   48  C   UNL     1       4.823 -32.002  -0.653  1.00  0.00     0.328 A 
ATOM     49  HN  UNL     1       6.052 -31.651  -2.217  1.00  0.00     0.172 HD
HETATM   50  O   UNL     1       4.060 -32.673  -1.282  1.00  0.00    -0.247 OA
HETATM   51  N   UNL     1       4.592 -31.838   0.686  1.00  0.00    -0.273 N 
HETATM   52  C   UNL     1       5.419 -31.082   1.482  1.00  0.00     0.280 A 
ATOM     53  HN  UNL     1       3.780 -32.291   1.105  1.00  0.00     0.173 HD
HETATM   54  O   UNL     1       5.188 -30.964   2.671  1.00  0.00    -0.265 OA
HETATM   55  N   UNL     1       7.279 -29.715   1.588  1.00  0.00    -0.347 N 
HETATM   56  C   UNL     1       8.286 -29.066   0.936  1.00  0.00     0.060 A 
ATOM     57  HN  UNL     1       7.149 -29.616   2.594  1.00  0.00     0.166 HD
HETATM   58  C   UNL     1       9.111 -28.198   1.671  1.00  0.00     0.039 A 
HETATM   59  C   UNL     1       8.535 -29.270  -0.433  1.00  0.00     0.063 A 
HETATM   60  C   UNL     1      10.111 -27.492   1.061  1.00  0.00    -0.054 A 
HETATM   61  C   UNL     1      10.360 -27.689  -0.318  1.00  0.00    -0.054 A 
HETATM   62  C   UNL     1      10.961 -26.531   1.854  1.00  0.00     0.049 C 
HETATM   63  C   UNL     1      11.479 -26.960  -1.003  1.00  0.00     0.049 C 
HETATM   64  C   UNL     1       9.595 -28.585  -1.033  1.00  0.00     0.039 A 
ENDBRANCH  43  44
ENDBRANCH  40  43
ENDBRANCH  39  40
BRANCH  39  65
HETATM   65  O   UNL     1       7.770 -32.945  -2.737  1.00  0.00    -0.390 OA
ATOM     66  HO  UNL     1       7.134 -32.276  -2.962  1.00  0.00     0.210 HD
ENDBRANCH  39  65
ENDBRANCH  36  39
ENDBRANCH  35  36
ENDBRANCH   1  35
TORSDOF 18
ENDMDL
MODEL 5
REMARK VINA RESULT:   -11.336      4.099      7.038
REMARK INTER + INTRA:         -22.955
REMARK INTER:                 -20.401
REMARK INTRA:                  -2.554
REMARK UNBOUND:                -1.346
REMARK  18 active torsions:
REMARK  status: ('A' for Active; 'I' for Inactive)
REMARK    1  A    between atoms: P_1  and  O_4 
REMARK    2  A    between atoms: P_1  and  O_66 
REMARK    3  A    between atoms: O_4  and  C_5 
REMARK    4  A    between atoms: C_5  and  C_6 
REMARK    5  A    between atoms: C_8  and  O_9 
REMARK    6  A    between atoms: C_11  and  O_12 
REMARK    7  A    between atoms: C_14  and  N_15 
REMARK    8  A    between atoms: N_49  and  C_51 
REMARK    9  A    between atoms: C_51  and  C_52 
REMARK   10  A    between atoms: C_52  and  O_53 
REMARK   11  A    between atoms: C_52  and  C_55 
REMARK   12  A    between atoms: C_55  and  C_58 
REMARK   13  A    between atoms: C_55  and  O_56 
REMARK   14  A    between atoms: C_58  and  O_59 
REMARK   15  A    between atoms: C_58  and  C_61 
REMARK   16  A    between atoms: C_61  and  O_62 
REMARK   17  A    between atoms: O_62  and  P_63 
REMARK   18  A    between atoms: P_63  and  O_66 
ROOT
HETATM    1  O   UNL     1       7.727 -32.216  -0.887  1.00  0.00    -0.287 OA
ENDROOT
BRANCH   1   2
HETATM    2  P   UNL     1       6.425 -31.477  -0.418  1.00  0.00     0.417 P 
HETATM    3  O   UNL     1       5.947 -32.238   0.710  1.00  0.00    -0.624 OA
HETATM    4  O   UNL     1       6.679 -30.056  -0.281  1.00  0.00    -0.624 OA
BRANCH   2   5
HETATM    5  O   UNL     1       5.448 -31.662  -1.628  1.00  0.00    -0.180 OA
BRANCH   5   6
HETATM    6  P   UNL     1       3.882 -31.591  -1.718  1.00  0.00     0.417 P 
HETATM    7  O   UNL     1       3.379 -30.590  -0.799  1.00  0.00    -0.624 OA
HETATM    8  O   UNL     1       3.420 -32.961  -1.495  1.00  0.00    -0.624 OA
BRANCH   6   9
HETATM    9  O   UNL     1       3.599 -31.141  -3.203  1.00  0.00    -0.287 OA
BRANCH   9  10
HETATM   10  C   UNL     1       4.646 -30.607  -4.012  1.00  0.00     0.216 C 
BRANCH  10  11
HETATM   11  C   UNL     1       4.103 -29.440  -4.793  1.00  0.00     0.180 C 
HETATM   12  C   UNL     1       2.576 -29.427  -4.936  1.00  0.00     0.182 C 
HETATM   13  C   UNL     1       2.381 -29.890  -6.391  1.00  0.00     0.198 C 
HETATM   14  C   UNL     1       3.611 -29.297  -7.068  1.00  0.00     0.262 C 
HETATM   15  O   UNL     1       4.651 -29.417  -6.127  1.00  0.00    -0.353 OA
BRANCH  12  16
HETATM   16  O   UNL     1       2.034 -28.157  -4.645  1.00  0.00    -0.390 OA
ATOM     17  HO  UNL     1       2.119 -27.888  -3.738  1.00  0.00     0.210 HD
ENDBRANCH  12  16
BRANCH  13  18
HETATM   18  O   UNL     1       1.195 -29.405  -6.945  1.00  0.00    -0.388 OA
ATOM     19  HO  UNL     1       0.958 -28.554  -6.597  1.00  0.00     0.210 HD
ENDBRANCH  13  18
BRANCH  14  20
HETATM   20  N   UNL     1       4.032 -29.935  -8.297  1.00  0.00    -0.297 N 
HETATM   21  C   UNL     1       4.710 -31.116  -8.396  1.00  0.00     0.142 A 
HETATM   22  N   UNL     1       5.184 -31.858  -7.396  1.00  0.00    -0.336 N 
HETATM   23  C   UNL     1       4.818 -31.394  -9.737  1.00  0.00     0.122 A 
HETATM   24  C   UNL     1       5.787 -32.948  -7.838  1.00  0.00     0.183 A 
ATOM     25  HN  UNL     1       5.093 -31.614  -6.410  1.00  0.00     0.168 HD
HETATM   26  N   UNL     1       5.971 -33.339  -9.094  1.00  0.00    -0.337 N 
HETATM   27  C   UNL     1       5.501 -32.570 -10.094  1.00  0.00     0.131 A 
ATOM     28  HN  UNL     1       6.462 -34.209  -9.299  1.00  0.00     0.168 HD
HETATM   29  N   UNL     1       5.653 -32.982 -11.342  1.00  0.00    -0.383 N 
ATOM     30  HN2 UNL     1       6.148 -33.835 -11.601  1.00  0.00     0.157 HD
ATOM     31  HN1 UNL     1       5.296 -32.399 -12.100  1.00  0.00     0.157 HD
HETATM   32  N   UNL     1       4.195 -30.406 -10.475  1.00  0.00    -0.346 N 
HETATM   33  C   UNL     1       3.727 -29.579  -9.572  1.00  0.00     0.188 A 
ATOM     34  HN  UNL     1       4.117 -30.336 -11.490  1.00  0.00     0.167 HD
ENDBRANCH  14  20
ENDBRANCH  10  11
ENDBRANCH   9  10
ENDBRANCH   6   9
ENDBRANCH   5   6
ENDBRANCH   2   5
ENDBRANCH   1   2
BRANCH   1  35
HETATM   35  C   UNL     1       8.956 -31.553  -0.906  1.00  0.00     0.215 C 
BRANCH  35  36
HETATM   36  C   UNL     1       9.652 -31.821   0.412  1.00  0.00     0.173 C 
BRANCH  36  37
HETATM   37  O   UNL     1       8.924 -31.208   1.466  1.00  0.00    -0.391 OA
ATOM     38  HO  UNL     1       9.245 -31.526   2.302  1.00  0.00     0.210 HD
ENDBRANCH  36  37
BRANCH  36  39
HETATM   39  C   UNL     1       9.777 -33.320   0.634  1.00  0.00     0.179 C 
BRANCH  39  40
HETATM   40  C   UNL     1       9.441 -33.812   2.048  1.00  0.00     0.167 C 
BRANCH  40  41
HETATM   41  O   UNL     1       8.067 -34.015   2.208  1.00  0.00    -0.391 OA
ATOM     42  HO  UNL     1       7.565 -33.504   1.584  1.00  0.00     0.210 HD
ENDBRANCH  40  41
BRANCH  40  43
HETATM   43  C   UNL     1      10.196 -35.106   2.337  1.00  0.00     0.165 C 
BRANCH  43  44
HETATM   44  N   UNL     1      10.753 -35.092   3.692  1.00  0.00    -0.327 N 
HETATM   45  C   UNL     1      11.755 -34.231   3.942  1.00  0.00     0.145 A 
HETATM   46  N   UNL     1      12.155 -33.438   2.990  1.00  0.00    -0.292 N 
HETATM   47  C   UNL     1      12.284 -34.235   5.276  1.00  0.00     0.146 A 
HETATM   48  C   UNL     1      13.144 -32.630   3.228  1.00  0.00     0.328 A 
ATOM     49  HN  UNL     1      11.702 -33.451   2.077  1.00  0.00     0.172 HD
HETATM   50  O   UNL     1      13.560 -31.919   2.363  1.00  0.00    -0.247 OA
HETATM   51  N   UNL     1      13.713 -32.544   4.470  1.00  0.00    -0.273 N 
HETATM   52  C   UNL     1      13.295 -33.326   5.520  1.00  0.00     0.280 A 
ATOM     53  HN  UNL     1      14.471 -31.879   4.620  1.00  0.00     0.173 HD
HETATM   54  O   UNL     1      13.817 -33.218   6.613  1.00  0.00    -0.265 OA
HETATM   55  N   UNL     1      11.884 -35.013   6.231  1.00  0.00    -0.347 N 
HETATM   56  C   UNL     1      10.933 -35.942   5.927  1.00  0.00     0.060 A 
ATOM     57  HN  UNL     1      12.264 -34.933   7.174  1.00  0.00     0.166 HD
HETATM   58  C   UNL     1      10.529 -36.842   6.927  1.00  0.00     0.039 A 
HETATM   59  C   UNL     1      10.332 -35.997   4.657  1.00  0.00     0.063 A 
HETATM   60  C   UNL     1       9.608 -37.819   6.666  1.00  0.00    -0.054 A 
HETATM   61  C   UNL     1       9.005 -37.883   5.388  1.00  0.00    -0.054 A 
HETATM   62  C   UNL     1       9.216 -38.804   7.738  1.00  0.00     0.049 C 
HETATM   63  C   UNL     1       7.960 -38.918   5.087  1.00  0.00     0.049 C 
HETATM   64  C   UNL     1       9.351 -36.966   4.419  1.00  0.00     0.039 A 
ENDBRANCH  43  44
ENDBRANCH  40  43
ENDBRANCH  39  40
BRANCH  39  65
HETATM   65  O   UNL     1      11.072 -33.683   0.255  1.00  0.00    -0.390 OA
ATOM     66  HO  UNL     1      11.281 -33.375  -0.619  1.00  0.00     0.210 HD
ENDBRANCH  39  65
ENDBRANCH  36  39
ENDBRANCH  35  36
ENDBRANCH   1  35
TORSDOF 18
ENDMDL
MODEL 6
REMARK VINA RESULT:   -11.283      6.890      9.221
REMARK INTER + INTRA:         -22.852
REMARK INTER:                 -19.263
REMARK INTRA:                  -3.589
REMARK UNBOUND:                -1.346
REMARK  18 active torsions:
REMARK  status: ('A' for Active; 'I' for Inactive)
REMARK    1  A    between atoms: P_1  and  O_4 
REMARK    2  A    between atoms: P_1  and  O_66 
REMARK    3  A    between atoms: O_4  and  C_5 
REMARK    4  A    between atoms: C_5  and  C_6 
REMARK    5  A    between atoms: C_8  and  O_9 
REMARK    6  A    between atoms: C_11  and  O_12 
REMARK    7  A    between atoms: C_14  and  N_15 
REMARK    8  A    between atoms: N_49  and  C_51 
REMARK    9  A    between atoms: C_51  and  C_52 
REMARK   10  A    between atoms: C_52  and  O_53 
REMARK   11  A    between atoms: C_52  and  C_55 
REMARK   12  A    between atoms: C_55  and  C_58 
REMARK   13  A    between atoms: C_55  and  O_56 
REMARK   14  A    between atoms: C_58  and  O_59 
REMARK   15  A    between atoms: C_58  and  C_61 
REMARK   16  A    between atoms: C_61  and  O_62 
REMARK   17  A    between atoms: O_62  and  P_63 
REMARK   18  A    between atoms: P_63  and  O_66 
ROOT
HETATM    1  O   UNL     1       6.129 -32.329   1.333  1.00  0.00    -0.287 OA
ENDROOT
BRANCH   1   2
HETATM    2  P   UNL     1       5.009 -31.549   0.559  1.00  0.00     0.417 P 
HETATM    3  O   UNL     1       3.785 -31.860   1.256  1.00  0.00    -0.624 OA
HETATM    4  O   UNL     1       5.405 -30.167   0.368  1.00  0.00    -0.624 OA
BRANCH   2   5
HETATM    5  O   UNL     1       5.001 -32.232  -0.851  1.00  0.00    -0.180 OA
BRANCH   5   6
HETATM    6  P   UNL     1       4.331 -31.806  -2.205  1.00  0.00     0.417 P 
HETATM    7  O   UNL     1       3.729 -30.495  -2.069  1.00  0.00    -0.624 OA
HETATM    8  O   UNL     1       3.422 -32.901  -2.548  1.00  0.00    -0.624 OA
BRANCH   6   9
HETATM    9  O   UNL     1       5.532 -31.737  -3.225  1.00  0.00    -0.287 OA
BRANCH   9  10
HETATM   10  C   UNL     1       6.331 -30.559  -3.327  1.00  0.00     0.216 C 
BRANCH  10  11
HETATM   11  C   UNL     1       7.781 -30.951  -3.218  1.00  0.00     0.180 C 
HETATM   12  C   UNL     1       8.022 -32.318  -2.566  1.00  0.00     0.182 C 
HETATM   13  C   UNL     1       8.507 -31.925  -1.159  1.00  0.00     0.198 C 
HETATM   14  C   UNL     1       9.259 -30.631  -1.444  1.00  0.00     0.262 C 
HETATM   15  O   UNL     1       8.517 -29.980  -2.447  1.00  0.00    -0.353 OA
BRANCH  12  16
HETATM   16  O   UNL     1       8.935 -33.098  -3.306  1.00  0.00    -0.390 OA
ATOM     17  HO  UNL     1       9.521 -33.628  -2.779  1.00  0.00     0.210 HD
ENDBRANCH  12  16
BRANCH  13  18
HETATM   18  O   UNL     1       9.335 -32.897  -0.595  1.00  0.00    -0.388 OA
ATOM     19  HO  UNL     1      10.011 -32.518  -0.046  1.00  0.00     0.210 HD
ENDBRANCH  13  18
BRANCH  14  20
HETATM   20  N   UNL     1       9.412 -29.722  -0.328  1.00  0.00    -0.297 N 
HETATM   21  C   UNL     1      10.060 -28.520  -0.356  1.00  0.00     0.142 A 
HETATM   22  N   UNL     1      10.742 -27.997  -1.375  1.00  0.00    -0.336 N 
HETATM   23  C   UNL     1       9.880 -27.950   0.880  1.00  0.00     0.122 A 
HETATM   24  C   UNL     1      11.243 -26.813  -1.072  1.00  0.00     0.183 A 
ATOM     25  HN  UNL     1      10.862 -28.456  -2.278  1.00  0.00     0.168 HD
HETATM   26  N   UNL     1      11.157 -26.147   0.075  1.00  0.00    -0.337 N 
HETATM   27  C   UNL     1      10.479 -26.696   1.100  1.00  0.00     0.131 A 
ATOM     28  HN  UNL     1      11.598 -25.233   0.178  1.00  0.00     0.168 HD
HETATM   29  N   UNL     1      10.363 -26.014   2.228  1.00  0.00    -0.383 N 
ATOM     30  HN2 UNL     1      10.797 -25.104   2.387  1.00  0.00     0.157 HD
ATOM     31  HN1 UNL     1       9.849 -26.430   3.004  1.00  0.00     0.157 HD
HETATM   32  N   UNL     1       9.108 -28.777   1.674  1.00  0.00    -0.346 N 
HETATM   33  C   UNL     1       8.839 -29.800   0.901  1.00  0.00     0.188 A 
ATOM     34  HN  UNL     1       8.815 -28.625   2.638  1.00  0.00     0.167 HD
ENDBRANCH  14  20
ENDBRANCH  10  11
ENDBRANCH   9  10
ENDBRANCH   6   9
ENDBRANCH   5   6
ENDBRANCH   2   5
ENDBRANCH   1   2
BRANCH   1  35
HETATM   35  C   UNL     1       6.464 -31.983   2.645  1.00  0.00     0.215 C 
BRANCH  35  36
HETATM   36  C   UNL     1       6.368 -33.231   3.495  1.00  0.00     0.173 C 
BRANCH  36  37
HETATM   37  O   UNL     1       5.012 -33.649   3.575  1.00  0.00    -0.391 OA
ATOM     38  HO  UNL     1       4.976 -34.571   3.802  1.00  0.00     0.210 HD
ENDBRANCH  36  37
BRANCH  36  39
HETATM   39  C   UNL     1       7.242 -34.327   2.906  1.00  0.00     0.179 C 
BRANCH  39  40
HETATM   40  C   UNL     1       7.762 -35.371   3.902  1.00  0.00     0.167 C 
BRANCH  40  41
HETATM   41  O   UNL     1       6.715 -36.099   4.475  1.00  0.00    -0.391 OA
ATOM     42  HO  UNL     1       6.366 -36.742   3.869  1.00  0.00     0.210 HD
ENDBRANCH  40  41
BRANCH  40  43
HETATM   43  C   UNL     1       8.732 -36.316   3.202  1.00  0.00     0.165 C 
BRANCH  43  44
HETATM   44  N   UNL     1       9.817 -36.711   4.104  1.00  0.00    -0.327 N 
HETATM   45  C   UNL     1       9.611 -37.781   4.891  1.00  0.00     0.145 A 
HETATM   46  N   UNL     1       8.485 -38.427   4.792  1.00  0.00    -0.292 N 
HETATM   47  C   UNL     1      10.687 -38.149   5.766  1.00  0.00     0.146 A 
HETATM   48  C   UNL     1       8.278 -39.441   5.577  1.00  0.00     0.328 A 
ATOM     49  HN  UNL     1       7.779 -38.143   4.113  1.00  0.00     0.172 HD
HETATM   50  O   UNL     1       7.239 -40.030   5.538  1.00  0.00    -0.247 OA
HETATM   51  N   UNL     1       9.243 -39.885   6.439  1.00  0.00    -0.273 N 
HETATM   52  C   UNL     1      10.466 -39.266   6.547  1.00  0.00     0.280 A 
ATOM     53  HN  UNL     1       9.049 -40.700   7.020  1.00  0.00     0.173 HD
HETATM   54  O   UNL     1      11.305 -39.691   7.319  1.00  0.00    -0.265 OA
HETATM   55  N   UNL     1      11.814 -37.519   5.861  1.00  0.00    -0.347 N 
HETATM   56  C   UNL     1      11.962 -36.382   5.123  1.00  0.00     0.060 A 
ATOM     57  HN  UNL     1      12.562 -37.859   6.465  1.00  0.00     0.166 HD
HETATM   58  C   UNL     1      13.149 -35.642   5.259  1.00  0.00     0.039 A 
HETATM   59  C   UNL     1      10.977 -35.956   4.214  1.00  0.00     0.063 A 
HETATM   60  C   UNL     1      13.334 -34.474   4.571  1.00  0.00    -0.054 A 
HETATM   61  C   UNL     1      12.343 -34.038   3.662  1.00  0.00    -0.054 A 
HETATM   62  C   UNL     1      14.595 -33.670   4.760  1.00  0.00     0.049 C 
HETATM   63  C   UNL     1      12.539 -32.783   2.863  1.00  0.00     0.049 C 
HETATM   64  C   UNL     1      11.202 -34.789   3.477  1.00  0.00     0.039 A 
ENDBRANCH  43  44
ENDBRANCH  40  43
ENDBRANCH  39  40
BRANCH  39  65
HETATM   65  O   UNL     1       8.288 -33.695   2.228  1.00  0.00    -0.390 OA
ATOM     66  HO  UNL     1       9.133 -34.053   2.473  1.00  0.00     0.210 HD
ENDBRANCH  39  65
ENDBRANCH  36  39
ENDBRANCH  35  36
ENDBRANCH   1  35
TORSDOF 18
ENDMDL
MODEL 7
REMARK VINA RESULT:   -11.262      1.641      3.426
REMARK INTER + INTRA:         -22.814
REMARK INTER:                 -20.597
REMARK INTRA:                  -2.216
REMARK UNBOUND:                -1.346
REMARK  18 active torsions:
REMARK  status: ('A' for Active; 'I' for Inactive)
REMARK    1  A    between atoms: P_1  and  O_4 
REMARK    2  A    between atoms: P_1  and  O_66 
REMARK    3  A    between atoms: O_4  and  C_5 
REMARK    4  A    between atoms: C_5  and  C_6 
REMARK    5  A    between atoms: C_8  and  O_9 
REMARK    6  A    between atoms: C_11  and  O_12 
REMARK    7  A    between atoms: C_14  and  N_15 
REMARK    8  A    between atoms: N_49  and  C_51 
REMARK    9  A    between atoms: C_51  and  C_52 
REMARK   10  A    between atoms: C_52  and  O_53 
REMARK   11  A    between atoms: C_52  and  C_55 
REMARK   12  A    between atoms: C_55  and  C_58 
REMARK   13  A    between atoms: C_55  and  O_56 
REMARK   14  A    between atoms: C_58  and  O_59 
REMARK   15  A    between atoms: C_58  and  C_61 
REMARK   16  A    between atoms: C_61  and  O_62 
REMARK   17  A    between atoms: O_62  and  P_63 
REMARK   18  A    between atoms: P_63  and  O_66 
ROOT
HETATM    1  O   UNL     1       2.862 -30.715  -3.990  1.00  0.00    -0.287 OA
ENDROOT
BRANCH   1   2
HETATM    2  P   UNL     1       2.362 -29.678  -5.056  1.00  0.00     0.417 P 
HETATM    3  O   UNL     1       1.198 -30.285  -5.654  1.00  0.00    -0.624 OA
HETATM    4  O   UNL     1       2.269 -28.358  -4.462  1.00  0.00    -0.624 OA
BRANCH   2   5
HETATM    5  O   UNL     1       3.530 -29.640  -6.099  1.00  0.00    -0.180 OA
BRANCH   5   6
HETATM    6  P   UNL     1       4.759 -30.592  -6.318  1.00  0.00     0.417 P 
HETATM    7  O   UNL     1       4.305 -31.963  -6.444  1.00  0.00    -0.624 OA
HETATM    8  O   UNL     1       5.666 -30.314  -5.203  1.00  0.00    -0.624 OA
BRANCH   6   9
HETATM    9  O   UNL     1       5.385 -30.110  -7.682  1.00  0.00    -0.287 OA
BRANCH   9  10
HETATM   10  C   UNL     1       4.655 -29.245  -8.551  1.00  0.00     0.216 C 
BRANCH  10  11
HETATM   11  C   UNL     1       4.448 -29.947  -9.866  1.00  0.00     0.180 C 
HETATM   12  C   UNL     1       5.495 -31.022 -10.184  1.00  0.00     0.182 C 
HETATM   13  C   UNL     1       6.376 -30.319 -11.232  1.00  0.00     0.198 C 
HETATM   14  C   UNL     1       5.356 -29.449 -11.956  1.00  0.00     0.262 C 
HETATM   15  O   UNL     1       4.467 -29.005 -10.959  1.00  0.00    -0.353 OA
BRANCH  12  16
HETATM   16  O   UNL     1       4.897 -32.221 -10.628  1.00  0.00    -0.390 OA
ATOM     17  HO  UNL     1       5.229 -33.007 -10.211  1.00  0.00     0.210 HD
ENDBRANCH  12  16
BRANCH  13  18
HETATM   18  O   UNL     1       6.996 -31.224 -12.095  1.00  0.00    -0.388 OA
ATOM     19  HO  UNL     1       6.688 -31.137 -12.989  1.00  0.00     0.210 HD
ENDBRANCH  13  18
BRANCH  14  20
HETATM   20  N   UNL     1       5.879 -28.290 -12.647  1.00  0.00    -0.297 N 
HETATM   21  C   UNL     1       5.362 -27.731 -13.781  1.00  0.00     0.142 A 
HETATM   22  N   UNL     1       4.344 -28.186 -14.509  1.00  0.00    -0.336 N 
HETATM   23  C   UNL     1       6.104 -26.603 -14.033  1.00  0.00     0.122 A 
HETATM   24  C   UNL     1       4.094 -27.403 -15.543  1.00  0.00     0.183 A 
ATOM     25  HN  UNL     1       3.821 -29.035 -14.295  1.00  0.00     0.168 HD
HETATM   26  N   UNL     1       4.727 -26.294 -15.914  1.00  0.00    -0.337 N 
HETATM   27  C   UNL     1       5.765 -25.857 -15.176  1.00  0.00     0.131 A 
ATOM     28  HN  UNL     1       4.431 -25.782 -16.745  1.00  0.00     0.168 HD
HETATM   29  N   UNL     1       6.368 -24.733 -15.526  1.00  0.00    -0.383 N 
ATOM     30  HN2 UNL     1       6.122 -24.191 -16.355  1.00  0.00     0.157 HD
ATOM     31  HN1 UNL     1       7.155 -24.401 -14.967  1.00  0.00     0.157 HD
HETATM   32  N   UNL     1       7.067 -26.442 -13.056  1.00  0.00    -0.346 N 
HETATM   33  C   UNL     1       6.874 -27.456 -12.248  1.00  0.00     0.188 A 
ATOM     34  HN  UNL     1       7.767 -25.704 -12.980  1.00  0.00     0.167 HD
ENDBRANCH  14  20
ENDBRANCH  10  11
ENDBRANCH   9  10
ENDBRANCH   6   9
ENDBRANCH   5   6
ENDBRANCH   2   5
ENDBRANCH   1   2
BRANCH   1  35
HETATM   35  C   UNL     1       2.217 -30.838  -2.757  1.00  0.00     0.215 C 
BRANCH  35  36
HETATM   36  C   UNL     1       3.166 -30.349  -1.684  1.00  0.00     0.173 C 
BRANCH  36  37
HETATM   37  O   UNL     1       2.442 -29.618  -0.705  1.00  0.00    -0.391 OA
ATOM     38  HO  UNL     1       2.614 -28.689  -0.809  1.00  0.00     0.210 HD
ENDBRANCH  36  37
BRANCH  36  39
HETATM   39  C   UNL     1       3.891 -31.530  -1.057  1.00  0.00     0.179 C 
BRANCH  39  40
HETATM   40  C   UNL     1       5.419 -31.416  -0.997  1.00  0.00     0.167 C 
BRANCH  40  41
HETATM   41  O   UNL     1       5.929 -30.752  -2.118  1.00  0.00    -0.391 OA
ATOM     42  HO  UNL     1       6.371 -29.947  -1.875  1.00  0.00     0.210 HD
ENDBRANCH  40  41
BRANCH  40  43
HETATM   43  C   UNL     1       5.833 -30.683   0.275  1.00  0.00     0.165 C 
BRANCH  43  44
HETATM   44  N   UNL     1       6.700 -31.526   1.103  1.00  0.00    -0.327 N 
HETATM   45  C   UNL     1       7.980 -31.665   0.718  1.00  0.00     0.145 A 
HETATM   46  N   UNL     1       8.393 -31.027  -0.340  1.00  0.00    -0.292 N 
HETATM   47  C   UNL     1       8.810 -32.495   1.544  1.00  0.00     0.146 A 
HETATM   48  C   UNL     1       9.622 -31.190  -0.725  1.00  0.00     0.328 A 
ATOM     49  HN  UNL     1       7.763 -30.412  -0.854  1.00  0.00     0.172 HD
HETATM   50  O   UNL     1      10.019 -30.649  -1.713  1.00  0.00    -0.247 OA
HETATM   51  N   UNL     1      10.502 -31.949  -0.002  1.00  0.00    -0.273 N 
HETATM   52  C   UNL     1      10.128 -32.605   1.147  1.00  0.00     0.280 A 
ATOM     53  HN  UNL     1      11.465 -32.031  -0.327  1.00  0.00     0.173 HD
HETATM   54  O   UNL     1      10.938 -33.265   1.769  1.00  0.00    -0.265 OA
HETATM   55  N   UNL     1       8.411 -33.124   2.603  1.00  0.00    -0.347 N 
HETATM   56  C   UNL     1       7.086 -33.043   2.919  1.00  0.00     0.060 A 
ATOM     57  HN  UNL     1       9.061 -33.658   3.179  1.00  0.00     0.166 HD
HETATM   58  C   UNL     1       6.614 -33.770   4.025  1.00  0.00     0.039 A 
HETATM   59  C   UNL     1       6.199 -32.232   2.188  1.00  0.00     0.063 A 
HETATM   60  C   UNL     1       5.289 -33.756   4.362  1.00  0.00    -0.054 A 
HETATM   61  C   UNL     1       4.391 -32.947   3.627  1.00  0.00    -0.054 A 
HETATM   62  C   UNL     1       4.790 -34.575   5.526  1.00  0.00     0.049 C 
HETATM   63  C   UNL     1       2.940 -32.880   4.003  1.00  0.00     0.049 C 
HETATM   64  C   UNL     1       4.857 -32.184   2.578  1.00  0.00     0.039 A 
ENDBRANCH  43  44
ENDBRANCH  40  43
ENDBRANCH  39  40
BRANCH  39  65
HETATM   65  O   UNL     1       3.486 -32.673  -1.752  1.00  0.00    -0.390 OA
ATOM     66  HO  UNL     1       3.720 -32.627  -2.671  1.00  0.00     0.210 HD
ENDBRANCH  39  65
ENDBRANCH  36  39
ENDBRANCH  35  36
ENDBRANCH   1  35
TORSDOF 18
ENDMDL
MODEL 8
REMARK VINA RESULT:   -11.189      3.935      6.707
REMARK INTER + INTRA:         -22.675
REMARK INTER:                 -20.508
REMARK INTRA:                  -2.167
REMARK UNBOUND:                -1.346
REMARK  18 active torsions:
REMARK  status: ('A' for Active; 'I' for Inactive)
REMARK    1  A    between atoms: P_1  and  O_4 
REMARK    2  A    between atoms: P_1  and  O_66 
REMARK    3  A    between atoms: O_4  and  C_5 
REMARK    4  A    between atoms: C_5  and  C_6 
REMARK    5  A    between atoms: C_8  and  O_9 
REMARK    6  A    between atoms: C_11  and  O_12 
REMARK    7  A    between atoms: C_14  and  N_15 
REMARK    8  A    between atoms: N_49  and  C_51 
REMARK    9  A    between atoms: C_51  and  C_52 
REMARK   10  A    between atoms: C_52  and  O_53 
REMARK   11  A    between atoms: C_52  and  C_55 
REMARK   12  A    between atoms: C_55  and  C_58 
REMARK   13  A    between atoms: C_55  and  O_56 
REMARK   14  A    between atoms: C_58  and  O_59 
REMARK   15  A    between atoms: C_58  and  C_61 
REMARK   16  A    between atoms: C_61  and  O_62 
REMARK   17  A    between atoms: O_62  and  P_63 
REMARK   18  A    between atoms: P_63  and  O_66 
ROOT
HETATM    1  O   UNL     1       8.943 -32.767  -1.089  1.00  0.00    -0.287 OA
ENDROOT
BRANCH   1   2
HETATM    2  P   UNL     1       7.860 -31.821  -1.714  1.00  0.00     0.417 P 
HETATM    3  O   UNL     1       8.261 -30.488  -1.335  1.00  0.00    -0.624 OA
HETATM    4  O   UNL     1       7.658 -32.149  -3.112  1.00  0.00    -0.624 OA
BRANCH   2   5
HETATM    5  O   UNL     1       6.550 -32.213  -0.949  1.00  0.00    -0.180 OA
BRANCH   5   6
HETATM    6  P   UNL     1       5.135 -31.535  -0.898  1.00  0.00     0.417 P 
HETATM    7  O   UNL     1       5.199 -30.319  -0.113  1.00  0.00    -0.624 OA
HETATM    8  O   UNL     1       4.227 -32.573  -0.407  1.00  0.00    -0.624 OA
BRANCH   6   9
HETATM    9  O   UNL     1       4.820 -31.183  -2.402  1.00  0.00    -0.287 OA
BRANCH   9  10
HETATM   10  C   UNL     1       3.477 -30.959  -2.829  1.00  0.00     0.216 C 
BRANCH  10  11
HETATM   11  C   UNL     1       3.464 -29.799  -3.789  1.00  0.00     0.180 C 
HETATM   12  C   UNL     1       2.085 -29.477  -4.378  1.00  0.00     0.182 C 
HETATM   13  C   UNL     1       2.199 -30.049  -5.803  1.00  0.00     0.198 C 
HETATM   14  C   UNL     1       3.671 -29.812  -6.112  1.00  0.00     0.262 C 
HETATM   15  O   UNL     1       4.350 -30.044  -4.901  1.00  0.00    -0.353 OA
BRANCH  12  16
HETATM   16  O   UNL     1       1.800 -28.097  -4.320  1.00  0.00    -0.390 OA
ATOM     17  HO  UNL     1       2.538 -27.531  -4.516  1.00  0.00     0.210 HD
ENDBRANCH  12  16
BRANCH  13  18
HETATM   18  O   UNL     1       1.363 -29.388  -6.705  1.00  0.00    -0.388 OA
ATOM     19  HO  UNL     1       1.798 -29.205  -7.529  1.00  0.00     0.210 HD
ENDBRANCH  13  18
BRANCH  14  20
HETATM   20  N   UNL     1       4.255 -30.659  -7.130  1.00  0.00    -0.297 N 
HETATM   21  C   UNL     1       4.223 -30.433  -8.476  1.00  0.00     0.142 A 
HETATM   22  N   UNL     1       3.584 -29.452  -9.112  1.00  0.00    -0.336 N 
HETATM   23  C   UNL     1       4.975 -31.425  -9.057  1.00  0.00     0.122 A 
HETATM   24  C   UNL     1       3.763 -29.518 -10.419  1.00  0.00     0.183 A 
ATOM     25  HN  UNL     1       3.026 -28.737  -8.646  1.00  0.00     0.168 HD
HETATM   26  N   UNL     1       4.452 -30.417 -11.116  1.00  0.00    -0.337 N 
HETATM   27  C   UNL     1       5.078 -31.412 -10.460  1.00  0.00     0.131 A 
ATOM     28  HN  UNL     1       4.507 -30.353 -12.132  1.00  0.00     0.168 HD
HETATM   29  N   UNL     1       5.795 -32.282 -11.152  1.00  0.00    -0.383 N 
ATOM     30  HN2 UNL     1       5.869 -32.272 -12.170  1.00  0.00     0.157 HD
ATOM     31  HN1 UNL     1       6.269 -33.036 -10.655  1.00  0.00     0.157 HD
HETATM   32  N   UNL     1       5.494 -32.256  -8.083  1.00  0.00    -0.346 N 
HETATM   33  C   UNL     1       5.055 -31.744  -6.959  1.00  0.00     0.188 A 
ATOM     34  HN  UNL     1       6.083 -33.079  -8.209  1.00  0.00     0.167 HD
ENDBRANCH  14  20
ENDBRANCH  10  11
ENDBRANCH   9  10
ENDBRANCH   6   9
ENDBRANCH   5   6
ENDBRANCH   2   5
ENDBRANCH   1   2
BRANCH   1  35
HETATM   35  C   UNL     1       9.589 -32.425   0.102  1.00  0.00     0.215 C 
BRANCH  35  36
HETATM   36  C   UNL     1       9.846 -33.700   0.877  1.00  0.00     0.173 C 
BRANCH  36  37
HETATM   37  O   UNL     1      11.220 -33.774   1.227  1.00  0.00    -0.391 OA
ATOM     38  HO  UNL     1      11.434 -34.662   1.488  1.00  0.00     0.210 HD
ENDBRANCH  36  37
BRANCH  36  39
HETATM   39  C   UNL     1       8.963 -33.739   2.115  1.00  0.00     0.179 C 
BRANCH  39  40
HETATM   40  C   UNL     1       8.622 -35.138   2.643  1.00  0.00     0.167 C 
BRANCH  40  41
HETATM   41  O   UNL     1       9.396 -36.123   2.023  1.00  0.00    -0.391 OA
ATOM     42  HO  UNL     1       8.894 -36.607   1.378  1.00  0.00     0.210 HD
ENDBRANCH  40  41
BRANCH  40  43
HETATM   43  C   UNL     1       8.831 -35.185   4.154  1.00  0.00     0.165 C 
BRANCH  43  44
HETATM   44  N   UNL     1      10.003 -35.996   4.492  1.00  0.00    -0.327 N 
HETATM   45  C   UNL     1       9.800 -37.298   4.758  1.00  0.00     0.145 A 
HETATM   46  N   UNL     1       8.592 -37.777   4.672  1.00  0.00    -0.292 N 
HETATM   47  C   UNL     1      10.963 -38.073   5.087  1.00  0.00     0.146 A 
HETATM   48  C   UNL     1       8.397 -39.028   4.960  1.00  0.00     0.328 A 
ATOM     49  HN  UNL     1       7.816 -37.182   4.383  1.00  0.00     0.172 HD
HETATM   50  O   UNL     1       7.295 -39.487   4.928  1.00  0.00    -0.247 OA
HETATM   51  N   UNL     1       9.438 -39.860   5.273  1.00  0.00    -0.273 N 
HETATM   52  C   UNL     1      10.737 -39.413   5.332  1.00  0.00     0.280 A 
ATOM     53  HN  UNL     1       9.244 -40.841   5.468  1.00  0.00     0.173 HD
HETATM   54  O   UNL     1      11.640 -40.181   5.605  1.00  0.00    -0.265 OA
HETATM   55  N   UNL     1      12.168 -37.606   5.164  1.00  0.00    -0.347 N 
HETATM   56  C   UNL     1      12.334 -36.264   4.984  1.00  0.00     0.060 A 
ATOM     57  HN  UNL     1      12.962 -38.217   5.352  1.00  0.00     0.166 HD
HETATM   58  C   UNL     1      13.622 -35.722   5.128  1.00  0.00     0.039 A 
HETATM   59  C   UNL     1      11.262 -35.427   4.628  1.00  0.00     0.063 A 
HETATM   60  C   UNL     1      13.840 -34.378   4.997  1.00  0.00    -0.054 A 
HETATM   61  C   UNL     1      12.763 -33.530   4.646  1.00  0.00    -0.054 A 
HETATM   62  C   UNL     1      15.220 -33.805   5.197  1.00  0.00     0.049 C 
HETATM   63  C   UNL     1      12.982 -32.058   4.453  1.00  0.00     0.049 C 
HETATM   64  C   UNL     1      11.507 -34.063   4.443  1.00  0.00     0.039 A 
ENDBRANCH  43  44
ENDBRANCH  40  43
ENDBRANCH  39  40
BRANCH  39  65
HETATM   65  O   UNL     1       7.812 -33.004   1.820  1.00  0.00    -0.390 OA
ATOM     66  HO  UNL     1       7.091 -33.236   2.393  1.00  0.00     0.210 HD
ENDBRANCH  39  65
ENDBRANCH  36  39
ENDBRANCH  35  36
ENDBRANCH   1  35
TORSDOF 18
ENDMDL
MODEL 9
REMARK VINA RESULT:   -11.183      8.335     10.532
REMARK INTER + INTRA:         -22.662
REMARK INTER:                 -19.091
REMARK INTRA:                  -3.571
REMARK UNBOUND:                -1.346
REMARK  18 active torsions:
REMARK  status: ('A' for Active; 'I' for Inactive)
REMARK    1  A    between atoms: P_1  and  O_4 
REMARK    2  A    between atoms: P_1  and  O_66 
REMARK    3  A    between atoms: O_4  and  C_5 
REMARK    4  A    between atoms: C_5  and  C_6 
REMARK    5  A    between atoms: C_8  and  O_9 
REMARK    6  A    between atoms: C_11  and  O_12 
REMARK    7  A    between atoms: C_14  and  N_15 
REMARK    8  A    between atoms: N_49  and  C_51 
REMARK    9  A    between atoms: C_51  and  C_52 
REMARK   10  A    between atoms: C_52  and  O_53 
REMARK   11  A    between atoms: C_52  and  C_55 
REMARK   12  A    between atoms: C_55  and  C_58 
REMARK   13  A    between atoms: C_55  and  O_56 
REMARK   14  A    between atoms: C_58  and  O_59 
REMARK   15  A    between atoms: C_58  and  C_61 
REMARK   16  A    between atoms: C_61  and  O_62 
REMARK   17  A    between atoms: O_62  and  P_63 
REMARK   18  A    between atoms: P_63  and  O_66 
ROOT
HETATM    1  O   UNL     1       8.869 -34.954   2.054  1.00  0.00    -0.287 OA
ENDROOT
BRANCH   1   2
HETATM    2  P   UNL     1      10.438 -34.988   2.069  1.00  0.00     0.417 P 
HETATM    3  O   UNL     1      10.829 -33.910   2.944  1.00  0.00    -0.624 OA
HETATM    4  O   UNL     1      10.905 -36.337   2.324  1.00  0.00    -0.624 OA
BRANCH   2   5
HETATM    5  O   UNL     1      10.822 -34.632   0.592  1.00  0.00    -0.180 OA
BRANCH   5   6
HETATM    6  P   UNL     1      10.389 -33.441  -0.334  1.00  0.00     0.417 P 
HETATM    7  O   UNL     1       9.384 -33.889  -1.278  1.00  0.00    -0.624 OA
HETATM    8  O   UNL     1      11.633 -32.930  -0.912  1.00  0.00    -0.624 OA
BRANCH   6   9
HETATM    9  O   UNL     1       9.759 -32.389   0.656  1.00  0.00    -0.287 OA
BRANCH   9  10
HETATM   10  C   UNL     1       8.451 -31.867   0.425  1.00  0.00     0.216 C 
BRANCH  10  11
HETATM   11  C   UNL     1       8.120 -30.893   1.524  1.00  0.00     0.180 C 
HETATM   12  C   UNL     1       6.830 -30.095   1.299  1.00  0.00     0.182 C 
HETATM   13  C   UNL     1       7.369 -28.716   0.879  1.00  0.00     0.198 C 
HETATM   14  C   UNL     1       8.655 -28.630   1.691  1.00  0.00     0.262 C 
HETATM   15  O   UNL     1       9.184 -29.935   1.696  1.00  0.00    -0.353 OA
BRANCH  12  16
HETATM   16  O   UNL     1       6.015 -30.081   2.451  1.00  0.00    -0.390 OA
ATOM     17  HO  UNL     1       6.025 -29.263   2.933  1.00  0.00     0.210 HD
ENDBRANCH  12  16
BRANCH  13  18
HETATM   18  O   UNL     1       6.483 -27.684   1.192  1.00  0.00    -0.388 OA
ATOM     19  HO  UNL     1       6.850 -26.828   1.007  1.00  0.00     0.210 HD
ENDBRANCH  13  18
BRANCH  14  20
HETATM   20  N   UNL     1       9.670 -27.730   1.187  1.00  0.00    -0.297 N 
HETATM   21  C   UNL     1      10.215 -27.755  -0.065  1.00  0.00     0.142 A 
HETATM   22  N   UNL     1       9.986 -28.652  -1.023  1.00  0.00    -0.336 N 
HETATM   23  C   UNL     1      11.057 -26.674  -0.147  1.00  0.00     0.122 A 
HETATM   24  C   UNL     1      10.672 -28.382  -2.120  1.00  0.00     0.183 A 
ATOM     25  HN  UNL     1       9.359 -29.450  -0.922  1.00  0.00     0.168 HD
HETATM   26  N   UNL     1      11.523 -27.385  -2.339  1.00  0.00    -0.337 N 
HETATM   27  C   UNL     1      11.755 -26.496  -1.355  1.00  0.00     0.131 A 
ATOM     28  HN  UNL     1      11.993 -27.294  -3.240  1.00  0.00     0.168 HD
HETATM   29  N   UNL     1      12.573 -25.483  -1.590  1.00  0.00    -0.383 N 
ATOM     30  HN2 UNL     1      13.079 -25.354  -2.466  1.00  0.00     0.157 HD
ATOM     31  HN1 UNL     1      12.749 -24.810  -0.844  1.00  0.00     0.157 HD
HETATM   32  N   UNL     1      11.027 -25.961   1.036  1.00  0.00    -0.346 N 
HETATM   33  C   UNL     1      10.173 -26.617   1.782  1.00  0.00     0.188 A 
ATOM     34  HN  UNL     1      11.550 -25.118   1.274  1.00  0.00     0.167 HD
ENDBRANCH  14  20
ENDBRANCH  10  11
ENDBRANCH   9  10
ENDBRANCH   6   9
ENDBRANCH   5   6
ENDBRANCH   2   5
ENDBRANCH   1   2
BRANCH   1  35
HETATM   35  C   UNL     1       8.155 -34.475   3.155  1.00  0.00     0.215 C 
BRANCH  35  36
HETATM   36  C   UNL     1       7.057 -35.469   3.467  1.00  0.00     0.173 C 
BRANCH  36  37
HETATM   37  O   UNL     1       7.554 -36.790   3.312  1.00  0.00    -0.391 OA
ATOM     38  HO  UNL     1       6.949 -37.297   2.783  1.00  0.00     0.210 HD
ENDBRANCH  36  37
BRANCH  36  39
HETATM   39  C   UNL     1       6.542 -35.241   4.880  1.00  0.00     0.179 C 
BRANCH  39  40
HETATM   40  C   UNL     1       7.576 -34.728   5.890  1.00  0.00     0.167 C 
BRANCH  40  41
HETATM   41  O   UNL     1       7.065 -33.678   6.658  1.00  0.00    -0.391 OA
ATOM     42  HO  UNL     1       7.156 -33.850   7.588  1.00  0.00     0.210 HD
ENDBRANCH  40  41
BRANCH  40  43
HETATM   43  C   UNL     1       8.022 -35.869   6.798  1.00  0.00     0.165 C 
BRANCH  43  44
HETATM   44  N   UNL     1       9.204 -36.539   6.251  1.00  0.00    -0.327 N 
HETATM   45  C   UNL     1       9.096 -37.845   5.952  1.00  0.00     0.145 A 
HETATM   46  N   UNL     1       7.950 -38.437   6.130  1.00  0.00    -0.292 N 
HETATM   47  C   UNL     1      10.267 -38.479   5.418  1.00  0.00     0.146 A 
HETATM   48  C   UNL     1       7.858 -39.706   5.869  1.00  0.00     0.328 A 
ATOM     49  HN  UNL     1       7.141 -37.916   6.467  1.00  0.00     0.172 HD
HETATM   50  O   UNL     1       6.832 -40.287   6.059  1.00  0.00    -0.247 OA
HETATM   51  N   UNL     1       8.911 -40.404   5.342  1.00  0.00    -0.273 N 
HETATM   52  C   UNL     1      10.127 -39.814   5.093  1.00  0.00     0.280 A 
ATOM     53  HN  UNL     1       8.790 -41.394   5.129  1.00  0.00     0.173 HD
HETATM   54  O   UNL     1      11.040 -40.462   4.617  1.00  0.00    -0.265 OA
HETATM   55  N   UNL     1      11.406 -37.893   5.227  1.00  0.00    -0.347 N 
HETATM   56  C   UNL     1      11.519 -36.594   5.628  1.00  0.00     0.060 A 
ATOM     57  HN  UNL     1      12.189 -38.384   4.796  1.00  0.00     0.166 HD
HETATM   58  C   UNL     1      12.764 -35.956   5.494  1.00  0.00     0.039 A 
HETATM   59  C   UNL     1      10.420 -35.878   6.135  1.00  0.00     0.063 A 
HETATM   60  C   UNL     1      12.943 -34.667   5.915  1.00  0.00    -0.054 A 
HETATM   61  C   UNL     1      11.843 -33.945   6.432  1.00  0.00    -0.054 A 
HETATM   62  C   UNL     1      14.296 -34.010   5.804  1.00  0.00     0.049 C 
HETATM   63  C   UNL     1      12.001 -32.515   6.861  1.00  0.00     0.049 C 
HETATM   64  C   UNL     1      10.603 -34.544   6.510  1.00  0.00     0.039 A 
ENDBRANCH  43  44
ENDBRANCH  40  43
ENDBRANCH  39  40
BRANCH  39  65
HETATM   65  O   UNL     1       5.960 -36.440   5.301  1.00  0.00    -0.390 OA
ATOM     66  HO  UNL     1       6.504 -36.890   5.936  1.00  0.00     0.210 HD
ENDBRANCH  39  65
ENDBRANCH  36  39
ENDBRANCH  35  36
ENDBRANCH   1  35
TORSDOF 18
ENDMDL
MODEL 10
REMARK VINA RESULT:   -11.182      8.438     14.385
REMARK INTER + INTRA:         -22.660
REMARK INTER:                 -18.118
REMARK INTRA:                  -4.542
REMARK UNBOUND:                -1.346
REMARK  18 active torsions:
REMARK  status: ('A' for Active; 'I' for Inactive)
REMARK    1  A    between atoms: P_1  and  O_4 
REMARK    2  A    between atoms: P_1  and  O_66 
REMARK    3  A    between atoms: O_4  and  C_5 
REMARK    4  A    between atoms: C_5  and  C_6 
REMARK    5  A    between atoms: C_8  and  O_9 
REMARK    6  A    between atoms: C_11  and  O_12 
REMARK    7  A    between atoms: C_14  and  N_15 
REMARK    8  A    between atoms: N_49  and  C_51 
REMARK    9  A    between atoms: C_51  and  C_52 
REMARK   10  A    between atoms: C_52  and  O_53 
REMARK   11  A    between atoms: C_52  and  C_55 
REMARK   12  A    between atoms: C_55  and  C_58 
REMARK   13  A    between atoms: C_55  and  O_56 
REMARK   14  A    between atoms: C_58  and  O_59 
REMARK   15  A    between atoms: C_58  and  C_61 
REMARK   16  A    between atoms: C_61  and  O_62 
REMARK   17  A    between atoms: O_62  and  P_63 
REMARK   18  A    between atoms: P_63  and  O_66 
ROOT
HETATM    1  O   UNL     1      13.037 -33.509   3.267  1.00  0.00    -0.287 OA
ENDROOT
BRANCH   1   2
HETATM    2  P   UNL     1      13.317 -33.229   4.785  1.00  0.00     0.417 P 
HETATM    3  O   UNL     1      14.711 -33.546   4.976  1.00  0.00    -0.624 OA
HETATM    4  O   UNL     1      12.812 -31.920   5.152  1.00  0.00    -0.624 OA
BRANCH   2   5
HETATM    5  O   UNL     1      12.431 -34.293   5.519  1.00  0.00    -0.180 OA
BRANCH   5   6
HETATM    6  P   UNL     1      11.190 -34.134   6.466  1.00  0.00     0.417 P 
HETATM    7  O   UNL     1      10.160 -33.357   5.805  1.00  0.00    -0.624 OA
HETATM    8  O   UNL     1      11.721 -33.574   7.709  1.00  0.00    -0.624 OA
BRANCH   6   9
HETATM    9  O   UNL     1      10.682 -35.610   6.690  1.00  0.00    -0.287 OA
BRANCH   9  10
HETATM   10  C   UNL     1      11.350 -36.710   6.073  1.00  0.00     0.216 C 
BRANCH  10  11
HETATM   11  C   UNL     1      10.670 -37.984   6.495  1.00  0.00     0.180 C 
HETATM   12  C   UNL     1      10.541 -39.034   5.384  1.00  0.00     0.182 C 
HETATM   13  C   UNL     1       9.055 -38.920   5.000  1.00  0.00     0.198 C 
HETATM   14  C   UNL     1       8.418 -38.569   6.339  1.00  0.00     0.262 C 
HETATM   15  O   UNL     1       9.337 -37.718   6.980  1.00  0.00    -0.353 OA
BRANCH  12  16
HETATM   16  O   UNL     1      10.937 -40.314   5.825  1.00  0.00    -0.390 OA
ATOM     17  HO  UNL     1      10.413 -40.669   6.534  1.00  0.00     0.210 HD
ENDBRANCH  12  16
BRANCH  13  18
HETATM   18  O   UNL     1       8.551 -40.112   4.478  1.00  0.00    -0.388 OA
ATOM     19  HO  UNL     1       9.208 -40.598   3.993  1.00  0.00     0.210 HD
ENDBRANCH  13  18
BRANCH  14  20
HETATM   20  N   UNL     1       7.138 -37.896   6.281  1.00  0.00    -0.297 N 
HETATM   21  C   UNL     1       6.920 -36.626   5.827  1.00  0.00     0.142 A 
HETATM   22  N   UNL     1       7.838 -35.742   5.438  1.00  0.00    -0.336 N 
HETATM   23  C   UNL     1       5.561 -36.428   5.857  1.00  0.00     0.122 A 
HETATM   24  C   UNL     1       7.288 -34.605   5.050  1.00  0.00     0.183 A 
ATOM     25  HN  UNL     1       8.841 -35.922   5.438  1.00  0.00     0.168 HD
HETATM   26  N   UNL     1       6.002 -34.272   5.032  1.00  0.00    -0.337 N 
HETATM   27  C   UNL     1       5.088 -35.170   5.444  1.00  0.00     0.131 A 
ATOM     28  HN  UNL     1       5.711 -33.349   4.709  1.00  0.00     0.168 HD
HETATM   29  N   UNL     1       3.806 -34.849   5.389  1.00  0.00    -0.383 N 
ATOM     30  HN2 UNL     1       3.463 -33.935   5.089  1.00  0.00     0.157 HD
ATOM     31  HN1 UNL     1       3.114 -35.529   5.701  1.00  0.00     0.157 HD
HETATM   32  N   UNL     1       4.927 -37.571   6.306  1.00  0.00    -0.346 N 
HETATM   33  C   UNL     1       5.906 -38.416   6.520  1.00  0.00     0.188 A 
ATOM     34  HN  UNL     1       3.928 -37.723   6.439  1.00  0.00     0.167 HD
ENDBRANCH  14  20
ENDBRANCH  10  11
ENDBRANCH   9  10
ENDBRANCH   6   9
ENDBRANCH   5   6
ENDBRANCH   2   5
ENDBRANCH   1   2
BRANCH   1  35
HETATM   35  C   UNL     1      12.057 -32.792   2.578  1.00  0.00     0.215 C 
BRANCH  35  36
HETATM   36  C   UNL     1      10.857 -33.697   2.398  1.00  0.00     0.173 C 
BRANCH  36  37
HETATM   37  O   UNL     1       9.702 -33.067   2.934  1.00  0.00    -0.391 OA
ATOM     38  HO  UNL     1       8.923 -33.439   2.536  1.00  0.00     0.210 HD
ENDBRANCH  36  37
BRANCH  36  39
HETATM   39  C   UNL     1      10.669 -34.018   0.923  1.00  0.00     0.179 C 
BRANCH  39  40
HETATM   40  C   UNL     1      10.884 -32.848  -0.044  1.00  0.00     0.167 C 
BRANCH  40  41
HETATM   41  O   UNL     1      11.965 -33.081  -0.900  1.00  0.00    -0.391 OA
ATOM     42  HO  UNL     1      11.690 -33.109  -1.809  1.00  0.00     0.210 HD
ENDBRANCH  40  41
BRANCH  40  43
HETATM   43  C   UNL     1       9.616 -32.611  -0.859  1.00  0.00     0.165 C 
BRANCH  43  44
HETATM   44  N   UNL     1       9.114 -31.249  -0.659  1.00  0.00    -0.327 N 
HETATM   45  C   UNL     1       8.098 -31.083   0.205  1.00  0.00     0.145 A 
HETATM   46  N   UNL     1       7.635 -32.122   0.839  1.00  0.00    -0.292 N 
HETATM   47  C   UNL     1       7.624 -29.741   0.385  1.00  0.00     0.146 A 
HETATM   48  C   UNL     1       6.633 -31.961   1.650  1.00  0.00     0.328 A 
ATOM     49  HN  UNL     1       8.051 -33.043   0.703  1.00  0.00     0.172 HD
HETATM   50  O   UNL     1       6.161 -32.901   2.216  1.00  0.00    -0.247 OA
HETATM   51  N   UNL     1       6.113 -30.721   1.904  1.00  0.00    -0.273 N 
HETATM   52  C   UNL     1       6.597 -29.588   1.296  1.00  0.00     0.280 A 
ATOM     53  HN  UNL     1       5.342 -30.636   2.566  1.00  0.00     0.173 HD
HETATM   54  O   UNL     1       6.117 -28.500   1.551  1.00  0.00    -0.265 OA
HETATM   55  N   UNL     1       8.086 -28.701  -0.233  1.00  0.00    -0.347 N 
HETATM   56  C   UNL     1       9.051 -28.909  -1.175  1.00  0.00     0.060 A 
ATOM     57  HN  UNL     1       7.742 -27.764  -0.025  1.00  0.00     0.166 HD
HETATM   58  C   UNL     1       9.522 -27.806  -1.907  1.00  0.00     0.039 A 
HETATM   59  C   UNL     1       9.602 -30.183  -1.402  1.00  0.00     0.063 A 
HETATM   60  C   UNL     1      10.461 -27.963  -2.890  1.00  0.00    -0.054 A 
HETATM   61  C   UNL     1      11.013 -29.243  -3.127  1.00  0.00    -0.054 A 
HETATM   62  C   UNL     1      10.926 -26.776  -3.696  1.00  0.00     0.049 C 
HETATM   63  C   UNL     1      12.076 -29.436  -4.169  1.00  0.00     0.049 C 
HETATM   64  C   UNL     1      10.600 -30.320  -2.371  1.00  0.00     0.039 A 
ENDBRANCH  43  44
ENDBRANCH  40  43
ENDBRANCH  39  40
BRANCH  39  65
HETATM   65  O   UNL     1       9.394 -34.575   0.785  1.00  0.00    -0.390 OA
ATOM     66  HO  UNL     1       8.750 -34.111   1.306  1.00  0.00     0.210 HD
ENDBRANCH  39  65
ENDBRANCH  36  39
ENDBRANCH  35  36
ENDBRANCH   1  35
TORSDOF 18
ENDMDL
MODEL 11
REMARK VINA RESULT:   -11.130      7.208     13.984
REMARK INTER + INTRA:         -22.562
REMARK INTER:                 -19.368
REMARK INTRA:                  -3.194
REMARK UNBOUND:                -1.346
REMARK  18 active torsions:
REMARK  status: ('A' for Active; 'I' for Inactive)
REMARK    1  A    between atoms: P_1  and  O_4 
REMARK    2  A    between atoms: P_1  and  O_66 
REMARK    3  A    between atoms: O_4  and  C_5 
REMARK    4  A    between atoms: C_5  and  C_6 
REMARK    5  A    between atoms: C_8  and  O_9 
REMARK    6  A    between atoms: C_11  and  O_12 
REMARK    7  A    between atoms: C_14  and  N_15 
REMARK    8  A    between atoms: N_49  and  C_51 
REMARK    9  A    between atoms: C_51  and  C_52 
REMARK   10  A    between atoms: C_52  and  O_53 
REMARK   11  A    between atoms: C_52  and  C_55 
REMARK   12  A    between atoms: C_55  and  C_58 
REMARK   13  A    between atoms: C_55  and  O_56 
REMARK   14  A    between atoms: C_58  and  O_59 
REMARK   15  A    between atoms: C_58  and  C_61 
REMARK   16  A    between atoms: C_61  and  O_62 
REMARK   17  A    between atoms: O_62  and  P_63 
REMARK   18  A    between atoms: P_63  and  O_66 
ROOT
HETATM    1  O   UNL     1      12.444 -34.472   3.626  1.00  0.00    -0.287 OA
ENDROOT
BRANCH   1   2
HETATM    2  P   UNL     1      12.635 -35.632   4.665  1.00  0.00     0.417 P 
HETATM    3  O   UNL     1      13.163 -36.737   3.901  1.00  0.00    -0.624 OA
HETATM    4  O   UNL     1      13.350 -35.146   5.829  1.00  0.00    -0.624 OA
BRANCH   2   5
HETATM    5  O   UNL     1      11.172 -35.958   5.118  1.00  0.00    -0.180 OA
BRANCH   5   6
HETATM    6  P   UNL     1      10.095 -36.936   4.527  1.00  0.00     0.417 P 
HETATM    7  O   UNL     1      10.549 -38.306   4.653  1.00  0.00    -0.624 OA
HETATM    8  O   UNL     1       9.850 -36.461   3.164  1.00  0.00    -0.624 OA
BRANCH   6   9
HETATM    9  O   UNL     1       8.826 -36.710   5.434  1.00  0.00    -0.287 OA
BRANCH   9  10
HETATM   10  C   UNL     1       8.844 -37.079   6.813  1.00  0.00     0.216 C 
BRANCH  10  11
HETATM   11  C   UNL     1       7.425 -37.135   7.314  1.00  0.00     0.180 C 
HETATM   12  C   UNL     1       6.536 -38.153   6.588  1.00  0.00     0.182 C 
HETATM   13  C   UNL     1       5.683 -37.250   5.679  1.00  0.00     0.198 C 
HETATM   14  C   UNL     1       5.545 -35.997   6.534  1.00  0.00     0.262 C 
HETATM   15  O   UNL     1       6.785 -35.850   7.186  1.00  0.00    -0.353 OA
BRANCH  12  16
HETATM   16  O   UNL     1       5.795 -38.941   7.495  1.00  0.00    -0.390 OA
ATOM     17  HO  UNL     1       5.638 -39.833   7.207  1.00  0.00     0.210 HD
ENDBRANCH  12  16
BRANCH  13  18
HETATM   18  O   UNL     1       4.443 -37.819   5.383  1.00  0.00    -0.388 OA
ATOM     19  HO  UNL     1       4.381 -38.092   4.475  1.00  0.00     0.210 HD
ENDBRANCH  13  18
BRANCH  14  20
HETATM   20  N   UNL     1       5.255 -34.769   5.826  1.00  0.00    -0.297 N 
HETATM   21  C   UNL     1       6.000 -34.230   4.816  1.00  0.00     0.142 A 
HETATM   22  N   UNL     1       7.166 -34.675   4.351  1.00  0.00    -0.336 N 
HETATM   23  C   UNL     1       5.314 -33.126   4.371  1.00  0.00     0.122 A 
HETATM   24  C   UNL     1       7.618 -33.924   3.363  1.00  0.00     0.183 A 
ATOM     25  HN  UNL     1       7.651 -35.495   4.714  1.00  0.00     0.168 HD
HETATM   26  N   UNL     1       7.071 -32.832   2.837  1.00  0.00    -0.337 N 
HETATM   27  C   UNL     1       5.900 -32.386   3.329  1.00  0.00     0.131 A 
ATOM     28  HN  UNL     1       7.532 -32.340   2.072  1.00  0.00     0.168 HD
HETATM   29  N   UNL     1       5.340 -31.321   2.778  1.00  0.00    -0.383 N 
ATOM     30  HN2 UNL     1       5.766 -30.784   2.022  1.00  0.00     0.157 HD
ATOM     31  HN1 UNL     1       4.453 -30.983   3.151  1.00  0.00     0.157 HD
HETATM   32  N   UNL     1       4.137 -32.983   5.081  1.00  0.00    -0.346 N 
HETATM   33  C   UNL     1       4.142 -33.995   5.913  1.00  0.00     0.188 A 
ATOM     34  HN  UNL     1       3.429 -32.256   4.981  1.00  0.00     0.167 HD
ENDBRANCH  14  20
ENDBRANCH  10  11
ENDBRANCH   9  10
ENDBRANCH   6   9
ENDBRANCH   5   6
ENDBRANCH   2   5
ENDBRANCH   1   2
BRANCH   1  35
HETATM   35  C   UNL     1      13.176 -33.288   3.736  1.00  0.00     0.215 C 
BRANCH  35  36
HETATM   36  C   UNL     1      12.600 -32.291   2.753  1.00  0.00     0.173 C 
BRANCH  36  37
HETATM   37  O   UNL     1      13.607 -31.895   1.833  1.00  0.00    -0.391 OA
ATOM     38  HO  UNL     1      13.672 -30.947   1.820  1.00  0.00     0.210 HD
ENDBRANCH  36  37
BRANCH  36  39
HETATM   39  C   UNL     1      11.411 -32.905   2.031  1.00  0.00     0.179 C 
BRANCH  39  40
HETATM   40  C   UNL     1      11.269 -32.533   0.550  1.00  0.00     0.167 C 
BRANCH  40  41
HETATM   41  O   UNL     1      11.627 -33.598  -0.283  1.00  0.00    -0.391 OA
ATOM     42  HO  UNL     1      10.966 -33.760  -0.945  1.00  0.00     0.210 HD
ENDBRANCH  40  41
BRANCH  40  43
HETATM   43  C   UNL     1       9.833 -32.106   0.259  1.00  0.00     0.165 C 
BRANCH  43  44
HETATM   44  N   UNL     1       9.785 -31.185  -0.879  1.00  0.00    -0.327 N 
HETATM   45  C   UNL     1       9.449 -31.695  -2.076  1.00  0.00     0.145 A 
HETATM   46  N   UNL     1       9.155 -32.961  -2.161  1.00  0.00    -0.292 N 
HETATM   47  C   UNL     1       9.408 -30.774  -3.176  1.00  0.00     0.146 A 
HETATM   48  C   UNL     1       8.862 -33.455  -3.325  1.00  0.00     0.328 A 
ATOM     49  HN  UNL     1       9.155 -33.551  -1.329  1.00  0.00     0.172 HD
HETATM   50  O   UNL     1       8.627 -34.620  -3.441  1.00  0.00    -0.247 OA
HETATM   51  N   UNL     1       8.782 -32.662  -4.437  1.00  0.00    -0.273 N 
HETATM   52  C   UNL     1       9.037 -31.312  -4.392  1.00  0.00     0.280 A 
ATOM     53  HN  UNL     1       8.524 -33.087  -5.328  1.00  0.00     0.173 HD
HETATM   54  O   UNL     1       8.948 -30.635  -5.398  1.00  0.00    -0.265 OA
HETATM   55  N   UNL     1       9.688 -29.512  -3.098  1.00  0.00    -0.347 N 
HETATM   56  C   UNL     1      10.118 -29.038  -1.893  1.00  0.00     0.060 A 
ATOM     57  HN  UNL     1       9.591 -28.896  -3.905  1.00  0.00     0.166 HD
HETATM   58  C   UNL     1      10.492 -27.687  -1.798  1.00  0.00     0.039 A 
HETATM   59  C   UNL     1      10.163 -29.855  -0.749  1.00  0.00     0.063 A 
HETATM   60  C   UNL     1      10.966 -27.168  -0.625  1.00  0.00    -0.054 A 
HETATM   61  C   UNL     1      11.020 -27.988   0.527  1.00  0.00    -0.054 A 
HETATM   62  C   UNL     1      11.404 -25.727  -0.550  1.00  0.00     0.049 C 
HETATM   63  C   UNL     1      11.497 -27.433   1.838  1.00  0.00     0.049 C 
HETATM   64  C   UNL     1      10.598 -29.298   0.457  1.00  0.00     0.039 A 
ENDBRANCH  43  44
ENDBRANCH  40  43
ENDBRANCH  39  40
BRANCH  39  65
HETATM   65  O   UNL     1      10.269 -32.564   2.761  1.00  0.00    -0.390 OA
ATOM     66  HO  UNL     1       9.495 -33.003   2.427  1.00  0.00     0.210 HD
ENDBRANCH  39  65
ENDBRANCH  36  39
ENDBRANCH  35  36
ENDBRANCH   1  35
TORSDOF 18
ENDMDL
MODEL 12
REMARK VINA RESULT:   -11.077      7.662     13.828
REMARK INTER + INTRA:         -22.460
REMARK INTER:                 -18.494
REMARK INTRA:                  -3.966
REMARK UNBOUND:                -1.346
REMARK  18 active torsions:
REMARK  status: ('A' for Active; 'I' for Inactive)
REMARK    1  A    between atoms: P_1  and  O_4 
REMARK    2  A    between atoms: P_1  and  O_66 
REMARK    3  A    between atoms: O_4  and  C_5 
REMARK    4  A    between atoms: C_5  and  C_6 
REMARK    5  A    between atoms: C_8  and  O_9 
REMARK    6  A    between atoms: C_11  and  O_12 
REMARK    7  A    between atoms: C_14  and  N_15 
REMARK    8  A    between atoms: N_49  and  C_51 
REMARK    9  A    between atoms: C_51  and  C_52 
REMARK   10  A    between atoms: C_52  and  O_53 
REMARK   11  A    between atoms: C_52  and  C_55 
REMARK   12  A    between atoms: C_55  and  C_58 
REMARK   13  A    between atoms: C_55  and  O_56 
REMARK   14  A    between atoms: C_58  and  O_59 
REMARK   15  A    between atoms: C_58  and  C_61 
REMARK   16  A    between atoms: C_61  and  O_62 
REMARK   17  A    between atoms: O_62  and  P_63 
REMARK   18  A    between atoms: P_63  and  O_66 
ROOT
HETATM    1  O   UNL     1       6.394 -33.150   3.725  1.00  0.00    -0.287 OA
ENDROOT
BRANCH   1   2
HETATM    2  P   UNL     1       7.138 -34.480   4.097  1.00  0.00     0.417 P 
HETATM    3  O   UNL     1       7.248 -35.209   2.857  1.00  0.00    -0.624 OA
HETATM    4  O   UNL     1       8.327 -34.186   4.875  1.00  0.00    -0.624 OA
BRANCH   2   5
HETATM    5  O   UNL     1       6.127 -35.208   5.047  1.00  0.00    -0.180 OA
BRANCH   5   6
HETATM    6  P   UNL     1       6.285 -35.751   6.511  1.00  0.00     0.417 P 
HETATM    7  O   UNL     1       5.123 -36.536   6.875  1.00  0.00    -0.624 OA
HETATM    8  O   UNL     1       6.549 -34.570   7.335  1.00  0.00    -0.624 OA
BRANCH   6   9
HETATM    9  O   UNL     1       7.557 -36.681   6.445  1.00  0.00    -0.287 OA
BRANCH   9  10
HETATM   10  C   UNL     1       7.418 -38.101   6.436  1.00  0.00     0.216 C 
BRANCH  10  11
HETATM   11  C   UNL     1       8.088 -38.642   5.201  1.00  0.00     0.180 C 
HETATM   12  C   UNL     1       8.843 -39.960   5.415  1.00  0.00     0.182 C 
HETATM   13  C   UNL     1      10.310 -39.494   5.437  1.00  0.00     0.198 C 
HETATM   14  C   UNL     1      10.276 -38.327   4.459  1.00  0.00     0.262 C 
HETATM   15  O   UNL     1       9.038 -37.693   4.676  1.00  0.00    -0.353 OA
BRANCH  12  16
HETATM   16  O   UNL     1       8.542 -40.905   4.411  1.00  0.00    -0.390 OA
ATOM     17  HO  UNL     1       9.100 -40.859   3.644  1.00  0.00     0.210 HD
ENDBRANCH  12  16
BRANCH  13  18
HETATM   18  O   UNL     1      11.189 -40.496   5.023  1.00  0.00    -0.388 OA
ATOM     19  HO  UNL     1      11.579 -40.957   5.756  1.00  0.00     0.210 HD
ENDBRANCH  13  18
BRANCH  14  20
HETATM   20  N   UNL     1      11.324 -37.339   4.605  1.00  0.00    -0.297 N 
HETATM   21  C   UNL     1      11.379 -36.129   3.976  1.00  0.00     0.142 A 
HETATM   22  N   UNL     1      10.538 -35.663   3.054  1.00  0.00    -0.336 N 
HETATM   23  C   UNL     1      12.482 -35.479   4.475  1.00  0.00     0.122 A 
HETATM   24  C   UNL     1      10.875 -34.450   2.653  1.00  0.00     0.183 A 
ATOM     25  HN  UNL     1       9.733 -36.179   2.701  1.00  0.00     0.168 HD
HETATM   26  N   UNL     1      11.909 -33.708   3.037  1.00  0.00    -0.337 N 
HETATM   27  C   UNL     1      12.759 -34.200   3.958  1.00  0.00     0.131 A 
ATOM     28  HN  UNL     1      12.056 -32.780   2.641  1.00  0.00     0.168 HD
HETATM   29  N   UNL     1      13.765 -33.445   4.367  1.00  0.00    -0.383 N 
ATOM     30  HN2 UNL     1      13.966 -32.517   3.992  1.00  0.00     0.157 HD
ATOM     31  HN1 UNL     1      14.409 -33.817   5.064  1.00  0.00     0.157 HD
HETATM   32  N   UNL     1      13.104 -36.265   5.425  1.00  0.00    -0.346 N 
HETATM   33  C   UNL     1      12.364 -37.345   5.479  1.00  0.00     0.188 A 
ATOM     34  HN  UNL     1      13.945 -36.054   5.961  1.00  0.00     0.167 HD
ENDBRANCH  14  20
ENDBRANCH  10  11
ENDBRANCH   9  10
ENDBRANCH   6   9
ENDBRANCH   5   6
ENDBRANCH   2   5
ENDBRANCH   1   2
BRANCH   1  35
HETATM   35  C   UNL     1       5.813 -32.986   2.465  1.00  0.00     0.215 C 
BRANCH  35  36
HETATM   36  C   UNL     1       6.278 -31.659   1.906  1.00  0.00     0.173 C 
BRANCH  36  37
HETATM   37  O   UNL     1       5.908 -30.613   2.793  1.00  0.00    -0.391 OA
ATOM     38  HO  UNL     1       6.038 -29.773   2.367  1.00  0.00     0.210 HD
ENDBRANCH  36  37
BRANCH  36  39
HETATM   39  C   UNL     1       7.784 -31.687   1.693  1.00  0.00     0.179 C 
BRANCH  39  40
HETATM   40  C   UNL     1       8.364 -30.516   0.890  1.00  0.00     0.167 C 
BRANCH  40  41
HETATM   41  O   UNL     1       8.253 -29.310   1.589  1.00  0.00    -0.391 OA
ATOM     42  HO  UNL     1       8.625 -28.587   1.097  1.00  0.00     0.210 HD
ENDBRANCH  40  41
BRANCH  40  43
HETATM   43  C   UNL     1       9.826 -30.792   0.556  1.00  0.00     0.165 C 
BRANCH  43  44
HETATM   44  N   UNL     1      10.102 -30.504  -0.853  1.00  0.00    -0.327 N 
HETATM   45  C   UNL     1      10.053 -31.531  -1.719  1.00  0.00     0.145 A 
HETATM   46  N   UNL     1       9.734 -32.713  -1.275  1.00  0.00    -0.292 N 
HETATM   47  C   UNL     1      10.326 -31.224  -3.094  1.00  0.00     0.146 A 
HETATM   48  C   UNL     1       9.717 -33.708  -2.109  1.00  0.00     0.328 A 
ATOM     49  HN  UNL     1       9.501 -32.854  -0.292  1.00  0.00     0.172 HD
HETATM   50  O   UNL     1       9.468 -34.811  -1.724  1.00  0.00    -0.247 OA
HETATM   51  N   UNL     1       9.950 -33.523  -3.445  1.00  0.00    -0.273 N 
HETATM   52  C   UNL     1      10.245 -32.288  -3.970  1.00  0.00     0.280 A 
ATOM     53  HN  UNL     1       9.903 -34.328  -4.070  1.00  0.00     0.173 HD
HETATM   54  O   UNL     1      10.438 -32.157  -5.164  1.00  0.00    -0.265 OA
HETATM   55  N   UNL     1      10.633 -30.049  -3.545  1.00  0.00    -0.347 N 
HETATM   56  C   UNL     1      10.770 -29.043  -2.634  1.00  0.00     0.060 A 
ATOM     57  HN  UNL     1      10.766 -29.883  -4.542  1.00  0.00     0.166 HD
HETATM   58  C   UNL     1      11.168 -27.775  -3.090  1.00  0.00     0.039 A 
HETATM   59  C   UNL     1      10.494 -29.238  -1.269  1.00  0.00     0.063 A 
HETATM   60  C   UNL     1      11.358 -26.741  -2.215  1.00  0.00    -0.054 A 
HETATM   61  C   UNL     1      11.089 -26.933  -0.840  1.00  0.00    -0.054 A 
HETATM   62  C   UNL     1      11.826 -25.397  -2.714  1.00  0.00     0.049 C 
HETATM   63  C   UNL     1      11.249 -25.803   0.135  1.00  0.00     0.049 C 
HETATM   64  C   UNL     1      10.641 -28.158  -0.393  1.00  0.00     0.039 A 
ENDBRANCH  43  44
ENDBRANCH  40  43
ENDBRANCH  39  40
BRANCH  39  65
HETATM   65  O   UNL     1       8.091 -32.918   1.107  1.00  0.00    -0.390 OA
ATOM     66  HO  UNL     1       7.503 -33.603   1.401  1.00  0.00     0.210 HD
ENDBRANCH  39  65
ENDBRANCH  36  39
ENDBRANCH  35  36
ENDBRANCH   1  35
TORSDOF 18
ENDMDL
MODEL 13
REMARK VINA RESULT:   -11.069      8.039     14.064
REMARK INTER + INTRA:         -22.445
REMARK INTER:                 -18.526
REMARK INTRA:                  -3.919
REMARK UNBOUND:                -1.346
REMARK  18 active torsions:
REMARK  status: ('A' for Active; 'I' for Inactive)
REMARK    1  A    between atoms: P_1  and  O_4 
REMARK    2  A    between atoms: P_1  and  O_66 
REMARK    3  A    between atoms: O_4  and  C_5 
REMARK    4  A    between atoms: C_5  and  C_6 
REMARK    5  A    between atoms: C_8  and  O_9 
REMARK    6  A    between atoms: C_11  and  O_12 
REMARK    7  A    between atoms: C_14  and  N_15 
REMARK    8  A    between atoms: N_49  and  C_51 
REMARK    9  A    between atoms: C_51  and  C_52 
REMARK   10  A    between atoms: C_52  and  O_53 
REMARK   11  A    between atoms: C_52  and  C_55 
REMARK   12  A    between atoms: C_55  and  C_58 
REMARK   13  A    between atoms: C_55  and  O_56 
REMARK   14  A    between atoms: C_58  and  O_59 
REMARK   15  A    between atoms: C_58  and  C_61 
REMARK   16  A    between atoms: C_61  and  O_62 
REMARK   17  A    between atoms: O_62  and  P_63 
REMARK   18  A    between atoms: P_63  and  O_66 
ROOT
HETATM    1  O   UNL     1      11.378 -34.615   4.073  1.00  0.00    -0.287 OA
ENDROOT
BRANCH   1   2
HETATM    2  P   UNL     1      11.450 -36.174   3.912  1.00  0.00     0.417 P 
HETATM    3  O   UNL     1      10.982 -36.435   2.572  1.00  0.00    -0.624 OA
HETATM    4  O   UNL     1      12.749 -36.659   4.335  1.00  0.00    -0.624 OA
BRANCH   2   5
HETATM    5  O   UNL     1      10.397 -36.694   4.948  1.00  0.00    -0.180 OA
BRANCH   5   6
HETATM    6  P   UNL     1       9.459 -37.953   4.931  1.00  0.00     0.417 P 
HETATM    7  O   UNL     1      10.225 -39.135   4.590  1.00  0.00    -0.624 OA
HETATM    8  O   UNL     1       8.366 -37.609   4.020  1.00  0.00    -0.624 OA
BRANCH   6   9
HETATM    9  O   UNL     1       8.936 -38.067   6.414  1.00  0.00    -0.287 OA
BRANCH   9  10
HETATM   10  C   UNL     1       8.696 -36.895   7.191  1.00  0.00     0.216 C 
BRANCH  10  11
HETATM   11  C   UNL     1       7.246 -36.876   7.598  1.00  0.00     0.180 C 
HETATM   12  C   UNL     1       6.394 -37.981   6.960  1.00  0.00     0.182 C 
HETATM   13  C   UNL     1       5.616 -37.207   5.880  1.00  0.00     0.198 C 
HETATM   14  C   UNL     1       5.438 -35.848   6.543  1.00  0.00     0.262 C 
HETATM   15  O   UNL     1       6.633 -35.618   7.251  1.00  0.00    -0.353 OA
BRANCH  12  16
HETATM   16  O   UNL     1       5.584 -38.634   7.913  1.00  0.00    -0.390 OA
ATOM     17  HO  UNL     1       4.655 -38.621   7.718  1.00  0.00     0.210 HD
ENDBRANCH  12  16
BRANCH  13  18
HETATM   18  O   UNL     1       4.391 -37.807   5.580  1.00  0.00    -0.388 OA
ATOM     19  HO  UNL     1       3.683 -37.176   5.543  1.00  0.00     0.210 HD
ENDBRANCH  13  18
BRANCH  14  20
HETATM   20  N   UNL     1       5.212 -34.728   5.656  1.00  0.00    -0.297 N 
HETATM   21  C   UNL     1       6.102 -34.234   4.745  1.00  0.00     0.142 A 
HETATM   22  N   UNL     1       7.363 -34.623   4.559  1.00  0.00    -0.336 N 
HETATM   23  C   UNL     1       5.447 -33.243   4.055  1.00  0.00     0.122 A 
HETATM   24  C   UNL     1       7.948 -33.941   3.591  1.00  0.00     0.183 A 
ATOM     25  HN  UNL     1       7.820 -35.358   5.099  1.00  0.00     0.168 HD
HETATM   26  N   UNL     1       7.445 -32.960   2.850  1.00  0.00    -0.337 N 
HETATM   27  C   UNL     1       6.175 -32.566   3.061  1.00  0.00     0.131 A 
ATOM     28  HN  UNL     1       8.013 -32.511   2.131  1.00  0.00     0.168 HD
HETATM   29  N   UNL     1       5.665 -31.615   2.296  1.00  0.00    -0.383 N 
ATOM     30  HN2 UNL     1       6.194 -31.124   1.574  1.00  0.00     0.157 HD
ATOM     31  HN1 UNL     1       4.703 -31.317   2.456  1.00  0.00     0.157 HD
HETATM   32  N   UNL     1       4.148 -33.129   4.514  1.00  0.00    -0.346 N 
HETATM   33  C   UNL     1       4.056 -34.046   5.444  1.00  0.00     0.188 A 
ATOM     34  HN  UNL     1       3.427 -32.479   4.200  1.00  0.00     0.167 HD
ENDBRANCH  14  20
ENDBRANCH  10  11
ENDBRANCH   9  10
ENDBRANCH   6   9
ENDBRANCH   5   6
ENDBRANCH   2   5
ENDBRANCH   1   2
BRANCH   1  35
HETATM   35  C   UNL     1      12.405 -33.799   3.591  1.00  0.00     0.215 C 
BRANCH  35  36
HETATM   36  C   UNL     1      11.772 -32.646   2.843  1.00  0.00     0.173 C 
BRANCH  36  37
HETATM   37  O   UNL     1      12.655 -31.533   2.848  1.00  0.00    -0.391 OA
ATOM     38  HO  UNL     1      13.441 -31.753   3.335  1.00  0.00     0.210 HD
ENDBRANCH  36  37
BRANCH  36  39
HETATM   39  C   UNL     1      11.440 -33.073   1.421  1.00  0.00     0.179 C 
BRANCH  39  40
HETATM   40  C   UNL     1      11.385 -31.943   0.384  1.00  0.00     0.167 C 
BRANCH  40  41
HETATM   41  O   UNL     1      11.540 -32.433  -0.916  1.00  0.00    -0.391 OA
ATOM     42  HO  UNL     1      10.746 -32.850  -1.229  1.00  0.00     0.210 HD
ENDBRANCH  40  41
BRANCH  40  43
HETATM   43  C   UNL     1      10.060 -31.196   0.505  1.00  0.00     0.165 C 
BRANCH  43  44
HETATM   44  N   UNL     1      10.115 -29.921  -0.215  1.00  0.00    -0.327 N 
HETATM   45  C   UNL     1      10.813 -28.920   0.348  1.00  0.00     0.145 A 
HETATM   46  N   UNL     1      11.428 -29.138   1.475  1.00  0.00    -0.292 N 
HETATM   47  C   UNL     1      10.852 -27.681  -0.375  1.00  0.00     0.146 A 
HETATM   48  C   UNL     1      12.075 -28.158   2.030  1.00  0.00     0.328 A 
ATOM     49  HN  UNL     1      11.401 -30.058   1.913  1.00  0.00     0.172 HD
HETATM   50  O   UNL     1      12.616 -28.316   3.083  1.00  0.00    -0.247 OA
HETATM   51  N   UNL     1      12.187 -26.939   1.419  1.00  0.00    -0.273 N 
HETATM   52  C   UNL     1      11.596 -26.674   0.206  1.00  0.00     0.280 A 
ATOM     53  HN  UNL     1      12.726 -26.205   1.877  1.00  0.00     0.173 HD
HETATM   54  O   UNL     1      11.722 -25.581  -0.313  1.00  0.00    -0.265 OA
HETATM   55  N   UNL     1      10.253 -27.460  -1.502  1.00  0.00    -0.347 N 
HETATM   56  C   UNL     1       9.473 -28.460  -2.005  1.00  0.00     0.060 A 
ATOM     57  HN  UNL     1      10.361 -26.574  -1.995  1.00  0.00     0.166 HD
HETATM   58  C   UNL     1       8.760 -28.223  -3.191  1.00  0.00     0.039 A 
HETATM   59  C   UNL     1       9.395 -29.720  -1.385  1.00  0.00     0.063 A 
HETATM   60  C   UNL     1       7.932 -29.176  -3.719  1.00  0.00    -0.054 A 
HETATM   61  C   UNL     1       7.845 -30.443  -3.095  1.00  0.00    -0.054 A 
HETATM   62  C   UNL     1       7.140 -28.891  -4.969  1.00  0.00     0.049 C 
HETATM   63  C   UNL     1       6.978 -31.521  -3.676  1.00  0.00     0.049 C 
HETATM   64  C   UNL     1       8.588 -30.705  -1.964  1.00  0.00     0.039 A 
ENDBRANCH  43  44
ENDBRANCH  40  43
ENDBRANCH  39  40
BRANCH  39  65
HETATM   65  O   UNL     1      10.238 -33.782   1.476  1.00  0.00    -0.390 OA
ATOM     66  HO  UNL     1       9.649 -33.530   0.775  1.00  0.00     0.210 HD
ENDBRANCH  39  65
ENDBRANCH  36  39
ENDBRANCH  35  36
ENDBRANCH   1  35
TORSDOF 18
ENDMDL
MODEL 14
REMARK VINA RESULT:   -11.038      4.558      7.712
REMARK INTER + INTRA:         -22.385
REMARK INTER:                 -20.254
REMARK INTRA:                  -2.132
REMARK UNBOUND:                -1.346
REMARK  18 active torsions:
REMARK  status: ('A' for Active; 'I' for Inactive)
REMARK    1  A    between atoms: P_1  and  O_4 
REMARK    2  A    between atoms: P_1  and  O_66 
REMARK    3  A    between atoms: O_4  and  C_5 
REMARK    4  A    between atoms: C_5  and  C_6 
REMARK    5  A    between atoms: C_8  and  O_9 
REMARK    6  A    between atoms: C_11  and  O_12 
REMARK    7  A    between atoms: C_14  and  N_15 
REMARK    8  A    between atoms: N_49  and  C_51 
REMARK    9  A    between atoms: C_51  and  C_52 
REMARK   10  A    between atoms: C_52  and  O_53 
REMARK   11  A    between atoms: C_52  and  C_55 
REMARK   12  A    between atoms: C_55  and  C_58 
REMARK   13  A    between atoms: C_55  and  O_56 
REMARK   14  A    between atoms: C_58  and  O_59 
REMARK   15  A    between atoms: C_58  and  C_61 
REMARK   16  A    between atoms: C_61  and  O_62 
REMARK   17  A    between atoms: O_62  and  P_63 
REMARK   18  A    between atoms: P_63  and  O_66 
ROOT
HETATM    1  O   UNL     1       5.752 -32.553   4.286  1.00  0.00    -0.287 OA
ENDROOT
BRANCH   1   2
HETATM    2  P   UNL     1       5.056 -32.683   2.886  1.00  0.00     0.417 P 
HETATM    3  O   UNL     1       5.681 -33.823   2.260  1.00  0.00    -0.624 OA
HETATM    4  O   UNL     1       3.614 -32.639   3.040  1.00  0.00    -0.624 OA
BRANCH   2   5
HETATM    5  O   UNL     1       5.487 -31.373   2.143  1.00  0.00    -0.180 OA
BRANCH   5   6
HETATM    6  P   UNL     1       5.358 -30.942   0.639  1.00  0.00     0.417 P 
HETATM    7  O   UNL     1       6.160 -31.815  -0.195  1.00  0.00    -0.624 OA
HETATM    8  O   UNL     1       5.711 -29.522   0.613  1.00  0.00    -0.624 OA
BRANCH   6   9
HETATM    9  O   UNL     1       3.830 -31.145   0.308  1.00  0.00    -0.287 OA
BRANCH   9  10
HETATM   10  C   UNL     1       3.417 -31.551  -0.996  1.00  0.00     0.216 C 
BRANCH  10  11
HETATM   11  C   UNL     1       3.460 -30.354  -1.909  1.00  0.00     0.180 C 
HETATM   12  C   UNL     1       2.109 -29.982  -2.532  1.00  0.00     0.182 C 
HETATM   13  C   UNL     1       2.263 -30.499  -3.974  1.00  0.00     0.198 C 
HETATM   14  C   UNL     1       3.750 -30.279  -4.221  1.00  0.00     0.262 C 
HETATM   15  O   UNL     1       4.381 -30.572  -2.997  1.00  0.00    -0.353 OA
BRANCH  12  16
HETATM   16  O   UNL     1       1.848 -28.599  -2.429  1.00  0.00    -0.390 OA
ATOM     17  HO  UNL     1       0.938 -28.379  -2.267  1.00  0.00     0.210 HD
ENDBRANCH  12  16
BRANCH  13  18
HETATM   18  O   UNL     1       1.473 -29.787  -4.878  1.00  0.00    -0.388 OA
ATOM     19  HO  UNL     1       0.559 -29.773  -4.622  1.00  0.00     0.210 HD
ENDBRANCH  13  18
BRANCH  14  20
HETATM   20  N   UNL     1       4.355 -31.097  -5.251  1.00  0.00    -0.297 N 
HETATM   21  C   UNL     1       4.357 -30.828  -6.590  1.00  0.00     0.142 A 
HETATM   22  N   UNL     1       3.741 -29.822  -7.209  1.00  0.00    -0.336 N 
HETATM   23  C   UNL     1       5.119 -31.805  -7.184  1.00  0.00     0.122 A 
HETATM   24  C   UNL     1       3.952 -29.848  -8.513  1.00  0.00     0.183 A 
ATOM     25  HN  UNL     1       3.174 -29.119  -6.735  1.00  0.00     0.168 HD
HETATM   26  N   UNL     1       4.653 -30.727  -9.221  1.00  0.00    -0.337 N 
HETATM   27  C   UNL     1       5.257 -31.747  -8.582  1.00  0.00     0.131 A 
ATOM     28  HN  UNL     1       4.733 -30.631 -10.233  1.00  0.00     0.168 HD
HETATM   29  N   UNL     1       5.986 -32.599  -9.284  1.00  0.00    -0.383 N 
ATOM     30  HN2 UNL     1       6.086 -32.556 -10.299  1.00  0.00     0.157 HD
ATOM     31  HN1 UNL     1       6.444 -33.371  -8.800  1.00  0.00     0.157 HD
HETATM   32  N   UNL     1       5.609 -32.670  -6.224  1.00  0.00    -0.346 N 
HETATM   33  C   UNL     1       5.145 -32.191  -5.096  1.00  0.00     0.188 A 
ATOM     34  HN  UNL     1       6.196 -33.492  -6.362  1.00  0.00     0.167 HD
ENDBRANCH  14  20
ENDBRANCH  10  11
ENDBRANCH   9  10
ENDBRANCH   6   9
ENDBRANCH   5   6
ENDBRANCH   2   5
ENDBRANCH   1   2
BRANCH   1  35
HETATM   35  C   UNL     1       5.203 -33.163   5.416  1.00  0.00     0.215 C 
BRANCH  35  36
HETATM   36  C   UNL     1       6.331 -33.806   6.194  1.00  0.00     0.173 C 
BRANCH  36  37
HETATM   37  O   UNL     1       5.881 -35.028   6.761  1.00  0.00    -0.391 OA
ATOM     38  HO  UNL     1       5.994 -35.002   7.704  1.00  0.00     0.210 HD
ENDBRANCH  36  37
BRANCH  36  39
HETATM   39  C   UNL     1       7.524 -34.036   5.279  1.00  0.00     0.179 C 
BRANCH  39  40
HETATM   40  C   UNL     1       7.687 -35.465   4.746  1.00  0.00     0.167 C 
BRANCH  40  41
HETATM   41  O   UNL     1       6.487 -35.959   4.226  1.00  0.00    -0.391 OA
ATOM     42  HO  UNL     1       6.178 -35.430   3.500  1.00  0.00     0.210 HD
ENDBRANCH  40  41
BRANCH  40  43
HETATM   43  C   UNL     1       8.771 -35.495   3.673  1.00  0.00     0.165 C 
BRANCH  43  44
HETATM   44  N   UNL     1       9.962 -36.200   4.156  1.00  0.00    -0.327 N 
HETATM   45  C   UNL     1       9.801 -37.459   4.598  1.00  0.00     0.145 A 
HETATM   46  N   UNL     1       8.617 -37.997   4.547  1.00  0.00    -0.292 N 
HETATM   47  C   UNL     1      10.981 -38.128   5.066  1.00  0.00     0.146 A 
HETATM   48  C   UNL     1       8.461 -39.203   5.004  1.00  0.00     0.328 A 
ATOM     49  HN  UNL     1       7.828 -37.483   4.156  1.00  0.00     0.172 HD
HETATM   50  O   UNL     1       7.379 -39.709   5.008  1.00  0.00    -0.247 OA
HETATM   51  N   UNL     1       9.522 -39.936   5.461  1.00  0.00    -0.273 N 
HETATM   52  C   UNL     1      10.800 -39.429   5.492  1.00  0.00     0.280 A 
ATOM     53  HN  UNL     1       9.360 -40.888   5.789  1.00  0.00     0.173 HD
HETATM   54  O   UNL     1      11.722 -40.111   5.897  1.00  0.00    -0.265 OA
HETATM   55  N   UNL     1      12.164 -37.603   5.109  1.00  0.00    -0.347 N 
HETATM   56  C   UNL     1      12.284 -36.294   4.745  1.00  0.00     0.060 A 
ATOM     57  HN  UNL     1      12.975 -38.147   5.405  1.00  0.00     0.166 HD
HETATM   58  C   UNL     1      13.544 -35.682   4.847  1.00  0.00     0.039 A 
HETATM   59  C   UNL     1      11.192 -35.563   4.245  1.00  0.00     0.063 A 
HETATM   60  C   UNL     1      13.713 -34.362   4.532  1.00  0.00    -0.054 A 
HETATM   61  C   UNL     1      12.617 -33.619   4.035  1.00  0.00    -0.054 A 
HETATM   62  C   UNL     1      15.063 -33.707   4.687  1.00  0.00     0.049 C 
HETATM   63  C   UNL     1      12.784 -32.180   3.641  1.00  0.00     0.049 C 
HETATM   64  C   UNL     1      11.391 -34.229   3.875  1.00  0.00     0.039 A 
ENDBRANCH  43  44
ENDBRANCH  40  43
ENDBRANCH  39  40
BRANCH  39  65
HETATM   65  O   UNL     1       8.660 -33.611   5.973  1.00  0.00    -0.390 OA
ATOM     66  HO  UNL     1       9.079 -34.329   6.433  1.00  0.00     0.210 HD
ENDBRANCH  39  65
ENDBRANCH  36  39
ENDBRANCH  35  36
ENDBRANCH   1  35
TORSDOF 18
ENDMDL
MODEL 15
REMARK VINA RESULT:   -11.018      6.248     13.712
REMARK INTER + INTRA:         -22.347
REMARK INTER:                 -19.251
REMARK INTRA:                  -3.096
REMARK UNBOUND:                -1.346
REMARK  18 active torsions:
REMARK  status: ('A' for Active; 'I' for Inactive)
REMARK    1  A    between atoms: P_1  and  O_4 
REMARK    2  A    between atoms: P_1  and  O_66 
REMARK    3  A    between atoms: O_4  and  C_5 
REMARK    4  A    between atoms: C_5  and  C_6 
REMARK    5  A    between atoms: C_8  and  O_9 
REMARK    6  A    between atoms: C_11  and  O_12 
REMARK    7  A    between atoms: C_14  and  N_15 
REMARK    8  A    between atoms: N_49  and  C_51 
REMARK    9  A    between atoms: C_51  and  C_52 
REMARK   10  A    between atoms: C_52  and  O_53 
REMARK   11  A    between atoms: C_52  and  C_55 
REMARK   12  A    between atoms: C_55  and  C_58 
REMARK   13  A    between atoms: C_55  and  O_56 
REMARK   14  A    between atoms: C_58  and  O_59 
REMARK   15  A    between atoms: C_58  and  C_61 
REMARK   16  A    between atoms: C_61  and  O_62 
REMARK   17  A    between atoms: O_62  and  P_63 
REMARK   18  A    between atoms: P_63  and  O_66 
ROOT
HETATM    1  O   UNL     1       6.272 -33.724   2.411  1.00  0.00    -0.287 OA
ENDROOT
BRANCH   1   2
HETATM    2  P   UNL     1       7.006 -34.658   3.436  1.00  0.00     0.417 P 
HETATM    3  O   UNL     1       7.517 -35.753   2.648  1.00  0.00    -0.624 OA
HETATM    4  O   UNL     1       7.905 -33.878   4.266  1.00  0.00    -0.624 OA
BRANCH   2   5
HETATM    5  O   UNL     1       5.846 -35.168   4.357  1.00  0.00    -0.180 OA
BRANCH   5   6
HETATM    6  P   UNL     1       5.870 -35.920   5.734  1.00  0.00     0.417 P 
HETATM    7  O   UNL     1       4.874 -36.974   5.739  1.00  0.00    -0.624 OA
HETATM    8  O   UNL     1       5.707 -34.876   6.747  1.00  0.00    -0.624 OA
BRANCH   6   9
HETATM    9  O   UNL     1       7.313 -36.551   5.808  1.00  0.00    -0.287 OA
BRANCH   9  10
HETATM   10  C   UNL     1       7.485 -37.941   6.082  1.00  0.00     0.216 C 
BRANCH  10  11
HETATM   11  C   UNL     1       8.253 -38.564   4.947  1.00  0.00     0.180 C 
HETATM   12  C   UNL     1       8.964 -39.875   5.306  1.00  0.00     0.182 C 
HETATM   13  C   UNL     1      10.431 -39.425   5.431  1.00  0.00     0.198 C 
HETATM   14  C   UNL     1      10.503 -38.318   4.387  1.00  0.00     0.262 C 
HETATM   15  O   UNL     1       9.261 -37.659   4.453  1.00  0.00    -0.353 OA
BRANCH  12  16
HETATM   16  O   UNL     1       8.738 -40.875   4.337  1.00  0.00    -0.390 OA
ATOM     17  HO  UNL     1       8.037 -40.683   3.725  1.00  0.00     0.210 HD
ENDBRANCH  12  16
BRANCH  13  18
HETATM   18  O   UNL     1      11.327 -40.460   5.159  1.00  0.00    -0.388 OA
ATOM     19  HO  UNL     1      11.956 -40.222   4.489  1.00  0.00     0.210 HD
ENDBRANCH  13  18
BRANCH  14  20
HETATM   20  N   UNL     1      11.550 -37.336   4.567  1.00  0.00    -0.297 N 
HETATM   21  C   UNL     1      11.578 -36.084   4.021  1.00  0.00     0.142 A 
HETATM   22  N   UNL     1      10.706 -35.562   3.161  1.00  0.00    -0.336 N 
HETATM   23  C   UNL     1      12.694 -35.462   4.528  1.00  0.00     0.122 A 
HETATM   24  C   UNL     1      11.023 -34.322   2.834  1.00  0.00     0.183 A 
ATOM     25  HN  UNL     1       9.892 -36.059   2.799  1.00  0.00     0.168 HD
HETATM   26  N   UNL     1      12.065 -33.601   3.236  1.00  0.00    -0.337 N 
HETATM   27  C   UNL     1      12.947 -34.149   4.093  1.00  0.00     0.131 A 
ATOM     28  HN  UNL     1      12.195 -32.647   2.900  1.00  0.00     0.168 HD
HETATM   29  N   UNL     1      13.962 -33.416   4.520  1.00  0.00    -0.383 N 
ATOM     30  HN2 UNL     1      14.146 -32.463   4.204  1.00  0.00     0.157 HD
ATOM     31  HN1 UNL     1      14.630 -33.831   5.169  1.00  0.00     0.157 HD
HETATM   32  N   UNL     1      13.350 -36.308   5.401  1.00  0.00    -0.346 N 
HETATM   33  C   UNL     1      12.618 -37.394   5.405  1.00  0.00     0.188 A 
ATOM     34  HN  UNL     1      14.208 -36.127   5.923  1.00  0.00     0.167 HD
ENDBRANCH  14  20
ENDBRANCH  10  11
ENDBRANCH   9  10
ENDBRANCH   6   9
ENDBRANCH   5   6
ENDBRANCH   2   5
ENDBRANCH   1   2
BRANCH   1  35
HETATM   35  C   UNL     1       6.170 -32.350   2.643  1.00  0.00     0.215 C 
BRANCH  35  36
HETATM   36  C   UNL     1       6.416 -31.636   1.332  1.00  0.00     0.173 C 
BRANCH  36  37
HETATM   37  O   UNL     1       5.606 -32.212   0.317  1.00  0.00    -0.391 OA
ATOM     38  HO  UNL     1       5.238 -31.524  -0.225  1.00  0.00     0.210 HD
ENDBRANCH  36  37
BRANCH  36  39
HETATM   39  C   UNL     1       6.123 -30.152   1.489  1.00  0.00     0.179 C 
BRANCH  39  40
HETATM   40  C   UNL     1       7.195 -29.201   0.942  1.00  0.00     0.167 C 
BRANCH  40  41
HETATM   41  O   UNL     1       7.833 -28.501   1.971  1.00  0.00    -0.391 OA
ATOM     42  HO  UNL     1       8.776 -28.501   1.859  1.00  0.00     0.210 HD
ENDBRANCH  40  41
BRANCH  40  43
HETATM   43  C   UNL     1       8.221 -29.989   0.133  1.00  0.00     0.165 C 
BRANCH  43  44
HETATM   44  N   UNL     1       8.449 -29.362  -1.171  1.00  0.00    -0.327 N 
HETATM   45  C   UNL     1       7.741 -29.825  -2.215  1.00  0.00     0.145 A 
HETATM   46  N   UNL     1       6.872 -30.774  -2.014  1.00  0.00    -0.292 N 
HETATM   47  C   UNL     1       7.981 -29.196  -3.482  1.00  0.00     0.146 A 
HETATM   48  C   UNL     1       6.212 -31.240  -3.031  1.00  0.00     0.328 A 
ATOM     49  HN  UNL     1       6.713 -31.145  -1.077  1.00  0.00     0.172 HD
HETATM   50  O   UNL     1       5.437 -32.137  -2.885  1.00  0.00    -0.247 OA
HETATM   51  N   UNL     1       6.355 -30.702  -4.281  1.00  0.00    -0.273 N 
HETATM   52  C   UNL     1       7.225 -29.668  -4.536  1.00  0.00     0.280 A 
ATOM     53  HN  UNL     1       5.800 -31.081  -5.048  1.00  0.00     0.173 HD
HETATM   54  O   UNL     1       7.322 -29.208  -5.658  1.00  0.00    -0.265 OA
HETATM   55  N   UNL     1       8.835 -28.244  -3.687  1.00  0.00    -0.347 N 
HETATM   56  C   UNL     1       9.610 -27.857  -2.633  1.00  0.00     0.060 A 
ATOM     57  HN  UNL     1       8.925 -27.801  -4.601  1.00  0.00     0.166 HD
HETATM   58  C   UNL     1      10.590 -26.873  -2.846  1.00  0.00     0.039 A 
HETATM   59  C   UNL     1       9.428 -28.393  -1.345  1.00  0.00     0.063 A 
HETATM   60  C   UNL     1      11.420 -26.476  -1.834  1.00  0.00    -0.054 A 
HETATM   61  C   UNL     1      11.246 -27.017  -0.539  1.00  0.00    -0.054 A 
HETATM   62  C   UNL     1      12.495 -25.450  -2.088  1.00  0.00     0.049 C 
HETATM   63  C   UNL     1      12.115 -26.568   0.600  1.00  0.00     0.049 C 
HETATM   64  C   UNL     1      10.247 -27.939  -0.307  1.00  0.00     0.039 A 
ENDBRANCH  43  44
ENDBRANCH  40  43
ENDBRANCH  39  40
BRANCH  39  65
HETATM   65  O   UNL     1       5.875 -29.925   2.845  1.00  0.00    -0.390 OA
ATOM     66  HO  UNL     1       6.649 -30.077   3.373  1.00  0.00     0.210 HD
ENDBRANCH  39  65
ENDBRANCH  36  39
ENDBRANCH  35  36
ENDBRANCH   1  35
TORSDOF 18
ENDMDL
MODEL 16
REMARK VINA RESULT:   -11.005      7.376     14.337
REMARK INTER + INTRA:         -22.322
REMARK INTER:                 -18.601
REMARK INTRA:                  -3.721
REMARK UNBOUND:                -1.346
REMARK  18 active torsions:
REMARK  status: ('A' for Active; 'I' for Inactive)
REMARK    1  A    between atoms: P_1  and  O_4 
REMARK    2  A    between atoms: P_1  and  O_66 
REMARK    3  A    between atoms: O_4  and  C_5 
REMARK    4  A    between atoms: C_5  and  C_6 
REMARK    5  A    between atoms: C_8  and  O_9 
REMARK    6  A    between atoms: C_11  and  O_12 
REMARK    7  A    between atoms: C_14  and  N_15 
REMARK    8  A    between atoms: N_49  and  C_51 
REMARK    9  A    between atoms: C_51  and  C_52 
REMARK   10  A    between atoms: C_52  and  O_53 
REMARK   11  A    between atoms: C_52  and  C_55 
REMARK   12  A    between atoms: C_55  and  C_58 
REMARK   13  A    between atoms: C_55  and  O_56 
REMARK   14  A    between atoms: C_58  and  O_59 
REMARK   15  A    between atoms: C_58  and  C_61 
REMARK   16  A    between atoms: C_61  and  O_62 
REMARK   17  A    between atoms: O_62  and  P_63 
REMARK   18  A    between atoms: P_63  and  O_66 
ROOT
HETATM    1  O   UNL     1       8.914 -34.373   3.359  1.00  0.00    -0.287 OA
ENDROOT
BRANCH   1   2
HETATM    2  P   UNL     1       7.375 -34.074   3.303  1.00  0.00     0.417 P 
HETATM    3  O   UNL     1       7.262 -32.807   2.625  1.00  0.00    -0.624 OA
HETATM    4  O   UNL     1       6.660 -35.233   2.803  1.00  0.00    -0.624 OA
BRANCH   2   5
HETATM    5  O   UNL     1       6.984 -33.901   4.810  1.00  0.00    -0.180 OA
BRANCH   5   6
HETATM    6  P   UNL     1       6.568 -34.949   5.902  1.00  0.00     0.417 P 
HETATM    7  O   UNL     1       5.238 -35.452   5.623  1.00  0.00    -0.624 OA
HETATM    8  O   UNL     1       6.742 -34.262   7.183  1.00  0.00    -0.624 OA
BRANCH   6   9
HETATM    9  O   UNL     1       7.621 -36.112   5.744  1.00  0.00    -0.287 OA
BRANCH   9  10
HETATM   10  C   UNL     1       7.194 -37.469   5.640  1.00  0.00     0.216 C 
BRANCH  10  11
HETATM   11  C   UNL     1       8.143 -38.203   4.730  1.00  0.00     0.180 C 
HETATM   12  C   UNL     1       8.798 -39.439   5.359  1.00  0.00     0.182 C 
HETATM   13  C   UNL     1      10.220 -38.934   5.662  1.00  0.00     0.198 C 
HETATM   14  C   UNL     1      10.452 -37.962   4.512  1.00  0.00     0.262 C 
HETATM   15  O   UNL     1       9.210 -37.336   4.295  1.00  0.00    -0.353 OA
BRANCH  12  16
HETATM   16  O   UNL     1       8.742 -40.556   4.500  1.00  0.00    -0.390 OA
ATOM     17  HO  UNL     1       9.352 -41.252   4.714  1.00  0.00     0.210 HD
ENDBRANCH  12  16
BRANCH  13  18
HETATM   18  O   UNL     1      11.158 -39.968   5.668  1.00  0.00    -0.388 OA
ATOM     19  HO  UNL     1      11.768 -39.904   4.943  1.00  0.00     0.210 HD
ENDBRANCH  13  18
BRANCH  14  20
HETATM   20  N   UNL     1      11.446 -36.934   4.734  1.00  0.00    -0.297 N 
HETATM   21  C   UNL     1      11.363 -35.921   5.646  1.00  0.00     0.142 A 
HETATM   22  N   UNL     1      10.330 -35.634   6.437  1.00  0.00    -0.336 N 
HETATM   23  C   UNL     1      12.557 -35.244   5.588  1.00  0.00     0.122 A 
HETATM   24  C   UNL     1      10.580 -34.590   7.208  1.00  0.00     0.183 A 
ATOM     25  HN  UNL     1       9.454 -36.155   6.446  1.00  0.00     0.168 HD
HETATM   26  N   UNL     1      11.676 -33.839   7.255  1.00  0.00    -0.337 N 
HETATM   27  C   UNL     1      12.705 -34.133   6.438  1.00  0.00     0.131 A 
ATOM     28  HN  UNL     1      11.737 -33.052   7.901  1.00  0.00     0.168 HD
HETATM   29  N   UNL     1      13.808 -33.407   6.514  1.00  0.00    -0.383 N 
ATOM     30  HN2 UNL     1      13.915 -32.601   7.131  1.00  0.00     0.157 HD
ATOM     31  HN1 UNL     1      14.587 -33.630   5.895  1.00  0.00     0.157 HD
HETATM   32  N   UNL     1      13.392 -35.838   4.662  1.00  0.00    -0.346 N 
HETATM   33  C   UNL     1      12.694 -36.847   4.203  1.00  0.00     0.188 A 
ATOM     34  HN  UNL     1      14.336 -35.556   4.396  1.00  0.00     0.167 HD
ENDBRANCH  14  20
ENDBRANCH  10  11
ENDBRANCH   9  10
ENDBRANCH   6   9
ENDBRANCH   5   6
ENDBRANCH   2   5
ENDBRANCH   1   2
BRANCH   1  35
HETATM   35  C   UNL     1       9.832 -33.347   3.595  1.00  0.00     0.215 C 
BRANCH  35  36
HETATM   36  C   UNL     1      10.996 -33.534   2.645  1.00  0.00     0.173 C 
BRANCH  36  37
HETATM   37  O   UNL     1      10.924 -34.824   2.055  1.00  0.00    -0.391 OA
ATOM     38  HO  UNL     1      10.920 -35.486   2.737  1.00  0.00     0.210 HD
ENDBRANCH  36  37
BRANCH  36  39
HETATM   39  C   UNL     1      10.976 -32.446   1.583  1.00  0.00     0.179 C 
BRANCH  39  40
HETATM   40  C   UNL     1      10.115 -32.738   0.348  1.00  0.00     0.167 C 
BRANCH  40  41
HETATM   41  O   UNL     1       9.389 -33.924   0.498  1.00  0.00    -0.391 OA
ATOM     42  HO  UNL     1       9.956 -34.686   0.462  1.00  0.00     0.210 HD
ENDBRANCH  40  41
BRANCH  40  43
HETATM   43  C   UNL     1       9.162 -31.574   0.094  1.00  0.00     0.165 C 
BRANCH  43  44
HETATM   44  N   UNL     1       9.535 -30.853  -1.125  1.00  0.00    -0.327 N 
HETATM   45  C   UNL     1       9.429 -31.510  -2.292  1.00  0.00     0.145 A 
HETATM   46  N   UNL     1       8.974 -32.731  -2.288  1.00  0.00    -0.292 N 
HETATM   47  C   UNL     1       9.800 -30.784  -3.473  1.00  0.00     0.146 A 
HETATM   48  C   UNL     1       8.902 -33.372  -3.414  1.00  0.00     0.328 A 
ATOM     49  HN  UNL     1       8.680 -33.173  -1.417  1.00  0.00     0.172 HD
HETATM   50  O   UNL     1       8.526 -34.506  -3.437  1.00  0.00    -0.247 OA
HETATM   51  N   UNL     1       9.218 -32.769  -4.601  1.00  0.00    -0.273 N 
HETATM   52  C   UNL     1       9.658 -31.468  -4.664  1.00  0.00     0.280 A 
ATOM     53  HN  UNL     1       9.124 -33.301  -5.466  1.00  0.00     0.173 HD
HETATM   54  O   UNL     1       9.923 -30.960  -5.737  1.00  0.00    -0.265 OA
HETATM   55  N   UNL     1      10.242 -29.567  -3.487  1.00  0.00    -0.347 N 
HETATM   56  C   UNL     1      10.432 -28.954  -2.283  1.00  0.00     0.060 A 
ATOM     57  HN  UNL     1      10.441 -29.085  -4.363  1.00  0.00     0.166 HD
HETATM   58  C   UNL     1      10.974 -27.658  -2.268  1.00  0.00     0.039 A 
HETATM   59  C   UNL     1      10.070 -29.572  -1.073  1.00  0.00     0.063 A 
HETATM   60  C   UNL     1      11.221 -27.012  -1.088  1.00  0.00    -0.054 A 
HETATM   61  C   UNL     1      10.866 -27.633   0.133  1.00  0.00    -0.054 A 
HETATM   62  C   UNL     1      11.843 -25.638  -1.086  1.00  0.00     0.049 C 
HETATM   63  C   UNL     1      11.086 -26.929   1.440  1.00  0.00     0.049 C 
HETATM   64  C   UNL     1      10.277 -28.879   0.124  1.00  0.00     0.039 A 
ENDBRANCH  43  44
ENDBRANCH  40  43
ENDBRANCH  39  40
BRANCH  39  65
HETATM   65  O   UNL     1      12.305 -32.188   1.237  1.00  0.00    -0.390 OA
ATOM     66  HO  UNL     1      12.381 -31.883   0.340  1.00  0.00     0.210 HD
ENDBRANCH  39  65
ENDBRANCH  36  39
ENDBRANCH  35  36
ENDBRANCH   1  35
TORSDOF 18
ENDMDL
MODEL 17
REMARK VINA RESULT:   -10.983      6.871      9.430
REMARK INTER + INTRA:         -22.281
REMARK INTER:                 -18.078
REMARK INTRA:                  -4.204
REMARK UNBOUND:                -1.346
REMARK  18 active torsions:
REMARK  status: ('A' for Active; 'I' for Inactive)
REMARK    1  A    between atoms: P_1  and  O_4 
REMARK    2  A    between atoms: P_1  and  O_66 
REMARK    3  A    between atoms: O_4  and  C_5 
REMARK    4  A    between atoms: C_5  and  C_6 
REMARK    5  A    between atoms: C_8  and  O_9 
REMARK    6  A    between atoms: C_11  and  O_12 
REMARK    7  A    between atoms: C_14  and  N_15 
REMARK    8  A    between atoms: N_49  and  C_51 
REMARK    9  A    between atoms: C_51  and  C_52 
REMARK   10  A    between atoms: C_52  and  O_53 
REMARK   11  A    between atoms: C_52  and  C_55 
REMARK   12  A    between atoms: C_55  and  C_58 
REMARK   13  A    between atoms: C_55  and  O_56 
REMARK   14  A    between atoms: C_58  and  O_59 
REMARK   15  A    between atoms: C_58  and  C_61 
REMARK   16  A    between atoms: C_61  and  O_62 
REMARK   17  A    between atoms: O_62  and  P_63 
REMARK   18  A    between atoms: P_63  and  O_66 
ROOT
HETATM    1  O   UNL     1       5.231 -32.579   4.030  1.00  0.00    -0.287 OA
ENDROOT
BRANCH   1   2
HETATM    2  P   UNL     1       5.143 -32.241   2.500  1.00  0.00     0.417 P 
HETATM    3  O   UNL     1       6.072 -33.141   1.862  1.00  0.00    -0.624 OA
HETATM    4  O   UNL     1       3.757 -32.206   2.076  1.00  0.00    -0.624 OA
BRANCH   2   5
HETATM    5  O   UNL     1       5.692 -30.776   2.421  1.00  0.00    -0.180 OA
BRANCH   5   6
HETATM    6  P   UNL     1       6.039 -29.862   1.192  1.00  0.00     0.417 P 
HETATM    7  O   UNL     1       6.290 -28.507   1.639  1.00  0.00    -0.624 OA
HETATM    8  O   UNL     1       4.929 -30.037   0.255  1.00  0.00    -0.624 OA
BRANCH   6   9
HETATM    9  O   UNL     1       7.366 -30.484   0.609  1.00  0.00    -0.287 OA
BRANCH   9  10
HETATM   10  C   UNL     1       8.603 -30.338   1.305  1.00  0.00     0.216 C 
BRANCH  10  11
HETATM   11  C   UNL     1       9.313 -31.666   1.308  1.00  0.00     0.180 C 
HETATM   12  C   UNL     1      10.826 -31.578   1.075  1.00  0.00     0.182 C 
HETATM   13  C   UNL     1      10.958 -32.040  -0.388  1.00  0.00     0.198 C 
HETATM   14  C   UNL     1       9.830 -33.059  -0.489  1.00  0.00     0.262 C 
HETATM   15  O   UNL     1       8.779 -32.534   0.287  1.00  0.00    -0.353 OA
BRANCH  12  16
HETATM   16  O   UNL     1      11.546 -32.358   2.004  1.00  0.00    -0.390 OA
ATOM     17  HO  UNL     1      12.478 -32.178   2.035  1.00  0.00     0.210 HD
ENDBRANCH  12  16
BRANCH  13  18
HETATM   18  O   UNL     1      12.203 -32.612  -0.651  1.00  0.00    -0.388 OA
ATOM     19  HO  UNL     1      12.729 -32.076  -1.233  1.00  0.00     0.210 HD
ENDBRANCH  13  18
BRANCH  14  20
HETATM   20  N   UNL     1       9.324 -33.323  -1.820  1.00  0.00    -0.297 N 
HETATM   21  C   UNL     1       8.480 -32.519  -2.531  1.00  0.00     0.142 A 
HETATM   22  N   UNL     1       7.897 -31.396  -2.113  1.00  0.00    -0.336 N 
HETATM   23  C   UNL     1       8.339 -33.098  -3.769  1.00  0.00     0.122 A 
HETATM   24  C   UNL     1       7.142 -30.858  -3.054  1.00  0.00     0.183 A 
ATOM     25  HN  UNL     1       8.018 -31.001  -1.181  1.00  0.00     0.168 HD
HETATM   26  N   UNL     1       6.908 -31.305  -4.284  1.00  0.00    -0.337 N 
HETATM   27  C   UNL     1       7.492 -32.450  -4.685  1.00  0.00     0.131 A 
ATOM     28  HN  UNL     1       6.295 -30.789  -4.915  1.00  0.00     0.168 HD
HETATM   29  N   UNL     1       7.287 -32.872  -5.922  1.00  0.00    -0.383 N 
ATOM     30  HN2 UNL     1       6.672 -32.402  -6.587  1.00  0.00     0.157 HD
ATOM     31  HN1 UNL     1       7.729 -33.740  -6.226  1.00  0.00     0.157 HD
HETATM   32  N   UNL     1       9.105 -34.245  -3.843  1.00  0.00    -0.346 N 
HETATM   33  C   UNL     1       9.685 -34.319  -2.670  1.00  0.00     0.188 A 
ATOM     34  HN  UNL     1       9.197 -34.887  -4.630  1.00  0.00     0.167 HD
ENDBRANCH  14  20
ENDBRANCH  10  11
ENDBRANCH   9  10
ENDBRANCH   6   9
ENDBRANCH   5   6
ENDBRANCH   2   5
ENDBRANCH   1   2
BRANCH   1  35
HETATM   35  C   UNL     1       4.456 -33.602   4.580  1.00  0.00     0.215 C 
BRANCH  35  36
HETATM   36  C   UNL     1       5.342 -34.417   5.498  1.00  0.00     0.173 C 
BRANCH  36  37
HETATM   37  O   UNL     1       4.547 -35.039   6.498  1.00  0.00    -0.391 OA
ATOM     38  HO  UNL     1       3.630 -34.982   6.256  1.00  0.00     0.210 HD
ENDBRANCH  36  37
BRANCH  36  39
HETATM   39  C   UNL     1       6.111 -35.450   4.690  1.00  0.00     0.179 C 
BRANCH  39  40
HETATM   40  C   UNL     1       7.610 -35.175   4.515  1.00  0.00     0.167 C 
BRANCH  40  41
HETATM   41  O   UNL     1       7.844 -33.864   4.091  1.00  0.00    -0.391 OA
ATOM     42  HO  UNL     1       8.186 -33.840   3.205  1.00  0.00     0.210 HD
ENDBRANCH  40  41
BRANCH  40  43
HETATM   43  C   UNL     1       8.340 -35.436   5.829  1.00  0.00     0.165 C 
BRANCH  43  44
HETATM   44  N   UNL     1       9.531 -36.260   5.609  1.00  0.00    -0.327 N 
HETATM   45  C   UNL     1       9.379 -37.595   5.657  1.00  0.00     0.145 A 
HETATM   46  N   UNL     1       8.191 -38.086   5.862  1.00  0.00    -0.292 N 
HETATM   47  C   UNL     1      10.559 -38.382   5.438  1.00  0.00     0.146 A 
HETATM   48  C   UNL     1       8.055 -39.375   5.939  1.00  0.00     0.328 A 
ATOM     49  HN  UNL     1       7.383 -37.471   5.960  1.00  0.00     0.172 HD
HETATM   50  O   UNL     1       6.984 -39.854   6.166  1.00  0.00    -0.247 OA
HETATM   51  N   UNL     1       9.113 -40.218   5.732  1.00  0.00    -0.273 N 
HETATM   52  C   UNL     1      10.378 -39.750   5.466  1.00  0.00     0.280 A 
ATOM     53  HN  UNL     1       8.957 -41.225   5.777  1.00  0.00     0.173 HD
HETATM   54  O   UNL     1      11.294 -40.528   5.279  1.00  0.00    -0.265 OA
HETATM   55  N   UNL     1      11.742 -37.901   5.222  1.00  0.00    -0.347 N 
HETATM   56  C   UNL     1      11.888 -36.546   5.273  1.00  0.00     0.060 A 
ATOM     57  HN  UNL     1      12.534 -38.511   5.022  1.00  0.00     0.166 HD
HETATM   58  C   UNL     1      13.173 -36.002   5.108  1.00  0.00     0.039 A 
HETATM   59  C   UNL     1      10.787 -35.689   5.451  1.00  0.00     0.063 A 
HETATM   60  C   UNL     1      13.382 -34.653   5.188  1.00  0.00    -0.054 A 
HETATM   61  C   UNL     1      12.279 -33.787   5.375  1.00  0.00    -0.054 A 
HETATM   62  C   UNL     1      14.773 -34.087   5.053  1.00  0.00     0.049 C 
HETATM   63  C   UNL     1      12.475 -32.300   5.424  1.00  0.00     0.049 C 
HETATM   64  C   UNL     1      11.007 -34.309   5.477  1.00  0.00     0.039 A 
ENDBRANCH  43  44
ENDBRANCH  40  43
ENDBRANCH  39  40
BRANCH  39  65
HETATM   65  O   UNL     1       5.462 -35.573   3.459  1.00  0.00    -0.390 OA
ATOM     66  HO  UNL     1       4.915 -34.819   3.274  1.00  0.00     0.210 HD
ENDBRANCH  39  65
ENDBRANCH  36  39
ENDBRANCH  35  36
ENDBRANCH   1  35
TORSDOF 18
ENDMDL
MODEL 18
REMARK VINA RESULT:   -10.940      6.222     13.967
REMARK INTER + INTRA:         -22.200
REMARK INTER:                 -18.283
REMARK INTRA:                  -3.917
REMARK UNBOUND:                -1.346
REMARK  18 active torsions:
REMARK  status: ('A' for Active; 'I' for Inactive)
REMARK    1  A    between atoms: P_1  and  O_4 
REMARK    2  A    between atoms: P_1  and  O_66 
REMARK    3  A    between atoms: O_4  and  C_5 
REMARK    4  A    between atoms: C_5  and  C_6 
REMARK    5  A    between atoms: C_8  and  O_9 
REMARK    6  A    between atoms: C_11  and  O_12 
REMARK    7  A    between atoms: C_14  and  N_15 
REMARK    8  A    between atoms: N_49  and  C_51 
REMARK    9  A    between atoms: C_51  and  C_52 
REMARK   10  A    between atoms: C_52  and  O_53 
REMARK   11  A    between atoms: C_52  and  C_55 
REMARK   12  A    between atoms: C_55  and  C_58 
REMARK   13  A    between atoms: C_55  and  O_56 
REMARK   14  A    between atoms: C_58  and  O_59 
REMARK   15  A    between atoms: C_58  and  C_61 
REMARK   16  A    between atoms: C_61  and  O_62 
REMARK   17  A    between atoms: O_62  and  P_63 
REMARK   18  A    between atoms: P_63  and  O_66 
ROOT
HETATM    1  O   UNL     1      11.825 -32.196   2.916  1.00  0.00    -0.287 OA
ENDROOT
BRANCH   1   2
HETATM    2  P   UNL     1      12.504 -33.410   3.642  1.00  0.00     0.417 P 
HETATM    3  O   UNL     1      11.972 -34.582   2.991  1.00  0.00    -0.624 OA
HETATM    4  O   UNL     1      13.938 -33.208   3.717  1.00  0.00    -0.624 OA
BRANCH   2   5
HETATM    5  O   UNL     1      11.942 -33.319   5.102  1.00  0.00    -0.180 OA
BRANCH   5   6
HETATM    6  P   UNL     1      12.020 -34.320   6.308  1.00  0.00     0.417 P 
HETATM    7  O   UNL     1      11.724 -33.627   7.546  1.00  0.00    -0.624 OA
HETATM    8  O   UNL     1      13.345 -34.935   6.215  1.00  0.00    -0.624 OA
BRANCH   6   9
HETATM    9  O   UNL     1      10.890 -35.378   6.007  1.00  0.00    -0.287 OA
BRANCH   9  10
HETATM   10  C   UNL     1      11.180 -36.775   6.022  1.00  0.00     0.216 C 
BRANCH  10  11
HETATM   11  C   UNL     1       9.977 -37.510   6.549  1.00  0.00     0.180 C 
HETATM   12  C   UNL     1       9.595 -38.761   5.747  1.00  0.00     0.182 C 
HETATM   13  C   UNL     1       8.367 -38.276   4.955  1.00  0.00     0.198 C 
HETATM   14  C   UNL     1       7.738 -37.294   5.935  1.00  0.00     0.262 C 
HETATM   15  O   UNL     1       8.818 -36.651   6.567  1.00  0.00    -0.353 OA
BRANCH  12  16
HETATM   16  O   UNL     1       9.352 -39.868   6.587  1.00  0.00    -0.390 OA
ATOM     17  HO  UNL     1       8.504 -40.278   6.467  1.00  0.00     0.210 HD
ENDBRANCH  12  16
BRANCH  13  18
HETATM   18  O   UNL     1       7.500 -39.321   4.633  1.00  0.00    -0.388 OA
ATOM     19  HO  UNL     1       6.847 -39.467   5.307  1.00  0.00     0.210 HD
ENDBRANCH  13  18
BRANCH  14  20
HETATM   20  N   UNL     1       6.878 -36.281   5.361  1.00  0.00    -0.297 N 
HETATM   21  C   UNL     1       7.276 -35.256   4.552  1.00  0.00     0.142 A 
HETATM   22  N   UNL     1       8.524 -34.940   4.208  1.00  0.00    -0.336 N 
HETATM   23  C   UNL     1       6.134 -34.600   4.161  1.00  0.00     0.122 A 
HETATM   24  C   UNL     1       8.561 -33.892   3.405  1.00  0.00     0.183 A 
ATOM     25  HN  UNL     1       9.350 -35.447   4.526  1.00  0.00     0.168 HD
HETATM   26  N   UNL     1       7.547 -33.159   2.955  1.00  0.00    -0.337 N 
HETATM   27  C   UNL     1       6.293 -33.481   3.324  1.00  0.00     0.131 A 
ATOM     28  HN  UNL     1       7.716 -32.365   2.337  1.00  0.00     0.168 HD
HETATM   29  N   UNL     1       5.284 -32.773   2.843  1.00  0.00    -0.383 N 
ATOM     30  HN2 UNL     1       5.400 -31.962   2.236  1.00  0.00     0.157 HD
ATOM     31  HN1 UNL     1       4.334 -33.017   3.124  1.00  0.00     0.157 HD
HETATM   32  N   UNL     1       5.025 -35.220   4.704  1.00  0.00    -0.346 N 
HETATM   33  C   UNL     1       5.521 -36.223   5.386  1.00  0.00     0.188 A 
ATOM     34  HN  UNL     1       4.045 -34.957   4.597  1.00  0.00     0.167 HD
ENDBRANCH  14  20
ENDBRANCH  10  11
ENDBRANCH   9  10
ENDBRANCH   6   9
ENDBRANCH   5   6
ENDBRANCH   2   5
ENDBRANCH   1   2
BRANCH   1  35
HETATM   35  C   UNL     1      12.407 -31.627   1.781  1.00  0.00     0.215 C 
BRANCH  35  36
HETATM   36  C   UNL     1      11.464 -31.843   0.616  1.00  0.00     0.173 C 
BRANCH  36  37
HETATM   37  O   UNL     1      11.539 -33.196   0.188  1.00  0.00    -0.391 OA
ATOM     38  HO  UNL     1      11.899 -33.730   0.886  1.00  0.00     0.210 HD
ENDBRANCH  36  37
BRANCH  36  39
HETATM   39  C   UNL     1      10.046 -31.476   1.024  1.00  0.00     0.179 C 
BRANCH  39  40
HETATM   40  C   UNL     1       9.013 -31.455  -0.110  1.00  0.00     0.167 C 
BRANCH  40  41
HETATM   41  O   UNL     1       8.098 -32.505   0.011  1.00  0.00    -0.391 OA
ATOM     42  HO  UNL     1       8.478 -33.250   0.461  1.00  0.00     0.210 HD
ENDBRANCH  40  41
BRANCH  40  43
HETATM   43  C   UNL     1       8.276 -30.119  -0.112  1.00  0.00     0.165 C 
BRANCH  43  44
HETATM   44  N   UNL     1       8.470 -29.420  -1.385  1.00  0.00    -0.327 N 
HETATM   45  C   UNL     1       7.746 -29.836  -2.438  1.00  0.00     0.145 A 
HETATM   46  N   UNL     1       6.894 -30.806  -2.272  1.00  0.00    -0.292 N 
HETATM   47  C   UNL     1       7.953 -29.136  -3.674  1.00  0.00     0.146 A 
HETATM   48  C   UNL     1       6.219 -31.225  -3.300  1.00  0.00     0.328 A 
ATOM     49  HN  UNL     1       6.758 -31.228  -1.354  1.00  0.00     0.172 HD
HETATM   50  O   UNL     1       5.459 -32.139  -3.187  1.00  0.00    -0.247 OA
HETATM   51  N   UNL     1       6.330 -30.619  -4.521  1.00  0.00    -0.273 N 
HETATM   52  C   UNL     1       7.181 -29.561  -4.737  1.00  0.00     0.280 A 
ATOM     53  HN  UNL     1       5.764 -30.964  -5.296  1.00  0.00     0.173 HD
HETATM   54  O   UNL     1       7.250 -29.041  -5.834  1.00  0.00    -0.265 OA
HETATM   55  N   UNL     1       8.791 -28.163  -3.844  1.00  0.00    -0.347 N 
HETATM   56  C   UNL     1       9.582 -27.823  -2.786  1.00  0.00     0.060 A 
ATOM     57  HN  UNL     1       8.856 -27.671  -4.735  1.00  0.00     0.166 HD
HETATM   58  C   UNL     1      10.545 -26.816  -2.965  1.00  0.00     0.039 A 
HETATM   59  C   UNL     1       9.433 -28.430  -1.526  1.00  0.00     0.063 A 
HETATM   60  C   UNL     1      11.390 -26.462  -1.950  1.00  0.00    -0.054 A 
HETATM   61  C   UNL     1      11.250 -27.075  -0.682  1.00  0.00    -0.054 A 
HETATM   62  C   UNL     1      12.447 -25.410  -2.169  1.00  0.00     0.049 C 
HETATM   63  C   UNL     1      12.136 -26.675   0.462  1.00  0.00     0.049 C 
HETATM   64  C   UNL     1      10.267 -28.021  -0.482  1.00  0.00     0.039 A 
ENDBRANCH  43  44
ENDBRANCH  40  43
ENDBRANCH  39  40
BRANCH  39  65
HETATM   65  O   UNL     1      10.115 -30.246   1.683  1.00  0.00    -0.390 OA
ATOM     66  HO  UNL     1       9.369 -29.696   1.477  1.00  0.00     0.210 HD
ENDBRANCH  39  65
ENDBRANCH  36  39
ENDBRANCH  35  36
ENDBRANCH   1  35
TORSDOF 18
ENDMDL
MODEL 19
REMARK VINA RESULT:   -10.924      7.693     14.656
REMARK INTER + INTRA:         -22.169
REMARK INTER:                 -19.245
REMARK INTRA:                  -2.923
REMARK UNBOUND:                -1.346
REMARK  18 active torsions:
REMARK  status: ('A' for Active; 'I' for Inactive)
REMARK    1  A    between atoms: P_1  and  O_4 
REMARK    2  A    between atoms: P_1  and  O_66 
REMARK    3  A    between atoms: O_4  and  C_5 
REMARK    4  A    between atoms: C_5  and  C_6 
REMARK    5  A    between atoms: C_8  and  O_9 
REMARK    6  A    between atoms: C_11  and  O_12 
REMARK    7  A    between atoms: C_14  and  N_15 
REMARK    8  A    between atoms: N_49  and  C_51 
REMARK    9  A    between atoms: C_51  and  C_52 
REMARK   10  A    between atoms: C_52  and  O_53 
REMARK   11  A    between atoms: C_52  and  C_55 
REMARK   12  A    between atoms: C_55  and  C_58 
REMARK   13  A    between atoms: C_55  and  O_56 
REMARK   14  A    between atoms: C_58  and  O_59 
REMARK   15  A    between atoms: C_58  and  C_61 
REMARK   16  A    between atoms: C_61  and  O_62 
REMARK   17  A    between atoms: O_62  and  P_63 
REMARK   18  A    between atoms: P_63  and  O_66 
ROOT
HETATM    1  O   UNL     1      12.798 -33.170   3.105  1.00  0.00    -0.287 OA
ENDROOT
BRANCH   1   2
HETATM    2  P   UNL     1      13.165 -33.458   4.603  1.00  0.00     0.417 P 
HETATM    3  O   UNL     1      14.546 -33.873   4.578  1.00  0.00    -0.624 OA
HETATM    4  O   UNL     1      12.756 -32.345   5.439  1.00  0.00    -0.624 OA
BRANCH   2   5
HETATM    5  O   UNL     1      12.256 -34.678   4.972  1.00  0.00    -0.180 OA
BRANCH   5   6
HETATM    6  P   UNL     1      12.269 -36.169   4.480  1.00  0.00     0.417 P 
HETATM    7  O   UNL     1      13.554 -36.482   3.886  1.00  0.00    -0.624 OA
HETATM    8  O   UNL     1      11.106 -36.296   3.601  1.00  0.00    -0.624 OA
BRANCH   6   9
HETATM    9  O   UNL     1      12.071 -37.014   5.796  1.00  0.00    -0.287 OA
BRANCH   9  10
HETATM   10  C   UNL     1      11.862 -38.424   5.730  1.00  0.00     0.216 C 
BRANCH  10  11
HETATM   11  C   UNL     1      10.507 -38.737   6.306  1.00  0.00     0.180 C 
HETATM   12  C   UNL     1       9.560 -39.464   5.343  1.00  0.00     0.182 C 
HETATM   13  C   UNL     1       8.600 -38.338   4.919  1.00  0.00     0.198 C 
HETATM   14  C   UNL     1       8.537 -37.496   6.186  1.00  0.00     0.262 C 
HETATM   15  O   UNL     1       9.837 -37.531   6.725  1.00  0.00    -0.353 OA
BRANCH  12  16
HETATM   16  O   UNL     1       8.934 -40.569   5.958  1.00  0.00    -0.390 OA
ATOM     17  HO  UNL     1       9.476 -41.347   6.021  1.00  0.00     0.210 HD
ENDBRANCH  12  16
BRANCH  13  18
HETATM   18  O   UNL     1       7.345 -38.825   4.551  1.00  0.00    -0.388 OA
ATOM     19  HO  UNL     1       6.689 -38.667   5.220  1.00  0.00     0.210 HD
ENDBRANCH  13  18
BRANCH  14  20
HETATM   20  N   UNL     1       8.153 -36.111   6.015  1.00  0.00    -0.297 N 
HETATM   21  C   UNL     1       6.916 -35.661   5.650  1.00  0.00     0.142 A 
HETATM   22  N   UNL     1       5.863 -36.398   5.301  1.00  0.00    -0.336 N 
HETATM   23  C   UNL     1       6.968 -34.289   5.704  1.00  0.00     0.122 A 
HETATM   24  C   UNL     1       4.816 -35.648   5.009  1.00  0.00     0.183 A 
ATOM     25  HN  UNL     1       5.865 -37.417   5.263  1.00  0.00     0.168 HD
HETATM   26  N   UNL     1       4.722 -34.322   5.011  1.00  0.00    -0.337 N 
HETATM   27  C   UNL     1       5.800 -33.591   5.350  1.00  0.00     0.131 A 
ATOM     28  HN  UNL     1       3.845 -33.864   4.758  1.00  0.00     0.168 HD
HETATM   29  N   UNL     1       5.692 -32.273   5.386  1.00  0.00    -0.383 N 
ATOM     30  HN2 UNL     1       4.845 -31.766   5.130  1.00  0.00     0.157 HD
ATOM     31  HN1 UNL     1       6.509 -31.719   5.643  1.00  0.00     0.157 HD
HETATM   32  N   UNL     1       8.220 -33.880   6.120  1.00  0.00    -0.346 N 
HETATM   33  C   UNL     1       8.874 -34.999   6.312  1.00  0.00     0.188 A 
ATOM     34  HN  UNL     1       8.558 -32.926   6.248  1.00  0.00     0.167 HD
ENDBRANCH  14  20
ENDBRANCH  10  11
ENDBRANCH   9  10
ENDBRANCH   6   9
ENDBRANCH   5   6
ENDBRANCH   2   5
ENDBRANCH   1   2
BRANCH   1  35
HETATM   35  C   UNL     1      11.474 -32.938   2.727  1.00  0.00     0.215 C 
BRANCH  35  36
HETATM   36  C   UNL     1      11.445 -31.691   1.869  1.00  0.00     0.173 C 
BRANCH  36  37
HETATM   37  O   UNL     1      12.608 -30.916   2.119  1.00  0.00    -0.391 OA
ATOM     38  HO  UNL     1      13.296 -31.170   1.515  1.00  0.00     0.210 HD
ENDBRANCH  36  37
BRANCH  36  39
HETATM   39  C   UNL     1      11.351 -32.077   0.401  1.00  0.00     0.179 C 
BRANCH  39  40
HETATM   40  C   UNL     1      10.017 -31.756  -0.286  1.00  0.00     0.167 C 
BRANCH  40  41
HETATM   41  O   UNL     1       9.088 -32.786  -0.106  1.00  0.00    -0.391 OA
ATOM     42  HO  UNL     1       9.290 -33.308   0.661  1.00  0.00     0.210 HD
ENDBRANCH  40  41
BRANCH  40  43
HETATM   43  C   UNL     1       9.456 -30.447   0.260  1.00  0.00     0.165 C 
BRANCH  43  44
HETATM   44  N   UNL     1       9.774 -29.331  -0.634  1.00  0.00    -0.327 N 
HETATM   45  C   UNL     1      10.641 -28.406  -0.189  1.00  0.00     0.145 A 
HETATM   46  N   UNL     1      11.176 -28.560   0.989  1.00  0.00    -0.292 N 
HETATM   47  C   UNL     1      10.937 -27.322  -1.082  1.00  0.00     0.146 A 
HETATM   48  C   UNL     1      11.989 -27.647   1.427  1.00  0.00     0.328 A 
ATOM     49  HN  UNL     1      10.960 -29.381   1.554  1.00  0.00     0.172 HD
HETATM   50  O   UNL     1      12.464 -27.741   2.519  1.00  0.00    -0.247 OA
HETATM   51  N   UNL     1      12.349 -26.580   0.651  1.00  0.00    -0.273 N 
HETATM   52  C   UNL     1      11.849 -26.397  -0.617  1.00  0.00     0.280 A 
ATOM     53  HN  UNL     1      13.010 -25.899   1.024  1.00  0.00     0.173 HD
HETATM   54  O   UNL     1      12.197 -25.440  -1.283  1.00  0.00    -0.265 OA
HETATM   55  N   UNL     1      10.418 -27.169  -2.259  1.00  0.00    -0.347 N 
HETATM   56  C   UNL     1       9.470 -28.068  -2.650  1.00  0.00     0.060 A 
ATOM     57  HN  UNL     1      10.707 -26.405  -2.869  1.00  0.00     0.166 HD
HETATM   58  C   UNL     1       8.843 -27.885  -3.894  1.00  0.00     0.039 A 
HETATM   59  C   UNL     1       9.134 -29.180  -1.857  1.00  0.00     0.063 A 
HETATM   60  C   UNL     1       7.858 -28.734  -4.318  1.00  0.00    -0.054 A 
HETATM   61  C   UNL     1       7.512 -29.850  -3.521  1.00  0.00    -0.054 A 
HETATM   62  C   UNL     1       7.165 -28.500  -5.636  1.00  0.00     0.049 C 
HETATM   63  C   UNL     1       6.465 -30.822  -3.983  1.00  0.00     0.049 C 
HETATM   64  C   UNL     1       8.164 -30.071  -2.327  1.00  0.00     0.039 A 
ENDBRANCH  43  44
ENDBRANCH  40  43
ENDBRANCH  39  40
BRANCH  39  65
HETATM   65  O   UNL     1      11.663 -33.436   0.313  1.00  0.00    -0.390 OA
ATOM     66  HO  UNL     1      12.464 -33.643   0.779  1.00  0.00     0.210 HD
ENDBRANCH  39  65
ENDBRANCH  36  39
ENDBRANCH  35  36
ENDBRANCH   1  35
TORSDOF 18
ENDMDL
MODEL 20
REMARK VINA RESULT:   -10.874      7.494     14.273
REMARK INTER + INTRA:         -22.073
REMARK INTER:                 -17.814
REMARK INTRA:                  -4.259
REMARK UNBOUND:                -1.346
REMARK  18 active torsions:
REMARK  status: ('A' for Active; 'I' for Inactive)
REMARK    1  A    between atoms: P_1  and  O_4 
REMARK    2  A    between atoms: P_1  and  O_66 
REMARK    3  A    between atoms: O_4  and  C_5 
REMARK    4  A    between atoms: C_5  and  C_6 
REMARK    5  A    between atoms: C_8  and  O_9 
REMARK    6  A    between atoms: C_11  and  O_12 
REMARK    7  A    between atoms: C_14  and  N_15 
REMARK    8  A    between atoms: N_49  and  C_51 
REMARK    9  A    between atoms: C_51  and  C_52 
REMARK   10  A    between atoms: C_52  and  O_53 
REMARK   11  A    between atoms: C_52  and  C_55 
REMARK   12  A    between atoms: C_55  and  C_58 
REMARK   13  A    between atoms: C_55  and  O_56 
REMARK   14  A    between atoms: C_58  and  O_59 
REMARK   15  A    between atoms: C_58  and  C_61 
REMARK   16  A    between atoms: C_61  and  O_62 
REMARK   17  A    between atoms: O_62  and  P_63 
REMARK   18  A    between atoms: P_63  and  O_66 
ROOT
HETATM    1  O   UNL     1       9.342 -33.700   3.070  1.00  0.00    -0.287 OA
ENDROOT
BRANCH   1   2
HETATM    2  P   UNL     1       7.788 -33.894   3.159  1.00  0.00     0.417 P 
HETATM    3  O   UNL     1       7.226 -32.632   2.745  1.00  0.00    -0.624 OA
HETATM    4  O   UNL     1       7.399 -35.118   2.484  1.00  0.00    -0.624 OA
BRANCH   2   5
HETATM    5  O   UNL     1       7.536 -34.106   4.690  1.00  0.00    -0.180 OA
BRANCH   5   6
HETATM    6  P   UNL     1       6.314 -34.712   5.467  1.00  0.00     0.417 P 
HETATM    7  O   UNL     1       5.076 -34.173   4.940  1.00  0.00    -0.624 OA
HETATM    8  O   UNL     1       6.583 -34.444   6.881  1.00  0.00    -0.624 OA
BRANCH   6   9
HETATM    9  O   UNL     1       6.392 -36.258   5.167  1.00  0.00    -0.287 OA
BRANCH   9  10
HETATM   10  C   UNL     1       7.300 -37.093   5.885  1.00  0.00     0.216 C 
BRANCH  10  11
HETATM   11  C   UNL     1       8.150 -37.843   4.894  1.00  0.00     0.180 C 
HETATM   12  C   UNL     1       8.824 -39.099   5.459  1.00  0.00     0.182 C 
HETATM   13  C   UNL     1      10.279 -38.632   5.643  1.00  0.00     0.198 C 
HETATM   14  C   UNL     1      10.438 -37.657   4.484  1.00  0.00     0.262 C 
HETATM   15  O   UNL     1       9.198 -36.999   4.376  1.00  0.00    -0.353 OA
BRANCH  12  16
HETATM   16  O   UNL     1       8.667 -40.208   4.600  1.00  0.00    -0.390 OA
ATOM     17  HO  UNL     1       8.574 -39.988   3.681  1.00  0.00     0.210 HD
ENDBRANCH  12  16
BRANCH  13  18
HETATM   18  O   UNL     1      11.187 -39.689   5.565  1.00  0.00    -0.388 OA
ATOM     19  HO  UNL     1      11.867 -39.629   6.225  1.00  0.00     0.210 HD
ENDBRANCH  13  18
BRANCH  14  20
HETATM   20  N   UNL     1      11.473 -36.657   4.628  1.00  0.00    -0.297 N 
HETATM   21  C   UNL     1      11.362 -35.479   5.310  1.00  0.00     0.142 A 
HETATM   22  N   UNL     1      10.270 -34.988   5.894  1.00  0.00    -0.336 N 
HETATM   23  C   UNL     1      12.601 -34.887   5.273  1.00  0.00     0.122 A 
HETATM   24  C   UNL     1      10.506 -33.825   6.475  1.00  0.00     0.183 A 
ATOM     25  HN  UNL     1       9.362 -35.453   5.893  1.00  0.00     0.168 HD
HETATM   26  N   UNL     1      11.641 -33.136   6.514  1.00  0.00    -0.337 N 
HETATM   27  C   UNL     1      12.732 -33.637   5.905  1.00  0.00     0.131 A 
ATOM     28  HN  UNL     1      11.686 -32.239   6.999  1.00  0.00     0.168 HD
HETATM   29  N   UNL     1      13.870 -32.967   5.978  1.00  0.00    -0.383 N 
ATOM     30  HN2 UNL     1      13.965 -32.060   6.437  1.00  0.00     0.157 HD
ATOM     31  HN1 UNL     1      14.696 -33.347   5.517  1.00  0.00     0.157 HD
HETATM   32  N   UNL     1      13.490 -35.695   4.591  1.00  0.00    -0.346 N 
HETATM   33  C   UNL     1      12.776 -36.740   4.251  1.00  0.00     0.188 A 
ATOM     34  HN  UNL     1      14.476 -35.519   4.397  1.00  0.00     0.167 HD
ENDBRANCH  14  20
ENDBRANCH  10  11
ENDBRANCH   9  10
ENDBRANCH   6   9
ENDBRANCH   5   6
ENDBRANCH   2   5
ENDBRANCH   1   2
BRANCH   1  35
HETATM   35  C   UNL     1      10.101 -34.424   2.148  1.00  0.00     0.215 C 
BRANCH  35  36
HETATM   36  C   UNL     1      11.050 -33.462   1.467  1.00  0.00     0.173 C 
BRANCH  36  37
HETATM   37  O   UNL     1      11.283 -33.889   0.132  1.00  0.00    -0.391 OA
ATOM     38  HO  UNL     1      10.476 -33.831  -0.366  1.00  0.00     0.210 HD
ENDBRANCH  36  37
BRANCH  36  39
HETATM   39  C   UNL     1      10.471 -32.056   1.498  1.00  0.00     0.179 C 
BRANCH  39  40
HETATM   40  C   UNL     1       9.705 -31.626   0.241  1.00  0.00     0.167 C 
BRANCH  40  41
HETATM   41  O   UNL     1       8.740 -32.571  -0.120  1.00  0.00    -0.391 OA
ATOM     42  HO  UNL     1       7.900 -32.163  -0.296  1.00  0.00     0.210 HD
ENDBRANCH  40  41
BRANCH  40  43
HETATM   43  C   UNL     1       9.044 -30.271   0.476  1.00  0.00     0.165 C 
BRANCH  43  44
HETATM   44  N   UNL     1       9.522 -29.283  -0.494  1.00  0.00    -0.327 N 
HETATM   45  C   UNL     1      10.456 -28.409  -0.081  1.00  0.00     0.145 A 
HETATM   46  N   UNL     1      10.910 -28.501   1.136  1.00  0.00    -0.292 N 
HETATM   47  C   UNL     1      10.908 -27.451  -1.049  1.00  0.00     0.146 A 
HETATM   48  C   UNL     1      11.789 -27.635   1.540  1.00  0.00     0.328 A 
ATOM     49  HN  UNL     1      10.581 -29.239   1.759  1.00  0.00     0.172 HD
HETATM   50  O   UNL     1      12.195 -27.670   2.663  1.00  0.00    -0.247 OA
HETATM   51  N   UNL     1      12.298 -26.688   0.694  1.00  0.00    -0.273 N 
HETATM   52  C   UNL     1      11.886 -26.579  -0.613  1.00  0.00     0.280 A 
ATOM     53  HN  UNL     1      13.005 -26.042   1.044  1.00  0.00     0.173 HD
HETATM   54  O   UNL     1      12.366 -25.729  -1.340  1.00  0.00    -0.265 OA
HETATM   55  N   UNL     1      10.470 -27.360  -2.264  1.00  0.00    -0.347 N 
HETATM   56  C   UNL     1       9.456 -28.195  -2.630  1.00  0.00     0.060 A 
ATOM     57  HN  UNL     1      10.868 -26.690  -2.922  1.00  0.00     0.166 HD
HETATM   58  C   UNL     1       8.917 -28.072  -3.921  1.00  0.00     0.039 A 
HETATM   59  C   UNL     1       8.965 -29.188  -1.762  1.00  0.00     0.063 A 
HETATM   60  C   UNL     1       7.873 -28.857  -4.327  1.00  0.00    -0.054 A 
HETATM   61  C   UNL     1       7.371 -29.852  -3.456  1.00  0.00    -0.054 A 
HETATM   62  C   UNL     1       7.277 -28.683  -5.701  1.00  0.00     0.049 C 
HETATM   63  C   UNL     1       6.255 -30.756  -3.891  1.00  0.00     0.049 C 
HETATM   64  C   UNL     1       7.935 -30.020  -2.209  1.00  0.00     0.039 A 
ENDBRANCH  43  44
ENDBRANCH  40  43
ENDBRANCH  39  40
BRANCH  39  65
HETATM   65  O   UNL     1      11.527 -31.185   1.782  1.00  0.00    -0.390 OA
ATOM     66  HO  UNL     1      12.278 -31.351   1.226  1.00  0.00     0.210 HD
ENDBRANCH  39  65
ENDBRANCH  36  39
ENDBRANCH  35  36
ENDBRANCH   1  35
TORSDOF 18
ENDMDL
