MODEL 1
REMARK VINA RESULT:   -12.391      0.000      0.000
REMARK INTER + INTRA:         -19.457
REMARK INTER:                 -17.823
REMARK INTRA:                  -1.634
REMARK UNBOUND:                -1.634
REMARK  9 active torsions:
REMARK  status: ('A' for Active; 'I' for Inactive)
REMARK    1  A    between atoms: O_1  and  C_7 
REMARK    2  A    between atoms: O_3  and  C_29 
REMARK    3  A    between atoms: C_5  and  O_32 
REMARK    4  A    between atoms: C_10  and  C_11 
REMARK    5  A    between atoms: C_21  and  C_24 
REMARK    6  A    between atoms: C_24  and  C_26 
REMARK    7  A    between atoms: C_26  and  C_27 
REMARK    8  A    between atoms: C_27  and  C_28 
REMARK    9  A    between atoms: C_28  and  C_29 
ROOT
HETATM    1  C   UNL     1      14.172  21.666  33.985  1.00  0.00     0.008 C 
HETATM    2  C   UNL     1      13.911  22.844  33.388  1.00  0.00    -0.055 C 
HETATM    3  C   UNL     1      13.828  23.107  31.905  1.00  0.00     0.039 C 
HETATM    4  C   UNL     1      12.433  23.479  31.454  1.00  0.00     0.006 C 
HETATM    5  C   UNL     1      11.825  24.515  32.265  1.00  0.00     0.014 C 
HETATM    6  C   UNL     1      11.850  24.217  33.809  1.00  0.00    -0.016 C 
HETATM    7  C   UNL     1      13.167  23.817  34.227  1.00  0.00    -0.065 C 
HETATM    8  C   UNL     1      13.299  23.938  35.744  1.00  0.00     0.036 C 
HETATM    9  C   UNL     1      12.074  24.934  36.105  1.00  0.00     0.010 C 
HETATM   10  C   UNL     1      11.544  25.415  34.847  1.00  0.00     0.002 C 
HETATM   11  C   UNL     1      10.947  22.985  34.051  1.00  0.00     0.020 C 
ENDROOT
BRANCH   1  12
HETATM   12  C   UNL     1      14.651  20.486  33.169  1.00  0.00     0.008 C 
HETATM   13  C   UNL     1      14.521  19.174  33.506  1.00  0.00    -0.048 C 
HETATM   14  C   UNL     1      13.560  18.684  34.637  1.00  0.00    -0.033 C 
HETATM   15  C   UNL     1      15.091  18.065  32.693  1.00  0.00     0.071 C 
HETATM   16  C   UNL     1      12.365  19.275  34.815  1.00  0.00     0.022 C 
HETATM   17  C   UNL     1      14.040  17.466  35.350  1.00  0.00     0.153 C 
HETATM   18  C   UNL     1      14.535  16.362  34.409  1.00  0.00     0.068 C 
HETATM   19  C   UNL     1      15.601  16.847  33.528  1.00  0.00     0.125 C 
BRANCH  17  20
HETATM   20  O   UNL     1      13.046  17.001  36.257  1.00  0.00    -0.391 OA
ATOM     21  HO  UNL     1      13.354  16.228  36.715  1.00  0.00     0.210 HD
ENDBRANCH  17  20
BRANCH  19  22
HETATM   22  O   UNL     1      16.755  17.310  34.268  1.00  0.00    -0.395 OA
ATOM     23  HO  UNL     1      16.448  17.520  35.142  1.00  0.00     0.210 HD
ENDBRANCH  19  22
ENDBRANCH   1  12
BRANCH  10  24
HETATM   24  C   UNL     1      10.066  25.932  34.821  1.00  0.00    -0.014 C 
HETATM   25  C   UNL     1      10.181  27.462  34.716  1.00  0.00     0.010 C 
BRANCH  24  26
HETATM   26  C   UNL     1       9.185  25.583  36.018  1.00  0.00     0.005 C 
BRANCH  26  27
HETATM   27  C   UNL     1       8.105  24.494  35.624  1.00  0.00     0.003 C 
BRANCH  27  28
HETATM   28  C   UNL     1       7.396  24.940  34.327  1.00  0.00     0.037 C 
BRANCH  28  29
HETATM   29  C   UNL     1       5.866  24.715  34.375  1.00  0.00     0.051 C 
HETATM   30  C   UNL     1       5.365  24.037  33.098  1.00  0.00     0.045 C 
HETATM   31  C   UNL     1       5.546  23.857  35.582  1.00  0.00     0.045 C 
BRANCH  29  32
HETATM   32  O   UNL     1       5.191  25.929  34.502  1.00  0.00    -0.391 OA
ATOM     33  HO  UNL     1       5.507  26.507  33.818  1.00  0.00     0.210 HD
ENDBRANCH  29  32
ENDBRANCH  28  29
ENDBRANCH  27  28
ENDBRANCH  26  27
ENDBRANCH  24  26
ENDBRANCH  10  24
TORSDOF 9
ENDMDL
MODEL 2
REMARK VINA RESULT:    -9.647      1.553      8.708
REMARK INTER + INTRA:         -15.512
REMARK INTER:                 -14.810
REMARK INTRA:                  -0.701
REMARK UNBOUND:                -1.634
REMARK  9 active torsions:
REMARK  status: ('A' for Active; 'I' for Inactive)
REMARK    1  A    between atoms: O_1  and  C_7 
REMARK    2  A    between atoms: O_3  and  C_29 
REMARK    3  A    between atoms: C_5  and  O_32 
REMARK    4  A    between atoms: C_10  and  C_11 
REMARK    5  A    between atoms: C_21  and  C_24 
REMARK    6  A    between atoms: C_24  and  C_26 
REMARK    7  A    between atoms: C_26  and  C_27 
REMARK    8  A    between atoms: C_27  and  C_28 
REMARK    9  A    between atoms: C_28  and  C_29 
ROOT
HETATM    1  C   UNL     1       8.902  25.267  35.042  1.00  0.00     0.008 C 
HETATM    2  C   UNL     1       9.993  24.526  35.316  1.00  0.00    -0.055 C 
HETATM    3  C   UNL     1      10.018  23.138  35.906  1.00  0.00     0.039 C 
HETATM    4  C   UNL     1      10.538  22.100  34.937  1.00  0.00     0.006 C 
HETATM    5  C   UNL     1      11.781  22.485  34.298  1.00  0.00     0.014 C 
HETATM    6  C   UNL     1      11.743  23.906  33.625  1.00  0.00    -0.016 C 
HETATM    7  C   UNL     1      11.202  24.882  34.531  1.00  0.00    -0.065 C 
HETATM    8  C   UNL     1      11.548  26.292  34.057  1.00  0.00     0.036 C 
HETATM    9  C   UNL     1      12.781  26.008  33.046  1.00  0.00     0.010 C 
HETATM   10  C   UNL     1      13.130  24.612  33.196  1.00  0.00     0.002 C 
HETATM   11  C   UNL     1      10.737  23.828  32.453  1.00  0.00     0.020 C 
ENDROOT
BRANCH   1  12
HETATM   12  C   UNL     1       7.541  24.834  35.537  1.00  0.00     0.008 C 
HETATM   13  C   UNL     1       6.441  24.614  34.766  1.00  0.00    -0.048 C 
HETATM   14  C   UNL     1       6.518  24.460  33.212  1.00  0.00    -0.033 C 
HETATM   15  C   UNL     1       5.108  24.267  35.329  1.00  0.00     0.071 C 
HETATM   16  C   UNL     1       7.554  23.818  32.644  1.00  0.00     0.022 C 
HETATM   17  C   UNL     1       5.305  24.950  32.498  1.00  0.00     0.153 C 
HETATM   18  C   UNL     1       3.991  24.472  33.124  1.00  0.00     0.068 C 
HETATM   19  C   UNL     1       3.898  24.856  34.535  1.00  0.00     0.125 C 
BRANCH  17  20
HETATM   20  O   UNL     1       5.389  24.642  31.111  1.00  0.00    -0.391 OA
ATOM     21  HO  UNL     1       4.582  24.880  30.670  1.00  0.00     0.210 HD
ENDBRANCH  17  20
BRANCH  19  22
HETATM   22  O   UNL     1       3.946  26.291  34.716  1.00  0.00    -0.395 OA
ATOM     23  HO  UNL     1       3.055  26.605  34.615  1.00  0.00     0.210 HD
ENDBRANCH  19  22
ENDBRANCH   1  12
BRANCH  10  24
HETATM   24  C   UNL     1      13.876  23.908  32.013  1.00  0.00    -0.014 C 
HETATM   25  C   UNL     1      13.353  24.604  30.744  1.00  0.00     0.010 C 
BRANCH  24  26
HETATM   26  C   UNL     1      13.683  22.401  31.865  1.00  0.00     0.005 C 
BRANCH  26  27
HETATM   27  C   UNL     1      14.614  21.613  32.874  1.00  0.00     0.003 C 
BRANCH  27  28
HETATM   28  C   UNL     1      14.955  20.235  32.266  1.00  0.00     0.037 C 
BRANCH  28  29
HETATM   29  C   UNL     1      14.935  19.098  33.315  1.00  0.00     0.051 C 
HETATM   30  C   UNL     1      13.789  19.283  34.313  1.00  0.00     0.045 C 
HETATM   31  C   UNL     1      14.788  17.777  32.588  1.00  0.00     0.045 C 
BRANCH  29  32
HETATM   32  O   UNL     1      16.127  19.075  34.041  1.00  0.00    -0.391 OA
ATOM     33  HO  UNL     1      15.977  18.561  34.826  1.00  0.00     0.210 HD
ENDBRANCH  29  32
ENDBRANCH  28  29
ENDBRANCH  27  28
ENDBRANCH  26  27
ENDBRANCH  24  26
ENDBRANCH  10  24
TORSDOF 9
ENDMDL
