REMARK  5 active torsions:
REMARK  status: ('A' for Active; 'I' for Inactive)
REMARK    1  A    between atoms: C_1  and  O_31 
REMARK    2  A    between atoms: C_1  and  C_2 
REMARK    3  A    between atoms: C_4  and  C_17 
REMARK    4  A    between atoms: C_8  and  C_9 
REMARK    5  A    between atoms: C_16  and  C_17 
ROOT
HETATM    1  C   UNL     1      82.314  51.145  55.354  1.00  0.00     0.064 C 
HETATM    2  C   UNL     1      83.801  51.636  55.237  1.00  0.00     0.037 A 
HETATM    3  C   UNL     1      84.576  52.213  54.327  1.00  0.00     0.034 A 
HETATM    4  C   UNL     1      84.191  52.647  52.905  1.00  0.00     0.070 C 
HETATM    5  C   UNL     1      84.673  51.415  56.431  1.00  0.00     0.173 A 
HETATM    6  C   UNL     1      83.276  50.034  57.573  1.00  0.00     0.177 C 
HETATM    7  C   UNL     1      82.208  50.183  56.568  1.00  0.00     0.089 C 
HETATM    8  C   UNL     1      81.078  49.168  56.579  1.00  0.00     0.100 C 
HETATM    9  N   UNL     1      85.803  52.398  54.761  1.00  0.00    -0.303 N 
ATOM     10  HN  UNL     1      86.548  52.838  54.220  1.00  0.00     0.186 HD
HETATM   11  N   UNL     1      85.949  51.918  56.046  1.00  0.00    -0.279 N 
ATOM     12  HN  UNL     1      86.800  51.922  56.608  1.00  0.00     0.189 HD
HETATM   13  N   UNL     1      82.926  49.448  58.849  1.00  0.00    -0.073 NA
HETATM   14  N   UNL     1      80.203  48.462  56.627  1.00  0.00    -0.191 NA
HETATM   15  O   UNL     1      84.306  50.850  57.600  1.00  0.00    -0.276 OA
ENDROOT
BRANCH   1  16
HETATM   16  C   UNL     1      81.900  50.343  54.142  1.00  0.00    -0.037 A 
HETATM   17  C   UNL     1      80.636  50.471  53.581  1.00  0.00     0.018 A 
HETATM   18  C   UNL     1      80.247  49.732  52.479  1.00  0.00    -0.033 A 
HETATM   19  C   UNL     1      81.134  48.811  51.932  1.00  0.00     0.021 A 
HETATM   20  C   UNL     1      82.401  48.671  52.491  1.00  0.00    -0.025 A 
HETATM   21  C   UNL     1      82.780  49.421  53.597  1.00  0.00     0.021 A 
BRANCH  18  22
HETATM   22  C   UNL     1      78.842  49.988  51.917  1.00  0.00     0.202 C 
BRANCH  22  23
HETATM   23  O   UNL     1      78.441  48.998  51.030  1.00  0.00    -0.396 OA
ATOM     24  HO  UNL     1      77.571  49.156  50.682  1.00  0.00     0.209 HD
ENDBRANCH  22  23
ENDBRANCH  18  22
BRANCH  20  25
HETATM   25  C   UNL     1      83.399  47.658  51.928  1.00  0.00    -0.026 A 
HETATM   26  C   UNL     1      84.363  46.962  52.878  1.00  0.00     0.012 A 
HETATM   27  C   UNL     1      85.224  46.072  52.435  1.00  0.00     0.001 A 
HETATM   28  C   UNL     1      85.260  45.742  50.950  1.00  0.00     0.000 A 
HETATM   29  C   UNL     1      84.425  46.342  50.129  1.00  0.00     0.001 A 
HETATM   30  C   UNL     1      83.424  47.371  50.651  1.00  0.00     0.012 A 
ENDBRANCH  20  25
ENDBRANCH   1  16
BRANCH   1  31
HETATM   31  C   UNL     1      81.339  52.311  55.655  1.00  0.00     0.001 C 
HETATM   32  C   UNL     1      81.307  53.439  54.611  1.00  0.00     0.011 C 
HETATM   33  C   UNL     1      81.651  52.938  57.023  1.00  0.00     0.011 C 
ENDBRANCH   1  31
TORSDOF 5
