MODEL 1
REMARK VINA RESULT:   -14.922      0.000      0.000
REMARK INTER + INTRA:         -27.042
REMARK INTER:                 -24.954
REMARK INTRA:                  -2.088
REMARK UNBOUND:                -2.088
REMARK  15 active torsions:
REMARK  status: ('A' for Active; 'I' for Inactive)
REMARK    1  A    between atoms: C_1  and  O_47 
REMARK    2  A    between atoms: C_7  and  O_49 
REMARK    3  A    between atoms: C_8  and  O_51 
REMARK    4  A    between atoms: C_9  and  O_54 
REMARK    5  A    between atoms: C_12  and  O_56 
REMARK    6  A    between atoms: C_14  and  O_57 
REMARK    7  A    between atoms: C_20  and  C_37 
REMARK    8  A    between atoms: C_21  and  O_58 
REMARK    9  A    between atoms: C_23  and  O_60 
REMARK   10  A    between atoms: C_25  and  C_26 
REMARK   11  A    between atoms: C_26  and  C_27 
REMARK   12  A    between atoms: C_27  and  C_28 
REMARK   13  A    between atoms: C_30  and  O_62 
REMARK   14  A    between atoms: C_31  and  O_63 
REMARK   15  A    between atoms: C_37  and  C_38 
ROOT
HETATM    1  C   UNL     1     -34.685 -14.556 -25.475  1.00  0.00     0.280 C 
HETATM    2  C   UNL     1     -35.419 -14.240 -26.746  1.00  0.00     0.141 C 
HETATM    3  C   UNL     1     -35.888 -15.546 -27.397  1.00  0.00     0.030 C 
HETATM    4  C   UNL     1     -34.719 -16.358 -27.970  1.00  0.00     0.004 C 
HETATM    5  C   UNL     1     -33.877 -15.522 -28.940  1.00  0.00     0.020 C 
HETATM    6  C   UNL     1     -33.382 -14.237 -28.261  1.00  0.00     0.125 C 
HETATM    7  C   UNL     1     -34.799 -12.251 -27.971  1.00  0.00     0.174 C 
HETATM    8  C   UNL     1     -34.051 -11.494 -28.862  1.00  0.00     0.157 C 
HETATM    9  C   UNL     1     -32.882 -10.635 -28.394  1.00  0.00     0.220 C 
HETATM   10  C   UNL     1     -33.112 -10.074 -26.986  1.00  0.00     0.054 C 
HETATM   11  C   UNL     1     -31.790  -9.587 -26.382  1.00  0.00     0.044 C 
HETATM   12  C   UNL     1     -30.683 -10.634 -26.570  1.00  0.00     0.153 C 
HETATM   13  C   UNL     1     -30.542 -10.958 -28.056  1.00  0.00     0.183 C 
HETATM   14  C   UNL     1     -29.476 -12.014 -28.398  1.00  0.00     0.152 C 
HETATM   15  C   UNL     1     -29.532 -13.232 -27.480  1.00  0.00     0.039 C 
HETATM   16  C   UNL     1     -28.641 -14.407 -27.908  1.00  0.00    -0.016 C 
HETATM   17  C   UNL     1     -27.208 -14.198 -27.401  1.00  0.00     0.008 C 
HETATM   18  C   UNL     1     -27.109 -14.580 -25.948  1.00  0.00    -0.018 C 
HETATM   19  C   UNL     1     -27.158 -13.525 -24.930  1.00  0.00     0.011 C 
HETATM   20  C   UNL     1     -27.101 -13.850 -23.462  1.00  0.00     0.015 C 
HETATM   21  C   UNL     1     -28.510 -13.970 -22.970  1.00  0.00     0.124 C 
HETATM   22  C   UNL     1     -29.256 -15.293 -22.984  1.00  0.00     0.064 C 
HETATM   23  C   UNL     1     -30.768 -15.124 -22.806  1.00  0.00     0.127 C 
HETATM   24  C   UNL     1     -31.502 -14.789 -24.117  1.00  0.00     0.044 C 
HETATM   25  C   UNL     1     -32.996 -14.493 -23.947  1.00  0.00     0.159 C 
HETATM   26  C   UNL     1     -34.165  -8.958 -26.956  1.00  0.00     0.016 C 
HETATM   27  C   UNL     1     -28.651 -14.601 -29.432  1.00  0.00     0.010 C 
HETATM   28  C   UNL     1     -26.938 -16.025 -25.569  1.00  0.00     0.010 C 
HETATM   29  C   UNL     1     -31.347 -15.901 -25.158  1.00  0.00     0.015 C 
HETATM   30  N   UNL     1     -34.523 -13.528 -27.666  1.00  0.00    -0.350 N 
HETATM   31  O   UNL     1     -33.504 -14.144 -25.232  1.00  0.00    -0.349 OA
HETATM   32  O   UNL     1     -31.776 -11.505 -28.461  1.00  0.00    -0.339 OA
ENDROOT
BRANCH  25  33
HETATM   33  C   UNL     1     -33.174 -13.332 -22.998  1.00  0.00    -0.058 C 
HETATM   34  C   UNL     1     -32.685 -11.960 -23.402  1.00  0.00     0.046 C 
BRANCH  33  35
HETATM   35  C   UNL     1     -33.800 -13.578 -21.707  1.00  0.00    -0.017 C 
BRANCH  35  36
HETATM   36  C   UNL     1     -33.707 -12.624 -20.553  1.00  0.00     0.011 C 
HETATM   37  C   UNL     1     -32.235 -12.490 -20.121  1.00  0.00     0.011 C 
HETATM   38  C   UNL     1     -32.127 -11.630 -18.848  1.00  0.00     0.035 C 
HETATM   39  C   UNL     1     -33.008 -12.170 -17.724  1.00  0.00     0.147 C 
HETATM   40  C   UNL     1     -34.462 -12.306 -18.181  1.00  0.00     0.150 C 
HETATM   41  C   UNL     1     -34.546 -13.198 -19.413  1.00  0.00     0.043 C 
BRANCH  39  42
HETATM   42  O   UNL     1     -32.965 -11.289 -16.612  1.00  0.00    -0.393 OA
ATOM     43  HO  UNL     1     -33.687 -11.499 -16.032  1.00  0.00     0.210 HD
ENDBRANCH  39  42
BRANCH  40  44
HETATM   44  O   UNL     1     -35.210 -12.873 -17.131  1.00  0.00    -0.388 OA
HETATM   45  C   UNL     1     -36.359 -13.587 -17.560  1.00  0.00     0.202 C 
ENDBRANCH  40  44
ENDBRANCH  35  36
ENDBRANCH  33  35
ENDBRANCH  25  33
BRANCH   1  46
HETATM   46  O   UNL     1     -35.374 -15.312 -24.556  1.00  0.00    -0.369 OA
ATOM     47  HO  UNL     1     -36.221 -15.688 -24.767  1.00  0.00     0.212 HD
ENDBRANCH   1  46
BRANCH  23  48
HETATM   48  O   UNL     1     -31.262 -16.340 -22.290  1.00  0.00    -0.395 OA
ATOM     49  HO  UNL     1     -30.927 -17.034 -22.846  1.00  0.00     0.210 HD
ENDBRANCH  23  48
BRANCH  21  50
HETATM   50  O   UNL     1     -29.123 -12.805 -22.526  1.00  0.00    -0.395 OA
ATOM     51  HO  UNL     1     -30.010 -12.585 -22.790  1.00  0.00     0.210 HD
ENDBRANCH  21  50
BRANCH   7  52
HETATM   52  O   UNL     1     -35.882 -11.641 -27.373  1.00  0.00    -0.344 OA
ATOM     53  HO  UNL     1     -36.129 -11.902 -26.493  1.00  0.00     0.219 HD
ENDBRANCH   7  52
BRANCH  20  54
HETATM   54  C   UNL     1     -26.432 -12.676 -22.752  1.00  0.00     0.007 C 
BRANCH  54  55
HETATM   55  C   UNL     1     -25.113 -12.367 -23.433  1.00  0.00    -0.004 C 
HETATM   56  C   UNL     1     -23.873 -12.753 -22.764  1.00  0.00     0.005 C 
ENDBRANCH  54  55
ENDBRANCH  20  54
BRANCH   8  57
HETATM   57  O   UNL     1     -34.349 -11.517 -30.220  1.00  0.00    -0.356 OA
ATOM     58  HO  UNL     1     -33.663 -11.683 -30.856  1.00  0.00     0.217 HD
ENDBRANCH   8  57
BRANCH   9  59
HETATM   59  O   UNL     1     -32.695  -9.545 -29.318  1.00  0.00    -0.360 OA
ATOM     60  HO  UNL     1     -33.544  -9.200 -29.571  1.00  0.00     0.213 HD
ENDBRANCH   9  59
BRANCH  12  61
HETATM   61  O   UNL     1     -29.462 -10.139 -26.040  1.00  0.00    -0.388 OA
HETATM   62  C   UNL     1     -29.335 -10.474 -24.669  1.00  0.00     0.202 C 
ENDBRANCH  12  61
BRANCH  14  63
HETATM   63  O   UNL     1     -28.182 -11.458 -28.396  1.00  0.00    -0.388 OA
HETATM   64  C   UNL     1     -27.835 -10.906 -29.652  1.00  0.00     0.202 C 
ENDBRANCH  14  63
TORSDOF 15
ENDMDL
