REMARK  6 active torsions:
REMARK  status: ('A' for Active; 'I' for Inactive)
REMARK    1  A    between atoms: C_7  and  O_47 
REMARK    2  A    between atoms: C_13  and  O_46 
REMARK    3  A    between atoms: C_14  and  N_43 
REMARK    4  A    between atoms: C_16  and  C_18 
REMARK    5  A    between atoms: C_19  and  C_25 
REMARK    6  A    between atoms: C_19  and  O_46 
ROOT
HETATM    1  C   UNL     1      -2.427   4.112   4.781  1.00  0.00     0.045 A 
HETATM    2  C   UNL     1      -2.172   5.190   3.942  1.00  0.00     0.015 A 
HETATM    3  C   UNL     1      -2.058   2.825   4.402  1.00  0.00     0.136 A 
HETATM    4  C   UNL     1      -1.077   3.698   2.326  1.00  0.00     0.009 A 
HETATM    5  C   UNL     1      -1.403   2.596   3.180  1.00  0.00     0.067 A 
HETATM    6  C   UNL     1      -1.513   4.999   2.720  1.00  0.00    -0.021 A 
HETATM    7  C   UNL     1      -0.643   5.959   0.666  1.00  0.00     0.067 A 
HETATM    8  C   UNL     1      -1.296   6.107   1.888  1.00  0.00     0.049 A 
HETATM    9  C   UNL     1      -0.359   3.579   1.093  1.00  0.00     0.009 A 
HETATM   10  C   UNL     1      -0.176   4.707   0.278  1.00  0.00     0.051 A 
HETATM   11  C   UNL     1      -1.173   1.213   2.824  1.00  0.00    -0.074 C 
HETATM   12  C   UNL     1      -0.999   0.052   2.543  1.00  0.00     0.018 C 
HETATM   13  F   UNL     1      -2.362   1.789   5.228  1.00  0.00    -0.205 F 
ENDROOT
BRANCH   9  14
HETATM   14  C   UNL     1       0.300   2.339   0.647  1.00  0.00     0.084 A 
HETATM   15  C   UNL     1      -0.187   1.626  -0.458  1.00  0.00     0.171 A 
HETATM   16  C   UNL     1       0.461   0.453  -0.852  1.00  0.00     0.092 A 
HETATM   17  F   UNL     1      -1.294   2.050  -1.121  1.00  0.00    -0.201 F 
HETATM   18  C   UNL     1       1.601   0.009  -0.153  1.00  0.00     0.053 A 
HETATM   19  N   UNL     1      -0.016  -0.273  -1.893  1.00  0.00    -0.319 N 
HETATM   20  C   UNL     1       2.213  -1.184  -0.577  1.00  0.00     0.120 A 
HETATM   21  C   UNL     1       2.066   0.767   0.934  1.00  0.00     0.106 A 
HETATM   22  N   UNL     1       1.684  -1.873  -1.623  1.00  0.00    -0.307 N 
HETATM   23  C   UNL     1       0.577  -1.435  -2.275  1.00  0.00     0.225 A 
ATOM     24  HN  UNL     1       2.130  -2.739  -1.925  1.00  0.00     0.171 HD
HETATM   25  N   UNL     1       1.410   1.900   1.302  1.00  0.00    -0.362 N 
ATOM     26  HN  UNL     1       1.761   2.438   2.094  1.00  0.00     0.165 HD
ATOM     27  HN  UNL     1      -0.836   0.059  -2.400  1.00  0.00     0.169 HD
BRANCH  20  28
HETATM   28  N   UNL     1       3.369  -1.707   0.085  1.00  0.00    -0.362 N 
HETATM   29  C   UNL     1       3.170  -2.618   1.228  1.00  0.00     0.160 C 
HETATM   30  C   UNL     1       4.489  -3.316   1.632  1.00  0.00     0.239 C 
HETATM   31  C   UNL     1       4.922  -4.319   0.559  1.00  0.00     0.039 C 
HETATM   32  N   UNL     1       5.564  -2.330   1.677  1.00  0.00     0.096 N 
HETATM   33  C   UNL     1       5.825  -3.507  -0.363  1.00  0.00     0.039 C 
HETATM   34  C   UNL     1       5.828  -2.108   0.259  1.00  0.00     0.239 C 
HETATM   35  C   UNL     1       4.700  -1.240  -0.345  1.00  0.00     0.160 C 
HETATM   36  H   UNL     1       5.255  -1.446   2.150  1.00  0.00     0.317 HD
ENDBRANCH  20  28
BRANCH  23  37
HETATM   37  O   UNL     1       0.049  -2.201  -3.320  1.00  0.00    -0.319 OA
BRANCH  37  38
HETATM   38  C   UNL     1      -1.210  -1.933  -3.941  1.00  0.00     0.220 C 
BRANCH  38  39
HETATM   39  C   UNL     1      -2.397  -2.483  -3.107  1.00  0.00     0.184 C 
HETATM   40  C   UNL     1      -3.733  -2.182  -3.823  1.00  0.00     0.083 C 
HETATM   41  C   UNL     1      -4.649  -1.671  -2.735  1.00  0.00     0.201 C 
HETATM   42  C   UNL     1      -3.702  -1.063  -1.720  1.00  0.00     0.310 C 
HETATM   43  F   UNL     1      -5.342  -2.726  -2.162  1.00  0.00    -0.248 F 
HETATM   44  N   UNL     1      -2.435  -1.805  -1.797  1.00  0.00     0.103 N 
HETATM   45  C   UNL     1      -2.322  -2.841  -0.756  1.00  0.00     0.273 C 
HETATM   46  C   UNL     1      -1.734  -4.073  -1.409  1.00  0.00     0.033 C 
HETATM   47  C   UNL     1      -2.225  -3.994  -2.834  1.00  0.00     0.046 C 
ENDBRANCH  38  39
ENDBRANCH  37  38
ENDBRANCH  23  37
ENDBRANCH   9  14
BRANCH   7  48
HETATM   48  O   UNL     1      -0.441   7.056  -0.169  1.00  0.00    -0.361 OA
HETATM   49  H   UNL     1      -0.764   7.982   0.084  1.00  0.00     0.217 HD
ENDBRANCH   7  48
TORSDOF 6
