REMARK  22 active torsions:
REMARK  status: ('A' for Active; 'I' for Inactive)
REMARK    1  A    between atoms: N_15  and  C_16 
REMARK    2  A    between atoms: C_17  and  O_18 
REMARK    3  A    between atoms: C_20  and  O_21 
REMARK    4  A    between atoms: O_21  and  P_22 
REMARK    5  A    between atoms: C_26  and  C_28 
REMARK    6  A    between atoms: C_28  and  O_29 
REMARK    7  A    between atoms: O_29  and  P_30 
REMARK    8  A    between atoms: P_30  and  O_33 
REMARK    9  A    between atoms: O_33  and  P_34 
REMARK   10  A    between atoms: P_34  and  O_37 
REMARK   11  A    between atoms: O_37  and  C_39 
REMARK   12  A    between atoms: C_38  and  C_42 
REMARK   13  A    between atoms: C_38  and  C_39 
REMARK   14  A    between atoms: C_42  and  C_45 
REMARK   15  A    between atoms: C_42  and  O_43 
REMARK       I    between atoms: C_45  and  N_47 
REMARK   16  A    between atoms: N_47  and  C_49 
REMARK   17  A    between atoms: C_49  and  C_50 
REMARK   18  A    between atoms: C_50  and  C_51 
REMARK       I    between atoms: C_51  and  N_53 
REMARK   19  A    between atoms: N_53  and  C_55 
REMARK   20  A    between atoms: C_55  and  C_56 
REMARK   21  A    between atoms: C_56  and  S_57 
REMARK   22  A    between atoms: S_57  and  C_58 
ROOT
HETATM    1  P   UNL     1     -25.657 -38.469  44.495  1.00  0.00     0.417 P 
HETATM    2  O   UNL     1     -24.539 -37.469  44.264  1.00  0.00    -0.624 OA
HETATM    3  O   UNL     1     -26.593 -38.327  45.703  1.00  0.00    -0.624 OA
ENDROOT
BRANCH   1   4
HETATM    4  O   UNL     1     -25.003 -39.903  44.549  1.00  0.00    -0.287 OA
BRANCH   4   5
HETATM    5  C   UNL     1     -25.790 -41.051  44.887  1.00  0.00     0.216 C 
BRANCH   5   6
HETATM    6  C   UNL     1     -24.909 -42.270  44.785  1.00  0.00     0.180 C 
HETATM    7  O   UNL     1     -24.636 -42.536  43.390  1.00  0.00    -0.353 OA
HETATM    8  C   UNL     1     -23.239 -42.551  43.152  1.00  0.00     0.262 C 
HETATM    9  C   UNL     1     -22.629 -41.772  44.277  1.00  0.00     0.199 C 
HETATM   10  C   UNL     1     -23.567 -42.058  45.457  1.00  0.00     0.199 C 
BRANCH   8  11
HETATM   11  N   UNL     1     -23.046 -41.831  41.883  1.00  0.00    -0.297 N 
HETATM   12  C   UNL     1     -22.413 -42.362  40.860  1.00  0.00     0.142 A 
HETATM   13  C   UNL     1     -22.463 -41.316  39.840  1.00  0.00     0.122 A 
HETATM   14  N   UNL     1     -21.816 -43.534  40.629  1.00  0.00    -0.336 N 
HETATM   15  C   UNL     1     -21.857 -41.626  38.560  1.00  0.00     0.131 A 
HETATM   16  N   UNL     1     -23.116 -40.247  40.331  1.00  0.00    -0.346 N 
HETATM   17  N   UNL     1     -21.842 -40.723  37.569  1.00  0.00    -0.383 N 
HETATM   18  N   UNL     1     -21.304 -42.818  38.405  1.00  0.00    -0.337 N 
ATOM     19  HN2 UNL     1     -22.268 -39.804  37.688  1.00  0.00     0.157 HD
ATOM     20  HN1 UNL     1     -21.416 -40.941  36.668  1.00  0.00     0.157 HD
HETATM   21  C   UNL     1     -21.285 -43.715  39.403  1.00  0.00     0.183 A 
ATOM     22  HN  UNL     1     -20.883 -43.060  37.508  1.00  0.00     0.168 HD
HETATM   23  C   UNL     1     -23.479 -40.596  41.593  1.00  0.00     0.188 A 
ATOM     24  HN  UNL     1     -23.299 -39.363  39.857  1.00  0.00     0.167 HD
ATOM     25  HN  UNL     1     -21.764 -44.258  41.346  1.00  0.00     0.168 HD
ENDBRANCH   8  11
BRANCH   9  26
HETATM   26  O   UNL     1     -21.268 -42.189  44.496  1.00  0.00    -0.388 OA
ATOM     27  HO  UNL     1     -20.881 -41.695  45.209  1.00  0.00     0.210 HD
ENDBRANCH   9  26
BRANCH  10  28
HETATM   28  O   UNL     1     -23.144 -43.279  46.051  1.00  0.00    -0.272 OA
BRANCH  28  29
HETATM   29  P   UNL     1     -23.479 -43.577  47.626  1.00  0.00     0.422 P 
HETATM   30  O   UNL     1     -24.972 -43.449  47.798  1.00  0.00    -0.617 OA
HETATM   31  O   UNL     1     -22.791 -42.499  48.382  1.00  0.00    -0.617 OA
HETATM   32  O   UNL     1     -22.916 -44.938  47.728  1.00  0.00    -0.617 OA
ENDBRANCH  28  29
ENDBRANCH  10  28
ENDBRANCH   5   6
ENDBRANCH   4   5
ENDBRANCH   1   4
BRANCH   1  33
HETATM   33  O   UNL     1     -26.585 -38.625  43.283  1.00  0.00    -0.180 OA
BRANCH  33  34
HETATM   34  P   UNL     1     -27.211 -37.364  42.535  1.00  0.00     0.417 P 
HETATM   35  O   UNL     1     -27.109 -36.130  43.397  1.00  0.00    -0.624 OA
HETATM   36  O   UNL     1     -28.409 -37.992  42.026  1.00  0.00    -0.624 OA
BRANCH  34  37
HETATM   37  O   UNL     1     -26.300 -37.113  41.204  1.00  0.00    -0.289 OA
BRANCH  37  38
HETATM   38  C   UNL     1     -26.339 -38.086  40.228  1.00  0.00     0.193 C 
BRANCH  38  39
HETATM   39  C   UNL     1     -25.823 -37.611  38.893  1.00  0.00     0.009 C 
HETATM   40  C   UNL     1     -25.774 -38.919  38.112  1.00  0.00     0.020 C 
HETATM   41  C   UNL     1     -26.700 -36.624  38.140  1.00  0.00     0.020 C 
BRANCH  39  42
HETATM   42  C   UNL     1     -24.392 -36.975  38.964  1.00  0.00     0.219 C 
BRANCH  42  43
HETATM   43  C   UNL     1     -23.688 -36.947  37.629  1.00  0.00     0.247 C 
HETATM   44  O   UNL     1     -23.067 -37.928  37.214  1.00  0.00    -0.271 OA
HETATM   45  N   UNL     1     -23.832 -35.804  36.963  1.00  0.00    -0.358 N 
ATOM     46  HN  UNL     1     -24.384 -35.059  37.388  1.00  0.00     0.162 HD
BRANCH  45  47
HETATM   47  C   UNL     1     -23.236 -35.567  35.651  1.00  0.00     0.132 C 
BRANCH  47  48
HETATM   48  C   UNL     1     -22.168 -34.480  35.724  1.00  0.00     0.122 C 
BRANCH  48  49
HETATM   49  C   UNL     1     -21.570 -34.190  34.360  1.00  0.00     0.219 C 
HETATM   50  N   UNL     1     -21.480 -32.905  34.023  1.00  0.00    -0.360 N 
ATOM     51  HN  UNL     1     -21.842 -32.203  34.668  1.00  0.00     0.162 HD
HETATM   52  O   UNL     1     -21.178 -35.137  33.654  1.00  0.00    -0.274 OA
BRANCH  50  53
HETATM   53  C   UNL     1     -20.884 -32.462  32.767  1.00  0.00     0.133 C 
BRANCH  53  54
HETATM   54  C   UNL     1     -21.267 -31.016  32.462  1.00  0.00     0.102 C 
BRANCH  54  55
HETATM   55  S   UNL     1     -20.200 -30.315  31.235  1.00  0.00    -0.091 SA
BRANCH  55  56
HETATM   56  C   UNL     1     -18.888 -29.881  32.230  1.00  0.00     0.182 C 
HETATM   57  O   UNL     1     -18.952 -30.072  33.439  1.00  0.00    -0.286 OA
HETATM   58  C   UNL     1     -17.717 -29.145  31.636  1.00  0.00     0.104 C 
ENDBRANCH  55  56
ENDBRANCH  54  55
ENDBRANCH  53  54
ENDBRANCH  50  53
ENDBRANCH  48  49
ENDBRANCH  47  48
ENDBRANCH  45  47
ENDBRANCH  42  43
BRANCH  42  59
HETATM   59  O   UNL     1     -23.518 -37.642  39.881  1.00  0.00    -0.385 OA
ATOM     60  HO  UNL     1     -22.651 -37.257  39.924  1.00  0.00     0.210 HD
ENDBRANCH  42  59
ENDBRANCH  39  42
ENDBRANCH  38  39
ENDBRANCH  37  38
ENDBRANCH  34  37
ENDBRANCH  33  34
ENDBRANCH   1  33
TORSDOF 22
