MODEL 1
REMARK VINA RESULT:   -10.114      0.000      0.000
REMARK INTER + INTRA:         -12.726
REMARK INTER:                 -11.888
REMARK INTRA:                  -0.838
REMARK UNBOUND:                -0.838
REMARK  3 active torsions:
REMARK  status: ('A' for Active; 'I' for Inactive)
REMARK    1  A    between atoms: C_4  and  C_7 
REMARK    2  A    between atoms: C_11  and  C_14 
REMARK    3  A    between atoms: C_12  and  C_13 
ROOT
HETATM    1  C   UNL     1      21.528  12.346  21.582  1.00  0.00     0.049 A 
HETATM    2  C   UNL     1      22.585  12.671  20.717  1.00  0.00     0.106 A 
HETATM    3  C   UNL     1      23.705  11.817  20.491  1.00  0.00     0.270 A 
HETATM    4  C   UNL     1      22.576  10.286  22.040  1.00  0.00     0.144 A 
HETATM    5  C   UNL     1      22.873   8.946  22.595  1.00  0.00     0.053 A 
HETATM    6  C   UNL     1      24.067   8.604  22.025  1.00  0.00     0.147 A 
HETATM    7  N   UNL     1      23.640  10.579  21.174  1.00  0.00    -0.202 N 
HETATM    8  N   UNL     1      21.551  11.121  22.226  1.00  0.00    -0.339 N 
ATOM      9  HN  UNL     1      20.784  10.856  22.843  1.00  0.00     0.167 HD
HETATM   10  N   UNL     1      24.552   9.552  21.190  1.00  0.00    -0.284 N 
ATOM     11  HN  UNL     1      25.428   9.511  20.669  1.00  0.00     0.187 HD
HETATM   12  O   UNL     1      24.697  11.968  19.777  1.00  0.00    -0.266 OA
ENDROOT
BRANCH   1  13
HETATM   13  C   UNL     1      20.322  13.273  21.797  1.00  0.00    -0.009 A 
HETATM   14  C   UNL     1      19.314  13.073  22.777  1.00  0.00     0.013 A 
HETATM   15  C   UNL     1      18.242  13.976  22.982  1.00  0.00     0.001 A 
HETATM   16  C   UNL     1      18.133  15.126  22.204  1.00  0.00     0.000 A 
HETATM   17  C   UNL     1      19.120  15.379  21.233  1.00  0.00     0.001 A 
HETATM   18  C   UNL     1      20.188  14.489  21.052  1.00  0.00     0.013 A 
ENDBRANCH   1  13
BRANCH   5  19
HETATM   19  C   UNL     1      22.068   8.221  23.576  1.00  0.00    -0.020 A 
HETATM   20  C   UNL     1      21.113   7.259  23.124  1.00  0.00     0.012 A 
HETATM   21  C   UNL     1      20.290   6.528  24.013  1.00  0.00     0.001 A 
HETATM   22  C   UNL     1      20.394   6.750  25.396  1.00  0.00     0.000 A 
HETATM   23  C   UNL     1      21.298   7.737  25.867  1.00  0.00     0.001 A 
HETATM   24  C   UNL     1      22.118   8.460  24.968  1.00  0.00     0.012 A 
ENDBRANCH   5  19
BRANCH   6  25
HETATM   25  C   UNL     1      24.875   7.321  22.167  1.00  0.00     0.434 C 
HETATM   26  F   UNL     1      26.129   7.638  22.508  1.00  0.00    -0.165 F 
HETATM   27  F   UNL     1      24.872   6.645  21.013  1.00  0.00    -0.165 F 
HETATM   28  F   UNL     1      24.353   6.492  23.122  1.00  0.00    -0.165 F 
ENDBRANCH   6  25
TORSDOF 3
ENDMDL
MODEL 2
REMARK VINA RESULT:   -10.030      3.293      4.898
REMARK INTER + INTRA:         -12.627
REMARK INTER:                 -11.844
REMARK INTRA:                  -0.783
REMARK UNBOUND:                -0.838
REMARK  3 active torsions:
REMARK  status: ('A' for Active; 'I' for Inactive)
REMARK    1  A    between atoms: C_4  and  C_7 
REMARK    2  A    between atoms: C_11  and  C_14 
REMARK    3  A    between atoms: C_12  and  C_13 
ROOT
HETATM    1  C   UNL     1      17.875  14.365  22.828  1.00  0.00     0.049 A 
HETATM    2  C   UNL     1      18.093  15.394  21.897  1.00  0.00     0.106 A 
HETATM    3  C   UNL     1      19.272  15.496  21.101  1.00  0.00     0.270 A 
HETATM    4  C   UNL     1      19.953  13.428  22.230  1.00  0.00     0.144 A 
HETATM    5  C   UNL     1      21.136  12.539  22.171  1.00  0.00     0.053 A 
HETATM    6  C   UNL     1      21.942  13.117  21.231  1.00  0.00     0.147 A 
HETATM    7  N   UNL     1      20.192  14.437  21.286  1.00  0.00    -0.202 N 
HETATM    8  N   UNL     1      18.835  13.378  22.960  1.00  0.00    -0.339 N 
ATOM      9  HN  UNL     1      18.689  12.610  23.615  1.00  0.00     0.167 HD
HETATM   10  N   UNL     1      21.418  14.244  20.697  1.00  0.00    -0.284 N 
ATOM     11  HN  UNL     1      21.852  14.839  19.991  1.00  0.00     0.187 HD
HETATM   12  O   UNL     1      19.601  16.333  20.260  1.00  0.00    -0.266 OA
ENDROOT
BRANCH   1  13
HETATM   13  C   UNL     1      16.590  14.265  23.663  1.00  0.00    -0.009 A 
HETATM   14  C   UNL     1      15.370  14.919  23.348  1.00  0.00     0.013 A 
HETATM   15  C   UNL     1      14.187  14.764  24.113  1.00  0.00     0.001 A 
HETATM   16  C   UNL     1      14.180  13.941  25.237  1.00  0.00     0.000 A 
HETATM   17  C   UNL     1      15.361  13.254  25.577  1.00  0.00     0.001 A 
HETATM   18  C   UNL     1      16.520  13.399  24.802  1.00  0.00     0.013 A 
ENDBRANCH   1  13
BRANCH   5  19
HETATM   19  C   UNL     1      21.368  11.357  22.998  1.00  0.00    -0.020 A 
HETATM   20  C   UNL     1      21.210  11.452  24.415  1.00  0.00     0.012 A 
HETATM   21  C   UNL     1      21.429  10.355  25.281  1.00  0.00     0.001 A 
HETATM   22  C   UNL     1      21.827   9.118  24.747  1.00  0.00     0.000 A 
HETATM   23  C   UNL     1      22.041   9.012  23.348  1.00  0.00     0.001 A 
HETATM   24  C   UNL     1      21.816  10.116  22.492  1.00  0.00     0.012 A 
ENDBRANCH   5  19
BRANCH   6  25
HETATM   25  C   UNL     1      23.287  12.650  20.691  1.00  0.00     0.434 C 
HETATM   26  F   UNL     1      23.822  13.632  19.957  1.00  0.00    -0.165 F 
HETATM   27  F   UNL     1      23.126  11.554  19.941  1.00  0.00    -0.165 F 
HETATM   28  F   UNL     1      24.156  12.325  21.697  1.00  0.00    -0.165 F 
ENDBRANCH   6  25
TORSDOF 3
ENDMDL
MODEL 3
REMARK VINA RESULT:    -9.321      3.962      7.027
REMARK INTER + INTRA:         -11.794
REMARK INTER:                 -11.876
REMARK INTRA:                   0.082
REMARK UNBOUND:                -0.838
REMARK  3 active torsions:
REMARK  status: ('A' for Active; 'I' for Inactive)
REMARK    1  A    between atoms: C_4  and  C_7 
REMARK    2  A    between atoms: C_11  and  C_14 
REMARK    3  A    between atoms: C_12  and  C_13 
ROOT
HETATM    1  C   UNL     1      21.883  10.481  22.762  1.00  0.00     0.049 A 
HETATM    2  C   UNL     1      22.869  10.766  21.804  1.00  0.00     0.106 A 
HETATM    3  C   UNL     1      22.841  11.922  20.968  1.00  0.00     0.270 A 
HETATM    4  C   UNL     1      20.781  12.481  22.177  1.00  0.00     0.144 A 
HETATM    5  C   UNL     1      19.802  13.590  22.127  1.00  0.00     0.053 A 
HETATM    6  C   UNL     1      20.282  14.417  21.151  1.00  0.00     0.147 A 
HETATM    7  N   UNL     1      21.757  12.796  21.221  1.00  0.00    -0.202 N 
HETATM    8  N   UNL     1      20.846  11.382  22.933  1.00  0.00    -0.339 N 
ATOM      9  HN  UNL     1      20.129  11.205  23.637  1.00  0.00     0.167 HD
HETATM   10  N   UNL     1      21.429  13.971  20.589  1.00  0.00    -0.284 N 
ATOM     11  HN  UNL     1      21.953  14.423  19.838  1.00  0.00     0.187 HD
HETATM   12  O   UNL     1      23.621  12.296  20.091  1.00  0.00    -0.266 OA
ENDROOT
BRANCH   1  13
HETATM   13  C   UNL     1      21.942   9.240  23.665  1.00  0.00    -0.009 A 
HETATM   14  C   UNL     1      21.592   9.224  25.040  1.00  0.00     0.013 A 
HETATM   15  C   UNL     1      21.610   8.049  25.831  1.00  0.00     0.001 A 
HETATM   16  C   UNL     1      21.986   6.830  25.271  1.00  0.00     0.000 A 
HETATM   17  C   UNL     1      22.321   6.791  23.905  1.00  0.00     0.001 A 
HETATM   18  C   UNL     1      22.281   7.957  23.126  1.00  0.00     0.013 A 
ENDBRANCH   1  13
BRANCH   5  19
HETATM   19  C   UNL     1      18.580  13.698  22.920  1.00  0.00    -0.020 A 
HETATM   20  C   UNL     1      18.284  12.690  23.891  1.00  0.00     0.012 A 
HETATM   21  C   UNL     1      17.115  12.720  24.687  1.00  0.00     0.001 A 
HETATM   22  C   UNL     1      16.193  13.767  24.526  1.00  0.00     0.000 A 
HETATM   23  C   UNL     1      16.437  14.751  23.533  1.00  0.00     0.001 A 
HETATM   24  C   UNL     1      17.612  14.712  22.744  1.00  0.00     0.012 A 
ENDBRANCH   5  19
BRANCH   6  25
HETATM   25  C   UNL     1      19.738  15.752  20.660  1.00  0.00     0.434 C 
HETATM   26  F   UNL     1      18.622  15.530  19.958  1.00  0.00    -0.165 F 
HETATM   27  F   UNL     1      20.647  16.364  19.892  1.00  0.00    -0.165 F 
HETATM   28  F   UNL     1      19.450  16.598  21.696  1.00  0.00    -0.165 F 
ENDBRANCH   6  25
TORSDOF 3
ENDMDL
MODEL 4
REMARK VINA RESULT:    -9.287      1.439      2.236
REMARK INTER + INTRA:         -11.753
REMARK INTER:                 -10.701
REMARK INTRA:                  -1.052
REMARK UNBOUND:                -0.838
REMARK  3 active torsions:
REMARK  status: ('A' for Active; 'I' for Inactive)
REMARK    1  A    between atoms: C_4  and  C_7 
REMARK    2  A    between atoms: C_11  and  C_14 
REMARK    3  A    between atoms: C_12  and  C_13 
ROOT
HETATM    1  C   UNL     1      19.808  12.728  22.791  1.00  0.00     0.049 A 
HETATM    2  C   UNL     1      20.585  13.526  21.936  1.00  0.00     0.106 A 
HETATM    3  C   UNL     1      21.845  13.116  21.408  1.00  0.00     0.270 A 
HETATM    4  C   UNL     1      21.441  11.034  22.641  1.00  0.00     0.144 A 
HETATM    5  C   UNL     1      22.177   9.763  22.828  1.00  0.00     0.053 A 
HETATM    6  C   UNL     1      23.313   9.923  22.085  1.00  0.00     0.147 A 
HETATM    7  N   UNL     1      22.231  11.805  21.777  1.00  0.00    -0.202 N 
HETATM    8  N   UNL     1      20.268  11.464  23.117  1.00  0.00    -0.339 N 
ATOM      9  HN  UNL     1      19.712  10.860  23.720  1.00  0.00     0.167 HD
HETATM   10  N   UNL     1      23.380  11.121  21.460  1.00  0.00    -0.284 N 
ATOM     11  HN  UNL     1      24.140  11.454  20.866  1.00  0.00     0.187 HD
HETATM   12  O   UNL     1      22.631  13.701  20.662  1.00  0.00    -0.266 OA
ENDROOT
BRANCH   1  13
HETATM   13  C   UNL     1      18.445  13.182  23.333  1.00  0.00    -0.009 A 
HETATM   14  C   UNL     1      17.729  12.527  24.369  1.00  0.00     0.013 A 
HETATM   15  C   UNL     1      16.496  13.002  24.880  1.00  0.00     0.001 A 
HETATM   16  C   UNL     1      15.924  14.164  24.367  1.00  0.00     0.000 A 
HETATM   17  C   UNL     1      16.607  14.861  23.353  1.00  0.00     0.001 A 
HETATM   18  C   UNL     1      17.837  14.393  22.868  1.00  0.00     0.013 A 
ENDBRANCH   1  13
BRANCH   5  19
HETATM   19  C   UNL     1      21.768   8.647  23.677  1.00  0.00    -0.020 A 
HETATM   20  C   UNL     1      21.826   8.790  25.098  1.00  0.00     0.012 A 
HETATM   21  C   UNL     1      21.458   7.749  25.983  1.00  0.00     0.001 A 
HETATM   22  C   UNL     1      21.027   6.518  25.464  1.00  0.00     0.000 A 
HETATM   23  C   UNL     1      21.010   6.332  24.058  1.00  0.00     0.001 A 
HETATM   24  C   UNL     1      21.378   7.382  23.182  1.00  0.00     0.012 A 
ENDBRANCH   5  19
BRANCH   6  25
HETATM   25  C   UNL     1      24.453   8.944  21.840  1.00  0.00     0.434 C 
HETATM   26  F   UNL     1      25.433   9.579  21.187  1.00  0.00    -0.165 F 
HETATM   27  F   UNL     1      24.020   7.906  21.116  1.00  0.00    -0.165 F 
HETATM   28  F   UNL     1      24.954   8.440  23.009  1.00  0.00    -0.165 F 
ENDBRANCH   6  25
TORSDOF 3
ENDMDL
MODEL 5
REMARK VINA RESULT:    -9.175      4.025      6.848
REMARK INTER + INTRA:         -11.622
REMARK INTER:                 -11.342
REMARK INTRA:                  -0.280
REMARK UNBOUND:                -0.838
REMARK  3 active torsions:
REMARK  status: ('A' for Active; 'I' for Inactive)
REMARK    1  A    between atoms: C_4  and  C_7 
REMARK    2  A    between atoms: C_11  and  C_14 
REMARK    3  A    between atoms: C_12  and  C_13 
ROOT
HETATM    1  C   UNL     1      22.676  10.572  21.757  1.00  0.00     0.049 A 
HETATM    2  C   UNL     1      23.468  11.348  20.896  1.00  0.00     0.106 A 
HETATM    3  C   UNL     1      23.086  12.643  20.433  1.00  0.00     0.270 A 
HETATM    4  C   UNL     1      21.085  12.309  21.811  1.00  0.00     0.144 A 
HETATM    5  C   UNL     1      19.873  13.104  22.114  1.00  0.00     0.053 A 
HETATM    6  C   UNL     1      20.047  14.261  21.408  1.00  0.00     0.147 A 
HETATM    7  N   UNL     1      21.859  13.111  20.961  1.00  0.00    -0.202 N 
HETATM    8  N   UNL     1      21.480  11.098  22.212  1.00  0.00    -0.339 N 
ATOM      9  HN  UNL     1      20.898  10.559  22.854  1.00  0.00     0.167 HD
HETATM   10  N   UNL     1      21.204  14.292  20.708  1.00  0.00    -0.284 N 
ATOM     11  HN  UNL     1      21.530  15.050  20.106  1.00  0.00     0.187 HD
HETATM   12  O   UNL     1      23.665  13.429  19.682  1.00  0.00    -0.266 OA
ENDROOT
BRANCH   1  13
HETATM   13  C   UNL     1      23.114   9.187  22.256  1.00  0.00    -0.009 A 
HETATM   14  C   UNL     1      24.431   8.668  22.148  1.00  0.00     0.013 A 
HETATM   15  C   UNL     1      24.812   7.406  22.666  1.00  0.00     0.001 A 
HETATM   16  C   UNL     1      23.879   6.603  23.317  1.00  0.00     0.000 A 
HETATM   17  C   UNL     1      22.565   7.083  23.469  1.00  0.00     0.001 A 
HETATM   18  C   UNL     1      22.203   8.342  22.970  1.00  0.00     0.013 A 
ENDBRANCH   1  13
BRANCH   5  19
HETATM   19  C   UNL     1      18.745  12.677  22.939  1.00  0.00    -0.020 A 
HETATM   20  C   UNL     1      18.369  11.298  22.949  1.00  0.00     0.012 A 
HETATM   21  C   UNL     1      17.281  10.812  23.712  1.00  0.00     0.001 A 
HETATM   22  C   UNL     1      16.525  11.705  24.489  1.00  0.00     0.000 A 
HETATM   23  C   UNL     1      16.845  13.086  24.455  1.00  0.00     0.001 A 
HETATM   24  C   UNL     1      17.938  13.561  23.690  1.00  0.00     0.012 A 
ENDBRANCH   5  19
BRANCH   6  25
HETATM   25  C   UNL     1      19.160  15.497  21.342  1.00  0.00     0.434 C 
HETATM   26  F   UNL     1      18.033  15.185  20.693  1.00  0.00    -0.165 F 
HETATM   27  F   UNL     1      19.796  16.486  20.705  1.00  0.00    -0.165 F 
HETATM   28  F   UNL     1      18.839  15.962  22.589  1.00  0.00    -0.165 F 
ENDBRANCH   6  25
TORSDOF 3
ENDMDL
MODEL 6
REMARK VINA RESULT:    -8.865      2.822      4.888
REMARK INTER + INTRA:         -11.258
REMARK INTER:                 -10.336
REMARK INTRA:                  -0.921
REMARK UNBOUND:                -0.838
REMARK  3 active torsions:
REMARK  status: ('A' for Active; 'I' for Inactive)
REMARK    1  A    between atoms: C_4  and  C_7 
REMARK    2  A    between atoms: C_11  and  C_14 
REMARK    3  A    between atoms: C_12  and  C_13 
ROOT
HETATM    1  C   UNL     1      18.472  11.243  24.199  1.00  0.00     0.049 A 
HETATM    2  C   UNL     1      18.252  10.055  24.915  1.00  0.00     0.106 A 
HETATM    3  C   UNL     1      19.146   8.943  24.884  1.00  0.00     0.270 A 
HETATM    4  C   UNL     1      20.500  10.348  23.398  1.00  0.00     0.144 A 
HETATM    5  C   UNL     1      21.787  10.187  22.684  1.00  0.00     0.053 A 
HETATM    6  C   UNL     1      22.205   8.932  23.027  1.00  0.00     0.147 A 
HETATM    7  N   UNL     1      20.312   9.155  24.110  1.00  0.00    -0.202 N 
HETATM    8  N   UNL     1      19.630  11.361  23.451  1.00  0.00    -0.339 N 
ATOM      9  HN  UNL     1      19.820  12.222  22.940  1.00  0.00     0.167 HD
HETATM   10  N   UNL     1      21.351   8.292  23.859  1.00  0.00    -0.284 N 
ATOM     11  HN  UNL     1      21.459   7.348  24.230  1.00  0.00     0.187 HD
HETATM   12  O   UNL     1      19.084   7.849  25.446  1.00  0.00    -0.266 OA
ENDROOT
BRANCH   1  13
HETATM   13  C   UNL     1      17.505  12.434  24.261  1.00  0.00    -0.009 A 
HETATM   14  C   UNL     1      16.407  12.538  25.154  1.00  0.00     0.013 A 
HETATM   15  C   UNL     1      15.565  13.675  25.219  1.00  0.00     0.001 A 
HETATM   16  C   UNL     1      15.789  14.765  24.380  1.00  0.00     0.000 A 
HETATM   17  C   UNL     1      16.879  14.718  23.491  1.00  0.00     0.001 A 
HETATM   18  C   UNL     1      17.719  13.595  23.449  1.00  0.00     0.013 A 
ENDBRANCH   1  13
BRANCH   5  19
HETATM   19  C   UNL     1      22.398  11.157  21.778  1.00  0.00    -0.020 A 
HETATM   20  C   UNL     1      22.735  12.457  22.269  1.00  0.00     0.012 A 
HETATM   21  C   UNL     1      23.318  13.452  21.450  1.00  0.00     0.001 A 
HETATM   22  C   UNL     1      23.573  13.175  20.097  1.00  0.00     0.000 A 
HETATM   23  C   UNL     1      23.200  11.910  19.573  1.00  0.00     0.001 A 
HETATM   24  C   UNL     1      22.620  10.921  20.403  1.00  0.00     0.012 A 
ENDBRANCH   5  19
BRANCH   6  25
HETATM   25  C   UNL     1      23.484   8.200  22.643  1.00  0.00     0.434 C 
HETATM   26  F   UNL     1      23.509   8.043  21.315  1.00  0.00    -0.165 F 
HETATM   27  F   UNL     1      23.528   7.006  23.245  1.00  0.00    -0.165 F 
HETATM   28  F   UNL     1      24.601   8.888  23.029  1.00  0.00    -0.165 F 
ENDBRANCH   6  25
TORSDOF 3
ENDMDL
MODEL 7
REMARK VINA RESULT:    -8.847      5.398      7.469
REMARK INTER + INTRA:         -11.236
REMARK INTER:                 -10.315
REMARK INTRA:                  -0.921
REMARK UNBOUND:                -0.838
REMARK  3 active torsions:
REMARK  status: ('A' for Active; 'I' for Inactive)
REMARK    1  A    between atoms: C_4  and  C_7 
REMARK    2  A    between atoms: C_11  and  C_14 
REMARK    3  A    between atoms: C_12  and  C_13 
ROOT
HETATM    1  C   UNL     1      20.534  13.251  21.698  1.00  0.00     0.049 A 
HETATM    2  C   UNL     1      20.338  14.495  21.076  1.00  0.00     0.106 A 
HETATM    3  C   UNL     1      19.174  15.296  21.274  1.00  0.00     0.270 A 
HETATM    4  C   UNL     1      18.466  13.508  22.797  1.00  0.00     0.144 A 
HETATM    5  C   UNL     1      17.282  13.264  23.653  1.00  0.00     0.053 A 
HETATM    6  C   UNL     1      16.496  14.365  23.457  1.00  0.00     0.147 A 
HETATM    7  N   UNL     1      18.248  14.758  22.199  1.00  0.00    -0.202 N 
HETATM    8  N   UNL     1      19.569  12.789  22.575  1.00  0.00    -0.339 N 
ATOM      9  HN  UNL     1      19.700  11.898  23.053  1.00  0.00     0.167 HD
HETATM   10  N   UNL     1      17.033  15.261  22.597  1.00  0.00    -0.284 N 
ATOM     11  HN  UNL     1      16.614  16.143  22.300  1.00  0.00     0.187 HD
HETATM   12  O   UNL     1      18.863  16.390  20.800  1.00  0.00    -0.266 OA
ENDROOT
BRANCH   1  13
HETATM   13  C   UNL     1      21.803  12.413  21.484  1.00  0.00    -0.009 A 
HETATM   14  C   UNL     1      22.005  11.107  22.002  1.00  0.00     0.013 A 
HETATM   15  C   UNL     1      23.168  10.341  21.743  1.00  0.00     0.001 A 
HETATM   16  C   UNL     1      24.188  10.858  20.947  1.00  0.00     0.000 A 
HETATM   17  C   UNL     1      24.024  12.142  20.392  1.00  0.00     0.001 A 
HETATM   18  C   UNL     1      22.860  12.883  20.639  1.00  0.00     0.013 A 
ENDBRANCH   1  13
BRANCH   5  19
HETATM   19  C   UNL     1      17.031  12.071  24.456  1.00  0.00    -0.020 A 
HETATM   20  C   UNL     1      16.944  10.798  23.811  1.00  0.00     0.012 A 
HETATM   21  C   UNL     1      16.691   9.601  24.521  1.00  0.00     0.001 A 
HETATM   22  C   UNL     1      16.505   9.645  25.912  1.00  0.00     0.000 A 
HETATM   23  C   UNL     1      16.535  10.902  26.569  1.00  0.00     0.001 A 
HETATM   24  C   UNL     1      16.792  12.093  25.849  1.00  0.00     0.012 A 
ENDBRANCH   5  19
BRANCH   6  25
HETATM   25  C   UNL     1      15.160  14.725  24.094  1.00  0.00     0.434 C 
HETATM   26  F   UNL     1      14.568  15.666  23.351  1.00  0.00    -0.165 F 
HETATM   27  F   UNL     1      15.351  15.177  25.338  1.00  0.00    -0.165 F 
HETATM   28  F   UNL     1      14.329  13.642  24.182  1.00  0.00    -0.165 F 
ENDBRANCH   6  25
TORSDOF 3
ENDMDL
MODEL 8
REMARK VINA RESULT:    -8.782      1.898      2.550
REMARK INTER + INTRA:         -11.160
REMARK INTER:                 -10.537
REMARK INTRA:                  -0.623
REMARK UNBOUND:                -0.838
REMARK  3 active torsions:
REMARK  status: ('A' for Active; 'I' for Inactive)
REMARK    1  A    between atoms: C_4  and  C_7 
REMARK    2  A    between atoms: C_11  and  C_14 
REMARK    3  A    between atoms: C_12  and  C_13 
ROOT
HETATM    1  C   UNL     1      21.023  12.248  22.154  1.00  0.00     0.049 A 
HETATM    2  C   UNL     1      22.297  12.099  21.584  1.00  0.00     0.106 A 
HETATM    3  C   UNL     1      23.100  10.932  21.750  1.00  0.00     0.270 A 
HETATM    4  C   UNL     1      21.211  10.083  23.066  1.00  0.00     0.144 A 
HETATM    5  C   UNL     1      20.921   8.831  23.800  1.00  0.00     0.053 A 
HETATM    6  C   UNL     1      22.037   8.065  23.611  1.00  0.00     0.147 A 
HETATM    7  N   UNL     1      22.481   9.902  22.499  1.00  0.00    -0.202 N 
HETATM    8  N   UNL     1      20.499  11.199  22.888  1.00  0.00    -0.339 N 
ATOM      9  HN  UNL     1      19.567  11.278  23.295  1.00  0.00     0.167 HD
HETATM   10  N   UNL     1      22.981   8.673  22.856  1.00  0.00    -0.284 N 
ATOM     11  HN  UNL     1      23.892   8.291  22.600  1.00  0.00     0.187 HD
HETATM   12  O   UNL     1      24.223  10.663  21.322  1.00  0.00    -0.266 OA
ENDROOT
BRANCH   1  13
HETATM   13  C   UNL     1      20.167  13.507  21.947  1.00  0.00    -0.009 A 
HETATM   14  C   UNL     1      20.397  14.483  20.943  1.00  0.00     0.013 A 
HETATM   15  C   UNL     1      19.558  15.608  20.748  1.00  0.00     0.001 A 
HETATM   16  C   UNL     1      18.444  15.803  21.561  1.00  0.00     0.000 A 
HETATM   17  C   UNL     1      18.162  14.850  22.558  1.00  0.00     0.001 A 
HETATM   18  C   UNL     1      18.988  13.730  22.730  1.00  0.00     0.013 A 
ENDBRANCH   1  13
BRANCH   5  19
HETATM   19  C   UNL     1      19.722   8.551  24.587  1.00  0.00    -0.020 A 
HETATM   20  C   UNL     1      18.446   8.959  24.087  1.00  0.00     0.012 A 
HETATM   21  C   UNL     1      17.243   8.733  24.798  1.00  0.00     0.001 A 
HETATM   22  C   UNL     1      17.285   8.094  26.047  1.00  0.00     0.000 A 
HETATM   23  C   UNL     1      18.544   7.726  26.589  1.00  0.00     0.001 A 
HETATM   24  C   UNL     1      19.740   7.954  25.867  1.00  0.00     0.012 A 
ENDBRANCH   5  19
BRANCH   6  25
HETATM   25  C   UNL     1      22.329   6.648  24.084  1.00  0.00     0.434 C 
HETATM   26  F   UNL     1      23.487   6.244  23.548  1.00  0.00    -0.165 F 
HETATM   27  F   UNL     1      21.342   5.826  23.712  1.00  0.00    -0.165 F 
HETATM   28  F   UNL     1      22.423   6.574  25.447  1.00  0.00    -0.165 F 
ENDBRANCH   6  25
TORSDOF 3
ENDMDL
MODEL 9
REMARK VINA RESULT:    -8.641      4.679      7.111
REMARK INTER + INTRA:         -10.993
REMARK INTER:                 -10.057
REMARK INTRA:                  -0.937
REMARK UNBOUND:                -0.838
REMARK  3 active torsions:
REMARK  status: ('A' for Active; 'I' for Inactive)
REMARK    1  A    between atoms: C_4  and  C_7 
REMARK    2  A    between atoms: C_11  and  C_14 
REMARK    3  A    between atoms: C_12  and  C_13 
ROOT
HETATM    1  C   UNL     1      21.616  10.972  22.270  1.00  0.00     0.049 A 
HETATM    2  C   UNL     1      22.031  12.087  21.524  1.00  0.00     0.106 A 
HETATM    3  C   UNL     1      21.250  13.273  21.384  1.00  0.00     0.270 A 
HETATM    4  C   UNL     1      19.640  12.126  22.836  1.00  0.00     0.144 A 
HETATM    5  C   UNL     1      18.318  12.463  23.411  1.00  0.00     0.053 A 
HETATM    6  C   UNL     1      18.066  13.726  22.953  1.00  0.00     0.147 A 
HETATM    7  N   UNL     1      20.035  13.258  22.108  1.00  0.00    -0.202 N 
HETATM    8  N   UNL     1      20.403  11.034  22.933  1.00  0.00    -0.339 N 
ATOM      9  HN  UNL     1      20.091  10.243  23.497  1.00  0.00     0.167 HD
HETATM   10  N   UNL     1      19.055  14.219  22.173  1.00  0.00    -0.284 N 
ATOM     11  HN  UNL     1      19.071  15.133  21.718  1.00  0.00     0.187 HD
HETATM   12  O   UNL     1      21.478  14.314  20.766  1.00  0.00    -0.266 OA
ENDROOT
BRANCH   1  13
HETATM   13  C   UNL     1      22.480   9.712  22.422  1.00  0.00    -0.009 A 
HETATM   14  C   UNL     1      23.753   9.528  21.821  1.00  0.00     0.013 A 
HETATM   15  C   UNL     1      24.547   8.372  22.024  1.00  0.00     0.001 A 
HETATM   16  C   UNL     1      24.092   7.343  22.844  1.00  0.00     0.000 A 
HETATM   17  C   UNL     1      22.845   7.488  23.480  1.00  0.00     0.001 A 
HETATM   18  C   UNL     1      22.076   8.645  23.288  1.00  0.00     0.013 A 
ENDBRANCH   1  13
BRANCH   5  19
HETATM   19  C   UNL     1      17.483  11.584  24.226  1.00  0.00    -0.020 A 
HETATM   20  C   UNL     1      17.233  11.925  25.591  1.00  0.00     0.012 A 
HETATM   21  C   UNL     1      16.444  11.117  26.445  1.00  0.00     0.001 A 
HETATM   22  C   UNL     1      15.886   9.926  25.952  1.00  0.00     0.000 A 
HETATM   23  C   UNL     1      16.162   9.540  24.616  1.00  0.00     0.001 A 
HETATM   24  C   UNL     1      16.950  10.357  23.770  1.00  0.00     0.012 A 
ENDBRANCH   5  19
BRANCH   6  25
HETATM   25  C   UNL     1      16.879  14.637  23.232  1.00  0.00     0.434 C 
HETATM   26  F   UNL     1      15.760  13.905  23.214  1.00  0.00    -0.165 F 
HETATM   27  F   UNL     1      16.810  15.600  22.306  1.00  0.00    -0.165 F 
HETATM   28  F   UNL     1      16.984  15.254  24.449  1.00  0.00    -0.165 F 
ENDBRANCH   6  25
TORSDOF 3
ENDMDL
MODEL 10
REMARK VINA RESULT:    -8.640      3.732      7.669
REMARK INTER + INTRA:         -10.993
REMARK INTER:                 -10.072
REMARK INTRA:                  -0.920
REMARK UNBOUND:                -0.838
REMARK  3 active torsions:
REMARK  status: ('A' for Active; 'I' for Inactive)
REMARK    1  A    between atoms: C_4  and  C_7 
REMARK    2  A    between atoms: C_11  and  C_14 
REMARK    3  A    between atoms: C_12  and  C_13 
ROOT
HETATM    1  C   UNL     1      23.678   7.346  23.181  1.00  0.00     0.049 A 
HETATM    2  C   UNL     1      22.778   6.684  24.032  1.00  0.00     0.106 A 
HETATM    3  C   UNL     1      21.525   7.237  24.432  1.00  0.00     0.270 A 
HETATM    4  C   UNL     1      22.156   9.137  23.015  1.00  0.00     0.144 A 
HETATM    5  C   UNL     1      21.530  10.428  22.647  1.00  0.00     0.053 A 
HETATM    6  C   UNL     1      20.336  10.421  23.311  1.00  0.00     0.147 A 
HETATM    7  N   UNL     1      21.233   8.496  23.853  1.00  0.00    -0.202 N 
HETATM    8  N   UNL     1      23.323   8.583  22.674  1.00  0.00    -0.339 N 
ATOM      9  HN  UNL     1      23.952   9.072  22.038  1.00  0.00     0.167 HD
HETATM   10  N   UNL     1      20.135   9.299  24.040  1.00  0.00    -0.284 N 
ATOM     11  HN  UNL     1      19.321   9.090  24.619  1.00  0.00     0.187 HD
HETATM   12  O   UNL     1      20.646   6.784  25.167  1.00  0.00    -0.266 OA
ENDROOT
BRANCH   1  13
HETATM   13  C   UNL     1      25.014   6.724  22.750  1.00  0.00    -0.009 A 
HETATM   14  C   UNL     1      25.921   7.315  21.831  1.00  0.00     0.013 A 
HETATM   15  C   UNL     1      27.169   6.738  21.493  1.00  0.00     0.001 A 
HETATM   16  C   UNL     1      27.564   5.531  22.067  1.00  0.00     0.000 A 
HETATM   17  C   UNL     1      26.709   4.917  23.001  1.00  0.00     0.001 A 
HETATM   18  C   UNL     1      25.484   5.507  23.343  1.00  0.00     0.013 A 
ENDBRANCH   1  13
BRANCH   5  19
HETATM   19  C   UNL     1      22.125  11.467  21.810  1.00  0.00    -0.020 A 
HETATM   20  C   UNL     1      22.547  11.141  20.484  1.00  0.00     0.012 A 
HETATM   21  C   UNL     1      23.142  12.091  19.619  1.00  0.00     0.001 A 
HETATM   22  C   UNL     1      23.342  13.407  20.067  1.00  0.00     0.000 A 
HETATM   23  C   UNL     1      22.979  13.742  21.397  1.00  0.00     0.001 A 
HETATM   24  C   UNL     1      22.382  12.784  22.252  1.00  0.00     0.012 A 
ENDBRANCH   5  19
BRANCH   6  25
HETATM   25  C   UNL     1      19.219  11.456  23.303  1.00  0.00     0.434 C 
HETATM   26  F   UNL     1      18.119  10.909  23.832  1.00  0.00    -0.165 F 
HETATM   27  F   UNL     1      18.972  11.856  22.050  1.00  0.00    -0.165 F 
HETATM   28  F   UNL     1      19.550  12.571  24.024  1.00  0.00    -0.165 F 
ENDBRANCH   6  25
TORSDOF 3
ENDMDL
MODEL 11
REMARK VINA RESULT:    -8.599      2.962      5.106
REMARK INTER + INTRA:         -10.945
REMARK INTER:                 -10.273
REMARK INTRA:                  -0.672
REMARK UNBOUND:                -0.838
REMARK  3 active torsions:
REMARK  status: ('A' for Active; 'I' for Inactive)
REMARK    1  A    between atoms: C_4  and  C_7 
REMARK    2  A    between atoms: C_11  and  C_14 
REMARK    3  A    between atoms: C_12  and  C_13 
ROOT
HETATM    1  C   UNL     1      22.452   9.725  22.555  1.00  0.00     0.049 A 
HETATM    2  C   UNL     1      21.737   8.614  23.031  1.00  0.00     0.106 A 
HETATM    3  C   UNL     1      22.321   7.326  23.220  1.00  0.00     0.270 A 
HETATM    4  C   UNL     1      24.393   8.392  22.453  1.00  0.00     0.144 A 
HETATM    5  C   UNL     1      25.787   7.944  22.236  1.00  0.00     0.053 A 
HETATM    6  C   UNL     1      25.772   6.623  22.588  1.00  0.00     0.147 A 
HETATM    7  N   UNL     1      23.707   7.269  22.938  1.00  0.00    -0.202 N 
HETATM    8  N   UNL     1      23.801   9.578  22.285  1.00  0.00    -0.339 N 
ATOM      9  HN  UNL     1      24.344  10.376  21.958  1.00  0.00     0.167 HD
HETATM   10  N   UNL     1      24.557   6.192  22.997  1.00  0.00    -0.284 N 
ATOM     11  HN  UNL     1      24.317   5.245  23.293  1.00  0.00     0.187 HD
HETATM   12  O   UNL     1      21.825   6.271  23.619  1.00  0.00    -0.266 OA
ENDROOT
BRANCH   1  13
HETATM   13  C   UNL     1      21.807  11.107  22.376  1.00  0.00    -0.009 A 
HETATM   14  C   UNL     1      20.758  11.619  23.183  1.00  0.00     0.013 A 
HETATM   15  C   UNL     1      20.220  12.920  23.023  1.00  0.00     0.001 A 
HETATM   16  C   UNL     1      20.715  13.768  22.035  1.00  0.00     0.000 A 
HETATM   17  C   UNL     1      21.770  13.313  21.222  1.00  0.00     0.001 A 
HETATM   18  C   UNL     1      22.308  12.031  21.403  1.00  0.00     0.013 A 
ENDBRANCH   1  13
BRANCH   5  19
HETATM   19  C   UNL     1      26.880   8.753  21.703  1.00  0.00    -0.020 A 
HETATM   20  C   UNL     1      27.274   9.940  22.397  1.00  0.00     0.012 A 
HETATM   21  C   UNL     1      28.315  10.780  21.936  1.00  0.00     0.001 A 
HETATM   22  C   UNL     1      28.992  10.458  20.748  1.00  0.00     0.000 A 
HETATM   23  C   UNL     1      28.585   9.315  20.014  1.00  0.00     0.001 A 
HETATM   24  C   UNL     1      27.544   8.480  20.486  1.00  0.00     0.012 A 
ENDBRANCH   5  19
BRANCH   6  25
HETATM   25  C   UNL     1      26.916   5.619  22.622  1.00  0.00     0.434 C 
HETATM   26  F   UNL     1      26.743   4.734  21.634  1.00  0.00    -0.165 F 
HETATM   27  F   UNL     1      26.939   4.988  23.802  1.00  0.00    -0.165 F 
HETATM   28  F   UNL     1      28.133   6.225  22.465  1.00  0.00    -0.165 F 
ENDBRANCH   6  25
TORSDOF 3
ENDMDL
MODEL 12
REMARK VINA RESULT:    -8.556      4.402      7.452
REMARK INTER + INTRA:         -10.894
REMARK INTER:                 -10.157
REMARK INTRA:                  -0.737
REMARK UNBOUND:                -0.838
REMARK  3 active torsions:
REMARK  status: ('A' for Active; 'I' for Inactive)
REMARK    1  A    between atoms: C_4  and  C_7 
REMARK    2  A    between atoms: C_11  and  C_14 
REMARK    3  A    between atoms: C_12  and  C_13 
ROOT
HETATM    1  C   UNL     1      18.673   9.571  24.116  1.00  0.00     0.049 A 
HETATM    2  C   UNL     1      17.416  10.148  24.359  1.00  0.00     0.106 A 
HETATM    3  C   UNL     1      17.048  11.449  23.902  1.00  0.00     0.270 A 
HETATM    4  C   UNL     1      19.291  11.501  22.912  1.00  0.00     0.144 A 
HETATM    5  C   UNL     1      20.066  12.479  22.116  1.00  0.00     0.053 A 
HETATM    6  C   UNL     1      19.215  13.538  21.968  1.00  0.00     0.147 A 
HETATM    7  N   UNL     1      18.041  12.097  23.130  1.00  0.00    -0.202 N 
HETATM    8  N   UNL     1      19.594  10.281  23.366  1.00  0.00    -0.339 N 
ATOM      9  HN  UNL     1      20.506   9.874  23.161  1.00  0.00     0.167 HD
HETATM   10  N   UNL     1      18.015  13.348  22.564  1.00  0.00    -0.284 N 
ATOM     11  HN  UNL     1      17.238  14.009  22.588  1.00  0.00     0.187 HD
HETATM   12  O   UNL     1      15.999  12.080  24.042  1.00  0.00    -0.266 OA
ENDROOT
BRANCH   1  13
HETATM   13  C   UNL     1      19.042   8.162  24.601  1.00  0.00    -0.009 A 
HETATM   14  C   UNL     1      18.742   7.646  25.889  1.00  0.00     0.013 A 
HETATM   15  C   UNL     1      19.053   6.323  26.287  1.00  0.00     0.001 A 
HETATM   16  C   UNL     1      19.686   5.453  25.402  1.00  0.00     0.000 A 
HETATM   17  C   UNL     1      19.986   5.911  24.105  1.00  0.00     0.001 A 
HETATM   18  C   UNL     1      19.656   7.217  23.715  1.00  0.00     0.013 A 
ENDBRANCH   1  13
BRANCH   5  19
HETATM   19  C   UNL     1      21.448  12.325  21.667  1.00  0.00    -0.020 A 
HETATM   20  C   UNL     1      21.740  11.419  20.601  1.00  0.00     0.012 A 
HETATM   21  C   UNL     1      23.054  11.208  20.121  1.00  0.00     0.001 A 
HETATM   22  C   UNL     1      24.127  11.899  20.708  1.00  0.00     0.000 A 
HETATM   23  C   UNL     1      23.869  12.764  21.802  1.00  0.00     0.001 A 
HETATM   24  C   UNL     1      22.550  12.970  22.272  1.00  0.00     0.012 A 
ENDBRANCH   5  19
BRANCH   6  25
HETATM   25  C   UNL     1      19.416  14.842  21.207  1.00  0.00     0.434 C 
HETATM   26  F   UNL     1      19.169  15.865  22.033  1.00  0.00    -0.165 F 
HETATM   27  F   UNL     1      18.591  14.893  20.156  1.00  0.00    -0.165 F 
HETATM   28  F   UNL     1      20.691  14.960  20.725  1.00  0.00    -0.165 F 
ENDBRANCH   6  25
TORSDOF 3
ENDMDL
MODEL 13
REMARK VINA RESULT:    -8.333      3.375      6.384
REMARK INTER + INTRA:         -10.632
REMARK INTER:                  -9.665
REMARK INTRA:                  -0.966
REMARK UNBOUND:                -0.838
REMARK  3 active torsions:
REMARK  status: ('A' for Active; 'I' for Inactive)
REMARK    1  A    between atoms: C_4  and  C_7 
REMARK    2  A    between atoms: C_11  and  C_14 
REMARK    3  A    between atoms: C_12  and  C_13 
ROOT
HETATM    1  C   UNL     1      23.210   6.949  23.292  1.00  0.00     0.049 A 
HETATM    2  C   UNL     1      24.274   6.042  23.419  1.00  0.00     0.106 A 
HETATM    3  C   UNL     1      25.588   6.299  22.925  1.00  0.00     0.270 A 
HETATM    4  C   UNL     1      24.665   8.459  22.217  1.00  0.00     0.144 A 
HETATM    5  C   UNL     1      25.200   9.654  21.525  1.00  0.00     0.053 A 
HETATM    6  C   UNL     1      26.513   9.349  21.298  1.00  0.00     0.147 A 
HETATM    7  N   UNL     1      25.749   7.577  22.339  1.00  0.00    -0.202 N 
HETATM    8  N   UNL     1      23.449   8.171  22.689  1.00  0.00    -0.339 N 
ATOM      9  HN  UNL     1      22.696   8.853  22.604  1.00  0.00     0.167 HD
HETATM   10  N   UNL     1      26.866   8.127  21.757  1.00  0.00    -0.284 N 
ATOM     11  HN  UNL     1      27.787   7.694  21.684  1.00  0.00     0.187 HD
HETATM   12  O   UNL     1      26.606   5.607  22.956  1.00  0.00    -0.266 OA
ENDROOT
BRANCH   1  13
HETATM   13  C   UNL     1      21.808   6.659  23.847  1.00  0.00    -0.009 A 
HETATM   14  C   UNL     1      20.601   7.172  23.302  1.00  0.00     0.013 A 
HETATM   15  C   UNL     1      19.320   6.843  23.809  1.00  0.00     0.001 A 
HETATM   16  C   UNL     1      19.194   5.980  24.895  1.00  0.00     0.000 A 
HETATM   17  C   UNL     1      20.361   5.429  25.457  1.00  0.00     0.001 A 
HETATM   18  C   UNL     1      21.623   5.746  24.935  1.00  0.00     0.013 A 
ENDBRANCH   1  13
BRANCH   5  19
HETATM   19  C   UNL     1      24.439  10.840  21.140  1.00  0.00    -0.020 A 
HETATM   20  C   UNL     1      24.218  11.873  22.103  1.00  0.00     0.012 A 
HETATM   21  C   UNL     1      23.480  13.044  21.807  1.00  0.00     0.001 A 
HETATM   22  C   UNL     1      22.929  13.211  20.527  1.00  0.00     0.000 A 
HETATM   23  C   UNL     1      23.090  12.177  19.569  1.00  0.00     0.001 A 
HETATM   24  C   UNL     1      23.832  11.011  19.876  1.00  0.00     0.012 A 
ENDBRANCH   5  19
BRANCH   6  25
HETATM   25  C   UNL     1      27.605  10.195  20.657  1.00  0.00     0.434 C 
HETATM   26  F   UNL     1      27.119  10.757  19.545  1.00  0.00    -0.165 F 
HETATM   27  F   UNL     1      28.662   9.432  20.359  1.00  0.00    -0.165 F 
HETATM   28  F   UNL     1      28.044  11.183  21.496  1.00  0.00    -0.165 F 
ENDBRANCH   6  25
TORSDOF 3
ENDMDL
MODEL 14
REMARK VINA RESULT:    -8.318      5.364      7.421
REMARK INTER + INTRA:         -10.615
REMARK INTER:                  -9.552
REMARK INTRA:                  -1.063
REMARK UNBOUND:                -0.838
REMARK  3 active torsions:
REMARK  status: ('A' for Active; 'I' for Inactive)
REMARK    1  A    between atoms: C_4  and  C_7 
REMARK    2  A    between atoms: C_11  and  C_14 
REMARK    3  A    between atoms: C_12  and  C_13 
ROOT
HETATM    1  C   UNL     1      25.350   6.234  22.583  1.00  0.00     0.049 A 
HETATM    2  C   UNL     1      26.034   5.978  21.384  1.00  0.00     0.106 A 
HETATM    3  C   UNL     1      27.042   4.978  21.253  1.00  0.00     0.270 A 
HETATM    4  C   UNL     1      26.573   4.503  23.614  1.00  0.00     0.144 A 
HETATM    5  C   UNL     1      27.094   3.547  24.617  1.00  0.00     0.053 A 
HETATM    6  C   UNL     1      28.034   2.827  23.936  1.00  0.00     0.147 A 
HETATM    7  N   UNL     1      27.264   4.219  22.427  1.00  0.00    -0.202 N 
HETATM    8  N   UNL     1      25.640   5.457  23.690  1.00  0.00    -0.339 N 
ATOM      9  HN  UNL     1      25.142   5.612  24.566  1.00  0.00     0.167 HD
HETATM   10  N   UNL     1      28.166   3.205  22.643  1.00  0.00    -0.284 N 
ATOM     11  HN  UNL     1      28.813   2.813  21.959  1.00  0.00     0.187 HD
HETATM   12  O   UNL     1      27.723   4.648  20.281  1.00  0.00    -0.266 OA
ENDROOT
BRANCH   1  13
HETATM   13  C   UNL     1      24.254   7.305  22.697  1.00  0.00    -0.009 A 
HETATM   14  C   UNL     1      24.255   8.539  21.995  1.00  0.00     0.013 A 
HETATM   15  C   UNL     1      23.202   9.482  22.085  1.00  0.00     0.001 A 
HETATM   16  C   UNL     1      22.096   9.226  22.891  1.00  0.00     0.000 A 
HETATM   17  C   UNL     1      22.039   8.006  23.590  1.00  0.00     0.001 A 
HETATM   18  C   UNL     1      23.077   7.070  23.479  1.00  0.00     0.013 A 
ENDBRANCH   1  13
BRANCH   5  19
HETATM   19  C   UNL     1      26.703   3.474  26.023  1.00  0.00    -0.020 A 
HETATM   20  C   UNL     1      27.571   4.017  27.020  1.00  0.00     0.012 A 
HETATM   21  C   UNL     1      27.266   3.973  28.401  1.00  0.00     0.001 A 
HETATM   22  C   UNL     1      26.073   3.367  28.828  1.00  0.00     0.000 A 
HETATM   23  C   UNL     1      25.219   2.774  27.863  1.00  0.00     0.001 A 
HETATM   24  C   UNL     1      25.534   2.827  26.483  1.00  0.00     0.012 A 
ENDBRANCH   5  19
BRANCH   6  25
HETATM   25  C   UNL     1      28.893   1.662  24.412  1.00  0.00     0.434 C 
HETATM   26  F   UNL     1      29.804   2.124  25.276  1.00  0.00    -0.165 F 
HETATM   27  F   UNL     1      29.502   1.084  23.370  1.00  0.00    -0.165 F 
HETATM   28  F   UNL     1      28.146   0.697  25.029  1.00  0.00    -0.165 F 
ENDBRANCH   6  25
TORSDOF 3
ENDMDL
MODEL 15
REMARK VINA RESULT:    -8.253      4.940      8.259
REMARK INTER + INTRA:         -10.538
REMARK INTER:                 -10.594
REMARK INTRA:                   0.056
REMARK UNBOUND:                -0.838
REMARK  3 active torsions:
REMARK  status: ('A' for Active; 'I' for Inactive)
REMARK    1  A    between atoms: C_4  and  C_7 
REMARK    2  A    between atoms: C_11  and  C_14 
REMARK    3  A    between atoms: C_12  and  C_13 
ROOT
HETATM    1  C   UNL     1      20.314   9.666  23.886  1.00  0.00     0.049 A 
HETATM    2  C   UNL     1      19.482   9.065  24.845  1.00  0.00     0.106 A 
HETATM    3  C   UNL     1      18.288   9.670  25.338  1.00  0.00     0.270 A 
HETATM    4  C   UNL     1      18.832  11.496  23.792  1.00  0.00     0.144 A 
HETATM    5  C   UNL     1      18.208  12.790  23.434  1.00  0.00     0.053 A 
HETATM    6  C   UNL     1      17.083  12.844  24.208  1.00  0.00     0.147 A 
HETATM    7  N   UNL     1      17.977  10.914  24.739  1.00  0.00    -0.202 N 
HETATM    8  N   UNL     1      19.945  10.893  23.365  1.00  0.00    -0.339 N 
ATOM      9  HN  UNL     1      20.524  11.339  22.654  1.00  0.00     0.167 HD
HETATM   10  N   UNL     1      16.923  11.758  24.997  1.00  0.00    -0.284 N 
ATOM     11  HN  UNL     1      16.163  11.594  25.659  1.00  0.00     0.187 HD
HETATM   12  O   UNL     1      17.472   9.272  26.171  1.00  0.00    -0.266 OA
ENDROOT
BRANCH   1  13
HETATM   13  C   UNL     1      21.586   8.988  23.356  1.00  0.00    -0.009 A 
HETATM   14  C   UNL     1      22.059   7.718  23.776  1.00  0.00     0.013 A 
HETATM   15  C   UNL     1      23.210   7.099  23.228  1.00  0.00     0.001 A 
HETATM   16  C   UNL     1      23.942   7.735  22.228  1.00  0.00     0.000 A 
HETATM   17  C   UNL     1      23.500   8.988  21.763  1.00  0.00     0.001 A 
HETATM   18  C   UNL     1      22.348   9.583  22.298  1.00  0.00     0.013 A 
ENDBRANCH   1  13
BRANCH   5  19
HETATM   19  C   UNL     1      18.747  13.778  22.503  1.00  0.00    -0.020 A 
HETATM   20  C   UNL     1      20.009  13.535  21.878  1.00  0.00     0.012 A 
HETATM   21  C   UNL     1      20.600  14.450  20.975  1.00  0.00     0.001 A 
HETATM   22  C   UNL     1      19.942  15.655  20.678  1.00  0.00     0.000 A 
HETATM   23  C   UNL     1      18.713  15.943  21.326  1.00  0.00     0.001 A 
HETATM   24  C   UNL     1      18.130  15.018  22.225  1.00  0.00     0.012 A 
ENDBRANCH   5  19
BRANCH   6  25
HETATM   25  C   UNL     1      15.999  13.912  24.264  1.00  0.00     0.434 C 
HETATM   26  F   UNL     1      15.103  13.568  25.196  1.00  0.00    -0.165 F 
HETATM   27  F   UNL     1      15.400  14.022  23.073  1.00  0.00    -0.165 F 
HETATM   28  F   UNL     1      16.509  15.143  24.573  1.00  0.00    -0.165 F 
ENDBRANCH   6  25
TORSDOF 3
ENDMDL
MODEL 16
REMARK VINA RESULT:    -8.219      4.300      5.902
REMARK INTER + INTRA:         -10.498
REMARK INTER:                  -9.441
REMARK INTRA:                  -1.057
REMARK UNBOUND:                -0.838
REMARK  3 active torsions:
REMARK  status: ('A' for Active; 'I' for Inactive)
REMARK    1  A    between atoms: C_4  and  C_7 
REMARK    2  A    between atoms: C_11  and  C_14 
REMARK    3  A    between atoms: C_12  and  C_13 
ROOT
HETATM    1  C   UNL     1      20.124  12.011  22.716  1.00  0.00     0.049 A 
HETATM    2  C   UNL     1      19.168  12.976  23.071  1.00  0.00     0.106 A 
HETATM    3  C   UNL     1      18.088  12.720  23.966  1.00  0.00     0.270 A 
HETATM    4  C   UNL     1      19.048  10.469  24.137  1.00  0.00     0.144 A 
HETATM    5  C   UNL     1      18.703   9.232  24.874  1.00  0.00     0.053 A 
HETATM    6  C   UNL     1      17.583   9.567  25.583  1.00  0.00     0.147 A 
HETATM    7  N   UNL     1      18.087  11.416  24.517  1.00  0.00    -0.202 N 
HETATM    8  N   UNL     1      20.039  10.754  23.288  1.00  0.00    -0.339 N 
ATOM      9  HN  UNL     1      20.734  10.043  23.060  1.00  0.00     0.167 HD
HETATM   10  N   UNL     1      17.188  10.846  25.386  1.00  0.00    -0.284 N 
ATOM     11  HN  UNL     1      16.375  11.301  25.803  1.00  0.00     0.187 HD
HETATM   12  O   UNL     1      17.182  13.454  24.361  1.00  0.00    -0.266 OA
ENDROOT
BRANCH   1  13
HETATM   13  C   UNL     1      21.290  12.314  21.764  1.00  0.00    -0.009 A 
HETATM   14  C   UNL     1      22.099  11.330  21.138  1.00  0.00     0.013 A 
HETATM   15  C   UNL     1      23.135  11.643  20.224  1.00  0.00     0.001 A 
HETATM   16  C   UNL     1      23.407  12.970  19.899  1.00  0.00     0.000 A 
HETATM   17  C   UNL     1      22.618  13.982  20.477  1.00  0.00     0.001 A 
HETATM   18  C   UNL     1      21.582  13.659  21.365  1.00  0.00     0.013 A 
ENDBRANCH   1  13
BRANCH   5  19
HETATM   19  C   UNL     1      19.398   7.951  24.782  1.00  0.00    -0.020 A 
HETATM   20  C   UNL     1      20.452   7.659  25.703  1.00  0.00     0.012 A 
HETATM   21  C   UNL     1      21.179   6.445  25.668  1.00  0.00     0.001 A 
HETATM   22  C   UNL     1      20.874   5.482  24.692  1.00  0.00     0.000 A 
HETATM   23  C   UNL     1      19.867   5.769  23.734  1.00  0.00     0.001 A 
HETATM   24  C   UNL     1      19.145   6.986  23.781  1.00  0.00     0.012 A 
ENDBRANCH   5  19
BRANCH   6  25
HETATM   25  C   UNL     1      16.775   8.731  26.566  1.00  0.00     0.434 C 
HETATM   26  F   UNL     1      16.131   7.773  25.891  1.00  0.00    -0.165 F 
HETATM   27  F   UNL     1      15.896   9.505  27.213  1.00  0.00    -0.165 F 
HETATM   28  F   UNL     1      17.571   8.147  27.514  1.00  0.00    -0.165 F 
ENDBRANCH   6  25
TORSDOF 3
ENDMDL
MODEL 17
REMARK VINA RESULT:    -8.197      2.343      3.400
REMARK INTER + INTRA:         -10.472
REMARK INTER:                  -9.427
REMARK INTRA:                  -1.045
REMARK UNBOUND:                -0.838
REMARK  3 active torsions:
REMARK  status: ('A' for Active; 'I' for Inactive)
REMARK    1  A    between atoms: C_4  and  C_7 
REMARK    2  A    between atoms: C_11  and  C_14 
REMARK    3  A    between atoms: C_12  and  C_13 
ROOT
HETATM    1  C   UNL     1      18.451  12.764  23.721  1.00  0.00     0.049 A 
HETATM    2  C   UNL     1      19.177  13.518  22.785  1.00  0.00     0.106 A 
HETATM    3  C   UNL     1      20.388  13.066  22.182  1.00  0.00     0.270 A 
HETATM    4  C   UNL     1      20.036  11.033  23.510  1.00  0.00     0.144 A 
HETATM    5  C   UNL     1      20.761   9.754  23.686  1.00  0.00     0.053 A 
HETATM    6  C   UNL     1      21.842   9.866  22.857  1.00  0.00     0.147 A 
HETATM    7  N   UNL     1      20.775  11.759  22.565  1.00  0.00    -0.202 N 
HETATM    8  N   UNL     1      18.910  11.502  24.055  1.00  0.00    -0.339 N 
ATOM      9  HN  UNL     1      18.388  10.930  24.717  1.00  0.00     0.167 HD
HETATM   10  N   UNL     1      21.885  11.042  22.189  1.00  0.00    -0.284 N 
ATOM     11  HN  UNL     1      22.606  11.340  21.531  1.00  0.00     0.187 HD
HETATM   12  O   UNL     1      21.127  13.610  21.362  1.00  0.00    -0.266 OA
ENDROOT
BRANCH   1  13
HETATM   13  C   UNL     1      17.139  13.264  24.345  1.00  0.00    -0.009 A 
HETATM   14  C   UNL     1      16.425  12.591  25.371  1.00  0.00     0.013 A 
HETATM   15  C   UNL     1      15.244  13.106  25.960  1.00  0.00     0.001 A 
HETATM   16  C   UNL     1      14.724  14.328  25.538  1.00  0.00     0.000 A 
HETATM   17  C   UNL     1      15.408  15.043  24.538  1.00  0.00     0.001 A 
HETATM   18  C   UNL     1      16.587  14.533  23.976  1.00  0.00     0.013 A 
ENDBRANCH   1  13
BRANCH   5  19
HETATM   19  C   UNL     1      20.395   8.674  24.598  1.00  0.00    -0.020 A 
HETATM   20  C   UNL     1      19.231   7.890  24.324  1.00  0.00     0.012 A 
HETATM   21  C   UNL     1      18.808   6.836  25.168  1.00  0.00     0.001 A 
HETATM   22  C   UNL     1      19.540   6.540  26.329  1.00  0.00     0.000 A 
HETATM   23  C   UNL     1      20.669   7.337  26.651  1.00  0.00     0.001 A 
HETATM   24  C   UNL     1      21.085   8.387  25.798  1.00  0.00     0.012 A 
ENDBRANCH   5  19
BRANCH   6  25
HETATM   25  C   UNL     1      22.943   8.857  22.563  1.00  0.00     0.434 C 
HETATM   26  F   UNL     1      22.385   7.728  22.113  1.00  0.00    -0.165 F 
HETATM   27  F   UNL     1      23.648   8.608  23.672  1.00  0.00    -0.165 F 
HETATM   28  F   UNL     1      23.823   9.320  21.622  1.00  0.00    -0.165 F 
ENDBRANCH   6  25
TORSDOF 3
ENDMDL
MODEL 18
REMARK VINA RESULT:    -8.184      2.753      6.349
REMARK INTER + INTRA:         -10.457
REMARK INTER:                 -10.436
REMARK INTRA:                  -0.021
REMARK UNBOUND:                -0.838
REMARK  3 active torsions:
REMARK  status: ('A' for Active; 'I' for Inactive)
REMARK    1  A    between atoms: C_4  and  C_7 
REMARK    2  A    between atoms: C_11  and  C_14 
REMARK    3  A    between atoms: C_12  and  C_13 
ROOT
HETATM    1  C   UNL     1      21.288   7.704  23.592  1.00  0.00     0.049 A 
HETATM    2  C   UNL     1      22.518   7.281  23.063  1.00  0.00     0.106 A 
HETATM    3  C   UNL     1      23.385   8.133  22.315  1.00  0.00     0.270 A 
HETATM    4  C   UNL     1      21.689   9.858  22.725  1.00  0.00     0.144 A 
HETATM    5  C   UNL     1      21.536  11.286  22.368  1.00  0.00     0.053 A 
HETATM    6  C   UNL     1      22.668  11.578  21.659  1.00  0.00     0.147 A 
HETATM    7  N   UNL     1      22.927   9.467  22.194  1.00  0.00    -0.202 N 
HETATM    8  N   UNL     1      20.907   9.022  23.413  1.00  0.00    -0.339 N 
ATOM      9  HN  UNL     1      20.027   9.355  23.806  1.00  0.00     0.167 HD
HETATM   10  N   UNL     1      23.505  10.522  21.530  1.00  0.00    -0.284 N 
ATOM     11  HN  UNL     1      24.396  10.512  21.034  1.00  0.00     0.187 HD
HETATM   12  O   UNL     1      24.476   7.906  21.791  1.00  0.00    -0.266 OA
ENDROOT
BRANCH   1  13
HETATM   13  C   UNL     1      20.379   6.774  24.410  1.00  0.00    -0.009 A 
HETATM   14  C   UNL     1      20.058   5.439  24.052  1.00  0.00     0.013 A 
HETATM   15  C   UNL     1      19.256   4.592  24.856  1.00  0.00     0.001 A 
HETATM   16  C   UNL     1      18.735   5.054  26.062  1.00  0.00     0.000 A 
HETATM   17  C   UNL     1      19.043   6.366  26.471  1.00  0.00     0.001 A 
HETATM   18  C   UNL     1      19.854   7.189  25.677  1.00  0.00     0.013 A 
ENDBRANCH   1  13
BRANCH   5  19
HETATM   19  C   UNL     1      20.385  12.133  22.673  1.00  0.00    -0.020 A 
HETATM   20  C   UNL     1      19.543  11.797  23.778  1.00  0.00     0.012 A 
HETATM   21  C   UNL     1      18.405  12.561  24.128  1.00  0.00     0.001 A 
HETATM   22  C   UNL     1      18.067  13.691  23.366  1.00  0.00     0.000 A 
HETATM   23  C   UNL     1      18.857  14.016  22.233  1.00  0.00     0.001 A 
HETATM   24  C   UNL     1      19.995  13.246  21.895  1.00  0.00     0.012 A 
ENDBRANCH   5  19
BRANCH   6  25
HETATM   25  C   UNL     1      23.117  12.901  21.055  1.00  0.00     0.434 C 
HETATM   26  F   UNL     1      23.399  13.754  22.046  1.00  0.00    -0.165 F 
HETATM   27  F   UNL     1      22.150  13.404  20.280  1.00  0.00    -0.165 F 
HETATM   28  F   UNL     1      24.228  12.753  20.270  1.00  0.00    -0.165 F 
ENDBRANCH   6  25
TORSDOF 3
ENDMDL
