MODEL 1
REMARK VINA RESULT:    -5.466      0.000      0.000
REMARK INTER + INTRA:          -7.619
REMARK INTER:                  -7.383
REMARK INTRA:                  -0.237
REMARK UNBOUND:                -0.237
REMARK  6 active torsions:
REMARK  status: ('A' for Active; 'I' for Inactive)
REMARK    1  A    between atoms: C_1  and  C_3 
REMARK    2  A    between atoms: C_1  and  O_2 
REMARK    3  A    between atoms: O_2  and  P_7 
REMARK    4  A    between atoms: C_3  and  C_4 
REMARK    5  A    between atoms: P_7  and  O_10 
REMARK    6  A    between atoms: O_10  and  P_11 
ROOT
HETATM    1  P   UNL     1      10.292   8.175  16.450  1.00  0.00     0.418 P 
HETATM    2  O   UNL     1       9.316   9.134  15.849  1.00  0.00    -0.624 OA
HETATM    3  O   UNL     1      11.291   8.703  17.424  1.00  0.00    -0.624 OA
ENDROOT
BRANCH   1   4
HETATM    4  O   UNL     1      11.098   7.414  15.271  1.00  0.00    -0.173 OA
BRANCH   4   5
HETATM    5  P   UNL     1      12.433   6.482  15.346  1.00  0.00     0.431 P 
HETATM    6  O   UNL     1      13.557   7.436  14.976  1.00  0.00    -0.616 OA
HETATM    7  O   UNL     1      12.241   5.356  14.321  1.00  0.00    -0.616 OA
HETATM    8  O   UNL     1      12.523   5.943  16.770  1.00  0.00    -0.616 OA
ENDBRANCH   4   5
ENDBRANCH   1   4
BRANCH   1   9
HETATM    9  O   UNL     1       9.536   6.975  17.207  1.00  0.00    -0.289 OA
BRANCH   9  10
HETATM   10  C   UNL     1       9.523   6.919  18.652  1.00  0.00     0.185 C 
BRANCH  10  11
HETATM   11  C   UNL     1       8.286   6.191  19.086  1.00  0.00     0.059 C 
BRANCH  11  12
HETATM   12  C   UNL     1       7.157   7.096  19.509  1.00  0.00    -0.091 C 
HETATM   13  C   UNL     1       7.539   8.525  19.834  1.00  0.00     0.042 C 
HETATM   14  C   UNL     1       5.917   6.641  19.618  1.00  0.00     0.014 C 
ENDBRANCH  11  12
ENDBRANCH  10  11
ENDBRANCH   9  10
ENDBRANCH   1   9
TORSDOF 6
ENDMDL
MODEL 2
REMARK VINA RESULT:    -5.415      0.310      1.239
REMARK INTER + INTRA:          -7.551
REMARK INTER:                  -7.320
REMARK INTRA:                  -0.231
REMARK UNBOUND:                -0.237
REMARK  6 active torsions:
REMARK  status: ('A' for Active; 'I' for Inactive)
REMARK    1  A    between atoms: C_1  and  C_3 
REMARK    2  A    between atoms: C_1  and  O_2 
REMARK    3  A    between atoms: O_2  and  P_7 
REMARK    4  A    between atoms: C_3  and  C_4 
REMARK    5  A    between atoms: P_7  and  O_10 
REMARK    6  A    between atoms: O_10  and  P_11 
ROOT
HETATM    1  P   UNL     1      10.347   8.378  16.215  1.00  0.00     0.418 P 
HETATM    2  O   UNL     1       9.592   9.397  15.425  1.00  0.00    -0.624 OA
HETATM    3  O   UNL     1      11.383   8.856  17.177  1.00  0.00    -0.624 OA
ENDROOT
BRANCH   1   4
HETATM    4  O   UNL     1      11.049   7.324  15.209  1.00  0.00    -0.173 OA
BRANCH   4   5
HETATM    5  P   UNL     1      12.482   6.555  15.326  1.00  0.00     0.431 P 
HETATM    6  O   UNL     1      12.484   6.017  16.747  1.00  0.00    -0.616 OA
HETATM    7  O   UNL     1      13.569   7.610  15.083  1.00  0.00    -0.616 OA
HETATM    8  O   UNL     1      12.495   5.469  14.255  1.00  0.00    -0.616 OA
ENDBRANCH   4   5
ENDBRANCH   1   4
BRANCH   1   9
HETATM    9  O   UNL     1       9.349   7.452  17.073  1.00  0.00    -0.289 OA
BRANCH   9  10
HETATM   10  C   UNL     1       9.672   7.104  18.438  1.00  0.00     0.185 C 
BRANCH  10  11
HETATM   11  C   UNL     1       8.520   6.339  19.016  1.00  0.00     0.059 C 
BRANCH  11  12
HETATM   12  C   UNL     1       7.375   7.206  19.474  1.00  0.00    -0.091 C 
HETATM   13  C   UNL     1       7.748   8.582  19.984  1.00  0.00     0.042 C 
HETATM   14  C   UNL     1       6.126   6.761  19.456  1.00  0.00     0.014 C 
ENDBRANCH  11  12
ENDBRANCH  10  11
ENDBRANCH   9  10
ENDBRANCH   1   9
TORSDOF 6
ENDMDL
MODEL 3
REMARK VINA RESULT:    -5.380      1.185      1.769
REMARK INTER + INTRA:          -7.504
REMARK INTER:                  -7.177
REMARK INTRA:                  -0.327
REMARK UNBOUND:                -0.237
REMARK  6 active torsions:
REMARK  status: ('A' for Active; 'I' for Inactive)
REMARK    1  A    between atoms: C_1  and  C_3 
REMARK    2  A    between atoms: C_1  and  O_2 
REMARK    3  A    between atoms: O_2  and  P_7 
REMARK    4  A    between atoms: C_3  and  C_4 
REMARK    5  A    between atoms: P_7  and  O_10 
REMARK    6  A    between atoms: O_10  and  P_11 
ROOT
HETATM    1  P   UNL     1      10.769   7.841  16.749  1.00  0.00     0.418 P 
HETATM    2  O   UNL     1      11.237   9.202  17.148  1.00  0.00    -0.624 OA
HETATM    3  O   UNL     1      11.174   6.680  17.594  1.00  0.00    -0.624 OA
ENDROOT
BRANCH   1   4
HETATM    4  O   UNL     1      11.229   7.535  15.228  1.00  0.00    -0.173 OA
BRANCH   4   5
HETATM    5  P   UNL     1      12.692   7.130  14.635  1.00  0.00     0.431 P 
HETATM    6  O   UNL     1      12.590   7.480  13.160  1.00  0.00    -0.616 OA
HETATM    7  O   UNL     1      12.866   5.626  14.885  1.00  0.00    -0.616 OA
HETATM    8  O   UNL     1      13.726   7.954  15.395  1.00  0.00    -0.616 OA
ENDBRANCH   4   5
ENDBRANCH   1   4
BRANCH   1   9
HETATM    9  O   UNL     1       9.164   7.780  16.663  1.00  0.00    -0.289 OA
BRANCH   9  10
HETATM   10  C   UNL     1       8.356   8.541  17.589  1.00  0.00     0.185 C 
BRANCH  10  11
HETATM   11  C   UNL     1       8.470   7.911  18.944  1.00  0.00     0.059 C 
BRANCH  11  12
HETATM   12  C   UNL     1       7.584   6.706  19.139  1.00  0.00    -0.091 C 
HETATM   13  C   UNL     1       6.138   6.997  19.481  1.00  0.00     0.042 C 
HETATM   14  C   UNL     1       8.068   5.476  19.045  1.00  0.00     0.014 C 
ENDBRANCH  11  12
ENDBRANCH  10  11
ENDBRANCH   9  10
ENDBRANCH   1   9
TORSDOF 6
ENDMDL
MODEL 4
REMARK VINA RESULT:    -5.264      5.431      6.572
REMARK INTER + INTRA:          -7.346
REMARK INTER:                  -7.056
REMARK INTRA:                  -0.290
REMARK UNBOUND:                -0.237
REMARK  6 active torsions:
REMARK  status: ('A' for Active; 'I' for Inactive)
REMARK    1  A    between atoms: C_1  and  C_3 
REMARK    2  A    between atoms: C_1  and  O_2 
REMARK    3  A    between atoms: O_2  and  P_7 
REMARK    4  A    between atoms: C_3  and  C_4 
REMARK    5  A    between atoms: P_7  and  O_10 
REMARK    6  A    between atoms: O_10  and  P_11 
ROOT
HETATM    1  P   UNL     1      12.678   6.951  14.729  1.00  0.00     0.418 P 
HETATM    2  O   UNL     1      12.856   5.524  15.134  1.00  0.00    -0.624 OA
HETATM    3  O   UNL     1      13.692   7.946  15.184  1.00  0.00    -0.624 OA
ENDROOT
BRANCH   1   4
HETATM    4  O   UNL     1      11.221   7.470  15.205  1.00  0.00    -0.173 OA
BRANCH   4   5
HETATM    5  P   UNL     1      10.589   7.595  16.704  1.00  0.00     0.431 P 
HETATM    6  O   UNL     1      11.405   8.705  17.345  1.00  0.00    -0.616 OA
HETATM    7  O   UNL     1      10.792   6.233  17.381  1.00  0.00    -0.616 OA
HETATM    8  O   UNL     1       9.111   7.931  16.538  1.00  0.00    -0.616 OA
ENDBRANCH   4   5
ENDBRANCH   1   4
BRANCH   1   9
HETATM    9  O   UNL     1      12.610   7.097  13.129  1.00  0.00    -0.289 OA
BRANCH   9  10
HETATM   10  C   UNL     1      13.669   7.774  12.414  1.00  0.00     0.185 C 
BRANCH  10  11
HETATM   11  C   UNL     1      13.048   8.682  11.397  1.00  0.00     0.059 C 
BRANCH  11  12
HETATM   12  C   UNL     1      13.129  10.146  11.749  1.00  0.00    -0.091 C 
HETATM   13  C   UNL     1      13.770  11.043  10.711  1.00  0.00     0.042 C 
HETATM   14  C   UNL     1      12.690  10.597  12.916  1.00  0.00     0.014 C 
ENDBRANCH  11  12
ENDBRANCH  10  11
ENDBRANCH   9  10
ENDBRANCH   1   9
TORSDOF 6
ENDMDL
MODEL 5
REMARK VINA RESULT:    -5.216      1.009      1.697
REMARK INTER + INTRA:          -7.282
REMARK INTER:                  -6.936
REMARK INTRA:                  -0.345
REMARK UNBOUND:                -0.237
REMARK  6 active torsions:
REMARK  status: ('A' for Active; 'I' for Inactive)
REMARK    1  A    between atoms: C_1  and  C_3 
REMARK    2  A    between atoms: C_1  and  O_2 
REMARK    3  A    between atoms: O_2  and  P_7 
REMARK    4  A    between atoms: C_3  and  C_4 
REMARK    5  A    between atoms: P_7  and  O_10 
REMARK    6  A    between atoms: O_10  and  P_11 
ROOT
HETATM    1  P   UNL     1      10.408   8.203  16.202  1.00  0.00     0.418 P 
HETATM    2  O   UNL     1       8.920   8.183  16.073  1.00  0.00    -0.624 OA
HETATM    3  O   UNL     1      11.074   9.506  16.493  1.00  0.00    -0.624 OA
ENDROOT
BRANCH   1   4
HETATM    4  O   UNL     1      11.075   7.591  14.861  1.00  0.00    -0.173 OA
BRANCH   4   5
HETATM    5  P   UNL     1      12.563   6.968  14.619  1.00  0.00     0.431 P 
HETATM    6  O   UNL     1      12.432   5.532  15.100  1.00  0.00    -0.616 OA
HETATM    7  O   UNL     1      13.531   7.800  15.469  1.00  0.00    -0.616 OA
HETATM    8  O   UNL     1      12.863   7.095  13.129  1.00  0.00    -0.616 OA
ENDBRANCH   4   5
ENDBRANCH   1   4
BRANCH   1   9
HETATM    9  O   UNL     1      10.905   7.192  17.349  1.00  0.00    -0.289 OA
BRANCH   9  10
HETATM   10  C   UNL     1       9.974   6.267  17.957  1.00  0.00     0.185 C 
BRANCH  10  11
HETATM   11  C   UNL     1       9.535   6.834  19.273  1.00  0.00     0.059 C 
BRANCH  11  12
HETATM   12  C   UNL     1       8.047   7.052  19.383  1.00  0.00    -0.091 C 
HETATM   13  C   UNL     1       7.604   8.477  19.638  1.00  0.00     0.042 C 
HETATM   14  C   UNL     1       7.197   6.039  19.293  1.00  0.00     0.014 C 
ENDBRANCH  11  12
ENDBRANCH  10  11
ENDBRANCH   9  10
ENDBRANCH   1   9
TORSDOF 6
ENDMDL
MODEL 6
REMARK VINA RESULT:    -5.189      1.337      2.028
REMARK INTER + INTRA:          -7.246
REMARK INTER:                  -6.880
REMARK INTRA:                  -0.365
REMARK UNBOUND:                -0.237
REMARK  6 active torsions:
REMARK  status: ('A' for Active; 'I' for Inactive)
REMARK    1  A    between atoms: C_1  and  C_3 
REMARK    2  A    between atoms: C_1  and  O_2 
REMARK    3  A    between atoms: O_2  and  P_7 
REMARK    4  A    between atoms: C_3  and  C_4 
REMARK    5  A    between atoms: P_7  and  O_10 
REMARK    6  A    between atoms: O_10  and  P_11 
ROOT
HETATM    1  P   UNL     1      10.720   7.617  16.662  1.00  0.00     0.418 P 
HETATM    2  O   UNL     1      11.357   8.785  17.342  1.00  0.00    -0.624 OA
HETATM    3  O   UNL     1      10.840   6.275  17.303  1.00  0.00    -0.624 OA
ENDROOT
BRANCH   1   4
HETATM    4  O   UNL     1      11.281   7.500  15.150  1.00  0.00    -0.173 OA
BRANCH   4   5
HETATM    5  P   UNL     1      12.740   7.016  14.605  1.00  0.00     0.431 P 
HETATM    6  O   UNL     1      13.715   7.916  15.345  1.00  0.00    -0.616 OA
HETATM    7  O   UNL     1      12.741   7.247  13.089  1.00  0.00    -0.616 OA
HETATM    8  O   UNL     1      12.877   5.537  14.954  1.00  0.00    -0.616 OA
ENDBRANCH   4   5
ENDBRANCH   1   4
BRANCH   1   9
HETATM    9  O   UNL     1       9.144   7.859  16.448  1.00  0.00    -0.289 OA
BRANCH   9  10
HETATM   10  C   UNL     1       8.508   9.037  16.993  1.00  0.00     0.185 C 
BRANCH  10  11
HETATM   11  C   UNL     1       7.375   8.600  17.871  1.00  0.00     0.059 C 
BRANCH  11  12
HETATM   12  C   UNL     1       7.811   7.989  19.179  1.00  0.00    -0.091 C 
HETATM   13  C   UNL     1       7.579   6.500  19.325  1.00  0.00     0.042 C 
HETATM   14  C   UNL     1       8.333   8.733  20.144  1.00  0.00     0.014 C 
ENDBRANCH  11  12
ENDBRANCH  10  11
ENDBRANCH   9  10
ENDBRANCH   1   9
TORSDOF 6
ENDMDL
MODEL 7
REMARK VINA RESULT:    -5.055      5.675      7.250
REMARK INTER + INTRA:          -7.065
REMARK INTER:                  -6.820
REMARK INTRA:                  -0.245
REMARK UNBOUND:                -0.237
REMARK  6 active torsions:
REMARK  status: ('A' for Active; 'I' for Inactive)
REMARK    1  A    between atoms: C_1  and  C_3 
REMARK    2  A    between atoms: C_1  and  O_2 
REMARK    3  A    between atoms: O_2  and  P_7 
REMARK    4  A    between atoms: C_3  and  C_4 
REMARK    5  A    between atoms: P_7  and  O_10 
REMARK    6  A    between atoms: O_10  and  P_11 
ROOT
HETATM    1  P   UNL     1      12.788   7.382  14.631  1.00  0.00     0.418 P 
HETATM    2  O   UNL     1      13.262   6.008  14.289  1.00  0.00    -0.624 OA
HETATM    3  O   UNL     1      13.668   8.243  15.474  1.00  0.00    -0.624 OA
ENDROOT
BRANCH   1   4
HETATM    4  O   UNL     1      11.342   7.292  15.350  1.00  0.00    -0.173 OA
BRANCH   4   5
HETATM    5  P   UNL     1      10.570   8.373  16.296  1.00  0.00     0.431 P 
HETATM    6  O   UNL     1      11.183   8.151  17.668  1.00  0.00    -0.616 OA
HETATM    7  O   UNL     1       9.078   8.018  16.240  1.00  0.00    -0.616 OA
HETATM    8  O   UNL     1      10.846   9.754  15.712  1.00  0.00    -0.616 OA
ENDBRANCH   4   5
ENDBRANCH   1   4
BRANCH   1   9
HETATM    9  O   UNL     1      12.481   8.238  13.304  1.00  0.00    -0.289 OA
BRANCH   9  10
HETATM   10  C   UNL     1      13.554   8.591  12.402  1.00  0.00     0.185 C 
BRANCH  10  11
HETATM   11  C   UNL     1      13.369  10.019  11.984  1.00  0.00     0.059 C 
BRANCH  11  12
HETATM   12  C   UNL     1      13.645  10.272  10.523  1.00  0.00    -0.091 C 
HETATM   13  C   UNL     1      13.362   9.118   9.586  1.00  0.00     0.042 C 
HETATM   14  C   UNL     1      14.137  11.431  10.108  1.00  0.00     0.014 C 
ENDBRANCH  11  12
ENDBRANCH  10  11
ENDBRANCH   9  10
ENDBRANCH   1   9
TORSDOF 6
ENDMDL
MODEL 8
REMARK VINA RESULT:    -4.911      9.981     11.073
REMARK INTER + INTRA:          -6.871
REMARK INTER:                  -6.711
REMARK INTRA:                  -0.160
REMARK UNBOUND:                -0.237
REMARK  6 active torsions:
REMARK  status: ('A' for Active; 'I' for Inactive)
REMARK    1  A    between atoms: C_1  and  C_3 
REMARK    2  A    between atoms: C_1  and  O_2 
REMARK    3  A    between atoms: O_2  and  P_7 
REMARK    4  A    between atoms: C_3  and  C_4 
REMARK    5  A    between atoms: P_7  and  O_10 
REMARK    6  A    between atoms: O_10  and  P_11 
ROOT
HETATM    1  P   UNL     1      13.646  11.282  10.362  1.00  0.00     0.418 P 
HETATM    2  O   UNL     1      15.121  11.049  10.423  1.00  0.00    -0.624 OA
HETATM    3  O   UNL     1      13.023  12.140  11.412  1.00  0.00    -0.624 OA
ENDROOT
BRANCH   1   4
HETATM    4  O   UNL     1      12.874   9.861  10.355  1.00  0.00    -0.173 OA
BRANCH   4   5
HETATM    5  P   UNL     1      13.251   8.465   9.602  1.00  0.00     0.431 P 
HETATM    6  O   UNL     1      13.803   7.594  10.718  1.00  0.00    -0.616 OA
HETATM    7  O   UNL     1      14.300   8.810   8.536  1.00  0.00    -0.616 OA
HETATM    8  O   UNL     1      11.965   7.931   8.980  1.00  0.00    -0.616 OA
ENDBRANCH   4   5
ENDBRANCH   1   4
BRANCH   1   9
HETATM    9  O   UNL     1      13.219  11.934   8.955  1.00  0.00    -0.289 OA
BRANCH   9  10
HETATM   10  C   UNL     1      14.210  12.576   8.120  1.00  0.00     0.185 C 
BRANCH  10  11
HETATM   11  C   UNL     1      13.521  13.128   6.908  1.00  0.00     0.059 C 
BRANCH  11  12
HETATM   12  C   UNL     1      13.845  14.572   6.621  1.00  0.00    -0.091 C 
HETATM   13  C   UNL     1      15.267  15.003   6.915  1.00  0.00     0.042 C 
HETATM   14  C   UNL     1      12.920  15.407   6.170  1.00  0.00     0.014 C 
ENDBRANCH  11  12
ENDBRANCH  10  11
ENDBRANCH   9  10
ENDBRANCH   1   9
TORSDOF 6
ENDMDL
MODEL 9
REMARK VINA RESULT:    -4.742      8.303      9.446
REMARK INTER + INTRA:          -6.642
REMARK INTER:                  -6.403
REMARK INTRA:                  -0.239
REMARK UNBOUND:                -0.237
REMARK  6 active torsions:
REMARK  status: ('A' for Active; 'I' for Inactive)
REMARK    1  A    between atoms: C_1  and  C_3 
REMARK    2  A    between atoms: C_1  and  O_2 
REMARK    3  A    between atoms: O_2  and  P_7 
REMARK    4  A    between atoms: C_3  and  C_4 
REMARK    5  A    between atoms: P_7  and  O_10 
REMARK    6  A    between atoms: O_10  and  P_11 
ROOT
HETATM    1  P   UNL     1       4.482  13.815  14.829  1.00  0.00     0.418 P 
HETATM    2  O   UNL     1       3.564  14.941  15.175  1.00  0.00    -0.624 OA
HETATM    3  O   UNL     1       4.976  12.942  15.933  1.00  0.00    -0.624 OA
ENDROOT
BRANCH   1   4
HETATM    4  O   UNL     1       5.767  14.390  14.033  1.00  0.00    -0.173 OA
BRANCH   4   5
HETATM    5  P   UNL     1       6.993  15.329  14.558  1.00  0.00     0.431 P 
HETATM    6  O   UNL     1       6.625  15.625  16.002  1.00  0.00    -0.616 OA
HETATM    7  O   UNL     1       6.998  16.581  13.671  1.00  0.00    -0.616 OA
HETATM    8  O   UNL     1       8.275  14.518  14.401  1.00  0.00    -0.616 OA
ENDBRANCH   4   5
ENDBRANCH   1   4
BRANCH   1   9
HETATM    9  O   UNL     1       3.806  12.823  13.758  1.00  0.00    -0.289 OA
BRANCH   9  10
HETATM   10  C   UNL     1       4.605  12.230  12.708  1.00  0.00     0.185 C 
BRANCH  10  11
HETATM   11  C   UNL     1       3.689  11.509  11.767  1.00  0.00     0.059 C 
BRANCH  11  12
HETATM   12  C   UNL     1       3.129  10.222  12.319  1.00  0.00    -0.091 C 
HETATM   13  C   UNL     1       1.632  10.039  12.184  1.00  0.00     0.042 C 
HETATM   14  C   UNL     1       3.912   9.332  12.914  1.00  0.00     0.014 C 
ENDBRANCH  11  12
ENDBRANCH  10  11
ENDBRANCH   9  10
ENDBRANCH   1   9
TORSDOF 6
ENDMDL
MODEL 10
REMARK VINA RESULT:    -4.737      6.176      7.613
REMARK INTER + INTRA:          -6.635
REMARK INTER:                  -6.354
REMARK INTRA:                  -0.281
REMARK UNBOUND:                -0.237
REMARK  6 active torsions:
REMARK  status: ('A' for Active; 'I' for Inactive)
REMARK    1  A    between atoms: C_1  and  C_3 
REMARK    2  A    between atoms: C_1  and  O_2 
REMARK    3  A    between atoms: O_2  and  P_7 
REMARK    4  A    between atoms: C_3  and  C_4 
REMARK    5  A    between atoms: P_7  and  O_10 
REMARK    6  A    between atoms: O_10  and  P_11 
ROOT
HETATM    1  P   UNL     1      12.913   7.538  14.082  1.00  0.00     0.418 P 
HETATM    2  O   UNL     1      11.656   7.184  14.809  1.00  0.00    -0.624 OA
HETATM    3  O   UNL     1      13.734   6.431  13.512  1.00  0.00    -0.624 OA
ENDROOT
BRANCH   1   4
HETATM    4  O   UNL     1      13.865   8.420  15.048  1.00  0.00    -0.173 OA
BRANCH   4   5
HETATM    5  P   UNL     1      13.500   9.683  16.013  1.00  0.00     0.431 P 
HETATM    6  O   UNL     1      14.848  10.106  16.573  1.00  0.00    -0.616 OA
HETATM    7  O   UNL     1      12.543   9.152  17.088  1.00  0.00    -0.616 OA
HETATM    8  O   UNL     1      12.838  10.739  15.134  1.00  0.00    -0.616 OA
ENDBRANCH   4   5
ENDBRANCH   1   4
BRANCH   1   9
HETATM    9  O   UNL     1      12.613   8.536  12.857  1.00  0.00    -0.289 OA
BRANCH   9  10
HETATM   10  C   UNL     1      13.703   9.078  12.077  1.00  0.00     0.185 C 
BRANCH  10  11
HETATM   11  C   UNL     1      13.328  10.462  11.638  1.00  0.00     0.059 C 
BRANCH  11  12
HETATM   12  C   UNL     1      13.763  10.801  10.235  1.00  0.00    -0.091 C 
HETATM   13  C   UNL     1      13.561   9.715   9.199  1.00  0.00     0.042 C 
HETATM   14  C   UNL     1      14.317  11.971   9.951  1.00  0.00     0.014 C 
ENDBRANCH  11  12
ENDBRANCH  10  11
ENDBRANCH   9  10
ENDBRANCH   1   9
TORSDOF 6
ENDMDL
MODEL 11
REMARK VINA RESULT:    -4.726      4.547      6.252
REMARK INTER + INTRA:          -6.620
REMARK INTER:                  -6.416
REMARK INTRA:                  -0.204
REMARK UNBOUND:                -0.237
REMARK  6 active torsions:
REMARK  status: ('A' for Active; 'I' for Inactive)
REMARK    1  A    between atoms: C_1  and  C_3 
REMARK    2  A    between atoms: C_1  and  O_2 
REMARK    3  A    between atoms: O_2  and  P_7 
REMARK    4  A    between atoms: C_3  and  C_4 
REMARK    5  A    between atoms: P_7  and  O_10 
REMARK    6  A    between atoms: O_10  and  P_11 
ROOT
HETATM    1  P   UNL     1       5.991   9.864  15.199  1.00  0.00     0.418 P 
HETATM    2  O   UNL     1       5.100  10.857  15.872  1.00  0.00    -0.624 OA
HETATM    3  O   UNL     1       7.170  10.374  14.442  1.00  0.00    -0.624 OA
ENDROOT
BRANCH   1   4
HETATM    4  O   UNL     1       5.115   8.943  14.199  1.00  0.00    -0.173 OA
BRANCH   4   5
HETATM    5  P   UNL     1       4.007   9.367  13.080  1.00  0.00     0.431 P 
HETATM    6  O   UNL     1       2.855   9.915  13.905  1.00  0.00    -0.616 OA
HETATM    7  O   UNL     1       3.643   8.088  12.315  1.00  0.00    -0.616 OA
HETATM    8  O   UNL     1       4.664  10.403  12.173  1.00  0.00    -0.616 OA
ENDBRANCH   4   5
ENDBRANCH   1   4
BRANCH   1   9
HETATM    9  O   UNL     1       6.576   8.800  16.254  1.00  0.00    -0.289 OA
BRANCH   9  10
HETATM   10  C   UNL     1       6.629   9.125  17.662  1.00  0.00     0.185 C 
BRANCH  10  11
HETATM   11  C   UNL     1       7.871   8.518  18.241  1.00  0.00     0.059 C 
BRANCH  11  12
HETATM   12  C   UNL     1       7.629   7.249  19.021  1.00  0.00    -0.091 C 
HETATM   13  C   UNL     1       8.835   6.359  19.227  1.00  0.00     0.042 C 
HETATM   14  C   UNL     1       6.419   6.934  19.461  1.00  0.00     0.014 C 
ENDBRANCH  11  12
ENDBRANCH  10  11
ENDBRANCH   9  10
ENDBRANCH   1   9
TORSDOF 6
ENDMDL
MODEL 12
REMARK VINA RESULT:    -4.679      1.266      2.080
REMARK INTER + INTRA:          -6.556
REMARK INTER:                  -6.312
REMARK INTRA:                  -0.244
REMARK UNBOUND:                -0.237
REMARK  6 active torsions:
REMARK  status: ('A' for Active; 'I' for Inactive)
REMARK    1  A    between atoms: C_1  and  C_3 
REMARK    2  A    between atoms: C_1  and  O_2 
REMARK    3  A    between atoms: O_2  and  P_7 
REMARK    4  A    between atoms: C_3  and  C_4 
REMARK    5  A    between atoms: P_7  and  O_10 
REMARK    6  A    between atoms: O_10  and  P_11 
ROOT
HETATM    1  P   UNL     1       9.328   9.075  16.382  1.00  0.00     0.418 P 
HETATM    2  O   UNL     1       8.979  10.002  15.264  1.00  0.00    -0.624 OA
HETATM    3  O   UNL     1      10.110   9.617  17.530  1.00  0.00    -0.624 OA
ENDROOT
BRANCH   1   4
HETATM    4  O   UNL     1      10.126   7.796  15.794  1.00  0.00    -0.173 OA
BRANCH   4   5
HETATM    5  P   UNL     1      11.722   7.582  15.536  1.00  0.00     0.431 P 
HETATM    6  O   UNL     1      12.254   7.178  16.901  1.00  0.00    -0.616 OA
HETATM    7  O   UNL     1      12.273   8.929  15.051  1.00  0.00    -0.616 OA
HETATM    8  O   UNL     1      11.861   6.497  14.473  1.00  0.00    -0.616 OA
ENDBRANCH   4   5
ENDBRANCH   1   4
BRANCH   1   9
HETATM    9  O   UNL     1       8.009   8.416  17.023  1.00  0.00    -0.289 OA
BRANCH   9  10
HETATM   10  C   UNL     1       7.321   9.076  18.110  1.00  0.00     0.185 C 
BRANCH  10  11
HETATM   11  C   UNL     1       7.644   8.353  19.383  1.00  0.00     0.059 C 
BRANCH  11  12
HETATM   12  C   UNL     1       7.165   6.924  19.417  1.00  0.00    -0.091 C 
HETATM   13  C   UNL     1       8.214   5.867  19.142  1.00  0.00     0.042 C 
HETATM   14  C   UNL     1       5.892   6.631  19.641  1.00  0.00     0.014 C 
ENDBRANCH  11  12
ENDBRANCH  10  11
ENDBRANCH   9  10
ENDBRANCH   1   9
TORSDOF 6
ENDMDL
MODEL 13
REMARK VINA RESULT:    -4.636      3.704      5.656
REMARK INTER + INTRA:          -6.499
REMARK INTER:                  -6.195
REMARK INTRA:                  -0.304
REMARK UNBOUND:                -0.237
REMARK  6 active torsions:
REMARK  status: ('A' for Active; 'I' for Inactive)
REMARK    1  A    between atoms: C_1  and  C_3 
REMARK    2  A    between atoms: C_1  and  O_2 
REMARK    3  A    between atoms: O_2  and  P_7 
REMARK    4  A    between atoms: C_3  and  C_4 
REMARK    5  A    between atoms: P_7  and  O_10 
REMARK    6  A    between atoms: O_10  and  P_11 
ROOT
HETATM    1  P   UNL     1       9.499   8.539  16.689  1.00  0.00     0.418 P 
HETATM    2  O   UNL     1      10.215   9.329  17.736  1.00  0.00    -0.624 OA
HETATM    3  O   UNL     1       8.588   9.265  15.758  1.00  0.00    -0.624 OA
ENDROOT
BRANCH   1   4
HETATM    4  O   UNL     1       8.653   7.353  17.391  1.00  0.00    -0.173 OA
BRANCH   4   5
HETATM    5  P   UNL     1       8.674   6.818  18.932  1.00  0.00     0.431 P 
HETATM    6  O   UNL     1       7.821   5.562  18.887  1.00  0.00    -0.616 OA
HETATM    7  O   UNL     1       8.059   7.931  19.791  1.00  0.00    -0.616 OA
HETATM    8  O   UNL     1      10.133   6.561  19.296  1.00  0.00    -0.616 OA
ENDBRANCH   4   5
ENDBRANCH   1   4
BRANCH   1   9
HETATM    9  O   UNL     1      10.536   7.742  15.753  1.00  0.00    -0.289 OA
BRANCH   9  10
HETATM   10  C   UNL     1      11.822   7.335  16.274  1.00  0.00     0.185 C 
BRANCH  10  11
HETATM   11  C   UNL     1      12.618   6.736  15.153  1.00  0.00     0.059 C 
BRANCH  11  12
HETATM   12  C   UNL     1      13.162   7.749  14.176  1.00  0.00    -0.091 C 
HETATM   13  C   UNL     1      13.615   9.065  14.771  1.00  0.00     0.042 C 
HETATM   14  C   UNL     1      13.202   7.495  12.876  1.00  0.00     0.014 C 
ENDBRANCH  11  12
ENDBRANCH  10  11
ENDBRANCH   9  10
ENDBRANCH   1   9
TORSDOF 6
ENDMDL
MODEL 14
REMARK VINA RESULT:    -4.635      8.251      9.142
REMARK INTER + INTRA:          -6.497
REMARK INTER:                  -6.233
REMARK INTRA:                  -0.264
REMARK UNBOUND:                -0.237
REMARK  6 active torsions:
REMARK  status: ('A' for Active; 'I' for Inactive)
REMARK    1  A    between atoms: C_1  and  C_3 
REMARK    2  A    between atoms: C_1  and  O_2 
REMARK    3  A    between atoms: O_2  and  P_7 
REMARK    4  A    between atoms: C_3  and  C_4 
REMARK    5  A    between atoms: P_7  and  O_10 
REMARK    6  A    between atoms: O_10  and  P_11 
ROOT
HETATM    1  P   UNL     1       4.574  13.710  14.809  1.00  0.00     0.418 P 
HETATM    2  O   UNL     1       3.726  14.916  15.052  1.00  0.00    -0.624 OA
HETATM    3  O   UNL     1       4.879  12.818  15.964  1.00  0.00    -0.624 OA
ENDROOT
BRANCH   1   4
HETATM    4  O   UNL     1       5.977  14.162  14.142  1.00  0.00    -0.173 OA
BRANCH   4   5
HETATM    5  P   UNL     1       7.055  15.286  14.624  1.00  0.00     0.431 P 
HETATM    6  O   UNL     1       6.795  16.455  13.689  1.00  0.00    -0.616 OA
HETATM    7  O   UNL     1       8.447  14.668  14.439  1.00  0.00    -0.616 OA
HETATM    8  O   UNL     1       6.759  15.590  16.089  1.00  0.00    -0.616 OA
ENDBRANCH   4   5
ENDBRANCH   1   4
BRANCH   1   9
HETATM    9  O   UNL     1       3.925  12.762  13.683  1.00  0.00    -0.289 OA
BRANCH   9  10
HETATM   10  C   UNL     1       4.544  11.498  13.352  1.00  0.00     0.185 C 
BRANCH  10  11
HETATM   11  C   UNL     1       3.644  10.394  13.821  1.00  0.00     0.059 C 
BRANCH  11  12
HETATM   12  C   UNL     1       3.051   9.570  12.706  1.00  0.00    -0.091 C 
HETATM   13  C   UNL     1       3.572   8.153  12.580  1.00  0.00     0.042 C 
HETATM   14  C   UNL     1       2.154  10.082  11.875  1.00  0.00     0.014 C 
ENDBRANCH  11  12
ENDBRANCH  10  11
ENDBRANCH   9  10
ENDBRANCH   1   9
TORSDOF 6
ENDMDL
MODEL 15
REMARK VINA RESULT:    -4.628      5.615      6.942
REMARK INTER + INTRA:          -6.488
REMARK INTER:                  -6.263
REMARK INTRA:                  -0.225
REMARK UNBOUND:                -0.237
REMARK  6 active torsions:
REMARK  status: ('A' for Active; 'I' for Inactive)
REMARK    1  A    between atoms: C_1  and  C_3 
REMARK    2  A    between atoms: C_1  and  O_2 
REMARK    3  A    between atoms: O_2  and  P_7 
REMARK    4  A    between atoms: C_3  and  C_4 
REMARK    5  A    between atoms: P_7  and  O_10 
REMARK    6  A    between atoms: O_10  and  P_11 
ROOT
HETATM    1  P   UNL     1      13.461   9.342  15.704  1.00  0.00     0.418 P 
HETATM    2  O   UNL     1      14.870   9.798  15.905  1.00  0.00    -0.624 OA
HETATM    3  O   UNL     1      12.494   9.525  16.824  1.00  0.00    -0.624 OA
ENDROOT
BRANCH   1   4
HETATM    4  O   UNL     1      13.454   7.779  15.287  1.00  0.00    -0.173 OA
BRANCH   4   5
HETATM    5  P   UNL     1      12.301   6.644  15.492  1.00  0.00     0.431 P 
HETATM    6  O   UNL     1      11.035   7.328  15.004  1.00  0.00    -0.616 OA
HETATM    7  O   UNL     1      12.268   6.317  16.990  1.00  0.00    -0.616 OA
HETATM    8  O   UNL     1      12.712   5.436  14.656  1.00  0.00    -0.616 OA
ENDBRANCH   4   5
ENDBRANCH   1   4
BRANCH   1   9
HETATM    9  O   UNL     1      12.795  10.061  14.429  1.00  0.00    -0.289 OA
BRANCH   9  10
HETATM   10  C   UNL     1      13.026   9.545  13.098  1.00  0.00     0.185 C 
BRANCH  10  11
HETATM   11  C   UNL     1      13.021  10.695  12.137  1.00  0.00     0.059 C 
BRANCH  11  12
HETATM   12  C   UNL     1      13.580  10.361  10.776  1.00  0.00    -0.091 C 
HETATM   13  C   UNL     1      13.317   8.955  10.280  1.00  0.00     0.042 C 
HETATM   14  C   UNL     1      14.283  11.248  10.087  1.00  0.00     0.014 C 
ENDBRANCH  11  12
ENDBRANCH  10  11
ENDBRANCH   9  10
ENDBRANCH   1   9
TORSDOF 6
ENDMDL
MODEL 16
REMARK VINA RESULT:    -4.613      1.683      2.503
REMARK INTER + INTRA:          -6.468
REMARK INTER:                  -6.110
REMARK INTRA:                  -0.357
REMARK UNBOUND:                -0.237
REMARK  6 active torsions:
REMARK  status: ('A' for Active; 'I' for Inactive)
REMARK    1  A    between atoms: C_1  and  C_3 
REMARK    2  A    between atoms: C_1  and  O_2 
REMARK    3  A    between atoms: O_2  and  P_7 
REMARK    4  A    between atoms: C_3  and  C_4 
REMARK    5  A    between atoms: P_7  and  O_10 
REMARK    6  A    between atoms: O_10  and  P_11 
ROOT
HETATM    1  P   UNL     1      10.845   7.596  16.696  1.00  0.00     0.418 P 
HETATM    2  O   UNL     1      11.588   6.387  16.228  1.00  0.00    -0.624 OA
HETATM    3  O   UNL     1       9.557   7.937  16.026  1.00  0.00    -0.624 OA
ENDROOT
BRANCH   1   4
HETATM    4  O   UNL     1      11.811   8.890  16.610  1.00  0.00    -0.173 OA
BRANCH   4   5
HETATM    5  P   UNL     1      12.764   9.410  15.393  1.00  0.00     0.431 P 
HETATM    6  O   UNL     1      11.907   9.205  14.155  1.00  0.00    -0.616 OA
HETATM    7  O   UNL     1      14.018   8.526  15.409  1.00  0.00    -0.616 OA
HETATM    8  O   UNL     1      13.097  10.871  15.680  1.00  0.00    -0.616 OA
ENDBRANCH   4   5
ENDBRANCH   1   4
BRANCH   1   9
HETATM    9  O   UNL     1      10.508   7.498  18.266  1.00  0.00    -0.289 OA
BRANCH   9  10
HETATM   10  C   UNL     1       9.408   6.679  18.725  1.00  0.00     0.185 C 
BRANCH  10  11
HETATM   11  C   UNL     1       8.505   7.528  19.567  1.00  0.00     0.059 C 
BRANCH  11  12
HETATM   12  C   UNL     1       7.079   7.582  19.079  1.00  0.00    -0.091 C 
HETATM   13  C   UNL     1       6.771   8.652  18.052  1.00  0.00     0.042 C 
HETATM   14  C   UNL     1       6.158   6.757  19.556  1.00  0.00     0.014 C 
ENDBRANCH  11  12
ENDBRANCH  10  11
ENDBRANCH   9  10
ENDBRANCH   1   9
TORSDOF 6
ENDMDL
MODEL 17
REMARK VINA RESULT:    -4.577      3.780      4.966
REMARK INTER + INTRA:          -6.419
REMARK INTER:                  -5.853
REMARK INTRA:                  -0.566
REMARK UNBOUND:                -0.237
REMARK  6 active torsions:
REMARK  status: ('A' for Active; 'I' for Inactive)
REMARK    1  A    between atoms: C_1  and  C_3 
REMARK    2  A    between atoms: C_1  and  O_2 
REMARK    3  A    between atoms: O_2  and  P_7 
REMARK    4  A    between atoms: C_3  and  C_4 
REMARK    5  A    between atoms: P_7  and  O_10 
REMARK    6  A    between atoms: O_10  and  P_11 
ROOT
HETATM    1  P   UNL     1      10.206   8.301  16.429  1.00  0.00     0.418 P 
HETATM    2  O   UNL     1      11.190   9.032  17.283  1.00  0.00    -0.624 OA
HETATM    3  O   UNL     1       9.267   7.349  17.091  1.00  0.00    -0.624 OA
ENDROOT
BRANCH   1   4
HETATM    4  O   UNL     1      10.991   7.498  15.265  1.00  0.00    -0.173 OA
BRANCH   4   5
HETATM    5  P   UNL     1      12.348   6.597  15.343  1.00  0.00     0.431 P 
HETATM    6  O   UNL     1      12.093   5.479  14.346  1.00  0.00    -0.616 OA
HETATM    7  O   UNL     1      12.461   6.097  16.790  1.00  0.00    -0.616 OA
HETATM    8  O   UNL     1      13.512   7.507  14.966  1.00  0.00    -0.616 OA
ENDBRANCH   4   5
ENDBRANCH   1   4
BRANCH   1   9
HETATM    9  O   UNL     1       9.280   9.325  15.604  1.00  0.00    -0.289 OA
BRANCH   9  10
HETATM   10  C   UNL     1       9.731  10.677  15.357  1.00  0.00     0.185 C 
BRANCH  10  11
HETATM   11  C   UNL     1      10.352  10.727  13.994  1.00  0.00     0.059 C 
BRANCH  11  12
HETATM   12  C   UNL     1      11.858  10.792  14.006  1.00  0.00    -0.091 C 
HETATM   13  C   UNL     1      12.557  10.202  12.799  1.00  0.00     0.042 C 
HETATM   14  C   UNL     1      12.515  11.308  15.035  1.00  0.00     0.014 C 
ENDBRANCH  11  12
ENDBRANCH  10  11
ENDBRANCH   9  10
ENDBRANCH   1   9
TORSDOF 6
ENDMDL
MODEL 18
REMARK VINA RESULT:    -4.458      2.720      3.076
REMARK INTER + INTRA:          -6.258
REMARK INTER:                  -6.021
REMARK INTRA:                  -0.236
REMARK UNBOUND:                -0.237
REMARK  6 active torsions:
REMARK  status: ('A' for Active; 'I' for Inactive)
REMARK    1  A    between atoms: C_1  and  C_3 
REMARK    2  A    between atoms: C_1  and  O_2 
REMARK    3  A    between atoms: O_2  and  P_7 
REMARK    4  A    between atoms: C_3  and  C_4 
REMARK    5  A    between atoms: P_7  and  O_10 
REMARK    6  A    between atoms: O_10  and  P_11 
ROOT
HETATM    1  P   UNL     1      10.690   7.633  16.697  1.00  0.00     0.418 P 
HETATM    2  O   UNL     1      11.313   8.838  17.321  1.00  0.00    -0.624 OA
HETATM    3  O   UNL     1      10.842   6.321  17.390  1.00  0.00    -0.624 OA
ENDROOT
BRANCH   1   4
HETATM    4  O   UNL     1      11.235   7.464  15.184  1.00  0.00    -0.173 OA
BRANCH   4   5
HETATM    5  P   UNL     1      12.713   7.038  14.642  1.00  0.00     0.431 P 
HETATM    6  O   UNL     1      12.637   7.306  13.148  1.00  0.00    -0.616 OA
HETATM    7  O   UNL     1      12.891   5.551  14.976  1.00  0.00    -0.616 OA
HETATM    8  O   UNL     1      13.727   7.909  15.376  1.00  0.00    -0.616 OA
ENDBRANCH   4   5
ENDBRANCH   1   4
BRANCH   1   9
HETATM    9  O   UNL     1       9.108   7.838  16.493  1.00  0.00    -0.289 OA
BRANCH   9  10
HETATM   10  C   UNL     1       8.458   9.031  16.988  1.00  0.00     0.185 C 
BRANCH  10  11
HETATM   11  C   UNL     1       8.014   9.849  15.814  1.00  0.00     0.059 C 
BRANCH  11  12
HETATM   12  C   UNL     1       6.525  10.086  15.757  1.00  0.00    -0.091 C 
HETATM   13  C   UNL     1       5.917  10.764  16.966  1.00  0.00     0.042 C 
HETATM   14  C   UNL     1       5.806   9.688  14.718  1.00  0.00     0.014 C 
ENDBRANCH  11  12
ENDBRANCH  10  11
ENDBRANCH   9  10
ENDBRANCH   1   9
TORSDOF 6
ENDMDL
MODEL 19
REMARK VINA RESULT:    -4.445      8.103      9.405
REMARK INTER + INTRA:          -6.241
REMARK INTER:                  -6.032
REMARK INTRA:                  -0.210
REMARK UNBOUND:                -0.237
REMARK  6 active torsions:
REMARK  status: ('A' for Active; 'I' for Inactive)
REMARK    1  A    between atoms: C_1  and  C_3 
REMARK    2  A    between atoms: C_1  and  O_2 
REMARK    3  A    between atoms: O_2  and  P_7 
REMARK    4  A    between atoms: C_3  and  C_4 
REMARK    5  A    between atoms: P_7  and  O_10 
REMARK    6  A    between atoms: O_10  and  P_11 
ROOT
HETATM    1  P   UNL     1       4.856  13.930  15.178  1.00  0.00     0.418 P 
HETATM    2  O   UNL     1       6.114  13.135  15.300  1.00  0.00    -0.624 OA
HETATM    3  O   UNL     1       4.969  15.394  14.912  1.00  0.00    -0.624 OA
ENDROOT
BRANCH   1   4
HETATM    4  O   UNL     1       3.961  13.733  16.511  1.00  0.00    -0.173 OA
BRANCH   4   5
HETATM    5  P   UNL     1       4.178  12.737  17.783  1.00  0.00     0.431 P 
HETATM    6  O   UNL     1       5.342  13.362  18.533  1.00  0.00    -0.616 OA
HETATM    7  O   UNL     1       4.508  11.354  17.207  1.00  0.00    -0.616 OA
HETATM    8  O   UNL     1       2.871  12.725  18.570  1.00  0.00    -0.616 OA
ENDBRANCH   4   5
ENDBRANCH   1   4
BRANCH   1   9
HETATM    9  O   UNL     1       3.910  13.346  14.015  1.00  0.00    -0.289 OA
BRANCH   9  10
HETATM   10  C   UNL     1       4.458  12.473  13.001  1.00  0.00     0.185 C 
BRANCH  10  11
HETATM   11  C   UNL     1       3.323  11.898  12.209  1.00  0.00     0.059 C 
BRANCH  11  12
HETATM   12  C   UNL     1       2.857  10.548  12.694  1.00  0.00    -0.091 C 
HETATM   13  C   UNL     1       3.759   9.856  13.694  1.00  0.00     0.042 C 
HETATM   14  C   UNL     1       1.740  10.001  12.235  1.00  0.00     0.014 C 
ENDBRANCH  11  12
ENDBRANCH  10  11
ENDBRANCH   9  10
ENDBRANCH   1   9
TORSDOF 6
ENDMDL
MODEL 20
REMARK VINA RESULT:    -4.434      2.910      5.098
REMARK INTER + INTRA:          -6.226
REMARK INTER:                  -5.773
REMARK INTRA:                  -0.453
REMARK UNBOUND:                -0.237
REMARK  6 active torsions:
REMARK  status: ('A' for Active; 'I' for Inactive)
REMARK    1  A    between atoms: C_1  and  C_3 
REMARK    2  A    between atoms: C_1  and  O_2 
REMARK    3  A    between atoms: O_2  and  P_7 
REMARK    4  A    between atoms: C_3  and  C_4 
REMARK    5  A    between atoms: P_7  and  O_10 
REMARK    6  A    between atoms: O_10  and  P_11 
ROOT
HETATM    1  P   UNL     1       7.867   9.159  16.338  1.00  0.00     0.418 P 
HETATM    2  O   UNL     1       8.984   8.233  15.983  1.00  0.00    -0.624 OA
HETATM    3  O   UNL     1       6.470   8.642  16.265  1.00  0.00    -0.624 OA
ENDROOT
BRANCH   1   4
HETATM    4  O   UNL     1       7.955  10.489  15.421  1.00  0.00    -0.173 OA
BRANCH   4   5
HETATM    5  P   UNL     1       6.810  11.591  15.056  1.00  0.00     0.431 P 
HETATM    6  O   UNL     1       7.601  12.750  14.474  1.00  0.00    -0.616 OA
HETATM    7  O   UNL     1       6.106  11.946  16.373  1.00  0.00    -0.616 OA
HETATM    8  O   UNL     1       5.857  10.932  14.064  1.00  0.00    -0.616 OA
ENDBRANCH   4   5
ENDBRANCH   1   4
BRANCH   1   9
HETATM    9  O   UNL     1       8.042   9.735  17.830  1.00  0.00    -0.289 OA
BRANCH   9  10
HETATM   10  C   UNL     1       8.815   9.000  18.807  1.00  0.00     0.185 C 
BRANCH  10  11
HETATM   11  C   UNL     1       7.870   8.413  19.812  1.00  0.00     0.059 C 
BRANCH  11  12
HETATM   12  C   UNL     1       7.356   7.043  19.444  1.00  0.00    -0.091 C 
HETATM   13  C   UNL     1       8.406   6.023  19.058  1.00  0.00     0.042 C 
HETATM   14  C   UNL     1       6.057   6.778  19.434  1.00  0.00     0.014 C 
ENDBRANCH  11  12
ENDBRANCH  10  11
ENDBRANCH   9  10
ENDBRANCH   1   9
TORSDOF 6
ENDMDL
