MODEL 1
REMARK VINA RESULT:    -5.972      0.000      0.000
REMARK INTER + INTRA:         -11.790
REMARK INTER:                 -10.510
REMARK INTRA:                  -1.280
REMARK UNBOUND:                -1.280
REMARK  13 active torsions:
REMARK  status: ('A' for Active; 'I' for Inactive)
REMARK    1  A    between atoms: C_1  and  C_4 
REMARK    2  A    between atoms: C_4  and  C_5 
REMARK    3  A    between atoms: C_5  and  C_8 
REMARK    4  A    between atoms: C_6  and  C_7 
REMARK    5  A    between atoms: C_6  and  C_8 
REMARK    6  A    between atoms: C_7  and  C_9 
REMARK    7  A    between atoms: C_9  and  C_10 
REMARK    8  A    between atoms: C_10  and  C_11 
REMARK    9  A    between atoms: C_11  and  C_12 
REMARK   10  A    between atoms: C_12  and  C_13 
REMARK   11  A    between atoms: C_13  and  C_14 
REMARK   12  A    between atoms: C_14  and  C_15 
REMARK   13  A    between atoms: C_15  and  C_16 
ROOT
HETATM    1  C   UNL     1       7.822 -24.999  -2.187  1.00  0.00     0.000 C 
ENDROOT
BRANCH   1   2
HETATM    2  C   UNL     1       7.708 -23.891  -1.180  1.00  0.00     0.000 C 
BRANCH   2   3
HETATM    3  C   UNL     1       6.468 -23.014  -1.297  1.00  0.00     0.000 C 
BRANCH   3   4
HETATM    4  C   UNL     1       6.748 -21.538  -1.207  1.00  0.00     0.001 C 
BRANCH   4   5
HETATM    5  C   UNL     1       6.178 -20.905   0.049  1.00  0.00     0.010 C 
BRANCH   5   6
HETATM    6  C   UNL     1       6.231 -21.762   1.270  1.00  0.00     0.113 C 
BRANCH   6   7
HETATM    7  C   UNL     1       7.565 -21.889   1.953  1.00  0.00     0.172 C 
HETATM    8  O   UNL     1       8.260 -20.826   2.075  1.00  0.00    -0.648 OA
HETATM    9  O   UNL     1       7.940 -23.004   2.384  1.00  0.00    -0.648 OA
ENDBRANCH   6   7
ENDBRANCH   5   6
ENDBRANCH   4   5
ENDBRANCH   3   4
ENDBRANCH   2   3
ENDBRANCH   1   2
BRANCH   1  10
HETATM   10  C   UNL     1       8.016 -24.497  -3.587  1.00  0.00     0.000 C 
BRANCH  10  11
HETATM   11  C   UNL     1       6.751 -24.741  -4.382  1.00  0.00     0.000 C 
BRANCH  11  12
HETATM   12  C   UNL     1       6.421 -23.719  -5.404  1.00  0.00     0.000 C 
BRANCH  12  13
HETATM   13  C   UNL     1       6.343 -22.344  -4.911  1.00  0.00     0.000 C 
BRANCH  13  14
HETATM   14  C   UNL     1       6.523 -21.264  -5.917  1.00  0.00     0.000 C 
BRANCH  14  15
HETATM   15  C   UNL     1       7.071 -20.109  -5.164  1.00  0.00    -0.000 C 
BRANCH  15  16
HETATM   16  C   UNL     1       6.264 -18.826  -5.175  1.00  0.00    -0.005 C 
HETATM   17  C   UNL     1       5.999 -18.393  -3.750  1.00  0.00     0.005 C 
ENDBRANCH  15  16
ENDBRANCH  14  15
ENDBRANCH  13  14
ENDBRANCH  12  13
ENDBRANCH  11  12
ENDBRANCH  10  11
ENDBRANCH   1  10
TORSDOF 13
ENDMDL
MODEL 2
REMARK VINA RESULT:    -5.932      3.203      5.655
REMARK INTER + INTRA:         -11.720
REMARK INTER:                  -9.714
REMARK INTRA:                  -2.006
REMARK UNBOUND:                -1.280
REMARK  13 active torsions:
REMARK  status: ('A' for Active; 'I' for Inactive)
REMARK    1  A    between atoms: C_1  and  C_4 
REMARK    2  A    between atoms: C_4  and  C_5 
REMARK    3  A    between atoms: C_5  and  C_8 
REMARK    4  A    between atoms: C_6  and  C_7 
REMARK    5  A    between atoms: C_6  and  C_8 
REMARK    6  A    between atoms: C_7  and  C_9 
REMARK    7  A    between atoms: C_9  and  C_10 
REMARK    8  A    between atoms: C_10  and  C_11 
REMARK    9  A    between atoms: C_11  and  C_12 
REMARK   10  A    between atoms: C_12  and  C_13 
REMARK   11  A    between atoms: C_13  and  C_14 
REMARK   12  A    between atoms: C_14  and  C_15 
REMARK   13  A    between atoms: C_15  and  C_16 
ROOT
HETATM    1  C   UNL     1       9.301 -20.706   0.155  1.00  0.00     0.000 C 
ENDROOT
BRANCH   1   2
HETATM    2  C   UNL     1       8.838 -19.701  -0.860  1.00  0.00     0.000 C 
BRANCH   2   3
HETATM    3  C   UNL     1       7.604 -20.089  -1.662  1.00  0.00     0.000 C 
BRANCH   3   4
HETATM    4  C   UNL     1       6.349 -19.368  -1.248  1.00  0.00     0.001 C 
BRANCH   4   5
HETATM    5  C   UNL     1       6.629 -18.054  -0.543  1.00  0.00     0.010 C 
BRANCH   5   6
HETATM    6  C   UNL     1       6.467 -16.835  -1.389  1.00  0.00     0.113 C 
BRANCH   6   7
HETATM    7  C   UNL     1       7.542 -15.788  -1.286  1.00  0.00     0.172 C 
HETATM    8  O   UNL     1       7.301 -14.777  -0.546  1.00  0.00    -0.648 OA
HETATM    9  O   UNL     1       8.622 -15.943  -1.902  1.00  0.00    -0.648 OA
ENDBRANCH   6   7
ENDBRANCH   5   6
ENDBRANCH   4   5
ENDBRANCH   3   4
ENDBRANCH   2   3
ENDBRANCH   1   2
BRANCH   1  10
HETATM   10  C   UNL     1       8.523 -20.643   1.436  1.00  0.00     0.000 C 
BRANCH  10  11
HETATM   11  C   UNL     1       7.910 -21.999   1.711  1.00  0.00     0.000 C 
BRANCH  11  12
HETATM   12  C   UNL     1       6.492 -22.164   1.307  1.00  0.00     0.000 C 
BRANCH  12  13
HETATM   13  C   UNL     1       6.270 -23.022   0.143  1.00  0.00     0.000 C 
BRANCH  13  14
HETATM   14  C   UNL     1       7.403 -23.890  -0.272  1.00  0.00     0.000 C 
BRANCH  14  15
HETATM   15  C   UNL     1       7.037 -24.404  -1.615  1.00  0.00    -0.000 C 
BRANCH  15  16
HETATM   16  C   UNL     1       6.310 -23.456  -2.547  1.00  0.00    -0.005 C 
HETATM   17  C   UNL     1       7.188 -23.166  -3.744  1.00  0.00     0.005 C 
ENDBRANCH  15  16
ENDBRANCH  14  15
ENDBRANCH  13  14
ENDBRANCH  12  13
ENDBRANCH  11  12
ENDBRANCH  10  11
ENDBRANCH   1  10
TORSDOF 13
ENDMDL
MODEL 3
REMARK VINA RESULT:    -5.903      2.380      4.159
REMARK INTER + INTRA:         -11.669
REMARK INTER:                 -10.284
REMARK INTRA:                  -1.385
REMARK UNBOUND:                -1.280
REMARK  13 active torsions:
REMARK  status: ('A' for Active; 'I' for Inactive)
REMARK    1  A    between atoms: C_1  and  C_4 
REMARK    2  A    between atoms: C_4  and  C_5 
REMARK    3  A    between atoms: C_5  and  C_8 
REMARK    4  A    between atoms: C_6  and  C_7 
REMARK    5  A    between atoms: C_6  and  C_8 
REMARK    6  A    between atoms: C_7  and  C_9 
REMARK    7  A    between atoms: C_9  and  C_10 
REMARK    8  A    between atoms: C_10  and  C_11 
REMARK    9  A    between atoms: C_11  and  C_12 
REMARK   10  A    between atoms: C_12  and  C_13 
REMARK   11  A    between atoms: C_13  and  C_14 
REMARK   12  A    between atoms: C_14  and  C_15 
REMARK   13  A    between atoms: C_15  and  C_16 
ROOT
HETATM    1  C   UNL     1       7.508 -22.899   1.610  1.00  0.00     0.000 C 
ENDROOT
BRANCH   1   2
HETATM    2  C   UNL     1       7.741 -21.416   1.621  1.00  0.00     0.000 C 
BRANCH   2   3
HETATM    3  C   UNL     1       8.933 -20.926   0.810  1.00  0.00     0.000 C 
BRANCH   3   4
HETATM    4  C   UNL     1       8.582 -20.457  -0.576  1.00  0.00     0.001 C 
BRANCH   4   5
HETATM    5  C   UNL     1       7.157 -19.947  -0.683  1.00  0.00     0.010 C 
BRANCH   5   6
HETATM    6  C   UNL     1       6.950 -18.849  -1.672  1.00  0.00     0.113 C 
BRANCH   6   7
HETATM    7  C   UNL     1       5.831 -17.884  -1.392  1.00  0.00     0.172 C 
HETATM    8  O   UNL     1       4.904 -17.797  -2.265  1.00  0.00    -0.648 OA
HETATM    9  O   UNL     1       5.833 -17.220  -0.329  1.00  0.00    -0.648 OA
ENDBRANCH   6   7
ENDBRANCH   5   6
ENDBRANCH   4   5
ENDBRANCH   3   4
ENDBRANCH   2   3
ENDBRANCH   1   2
BRANCH   1  10
HETATM   10  C   UNL     1       6.572 -23.335   0.521  1.00  0.00     0.000 C 
BRANCH  10  11
HETATM   11  C   UNL     1       7.348 -24.117  -0.517  1.00  0.00     0.000 C 
BRANCH  11  12
HETATM   12  C   UNL     1       7.096 -23.747  -1.931  1.00  0.00     0.000 C 
BRANCH  12  13
HETATM   13  C   UNL     1       7.281 -24.826  -2.902  1.00  0.00     0.000 C 
BRANCH  13  14
HETATM   14  C   UNL     1       6.585 -24.675  -4.207  1.00  0.00     0.000 C 
BRANCH  14  15
HETATM   15  C   UNL     1       7.149 -23.446  -4.817  1.00  0.00    -0.000 C 
BRANCH  15  16
HETATM   16  C   UNL     1       6.170 -22.381  -5.267  1.00  0.00    -0.005 C 
HETATM   17  C   UNL     1       6.661 -21.028  -4.804  1.00  0.00     0.005 C 
ENDBRANCH  15  16
ENDBRANCH  14  15
ENDBRANCH  13  14
ENDBRANCH  12  13
ENDBRANCH  11  12
ENDBRANCH  10  11
ENDBRANCH   1  10
TORSDOF 13
ENDMDL
MODEL 4
REMARK VINA RESULT:    -5.900      3.763      6.486
REMARK INTER + INTRA:         -11.664
REMARK INTER:                 -10.748
REMARK INTRA:                  -0.916
REMARK UNBOUND:                -1.280
REMARK  13 active torsions:
REMARK  status: ('A' for Active; 'I' for Inactive)
REMARK    1  A    between atoms: C_1  and  C_4 
REMARK    2  A    between atoms: C_4  and  C_5 
REMARK    3  A    between atoms: C_5  and  C_8 
REMARK    4  A    between atoms: C_6  and  C_7 
REMARK    5  A    between atoms: C_6  and  C_8 
REMARK    6  A    between atoms: C_7  and  C_9 
REMARK    7  A    between atoms: C_9  and  C_10 
REMARK    8  A    between atoms: C_10  and  C_11 
REMARK    9  A    between atoms: C_11  and  C_12 
REMARK   10  A    between atoms: C_12  and  C_13 
REMARK   11  A    between atoms: C_13  and  C_14 
REMARK   12  A    between atoms: C_14  and  C_15 
REMARK   13  A    between atoms: C_15  and  C_16 
ROOT
HETATM    1  C   UNL     1       6.511 -23.581  -4.404  1.00  0.00     0.000 C 
ENDROOT
BRANCH   1   2
HETATM    2  C   UNL     1       6.266 -23.223  -5.842  1.00  0.00     0.000 C 
BRANCH   2   3
HETATM    3  C   UNL     1       6.957 -21.960  -6.337  1.00  0.00     0.000 C 
BRANCH   3   4
HETATM    4  C   UNL     1       7.513 -21.093  -5.240  1.00  0.00     0.001 C 
BRANCH   4   5
HETATM    5  C   UNL     1       7.138 -19.631  -5.396  1.00  0.00     0.010 C 
BRANCH   5   6
HETATM    6  C   UNL     1       8.251 -18.734  -5.826  1.00  0.00     0.113 C 
BRANCH   6   7
HETATM    7  C   UNL     1       8.716 -18.864  -7.251  1.00  0.00     0.172 C 
HETATM    8  O   UNL     1       9.973 -18.815  -7.460  1.00  0.00    -0.648 OA
HETATM    9  O   UNL     1       7.875 -19.025  -8.166  1.00  0.00    -0.648 OA
ENDBRANCH   6   7
ENDBRANCH   5   6
ENDBRANCH   4   5
ENDBRANCH   3   4
ENDBRANCH   2   3
ENDBRANCH   1   2
BRANCH   1  10
HETATM   10  C   UNL     1       6.673 -25.057  -4.189  1.00  0.00     0.000 C 
BRANCH  10  11
HETATM   11  C   UNL     1       7.982 -25.313  -3.474  1.00  0.00     0.000 C 
BRANCH  11  12
HETATM   12  C   UNL     1       8.264 -24.444  -2.306  1.00  0.00     0.000 C 
BRANCH  12  13
HETATM   13  C   UNL     1       7.440 -24.699  -1.124  1.00  0.00     0.000 C 
BRANCH  13  14
HETATM   14  C   UNL     1       6.704 -23.536  -0.561  1.00  0.00     0.000 C 
BRANCH  14  15
HETATM   15  C   UNL     1       7.450 -23.150   0.662  1.00  0.00    -0.000 C 
BRANCH  15  16
HETATM   16  C   UNL     1       6.637 -22.690   1.855  1.00  0.00    -0.005 C 
HETATM   17  C   UNL     1       5.304 -22.162   1.374  1.00  0.00     0.005 C 
ENDBRANCH  15  16
ENDBRANCH  14  15
ENDBRANCH  13  14
ENDBRANCH  12  13
ENDBRANCH  11  12
ENDBRANCH  10  11
ENDBRANCH   1  10
TORSDOF 13
ENDMDL
MODEL 5
REMARK VINA RESULT:    -5.884      0.985      3.748
REMARK INTER + INTRA:         -11.636
REMARK INTER:                 -10.097
REMARK INTRA:                  -1.539
REMARK UNBOUND:                -1.280
REMARK  13 active torsions:
REMARK  status: ('A' for Active; 'I' for Inactive)
REMARK    1  A    between atoms: C_1  and  C_4 
REMARK    2  A    between atoms: C_4  and  C_5 
REMARK    3  A    between atoms: C_5  and  C_8 
REMARK    4  A    between atoms: C_6  and  C_7 
REMARK    5  A    between atoms: C_6  and  C_8 
REMARK    6  A    between atoms: C_7  and  C_9 
REMARK    7  A    between atoms: C_9  and  C_10 
REMARK    8  A    between atoms: C_10  and  C_11 
REMARK    9  A    between atoms: C_11  and  C_12 
REMARK   10  A    between atoms: C_12  and  C_13 
REMARK   11  A    between atoms: C_13  and  C_14 
REMARK   12  A    between atoms: C_14  and  C_15 
REMARK   13  A    between atoms: C_15  and  C_16 
ROOT
HETATM    1  C   UNL     1       7.292 -20.006  -4.687  1.00  0.00     0.000 C 
ENDROOT
BRANCH   1   2
HETATM    2  C   UNL     1       7.083 -19.926  -3.203  1.00  0.00     0.000 C 
BRANCH   2   3
HETATM    3  C   UNL     1       7.550 -21.134  -2.402  1.00  0.00     0.000 C 
BRANCH   3   4
HETATM    4  C   UNL     1       7.808 -20.845  -0.947  1.00  0.00     0.001 C 
BRANCH   4   5
HETATM    5  C   UNL     1       6.534 -20.750  -0.130  1.00  0.00     0.010 C 
BRANCH   5   6
HETATM    6  C   UNL     1       6.405 -21.760   0.961  1.00  0.00     0.113 C 
BRANCH   6   7
HETATM    7  C   UNL     1       7.577 -21.906   1.894  1.00  0.00     0.172 C 
HETATM    8  O   UNL     1       7.912 -23.090   2.228  1.00  0.00    -0.648 OA
HETATM    9  O   UNL     1       8.183 -20.885   2.294  1.00  0.00    -0.648 OA
ENDBRANCH   6   7
ENDBRANCH   5   6
ENDBRANCH   4   5
ENDBRANCH   3   4
ENDBRANCH   2   3
ENDBRANCH   1   2
BRANCH   1  10
HETATM   10  C   UNL     1       7.875 -21.317  -5.125  1.00  0.00     0.000 C 
BRANCH  10  11
HETATM   11  C   UNL     1       7.017 -21.899  -6.228  1.00  0.00     0.000 C 
BRANCH  11  12
HETATM   12  C   UNL     1       6.500 -23.269  -5.993  1.00  0.00     0.000 C 
BRANCH  12  13
HETATM   13  C   UNL     1       6.256 -23.613  -4.592  1.00  0.00     0.000 C 
BRANCH  13  14
HETATM   14  C   UNL     1       6.763 -24.933  -4.132  1.00  0.00     0.000 C 
BRANCH  14  15
HETATM   15  C   UNL     1       8.081 -24.656  -3.509  1.00  0.00    -0.000 C 
BRANCH  15  16
HETATM   16  C   UNL     1       8.324 -25.214  -2.121  1.00  0.00    -0.005 C 
HETATM   17  C   UNL     1       7.281 -24.663  -1.175  1.00  0.00     0.005 C 
ENDBRANCH  15  16
ENDBRANCH  14  15
ENDBRANCH  13  14
ENDBRANCH  12  13
ENDBRANCH  11  12
ENDBRANCH  10  11
ENDBRANCH   1  10
TORSDOF 13
ENDMDL
MODEL 6
REMARK VINA RESULT:    -5.854      1.272      2.602
REMARK INTER + INTRA:         -11.582
REMARK INTER:                 -10.085
REMARK INTRA:                  -1.498
REMARK UNBOUND:                -1.280
REMARK  13 active torsions:
REMARK  status: ('A' for Active; 'I' for Inactive)
REMARK    1  A    between atoms: C_1  and  C_4 
REMARK    2  A    between atoms: C_4  and  C_5 
REMARK    3  A    between atoms: C_5  and  C_8 
REMARK    4  A    between atoms: C_6  and  C_7 
REMARK    5  A    between atoms: C_6  and  C_8 
REMARK    6  A    between atoms: C_7  and  C_9 
REMARK    7  A    between atoms: C_9  and  C_10 
REMARK    8  A    between atoms: C_10  and  C_11 
REMARK    9  A    between atoms: C_11  and  C_12 
REMARK   10  A    between atoms: C_12  and  C_13 
REMARK   11  A    between atoms: C_13  and  C_14 
REMARK   12  A    between atoms: C_14  and  C_15 
REMARK   13  A    between atoms: C_15  and  C_16 
ROOT
HETATM    1  C   UNL     1       7.011 -24.344  -4.163  1.00  0.00     0.000 C 
ENDROOT
BRANCH   1   2
HETATM    2  C   UNL     1       8.148 -24.652  -3.231  1.00  0.00     0.000 C 
BRANCH   2   3
HETATM    3  C   UNL     1       7.759 -25.260  -1.891  1.00  0.00     0.000 C 
BRANCH   3   4
HETATM    4  C   UNL     1       7.064 -24.304  -0.959  1.00  0.00     0.001 C 
BRANCH   4   5
HETATM    5  C   UNL     1       7.890 -23.066  -0.661  1.00  0.00     0.010 C 
BRANCH   5   6
HETATM    6  C   UNL     1       7.258 -22.096   0.281  1.00  0.00     0.113 C 
BRANCH   6   7
HETATM    7  C   UNL     1       7.890 -21.960   1.640  1.00  0.00     0.172 C 
HETATM    8  O   UNL     1       7.992 -23.019   2.344  1.00  0.00    -0.648 OA
HETATM    9  O   UNL     1       8.300 -20.840   2.025  1.00  0.00    -0.648 OA
ENDBRANCH   6   7
ENDBRANCH   5   6
ENDBRANCH   4   5
ENDBRANCH   3   4
ENDBRANCH   2   3
ENDBRANCH   1   2
BRANCH   1  10
HETATM   10  C   UNL     1       7.204 -23.059  -4.915  1.00  0.00     0.000 C 
BRANCH  10  11
HETATM   11  C   UNL     1       6.659 -21.915  -4.089  1.00  0.00     0.000 C 
BRANCH  11  12
HETATM   12  C   UNL     1       7.649 -20.901  -3.652  1.00  0.00     0.000 C 
BRANCH  12  13
HETATM   13  C   UNL     1       7.297 -19.513  -3.953  1.00  0.00     0.000 C 
BRANCH  13  14
HETATM   14  C   UNL     1       6.239 -19.300  -4.975  1.00  0.00     0.000 C 
BRANCH  14  15
HETATM   15  C   UNL     1       6.893 -18.543  -6.071  1.00  0.00    -0.000 C 
BRANCH  15  16
HETATM   16  C   UNL     1       7.724 -19.332  -7.062  1.00  0.00    -0.005 C 
HETATM   17  C   UNL     1       9.150 -18.830  -7.024  1.00  0.00     0.005 C 
ENDBRANCH  15  16
ENDBRANCH  14  15
ENDBRANCH  13  14
ENDBRANCH  12  13
ENDBRANCH  11  12
ENDBRANCH  10  11
ENDBRANCH   1  10
TORSDOF 13
ENDMDL
MODEL 7
REMARK VINA RESULT:    -5.845      1.108      2.394
REMARK INTER + INTRA:         -11.568
REMARK INTER:                 -10.581
REMARK INTRA:                  -0.987
REMARK UNBOUND:                -1.280
REMARK  13 active torsions:
REMARK  status: ('A' for Active; 'I' for Inactive)
REMARK    1  A    between atoms: C_1  and  C_4 
REMARK    2  A    between atoms: C_4  and  C_5 
REMARK    3  A    between atoms: C_5  and  C_8 
REMARK    4  A    between atoms: C_6  and  C_7 
REMARK    5  A    between atoms: C_6  and  C_8 
REMARK    6  A    between atoms: C_7  and  C_9 
REMARK    7  A    between atoms: C_9  and  C_10 
REMARK    8  A    between atoms: C_10  and  C_11 
REMARK    9  A    between atoms: C_11  and  C_12 
REMARK   10  A    between atoms: C_12  and  C_13 
REMARK   11  A    between atoms: C_13  and  C_14 
REMARK   12  A    between atoms: C_14  and  C_15 
REMARK   13  A    between atoms: C_15  and  C_16 
ROOT
HETATM    1  C   UNL     1       7.819 -23.440  -4.297  1.00  0.00     0.000 C 
ENDROOT
BRANCH   1   2
HETATM    2  C   UNL     1       7.777 -24.699  -3.480  1.00  0.00     0.000 C 
BRANCH   2   3
HETATM    3  C   UNL     1       6.758 -24.720  -2.349  1.00  0.00     0.000 C 
BRANCH   3   4
HETATM    4  C   UNL     1       7.363 -24.623  -0.974  1.00  0.00     0.001 C 
BRANCH   4   5
HETATM    5  C   UNL     1       6.719 -23.546  -0.121  1.00  0.00     0.010 C 
BRANCH   5   6
HETATM    6  C   UNL     1       7.589 -22.369   0.173  1.00  0.00     0.113 C 
BRANCH   6   7
HETATM    7  C   UNL     1       7.936 -22.125   1.616  1.00  0.00     0.172 C 
HETATM    8  O   UNL     1       7.816 -23.109   2.419  1.00  0.00    -0.648 OA
HETATM    9  O   UNL     1       8.337 -20.993   1.977  1.00  0.00    -0.648 OA
ENDBRANCH   6   7
ENDBRANCH   5   6
ENDBRANCH   4   5
ENDBRANCH   3   4
ENDBRANCH   2   3
ENDBRANCH   1   2
BRANCH   1  10
HETATM   10  C   UNL     1       6.527 -22.678  -4.264  1.00  0.00     0.000 C 
BRANCH  10  11
HETATM   11  C   UNL     1       6.138 -22.299  -5.677  1.00  0.00     0.000 C 
BRANCH  11  12
HETATM   12  C   UNL     1       6.649 -20.994  -6.161  1.00  0.00     0.000 C 
BRANCH  12  13
HETATM   13  C   UNL     1       6.501 -19.878  -5.226  1.00  0.00     0.000 C 
BRANCH  13  14
HETATM   14  C   UNL     1       6.367 -18.522  -5.821  1.00  0.00     0.000 C 
BRANCH  14  15
HETATM   15  C   UNL     1       6.398 -17.582  -4.675  1.00  0.00    -0.000 C 
BRANCH  15  16
HETATM   16  C   UNL     1       6.426 -18.182  -3.284  1.00  0.00    -0.005 C 
HETATM   17  C   UNL     1       5.262 -17.640  -2.485  1.00  0.00     0.005 C 
ENDBRANCH  15  16
ENDBRANCH  14  15
ENDBRANCH  13  14
ENDBRANCH  12  13
ENDBRANCH  11  12
ENDBRANCH  10  11
ENDBRANCH   1  10
TORSDOF 13
ENDMDL
MODEL 8
REMARK VINA RESULT:    -5.840      3.613      6.630
REMARK INTER + INTRA:         -11.558
REMARK INTER:                  -9.657
REMARK INTRA:                  -1.901
REMARK UNBOUND:                -1.280
REMARK  13 active torsions:
REMARK  status: ('A' for Active; 'I' for Inactive)
REMARK    1  A    between atoms: C_1  and  C_4 
REMARK    2  A    between atoms: C_4  and  C_5 
REMARK    3  A    between atoms: C_5  and  C_8 
REMARK    4  A    between atoms: C_6  and  C_7 
REMARK    5  A    between atoms: C_6  and  C_8 
REMARK    6  A    between atoms: C_7  and  C_9 
REMARK    7  A    between atoms: C_9  and  C_10 
REMARK    8  A    between atoms: C_10  and  C_11 
REMARK    9  A    between atoms: C_11  and  C_12 
REMARK   10  A    between atoms: C_12  and  C_13 
REMARK   11  A    between atoms: C_13  and  C_14 
REMARK   12  A    between atoms: C_14  and  C_15 
REMARK   13  A    between atoms: C_15  and  C_16 
ROOT
HETATM    1  C   UNL     1       6.229 -19.192  -1.115  1.00  0.00     0.000 C 
ENDROOT
BRANCH   1   2
HETATM    2  C   UNL     1       6.007 -17.840  -1.728  1.00  0.00     0.000 C 
BRANCH   2   3
HETATM    3  C   UNL     1       5.426 -17.838  -3.136  1.00  0.00     0.000 C 
BRANCH   3   4
HETATM    4  C   UNL     1       6.322 -17.210  -4.169  1.00  0.00     0.001 C 
BRANCH   4   5
HETATM    5  C   UNL     1       7.255 -18.209  -4.827  1.00  0.00     0.010 C 
BRANCH   5   6
HETATM    6  C   UNL     1       6.596 -19.174  -5.756  1.00  0.00     0.113 C 
BRANCH   6   7
HETATM    7  C   UNL     1       7.448 -19.747  -6.856  1.00  0.00     0.172 C 
HETATM    8  O   UNL     1       7.880 -20.937  -6.698  1.00  0.00    -0.648 OA
HETATM    9  O   UNL     1       7.690 -19.061  -7.876  1.00  0.00    -0.648 OA
ENDBRANCH   6   7
ENDBRANCH   5   6
ENDBRANCH   4   5
ENDBRANCH   3   4
ENDBRANCH   2   3
ENDBRANCH   1   2
BRANCH   1  10
HETATM   10  C   UNL     1       7.675 -19.471  -0.824  1.00  0.00     0.000 C 
BRANCH  10  11
HETATM   11  C   UNL     1       8.219 -20.414  -1.874  1.00  0.00     0.000 C 
BRANCH  11  12
HETATM   12  C   UNL     1       7.214 -21.233  -2.594  1.00  0.00     0.000 C 
BRANCH  12  13
HETATM   13  C   UNL     1       7.204 -22.655  -2.249  1.00  0.00     0.000 C 
BRANCH  13  14
HETATM   14  C   UNL     1       6.228 -23.083  -1.212  1.00  0.00     0.000 C 
BRANCH  14  15
HETATM   15  C   UNL     1       7.041 -23.412  -0.015  1.00  0.00    -0.000 C 
BRANCH  15  16
HETATM   16  C   UNL     1       6.534 -22.921   1.326  1.00  0.00    -0.005 C 
HETATM   17  C   UNL     1       5.309 -22.061   1.108  1.00  0.00     0.005 C 
ENDBRANCH  15  16
ENDBRANCH  14  15
ENDBRANCH  13  14
ENDBRANCH  12  13
ENDBRANCH  11  12
ENDBRANCH  10  11
ENDBRANCH   1  10
TORSDOF 13
ENDMDL
MODEL 9
REMARK VINA RESULT:    -5.839      3.479      6.505
REMARK INTER + INTRA:         -11.556
REMARK INTER:                 -10.173
REMARK INTRA:                  -1.383
REMARK UNBOUND:                -1.280
REMARK  13 active torsions:
REMARK  status: ('A' for Active; 'I' for Inactive)
REMARK    1  A    between atoms: C_1  and  C_4 
REMARK    2  A    between atoms: C_4  and  C_5 
REMARK    3  A    between atoms: C_5  and  C_8 
REMARK    4  A    between atoms: C_6  and  C_7 
REMARK    5  A    between atoms: C_6  and  C_8 
REMARK    6  A    between atoms: C_7  and  C_9 
REMARK    7  A    between atoms: C_9  and  C_10 
REMARK    8  A    between atoms: C_10  and  C_11 
REMARK    9  A    between atoms: C_11  and  C_12 
REMARK   10  A    between atoms: C_12  and  C_13 
REMARK   11  A    between atoms: C_13  and  C_14 
REMARK   12  A    between atoms: C_14  and  C_15 
REMARK   13  A    between atoms: C_15  and  C_16 
ROOT
HETATM    1  C   UNL     1       6.563 -23.630  -3.054  1.00  0.00     0.000 C 
ENDROOT
BRANCH   1   2
HETATM    2  C   UNL     1       7.292 -23.577  -4.365  1.00  0.00     0.000 C 
BRANCH   2   3
HETATM    3  C   UNL     1       6.425 -23.366  -5.598  1.00  0.00     0.000 C 
BRANCH   3   4
HETATM    4  C   UNL     1       6.689 -22.074  -6.323  1.00  0.00     0.001 C 
BRANCH   4   5
HETATM    5  C   UNL     1       6.269 -20.853  -5.525  1.00  0.00     0.010 C 
BRANCH   5   6
HETATM    6  C   UNL     1       7.173 -19.673  -5.652  1.00  0.00     0.113 C 
BRANCH   6   7
HETATM    7  C   UNL     1       8.097 -19.649  -6.840  1.00  0.00     0.172 C 
HETATM    8  O   UNL     1       9.292 -20.055  -6.656  1.00  0.00    -0.648 OA
HETATM    9  O   UNL     1       7.671 -19.254  -7.950  1.00  0.00    -0.648 OA
ENDBRANCH   6   7
ENDBRANCH   5   6
ENDBRANCH   4   5
ENDBRANCH   3   4
ENDBRANCH   2   3
ENDBRANCH   1   2
BRANCH   1  10
HETATM   10  C   UNL     1       7.359 -23.058  -1.919  1.00  0.00     0.000 C 
BRANCH  10  11
HETATM   11  C   UNL     1       7.687 -21.612  -2.221  1.00  0.00     0.000 C 
BRANCH  11  12
HETATM   12  C   UNL     1       7.688 -20.690  -1.059  1.00  0.00     0.000 C 
BRANCH  12  13
HETATM   13  C   UNL     1       8.490 -21.127   0.084  1.00  0.00     0.000 C 
BRANCH  13  14
HETATM   14  C   UNL     1       7.812 -21.139   1.407  1.00  0.00     0.000 C 
BRANCH  14  15
HETATM   15  C   UNL     1       7.585 -22.570   1.724  1.00  0.00    -0.000 C 
BRANCH  15  16
HETATM   16  C   UNL     1       6.174 -23.101   1.568  1.00  0.00    -0.005 C 
HETATM   17  C   UNL     1       5.220 -21.937   1.417  1.00  0.00     0.005 C 
ENDBRANCH  15  16
ENDBRANCH  14  15
ENDBRANCH  13  14
ENDBRANCH  12  13
ENDBRANCH  11  12
ENDBRANCH  10  11
ENDBRANCH   1  10
TORSDOF 13
ENDMDL
MODEL 10
REMARK VINA RESULT:    -5.829      3.560      6.063
REMARK INTER + INTRA:         -11.540
REMARK INTER:                 -10.121
REMARK INTRA:                  -1.418
REMARK UNBOUND:                -1.280
REMARK  13 active torsions:
REMARK  status: ('A' for Active; 'I' for Inactive)
REMARK    1  A    between atoms: C_1  and  C_4 
REMARK    2  A    between atoms: C_4  and  C_5 
REMARK    3  A    between atoms: C_5  and  C_8 
REMARK    4  A    between atoms: C_6  and  C_7 
REMARK    5  A    between atoms: C_6  and  C_8 
REMARK    6  A    between atoms: C_7  and  C_9 
REMARK    7  A    between atoms: C_9  and  C_10 
REMARK    8  A    between atoms: C_10  and  C_11 
REMARK    9  A    between atoms: C_11  and  C_12 
REMARK   10  A    between atoms: C_12  and  C_13 
REMARK   11  A    between atoms: C_13  and  C_14 
REMARK   12  A    between atoms: C_14  and  C_15 
REMARK   13  A    between atoms: C_15  and  C_16 
ROOT
HETATM    1  C   UNL     1       7.057 -23.595  -4.993  1.00  0.00     0.000 C 
ENDROOT
BRANCH   1   2
HETATM    2  C   UNL     1       7.820 -22.446  -4.399  1.00  0.00     0.000 C 
BRANCH   2   3
HETATM    3  C   UNL     1       7.018 -21.175  -4.152  1.00  0.00     0.000 C 
BRANCH   3   4
HETATM    4  C   UNL     1       6.278 -20.670  -5.361  1.00  0.00     0.001 C 
BRANCH   4   5
HETATM    5  C   UNL     1       6.335 -19.160  -5.500  1.00  0.00     0.010 C 
BRANCH   5   6
HETATM    6  C   UNL     1       7.685 -18.604  -5.811  1.00  0.00     0.113 C 
BRANCH   6   7
HETATM    7  C   UNL     1       8.394 -19.173  -7.009  1.00  0.00     0.172 C 
HETATM    8  O   UNL     1       7.812 -19.060  -8.139  1.00  0.00    -0.648 OA
HETATM    9  O   UNL     1       9.514 -19.717  -6.868  1.00  0.00    -0.648 OA
ENDBRANCH   6   7
ENDBRANCH   5   6
ENDBRANCH   4   5
ENDBRANCH   3   4
ENDBRANCH   2   3
ENDBRANCH   1   2
BRANCH   1  10
HETATM   10  C   UNL     1       6.785 -24.689  -4.004  1.00  0.00     0.000 C 
BRANCH  10  11
HETATM   11  C   UNL     1       7.999 -24.872  -3.119  1.00  0.00     0.000 C 
BRANCH  11  12
HETATM   12  C   UNL     1       7.727 -25.053  -1.673  1.00  0.00     0.000 C 
BRANCH  12  13
HETATM   13  C   UNL     1       6.961 -23.978  -1.041  1.00  0.00     0.000 C 
BRANCH  13  14
HETATM   14  C   UNL     1       7.655 -23.198   0.017  1.00  0.00     0.000 C 
BRANCH  14  15
HETATM   15  C   UNL     1       8.114 -21.952  -0.645  1.00  0.00    -0.000 C 
BRANCH  15  16
HETATM   16  C   UNL     1       8.051 -20.672   0.163  1.00  0.00    -0.005 C 
HETATM   17  C   UNL     1       8.132 -21.009   1.635  1.00  0.00     0.005 C 
ENDBRANCH  15  16
ENDBRANCH  14  15
ENDBRANCH  13  14
ENDBRANCH  12  13
ENDBRANCH  11  12
ENDBRANCH  10  11
ENDBRANCH   1  10
TORSDOF 13
ENDMDL
MODEL 11
REMARK VINA RESULT:    -5.824      1.916      4.194
REMARK INTER + INTRA:         -11.530
REMARK INTER:                  -9.787
REMARK INTRA:                  -1.743
REMARK UNBOUND:                -1.280
REMARK  13 active torsions:
REMARK  status: ('A' for Active; 'I' for Inactive)
REMARK    1  A    between atoms: C_1  and  C_4 
REMARK    2  A    between atoms: C_4  and  C_5 
REMARK    3  A    between atoms: C_5  and  C_8 
REMARK    4  A    between atoms: C_6  and  C_7 
REMARK    5  A    between atoms: C_6  and  C_8 
REMARK    6  A    between atoms: C_7  and  C_9 
REMARK    7  A    between atoms: C_9  and  C_10 
REMARK    8  A    between atoms: C_10  and  C_11 
REMARK    9  A    between atoms: C_11  and  C_12 
REMARK   10  A    between atoms: C_12  and  C_13 
REMARK   11  A    between atoms: C_13  and  C_14 
REMARK   12  A    between atoms: C_14  and  C_15 
REMARK   13  A    between atoms: C_15  and  C_16 
ROOT
HETATM    1  C   UNL     1       6.434 -18.870  -0.782  1.00  0.00     0.000 C 
ENDROOT
BRANCH   1   2
HETATM    2  C   UNL     1       7.599 -19.676  -1.279  1.00  0.00     0.000 C 
BRANCH   2   3
HETATM    3  C   UNL     1       7.254 -21.006  -1.935  1.00  0.00     0.000 C 
BRANCH   3   4
HETATM    4  C   UNL     1       7.538 -22.208  -1.075  1.00  0.00     0.001 C 
BRANCH   4   5
HETATM    5  C   UNL     1       6.327 -22.666  -0.282  1.00  0.00     0.010 C 
BRANCH   5   6
HETATM    6  C   UNL     1       6.223 -22.101   1.095  1.00  0.00     0.113 C 
BRANCH   6   7
HETATM    7  C   UNL     1       7.489 -22.049   1.906  1.00  0.00     0.172 C 
HETATM    8  O   UNL     1       8.017 -20.902   2.089  1.00  0.00    -0.648 OA
HETATM    9  O   UNL     1       7.968 -23.106   2.378  1.00  0.00    -0.648 OA
ENDBRANCH   6   7
ENDBRANCH   5   6
ENDBRANCH   4   5
ENDBRANCH   3   4
ENDBRANCH   2   3
ENDBRANCH   1   2
BRANCH   1  10
HETATM   10  C   UNL     1       6.650 -17.391  -0.910  1.00  0.00     0.000 C 
BRANCH  10  11
HETATM   11  C   UNL     1       5.630 -16.822  -1.872  1.00  0.00     0.000 C 
BRANCH  11  12
HETATM   12  C   UNL     1       5.480 -17.542  -3.160  1.00  0.00     0.000 C 
BRANCH  12  13
HETATM   13  C   UNL     1       6.391 -17.118  -4.223  1.00  0.00     0.000 C 
BRANCH  13  14
HETATM   14  C   UNL     1       7.019 -18.195  -5.033  1.00  0.00     0.000 C 
BRANCH  14  15
HETATM   15  C   UNL     1       5.991 -19.260  -5.140  1.00  0.00    -0.000 C 
BRANCH  15  16
HETATM   16  C   UNL     1       6.465 -20.648  -5.521  1.00  0.00    -0.005 C 
HETATM   17  C   UNL     1       7.965 -20.625  -5.712  1.00  0.00     0.005 C 
ENDBRANCH  15  16
ENDBRANCH  14  15
ENDBRANCH  13  14
ENDBRANCH  12  13
ENDBRANCH  11  12
ENDBRANCH  10  11
ENDBRANCH   1  10
TORSDOF 13
ENDMDL
MODEL 12
REMARK VINA RESULT:    -5.816      3.587      6.511
REMARK INTER + INTRA:         -11.516
REMARK INTER:                  -9.610
REMARK INTRA:                  -1.907
REMARK UNBOUND:                -1.280
REMARK  13 active torsions:
REMARK  status: ('A' for Active; 'I' for Inactive)
REMARK    1  A    between atoms: C_1  and  C_4 
REMARK    2  A    between atoms: C_4  and  C_5 
REMARK    3  A    between atoms: C_5  and  C_8 
REMARK    4  A    between atoms: C_6  and  C_7 
REMARK    5  A    between atoms: C_6  and  C_8 
REMARK    6  A    between atoms: C_7  and  C_9 
REMARK    7  A    between atoms: C_9  and  C_10 
REMARK    8  A    between atoms: C_10  and  C_11 
REMARK    9  A    between atoms: C_11  and  C_12 
REMARK   10  A    between atoms: C_12  and  C_13 
REMARK   11  A    between atoms: C_13  and  C_14 
REMARK   12  A    between atoms: C_14  and  C_15 
REMARK   13  A    between atoms: C_15  and  C_16 
ROOT
HETATM    1  C   UNL     1       8.880 -20.451  -0.601  1.00  0.00     0.000 C 
ENDROOT
BRANCH   1   2
HETATM    2  C   UNL     1       7.666 -19.574  -0.702  1.00  0.00     0.000 C 
BRANCH   2   3
HETATM    3  C   UNL     1       6.799 -19.783  -1.936  1.00  0.00     0.000 C 
BRANCH   3   4
HETATM    4  C   UNL     1       7.529 -19.597  -3.239  1.00  0.00     0.001 C 
BRANCH   4   5
HETATM    5  C   UNL     1       6.750 -20.119  -4.432  1.00  0.00     0.010 C 
BRANCH   5   6
HETATM    6  C   UNL     1       6.850 -19.286  -5.666  1.00  0.00     0.113 C 
BRANCH   6   7
HETATM    7  C   UNL     1       7.429 -19.948  -6.887  1.00  0.00     0.172 C 
HETATM    8  O   UNL     1       7.643 -21.204  -6.822  1.00  0.00    -0.648 OA
HETATM    9  O   UNL     1       7.665 -19.266  -7.911  1.00  0.00    -0.648 OA
ENDBRANCH   6   7
ENDBRANCH   5   6
ENDBRANCH   4   5
ENDBRANCH   3   4
ENDBRANCH   2   3
ENDBRANCH   1   2
BRANCH   1  10
HETATM   10  C   UNL     1       9.251 -20.774   0.817  1.00  0.00     0.000 C 
BRANCH  10  11
HETATM   11  C   UNL     1       8.008 -21.199   1.569  1.00  0.00     0.000 C 
BRANCH  11  12
HETATM   12  C   UNL     1       7.740 -22.657   1.608  1.00  0.00     0.000 C 
BRANCH  12  13
HETATM   13  C   UNL     1       6.413 -23.061   1.142  1.00  0.00     0.000 C 
BRANCH  13  14
HETATM   14  C   UNL     1       6.165 -22.974  -0.321  1.00  0.00     0.000 C 
BRANCH  14  15
HETATM   15  C   UNL     1       7.196 -23.837  -0.949  1.00  0.00    -0.000 C 
BRANCH  15  16
HETATM   16  C   UNL     1       7.661 -23.463  -2.342  1.00  0.00    -0.005 C 
HETATM   17  C   UNL     1       6.568 -23.790  -3.335  1.00  0.00     0.005 C 
ENDBRANCH  15  16
ENDBRANCH  14  15
ENDBRANCH  13  14
ENDBRANCH  12  13
ENDBRANCH  11  12
ENDBRANCH  10  11
ENDBRANCH   1  10
TORSDOF 13
ENDMDL
MODEL 13
REMARK VINA RESULT:    -5.800      2.743      4.339
REMARK INTER + INTRA:         -11.489
REMARK INTER:                  -9.865
REMARK INTRA:                  -1.624
REMARK UNBOUND:                -1.280
REMARK  13 active torsions:
REMARK  status: ('A' for Active; 'I' for Inactive)
REMARK    1  A    between atoms: C_1  and  C_4 
REMARK    2  A    between atoms: C_4  and  C_5 
REMARK    3  A    between atoms: C_5  and  C_8 
REMARK    4  A    between atoms: C_6  and  C_7 
REMARK    5  A    between atoms: C_6  and  C_8 
REMARK    6  A    between atoms: C_7  and  C_9 
REMARK    7  A    between atoms: C_9  and  C_10 
REMARK    8  A    between atoms: C_10  and  C_11 
REMARK    9  A    between atoms: C_11  and  C_12 
REMARK   10  A    between atoms: C_12  and  C_13 
REMARK   11  A    between atoms: C_13  and  C_14 
REMARK   12  A    between atoms: C_14  and  C_15 
REMARK   13  A    between atoms: C_15  and  C_16 
ROOT
HETATM    1  C   UNL     1       6.166 -22.700  -0.443  1.00  0.00     0.000 C 
ENDROOT
BRANCH   1   2
HETATM    2  C   UNL     1       6.643 -21.288  -0.629  1.00  0.00     0.000 C 
BRANCH   2   3
HETATM    3  C   UNL     1       7.726 -21.089  -1.681  1.00  0.00     0.000 C 
BRANCH   3   4
HETATM    4  C   UNL     1       7.452 -19.962  -2.640  1.00  0.00     0.001 C 
BRANCH   4   5
HETATM    5  C   UNL     1       6.557 -18.888  -2.048  1.00  0.00     0.010 C 
BRANCH   5   6
HETATM    6  C   UNL     1       7.236 -17.595  -1.743  1.00  0.00     0.113 C 
BRANCH   6   7
HETATM    7  C   UNL     1       6.368 -16.472  -1.246  1.00  0.00     0.172 C 
HETATM    8  O   UNL     1       5.132 -16.730  -1.060  1.00  0.00    -0.648 OA
HETATM    9  O   UNL     1       6.874 -15.348  -1.021  1.00  0.00    -0.648 OA
ENDBRANCH   6   7
ENDBRANCH   5   6
ENDBRANCH   4   5
ENDBRANCH   3   4
ENDBRANCH   2   3
ENDBRANCH   1   2
BRANCH   1  10
HETATM   10  C   UNL     1       7.287 -23.668  -0.205  1.00  0.00     0.000 C 
BRANCH  10  11
HETATM   11  C   UNL     1       7.144 -24.835  -1.158  1.00  0.00     0.000 C 
BRANCH  11  12
HETATM   12  C   UNL     1       8.255 -25.024  -2.122  1.00  0.00     0.000 C 
BRANCH  12  13
HETATM   13  C   UNL     1       8.068 -24.383  -3.424  1.00  0.00     0.000 C 
BRANCH  13  14
HETATM   14  C   UNL     1       6.725 -24.515  -4.046  1.00  0.00     0.000 C 
BRANCH  14  15
HETATM   15  C   UNL     1       6.331 -23.139  -4.436  1.00  0.00    -0.000 C 
BRANCH  15  16
HETATM   16  C   UNL     1       6.300 -22.819  -5.917  1.00  0.00    -0.005 C 
HETATM   17  C   UNL     1       6.954 -21.475  -6.149  1.00  0.00     0.005 C 
ENDBRANCH  15  16
ENDBRANCH  14  15
ENDBRANCH  13  14
ENDBRANCH  12  13
ENDBRANCH  11  12
ENDBRANCH  10  11
ENDBRANCH   1  10
TORSDOF 13
ENDMDL
MODEL 14
REMARK VINA RESULT:    -5.798      2.402      4.689
REMARK INTER + INTRA:         -11.485
REMARK INTER:                  -9.616
REMARK INTRA:                  -1.870
REMARK UNBOUND:                -1.280
REMARK  13 active torsions:
REMARK  status: ('A' for Active; 'I' for Inactive)
REMARK    1  A    between atoms: C_1  and  C_4 
REMARK    2  A    between atoms: C_4  and  C_5 
REMARK    3  A    between atoms: C_5  and  C_8 
REMARK    4  A    between atoms: C_6  and  C_7 
REMARK    5  A    between atoms: C_6  and  C_8 
REMARK    6  A    between atoms: C_7  and  C_9 
REMARK    7  A    between atoms: C_9  and  C_10 
REMARK    8  A    between atoms: C_10  and  C_11 
REMARK    9  A    between atoms: C_11  and  C_12 
REMARK   10  A    between atoms: C_12  and  C_13 
REMARK   11  A    between atoms: C_13  and  C_14 
REMARK   12  A    between atoms: C_14  and  C_15 
REMARK   13  A    between atoms: C_15  and  C_16 
ROOT
HETATM    1  C   UNL     1       6.259 -22.655  -4.785  1.00  0.00     0.000 C 
ENDROOT
BRANCH   1   2
HETATM    2  C   UNL     1       7.232 -21.642  -5.315  1.00  0.00     0.000 C 
BRANCH   2   3
HETATM    3  C   UNL     1       7.614 -20.524  -4.354  1.00  0.00     0.000 C 
BRANCH   3   4
HETATM    4  C   UNL     1       7.202 -20.772  -2.927  1.00  0.00     0.001 C 
BRANCH   4   5
HETATM    5  C   UNL     1       7.649 -19.670  -1.984  1.00  0.00     0.010 C 
BRANCH   5   6
HETATM    6  C   UNL     1       6.647 -19.276  -0.951  1.00  0.00     0.113 C 
BRANCH   6   7
HETATM    7  C   UNL     1       6.087 -17.884  -1.044  1.00  0.00     0.172 C 
HETATM    8  O   UNL     1       5.137 -17.692  -1.874  1.00  0.00    -0.648 OA
HETATM    9  O   UNL     1       6.548 -16.977  -0.312  1.00  0.00    -0.648 OA
ENDBRANCH   6   7
ENDBRANCH   5   6
ENDBRANCH   4   5
ENDBRANCH   3   4
ENDBRANCH   2   3
ENDBRANCH   1   2
BRANCH   1  10
HETATM   10  C   UNL     1       6.643 -24.065  -5.122  1.00  0.00     0.000 C 
BRANCH  10  11
HETATM   11  C   UNL     1       6.797 -24.857  -3.842  1.00  0.00     0.000 C 
BRANCH  11  12
HETATM   12  C   UNL     1       8.082 -24.683  -3.122  1.00  0.00     0.000 C 
BRANCH  12  13
HETATM   13  C   UNL     1       7.964 -24.404  -1.691  1.00  0.00     0.000 C 
BRANCH  13  14
HETATM   14  C   UNL     1       6.636 -23.941  -1.209  1.00  0.00     0.000 C 
BRANCH  14  15
HETATM   15  C   UNL     1       6.881 -23.370   0.139  1.00  0.00    -0.000 C 
BRANCH  15  16
HETATM   16  C   UNL     1       8.102 -22.490   0.309  1.00  0.00    -0.005 C 
HETATM   17  C   UNL     1       7.961 -21.686   1.582  1.00  0.00     0.005 C 
ENDBRANCH  15  16
ENDBRANCH  14  15
ENDBRANCH  13  14
ENDBRANCH  12  13
ENDBRANCH  11  12
ENDBRANCH  10  11
ENDBRANCH   1  10
TORSDOF 13
ENDMDL
MODEL 15
REMARK VINA RESULT:    -5.774      3.495      6.329
REMARK INTER + INTRA:         -11.442
REMARK INTER:                 -10.201
REMARK INTRA:                  -1.242
REMARK UNBOUND:                -1.280
REMARK  13 active torsions:
REMARK  status: ('A' for Active; 'I' for Inactive)
REMARK    1  A    between atoms: C_1  and  C_4 
REMARK    2  A    between atoms: C_4  and  C_5 
REMARK    3  A    between atoms: C_5  and  C_8 
REMARK    4  A    between atoms: C_6  and  C_7 
REMARK    5  A    between atoms: C_6  and  C_8 
REMARK    6  A    between atoms: C_7  and  C_9 
REMARK    7  A    between atoms: C_9  and  C_10 
REMARK    8  A    between atoms: C_10  and  C_11 
REMARK    9  A    between atoms: C_11  and  C_12 
REMARK   10  A    between atoms: C_12  and  C_13 
REMARK   11  A    between atoms: C_13  and  C_14 
REMARK   12  A    between atoms: C_14  and  C_15 
REMARK   13  A    between atoms: C_15  and  C_16 
ROOT
HETATM    1  C   UNL     1       8.101 -24.652  -2.953  1.00  0.00     0.000 C 
ENDROOT
BRANCH   1   2
HETATM    2  C   UNL     1       7.047 -24.752  -4.018  1.00  0.00     0.000 C 
BRANCH   2   3
HETATM    3  C   UNL     1       6.278 -23.471  -4.311  1.00  0.00     0.000 C 
BRANCH   3   4
HETATM    4  C   UNL     1       6.389 -22.999  -5.736  1.00  0.00     0.001 C 
BRANCH   4   5
HETATM    5  C   UNL     1       6.339 -21.487  -5.862  1.00  0.00     0.010 C 
BRANCH   5   6
HETATM    6  C   UNL     1       7.566 -20.860  -6.435  1.00  0.00     0.113 C 
BRANCH   6   7
HETATM    7  C   UNL     1       7.434 -19.450  -6.943  1.00  0.00     0.172 C 
HETATM    8  O   UNL     1       7.892 -19.205  -8.108  1.00  0.00    -0.648 OA
HETATM    9  O   UNL     1       6.878 -18.582  -6.230  1.00  0.00    -0.648 OA
ENDBRANCH   6   7
ENDBRANCH   5   6
ENDBRANCH   4   5
ENDBRANCH   3   4
ENDBRANCH   2   3
ENDBRANCH   1   2
BRANCH   1  10
HETATM   10  C   UNL     1       7.857 -23.524  -1.994  1.00  0.00     0.000 C 
BRANCH  10  11
HETATM   11  C   UNL     1       7.325 -24.085  -0.693  1.00  0.00     0.000 C 
BRANCH  11  12
HETATM   12  C   UNL     1       6.145 -23.392  -0.121  1.00  0.00     0.000 C 
BRANCH  12  13
HETATM   13  C   UNL     1       6.338 -22.828   1.215  1.00  0.00     0.000 C 
BRANCH  13  14
HETATM   14  C   UNL     1       7.736 -22.769   1.719  1.00  0.00     0.000 C 
BRANCH  14  15
HETATM   15  C   UNL     1       8.108 -21.333   1.687  1.00  0.00    -0.000 C 
BRANCH  15  16
HETATM   16  C   UNL     1       8.820 -20.827   0.449  1.00  0.00    -0.005 C 
HETATM   17  C   UNL     1       7.901 -19.893  -0.307  1.00  0.00     0.005 C 
ENDBRANCH  15  16
ENDBRANCH  14  15
ENDBRANCH  13  14
ENDBRANCH  12  13
ENDBRANCH  11  12
ENDBRANCH  10  11
ENDBRANCH   1  10
TORSDOF 13
ENDMDL
MODEL 16
REMARK VINA RESULT:    -5.770      3.296      6.557
REMARK INTER + INTRA:         -11.435
REMARK INTER:                  -9.648
REMARK INTRA:                  -1.787
REMARK UNBOUND:                -1.280
REMARK  13 active torsions:
REMARK  status: ('A' for Active; 'I' for Inactive)
REMARK    1  A    between atoms: C_1  and  C_4 
REMARK    2  A    between atoms: C_4  and  C_5 
REMARK    3  A    between atoms: C_5  and  C_8 
REMARK    4  A    between atoms: C_6  and  C_7 
REMARK    5  A    between atoms: C_6  and  C_8 
REMARK    6  A    between atoms: C_7  and  C_9 
REMARK    7  A    between atoms: C_9  and  C_10 
REMARK    8  A    between atoms: C_10  and  C_11 
REMARK    9  A    between atoms: C_11  and  C_12 
REMARK   10  A    between atoms: C_12  and  C_13 
REMARK   11  A    between atoms: C_13  and  C_14 
REMARK   12  A    between atoms: C_14  and  C_15 
REMARK   13  A    between atoms: C_15  and  C_16 
ROOT
HETATM    1  C   UNL     1       6.249 -19.090  -1.474  1.00  0.00     0.000 C 
ENDROOT
BRANCH   1   2
HETATM    2  C   UNL     1       7.034 -19.520  -2.679  1.00  0.00     0.000 C 
BRANCH   2   3
HETATM    3  C   UNL     1       7.123 -18.503  -3.810  1.00  0.00     0.000 C 
BRANCH   3   4
HETATM    4  C   UNL     1       8.496 -17.922  -4.009  1.00  0.00     0.001 C 
BRANCH   4   5
HETATM    5  C   UNL     1       8.886 -16.942  -2.918  1.00  0.00     0.010 C 
BRANCH   5   6
HETATM    6  C   UNL     1       7.942 -15.803  -2.723  1.00  0.00     0.113 C 
BRANCH   6   7
HETATM    7  C   UNL     1       7.770 -15.295  -1.318  1.00  0.00     0.172 C 
HETATM    8  O   UNL     1       8.538 -14.348  -0.943  1.00  0.00    -0.648 OA
HETATM    9  O   UNL     1       6.890 -15.795  -0.579  1.00  0.00    -0.648 OA
ENDBRANCH   6   7
ENDBRANCH   5   6
ENDBRANCH   4   5
ENDBRANCH   3   4
ENDBRANCH   2   3
ENDBRANCH   1   2
BRANCH   1  10
HETATM   10  C   UNL     1       6.954 -19.383  -0.183  1.00  0.00     0.000 C 
BRANCH  10  11
HETATM   11  C   UNL     1       8.332 -19.930  -0.483  1.00  0.00     0.000 C 
BRANCH  11  12
HETATM   12  C   UNL     1       8.924 -20.804   0.559  1.00  0.00     0.000 C 
BRANCH  12  13
HETATM   13  C   UNL     1       7.996 -21.258   1.595  1.00  0.00     0.000 C 
BRANCH  13  14
HETATM   14  C   UNL     1       7.712 -22.717   1.642  1.00  0.00     0.000 C 
BRANCH  14  15
HETATM   15  C   UNL     1       6.401 -22.886   0.968  1.00  0.00    -0.000 C 
BRANCH  15  16
HETATM   16  C   UNL     1       6.413 -23.104  -0.532  1.00  0.00    -0.005 C 
HETATM   17  C   UNL     1       7.392 -24.208  -0.864  1.00  0.00     0.005 C 
ENDBRANCH  15  16
ENDBRANCH  14  15
ENDBRANCH  13  14
ENDBRANCH  12  13
ENDBRANCH  11  12
ENDBRANCH  10  11
ENDBRANCH   1  10
TORSDOF 13
ENDMDL
MODEL 17
REMARK VINA RESULT:    -5.760      3.437      6.094
REMARK INTER + INTRA:         -11.418
REMARK INTER:                  -9.846
REMARK INTRA:                  -1.572
REMARK UNBOUND:                -1.280
REMARK  13 active torsions:
REMARK  status: ('A' for Active; 'I' for Inactive)
REMARK    1  A    between atoms: C_1  and  C_4 
REMARK    2  A    between atoms: C_4  and  C_5 
REMARK    3  A    between atoms: C_5  and  C_8 
REMARK    4  A    between atoms: C_6  and  C_7 
REMARK    5  A    between atoms: C_6  and  C_8 
REMARK    6  A    between atoms: C_7  and  C_9 
REMARK    7  A    between atoms: C_9  and  C_10 
REMARK    8  A    between atoms: C_10  and  C_11 
REMARK    9  A    between atoms: C_11  and  C_12 
REMARK   10  A    between atoms: C_12  and  C_13 
REMARK   11  A    between atoms: C_13  and  C_14 
REMARK   12  A    between atoms: C_14  and  C_15 
REMARK   13  A    between atoms: C_15  and  C_16 
ROOT
HETATM    1  C   UNL     1       6.677 -23.333  -1.667  1.00  0.00     0.000 C 
ENDROOT
BRANCH   1   2
HETATM    2  C   UNL     1       7.568 -23.716  -2.813  1.00  0.00     0.000 C 
BRANCH   2   3
HETATM    3  C   UNL     1       7.499 -22.814  -4.037  1.00  0.00     0.000 C 
BRANCH   3   4
HETATM    4  C   UNL     1       6.199 -22.898  -4.791  1.00  0.00     0.001 C 
BRANCH   4   5
HETATM    5  C   UNL     1       6.131 -21.930  -5.959  1.00  0.00     0.010 C 
BRANCH   5   6
HETATM    6  C   UNL     1       7.413 -21.238  -6.282  1.00  0.00     0.113 C 
BRANCH   6   7
HETATM    7  C   UNL     1       7.318 -19.800  -6.714  1.00  0.00     0.172 C 
HETATM    8  O   UNL     1       6.902 -18.959  -5.849  1.00  0.00    -0.648 OA
HETATM    9  O   UNL     1       7.655 -19.476  -7.876  1.00  0.00    -0.648 OA
ENDBRANCH   6   7
ENDBRANCH   5   6
ENDBRANCH   4   5
ENDBRANCH   3   4
ENDBRANCH   2   3
ENDBRANCH   1   2
BRANCH   1  10
HETATM   10  C   UNL     1       7.070 -23.990  -0.377  1.00  0.00     0.000 C 
BRANCH  10  11
HETATM   11  C   UNL     1       6.636 -23.113   0.778  1.00  0.00     0.000 C 
BRANCH  11  12
HETATM   12  C   UNL     1       7.723 -22.608   1.652  1.00  0.00     0.000 C 
BRANCH  12  13
HETATM   13  C   UNL     1       8.033 -21.186   1.504  1.00  0.00     0.000 C 
BRANCH  13  14
HETATM   14  C   UNL     1       9.176 -20.841   0.618  1.00  0.00     0.000 C 
BRANCH  14  15
HETATM   15  C   UNL     1       8.566 -20.351  -0.643  1.00  0.00    -0.000 C 
BRANCH  15  16
HETATM   16  C   UNL     1       7.213 -19.676  -0.543  1.00  0.00    -0.005 C 
HETATM   17  C   UNL     1       6.703 -19.379  -1.936  1.00  0.00     0.005 C 
ENDBRANCH  15  16
ENDBRANCH  14  15
ENDBRANCH  13  14
ENDBRANCH  12  13
ENDBRANCH  11  12
ENDBRANCH  10  11
ENDBRANCH   1  10
TORSDOF 13
ENDMDL
MODEL 18
REMARK VINA RESULT:    -5.723      2.491      4.869
REMARK INTER + INTRA:         -11.352
REMARK INTER:                  -9.861
REMARK INTRA:                  -1.491
REMARK UNBOUND:                -1.280
REMARK  13 active torsions:
REMARK  status: ('A' for Active; 'I' for Inactive)
REMARK    1  A    between atoms: C_1  and  C_4 
REMARK    2  A    between atoms: C_4  and  C_5 
REMARK    3  A    between atoms: C_5  and  C_8 
REMARK    4  A    between atoms: C_6  and  C_7 
REMARK    5  A    between atoms: C_6  and  C_8 
REMARK    6  A    between atoms: C_7  and  C_9 
REMARK    7  A    between atoms: C_9  and  C_10 
REMARK    8  A    between atoms: C_10  and  C_11 
REMARK    9  A    between atoms: C_11  and  C_12 
REMARK   10  A    between atoms: C_12  and  C_13 
REMARK   11  A    between atoms: C_13  and  C_14 
REMARK   12  A    between atoms: C_14  and  C_15 
REMARK   13  A    between atoms: C_15  and  C_16 
ROOT
HETATM    1  C   UNL     1       7.660 -22.651  -4.754  1.00  0.00     0.000 C 
ENDROOT
BRANCH   1   2
HETATM    2  C   UNL     1       7.262 -21.263  -4.341  1.00  0.00     0.000 C 
BRANCH   2   3
HETATM    3  C   UNL     1       6.587 -20.420  -5.415  1.00  0.00     0.000 C 
BRANCH   3   4
HETATM    4  C   UNL     1       6.247 -19.022  -4.975  1.00  0.00     0.001 C 
BRANCH   4   5
HETATM    5  C   UNL     1       6.272 -18.855  -3.467  1.00  0.00     0.010 C 
BRANCH   5   6
HETATM    6  C   UNL     1       5.330 -17.830  -2.929  1.00  0.00     0.113 C 
BRANCH   6   7
HETATM    7  C   UNL     1       5.848 -16.944  -1.829  1.00  0.00     0.172 C 
HETATM    8  O   UNL     1       4.985 -16.416  -1.051  1.00  0.00    -0.648 OA
HETATM    9  O   UNL     1       7.082 -16.765  -1.702  1.00  0.00    -0.648 OA
ENDBRANCH   6   7
ENDBRANCH   5   6
ENDBRANCH   4   5
ENDBRANCH   3   4
ENDBRANCH   2   3
ENDBRANCH   1   2
BRANCH   1  10
HETATM   10  C   UNL     1       6.644 -23.687  -4.373  1.00  0.00     0.000 C 
BRANCH  10  11
HETATM   11  C   UNL     1       7.357 -24.901  -3.817  1.00  0.00     0.000 C 
BRANCH  11  12
HETATM   12  C   UNL     1       8.061 -24.705  -2.527  1.00  0.00     0.000 C 
BRANCH  12  13
HETATM   13  C   UNL     1       7.193 -24.536  -1.361  1.00  0.00     0.000 C 
BRANCH  13  14
HETATM   14  C   UNL     1       7.435 -23.336  -0.518  1.00  0.00     0.000 C 
BRANCH  14  15
HETATM   15  C   UNL     1       6.435 -22.333  -0.961  1.00  0.00    -0.000 C 
BRANCH  15  16
HETATM   16  C   UNL     1       6.140 -21.183  -0.019  1.00  0.00    -0.005 C 
HETATM   17  C   UNL     1       7.224 -20.138  -0.157  1.00  0.00     0.005 C 
ENDBRANCH  15  16
ENDBRANCH  14  15
ENDBRANCH  13  14
ENDBRANCH  12  13
ENDBRANCH  11  12
ENDBRANCH  10  11
ENDBRANCH   1  10
TORSDOF 13
ENDMDL
MODEL 19
REMARK VINA RESULT:    -5.702      3.057      5.407
REMARK INTER + INTRA:         -11.315
REMARK INTER:                  -9.773
REMARK INTRA:                  -1.542
REMARK UNBOUND:                -1.280
REMARK  13 active torsions:
REMARK  status: ('A' for Active; 'I' for Inactive)
REMARK    1  A    between atoms: C_1  and  C_4 
REMARK    2  A    between atoms: C_4  and  C_5 
REMARK    3  A    between atoms: C_5  and  C_8 
REMARK    4  A    between atoms: C_6  and  C_7 
REMARK    5  A    between atoms: C_6  and  C_8 
REMARK    6  A    between atoms: C_7  and  C_9 
REMARK    7  A    between atoms: C_9  and  C_10 
REMARK    8  A    between atoms: C_10  and  C_11 
REMARK    9  A    between atoms: C_11  and  C_12 
REMARK   10  A    between atoms: C_12  and  C_13 
REMARK   11  A    between atoms: C_13  and  C_14 
REMARK   12  A    between atoms: C_14  and  C_15 
REMARK   13  A    between atoms: C_15  and  C_16 
ROOT
HETATM    1  C   UNL     1       6.721 -19.887  -4.688  1.00  0.00     0.000 C 
ENDROOT
BRANCH   1   2
HETATM    2  C   UNL     1       6.278 -18.557  -5.227  1.00  0.00     0.000 C 
BRANCH   2   3
HETATM    3  C   UNL     1       6.134 -17.442  -4.200  1.00  0.00     0.000 C 
BRANCH   3   4
HETATM    4  C   UNL     1       5.639 -17.903  -2.856  1.00  0.00     0.001 C 
BRANCH   4   5
HETATM    5  C   UNL     1       5.646 -16.799  -1.815  1.00  0.00     0.010 C 
BRANCH   5   6
HETATM    6  C   UNL     1       6.953 -16.587  -1.126  1.00  0.00     0.113 C 
BRANCH   6   7
HETATM    7  C   UNL     1       7.584 -15.229  -1.268  1.00  0.00     0.172 C 
HETATM    8  O   UNL     1       8.723 -15.173  -1.841  1.00  0.00    -0.648 OA
HETATM    9  O   UNL     1       6.981 -14.216  -0.844  1.00  0.00    -0.648 OA
ENDBRANCH   6   7
ENDBRANCH   5   6
ENDBRANCH   4   5
ENDBRANCH   3   4
ENDBRANCH   2   3
ENDBRANCH   1   2
BRANCH   1  10
HETATM   10  C   UNL     1       6.316 -21.036  -5.564  1.00  0.00     0.000 C 
BRANCH  10  11
HETATM   11  C   UNL     1       7.044 -22.284  -5.114  1.00  0.00     0.000 C 
BRANCH  11  12
HETATM   12  C   UNL     1       6.330 -23.131  -4.127  1.00  0.00     0.000 C 
BRANCH  12  13
HETATM   13  C   UNL     1       7.081 -23.440  -2.910  1.00  0.00     0.000 C 
BRANCH  13  14
HETATM   14  C   UNL     1       6.349 -23.308  -1.623  1.00  0.00     0.000 C 
BRANCH  14  15
HETATM   15  C   UNL     1       7.142 -22.350  -0.813  1.00  0.00    -0.000 C 
BRANCH  15  16
HETATM   16  C   UNL     1       6.910 -20.873  -1.060  1.00  0.00    -0.005 C 
HETATM   17  C   UNL     1       8.235 -20.203  -1.345  1.00  0.00     0.005 C 
ENDBRANCH  15  16
ENDBRANCH  14  15
ENDBRANCH  13  14
ENDBRANCH  12  13
ENDBRANCH  11  12
ENDBRANCH  10  11
ENDBRANCH   1  10
TORSDOF 13
ENDMDL
MODEL 20
REMARK VINA RESULT:    -5.622      2.209      4.109
REMARK INTER + INTRA:         -11.174
REMARK INTER:                  -9.051
REMARK INTRA:                  -2.123
REMARK UNBOUND:                -1.280
REMARK  13 active torsions:
REMARK  status: ('A' for Active; 'I' for Inactive)
REMARK    1  A    between atoms: C_1  and  C_4 
REMARK    2  A    between atoms: C_4  and  C_5 
REMARK    3  A    between atoms: C_5  and  C_8 
REMARK    4  A    between atoms: C_6  and  C_7 
REMARK    5  A    between atoms: C_6  and  C_8 
REMARK    6  A    between atoms: C_7  and  C_9 
REMARK    7  A    between atoms: C_9  and  C_10 
REMARK    8  A    between atoms: C_10  and  C_11 
REMARK    9  A    between atoms: C_11  and  C_12 
REMARK   10  A    between atoms: C_12  and  C_13 
REMARK   11  A    between atoms: C_13  and  C_14 
REMARK   12  A    between atoms: C_14  and  C_15 
REMARK   13  A    between atoms: C_15  and  C_16 
ROOT
HETATM    1  C   UNL     1       6.239 -18.981  -0.606  1.00  0.00     0.000 C 
ENDROOT
BRANCH   1   2
HETATM    2  C   UNL     1       7.590 -19.568  -0.314  1.00  0.00     0.000 C 
BRANCH   2   3
HETATM    3  C   UNL     1       8.030 -20.704  -1.228  1.00  0.00     0.000 C 
BRANCH   3   4
HETATM    4  C   UNL     1       6.896 -21.526  -1.779  1.00  0.00     0.001 C 
BRANCH   4   5
HETATM    5  C   UNL     1       6.651 -22.797  -0.987  1.00  0.00     0.010 C 
BRANCH   5   6
HETATM    6  C   UNL     1       7.648 -23.075   0.088  1.00  0.00     0.113 C 
BRANCH   6   7
HETATM    7  C   UNL     1       7.157 -22.992   1.507  1.00  0.00     0.172 C 
HETATM    8  O   UNL     1       8.037 -22.848   2.420  1.00  0.00    -0.648 OA
HETATM    9  O   UNL     1       5.928 -23.052   1.745  1.00  0.00    -0.648 OA
ENDBRANCH   6   7
ENDBRANCH   5   6
ENDBRANCH   4   5
ENDBRANCH   3   4
ENDBRANCH   2   3
ENDBRANCH   1   2
BRANCH   1  10
HETATM   10  C   UNL     1       6.317 -17.682  -1.354  1.00  0.00     0.000 C 
BRANCH  10  11
HETATM   11  C   UNL     1       5.452 -17.771  -2.592  1.00  0.00     0.000 C 
BRANCH  11  12
HETATM   12  C   UNL     1       6.157 -17.613  -3.888  1.00  0.00     0.000 C 
BRANCH  12  13
HETATM   13  C   UNL     1       6.131 -18.786  -4.761  1.00  0.00     0.000 C 
BRANCH  13  14
HETATM   14  C   UNL     1       7.413 -19.521  -4.929  1.00  0.00     0.000 C 
BRANCH  14  15
HETATM   15  C   UNL     1       8.475 -18.488  -4.845  1.00  0.00    -0.000 C 
BRANCH  15  16
HETATM   16  C   UNL     1       9.674 -18.794  -3.972  1.00  0.00    -0.005 C 
HETATM   17  C   UNL     1       9.743 -17.783  -2.849  1.00  0.00     0.005 C 
ENDBRANCH  15  16
ENDBRANCH  14  15
ENDBRANCH  13  14
ENDBRANCH  12  13
ENDBRANCH  11  12
ENDBRANCH  10  11
ENDBRANCH   1  10
TORSDOF 13
ENDMDL
