REMARK  6 active torsions:
REMARK  status: ('A' for Active; 'I' for Inactive)
REMARK    1  A    between atoms: C_2  and  N_37 
REMARK    2  A    between atoms: C_5  and  N_24 
REMARK    3  A    between atoms: C_6  and  N_24 
REMARK    4  A    between atoms: C_12  and  C_14 
REMARK       I    between atoms: C_14  and  N_19 
REMARK    5  A    between atoms: C_32  and  N_33 
REMARK    6  A    between atoms: N_37  and  C_39 
ROOT
HETATM    1  C   UNL     1       0.444  -1.148  16.409  1.00  0.00     0.684 A 
HETATM    2  N   UNL     1       0.607  -1.767  17.590  1.00  0.00    -0.202 N 
ATOM      3  HN  UNL     1      -0.183  -2.017  18.185  1.00  0.00     0.183 HD
HETATM    4  C   UNL     1       1.880  -2.036  17.938  1.00  0.00     0.110 A 
HETATM    5  C   UNL     1       2.985  -1.711  17.168  1.00  0.00     0.068 A 
HETATM    6  N   UNL     1       1.417  -0.753  15.575  1.00  0.00    -0.175 N 
ATOM      7  HN  UNL     1       1.219  -0.262  14.703  1.00  0.00     0.186 HD
HETATM    8  C   UNL     1       2.667  -1.045  15.962  1.00  0.00     0.143 A 
ENDROOT
BRANCH   1   9
HETATM    9  N   UNL     1      -0.848  -0.908  16.038  1.00  0.00    -0.192 N 
ATOM     10  HN  UNL     1      -1.521  -1.276  16.710  1.00  0.00     0.184 HD
BRANCH   9  11
HETATM   11  C   UNL     1      -1.474  -0.270  14.943  1.00  0.00     0.050 A 
HETATM   12  C   UNL     1      -0.775   0.392  13.925  1.00  0.00     0.046 A 
HETATM   13  C   UNL     1      -1.496   1.047  12.926  1.00  0.00     0.028 A 
HETATM   14  C   UNL     1      -2.892   0.971  12.918  1.00  0.00     0.063 A 
HETATM   15  C   UNL     1      -1.169   1.824  11.761  1.00  0.00     0.128 A 
HETATM   16  N   UNL     1      -3.318   1.695  11.845  1.00  0.00    -0.295 N 
HETATM   17  C   UNL     1      -3.590   0.287  13.906  1.00  0.00     0.034 A 
HETATM   18  N   UNL     1      -2.268   2.179  11.102  1.00  0.00    -0.293 N 
HETATM   19  C   UNL     1      -4.684   1.911  11.390  1.00  0.00     0.178 C 
ATOM     20  HN  UNL     1      -2.321   2.701  10.228  1.00  0.00     0.187 HD
HETATM   21  C   UNL     1      -2.869  -0.347  14.906  1.00  0.00     0.032 A 
BRANCH  15  22
HETATM   22  C   UNL     1       0.193   2.192  11.273  1.00  0.00     0.270 C 
HETATM   23  O   UNL     1       1.188   1.860  11.914  1.00  0.00    -0.266 OA
HETATM   24  N   UNL     1       0.241   2.840  10.108  1.00  0.00    -0.360 N 
HETATM   25  C   UNL     1       1.503   3.251   9.505  1.00  0.00     0.149 C 
ATOM     26  HN  UNL     1      -0.631   3.054   9.625  1.00  0.00     0.162 HD
ENDBRANCH  15  22
ENDBRANCH   9  11
ENDBRANCH   1   9
BRANCH   8  27
HETATM   27  N   UNL     1       3.690  -0.504  15.136  1.00  0.00    -0.248 N 
HETATM   28  N   UNL     1       4.997  -0.732  15.434  1.00  0.00    -0.295 N 
HETATM   29  C   UNL     1       5.694  -0.057  14.542  1.00  0.00     0.050 A 
ATOM     30  HN  UNL     1       5.363  -1.307  16.192  1.00  0.00     0.187 HD
HETATM   31  C   UNL     1       4.820   0.719  13.735  1.00  0.00     0.070 A 
HETATM   32  C   UNL     1       7.186  -0.144  14.551  1.00  0.00     0.072 C 
HETATM   33  C   UNL     1       3.545   0.379  14.116  1.00  0.00     0.149 A 
BRANCH  31  34
HETATM   34  N   UNL     1       5.238   1.538  12.760  1.00  0.00    -0.381 N 
ATOM     35  HN  UNL     1       6.177   1.466  12.368  1.00  0.00     0.160 HD
BRANCH  34  36
HETATM   36  C   UNL     1       4.281   2.543  12.283  1.00  0.00     0.109 C 
HETATM   37  C   UNL     1       3.733   3.555  13.315  1.00  0.00     0.257 C 
HETATM   38  N   UNL     1       4.780   4.582  13.427  1.00  0.00    -0.073 N 
HETATM   39  C   UNL     1       5.270   4.784  12.048  1.00  0.00     0.234 C 
ATOM     40  HN2 UNL     1       4.470   5.439  13.884  1.00  0.00     0.277 HD
ATOM     41  HN1 UNL     1       5.514   4.351  14.096  1.00  0.00     0.277 HD
HETATM   42  C   UNL     1       4.907   3.460  11.229  1.00  0.00     0.054 C 
ENDBRANCH  34  36
ENDBRANCH  31  34
ENDBRANCH   8  27
TORSDOF 6
