MODEL 1
REMARK VINA RESULT:    -9.244      0.000      0.000
REMARK INTER + INTRA:         -10.733
REMARK INTER:                 -10.865
REMARK INTRA:                   0.131
REMARK UNBOUND:                 0.131
REMARK  3 active torsions:
REMARK  status: ('A' for Active; 'I' for Inactive)
REMARK    1  A    between atoms: C_2  and  C_3 
REMARK    2  A    between atoms: C_3  and  C_20 
REMARK    3  A    between atoms: C_22  and  O_23 
ROOT
HETATM    1  C   UNL     1     -25.075 -20.273  -3.394  1.00  0.00     0.260 C 
HETATM    2  C   UNL     1     -25.579 -22.559  -3.664  1.00  0.00     0.106 C 
HETATM    3  C   UNL     1     -26.075 -22.626  -5.051  1.00  0.00     0.273 C 
HETATM    4  C   UNL     1     -22.790 -19.735  -6.916  1.00  0.00     0.002 A 
HETATM    5  O   UNL     1     -26.696 -23.606  -5.470  1.00  0.00    -0.266 OA
HETATM    6  N   UNL     1     -25.692 -21.725  -5.964  1.00  0.00    -0.321 N 
ATOM      7  HN  UNL     1     -26.207 -21.715  -6.845  1.00  0.00     0.169 HD
HETATM    8  C   UNL     1     -24.667 -20.805  -5.829  1.00  0.00     0.050 A 
HETATM    9  C   UNL     1     -24.293 -20.163  -4.659  1.00  0.00     0.059 A 
HETATM   10  C   UNL     1     -23.888 -20.580  -6.951  1.00  0.00     0.030 A 
HETATM   11  C   UNL     1     -22.442 -19.104  -5.745  1.00  0.00     0.001 A 
HETATM   12  C   UNL     1     -23.203 -19.307  -4.615  1.00  0.00     0.019 A 
HETATM   13  N   UNL     1     -25.634 -21.406  -2.992  1.00  0.00    -0.313 N 
HETATM   14  C   UNL     1     -26.472 -21.387  -1.798  1.00  0.00     0.160 C 
HETATM   15  O   UNL     1     -25.237 -19.218  -2.756  1.00  0.00    -0.267 OA
ENDROOT
BRANCH   2  16
HETATM   16  C   UNL     1     -25.049 -23.706  -3.159  1.00  0.00     0.046 C 
BRANCH  16  17
HETATM   17  C   UNL     1     -24.282 -23.882  -1.881  1.00  0.00    -0.034 A 
HETATM   18  C   UNL     1     -24.307 -25.109  -1.236  1.00  0.00     0.014 A 
HETATM   19  C   UNL     1     -23.644 -25.308  -0.023  1.00  0.00     0.037 A 
HETATM   20  C   UNL     1     -22.908 -24.278   0.547  1.00  0.00     0.068 A 
HETATM   21  C   UNL     1     -22.834 -23.054  -0.108  1.00  0.00     0.037 A 
HETATM   22  C   UNL     1     -23.498 -22.862  -1.322  1.00  0.00     0.014 A 
BRANCH  20  23
HETATM   23  O   UNL     1     -22.257 -24.501   1.733  1.00  0.00    -0.356 OA
HETATM   24  C   UNL     1     -21.784 -23.413   2.536  1.00  0.00     0.210 C 
ENDBRANCH  20  23
ENDBRANCH  16  17
ENDBRANCH   2  16
TORSDOF 3
ENDMDL
MODEL 2
REMARK VINA RESULT:    -8.866      2.639      5.797
REMARK INTER + INTRA:         -10.289
REMARK INTER:                  -9.528
REMARK INTRA:                  -0.761
REMARK UNBOUND:                 0.131
REMARK  3 active torsions:
REMARK  status: ('A' for Active; 'I' for Inactive)
REMARK    1  A    between atoms: C_2  and  C_3 
REMARK    2  A    between atoms: C_3  and  C_20 
REMARK    3  A    between atoms: C_22  and  O_23 
ROOT
HETATM    1  C   UNL     1     -24.002 -21.037  -3.523  1.00  0.00     0.260 C 
HETATM    2  C   UNL     1     -25.820 -21.026  -5.023  1.00  0.00     0.106 C 
HETATM    3  C   UNL     1     -25.704 -22.334  -5.692  1.00  0.00     0.273 C 
HETATM    4  C   UNL     1     -24.683 -24.831  -1.774  1.00  0.00     0.002 A 
HETATM    5  O   UNL     1     -26.310 -22.583  -6.737  1.00  0.00    -0.266 OA
HETATM    6  N   UNL     1     -25.107 -23.368  -5.086  1.00  0.00    -0.321 N 
ATOM      7  HN  UNL     1     -24.896 -24.182  -5.664  1.00  0.00     0.169 HD
HETATM    8  C   UNL     1     -24.747 -23.440  -3.751  1.00  0.00     0.050 A 
HETATM    9  C   UNL     1     -24.303 -22.387  -2.966  1.00  0.00     0.059 A 
HETATM   10  C   UNL     1     -24.939 -24.659  -3.125  1.00  0.00     0.030 A 
HETATM   11  C   UNL     1     -24.237 -23.773  -1.017  1.00  0.00     0.001 A 
HETATM   12  C   UNL     1     -24.033 -22.550  -1.617  1.00  0.00     0.019 A 
HETATM   13  N   UNL     1     -24.744 -20.467  -4.463  1.00  0.00    -0.313 N 
HETATM   14  C   UNL     1     -24.306 -19.193  -5.022  1.00  0.00     0.160 C 
HETATM   15  O   UNL     1     -22.966 -20.490  -3.106  1.00  0.00    -0.267 OA
ENDROOT
BRANCH   2  16
HETATM   16  C   UNL     1     -27.064 -20.475  -4.990  1.00  0.00     0.046 C 
BRANCH  16  17
HETATM   17  C   UNL     1     -27.911 -20.184  -3.787  1.00  0.00    -0.034 A 
HETATM   18  C   UNL     1     -29.083 -19.459  -3.940  1.00  0.00     0.014 A 
HETATM   19  C   UNL     1     -29.883 -19.127  -2.844  1.00  0.00     0.037 A 
HETATM   20  C   UNL     1     -29.533 -19.555  -1.570  1.00  0.00     0.068 A 
HETATM   21  C   UNL     1     -28.385 -20.322  -1.403  1.00  0.00     0.037 A 
HETATM   22  C   UNL     1     -27.591 -20.652  -2.504  1.00  0.00     0.014 A 
BRANCH  20  23
HETATM   23  O   UNL     1     -30.339 -19.226  -0.511  1.00  0.00    -0.356 OA
HETATM   24  C   UNL     1     -31.204 -18.085  -0.563  1.00  0.00     0.210 C 
ENDBRANCH  20  23
ENDBRANCH  16  17
ENDBRANCH   2  16
TORSDOF 3
ENDMDL
MODEL 3
REMARK VINA RESULT:    -8.750      0.912      1.004
REMARK INTER + INTRA:         -10.153
REMARK INTER:                  -9.758
REMARK INTRA:                  -0.396
REMARK UNBOUND:                 0.131
REMARK  3 active torsions:
REMARK  status: ('A' for Active; 'I' for Inactive)
REMARK    1  A    between atoms: C_2  and  C_3 
REMARK    2  A    between atoms: C_3  and  C_20 
REMARK    3  A    between atoms: C_22  and  O_23 
ROOT
HETATM    1  C   UNL     1     -25.548 -19.588  -3.862  1.00  0.00     0.260 C 
HETATM    2  C   UNL     1     -26.204 -21.827  -4.193  1.00  0.00     0.106 C 
HETATM    3  C   UNL     1     -26.349 -21.916  -5.657  1.00  0.00     0.273 C 
HETATM    4  C   UNL     1     -22.428 -19.442  -6.719  1.00  0.00     0.002 A 
HETATM    5  O   UNL     1     -26.947 -22.852  -6.193  1.00  0.00    -0.266 OA
HETATM    6  N   UNL     1     -25.664 -21.101  -6.469  1.00  0.00    -0.321 N 
ATOM      7  HN  UNL     1     -25.944 -21.086  -7.450  1.00  0.00     0.169 HD
HETATM    8  C   UNL     1     -24.614 -20.276  -6.106  1.00  0.00     0.050 A 
HETATM    9  C   UNL     1     -24.473 -19.615  -4.896  1.00  0.00     0.059 A 
HETATM   10  C   UNL     1     -23.566 -20.181  -7.004  1.00  0.00     0.030 A 
HETATM   11  C   UNL     1     -22.314 -18.790  -5.514  1.00  0.00     0.001 A 
HETATM   12  C   UNL     1     -23.345 -18.864  -4.604  1.00  0.00     0.019 A 
HETATM   13  N   UNL     1     -26.302 -20.642  -3.584  1.00  0.00    -0.313 N 
HETATM   14  C   UNL     1     -27.400 -20.486  -2.636  1.00  0.00     0.160 C 
HETATM   15  O   UNL     1     -25.751 -18.492  -3.311  1.00  0.00    -0.267 OA
ENDROOT
BRANCH   2  16
HETATM   16  C   UNL     1     -25.935 -22.992  -3.543  1.00  0.00     0.046 C 
BRANCH  16  17
HETATM   17  C   UNL     1     -24.921 -23.233  -2.465  1.00  0.00    -0.034 A 
HETATM   18  C   UNL     1     -24.760 -24.513  -1.955  1.00  0.00     0.014 A 
HETATM   19  C   UNL     1     -23.858 -24.777  -0.921  1.00  0.00     0.037 A 
HETATM   20  C   UNL     1     -23.070 -23.757  -0.404  1.00  0.00     0.068 A 
HETATM   21  C   UNL     1     -23.185 -22.477  -0.934  1.00  0.00     0.037 A 
HETATM   22  C   UNL     1     -24.086 -22.219  -1.969  1.00  0.00     0.014 A 
BRANCH  20  23
HETATM   23  O   UNL     1     -22.185 -24.044   0.602  1.00  0.00    -0.356 OA
HETATM   24  C   UNL     1     -22.640 -24.345   1.927  1.00  0.00     0.210 C 
ENDBRANCH  20  23
ENDBRANCH  16  17
ENDBRANCH   2  16
TORSDOF 3
ENDMDL
MODEL 4
REMARK VINA RESULT:    -8.610      2.967      6.160
REMARK INTER + INTRA:          -9.988
REMARK INTER:                  -9.201
REMARK INTRA:                  -0.787
REMARK UNBOUND:                 0.131
REMARK  3 active torsions:
REMARK  status: ('A' for Active; 'I' for Inactive)
REMARK    1  A    between atoms: C_2  and  C_3 
REMARK    2  A    between atoms: C_3  and  C_20 
REMARK    3  A    between atoms: C_22  and  O_23 
ROOT
HETATM    1  C   UNL     1     -24.981 -22.719  -4.227  1.00  0.00     0.260 C 
HETATM    2  C   UNL     1     -25.585 -21.096  -2.629  1.00  0.00     0.106 C 
HETATM    3  C   UNL     1     -24.887 -19.888  -3.105  1.00  0.00     0.273 C 
HETATM    4  C   UNL     1     -25.881 -20.498  -7.716  1.00  0.00     0.002 A 
HETATM    5  O   UNL     1     -24.733 -18.901  -2.381  1.00  0.00    -0.266 OA
HETATM    6  N   UNL     1     -24.577 -19.735  -4.398  1.00  0.00    -0.321 N 
ATOM      7  HN  UNL     1     -23.939 -18.974  -4.632  1.00  0.00     0.169 HD
HETATM    8  C   UNL     1     -25.040 -20.508  -5.449  1.00  0.00     0.050 A 
HETATM    9  C   UNL     1     -25.312 -21.867  -5.406  1.00  0.00     0.059 A 
HETATM   10  C   UNL     1     -25.344 -19.839  -6.621  1.00  0.00     0.030 A 
HETATM   11  C   UNL     1     -26.137 -21.847  -7.652  1.00  0.00     0.001 A 
HETATM   12  C   UNL     1     -25.838 -22.538  -6.498  1.00  0.00     0.019 A 
HETATM   13  N   UNL     1     -25.136 -22.305  -2.977  1.00  0.00    -0.313 N 
HETATM   14  C   UNL     1     -24.682 -23.168  -1.893  1.00  0.00     0.160 C 
HETATM   15  O   UNL     1     -24.482 -23.830  -4.476  1.00  0.00    -0.267 OA
ENDROOT
BRANCH   2  16
HETATM   16  C   UNL     1     -26.696 -20.889  -1.870  1.00  0.00     0.046 C 
BRANCH  16  17
HETATM   17  C   UNL     1     -27.995 -20.269  -2.290  1.00  0.00    -0.034 A 
HETATM   18  C   UNL     1     -28.246 -20.058  -3.637  1.00  0.00     0.014 A 
HETATM   19  C   UNL     1     -29.423 -19.445  -4.072  1.00  0.00     0.037 A 
HETATM   20  C   UNL     1     -30.393 -19.064  -3.154  1.00  0.00     0.068 A 
HETATM   21  C   UNL     1     -30.179 -19.308  -1.802  1.00  0.00     0.037 A 
HETATM   22  C   UNL     1     -29.001 -19.924  -1.373  1.00  0.00     0.014 A 
BRANCH  20  23
HETATM   23  O   UNL     1     -31.544 -18.474  -3.606  1.00  0.00    -0.356 OA
HETATM   24  C   UNL     1     -31.590 -17.811  -4.875  1.00  0.00     0.210 C 
ENDBRANCH  20  23
ENDBRANCH  16  17
ENDBRANCH   2  16
TORSDOF 3
ENDMDL
MODEL 5
REMARK VINA RESULT:    -8.400      2.838      5.820
REMARK INTER + INTRA:          -9.742
REMARK INTER:                  -8.854
REMARK INTRA:                  -0.889
REMARK UNBOUND:                 0.131
REMARK  3 active torsions:
REMARK  status: ('A' for Active; 'I' for Inactive)
REMARK    1  A    between atoms: C_2  and  C_3 
REMARK    2  A    between atoms: C_3  and  C_20 
REMARK    3  A    between atoms: C_22  and  O_23 
ROOT
HETATM    1  C   UNL     1     -24.629 -21.740  -5.339  1.00  0.00     0.260 C 
HETATM    2  C   UNL     1     -26.840 -22.549  -5.457  1.00  0.00     0.106 C 
HETATM    3  C   UNL     1     -26.728 -23.900  -4.879  1.00  0.00     0.273 C 
HETATM    4  C   UNL     1     -23.853 -22.690  -1.288  1.00  0.00     0.002 A 
HETATM    5  O   UNL     1     -27.619 -24.741  -5.021  1.00  0.00    -0.266 OA
HETATM    6  N   UNL     1     -25.759 -24.198  -4.005  1.00  0.00    -0.321 N 
ATOM      7  HN  UNL     1     -25.625 -25.186  -3.785  1.00  0.00     0.169 HD
HETATM    8  C   UNL     1     -24.921 -23.297  -3.371  1.00  0.00     0.050 A 
HETATM    9  C   UNL     1     -24.431 -22.118  -3.909  1.00  0.00     0.059 A 
HETATM   10  C   UNL     1     -24.623 -23.559  -2.045  1.00  0.00     0.030 A 
HETATM   11  C   UNL     1     -23.373 -21.529  -1.846  1.00  0.00     0.001 A 
HETATM   12  C   UNL     1     -23.651 -21.247  -3.165  1.00  0.00     0.019 A 
HETATM   13  N   UNL     1     -25.764 -21.962  -5.988  1.00  0.00    -0.313 N 
HETATM   14  C   UNL     1     -25.824 -21.658  -7.414  1.00  0.00     0.160 C 
HETATM   15  O   UNL     1     -23.641 -21.261  -5.921  1.00  0.00    -0.267 OA
ENDROOT
BRANCH   2  16
HETATM   16  C   UNL     1     -28.063 -21.959  -5.377  1.00  0.00     0.046 C 
BRANCH  16  17
HETATM   17  C   UNL     1     -28.522 -20.918  -4.400  1.00  0.00    -0.034 A 
HETATM   18  C   UNL     1     -27.857 -20.779  -3.191  1.00  0.00     0.014 A 
HETATM   19  C   UNL     1     -28.274 -19.852  -2.233  1.00  0.00     0.037 A 
HETATM   20  C   UNL     1     -29.354 -19.018  -2.491  1.00  0.00     0.068 A 
HETATM   21  C   UNL     1     -30.006 -19.113  -3.715  1.00  0.00     0.037 A 
HETATM   22  C   UNL     1     -29.582 -20.039  -4.671  1.00  0.00     0.014 A 
BRANCH  20  23
HETATM   23  O   UNL     1     -29.738 -18.110  -1.539  1.00  0.00    -0.356 OA
HETATM   24  C   UNL     1     -30.659 -18.467  -0.502  1.00  0.00     0.210 C 
ENDBRANCH  20  23
ENDBRANCH  16  17
ENDBRANCH   2  16
TORSDOF 3
ENDMDL
MODEL 6
REMARK VINA RESULT:    -8.386      2.072      4.093
REMARK INTER + INTRA:          -9.725
REMARK INTER:                  -8.857
REMARK INTRA:                  -0.868
REMARK UNBOUND:                 0.131
REMARK  3 active torsions:
REMARK  status: ('A' for Active; 'I' for Inactive)
REMARK    1  A    between atoms: C_2  and  C_3 
REMARK    2  A    between atoms: C_3  and  C_20 
REMARK    3  A    between atoms: C_22  and  O_23 
ROOT
HETATM    1  C   UNL     1     -24.845 -20.379  -6.260  1.00  0.00     0.260 C 
HETATM    2  C   UNL     1     -24.012 -19.797  -4.133  1.00  0.00     0.106 C 
HETATM    3  C   UNL     1     -24.997 -18.812  -3.651  1.00  0.00     0.273 C 
HETATM    4  C   UNL     1     -28.854 -21.158  -5.148  1.00  0.00     0.002 A 
HETATM    5  O   UNL     1     -24.757 -18.073  -2.693  1.00  0.00    -0.266 OA
HETATM    6  N   UNL     1     -26.259 -18.824  -4.096  1.00  0.00    -0.321 N 
ATOM      7  HN  UNL     1     -26.836 -18.013  -3.868  1.00  0.00     0.169 HD
HETATM    8  C   UNL     1     -26.858 -19.828  -4.836  1.00  0.00     0.050 A 
HETATM    9  C   UNL     1     -26.239 -20.622  -5.789  1.00  0.00     0.059 A 
HETATM   10  C   UNL     1     -28.173 -20.124  -4.524  1.00  0.00     0.030 A 
HETATM   11  C   UNL     1     -28.221 -21.928  -6.095  1.00  0.00     0.001 A 
HETATM   12  C   UNL     1     -26.913 -21.651  -6.428  1.00  0.00     0.019 A 
HETATM   13  N   UNL     1     -23.868 -20.007  -5.444  1.00  0.00    -0.313 N 
HETATM   14  C   UNL     1     -22.565 -19.686  -6.015  1.00  0.00     0.160 C 
HETATM   15  O   UNL     1     -24.655 -20.476  -7.484  1.00  0.00    -0.267 OA
ENDROOT
BRANCH   2  16
HETATM   16  C   UNL     1     -23.320 -20.474  -3.177  1.00  0.00     0.046 C 
BRANCH  16  17
HETATM   17  C   UNL     1     -23.635 -21.816  -2.587  1.00  0.00    -0.034 A 
HETATM   18  C   UNL     1     -22.888 -22.281  -1.514  1.00  0.00     0.014 A 
HETATM   19  C   UNL     1     -23.117 -23.542  -0.959  1.00  0.00     0.037 A 
HETATM   20  C   UNL     1     -24.133 -24.348  -1.453  1.00  0.00     0.068 A 
HETATM   21  C   UNL     1     -24.922 -23.881  -2.499  1.00  0.00     0.037 A 
HETATM   22  C   UNL     1     -24.690 -22.618  -3.048  1.00  0.00     0.014 A 
BRANCH  20  23
HETATM   23  O   UNL     1     -24.345 -25.577  -0.885  1.00  0.00    -0.356 OA
HETATM   24  C   UNL     1     -23.663 -25.969   0.312  1.00  0.00     0.210 C 
ENDBRANCH  20  23
ENDBRANCH  16  17
ENDBRANCH   2  16
TORSDOF 3
ENDMDL
MODEL 7
REMARK VINA RESULT:    -8.153      3.635      6.695
REMARK INTER + INTRA:          -9.452
REMARK INTER:                  -9.178
REMARK INTRA:                  -0.274
REMARK UNBOUND:                 0.131
REMARK  3 active torsions:
REMARK  status: ('A' for Active; 'I' for Inactive)
REMARK    1  A    between atoms: C_2  and  C_3 
REMARK    2  A    between atoms: C_3  and  C_20 
REMARK    3  A    between atoms: C_22  and  O_23 
ROOT
HETATM    1  C   UNL     1     -25.496 -20.190  -3.489  1.00  0.00     0.260 C 
HETATM    2  C   UNL     1     -27.400 -20.530  -4.836  1.00  0.00     0.106 C 
HETATM    3  C   UNL     1     -26.964 -21.589  -5.763  1.00  0.00     0.273 C 
HETATM    4  C   UNL     1     -24.718 -24.233  -2.509  1.00  0.00     0.002 A 
HETATM    5  O   UNL     1     -27.589 -21.843  -6.796  1.00  0.00    -0.266 OA
HETATM    6  N   UNL     1     -26.000 -22.452  -5.420  1.00  0.00    -0.321 N 
ATOM      7  HN  UNL     1     -25.619 -23.037  -6.164  1.00  0.00     0.169 HD
HETATM    8  C   UNL     1     -25.469 -22.627  -4.154  1.00  0.00     0.050 A 
HETATM    9  C   UNL     1     -25.283 -21.638  -3.201  1.00  0.00     0.059 A 
HETATM   10  C   UNL     1     -25.185 -23.928  -3.778  1.00  0.00     0.030 A 
HETATM   11  C   UNL     1     -24.535 -23.234  -1.583  1.00  0.00     0.001 A 
HETATM   12  C   UNL     1     -24.805 -21.930  -1.933  1.00  0.00     0.019 A 
HETATM   13  N   UNL     1     -26.493 -19.748  -4.244  1.00  0.00    -0.313 N 
HETATM   14  C   UNL     1     -26.554 -18.325  -4.559  1.00  0.00     0.160 C 
HETATM   15  O   UNL     1     -24.641 -19.409  -3.037  1.00  0.00    -0.267 OA
ENDROOT
BRANCH   2  16
HETATM   16  C   UNL     1     -28.739 -20.440  -4.612  1.00  0.00     0.046 C 
BRANCH  16  17
HETATM   17  C   UNL     1     -29.457 -19.515  -3.674  1.00  0.00    -0.034 A 
HETATM   18  C   UNL     1     -30.330 -18.567  -4.188  1.00  0.00     0.014 A 
HETATM   19  C   UNL     1     -30.988 -17.657  -3.358  1.00  0.00     0.037 A 
HETATM   20  C   UNL     1     -30.806 -17.709  -1.982  1.00  0.00     0.068 A 
HETATM   21  C   UNL     1     -29.969 -18.680  -1.445  1.00  0.00     0.037 A 
HETATM   22  C   UNL     1     -29.316 -19.589  -2.280  1.00  0.00     0.014 A 
BRANCH  20  23
HETATM   23  O   UNL     1     -31.470 -16.811  -1.187  1.00  0.00    -0.356 OA
HETATM   24  C   UNL     1     -32.700 -16.212  -1.612  1.00  0.00     0.210 C 
ENDBRANCH  20  23
ENDBRANCH  16  17
ENDBRANCH   2  16
TORSDOF 3
ENDMDL
MODEL 8
REMARK VINA RESULT:    -8.136      3.683      6.851
REMARK INTER + INTRA:          -9.431
REMARK INTER:                  -8.618
REMARK INTRA:                  -0.813
REMARK UNBOUND:                 0.131
REMARK  3 active torsions:
REMARK  status: ('A' for Active; 'I' for Inactive)
REMARK    1  A    between atoms: C_2  and  C_3 
REMARK    2  A    between atoms: C_3  and  C_20 
REMARK    3  A    between atoms: C_22  and  O_23 
ROOT
HETATM    1  C   UNL     1     -26.247 -21.426  -5.647  1.00  0.00     0.260 C 
HETATM    2  C   UNL     1     -27.750 -20.534  -4.065  1.00  0.00     0.106 C 
HETATM    3  C   UNL     1     -27.015 -20.674  -2.796  1.00  0.00     0.273 C 
HETATM    4  C   UNL     1     -22.795 -19.271  -4.483  1.00  0.00     0.002 A 
HETATM    5  O   UNL     1     -27.582 -20.574  -1.705  1.00  0.00    -0.266 OA
HETATM    6  N   UNL     1     -25.676 -20.707  -2.773  1.00  0.00    -0.321 N 
ATOM      7  HN  UNL     1     -25.237 -20.988  -1.896  1.00  0.00     0.169 HD
HETATM    8  C   UNL     1     -24.831 -20.397  -3.825  1.00  0.00     0.050 A 
HETATM    9  C   UNL     1     -25.075 -20.637  -5.168  1.00  0.00     0.059 A 
HETATM   10  C   UNL     1     -23.680 -19.699  -3.506  1.00  0.00     0.030 A 
HETATM   11  C   UNL     1     -23.054 -19.527  -5.809  1.00  0.00     0.001 A 
HETATM   12  C   UNL     1     -24.191 -20.225  -6.153  1.00  0.00     0.019 A 
HETATM   13  N   UNL     1     -27.450 -21.326  -5.099  1.00  0.00    -0.313 N 
HETATM   14  C   UNL     1     -28.506 -22.218  -5.564  1.00  0.00     0.160 C 
HETATM   15  O   UNL     1     -26.023 -22.244  -6.555  1.00  0.00    -0.267 OA
ENDROOT
BRANCH   2  16
HETATM   16  C   UNL     1     -28.691 -19.553  -4.111  1.00  0.00     0.046 C 
BRANCH  16  17
HETATM   17  C   UNL     1     -28.474 -18.071  -4.196  1.00  0.00    -0.034 A 
HETATM   18  C   UNL     1     -27.181 -17.576  -4.275  1.00  0.00     0.014 A 
HETATM   19  C   UNL     1     -26.927 -16.203  -4.313  1.00  0.00     0.037 A 
HETATM   20  C   UNL     1     -27.981 -15.298  -4.311  1.00  0.00     0.068 A 
HETATM   21  C   UNL     1     -29.286 -15.777  -4.278  1.00  0.00     0.037 A 
HETATM   22  C   UNL     1     -29.533 -17.151  -4.242  1.00  0.00     0.014 A 
BRANCH  20  23
HETATM   23  O   UNL     1     -27.707 -13.956  -4.360  1.00  0.00    -0.356 OA
HETATM   24  C   UNL     1     -27.224 -13.254  -3.209  1.00  0.00     0.210 C 
ENDBRANCH  20  23
ENDBRANCH  16  17
ENDBRANCH   2  16
TORSDOF 3
ENDMDL
MODEL 9
REMARK VINA RESULT:    -7.977      3.741      5.976
REMARK INTER + INTRA:          -9.245
REMARK INTER:                  -9.044
REMARK INTRA:                  -0.200
REMARK UNBOUND:                 0.131
REMARK  3 active torsions:
REMARK  status: ('A' for Active; 'I' for Inactive)
REMARK    1  A    between atoms: C_2  and  C_3 
REMARK    2  A    between atoms: C_3  and  C_20 
REMARK    3  A    between atoms: C_22  and  O_23 
ROOT
HETATM    1  C   UNL     1     -26.025 -21.476  -6.196  1.00  0.00     0.260 C 
HETATM    2  C   UNL     1     -26.727 -20.228  -4.324  1.00  0.00     0.106 C 
HETATM    3  C   UNL     1     -25.522 -20.198  -3.476  1.00  0.00     0.273 C 
HETATM    4  C   UNL     1     -22.430 -19.393  -7.000  1.00  0.00     0.002 A 
HETATM    5  O   UNL     1     -25.574 -19.874  -2.287  1.00  0.00    -0.266 OA
HETATM    6  N   UNL     1     -24.300 -20.317  -4.010  1.00  0.00    -0.321 N 
ATOM      7  HN  UNL     1     -23.527 -20.473  -3.362  1.00  0.00     0.169 HD
HETATM    8  C   UNL     1     -23.983 -20.249  -5.356  1.00  0.00     0.050 A 
HETATM    9  C   UNL     1     -24.769 -20.699  -6.405  1.00  0.00     0.059 A 
HETATM   10  C   UNL     1     -22.813 -19.586  -5.682  1.00  0.00     0.030 A 
HETATM   11  C   UNL     1     -23.223 -19.854  -8.024  1.00  0.00     0.001 A 
HETATM   12  C   UNL     1     -24.390 -20.521  -7.726  1.00  0.00     0.019 A 
HETATM   13  N   UNL     1     -26.884 -21.203  -5.224  1.00  0.00    -0.313 N 
HETATM   14  C   UNL     1     -28.028 -22.088  -5.032  1.00  0.00     0.160 C 
HETATM   15  O   UNL     1     -26.198 -22.451  -6.947  1.00  0.00    -0.267 OA
ENDROOT
BRANCH   2  16
HETATM   16  C   UNL     1     -27.610 -19.207  -4.151  1.00  0.00     0.046 C 
BRANCH  16  17
HETATM   17  C   UNL     1     -28.608 -19.029  -3.046  1.00  0.00    -0.034 A 
HETATM   18  C   UNL     1     -29.402 -17.892  -3.023  1.00  0.00     0.014 A 
HETATM   19  C   UNL     1     -30.316 -17.663  -1.991  1.00  0.00     0.037 A 
HETATM   20  C   UNL     1     -30.474 -18.599  -0.978  1.00  0.00     0.068 A 
HETATM   21  C   UNL     1     -29.719 -19.767  -1.009  1.00  0.00     0.037 A 
HETATM   22  C   UNL     1     -28.809 -19.991  -2.044  1.00  0.00     0.014 A 
BRANCH  20  23
HETATM   23  O   UNL     1     -31.385 -18.357   0.017  1.00  0.00    -0.356 OA
HETATM   24  C   UNL     1     -31.545 -19.264   1.114  1.00  0.00     0.210 C 
ENDBRANCH  20  23
ENDBRANCH  16  17
ENDBRANCH   2  16
TORSDOF 3
ENDMDL
MODEL 10
REMARK VINA RESULT:    -7.936      3.539      7.138
REMARK INTER + INTRA:          -9.196
REMARK INTER:                  -9.010
REMARK INTRA:                  -0.186
REMARK UNBOUND:                 0.131
REMARK  3 active torsions:
REMARK  status: ('A' for Active; 'I' for Inactive)
REMARK    1  A    between atoms: C_2  and  C_3 
REMARK    2  A    between atoms: C_3  and  C_20 
REMARK    3  A    between atoms: C_22  and  O_23 
ROOT
HETATM    1  C   UNL     1     -24.057 -20.891  -3.033  1.00  0.00     0.260 C 
HETATM    2  C   UNL     1     -26.344 -20.751  -3.587  1.00  0.00     0.106 C 
HETATM    3  C   UNL     1     -26.588 -22.015  -4.304  1.00  0.00     0.273 C 
HETATM    4  C   UNL     1     -24.078 -24.775  -1.353  1.00  0.00     0.002 A 
HETATM    5  O   UNL     1     -27.598 -22.186  -4.991  1.00  0.00    -0.266 OA
HETATM    6  N   UNL     1     -25.833 -23.097  -4.071  1.00  0.00    -0.321 N 
ATOM      7  HN  UNL     1     -25.931 -23.876  -4.723  1.00  0.00     0.169 HD
HETATM    8  C   UNL     1     -24.933 -23.260  -3.032  1.00  0.00     0.050 A 
HETATM    9  C   UNL     1     -24.146 -22.268  -2.468  1.00  0.00     0.059 A 
HETATM   10  C   UNL     1     -24.888 -24.513  -2.447  1.00  0.00     0.030 A 
HETATM   11  C   UNL     1     -23.301 -23.776  -0.814  1.00  0.00     0.001 A 
HETATM   12  C   UNL     1     -23.324 -22.522  -1.382  1.00  0.00     0.019 A 
HETATM   13  N   UNL     1     -25.107 -20.248  -3.526  1.00  0.00    -0.313 N 
HETATM   14  C   UNL     1     -24.900 -18.950  -4.157  1.00  0.00     0.160 C 
HETATM   15  O   UNL     1     -22.920 -20.391  -3.083  1.00  0.00    -0.267 OA
ENDROOT
BRANCH   2  16
HETATM   16  C   UNL     1     -27.424 -20.180  -2.988  1.00  0.00     0.046 C 
BRANCH  16  17
HETATM   17  C   UNL     1     -28.416 -19.230  -3.590  1.00  0.00    -0.034 A 
HETATM   18  C   UNL     1     -28.054 -17.907  -3.796  1.00  0.00     0.014 A 
HETATM   19  C   UNL     1     -28.958 -16.977  -4.313  1.00  0.00     0.037 A 
HETATM   20  C   UNL     1     -30.241 -17.373  -4.671  1.00  0.00     0.068 A 
HETATM   21  C   UNL     1     -30.607 -18.705  -4.513  1.00  0.00     0.037 A 
HETATM   22  C   UNL     1     -29.698 -19.631  -3.997  1.00  0.00     0.014 A 
BRANCH  20  23
HETATM   23  O   UNL     1     -31.106 -16.444  -5.187  1.00  0.00    -0.356 OA
HETATM   24  C   UNL     1     -32.103 -16.811  -6.148  1.00  0.00     0.210 C 
ENDBRANCH  20  23
ENDBRANCH  16  17
ENDBRANCH   2  16
TORSDOF 3
ENDMDL
MODEL 11
REMARK VINA RESULT:    -7.923      3.151      6.588
REMARK INTER + INTRA:          -9.181
REMARK INTER:                  -8.484
REMARK INTRA:                  -0.697
REMARK UNBOUND:                 0.131
REMARK  3 active torsions:
REMARK  status: ('A' for Active; 'I' for Inactive)
REMARK    1  A    between atoms: C_2  and  C_3 
REMARK    2  A    between atoms: C_3  and  C_20 
REMARK    3  A    between atoms: C_22  and  O_23 
ROOT
HETATM    1  C   UNL     1     -25.554 -22.317  -5.497  1.00  0.00     0.260 C 
HETATM    2  C   UNL     1     -24.850 -20.525  -4.137  1.00  0.00     0.106 C 
HETATM    3  C   UNL     1     -23.686 -19.993  -4.869  1.00  0.00     0.273 C 
HETATM    4  C   UNL     1     -25.626 -20.275  -9.203  1.00  0.00     0.002 A 
HETATM    5  O   UNL     1     -22.880 -19.227  -4.335  1.00  0.00    -0.266 OA
HETATM    6  N   UNL     1     -23.572 -20.153  -6.194  1.00  0.00    -0.321 N 
ATOM      7  HN  UNL     1     -22.668 -19.928  -6.609  1.00  0.00     0.169 HD
HETATM    8  C   UNL     1     -24.563 -20.593  -7.054  1.00  0.00     0.050 A 
HETATM    9  C   UNL     1     -25.542 -21.530  -6.763  1.00  0.00     0.059 A 
HETATM   10  C   UNL     1     -24.632 -19.968  -8.287  1.00  0.00     0.030 A 
HETATM   11  C   UNL     1     -26.583 -21.212  -8.894  1.00  0.00     0.001 A 
HETATM   12  C   UNL     1     -26.534 -21.853  -7.676  1.00  0.00     0.019 A 
HETATM   13  N   UNL     1     -25.230 -21.792  -4.323  1.00  0.00    -0.313 N 
HETATM   14  C   UNL     1     -25.165 -22.669  -3.159  1.00  0.00     0.160 C 
HETATM   15  O   UNL     1     -25.821 -23.527  -5.605  1.00  0.00    -0.267 OA
ENDROOT
BRANCH   2  16
HETATM   16  C   UNL     1     -25.499 -19.650  -3.323  1.00  0.00     0.046 C 
BRANCH  16  17
HETATM   17  C   UNL     1     -26.701 -18.811  -3.642  1.00  0.00    -0.034 A 
HETATM   18  C   UNL     1     -26.523 -17.551  -4.193  1.00  0.00     0.014 A 
HETATM   19  C   UNL     1     -27.609 -16.717  -4.469  1.00  0.00     0.037 A 
HETATM   20  C   UNL     1     -28.905 -17.155  -4.227  1.00  0.00     0.068 A 
HETATM   21  C   UNL     1     -29.105 -18.433  -3.717  1.00  0.00     0.037 A 
HETATM   22  C   UNL     1     -28.015 -19.263  -3.447  1.00  0.00     0.014 A 
BRANCH  20  23
HETATM   23  O   UNL     1     -29.955 -16.322  -4.516  1.00  0.00    -0.356 OA
HETATM   24  C   UNL     1     -29.773 -15.149  -5.317  1.00  0.00     0.210 C 
ENDBRANCH  20  23
ENDBRANCH  16  17
ENDBRANCH   2  16
TORSDOF 3
ENDMDL
MODEL 12
REMARK VINA RESULT:    -7.886      3.618      6.350
REMARK INTER + INTRA:          -9.138
REMARK INTER:                  -8.383
REMARK INTRA:                  -0.755
REMARK UNBOUND:                 0.131
REMARK  3 active torsions:
REMARK  status: ('A' for Active; 'I' for Inactive)
REMARK    1  A    between atoms: C_2  and  C_3 
REMARK    2  A    between atoms: C_3  and  C_20 
REMARK    3  A    between atoms: C_22  and  O_23 
ROOT
HETATM    1  C   UNL     1     -26.944 -21.516  -6.966  1.00  0.00     0.260 C 
HETATM    2  C   UNL     1     -26.751 -21.640  -4.620  1.00  0.00     0.106 C 
HETATM    3  C   UNL     1     -25.484 -22.368  -4.431  1.00  0.00     0.273 C 
HETATM    4  C   UNL     1     -23.057 -20.073  -7.817  1.00  0.00     0.002 A 
HETATM    5  O   UNL     1     -25.182 -22.869  -3.345  1.00  0.00    -0.266 OA
HETATM    6  N   UNL     1     -24.523 -22.335  -5.363  1.00  0.00    -0.321 N 
ATOM      7  HN  UNL     1     -23.756 -22.999  -5.258  1.00  0.00     0.169 HD
HETATM    8  C   UNL     1     -24.470 -21.486  -6.455  1.00  0.00     0.050 A 
HETATM    9  C   UNL     1     -25.554 -21.020  -7.183  1.00  0.00     0.059 A 
HETATM   10  C   UNL     1     -23.223 -20.987  -6.788  1.00  0.00     0.030 A 
HETATM   11  C   UNL     1     -24.146 -19.631  -8.529  1.00  0.00     0.001 A 
HETATM   12  C   UNL     1     -25.398 -20.116  -8.221  1.00  0.00     0.019 A 
HETATM   13  N   UNL     1     -27.433 -21.775  -5.761  1.00  0.00    -0.313 N 
HETATM   14  C   UNL     1     -28.765 -22.362  -5.659  1.00  0.00     0.160 C 
HETATM   15  O   UNL     1     -27.611 -21.744  -7.991  1.00  0.00    -0.267 OA
ENDROOT
BRANCH   2  16
HETATM   16  C   UNL     1     -27.136 -20.825  -3.601  1.00  0.00     0.046 C 
BRANCH  16  17
HETATM   17  C   UNL     1     -27.616 -19.407  -3.685  1.00  0.00    -0.034 A 
HETATM   18  C   UNL     1     -26.826 -18.457  -4.317  1.00  0.00     0.014 A 
HETATM   19  C   UNL     1     -27.212 -17.116  -4.384  1.00  0.00     0.037 A 
HETATM   20  C   UNL     1     -28.426 -16.711  -3.844  1.00  0.00     0.068 A 
HETATM   21  C   UNL     1     -29.251 -17.657  -3.246  1.00  0.00     0.037 A 
HETATM   22  C   UNL     1     -28.861 -18.997  -3.185  1.00  0.00     0.014 A 
BRANCH  20  23
HETATM   23  O   UNL     1     -28.787 -15.392  -3.931  1.00  0.00    -0.356 OA
HETATM   24  C   UNL     1     -28.921 -14.741  -5.200  1.00  0.00     0.210 C 
ENDBRANCH  20  23
ENDBRANCH  16  17
ENDBRANCH   2  16
TORSDOF 3
ENDMDL
MODEL 13
REMARK VINA RESULT:    -7.797      4.860      6.361
REMARK INTER + INTRA:          -9.033
REMARK INTER:                  -8.715
REMARK INTRA:                  -0.318
REMARK UNBOUND:                 0.131
REMARK  3 active torsions:
REMARK  status: ('A' for Active; 'I' for Inactive)
REMARK    1  A    between atoms: C_2  and  C_3 
REMARK    2  A    between atoms: C_3  and  C_20 
REMARK    3  A    between atoms: C_22  and  O_23 
ROOT
HETATM    1  C   UNL     1     -28.799 -16.821  -4.652  1.00  0.00     0.260 C 
HETATM    2  C   UNL     1     -28.568 -18.853  -3.480  1.00  0.00     0.106 C 
HETATM    3  C   UNL     1     -29.418 -18.648  -2.293  1.00  0.00     0.273 C 
HETATM    4  C   UNL     1     -33.023 -16.564  -4.592  1.00  0.00     0.002 A 
HETATM    5  O   UNL     1     -29.337 -19.381  -1.305  1.00  0.00    -0.266 OA
HETATM    6  N   UNL     1     -30.450 -17.795  -2.323  1.00  0.00    -0.321 N 
ATOM      7  HN  UNL     1     -30.881 -17.562  -1.427  1.00  0.00     0.169 HD
HETATM    8  C   UNL     1     -30.989 -17.199  -3.450  1.00  0.00     0.050 A 
HETATM    9  C   UNL     1     -30.288 -16.798  -4.577  1.00  0.00     0.059 A 
HETATM   10  C   UNL     1     -32.366 -17.079  -3.485  1.00  0.00     0.030 A 
HETATM   11  C   UNL     1     -32.306 -16.167  -5.696  1.00  0.00     0.001 A 
HETATM   12  C   UNL     1     -30.933 -16.271  -5.685  1.00  0.00     0.019 A 
HETATM   13  N   UNL     1     -28.070 -17.799  -4.132  1.00  0.00    -0.313 N 
HETATM   14  C   UNL     1     -26.616 -17.677  -4.158  1.00  0.00     0.160 C 
HETATM   15  O   UNL     1     -28.261 -15.830  -5.174  1.00  0.00    -0.267 OA
ENDROOT
BRANCH   2  16
HETATM   16  C   UNL     1     -28.371 -20.143  -3.864  1.00  0.00     0.046 C 
BRANCH  16  17
HETATM   17  C   UNL     1     -27.227 -21.046  -3.509  1.00  0.00    -0.034 A 
HETATM   18  C   UNL     1     -26.760 -21.954  -4.448  1.00  0.00     0.014 A 
HETATM   19  C   UNL     1     -25.725 -22.843  -4.150  1.00  0.00     0.037 A 
HETATM   20  C   UNL     1     -25.112 -22.808  -2.904  1.00  0.00     0.068 A 
HETATM   21  C   UNL     1     -25.537 -21.875  -1.965  1.00  0.00     0.037 A 
HETATM   22  C   UNL     1     -26.570 -20.986  -2.271  1.00  0.00     0.014 A 
BRANCH  20  23
HETATM   23  O   UNL     1     -24.092 -23.684  -2.638  1.00  0.00    -0.356 OA
HETATM   24  C   UNL     1     -24.116 -24.522  -1.477  1.00  0.00     0.210 C 
ENDBRANCH  20  23
ENDBRANCH  16  17
ENDBRANCH   2  16
TORSDOF 3
ENDMDL
MODEL 14
REMARK VINA RESULT:    -7.637      4.715      5.866
REMARK INTER + INTRA:          -8.845
REMARK INTER:                  -8.597
REMARK INTRA:                  -0.248
REMARK UNBOUND:                 0.131
REMARK  3 active torsions:
REMARK  status: ('A' for Active; 'I' for Inactive)
REMARK    1  A    between atoms: C_2  and  C_3 
REMARK    2  A    between atoms: C_3  and  C_20 
REMARK    3  A    between atoms: C_22  and  O_23 
ROOT
HETATM    1  C   UNL     1     -30.180 -18.032  -1.891  1.00  0.00     0.260 C 
HETATM    2  C   UNL     1     -28.849 -19.477  -3.193  1.00  0.00     0.106 C 
HETATM    3  C   UNL     1     -29.692 -19.725  -4.376  1.00  0.00     0.273 C 
HETATM    4  C   UNL     1     -31.169 -15.235  -4.909  1.00  0.00     0.002 A 
HETATM    5  O   UNL     1     -29.457 -20.652  -5.156  1.00  0.00    -0.266 OA
HETATM    6  N   UNL     1     -30.613 -18.835  -4.766  1.00  0.00    -0.321 N 
ATOM      7  HN  UNL     1     -31.282 -19.143  -5.472  1.00  0.00     0.169 HD
HETATM    8  C   UNL     1     -30.747 -17.538  -4.302  1.00  0.00     0.050 A 
HETATM    9  C   UNL     1     -30.491 -17.099  -3.012  1.00  0.00     0.059 A 
HETATM   10  C   UNL     1     -31.078 -16.578  -5.242  1.00  0.00     0.030 A 
HETATM   11  C   UNL     1     -30.917 -14.825  -3.622  1.00  0.00     0.001 A 
HETATM   12  C   UNL     1     -30.591 -15.761  -2.666  1.00  0.00     0.019 A 
HETATM   13  N   UNL     1     -29.413 -19.103  -2.041  1.00  0.00    -0.313 N 
HETATM   14  C   UNL     1     -29.256 -20.015  -0.913  1.00  0.00     0.160 C 
HETATM   15  O   UNL     1     -30.737 -17.791  -0.806  1.00  0.00    -0.267 OA
ENDROOT
BRANCH   2  16
HETATM   16  C   UNL     1     -27.507 -19.617  -3.369  1.00  0.00     0.046 C 
BRANCH  16  17
HETATM   17  C   UNL     1     -26.667 -20.833  -3.115  1.00  0.00    -0.034 A 
HETATM   18  C   UNL     1     -26.063 -20.997  -1.878  1.00  0.00     0.014 A 
HETATM   19  C   UNL     1     -25.237 -22.091  -1.609  1.00  0.00     0.037 A 
HETATM   20  C   UNL     1     -25.033 -23.066  -2.576  1.00  0.00     0.068 A 
HETATM   21  C   UNL     1     -25.666 -22.942  -3.808  1.00  0.00     0.037 A 
HETATM   22  C   UNL     1     -26.493 -21.847  -4.070  1.00  0.00     0.014 A 
BRANCH  20  23
HETATM   23  O   UNL     1     -24.227 -24.136  -2.285  1.00  0.00    -0.356 OA
HETATM   24  C   UNL     1     -23.302 -24.093  -1.193  1.00  0.00     0.210 C 
ENDBRANCH  20  23
ENDBRANCH  16  17
ENDBRANCH   2  16
TORSDOF 3
ENDMDL
MODEL 15
REMARK VINA RESULT:    -7.583      4.527      7.386
REMARK INTER + INTRA:          -8.781
REMARK INTER:                  -8.530
REMARK INTRA:                  -0.250
REMARK UNBOUND:                 0.131
REMARK  3 active torsions:
REMARK  status: ('A' for Active; 'I' for Inactive)
REMARK    1  A    between atoms: C_2  and  C_3 
REMARK    2  A    between atoms: C_3  and  C_20 
REMARK    3  A    between atoms: C_22  and  O_23 
ROOT
HETATM    1  C   UNL     1     -27.641 -20.659  -5.213  1.00  0.00     0.260 C 
HETATM    2  C   UNL     1     -26.929 -18.591  -4.334  1.00  0.00     0.106 C 
HETATM    3  C   UNL     1     -25.558 -18.881  -3.878  1.00  0.00     0.273 C 
HETATM    4  C   UNL     1     -24.287 -21.463  -7.666  1.00  0.00     0.002 A 
HETATM    5  O   UNL     1     -24.956 -18.124  -3.112  1.00  0.00    -0.266 OA
HETATM    6  N   UNL     1     -24.837 -19.861  -4.437  1.00  0.00    -0.321 N 
ATOM      7  HN  UNL     1     -23.977 -20.131  -3.960  1.00  0.00     0.169 HD
HETATM    8  C   UNL     1     -25.147 -20.545  -5.600  1.00  0.00     0.050 A 
HETATM    9  C   UNL     1     -26.420 -20.873  -6.042  1.00  0.00     0.059 A 
HETATM   10  C   UNL     1     -24.090 -20.844  -6.441  1.00  0.00     0.030 A 
HETATM   11  C   UNL     1     -25.558 -21.784  -8.079  1.00  0.00     0.001 A 
HETATM   12  C   UNL     1     -26.628 -21.502  -7.259  1.00  0.00     0.019 A 
HETATM   13  N   UNL     1     -27.814 -19.584  -4.456  1.00  0.00    -0.313 N 
HETATM   14  C   UNL     1     -28.991 -19.516  -3.596  1.00  0.00     0.160 C 
HETATM   15  O   UNL     1     -28.474 -21.582  -5.214  1.00  0.00    -0.267 OA
ENDROOT
BRANCH   2  16
HETATM   16  C   UNL     1     -27.198 -17.294  -4.644  1.00  0.00     0.046 C 
BRANCH  16  17
HETATM   17  C   UNL     1     -27.568 -16.180  -3.710  1.00  0.00    -0.034 A 
HETATM   18  C   UNL     1     -26.634 -15.196  -3.421  1.00  0.00     0.014 A 
HETATM   19  C   UNL     1     -26.918 -14.164  -2.524  1.00  0.00     0.037 A 
HETATM   20  C   UNL     1     -28.169 -14.082  -1.926  1.00  0.00     0.068 A 
HETATM   21  C   UNL     1     -29.133 -15.035  -2.238  1.00  0.00     0.037 A 
HETATM   22  C   UNL     1     -28.844 -16.063  -3.137  1.00  0.00     0.014 A 
BRANCH  20  23
HETATM   23  O   UNL     1     -28.427 -13.054  -1.058  1.00  0.00    -0.356 OA
HETATM   24  C   UNL     1     -27.925 -11.734  -1.299  1.00  0.00     0.210 C 
ENDBRANCH  20  23
ENDBRANCH  16  17
ENDBRANCH   2  16
TORSDOF 3
ENDMDL
MODEL 16
REMARK VINA RESULT:    -7.568      5.081      7.100
REMARK INTER + INTRA:          -8.764
REMARK INTER:                  -8.625
REMARK INTRA:                  -0.139
REMARK UNBOUND:                 0.131
REMARK  3 active torsions:
REMARK  status: ('A' for Active; 'I' for Inactive)
REMARK    1  A    between atoms: C_2  and  C_3 
REMARK    2  A    between atoms: C_3  and  C_20 
REMARK    3  A    between atoms: C_22  and  O_23 
ROOT
HETATM    1  C   UNL     1     -29.682 -15.419  -3.592  1.00  0.00     0.260 C 
HETATM    2  C   UNL     1     -28.573 -17.471  -3.927  1.00  0.00     0.106 C 
HETATM    3  C   UNL     1     -27.245 -17.054  -4.412  1.00  0.00     0.273 C 
HETATM    4  C   UNL     1     -26.675 -13.467  -1.340  1.00  0.00     0.002 A 
HETATM    5  O   UNL     1     -26.476 -17.848  -4.960  1.00  0.00    -0.266 OA
HETATM    6  N   UNL     1     -26.740 -15.855  -4.094  1.00  0.00    -0.321 N 
ATOM      7  HN  UNL     1     -25.909 -15.555  -4.605  1.00  0.00     0.169 HD
HETATM    8  C   UNL     1     -27.234 -14.985  -3.138  1.00  0.00     0.050 A 
HETATM    9  C   UNL     1     -28.570 -14.798  -2.816  1.00  0.00     0.059 A 
HETATM   10  C   UNL     1     -26.299 -14.310  -2.374  1.00  0.00     0.030 A 
HETATM   11  C   UNL     1     -28.006 -13.292  -1.043  1.00  0.00     0.001 A 
HETATM   12  C   UNL     1     -28.958 -13.948  -1.791  1.00  0.00     0.019 A 
HETATM   13  N   UNL     1     -29.620 -16.654  -4.069  1.00  0.00    -0.313 N 
HETATM   14  C   UNL     1     -30.712 -17.134  -4.909  1.00  0.00     0.160 C 
HETATM   15  O   UNL     1     -30.658 -14.687  -3.832  1.00  0.00    -0.267 OA
ENDROOT
BRANCH   2  16
HETATM   16  C   UNL     1     -28.636 -18.686  -3.317  1.00  0.00     0.046 C 
BRANCH  16  17
HETATM   17  C   UNL     1     -28.178 -20.010  -3.851  1.00  0.00    -0.034 A 
HETATM   18  C   UNL     1     -27.122 -20.665  -3.235  1.00  0.00     0.014 A 
HETATM   19  C   UNL     1     -26.634 -21.879  -3.721  1.00  0.00     0.037 A 
HETATM   20  C   UNL     1     -27.228 -22.479  -4.824  1.00  0.00     0.068 A 
HETATM   21  C   UNL     1     -28.317 -21.861  -5.428  1.00  0.00     0.037 A 
HETATM   22  C   UNL     1     -28.802 -20.647  -4.935  1.00  0.00     0.014 A 
BRANCH  20  23
HETATM   23  O   UNL     1     -26.738 -23.677  -5.276  1.00  0.00    -0.356 OA
HETATM   24  C   UNL     1     -25.796 -24.432  -4.506  1.00  0.00     0.210 C 
ENDBRANCH  20  23
ENDBRANCH  16  17
ENDBRANCH   2  16
TORSDOF 3
ENDMDL
MODEL 17
REMARK VINA RESULT:    -7.523      5.971      9.006
REMARK INTER + INTRA:          -8.711
REMARK INTER:                  -8.037
REMARK INTRA:                  -0.674
REMARK UNBOUND:                 0.131
REMARK  3 active torsions:
REMARK  status: ('A' for Active; 'I' for Inactive)
REMARK    1  A    between atoms: C_2  and  C_3 
REMARK    2  A    between atoms: C_3  and  C_20 
REMARK    3  A    between atoms: C_22  and  O_23 
ROOT
HETATM    1  C   UNL     1     -29.084 -19.229  -2.308  1.00  0.00     0.260 C 
HETATM    2  C   UNL     1     -29.568 -17.681  -4.018  1.00  0.00     0.106 C 
HETATM    3  C   UNL     1     -30.936 -18.051  -4.421  1.00  0.00     0.273 C 
HETATM    4  C   UNL     1     -32.608 -18.726  -0.019  1.00  0.00     0.002 A 
HETATM    5  O   UNL     1     -31.431 -17.650  -5.477  1.00  0.00    -0.266 OA
HETATM    6  N   UNL     1     -31.766 -18.661  -3.565  1.00  0.00    -0.321 N 
ATOM      7  HN  UNL     1     -32.624 -19.053  -3.956  1.00  0.00     0.169 HD
HETATM    8  C   UNL     1     -31.574 -18.812  -2.203  1.00  0.00     0.050 A 
HETATM    9  C   UNL     1     -30.357 -19.002  -1.565  1.00  0.00     0.059 A 
HETATM   10  C   UNL     1     -32.692 -18.667  -1.402  1.00  0.00     0.030 A 
HETATM   11  C   UNL     1     -31.392 -18.921   0.591  1.00  0.00     0.001 A 
HETATM   12  C   UNL     1     -30.264 -19.074  -0.184  1.00  0.00     0.019 A 
HETATM   13  N   UNL     1     -28.781 -18.584  -3.426  1.00  0.00    -0.313 N 
HETATM   14  C   UNL     1     -27.563 -18.954  -4.139  1.00  0.00     0.160 C 
HETATM   15  O   UNL     1     -28.338 -20.116  -1.858  1.00  0.00    -0.267 OA
ENDROOT
BRANCH   2  16
HETATM   16  C   UNL     1     -29.199 -16.392  -4.252  1.00  0.00     0.046 C 
BRANCH  16  17
HETATM   17  C   UNL     1     -28.495 -15.451  -3.320  1.00  0.00    -0.034 A 
HETATM   18  C   UNL     1     -29.216 -14.819  -2.318  1.00  0.00     0.014 A 
HETATM   19  C   UNL     1     -28.612 -13.903  -1.454  1.00  0.00     0.037 A 
HETATM   20  C   UNL     1     -27.254 -13.633  -1.559  1.00  0.00     0.068 A 
HETATM   21  C   UNL     1     -26.505 -14.292  -2.529  1.00  0.00     0.037 A 
HETATM   22  C   UNL     1     -27.114 -15.209  -3.388  1.00  0.00     0.014 A 
BRANCH  20  23
HETATM   23  O   UNL     1     -26.682 -12.738  -0.693  1.00  0.00    -0.356 OA
HETATM   24  C   UNL     1     -25.441 -13.028  -0.038  1.00  0.00     0.210 C 
ENDBRANCH  20  23
ENDBRANCH  16  17
ENDBRANCH   2  16
TORSDOF 3
ENDMDL
MODEL 18
REMARK VINA RESULT:    -7.487      4.138      7.356
REMARK INTER + INTRA:          -8.669
REMARK INTER:                  -8.457
REMARK INTRA:                  -0.212
REMARK UNBOUND:                 0.131
REMARK  3 active torsions:
REMARK  status: ('A' for Active; 'I' for Inactive)
REMARK    1  A    between atoms: C_2  and  C_3 
REMARK    2  A    between atoms: C_3  and  C_20 
REMARK    3  A    between atoms: C_22  and  O_23 
ROOT
HETATM    1  C   UNL     1     -28.845 -18.318  -3.362  1.00  0.00     0.260 C 
HETATM    2  C   UNL     1     -27.601 -20.311  -3.555  1.00  0.00     0.106 C 
HETATM    3  C   UNL     1     -27.357 -20.686  -2.151  1.00  0.00     0.273 C 
HETATM    4  C   UNL     1     -31.730 -19.673  -0.578  1.00  0.00     0.002 A 
HETATM    5  O   UNL     1     -26.504 -21.521  -1.842  1.00  0.00    -0.266 OA
HETATM    6  N   UNL     1     -28.188 -20.292  -1.177  1.00  0.00    -0.321 N 
ATOM      7  HN  UNL     1     -27.869 -20.425  -0.217  1.00  0.00     0.169 HD
HETATM    8  C   UNL     1     -29.438 -19.723  -1.348  1.00  0.00     0.050 A 
HETATM    9  C   UNL     1     -29.816 -18.869  -2.372  1.00  0.00     0.059 A 
HETATM   10  C   UNL     1     -30.424 -20.121  -0.462  1.00  0.00     0.030 A 
HETATM   11  C   UNL     1     -32.079 -18.821  -1.599  1.00  0.00     0.001 A 
HETATM   12  C   UNL     1     -31.116 -18.406  -2.491  1.00  0.00     0.019 A 
HETATM   13  N   UNL     1     -27.854 -19.038  -3.870  1.00  0.00    -0.313 N 
HETATM   14  C   UNL     1     -26.890 -18.380  -4.746  1.00  0.00     0.160 C 
HETATM   15  O   UNL     1     -28.970 -17.114  -3.641  1.00  0.00    -0.267 OA
ENDROOT
BRANCH   2  16
HETATM   16  C   UNL     1     -27.586 -21.327  -4.460  1.00  0.00     0.046 C 
BRANCH  16  17
HETATM   17  C   UNL     1     -26.745 -21.448  -5.696  1.00  0.00    -0.034 A 
HETATM   18  C   UNL     1     -25.373 -21.607  -5.572  1.00  0.00     0.014 A 
HETATM   19  C   UNL     1     -24.544 -21.682  -6.694  1.00  0.00     0.037 A 
HETATM   20  C   UNL     1     -25.090 -21.635  -7.970  1.00  0.00     0.068 A 
HETATM   21  C   UNL     1     -26.468 -21.521  -8.114  1.00  0.00     0.037 A 
HETATM   22  C   UNL     1     -27.292 -21.449  -6.988  1.00  0.00     0.014 A 
BRANCH  20  23
HETATM   23  O   UNL     1     -24.257 -21.721  -9.055  1.00  0.00    -0.356 OA
HETATM   24  C   UNL     1     -24.580 -22.555 -10.174  1.00  0.00     0.210 C 
ENDBRANCH  20  23
ENDBRANCH  16  17
ENDBRANCH   2  16
TORSDOF 3
ENDMDL
MODEL 19
REMARK VINA RESULT:    -7.428      6.363      8.111
REMARK INTER + INTRA:          -8.599
REMARK INTER:                  -7.931
REMARK INTRA:                  -0.668
REMARK UNBOUND:                 0.131
REMARK  3 active torsions:
REMARK  status: ('A' for Active; 'I' for Inactive)
REMARK    1  A    between atoms: C_2  and  C_3 
REMARK    2  A    between atoms: C_3  and  C_20 
REMARK    3  A    between atoms: C_22  and  O_23 
ROOT
HETATM    1  C   UNL     1     -29.458 -14.678  -3.962  1.00  0.00     0.260 C 
HETATM    2  C   UNL     1     -28.735 -16.900  -4.274  1.00  0.00     0.106 C 
HETATM    3  C   UNL     1     -27.285 -16.748  -4.489  1.00  0.00     0.273 C 
HETATM    4  C   UNL     1     -26.591 -13.509  -1.076  1.00  0.00     0.002 A 
HETATM    5  O   UNL     1     -26.602 -17.660  -4.962  1.00  0.00    -0.266 OA
HETATM    6  N   UNL     1     -26.620 -15.699  -3.990  1.00  0.00    -0.321 N 
ATOM      7  HN  UNL     1     -25.666 -15.556  -4.325  1.00  0.00     0.169 HD
HETATM    8  C   UNL     1     -27.099 -14.790  -3.063  1.00  0.00     0.050 A 
HETATM    9  C   UNL     1     -28.407 -14.342  -2.959  1.00  0.00     0.059 A 
HETATM   10  C   UNL     1     -26.206 -14.363  -2.098  1.00  0.00     0.030 A 
HETATM   11  C   UNL     1     -27.893 -13.073  -0.996  1.00  0.00     0.001 A 
HETATM   12  C   UNL     1     -28.801 -13.479  -1.948  1.00  0.00     0.019 A 
HETATM   13  N   UNL     1     -29.556 -15.876  -4.523  1.00  0.00    -0.313 N 
HETATM   14  C   UNL     1     -30.547 -16.076  -5.575  1.00  0.00     0.160 C 
HETATM   15  O   UNL     1     -30.209 -13.748  -4.303  1.00  0.00    -0.267 OA
ENDROOT
BRANCH   2  16
HETATM   16  C   UNL     1     -29.149 -18.101  -3.788  1.00  0.00     0.046 C 
BRANCH  16  17
HETATM   17  C   UNL     1     -29.666 -18.410  -2.414  1.00  0.00    -0.034 A 
HETATM   18  C   UNL     1     -29.270 -19.581  -1.785  1.00  0.00     0.014 A 
HETATM   19  C   UNL     1     -29.757 -19.932  -0.524  1.00  0.00     0.037 A 
HETATM   20  C   UNL     1     -30.630 -19.085   0.147  1.00  0.00     0.068 A 
HETATM   21  C   UNL     1     -31.004 -17.886  -0.448  1.00  0.00     0.037 A 
HETATM   22  C   UNL     1     -30.510 -17.540  -1.708  1.00  0.00     0.014 A 
BRANCH  20  23
HETATM   23  O   UNL     1     -31.087 -19.447   1.388  1.00  0.00    -0.356 OA
HETATM   24  C   UNL     1     -32.461 -19.273   1.753  1.00  0.00     0.210 C 
ENDBRANCH  20  23
ENDBRANCH  16  17
ENDBRANCH   2  16
TORSDOF 3
ENDMDL
MODEL 20
REMARK VINA RESULT:    -7.415      4.618      6.362
REMARK INTER + INTRA:          -8.584
REMARK INTER:                  -8.140
REMARK INTRA:                  -0.444
REMARK UNBOUND:                 0.131
REMARK  3 active torsions:
REMARK  status: ('A' for Active; 'I' for Inactive)
REMARK    1  A    between atoms: C_2  and  C_3 
REMARK    2  A    between atoms: C_3  and  C_20 
REMARK    3  A    between atoms: C_22  and  O_23 
ROOT
HETATM    1  C   UNL     1     -29.990 -16.978  -1.809  1.00  0.00     0.260 C 
HETATM    2  C   UNL     1     -29.365 -19.102  -2.618  1.00  0.00     0.106 C 
HETATM    3  C   UNL     1     -29.813 -19.065  -4.021  1.00  0.00     0.273 C 
HETATM    4  C   UNL     1     -28.336 -14.634  -4.921  1.00  0.00     0.002 A 
HETATM    5  O   UNL     1     -29.912 -20.093  -4.697  1.00  0.00    -0.266 OA
HETATM    6  N   UNL     1     -29.928 -17.904  -4.679  1.00  0.00    -0.321 N 
ATOM      7  HN  UNL     1     -30.413 -17.929  -5.576  1.00  0.00     0.169 HD
HETATM    8  C   UNL     1     -29.453 -16.674  -4.259  1.00  0.00     0.050 A 
HETATM    9  C   UNL     1     -29.391 -16.225  -2.949  1.00  0.00     0.059 A 
HETATM   10  C   UNL     1     -28.907 -15.858  -5.234  1.00  0.00     0.030 A 
HETATM   11  C   UNL     1     -28.291 -14.207  -3.615  1.00  0.00     0.001 A 
HETATM   12  C   UNL     1     -28.832 -14.998  -2.626  1.00  0.00     0.019 A 
HETATM   13  N   UNL     1     -29.937 -18.300  -1.716  1.00  0.00    -0.313 N 
HETATM   14  C   UNL     1     -30.648 -18.952  -0.621  1.00  0.00     0.160 C 
HETATM   15  O   UNL     1     -30.610 -16.301  -0.971  1.00  0.00    -0.267 OA
ENDROOT
BRANCH   2  16
HETATM   16  C   UNL     1     -28.342 -19.953  -2.334  1.00  0.00     0.046 C 
BRANCH  16  17
HETATM   17  C   UNL     1     -27.119 -20.231  -3.157  1.00  0.00    -0.034 A 
HETATM   18  C   UNL     1     -26.652 -21.532  -3.265  1.00  0.00     0.014 A 
HETATM   19  C   UNL     1     -25.494 -21.833  -3.985  1.00  0.00     0.037 A 
HETATM   20  C   UNL     1     -24.801 -20.827  -4.645  1.00  0.00     0.068 A 
HETATM   21  C   UNL     1     -25.279 -19.522  -4.586  1.00  0.00     0.037 A 
HETATM   22  C   UNL     1     -26.439 -19.228  -3.866  1.00  0.00     0.014 A 
BRANCH  20  23
HETATM   23  O   UNL     1     -23.673 -21.149  -5.354  1.00  0.00    -0.356 OA
HETATM   24  C   UNL     1     -23.656 -21.099  -6.785  1.00  0.00     0.210 C 
ENDBRANCH  20  23
ENDBRANCH  16  17
ENDBRANCH   2  16
TORSDOF 3
ENDMDL
