MODEL 1
REMARK VINA RESULT:    -9.831      0.000      0.000
REMARK INTER + INTRA:         -15.226
REMARK INTER:                 -13.854
REMARK INTRA:                  -1.372
REMARK UNBOUND:                -1.372
REMARK  7 active torsions:
REMARK  status: ('A' for Active; 'I' for Inactive)
REMARK    1  A    between atoms: N_1  and  C_3 
REMARK       I    between atoms: N_1  and  C_13 
REMARK    2  A    between atoms: C_3  and  C_4 
REMARK    3  A    between atoms: C_6  and  N_7 
REMARK    4  A    between atoms: C_13  and  C_15 
REMARK    5  A    between atoms: C_21  and  O_22 
REMARK    6  A    between atoms: O_22  and  C_23 
REMARK    7  A    between atoms: C_23  and  C_24 
ROOT
HETATM    1  N   UNL     1      82.863   8.922  66.778  1.00  0.00    -0.353 N 
ATOM      2  HN  UNL     1      83.335   8.622  65.925  1.00  0.00     0.163 HD
HETATM    3  C   UNL     1      83.068  10.158  67.236  1.00  0.00     0.254 C 
HETATM    4  O   UNL     1      82.495  10.588  68.234  1.00  0.00    -0.268 OA
ENDROOT
BRANCH   3   5
HETATM    5  C   UNL     1      84.018  11.015  66.462  1.00  0.00     0.065 A 
HETATM    6  C   UNL     1      85.377  10.742  66.285  1.00  0.00     0.088 A 
HETATM    7  C   UNL     1      86.167  11.520  65.458  1.00  0.00     0.080 A 
HETATM    8  C   UNL     1      85.579  12.602  64.848  1.00  0.00     0.119 A 
HETATM    9  F   UNL     1      86.351  13.384  64.056  1.00  0.00    -0.206 F 
HETATM   10  C   UNL     1      84.267  12.940  65.017  1.00  0.00     0.043 A 
HETATM   11  C   UNL     1      83.486  12.137  65.825  1.00  0.00     0.023 A 
BRANCH   6  12
HETATM   12  O   UNL     1      85.898   9.704  67.019  1.00  0.00    -0.340 OA
BRANCH  12  13
HETATM   13  C   UNL     1      86.572   8.711  66.261  1.00  0.00     0.288 C 
BRANCH  13  14
HETATM   14  C   UNL     1      85.605   7.610  65.901  1.00  0.00     0.198 C 
HETATM   15  O   UNL     1      85.005   7.614  64.832  1.00  0.00    -0.646 OA
HETATM   16  O   UNL     1      85.396   6.755  66.858  1.00  0.00    -0.646 OA
ENDBRANCH  13  14
ENDBRANCH  12  13
ENDBRANCH   6  12
ENDBRANCH   3   5
BRANCH   1  17
HETATM   17  C   UNL     1      81.982   7.992  67.466  1.00  0.00     0.161 C 
BRANCH  17  18
HETATM   18  C   UNL     1      80.961   7.328  66.579  1.00  0.00    -0.038 A 
HETATM   19  C   UNL     1      80.102   6.384  67.126  1.00  0.00     0.045 A 
HETATM   20  C   UNL     1      79.171   5.778  66.314  1.00  0.00     0.103 A 
HETATM   21  C   UNL     1      79.046   6.068  64.970  1.00  0.00     0.036 A 
HETATM   22  C   UNL     1      79.898   7.017  64.435  1.00  0.00     0.003 A 
HETATM   23  C   UNL     1      80.848   7.637  65.232  1.00  0.00     0.009 A 
BRANCH  20  24
HETATM   24  N   UNL     1      78.318   4.752  66.900  1.00  0.00    -0.116 N 
HETATM   25  O   UNL     1      78.305   4.640  68.119  1.00  0.00    -0.532 OA
HETATM   26  O   UNL     1      77.652   4.054  66.153  1.00  0.00    -0.532 OA
ENDBRANCH  20  24
ENDBRANCH  17  18
ENDBRANCH   1  17
TORSDOF 7
ENDMDL
MODEL 2
REMARK VINA RESULT:    -9.380      1.247      1.482
REMARK INTER + INTRA:         -14.591
REMARK INTER:                 -13.180
REMARK INTRA:                  -1.411
REMARK UNBOUND:                -1.372
REMARK  7 active torsions:
REMARK  status: ('A' for Active; 'I' for Inactive)
REMARK    1  A    between atoms: N_1  and  C_3 
REMARK       I    between atoms: N_1  and  C_13 
REMARK    2  A    between atoms: C_3  and  C_4 
REMARK    3  A    between atoms: C_6  and  N_7 
REMARK    4  A    between atoms: C_13  and  C_15 
REMARK    5  A    between atoms: C_21  and  O_22 
REMARK    6  A    between atoms: O_22  and  C_23 
REMARK    7  A    between atoms: C_23  and  C_24 
ROOT
HETATM    1  N   UNL     1      82.481   8.826  67.507  1.00  0.00    -0.353 N 
ATOM      2  HN  UNL     1      83.097   8.817  66.695  1.00  0.00     0.163 HD
HETATM    3  C   UNL     1      82.391   9.932  68.246  1.00  0.00     0.254 C 
HETATM    4  O   UNL     1      81.635  10.014  69.210  1.00  0.00    -0.268 OA
ENDROOT
BRANCH   3   5
HETATM    5  C   UNL     1      83.243  11.090  67.833  1.00  0.00     0.065 A 
HETATM    6  C   UNL     1      84.556  10.988  67.364  1.00  0.00     0.088 A 
HETATM    7  C   UNL     1      85.241  12.092  66.891  1.00  0.00     0.080 A 
HETATM    8  C   UNL     1      84.600  13.307  66.937  1.00  0.00     0.119 A 
HETATM    9  F   UNL     1      85.271  14.398  66.499  1.00  0.00    -0.206 F 
HETATM   10  C   UNL     1      83.335  13.473  67.423  1.00  0.00     0.043 A 
HETATM   11  C   UNL     1      82.655  12.355  67.867  1.00  0.00     0.023 A 
BRANCH   6  12
HETATM   12  O   UNL     1      85.149   9.752  67.457  1.00  0.00    -0.340 OA
BRANCH  12  13
HETATM   13  C   UNL     1      86.044   9.435  66.401  1.00  0.00     0.288 C 
BRANCH  13  14
HETATM   14  C   UNL     1      85.608   8.152  65.739  1.00  0.00     0.198 C 
HETATM   15  O   UNL     1      84.447   7.981  65.386  1.00  0.00    -0.646 OA
HETATM   16  O   UNL     1      86.532   7.239  65.693  1.00  0.00    -0.646 OA
ENDBRANCH  13  14
ENDBRANCH  12  13
ENDBRANCH   6  12
ENDBRANCH   3   5
BRANCH   1  17
HETATM   17  C   UNL     1      81.719   7.630  67.833  1.00  0.00     0.161 C 
BRANCH  17  18
HETATM   18  C   UNL     1      80.820   7.142  66.726  1.00  0.00    -0.038 A 
HETATM   19  C   UNL     1      79.899   6.139  66.996  1.00  0.00     0.045 A 
HETATM   20  C   UNL     1      79.079   5.695  65.983  1.00  0.00     0.103 A 
HETATM   21  C   UNL     1      79.128   6.206  64.701  1.00  0.00     0.036 A 
HETATM   22  C   UNL     1      80.040   7.212  64.443  1.00  0.00     0.003 A 
HETATM   23  C   UNL     1      80.880   7.671  65.446  1.00  0.00     0.009 A 
BRANCH  20  24
HETATM   24  N   UNL     1      78.159   4.605  66.278  1.00  0.00    -0.116 N 
HETATM   25  O   UNL     1      77.618   4.036  65.339  1.00  0.00    -0.532 OA
HETATM   26  O   UNL     1      77.974   4.302  67.445  1.00  0.00    -0.532 OA
ENDBRANCH  20  24
ENDBRANCH  17  18
ENDBRANCH   1  17
TORSDOF 7
ENDMDL
MODEL 3
REMARK VINA RESULT:    -8.990      1.350      2.986
REMARK INTER + INTRA:         -14.040
REMARK INTER:                 -12.744
REMARK INTRA:                  -1.296
REMARK UNBOUND:                -1.372
REMARK  7 active torsions:
REMARK  status: ('A' for Active; 'I' for Inactive)
REMARK    1  A    between atoms: N_1  and  C_3 
REMARK       I    between atoms: N_1  and  C_13 
REMARK    2  A    between atoms: C_3  and  C_4 
REMARK    3  A    between atoms: C_6  and  N_7 
REMARK    4  A    between atoms: C_13  and  C_15 
REMARK    5  A    between atoms: C_21  and  O_22 
REMARK    6  A    between atoms: O_22  and  C_23 
REMARK    7  A    between atoms: C_23  and  C_24 
ROOT
HETATM    1  N   UNL     1      82.824   9.001  66.948  1.00  0.00    -0.353 N 
ATOM      2  HN  UNL     1      82.378   9.594  66.248  1.00  0.00     0.163 HD
HETATM    3  C   UNL     1      84.086   9.248  67.304  1.00  0.00     0.254 C 
HETATM    4  O   UNL     1      84.660   8.595  68.170  1.00  0.00    -0.268 OA
ENDROOT
BRANCH   3   5
HETATM    5  C   UNL     1      84.771  10.383  66.610  1.00  0.00     0.065 A 
HETATM    6  C   UNL     1      84.716  11.719  67.018  1.00  0.00     0.088 A 
HETATM    7  C   UNL     1      85.470  12.695  66.394  1.00  0.00     0.080 A 
HETATM    8  C   UNL     1      86.249  12.314  65.327  1.00  0.00     0.119 A 
HETATM    9  F   UNL     1      86.973  13.268  64.695  1.00  0.00    -0.206 F 
HETATM   10  C   UNL     1      86.311  11.033  64.860  1.00  0.00     0.043 A 
HETATM   11  C   UNL     1      85.570  10.065  65.511  1.00  0.00     0.023 A 
BRANCH   6  12
HETATM   12  O   UNL     1      83.829  12.019  68.023  1.00  0.00    -0.340 OA
BRANCH  12  13
HETATM   13  C   UNL     1      82.687  12.758  67.615  1.00  0.00     0.288 C 
BRANCH  13  14
HETATM   14  C   UNL     1      81.441  12.096  68.148  1.00  0.00     0.198 C 
HETATM   15  O   UNL     1      80.326  12.524  67.876  1.00  0.00    -0.646 OA
HETATM   16  O   UNL     1      81.673  11.132  68.990  1.00  0.00    -0.646 OA
ENDBRANCH  13  14
ENDBRANCH  12  13
ENDBRANCH   6  12
ENDBRANCH   3   5
BRANCH   1  17
HETATM   17  C   UNL     1      82.069   7.906  67.536  1.00  0.00     0.161 C 
BRANCH  17  18
HETATM   18  C   UNL     1      81.032   7.303  66.624  1.00  0.00    -0.038 A 
HETATM   19  C   UNL     1      80.123   6.391  67.144  1.00  0.00     0.045 A 
HETATM   20  C   UNL     1      79.177   5.842  66.309  1.00  0.00     0.103 A 
HETATM   21  C   UNL     1      79.085   6.160  64.968  1.00  0.00     0.036 A 
HETATM   22  C   UNL     1      79.986   7.077  64.460  1.00  0.00     0.003 A 
HETATM   23  C   UNL     1      80.952   7.639  65.281  1.00  0.00     0.009 A 
BRANCH  20  24
HETATM   24  N   UNL     1      78.270   4.847  66.866  1.00  0.00    -0.116 N 
HETATM   25  O   UNL     1      77.812   3.998  66.113  1.00  0.00    -0.532 OA
HETATM   26  O   UNL     1      78.011   4.900  68.057  1.00  0.00    -0.532 OA
ENDBRANCH  20  24
ENDBRANCH  17  18
ENDBRANCH   1  17
TORSDOF 7
ENDMDL
MODEL 4
REMARK VINA RESULT:    -8.892      1.923      2.565
REMARK INTER + INTRA:         -13.904
REMARK INTER:                 -12.543
REMARK INTRA:                  -1.361
REMARK UNBOUND:                -1.372
REMARK  7 active torsions:
REMARK  status: ('A' for Active; 'I' for Inactive)
REMARK    1  A    between atoms: N_1  and  C_3 
REMARK       I    between atoms: N_1  and  C_13 
REMARK    2  A    between atoms: C_3  and  C_4 
REMARK    3  A    between atoms: C_6  and  N_7 
REMARK    4  A    between atoms: C_13  and  C_15 
REMARK    5  A    between atoms: C_21  and  O_22 
REMARK    6  A    between atoms: O_22  and  C_23 
REMARK    7  A    between atoms: C_23  and  C_24 
ROOT
HETATM    1  N   UNL     1      82.200   9.415  67.224  1.00  0.00    -0.353 N 
ATOM      2  HN  UNL     1      82.589   9.776  66.352  1.00  0.00     0.163 HD
HETATM    3  C   UNL     1      81.817  10.273  68.171  1.00  0.00     0.254 C 
HETATM    4  O   UNL     1      81.304   9.900  69.222  1.00  0.00    -0.268 OA
ENDROOT
BRANCH   3   5
HETATM    5  C   UNL     1      82.019  11.727  67.885  1.00  0.00     0.065 A 
HETATM    6  C   UNL     1      83.242  12.311  67.538  1.00  0.00     0.088 A 
HETATM    7  C   UNL     1      83.328  13.642  67.175  1.00  0.00     0.080 A 
HETATM    8  C   UNL     1      82.174  14.387  67.207  1.00  0.00     0.119 A 
HETATM    9  F   UNL     1      82.253  15.699  66.876  1.00  0.00    -0.206 F 
HETATM   10  C   UNL     1      80.961  13.882  67.577  1.00  0.00     0.043 A 
HETATM   11  C   UNL     1      80.887  12.543  67.912  1.00  0.00     0.023 A 
BRANCH   6  12
HETATM   12  O   UNL     1      84.355  11.512  67.638  1.00  0.00    -0.340 OA
BRANCH  12  13
HETATM   13  C   UNL     1      85.371  11.776  66.681  1.00  0.00     0.288 C 
BRANCH  13  14
HETATM   14  C   UNL     1      85.710  10.505  65.943  1.00  0.00     0.198 C 
HETATM   15  O   UNL     1      86.850  10.278  65.556  1.00  0.00    -0.646 OA
HETATM   16  O   UNL     1      84.679   9.762  65.668  1.00  0.00    -0.646 OA
ENDBRANCH  13  14
ENDBRANCH  12  13
ENDBRANCH   6  12
ENDBRANCH   3   5
BRANCH   1  17
HETATM   17  C   UNL     1      82.076   7.978  67.405  1.00  0.00     0.161 C 
BRANCH  17  18
HETATM   18  C   UNL     1      81.016   7.330  66.552  1.00  0.00    -0.038 A 
HETATM   19  C   UNL     1      80.154   6.407  67.129  1.00  0.00     0.045 A 
HETATM   20  C   UNL     1      79.187   5.817  66.348  1.00  0.00     0.103 A 
HETATM   21  C   UNL     1      79.029   6.103  65.007  1.00  0.00     0.036 A 
HETATM   22  C   UNL     1      79.884   7.032  64.441  1.00  0.00     0.003 A 
HETATM   23  C   UNL     1      80.870   7.635  65.208  1.00  0.00     0.009 A 
BRANCH  20  24
HETATM   24  N   UNL     1      78.331   4.812  66.965  1.00  0.00    -0.116 N 
HETATM   25  O   UNL     1      78.209   4.827  68.183  1.00  0.00    -0.532 OA
HETATM   26  O   UNL     1      77.771   4.004  66.242  1.00  0.00    -0.532 OA
ENDBRANCH  20  24
ENDBRANCH  17  18
ENDBRANCH   1  17
TORSDOF 7
ENDMDL
MODEL 5
REMARK VINA RESULT:    -8.678      1.580      3.367
REMARK INTER + INTRA:         -13.601
REMARK INTER:                 -12.243
REMARK INTRA:                  -1.358
REMARK UNBOUND:                -1.372
REMARK  7 active torsions:
REMARK  status: ('A' for Active; 'I' for Inactive)
REMARK    1  A    between atoms: N_1  and  C_3 
REMARK       I    between atoms: N_1  and  C_13 
REMARK    2  A    between atoms: C_3  and  C_4 
REMARK    3  A    between atoms: C_6  and  N_7 
REMARK    4  A    between atoms: C_13  and  C_15 
REMARK    5  A    between atoms: C_21  and  O_22 
REMARK    6  A    between atoms: O_22  and  C_23 
REMARK    7  A    between atoms: C_23  and  C_24 
ROOT
HETATM    1  N   UNL     1      82.220   9.360  66.988  1.00  0.00    -0.353 N 
ATOM      2  HN  UNL     1      81.428  10.001  66.936  1.00  0.00     0.163 HD
HETATM    3  C   UNL     1      83.447   9.819  66.734  1.00  0.00     0.254 C 
HETATM    4  O   UNL     1      84.441   9.104  66.822  1.00  0.00    -0.268 OA
ENDROOT
BRANCH   3   5
HETATM    5  C   UNL     1      83.563  11.261  66.357  1.00  0.00     0.065 A 
HETATM    6  C   UNL     1      83.364  12.334  67.232  1.00  0.00     0.088 A 
HETATM    7  C   UNL     1      83.603  13.638  66.839  1.00  0.00     0.080 A 
HETATM    8  C   UNL     1      84.004  13.849  65.542  1.00  0.00     0.119 A 
HETATM    9  F   UNL     1      84.217  15.126  65.141  1.00  0.00    -0.206 F 
HETATM   10  C   UNL     1      84.174  12.845  64.633  1.00  0.00     0.043 A 
HETATM   11  C   UNL     1      83.956  11.546  65.049  1.00  0.00     0.023 A 
BRANCH   6  12
HETATM   12  O   UNL     1      82.860  12.031  68.473  1.00  0.00    -0.340 OA
BRANCH  12  13
HETATM   13  C   UNL     1      81.515  12.431  68.690  1.00  0.00     0.288 C 
BRANCH  13  14
HETATM   14  C   UNL     1      80.857  11.483  69.660  1.00  0.00     0.198 C 
HETATM   15  O   UNL     1      81.209  10.312  69.744  1.00  0.00    -0.646 OA
HETATM   16  O   UNL     1      79.838  11.991  70.288  1.00  0.00    -0.646 OA
ENDBRANCH  13  14
ENDBRANCH  12  13
ENDBRANCH   6  12
ENDBRANCH   3   5
BRANCH   1  17
HETATM   17  C   UNL     1      81.985   7.968  67.336  1.00  0.00     0.161 C 
BRANCH  17  18
HETATM   18  C   UNL     1      80.942   7.281  66.492  1.00  0.00    -0.038 A 
HETATM   19  C   UNL     1      80.098   6.351  67.085  1.00  0.00     0.045 A 
HETATM   20  C   UNL     1      79.147   5.725  66.312  1.00  0.00     0.103 A 
HETATM   21  C   UNL     1      78.989   5.981  64.965  1.00  0.00     0.036 A 
HETATM   22  C   UNL     1      79.826   6.915  64.384  1.00  0.00     0.003 A 
HETATM   23  C   UNL     1      80.795   7.555  65.141  1.00  0.00     0.009 A 
BRANCH  20  24
HETATM   24  N   UNL     1      78.311   4.714  66.946  1.00  0.00    -0.116 N 
HETATM   25  O   UNL     1      77.694   3.941  66.224  1.00  0.00    -0.532 OA
HETATM   26  O   UNL     1      78.265   4.679  68.164  1.00  0.00    -0.532 OA
ENDBRANCH  20  24
ENDBRANCH  17  18
ENDBRANCH   1  17
TORSDOF 7
ENDMDL
MODEL 6
REMARK VINA RESULT:    -8.531      2.834      3.960
REMARK INTER + INTRA:         -13.394
REMARK INTER:                 -12.027
REMARK INTRA:                  -1.367
REMARK UNBOUND:                -1.372
REMARK  7 active torsions:
REMARK  status: ('A' for Active; 'I' for Inactive)
REMARK    1  A    between atoms: N_1  and  C_3 
REMARK       I    between atoms: N_1  and  C_13 
REMARK    2  A    between atoms: C_3  and  C_4 
REMARK    3  A    between atoms: C_6  and  N_7 
REMARK    4  A    between atoms: C_13  and  C_15 
REMARK    5  A    between atoms: C_21  and  O_22 
REMARK    6  A    between atoms: O_22  and  C_23 
REMARK    7  A    between atoms: C_23  and  C_24 
ROOT
HETATM    1  N   UNL     1      81.823   9.261  67.232  1.00  0.00    -0.353 N 
ATOM      2  HN  UNL     1      81.516  10.017  66.620  1.00  0.00     0.163 HD
HETATM    3  C   UNL     1      81.944   9.490  68.541  1.00  0.00     0.254 C 
HETATM    4  O   UNL     1      82.268   8.607  69.331  1.00  0.00    -0.268 OA
ENDROOT
BRANCH   3   5
HETATM    5  C   UNL     1      81.641  10.876  69.013  1.00  0.00     0.065 A 
HETATM    6  C   UNL     1      82.258  12.035  68.536  1.00  0.00     0.088 A 
HETATM    7  C   UNL     1      81.843  13.291  68.938  1.00  0.00     0.080 A 
HETATM    8  C   UNL     1      80.826  13.361  69.860  1.00  0.00     0.119 A 
HETATM    9  F   UNL     1      80.429  14.587  70.278  1.00  0.00    -0.206 F 
HETATM   10  C   UNL     1      80.215  12.263  70.391  1.00  0.00     0.043 A 
HETATM   11  C   UNL     1      80.624  11.016  69.959  1.00  0.00     0.023 A 
BRANCH   6  12
HETATM   12  O   UNL     1      83.335  11.860  67.700  1.00  0.00    -0.340 OA
BRANCH  12  13
HETATM   13  C   UNL     1      83.360  12.716  66.567  1.00  0.00     0.288 C 
BRANCH  13  14
HETATM   14  C   UNL     1      83.878  11.955  65.373  1.00  0.00     0.198 C 
HETATM   15  O   UNL     1      83.643  10.761  65.228  1.00  0.00    -0.646 OA
HETATM   16  O   UNL     1      84.669  12.647  64.606  1.00  0.00    -0.646 OA
ENDBRANCH  13  14
ENDBRANCH  12  13
ENDBRANCH   6  12
ENDBRANCH   3   5
BRANCH   1  17
HETATM   17  C   UNL     1      82.119   7.958  66.657  1.00  0.00     0.161 C 
BRANCH  17  18
HETATM   18  C   UNL     1      80.932   7.264  66.041  1.00  0.00    -0.038 A 
HETATM   19  C   UNL     1      80.177   6.397  66.820  1.00  0.00     0.045 A 
HETATM   20  C   UNL     1      79.093   5.764  66.256  1.00  0.00     0.103 A 
HETATM   21  C   UNL     1      78.716   5.953  64.941  1.00  0.00     0.036 A 
HETATM   22  C   UNL     1      79.467   6.825  64.174  1.00  0.00     0.003 A 
HETATM   23  C   UNL     1      80.566   7.471  64.721  1.00  0.00     0.009 A 
BRANCH  20  24
HETATM   24  N   UNL     1      78.350   4.818  67.078  1.00  0.00    -0.116 N 
HETATM   25  O   UNL     1      77.759   3.905  66.516  1.00  0.00    -0.532 OA
HETATM   26  O   UNL     1      78.355   4.973  68.288  1.00  0.00    -0.532 OA
ENDBRANCH  20  24
ENDBRANCH  17  18
ENDBRANCH   1  17
TORSDOF 7
ENDMDL
MODEL 7
REMARK VINA RESULT:    -8.472      1.922      3.529
REMARK INTER + INTRA:         -13.311
REMARK INTER:                 -12.739
REMARK INTRA:                  -0.572
REMARK UNBOUND:                -1.372
REMARK  7 active torsions:
REMARK  status: ('A' for Active; 'I' for Inactive)
REMARK    1  A    between atoms: N_1  and  C_3 
REMARK       I    between atoms: N_1  and  C_13 
REMARK    2  A    between atoms: C_3  and  C_4 
REMARK    3  A    between atoms: C_6  and  N_7 
REMARK    4  A    between atoms: C_13  and  C_15 
REMARK    5  A    between atoms: C_21  and  O_22 
REMARK    6  A    between atoms: O_22  and  C_23 
REMARK    7  A    between atoms: C_23  and  C_24 
ROOT
HETATM    1  N   UNL     1      82.892   8.839  66.669  1.00  0.00    -0.353 N 
ATOM      2  HN  UNL     1      83.324   8.416  65.847  1.00  0.00     0.163 HD
HETATM    3  C   UNL     1      83.260  10.066  67.040  1.00  0.00     0.254 C 
HETATM    4  O   UNL     1      82.745  10.641  67.995  1.00  0.00    -0.268 OA
ENDROOT
BRANCH   3   5
HETATM    5  C   UNL     1      84.321  10.729  66.221  1.00  0.00     0.065 A 
HETATM    6  C   UNL     1      84.298  12.066  65.814  1.00  0.00     0.088 A 
HETATM    7  C   UNL     1      85.371  12.638  65.157  1.00  0.00     0.080 A 
HETATM    8  C   UNL     1      86.450  11.834  64.877  1.00  0.00     0.119 A 
HETATM    9  F   UNL     1      87.496  12.380  64.212  1.00  0.00    -0.206 F 
HETATM   10  C   UNL     1      86.510  10.512  65.213  1.00  0.00     0.043 A 
HETATM   11  C   UNL     1      85.440   9.962  65.892  1.00  0.00     0.023 A 
BRANCH   6  12
HETATM   12  O   UNL     1      83.135  12.759  66.044  1.00  0.00    -0.340 OA
BRANCH  12  13
HETATM   13  C   UNL     1      83.282  13.939  66.821  1.00  0.00     0.288 C 
BRANCH  13  14
HETATM   14  C   UNL     1      82.721  15.115  66.063  1.00  0.00     0.198 C 
HETATM   15  O   UNL     1      82.292  16.104  66.648  1.00  0.00    -0.646 OA
HETATM   16  O   UNL     1      82.632  14.925  64.780  1.00  0.00    -0.646 OA
ENDBRANCH  13  14
ENDBRANCH  12  13
ENDBRANCH   6  12
ENDBRANCH   3   5
BRANCH   1  17
HETATM   17  C   UNL     1      81.890   8.089  67.409  1.00  0.00     0.161 C 
BRANCH  17  18
HETATM   18  C   UNL     1      80.887   7.368  66.545  1.00  0.00    -0.038 A 
HETATM   19  C   UNL     1      80.049   6.425  67.125  1.00  0.00     0.045 A 
HETATM   20  C   UNL     1      79.135   5.767  66.335  1.00  0.00     0.103 A 
HETATM   21  C   UNL     1      79.007   6.005  64.981  1.00  0.00     0.036 A 
HETATM   22  C   UNL     1      79.837   6.953  64.412  1.00  0.00     0.003 A 
HETATM   23  C   UNL     1      80.770   7.624  65.188  1.00  0.00     0.009 A 
BRANCH  20  24
HETATM   24  N   UNL     1      78.305   4.744  66.957  1.00  0.00    -0.116 N 
HETATM   25  O   UNL     1      78.187   4.759  68.175  1.00  0.00    -0.532 OA
HETATM   26  O   UNL     1      77.762   3.922  66.238  1.00  0.00    -0.532 OA
ENDBRANCH  20  24
ENDBRANCH  17  18
ENDBRANCH   1  17
TORSDOF 7
ENDMDL
MODEL 8
REMARK VINA RESULT:    -8.340      3.251      5.010
REMARK INTER + INTRA:         -13.124
REMARK INTER:                 -12.241
REMARK INTRA:                  -0.884
REMARK UNBOUND:                -1.372
REMARK  7 active torsions:
REMARK  status: ('A' for Active; 'I' for Inactive)
REMARK    1  A    between atoms: N_1  and  C_3 
REMARK       I    between atoms: N_1  and  C_13 
REMARK    2  A    between atoms: C_3  and  C_4 
REMARK    3  A    between atoms: C_6  and  N_7 
REMARK    4  A    between atoms: C_13  and  C_15 
REMARK    5  A    between atoms: C_21  and  O_22 
REMARK    6  A    between atoms: O_22  and  C_23 
REMARK    7  A    between atoms: C_23  and  C_24 
ROOT
HETATM    1  N   UNL     1      81.979   9.549  67.221  1.00  0.00    -0.353 N 
ATOM      2  HN  UNL     1      82.148  10.062  66.356  1.00  0.00     0.163 HD
HETATM    3  C   UNL     1      81.668  10.223  68.329  1.00  0.00     0.254 C 
HETATM    4  O   UNL     1      81.413   9.657  69.388  1.00  0.00    -0.268 OA
ENDROOT
BRANCH   3   5
HETATM    5  C   UNL     1      81.621  11.714  68.220  1.00  0.00     0.065 A 
HETATM    6  C   UNL     1      80.452  12.480  68.251  1.00  0.00     0.088 A 
HETATM    7  C   UNL     1      80.496  13.862  68.261  1.00  0.00     0.080 A 
HETATM    8  C   UNL     1      81.731  14.461  68.197  1.00  0.00     0.119 A 
HETATM    9  F   UNL     1      81.782  15.815  68.182  1.00  0.00    -0.206 F 
HETATM   10  C   UNL     1      82.902  13.764  68.123  1.00  0.00     0.043 A 
HETATM   11  C   UNL     1      82.842  12.384  68.140  1.00  0.00     0.023 A 
BRANCH   6  12
HETATM   12  O   UNL     1      79.263  11.792  68.206  1.00  0.00    -0.340 OA
BRANCH  12  13
HETATM   13  C   UNL     1      78.145  12.492  68.731  1.00  0.00     0.288 C 
BRANCH  13  14
HETATM   14  C   UNL     1      77.687  11.828  70.004  1.00  0.00     0.198 C 
HETATM   15  O   UNL     1      76.529  11.451  70.146  1.00  0.00    -0.646 OA
HETATM   16  O   UNL     1      78.586  11.806  70.943  1.00  0.00    -0.646 OA
ENDBRANCH  13  14
ENDBRANCH  12  13
ENDBRANCH   6  12
ENDBRANCH   3   5
BRANCH   1  17
HETATM   17  C   UNL     1      82.081   8.098  67.217  1.00  0.00     0.161 C 
BRANCH  17  18
HETATM   18  C   UNL     1      81.016   7.399  66.412  1.00  0.00    -0.038 A 
HETATM   19  C   UNL     1      80.177   6.492  67.045  1.00  0.00     0.045 A 
HETATM   20  C   UNL     1      79.205   5.855  66.308  1.00  0.00     0.103 A 
HETATM   21  C   UNL     1      79.021   6.078  64.958  1.00  0.00     0.036 A 
HETATM   22  C   UNL     1      79.853   6.992  64.337  1.00  0.00     0.003 A 
HETATM   23  C   UNL     1      80.843   7.641  65.058  1.00  0.00     0.009 A 
BRANCH  20  24
HETATM   24  N   UNL     1      78.374   4.867  66.983  1.00  0.00    -0.116 N 
HETATM   25  O   UNL     1      78.294   4.918  68.204  1.00  0.00    -0.532 OA
HETATM   26  O   UNL     1      77.791   4.038  66.304  1.00  0.00    -0.532 OA
ENDBRANCH  20  24
ENDBRANCH  17  18
ENDBRANCH   1  17
TORSDOF 7
ENDMDL
MODEL 9
REMARK VINA RESULT:    -7.691      3.707      5.848
REMARK INTER + INTRA:         -12.210
REMARK INTER:                 -11.102
REMARK INTRA:                  -1.109
REMARK UNBOUND:                -1.372
REMARK  7 active torsions:
REMARK  status: ('A' for Active; 'I' for Inactive)
REMARK    1  A    between atoms: N_1  and  C_3 
REMARK       I    between atoms: N_1  and  C_13 
REMARK    2  A    between atoms: C_3  and  C_4 
REMARK    3  A    between atoms: C_6  and  N_7 
REMARK    4  A    between atoms: C_13  and  C_15 
REMARK    5  A    between atoms: C_21  and  O_22 
REMARK    6  A    between atoms: O_22  and  C_23 
REMARK    7  A    between atoms: C_23  and  C_24 
ROOT
HETATM    1  N   UNL     1      82.568  10.422  68.407  1.00  0.00    -0.353 N 
ATOM      2  HN  UNL     1      83.396  10.891  68.774  1.00  0.00     0.163 HD
HETATM    3  C   UNL     1      82.718   9.421  67.538  1.00  0.00     0.254 C 
HETATM    4  O   UNL     1      81.760   8.793  67.095  1.00  0.00    -0.268 OA
ENDROOT
BRANCH   3   5
HETATM    5  C   UNL     1      84.118   9.078  67.139  1.00  0.00     0.065 A 
HETATM    6  C   UNL     1      85.003   9.952  66.501  1.00  0.00     0.088 A 
HETATM    7  C   UNL     1      86.320   9.601  66.267  1.00  0.00     0.080 A 
HETATM    8  C   UNL     1      86.720   8.342  66.647  1.00  0.00     0.119 A 
HETATM    9  F   UNL     1      88.002   7.981  66.400  1.00  0.00    -0.206 F 
HETATM   10  C   UNL     1      85.889   7.433  67.236  1.00  0.00     0.043 A 
HETATM   11  C   UNL     1      84.584   7.809  67.485  1.00  0.00     0.023 A 
BRANCH   6  12
HETATM   12  O   UNL     1      84.482  11.146  66.063  1.00  0.00    -0.340 OA
BRANCH  12  13
HETATM   13  C   UNL     1      84.915  11.553  64.774  1.00  0.00     0.288 C 
BRANCH  13  14
HETATM   14  C   UNL     1      85.492  12.944  64.852  1.00  0.00     0.198 C 
HETATM   15  O   UNL     1      85.006  13.872  64.217  1.00  0.00    -0.646 OA
HETATM   16  O   UNL     1      86.589  13.024  65.546  1.00  0.00    -0.646 OA
ENDBRANCH  13  14
ENDBRANCH  12  13
ENDBRANCH   6  12
ENDBRANCH   3   5
BRANCH   1  17
HETATM   17  C   UNL     1      81.252  10.859  68.845  1.00  0.00     0.161 C 
BRANCH  17  18
HETATM   18  C   UNL     1      80.781  12.145  68.215  1.00  0.00    -0.038 A 
HETATM   19  C   UNL     1      79.419  12.406  68.148  1.00  0.00     0.045 A 
HETATM   20  C   UNL     1      78.991  13.580  67.573  1.00  0.00     0.103 A 
HETATM   21  C   UNL     1      79.859  14.522  67.057  1.00  0.00     0.036 A 
HETATM   22  C   UNL     1      81.215  14.261  67.137  1.00  0.00     0.003 A 
HETATM   23  C   UNL     1      81.669  13.081  67.708  1.00  0.00     0.009 A 
BRANCH  20  24
HETATM   24  N   UNL     1      77.555  13.804  67.466  1.00  0.00    -0.116 N 
HETATM   25  O   UNL     1      77.167  14.742  66.780  1.00  0.00    -0.532 OA
HETATM   26  O   UNL     1      76.804  13.047  68.058  1.00  0.00    -0.532 OA
ENDBRANCH  20  24
ENDBRANCH  17  18
ENDBRANCH   1  17
TORSDOF 7
ENDMDL
MODEL 10
REMARK VINA RESULT:    -7.525      3.736      5.707
REMARK INTER + INTRA:         -11.977
REMARK INTER:                 -10.595
REMARK INTRA:                  -1.382
REMARK UNBOUND:                -1.372
REMARK  7 active torsions:
REMARK  status: ('A' for Active; 'I' for Inactive)
REMARK    1  A    between atoms: N_1  and  C_3 
REMARK       I    between atoms: N_1  and  C_13 
REMARK    2  A    between atoms: C_3  and  C_4 
REMARK    3  A    between atoms: C_6  and  N_7 
REMARK    4  A    between atoms: C_13  and  C_15 
REMARK    5  A    between atoms: C_21  and  O_22 
REMARK    6  A    between atoms: O_22  and  C_23 
REMARK    7  A    between atoms: C_23  and  C_24 
ROOT
HETATM    1  N   UNL     1      85.023  12.171  64.880  1.00  0.00    -0.353 N 
ATOM      2  HN  UNL     1      84.092  11.782  65.031  1.00  0.00     0.163 HD
HETATM    3  C   UNL     1      85.156  13.483  64.676  1.00  0.00     0.254 C 
HETATM    4  O   UNL     1      86.254  14.013  64.531  1.00  0.00    -0.268 OA
ENDROOT
BRANCH   3   5
HETATM    5  C   UNL     1      83.899  14.293  64.655  1.00  0.00     0.065 A 
HETATM    6  C   UNL     1      83.081  14.529  65.764  1.00  0.00     0.088 A 
HETATM    7  C   UNL     1      81.997  15.384  65.691  1.00  0.00     0.080 A 
HETATM    8  C   UNL     1      81.723  15.964  64.476  1.00  0.00     0.119 A 
HETATM    9  F   UNL     1      80.649  16.785  64.390  1.00  0.00    -0.206 F 
HETATM   10  C   UNL     1      82.462  15.738  63.350  1.00  0.00     0.043 A 
HETATM   11  C   UNL     1      83.557  14.902  63.446  1.00  0.00     0.023 A 
BRANCH   6  12
HETATM   12  O   UNL     1      83.372  13.821  66.905  1.00  0.00    -0.340 OA
BRANCH  12  13
HETATM   13  C   UNL     1      84.262  14.469  67.802  1.00  0.00     0.288 C 
BRANCH  13  14
HETATM   14  C   UNL     1      85.345  13.506  68.221  1.00  0.00     0.198 C 
HETATM   15  O   UNL     1      86.464  13.901  68.529  1.00  0.00    -0.646 OA
HETATM   16  O   UNL     1      85.012  12.254  68.109  1.00  0.00    -0.646 OA
ENDBRANCH  13  14
ENDBRANCH  12  13
ENDBRANCH   6  12
ENDBRANCH   3   5
BRANCH   1  17
HETATM   17  C   UNL     1      86.174  11.283  64.894  1.00  0.00     0.161 C 
BRANCH  17  18
HETATM   18  C   UNL     1      85.932   9.959  65.572  1.00  0.00    -0.038 A 
HETATM   19  C   UNL     1      84.627   9.530  65.772  1.00  0.00     0.045 A 
HETATM   20  C   UNL     1      84.409   8.321  66.392  1.00  0.00     0.103 A 
HETATM   21  C   UNL     1      85.435   7.505  66.826  1.00  0.00     0.036 A 
HETATM   22  C   UNL     1      86.732   7.934  66.613  1.00  0.00     0.003 A 
HETATM   23  C   UNL     1      86.976   9.151  65.995  1.00  0.00     0.009 A 
BRANCH  20  24
HETATM   24  N   UNL     1      83.030   7.920  66.640  1.00  0.00    -0.116 N 
HETATM   25  O   UNL     1      82.265   7.864  65.685  1.00  0.00    -0.532 OA
HETATM   26  O   UNL     1      82.700   7.652  67.783  1.00  0.00    -0.532 OA
ENDBRANCH  20  24
ENDBRANCH  17  18
ENDBRANCH   1  17
TORSDOF 7
ENDMDL
MODEL 11
REMARK VINA RESULT:    -7.463      3.644      6.316
REMARK INTER + INTRA:         -11.890
REMARK INTER:                 -10.509
REMARK INTRA:                  -1.381
REMARK UNBOUND:                -1.372
REMARK  7 active torsions:
REMARK  status: ('A' for Active; 'I' for Inactive)
REMARK    1  A    between atoms: N_1  and  C_3 
REMARK       I    between atoms: N_1  and  C_13 
REMARK    2  A    between atoms: C_3  and  C_4 
REMARK    3  A    between atoms: C_6  and  N_7 
REMARK    4  A    between atoms: C_13  and  C_15 
REMARK    5  A    between atoms: C_21  and  O_22 
REMARK    6  A    between atoms: O_22  and  C_23 
REMARK    7  A    between atoms: C_23  and  C_24 
ROOT
HETATM    1  N   UNL     1      82.542  10.272  68.380  1.00  0.00    -0.353 N 
ATOM      2  HN  UNL     1      83.358  10.763  68.745  1.00  0.00     0.163 HD
HETATM    3  C   UNL     1      82.715   9.276  67.510  1.00  0.00     0.254 C 
HETATM    4  O   UNL     1      81.773   8.623  67.070  1.00  0.00    -0.268 OA
ENDROOT
BRANCH   3   5
HETATM    5  C   UNL     1      84.122   8.970  67.106  1.00  0.00     0.065 A 
HETATM    6  C   UNL     1      85.009   9.891  66.540  1.00  0.00     0.088 A 
HETATM    7  C   UNL     1      86.331   9.565  66.301  1.00  0.00     0.080 A 
HETATM    8  C   UNL     1      86.736   8.286  66.600  1.00  0.00     0.119 A 
HETATM    9  F   UNL     1      88.024   7.951  66.346  1.00  0.00    -0.206 F 
HETATM   10  C   UNL     1      85.904   7.334  67.115  1.00  0.00     0.043 A 
HETATM   11  C   UNL     1      84.593   7.684  67.372  1.00  0.00     0.023 A 
BRANCH   6  12
HETATM   12  O   UNL     1      84.484  11.108  66.178  1.00  0.00    -0.340 OA
BRANCH  12  13
HETATM   13  C   UNL     1      85.257  12.234  66.567  1.00  0.00     0.288 C 
BRANCH  13  14
HETATM   14  C   UNL     1      85.701  12.989  65.339  1.00  0.00     0.198 C 
HETATM   15  O   UNL     1      84.891  13.389  64.510  1.00  0.00    -0.646 OA
HETATM   16  O   UNL     1      86.992  13.062  65.200  1.00  0.00    -0.646 OA
ENDBRANCH  13  14
ENDBRANCH  12  13
ENDBRANCH   6  12
ENDBRANCH   3   5
BRANCH   1  17
HETATM   17  C   UNL     1      81.216  10.675  68.821  1.00  0.00     0.161 C 
BRANCH  17  18
HETATM   18  C   UNL     1      80.737  11.983  68.246  1.00  0.00    -0.038 A 
HETATM   19  C   UNL     1      81.657  12.836  67.650  1.00  0.00     0.045 A 
HETATM   20  C   UNL     1      81.218  14.030  67.126  1.00  0.00     0.103 A 
HETATM   21  C   UNL     1      79.895  14.423  67.163  1.00  0.00     0.036 A 
HETATM   22  C   UNL     1      78.983  13.565  67.748  1.00  0.00     0.003 A 
HETATM   23  C   UNL     1      79.403  12.358  68.288  1.00  0.00     0.009 A 
BRANCH  20  24
HETATM   24  N   UNL     1      82.210  14.931  66.555  1.00  0.00    -0.116 N 
HETATM   25  O   UNL     1      82.151  15.168  65.355  1.00  0.00    -0.532 OA
HETATM   26  O   UNL     1      83.051  15.413  67.296  1.00  0.00    -0.532 OA
ENDBRANCH  20  24
ENDBRANCH  17  18
ENDBRANCH   1  17
TORSDOF 7
ENDMDL
MODEL 12
REMARK VINA RESULT:    -7.433      3.743      5.509
REMARK INTER + INTRA:         -11.846
REMARK INTER:                 -10.452
REMARK INTRA:                  -1.394
REMARK UNBOUND:                -1.372
REMARK  7 active torsions:
REMARK  status: ('A' for Active; 'I' for Inactive)
REMARK    1  A    between atoms: N_1  and  C_3 
REMARK       I    between atoms: N_1  and  C_13 
REMARK    2  A    between atoms: C_3  and  C_4 
REMARK    3  A    between atoms: C_6  and  N_7 
REMARK    4  A    between atoms: C_13  and  C_15 
REMARK    5  A    between atoms: C_21  and  O_22 
REMARK    6  A    between atoms: O_22  and  C_23 
REMARK    7  A    between atoms: C_23  and  C_24 
ROOT
HETATM    1  N   UNL     1      82.831  11.526  67.184  1.00  0.00    -0.353 N 
ATOM      2  HN  UNL     1      82.454  10.758  66.629  1.00  0.00     0.163 HD
HETATM    3  C   UNL     1      84.104  11.481  67.581  1.00  0.00     0.254 C 
HETATM    4  O   UNL     1      84.623  12.395  68.215  1.00  0.00    -0.268 OA
ENDROOT
BRANCH   3   5
HETATM    5  C   UNL     1      84.887  10.266  67.196  1.00  0.00     0.065 A 
HETATM    6  C   UNL     1      84.624   8.970  67.649  1.00  0.00     0.088 A 
HETATM    7  C   UNL     1      85.319   7.880  67.158  1.00  0.00     0.080 A 
HETATM    8  C   UNL     1      86.311   8.119  66.238  1.00  0.00     0.119 A 
HETATM    9  F   UNL     1      87.013   7.059  65.770  1.00  0.00    -0.206 F 
HETATM   10  C   UNL     1      86.638   9.366  65.790  1.00  0.00     0.043 A 
HETATM   11  C   UNL     1      85.917  10.441  66.271  1.00  0.00     0.023 A 
BRANCH   6  12
HETATM   12  O   UNL     1      83.689   8.844  68.648  1.00  0.00    -0.340 OA
BRANCH  12  13
HETATM   13  C   UNL     1      83.017   7.594  68.687  1.00  0.00     0.288 C 
BRANCH  13  14
HETATM   14  C   UNL     1      81.639   7.742  68.093  1.00  0.00     0.198 C 
HETATM   15  O   UNL     1      80.902   6.774  67.944  1.00  0.00    -0.646 OA
HETATM   16  O   UNL     1      81.374   8.941  67.664  1.00  0.00    -0.646 OA
ENDBRANCH  13  14
ENDBRANCH  12  13
ENDBRANCH   6  12
ENDBRANCH   3   5
BRANCH   1  17
HETATM   17  C   UNL     1      81.967  12.646  67.525  1.00  0.00     0.161 C 
BRANCH  17  18
HETATM   18  C   UNL     1      80.893  12.322  68.531  1.00  0.00    -0.038 A 
HETATM   19  C   UNL     1      79.569  12.605  68.221  1.00  0.00     0.045 A 
HETATM   20  C   UNL     1      78.590  12.309  69.141  1.00  0.00     0.103 A 
HETATM   21  C   UNL     1      78.863  11.736  70.367  1.00  0.00     0.036 A 
HETATM   22  C   UNL     1      80.182  11.447  70.665  1.00  0.00     0.003 A 
HETATM   23  C   UNL     1      81.186  11.741  69.755  1.00  0.00     0.009 A 
BRANCH  20  24
HETATM   24  N   UNL     1      77.216  12.666  68.814  1.00  0.00    -0.116 N 
HETATM   25  O   UNL     1      76.975  13.056  67.679  1.00  0.00    -0.532 OA
HETATM   26  O   UNL     1      76.366  12.555  69.682  1.00  0.00    -0.532 OA
ENDBRANCH  20  24
ENDBRANCH  17  18
ENDBRANCH   1  17
TORSDOF 7
ENDMDL
MODEL 13
REMARK VINA RESULT:    -7.416      4.725      7.108
REMARK INTER + INTRA:         -11.823
REMARK INTER:                 -10.158
REMARK INTRA:                  -1.665
REMARK UNBOUND:                -1.372
REMARK  7 active torsions:
REMARK  status: ('A' for Active; 'I' for Inactive)
REMARK    1  A    between atoms: N_1  and  C_3 
REMARK       I    between atoms: N_1  and  C_13 
REMARK    2  A    between atoms: C_3  and  C_4 
REMARK    3  A    between atoms: C_6  and  N_7 
REMARK    4  A    between atoms: C_13  and  C_15 
REMARK    5  A    between atoms: C_21  and  O_22 
REMARK    6  A    between atoms: O_22  and  C_23 
REMARK    7  A    between atoms: C_23  and  C_24 
ROOT
HETATM    1  N   UNL     1      83.959  12.246  67.767  1.00  0.00    -0.353 N 
ATOM      2  HN  UNL     1      84.861  12.610  67.457  1.00  0.00     0.163 HD
HETATM    3  C   UNL     1      83.743  10.930  67.736  1.00  0.00     0.254 C 
HETATM    4  O   UNL     1      82.695  10.432  68.135  1.00  0.00    -0.268 OA
ENDROOT
BRANCH   3   5
HETATM    5  C   UNL     1      84.853  10.076  67.211  1.00  0.00     0.065 A 
HETATM    6  C   UNL     1      85.665  10.404  66.121  1.00  0.00     0.088 A 
HETATM    7  C   UNL     1      86.746   9.618  65.766  1.00  0.00     0.080 A 
HETATM    8  C   UNL     1      86.972   8.477  66.498  1.00  0.00     0.119 A 
HETATM    9  F   UNL     1      88.015   7.688  66.142  1.00  0.00    -0.206 F 
HETATM   10  C   UNL     1      86.188   8.086  67.545  1.00  0.00     0.043 A 
HETATM   11  C   UNL     1      85.128   8.896  67.903  1.00  0.00     0.023 A 
BRANCH   6  12
HETATM   12  O   UNL     1      85.297  11.505  65.387  1.00  0.00    -0.340 OA
BRANCH  12  13
HETATM   13  C   UNL     1      86.367  12.189  64.753  1.00  0.00     0.288 C 
BRANCH  13  14
HETATM   14  C   UNL     1      86.512  13.565  65.353  1.00  0.00     0.198 C 
HETATM   15  O   UNL     1      86.686  14.552  64.648  1.00  0.00    -0.646 OA
HETATM   16  O   UNL     1      86.550  13.574  66.653  1.00  0.00    -0.646 OA
ENDBRANCH  13  14
ENDBRANCH  12  13
ENDBRANCH   6  12
ENDBRANCH   3   5
BRANCH   1  17
HETATM   17  C   UNL     1      82.941  13.174  68.231  1.00  0.00     0.161 C 
BRANCH  17  18
HETATM   18  C   UNL     1      82.379  14.073  67.160  1.00  0.00    -0.038 A 
HETATM   19  C   UNL     1      83.126  14.304  66.012  1.00  0.00     0.045 A 
HETATM   20  C   UNL     1      82.612  15.125  65.035  1.00  0.00     0.103 A 
HETATM   21  C   UNL     1      81.377  15.733  65.141  1.00  0.00     0.036 A 
HETATM   22  C   UNL     1      80.634  15.490  66.281  1.00  0.00     0.003 A 
HETATM   23  C   UNL     1      81.135  14.670  67.282  1.00  0.00     0.009 A 
BRANCH  20  24
HETATM   24  N   UNL     1      83.438  15.394  63.865  1.00  0.00    -0.116 N 
HETATM   25  O   UNL     1      83.793  16.549  63.664  1.00  0.00    -0.532 OA
HETATM   26  O   UNL     1      83.743  14.460  63.143  1.00  0.00    -0.532 OA
ENDBRANCH  20  24
ENDBRANCH  17  18
ENDBRANCH   1  17
TORSDOF 7
ENDMDL
MODEL 14
REMARK VINA RESULT:    -7.383      3.638      5.434
REMARK INTER + INTRA:         -11.776
REMARK INTER:                 -10.340
REMARK INTRA:                  -1.436
REMARK UNBOUND:                -1.372
REMARK  7 active torsions:
REMARK  status: ('A' for Active; 'I' for Inactive)
REMARK    1  A    between atoms: N_1  and  C_3 
REMARK       I    between atoms: N_1  and  C_13 
REMARK    2  A    between atoms: C_3  and  C_4 
REMARK    3  A    between atoms: C_6  and  N_7 
REMARK    4  A    between atoms: C_13  and  C_15 
REMARK    5  A    between atoms: C_21  and  O_22 
REMARK    6  A    between atoms: O_22  and  C_23 
REMARK    7  A    between atoms: C_23  and  C_24 
ROOT
HETATM    1  N   UNL     1      83.010  11.859  67.714  1.00  0.00    -0.353 N 
ATOM      2  HN  UNL     1      83.042  11.117  68.413  1.00  0.00     0.163 HD
HETATM    3  C   UNL     1      83.638  11.685  66.550  1.00  0.00     0.254 C 
HETATM    4  O   UNL     1      83.599  12.525  65.655  1.00  0.00    -0.268 OA
ENDROOT
BRANCH   3   5
HETATM    5  C   UNL     1      84.382  10.400  66.371  1.00  0.00     0.065 A 
HETATM    6  C   UNL     1      83.785   9.142  66.244  1.00  0.00     0.088 A 
HETATM    7  C   UNL     1      84.533   8.014  65.964  1.00  0.00     0.080 A 
HETATM    8  C   UNL     1      85.895   8.163  65.858  1.00  0.00     0.119 A 
HETATM    9  F   UNL     1      86.639   7.058  65.608  1.00  0.00    -0.206 F 
HETATM   10  C   UNL     1      86.536   9.358  66.014  1.00  0.00     0.043 A 
HETATM   11  C   UNL     1      85.771  10.480  66.266  1.00  0.00     0.023 A 
BRANCH   6  12
HETATM   12  O   UNL     1      82.432   9.078  66.472  1.00  0.00    -0.340 OA
BRANCH  12  13
HETATM   13  C   UNL     1      82.003   7.951  67.223  1.00  0.00     0.288 C 
BRANCH  13  14
HETATM   14  C   UNL     1      82.233   8.207  68.691  1.00  0.00     0.198 C 
HETATM   15  O   UNL     1      81.956   9.286  69.200  1.00  0.00    -0.646 OA
HETATM   16  O   UNL     1      82.844   7.238  69.308  1.00  0.00    -0.646 OA
ENDBRANCH  13  14
ENDBRANCH  12  13
ENDBRANCH   6  12
ENDBRANCH   3   5
BRANCH   1  17
HETATM   17  C   UNL     1      82.279  13.081  68.008  1.00  0.00     0.161 C 
BRANCH  17  18
HETATM   18  C   UNL     1      80.832  12.870  68.375  1.00  0.00    -0.038 A 
HETATM   19  C   UNL     1      80.523  12.265  69.586  1.00  0.00     0.045 A 
HETATM   20  C   UNL     1      79.202  12.073  69.918  1.00  0.00     0.103 A 
HETATM   21  C   UNL     1      78.159  12.459  69.099  1.00  0.00     0.036 A 
HETATM   22  C   UNL     1      78.474  13.070  67.900  1.00  0.00     0.003 A 
HETATM   23  C   UNL     1      79.799  13.269  67.541  1.00  0.00     0.009 A 
BRANCH  20  24
HETATM   24  N   UNL     1      78.905  11.388  71.169  1.00  0.00    -0.116 N 
HETATM   25  O   UNL     1      77.732  11.282  71.505  1.00  0.00    -0.532 OA
HETATM   26  O   UNL     1      79.835  10.945  71.823  1.00  0.00    -0.532 OA
ENDBRANCH  20  24
ENDBRANCH  17  18
ENDBRANCH   1  17
TORSDOF 7
ENDMDL
MODEL 15
REMARK VINA RESULT:    -7.319      4.979      6.006
REMARK INTER + INTRA:         -11.687
REMARK INTER:                 -10.356
REMARK INTRA:                  -1.331
REMARK UNBOUND:                -1.372
REMARK  7 active torsions:
REMARK  status: ('A' for Active; 'I' for Inactive)
REMARK    1  A    between atoms: N_1  and  C_3 
REMARK       I    between atoms: N_1  and  C_13 
REMARK    2  A    between atoms: C_3  and  C_4 
REMARK    3  A    between atoms: C_6  and  N_7 
REMARK    4  A    between atoms: C_13  and  C_15 
REMARK    5  A    between atoms: C_21  and  O_22 
REMARK    6  A    between atoms: O_22  and  C_23 
REMARK    7  A    between atoms: C_23  and  C_24 
ROOT
HETATM    1  N   UNL     1      83.118  12.207  66.928  1.00  0.00    -0.353 N 
ATOM      2  HN  UNL     1      82.791  11.661  66.131  1.00  0.00     0.163 HD
HETATM    3  C   UNL     1      84.263  11.870  67.524  1.00  0.00     0.254 C 
HETATM    4  O   UNL     1      84.727  12.515  68.459  1.00  0.00    -0.268 OA
ENDROOT
BRANCH   3   5
HETATM    5  C   UNL     1      84.977  10.672  66.983  1.00  0.00     0.065 A 
HETATM    6  C   UNL     1      85.552  10.591  65.712  1.00  0.00     0.088 A 
HETATM    7  C   UNL     1      86.296   9.491  65.326  1.00  0.00     0.080 A 
HETATM    8  C   UNL     1      86.417   8.457  66.222  1.00  0.00     0.119 A 
HETATM    9  F   UNL     1      87.125   7.366  65.844  1.00  0.00    -0.206 F 
HETATM   10  C   UNL     1      85.843   8.464  67.461  1.00  0.00     0.043 A 
HETATM   11  C   UNL     1      85.125   9.581  67.841  1.00  0.00     0.023 A 
BRANCH   6  12
HETATM   12  O   UNL     1      85.286  11.627  64.849  1.00  0.00    -0.340 OA
BRANCH  12  13
HETATM   13  C   UNL     1      86.402  12.446  64.534  1.00  0.00     0.288 C 
BRANCH  13  14
HETATM   14  C   UNL     1      86.320  13.732  65.318  1.00  0.00     0.198 C 
HETATM   15  O   UNL     1      87.257  14.120  66.006  1.00  0.00    -0.646 OA
HETATM   16  O   UNL     1      85.151  14.301  65.281  1.00  0.00    -0.646 OA
ENDBRANCH  13  14
ENDBRANCH  12  13
ENDBRANCH   6  12
ENDBRANCH   3   5
BRANCH   1  17
HETATM   17  C   UNL     1      82.326  13.337  67.387  1.00  0.00     0.161 C 
BRANCH  17  18
HETATM   18  C   UNL     1      80.940  12.977  67.856  1.00  0.00    -0.038 A 
HETATM   19  C   UNL     1      79.849  13.645  67.315  1.00  0.00     0.045 A 
HETATM   20  C   UNL     1      78.584  13.315  67.745  1.00  0.00     0.103 A 
HETATM   21  C   UNL     1      78.346  12.341  68.695  1.00  0.00     0.036 A 
HETATM   22  C   UNL     1      79.436  11.673  69.221  1.00  0.00     0.003 A 
HETATM   23  C   UNL     1      80.720  11.993  68.807  1.00  0.00     0.009 A 
BRANCH  20  24
HETATM   24  N   UNL     1      77.460  14.067  67.203  1.00  0.00    -0.116 N 
HETATM   25  O   UNL     1      77.653  15.228  66.864  1.00  0.00    -0.532 OA
HETATM   26  O   UNL     1      76.381  13.508  67.106  1.00  0.00    -0.532 OA
ENDBRANCH  20  24
ENDBRANCH  17  18
ENDBRANCH   1  17
TORSDOF 7
ENDMDL
MODEL 16
REMARK VINA RESULT:    -7.319      4.114      5.937
REMARK INTER + INTRA:         -11.686
REMARK INTER:                 -10.971
REMARK INTRA:                  -0.715
REMARK UNBOUND:                -1.372
REMARK  7 active torsions:
REMARK  status: ('A' for Active; 'I' for Inactive)
REMARK    1  A    between atoms: N_1  and  C_3 
REMARK       I    between atoms: N_1  and  C_13 
REMARK    2  A    between atoms: C_3  and  C_4 
REMARK    3  A    between atoms: C_6  and  N_7 
REMARK    4  A    between atoms: C_13  and  C_15 
REMARK    5  A    between atoms: C_21  and  O_22 
REMARK    6  A    between atoms: O_22  and  C_23 
REMARK    7  A    between atoms: C_23  and  C_24 
ROOT
HETATM    1  N   UNL     1      81.685  10.952  67.986  1.00  0.00    -0.353 N 
ATOM      2  HN  UNL     1      81.987  11.466  67.158  1.00  0.00     0.163 HD
HETATM    3  C   UNL     1      82.309   9.820  68.315  1.00  0.00     0.254 C 
HETATM    4  O   UNL     1      82.017   9.182  69.323  1.00  0.00    -0.268 OA
ENDROOT
BRANCH   3   5
HETATM    5  C   UNL     1      83.407   9.367  67.406  1.00  0.00     0.065 A 
HETATM    6  C   UNL     1      83.287   8.353  66.452  1.00  0.00     0.088 A 
HETATM    7  C   UNL     1      84.313   8.069  65.569  1.00  0.00     0.080 A 
HETATM    8  C   UNL     1      85.475   8.792  65.688  1.00  0.00     0.119 A 
HETATM    9  F   UNL     1      86.493   8.505  64.842  1.00  0.00    -0.206 F 
HETATM   10  C   UNL     1      85.663   9.765  66.627  1.00  0.00     0.043 A 
HETATM   11  C   UNL     1      84.619  10.054  67.485  1.00  0.00     0.023 A 
BRANCH   6  12
HETATM   12  O   UNL     1      82.129   7.615  66.480  1.00  0.00    -0.340 OA
BRANCH  12  13
HETATM   13  C   UNL     1      81.272   7.799  65.362  1.00  0.00     0.288 C 
BRANCH  13  14
HETATM   14  C   UNL     1      80.084   6.878  65.481  1.00  0.00     0.198 C 
HETATM   15  O   UNL     1      79.879   6.231  66.501  1.00  0.00    -0.646 OA
HETATM   16  O   UNL     1      79.395   6.759  64.384  1.00  0.00    -0.646 OA
ENDBRANCH  13  14
ENDBRANCH  12  13
ENDBRANCH   6  12
ENDBRANCH   3   5
BRANCH   1  17
HETATM   17  C   UNL     1      80.584  11.472  68.781  1.00  0.00     0.161 C 
BRANCH  17  18
HETATM   18  C   UNL     1      79.870  12.648  68.165  1.00  0.00    -0.038 A 
HETATM   19  C   UNL     1      78.484  12.707  68.231  1.00  0.00     0.045 A 
HETATM   20  C   UNL     1      77.835  13.781  67.667  1.00  0.00     0.103 A 
HETATM   21  C   UNL     1      78.501  14.814  67.037  1.00  0.00     0.036 A 
HETATM   22  C   UNL     1      79.881  14.753  66.985  1.00  0.00     0.003 A 
HETATM   23  C   UNL     1      80.557  13.677  67.541  1.00  0.00     0.009 A 
BRANCH  20  24
HETATM   24  N   UNL     1      76.378  13.793  67.701  1.00  0.00    -0.116 N 
HETATM   25  O   UNL     1      75.827  13.875  68.791  1.00  0.00    -0.532 OA
HETATM   26  O   UNL     1      75.773  13.726  66.644  1.00  0.00    -0.532 OA
ENDBRANCH  20  24
ENDBRANCH  17  18
ENDBRANCH   1  17
TORSDOF 7
ENDMDL
MODEL 17
REMARK VINA RESULT:    -7.273      3.745      5.869
REMARK INTER + INTRA:         -11.621
REMARK INTER:                 -10.251
REMARK INTRA:                  -1.370
REMARK UNBOUND:                -1.372
REMARK  7 active torsions:
REMARK  status: ('A' for Active; 'I' for Inactive)
REMARK    1  A    between atoms: N_1  and  C_3 
REMARK       I    between atoms: N_1  and  C_13 
REMARK    2  A    between atoms: C_3  and  C_4 
REMARK    3  A    between atoms: C_6  and  N_7 
REMARK    4  A    between atoms: C_13  and  C_15 
REMARK    5  A    between atoms: C_21  and  O_22 
REMARK    6  A    between atoms: O_22  and  C_23 
REMARK    7  A    between atoms: C_23  and  C_24 
ROOT
HETATM    1  N   UNL     1      82.405  10.286  67.762  1.00  0.00    -0.353 N 
ATOM      2  HN  UNL     1      83.159  10.934  67.991  1.00  0.00     0.163 HD
HETATM    3  C   UNL     1      82.698   9.125  67.175  1.00  0.00     0.254 C 
HETATM    4  O   UNL     1      81.837   8.289  66.915  1.00  0.00    -0.268 OA
ENDROOT
BRANCH   3   5
HETATM    5  C   UNL     1      84.139   8.870  66.866  1.00  0.00     0.065 A 
HETATM    6  C   UNL     1      84.898   9.594  65.942  1.00  0.00     0.088 A 
HETATM    7  C   UNL     1      86.255   9.376  65.795  1.00  0.00     0.080 A 
HETATM    8  C   UNL     1      86.829   8.389  66.561  1.00  0.00     0.119 A 
HETATM    9  F   UNL     1      88.153   8.152  66.406  1.00  0.00    -0.206 F 
HETATM   10  C   UNL     1      86.130   7.624  67.449  1.00  0.00     0.043 A 
HETATM   11  C   UNL     1      84.779   7.872  67.602  1.00  0.00     0.023 A 
BRANCH   6  12
HETATM   12  O   UNL     1      84.215  10.484  65.148  1.00  0.00    -0.340 OA
BRANCH  12  13
HETATM   13  C   UNL     1      84.853  11.740  64.969  1.00  0.00     0.288 C 
BRANCH  13  14
HETATM   14  C   UNL     1      84.775  12.531  66.251  1.00  0.00     0.198 C 
HETATM   15  O   UNL     1      83.697  12.876  66.722  1.00  0.00    -0.646 OA
HETATM   16  O   UNL     1      85.932  12.896  66.719  1.00  0.00    -0.646 OA
ENDBRANCH  13  14
ENDBRANCH  12  13
ENDBRANCH   6  12
ENDBRANCH   3   5
BRANCH   1  17
HETATM   17  C   UNL     1      81.034  10.652  68.083  1.00  0.00     0.161 C 
BRANCH  17  18
HETATM   18  C   UNL     1      80.892  11.539  69.293  1.00  0.00    -0.038 A 
HETATM   19  C   UNL     1      80.398  10.998  70.473  1.00  0.00     0.045 A 
HETATM   20  C   UNL     1      80.269  11.809  71.577  1.00  0.00     0.103 A 
HETATM   21  C   UNL     1      80.613  13.146  71.568  1.00  0.00     0.036 A 
HETATM   22  C   UNL     1      81.115  13.675  70.393  1.00  0.00     0.003 A 
HETATM   23  C   UNL     1      81.248  12.878  69.267  1.00  0.00     0.009 A 
BRANCH  20  24
HETATM   24  N   UNL     1      79.697  11.231  72.786  1.00  0.00    -0.116 N 
HETATM   25  O   UNL     1      80.414  10.525  73.483  1.00  0.00    -0.532 OA
HETATM   26  O   UNL     1      78.533  11.480  73.053  1.00  0.00    -0.532 OA
ENDBRANCH  20  24
ENDBRANCH  17  18
ENDBRANCH   1  17
TORSDOF 7
ENDMDL
MODEL 18
REMARK VINA RESULT:    -7.251      4.344      6.790
REMARK INTER + INTRA:         -11.591
REMARK INTER:                 -10.190
REMARK INTRA:                  -1.401
REMARK UNBOUND:                -1.372
REMARK  7 active torsions:
REMARK  status: ('A' for Active; 'I' for Inactive)
REMARK    1  A    between atoms: N_1  and  C_3 
REMARK       I    between atoms: N_1  and  C_13 
REMARK    2  A    between atoms: C_3  and  C_4 
REMARK    3  A    between atoms: C_6  and  N_7 
REMARK    4  A    between atoms: C_13  and  C_15 
REMARK    5  A    between atoms: C_21  and  O_22 
REMARK    6  A    between atoms: O_22  and  C_23 
REMARK    7  A    between atoms: C_23  and  C_24 
ROOT
HETATM    1  N   UNL     1      81.733  10.380  68.123  1.00  0.00    -0.353 N 
ATOM      2  HN  UNL     1      81.769  10.673  67.146  1.00  0.00     0.163 HD
HETATM    3  C   UNL     1      80.922  11.023  68.965  1.00  0.00     0.254 C 
HETATM    4  O   UNL     1      80.805  10.688  70.141  1.00  0.00    -0.268 OA
ENDROOT
BRANCH   3   5
HETATM    5  C   UNL     1      80.137  12.165  68.406  1.00  0.00     0.065 A 
HETATM    6  C   UNL     1      80.692  13.292  67.793  1.00  0.00     0.088 A 
HETATM    7  C   UNL     1      79.897  14.253  67.196  1.00  0.00     0.080 A 
HETATM    8  C   UNL     1      78.535  14.085  67.263  1.00  0.00     0.119 A 
HETATM    9  F   UNL     1      77.747  15.034  66.702  1.00  0.00    -0.206 F 
HETATM   10  C   UNL     1      77.936  13.027  67.884  1.00  0.00     0.043 A 
HETATM   11  C   UNL     1      78.745  12.062  68.453  1.00  0.00     0.023 A 
BRANCH   6  12
HETATM   12  O   UNL     1      82.057  13.425  67.870  1.00  0.00    -0.340 OA
BRANCH  12  13
HETATM   13  C   UNL     1      82.723  13.516  66.619  1.00  0.00     0.288 C 
BRANCH  13  14
HETATM   14  C   UNL     1      83.992  14.314  66.780  1.00  0.00     0.198 C 
HETATM   15  O   UNL     1      85.060  13.768  67.030  1.00  0.00    -0.646 OA
HETATM   16  O   UNL     1      83.815  15.602  66.745  1.00  0.00    -0.646 OA
ENDBRANCH  13  14
ENDBRANCH  12  13
ENDBRANCH   6  12
ENDBRANCH   3   5
BRANCH   1  17
HETATM   17  C   UNL     1      82.565   9.272  68.563  1.00  0.00     0.161 C 
BRANCH  17  18
HETATM   18  C   UNL     1      83.896   9.175  67.864  1.00  0.00    -0.038 A 
HETATM   19  C   UNL     1      84.213  10.103  66.881  1.00  0.00     0.045 A 
HETATM   20  C   UNL     1      85.429  10.013  66.244  1.00  0.00     0.103 A 
HETATM   21  C   UNL     1      86.359   9.036  66.540  1.00  0.00     0.036 A 
HETATM   22  C   UNL     1      86.042   8.122  67.527  1.00  0.00     0.003 A 
HETATM   23  C   UNL     1      84.820   8.190  68.179  1.00  0.00     0.009 A 
BRANCH  20  24
HETATM   24  N   UNL     1      85.714  10.965  65.179  1.00  0.00    -0.116 N 
HETATM   25  O   UNL     1      86.855  11.399  65.083  1.00  0.00    -0.532 OA
HETATM   26  O   UNL     1      84.807  11.283  64.427  1.00  0.00    -0.532 OA
ENDBRANCH  20  24
ENDBRANCH  17  18
ENDBRANCH   1  17
TORSDOF 7
ENDMDL
MODEL 19
REMARK VINA RESULT:    -7.210      2.803      4.375
REMARK INTER + INTRA:         -11.533
REMARK INTER:                 -10.156
REMARK INTRA:                  -1.377
REMARK UNBOUND:                -1.372
REMARK  7 active torsions:
REMARK  status: ('A' for Active; 'I' for Inactive)
REMARK    1  A    between atoms: N_1  and  C_3 
REMARK       I    between atoms: N_1  and  C_13 
REMARK    2  A    between atoms: C_3  and  C_4 
REMARK    3  A    between atoms: C_6  and  N_7 
REMARK    4  A    between atoms: C_13  and  C_15 
REMARK    5  A    between atoms: C_21  and  O_22 
REMARK    6  A    between atoms: O_22  and  C_23 
REMARK    7  A    between atoms: C_23  and  C_24 
ROOT
HETATM    1  N   UNL     1      83.551  11.299  65.475  1.00  0.00    -0.353 N 
ATOM      2  HN  UNL     1      82.629  11.530  65.846  1.00  0.00     0.163 HD
HETATM    3  C   UNL     1      84.276  12.254  64.891  1.00  0.00     0.254 C 
HETATM    4  O   UNL     1      85.408  12.044  64.464  1.00  0.00    -0.268 OA
ENDROOT
BRANCH   3   5
HETATM    5  C   UNL     1      83.654  13.611  64.797  1.00  0.00     0.065 A 
HETATM    6  C   UNL     1      83.236  14.375  65.890  1.00  0.00     0.088 A 
HETATM    7  C   UNL     1      82.777  15.670  65.730  1.00  0.00     0.080 A 
HETATM    8  C   UNL     1      82.704  16.167  64.452  1.00  0.00     0.119 A 
HETATM    9  F   UNL     1      82.233  17.426  64.284  1.00  0.00    -0.206 F 
HETATM   10  C   UNL     1      83.060  15.453  63.344  1.00  0.00     0.043 A 
HETATM   11  C   UNL     1      83.541  14.170  63.523  1.00  0.00     0.023 A 
BRANCH   6  12
HETATM   12  O   UNL     1      83.246  13.754  67.115  1.00  0.00    -0.340 OA
BRANCH  12  13
HETATM   13  C   UNL     1      84.204  14.256  68.035  1.00  0.00     0.288 C 
BRANCH  13  14
HETATM   14  C   UNL     1      85.370  13.303  68.118  1.00  0.00     0.198 C 
HETATM   15  O   UNL     1      86.524  13.696  67.995  1.00  0.00    -0.646 OA
HETATM   16  O   UNL     1      85.025  12.052  68.211  1.00  0.00    -0.646 OA
ENDBRANCH  13  14
ENDBRANCH  12  13
ENDBRANCH   6  12
ENDBRANCH   3   5
BRANCH   1  17
HETATM   17  C   UNL     1      84.044   9.936  65.597  1.00  0.00     0.161 C 
BRANCH  17  18
HETATM   18  C   UNL     1      83.165   9.026  66.416  1.00  0.00    -0.038 A 
HETATM   19  C   UNL     1      82.132   8.341  65.790  1.00  0.00     0.045 A 
HETATM   20  C   UNL     1      81.331   7.511  66.540  1.00  0.00     0.103 A 
HETATM   21  C   UNL     1      81.508   7.322  67.896  1.00  0.00     0.036 A 
HETATM   22  C   UNL     1      82.546   7.999  68.510  1.00  0.00     0.003 A 
HETATM   23  C   UNL     1      83.363   8.845  67.776  1.00  0.00     0.009 A 
BRANCH  20  24
HETATM   24  N   UNL     1      80.220   6.847  65.870  1.00  0.00    -0.116 N 
HETATM   25  O   UNL     1      79.552   6.049  66.515  1.00  0.00    -0.532 OA
HETATM   26  O   UNL     1      80.002   7.118  64.701  1.00  0.00    -0.532 OA
ENDBRANCH  20  24
ENDBRANCH  17  18
ENDBRANCH   1  17
TORSDOF 7
ENDMDL
MODEL 20
REMARK VINA RESULT:    -7.200      3.995      5.456
REMARK INTER + INTRA:         -11.518
REMARK INTER:                 -10.042
REMARK INTRA:                  -1.476
REMARK UNBOUND:                -1.372
REMARK  7 active torsions:
REMARK  status: ('A' for Active; 'I' for Inactive)
REMARK    1  A    between atoms: N_1  and  C_3 
REMARK       I    between atoms: N_1  and  C_13 
REMARK    2  A    between atoms: C_3  and  C_4 
REMARK    3  A    between atoms: C_6  and  N_7 
REMARK    4  A    between atoms: C_13  and  C_15 
REMARK    5  A    between atoms: C_21  and  O_22 
REMARK    6  A    between atoms: O_22  and  C_23 
REMARK    7  A    between atoms: C_23  and  C_24 
ROOT
HETATM    1  N   UNL     1      84.746  12.708  67.719  1.00  0.00    -0.353 N 
ATOM      2  HN  UNL     1      85.505  12.093  67.427  1.00  0.00     0.163 HD
HETATM    3  C   UNL     1      84.989  14.009  67.888  1.00  0.00     0.254 C 
HETATM    4  O   UNL     1      84.105  14.803  68.198  1.00  0.00    -0.268 OA
ENDROOT
BRANCH   3   5
HETATM    5  C   UNL     1      86.394  14.468  67.658  1.00  0.00     0.065 A 
HETATM    6  C   UNL     1      86.976  14.659  66.402  1.00  0.00     0.088 A 
HETATM    7  C   UNL     1      88.243  15.196  66.269  1.00  0.00     0.080 A 
HETATM    8  C   UNL     1      88.931  15.499  67.420  1.00  0.00     0.119 A 
HETATM    9  F   UNL     1      90.182  16.003  67.300  1.00  0.00    -0.206 F 
HETATM   10  C   UNL     1      88.429  15.295  68.673  1.00  0.00     0.043 A 
HETATM   11  C   UNL     1      87.151  14.782  68.788  1.00  0.00     0.023 A 
BRANCH   6  12
HETATM   12  O   UNL     1      86.253  14.227  65.316  1.00  0.00    -0.340 OA
BRANCH  12  13
HETATM   13  C   UNL     1      86.861  13.185  64.566  1.00  0.00     0.288 C 
BRANCH  13  14
HETATM   14  C   UNL     1      86.182  11.876  64.882  1.00  0.00     0.198 C 
HETATM   15  O   UNL     1      86.826  10.894  65.233  1.00  0.00    -0.646 OA
HETATM   16  O   UNL     1      84.905  11.869  64.637  1.00  0.00    -0.646 OA
ENDBRANCH  13  14
ENDBRANCH  12  13
ENDBRANCH   6  12
ENDBRANCH   3   5
BRANCH   1  17
HETATM   17  C   UNL     1      83.423  12.146  67.942  1.00  0.00     0.161 C 
BRANCH  17  18
HETATM   18  C   UNL     1      83.387  10.640  67.999  1.00  0.00    -0.038 A 
HETATM   19  C   UNL     1      84.487   9.920  67.553  1.00  0.00     0.045 A 
HETATM   20  C   UNL     1      84.451   8.546  67.606  1.00  0.00     0.103 A 
HETATM   21  C   UNL     1      83.366   7.842  68.088  1.00  0.00     0.036 A 
HETATM   22  C   UNL     1      82.278   8.566  68.541  1.00  0.00     0.003 A 
HETATM   23  C   UNL     1      82.289   9.952  68.492  1.00  0.00     0.009 A 
BRANCH  20  24
HETATM   24  N   UNL     1      85.596   7.812  67.081  1.00  0.00    -0.116 N 
HETATM   25  O   UNL     1      86.690   8.006  67.595  1.00  0.00    -0.532 OA
HETATM   26  O   UNL     1      85.413   7.035  66.159  1.00  0.00    -0.532 OA
ENDBRANCH  20  24
ENDBRANCH  17  18
ENDBRANCH   1  17
TORSDOF 7
ENDMDL
