REMARK  2 active torsions:
REMARK  status: ('A' for Active; 'I' for Inactive)
REMARK    1  A    between atoms: N_20  and  C_22 
REMARK    2  A    between atoms: C_23  and  C_30 
ROOT
HETATM    1  C   UNL     1      -4.922  11.112  -0.524  1.00  0.00     0.060 A 
HETATM    2  C   UNL     1      -5.917  10.586   0.262  1.00  0.00     0.132 A 
HETATM    3  C   UNL     1      -7.266  10.650  -0.145  1.00  0.00     0.132 A 
HETATM    4  C   UNL     1      -6.685  11.762  -2.050  1.00  0.00     0.116 A 
HETATM    5  C   UNL     1      -5.321  11.742  -1.718  1.00  0.00     0.026 A 
HETATM    6  C   UNL     1      -4.646  12.406  -2.820  1.00  0.00     0.037 A 
HETATM    7  N   UNL     1      -7.664  11.216  -1.285  1.00  0.00    -0.349 N 
ATOM      8  HN  UNL     1      -8.645  11.237  -1.565  1.00  0.00     0.167 HD
HETATM    9  C   UNL     1      -5.650  12.769  -3.702  1.00  0.00     0.106 A 
HETATM   10  N   UNL     1      -6.847  12.384  -3.218  1.00  0.00    -0.351 N 
ATOM     11  HN  UNL     1      -7.744  12.545  -3.677  1.00  0.00     0.166 HD
HETATM   12  C   UNL     1      -3.237  12.579  -2.977  1.00  0.00     0.119 A 
HETATM   13  N   UNL     1      -2.770  13.211  -4.070  1.00  0.00    -0.348 N 
ATOM     14  HN  UNL     1      -3.412  13.554  -4.785  1.00  0.00     0.167 HD
HETATM   15  C   UNL     1      -1.440  13.383  -4.204  1.00  0.00     0.136 A 
HETATM   16  C   UNL     1      -0.585  12.960  -3.231  1.00  0.00     0.175 A 
HETATM   17  C   UNL     1      -1.089  12.329  -2.093  1.00  0.00     0.143 A 
HETATM   18  N   UNL     1      -2.420  12.209  -1.987  1.00  0.00    -0.326 N 
ATOM     19  HN  UNL     1      -2.818  11.826  -1.130  1.00  0.00     0.169 HD
HETATM   20  N   UNL     1      -0.313  11.865  -1.120  1.00  0.00    -0.368 N 
ATOM     21  HN  UNL     1       0.696  11.901  -1.263  1.00  0.00     0.161 HD
HETATM   22  F   UNL     1       0.750  13.073  -3.441  1.00  0.00    -0.201 F 
HETATM   23  F   UNL     1      -5.618  10.011   1.428  1.00  0.00    -0.205 F 
ENDROOT
BRANCH  20  24
HETATM   24  C   UNL     1      -0.801  11.303   0.149  1.00  0.00     0.102 C 
HETATM   25  C   UNL     1      -1.157   9.872  -0.085  1.00  0.00     0.009 C 
HETATM   26  C   UNL     1      -1.843   9.343   1.172  1.00  0.00     0.007 C 
HETATM   27  C   UNL     1       0.097   9.064  -0.388  1.00  0.00     0.007 C 
HETATM   28  C   UNL     1      -0.967   9.489   2.363  1.00  0.00     0.006 C 
HETATM   29  C   UNL     1       0.394  10.014   1.892  1.00  0.00     0.002 C 
HETATM   30  C   UNL     1       0.949   9.054   0.853  1.00  0.00     0.006 C 
HETATM   31  C   UNL     1       0.250  11.397   1.247  1.00  0.00     0.114 C 
BRANCH  31  32
HETATM   32  C   UNL     1       0.031  12.387   2.317  1.00  0.00     0.179 C 
HETATM   33  O   UNL     1      -0.972  13.019   2.450  1.00  0.00    -0.648 OA
HETATM   34  O   UNL     1       1.094  12.535   3.081  1.00  0.00    -0.648 OA
ENDBRANCH  31  32
ENDBRANCH  20  24
TORSDOF 2
