REMARK  1 active torsions:
REMARK  status: ('A' for Active; 'I' for Inactive)
REMARK    1  A    between atoms: C_18  and  O_19 
ROOT
HETATM    1  C   UNL     1      17.276  -3.753 -25.537  1.00  0.00     0.022 C 
HETATM    2  C   UNL     1      16.440  -2.471 -25.472  1.00  0.00     0.084 C 
HETATM    3  C   UNL     1      15.140  -2.657 -24.799  1.00  0.00     0.149 C 
HETATM    4  O   UNL     1      14.222  -1.885 -25.028  1.00  0.00    -0.293 OA
HETATM    5  C   UNL     1      15.023  -3.806 -23.935  1.00  0.00     0.053 C 
HETATM    6  C   UNL     1      16.026  -4.606 -23.563  1.00  0.00    -0.068 C 
HETATM    7  C   UNL     1      15.831  -5.602 -22.448  1.00  0.00     0.035 C 
HETATM    8  C   UNL     1      16.360  -6.984 -22.817  1.00  0.00     0.010 C 
HETATM    9  C   UNL     1      17.818  -6.871 -23.233  1.00  0.00    -0.004 C 
HETATM   10  C   UNL     1      17.986  -5.944 -24.450  1.00  0.00     0.002 C 
HETATM   11  C   UNL     1      17.408  -4.511 -24.205  1.00  0.00    -0.016 C 
HETATM   12  C   UNL     1      19.439  -5.937 -24.946  1.00  0.00     0.007 C 
HETATM   13  C   UNL     1      19.999  -7.338 -25.174  1.00  0.00     0.012 C 
HETATM   14  C   UNL     1      19.875  -8.224 -23.962  1.00  0.00    -0.014 C 
HETATM   15  C   UNL     1      18.379  -8.238 -23.598  1.00  0.00     0.001 C 
HETATM   16  C   UNL     1      18.271  -9.405 -22.612  1.00  0.00     0.008 C 
HETATM   17  C   UNL     1      19.299 -10.440 -23.119  1.00  0.00     0.033 C 
HETATM   18  C   UNL     1      20.088  -9.743 -24.248  1.00  0.00     0.126 C 
HETATM   19  C   UNL     1      20.851  -7.794 -22.871  1.00  0.00     0.018 C 
HETATM   20  C   UNL     1      18.273  -3.703 -23.235  1.00  0.00     0.020 C 
ENDROOT
BRANCH  18  21
HETATM   21  O   UNL     1      21.453 -10.211 -24.264  1.00  0.00    -0.395 OA
ATOM     22  HO  UNL     1      21.939  -9.782 -24.959  1.00  0.00     0.210 HD
ENDBRANCH  18  21
TORSDOF 1
