MODEL 1
REMARK VINA RESULT:   -10.202      0.000      0.000
REMARK INTER + INTRA:         -11.870
REMARK INTER:                 -11.395
REMARK INTRA:                  -0.476
REMARK UNBOUND:                -0.476
REMARK  2 active torsions:
REMARK  status: ('A' for Active; 'I' for Inactive)
REMARK    1  A    between atoms: C_1  and  C_12 
REMARK    2  A    between atoms: CA_11  and  C_16 
ROOT
HETATM    1  C   UNL     1     -24.342   0.823  61.792  1.00  0.00     0.022 A 
HETATM    2  C   UNL     1     -25.009  -3.738  63.039  1.00  0.00     0.050 C 
HETATM    3  C   UNL     1     -25.562  -2.326  63.011  1.00  0.00    -0.034 A 
HETATM    4  C   UNL     1     -26.808  -2.057  63.553  1.00  0.00     0.009 A 
HETATM    5  C   UNL     1     -27.318  -0.758  63.528  1.00  0.00     0.002 A 
HETATM    6  C   UNL     1     -26.585   0.275  62.957  1.00  0.00     0.014 A 
HETATM    7  C   UNL     1     -25.334   0.001  62.411  1.00  0.00     0.005 A 
HETATM    8  C   UNL     1     -24.820  -1.288  62.434  1.00  0.00     0.050 A 
HETATM    9  CA  UNL     1     -23.307  -0.062  61.453  1.00  0.00     0.122 A 
HETATM   10  N   UNL     1     -23.618  -1.286  61.848  1.00  0.00    -0.349 N 
ATOM     11  HN  UNL     1     -23.026  -2.108  61.724  1.00  0.00     0.166 HD
ENDROOT
BRANCH   1  12
HETATM   12  C   UNL     1     -24.488   2.285  61.472  1.00  0.00    -0.001 A 
HETATM   13  C   UNL     1     -24.757   2.596  60.147  1.00  0.00     0.014 A 
HETATM   14  C   UNL     1     -24.938   3.917  59.749  1.00  0.00     0.001 A 
HETATM   15  C   UNL     1     -24.869   4.929  60.692  1.00  0.00     0.002 A 
HETATM   16  C   UNL     1     -24.621   4.617  62.016  1.00  0.00     0.024 A 
HETATM   17  C   UNL     1     -24.443   3.303  62.403  1.00  0.00     0.045 A 
HETATM   18 CL   UNL     1     -24.138   2.936  64.066  1.00  0.00    -0.083 Cl
ENDBRANCH   1  12
BRANCH   9  19
HETATM   19  C   UNL     1     -22.010   0.290  60.780  1.00  0.00     0.227 C 
HETATM   20  O   UNL     1     -21.589   1.476  60.744  1.00  0.00    -0.643 OA
HETATM   21  OXT UNL     1     -21.315  -0.623  60.303  1.00  0.00    -0.643 OA
ENDBRANCH   9  19
TORSDOF 2
ENDMDL
MODEL 2
REMARK VINA RESULT:    -8.420      2.680      5.628
REMARK INTER + INTRA:          -9.880
REMARK INTER:                  -9.431
REMARK INTRA:                  -0.448
REMARK UNBOUND:                -0.476
REMARK  2 active torsions:
REMARK  status: ('A' for Active; 'I' for Inactive)
REMARK    1  A    between atoms: C_1  and  C_12 
REMARK    2  A    between atoms: CA_11  and  C_16 
ROOT
HETATM    1  C   UNL     1     -24.745   2.664  62.320  1.00  0.00     0.022 A 
HETATM    2  C   UNL     1     -24.219   7.227  63.624  1.00  0.00     0.050 C 
HETATM    3  C   UNL     1     -24.341   5.779  64.058  1.00  0.00    -0.034 A 
HETATM    4  C   UNL     1     -24.310   5.453  65.404  1.00  0.00     0.009 A 
HETATM    5  C   UNL     1     -24.423   4.120  65.805  1.00  0.00     0.002 A 
HETATM    6  C   UNL     1     -24.561   3.110  64.860  1.00  0.00     0.014 A 
HETATM    7  C   UNL     1     -24.590   3.442  63.508  1.00  0.00     0.005 A 
HETATM    8  C   UNL     1     -24.480   4.765  63.103  1.00  0.00     0.050 A 
HETATM    9  CA  UNL     1     -24.679   3.596  61.273  1.00  0.00     0.122 A 
HETATM   10  N   UNL     1     -24.530   4.814  61.767  1.00  0.00    -0.349 N 
ATOM     11  HN  UNL     1     -24.462   5.667  61.211  1.00  0.00     0.166 HD
ENDROOT
BRANCH   1  12
HETATM   12  C   UNL     1     -24.818   1.164  62.255  1.00  0.00    -0.001 A 
HETATM   13  C   UNL     1     -25.976   0.587  62.759  1.00  0.00     0.014 A 
HETATM   14  C   UNL     1     -26.157  -0.792  62.722  1.00  0.00     0.001 A 
HETATM   15  C   UNL     1     -25.181  -1.594  62.155  1.00  0.00     0.002 A 
HETATM   16  C   UNL     1     -24.037  -1.017  61.634  1.00  0.00     0.024 A 
HETATM   17  C   UNL     1     -23.864   0.353  61.675  1.00  0.00     0.045 A 
HETATM   18 CL   UNL     1     -22.427   1.052  61.011  1.00  0.00    -0.083 Cl
ENDBRANCH   1  12
BRANCH   9  19
HETATM   19  C   UNL     1     -24.797   3.305  59.803  1.00  0.00     0.227 C 
HETATM   20  O   UNL     1     -25.571   2.412  59.370  1.00  0.00    -0.643 OA
HETATM   21  OXT UNL     1     -24.156   4.004  58.999  1.00  0.00    -0.643 OA
ENDBRANCH   9  19
TORSDOF 2
ENDMDL
MODEL 3
REMARK VINA RESULT:    -8.319     11.381     12.941
REMARK INTER + INTRA:          -9.767
REMARK INTER:                  -9.284
REMARK INTRA:                  -0.482
REMARK UNBOUND:                -0.476
REMARK  2 active torsions:
REMARK  status: ('A' for Active; 'I' for Inactive)
REMARK    1  A    between atoms: C_1  and  C_12 
REMARK    2  A    between atoms: CA_11  and  C_16 
ROOT
HETATM    1  C   UNL     1     -30.495   8.838  69.293  1.00  0.00     0.022 A 
HETATM    2  C   UNL     1     -29.106   4.271  69.364  1.00  0.00     0.050 C 
HETATM    3  C   UNL     1     -28.698   5.731  69.315  1.00  0.00    -0.034 A 
HETATM    4  C   UNL     1     -27.357   6.076  69.258  1.00  0.00     0.009 A 
HETATM    5  C   UNL     1     -26.981   7.420  69.213  1.00  0.00     0.002 A 
HETATM    6  C   UNL     1     -27.944   8.422  69.230  1.00  0.00     0.014 A 
HETATM    7  C   UNL     1     -29.290   8.071  69.290  1.00  0.00     0.005 A 
HETATM    8  C   UNL     1     -29.672   6.737  69.333  1.00  0.00     0.050 A 
HETATM    9  CA  UNL     1     -31.523   7.888  69.376  1.00  0.00     0.122 A 
HETATM   10  N   UNL     1     -31.006   6.670  69.392  1.00  0.00    -0.349 N 
ATOM     11  HN  UNL     1     -31.546   5.806  69.441  1.00  0.00     0.166 HD
ENDROOT
BRANCH   1  12
HETATM   12  C   UNL     1     -30.581  10.339  69.338  1.00  0.00    -0.001 A 
HETATM   13  C   UNL     1     -30.231  11.006  68.172  1.00  0.00     0.014 A 
HETATM   14  C   UNL     1     -30.303  12.393  68.098  1.00  0.00     0.001 A 
HETATM   15  C   UNL     1     -30.748  13.113  69.193  1.00  0.00     0.002 A 
HETATM   16  C   UNL     1     -31.116  12.447  70.348  1.00  0.00     0.024 A 
HETATM   17  C   UNL     1     -31.043  11.070  70.414  1.00  0.00     0.045 A 
HETATM   18 CL   UNL     1     -31.514  10.258  71.868  1.00  0.00    -0.083 Cl
ENDBRANCH   1  12
BRANCH   9  19
HETATM   19  C   UNL     1     -33.000   8.163  69.404  1.00  0.00     0.227 C 
HETATM   20  O   UNL     1     -33.497   9.148  68.798  1.00  0.00    -0.643 OA
HETATM   21  OXT UNL     1     -33.749   7.363  69.991  1.00  0.00    -0.643 OA
ENDBRANCH   9  19
TORSDOF 2
ENDMDL
MODEL 4
REMARK VINA RESULT:    -8.015      4.283      6.157
REMARK INTER + INTRA:          -9.428
REMARK INTER:                  -8.892
REMARK INTRA:                  -0.536
REMARK UNBOUND:                -0.476
REMARK  2 active torsions:
REMARK  status: ('A' for Active; 'I' for Inactive)
REMARK    1  A    between atoms: C_1  and  C_12 
REMARK    2  A    between atoms: CA_11  and  C_16 
ROOT
HETATM    1  C   UNL     1     -25.742  -3.663  64.503  1.00  0.00     0.022 A 
HETATM    2  C   UNL     1     -25.190  -6.828  68.036  1.00  0.00     0.050 C 
HETATM    3  C   UNL     1     -25.079  -5.384  67.583  1.00  0.00    -0.034 A 
HETATM    4  C   UNL     1     -24.627  -4.414  68.462  1.00  0.00     0.009 A 
HETATM    5  C   UNL     1     -24.524  -3.085  68.046  1.00  0.00     0.002 A 
HETATM    6  C   UNL     1     -24.879  -2.722  66.752  1.00  0.00     0.014 A 
HETATM    7  C   UNL     1     -25.335  -3.700  65.872  1.00  0.00     0.005 A 
HETATM    8  C   UNL     1     -25.439  -5.024  66.278  1.00  0.00     0.050 A 
HETATM    9  CA  UNL     1     -26.098  -4.986  64.200  1.00  0.00     0.122 A 
HETATM   10  N   UNL     1     -25.902  -5.755  65.259  1.00  0.00    -0.349 N 
ATOM     11  HN  UNL     1     -26.079  -6.759  65.293  1.00  0.00     0.166 HD
ENDROOT
BRANCH   1  12
HETATM   12  C   UNL     1     -25.874  -2.425  63.660  1.00  0.00    -0.001 A 
HETATM   13  C   UNL     1     -26.814  -1.496  64.082  1.00  0.00     0.014 A 
HETATM   14  C   UNL     1     -26.996  -0.303  63.389  1.00  0.00     0.001 A 
HETATM   15  C   UNL     1     -26.215  -0.033  62.279  1.00  0.00     0.002 A 
HETATM   16  C   UNL     1     -25.263  -0.950  61.870  1.00  0.00     0.024 A 
HETATM   17  C   UNL     1     -25.089  -2.131  62.563  1.00  0.00     0.045 A 
HETATM   18 CL   UNL     1     -23.889  -3.261  62.036  1.00  0.00    -0.083 Cl
ENDBRANCH   1  12
BRANCH   9  19
HETATM   19  C   UNL     1     -26.591  -5.502  62.878  1.00  0.00     0.227 C 
HETATM   20  O   UNL     1     -25.798  -5.741  61.929  1.00  0.00    -0.643 OA
HETATM   21  OXT UNL     1     -27.801  -5.753  62.744  1.00  0.00    -0.643 OA
ENDBRANCH   9  19
TORSDOF 2
ENDMDL
MODEL 5
REMARK VINA RESULT:    -8.012      4.326      6.957
REMARK INTER + INTRA:          -9.424
REMARK INTER:                  -8.862
REMARK INTRA:                  -0.563
REMARK UNBOUND:                -0.476
REMARK  2 active torsions:
REMARK  status: ('A' for Active; 'I' for Inactive)
REMARK    1  A    between atoms: C_1  and  C_12 
REMARK    2  A    between atoms: CA_11  and  C_16 
ROOT
HETATM    1  C   UNL     1     -25.767   1.707  65.511  1.00  0.00     0.022 A 
HETATM    2  C   UNL     1     -24.799   6.383  65.516  1.00  0.00     0.050 C 
HETATM    3  C   UNL     1     -24.682   5.054  64.795  1.00  0.00    -0.034 A 
HETATM    4  C   UNL     1     -24.026   4.980  63.577  1.00  0.00     0.009 A 
HETATM    5  C   UNL     1     -23.918   3.756  62.912  1.00  0.00     0.002 A 
HETATM    6  C   UNL     1     -24.470   2.606  63.461  1.00  0.00     0.014 A 
HETATM    7  C   UNL     1     -25.131   2.684  64.684  1.00  0.00     0.005 A 
HETATM    8  C   UNL     1     -25.241   3.896  65.352  1.00  0.00     0.050 A 
HETATM    9  CA  UNL     1     -26.248   2.430  66.612  1.00  0.00     0.122 A 
HETATM   10  N   UNL     1     -25.918   3.705  66.489  1.00  0.00    -0.349 N 
ATOM     11  HN  UNL     1     -26.146   4.436  67.163  1.00  0.00     0.166 HD
ENDROOT
BRANCH   1  12
HETATM   12  C   UNL     1     -25.969   0.259  65.161  1.00  0.00    -0.001 A 
HETATM   13  C   UNL     1     -26.715   0.005  64.018  1.00  0.00     0.014 A 
HETATM   14  C   UNL     1     -26.937  -1.300  63.589  1.00  0.00     0.001 A 
HETATM   15  C   UNL     1     -26.390  -2.354  64.300  1.00  0.00     0.002 A 
HETATM   16  C   UNL     1     -25.630  -2.100  65.427  1.00  0.00     0.024 A 
HETATM   17  C   UNL     1     -25.413  -0.803  65.846  1.00  0.00     0.045 A 
HETATM   18 CL   UNL     1     -24.455  -0.509  67.257  1.00  0.00    -0.083 Cl
ENDBRANCH   1  12
BRANCH   9  19
HETATM   19  C   UNL     1     -26.994   1.876  67.793  1.00  0.00     0.227 C 
HETATM   20  O   UNL     1     -26.414   1.643  68.886  1.00  0.00    -0.643 OA
HETATM   21  OXT UNL     1     -28.221   1.700  67.700  1.00  0.00    -0.643 OA
ENDBRANCH   9  19
TORSDOF 2
ENDMDL
MODEL 6
REMARK VINA RESULT:    -7.746      5.032      6.217
REMARK INTER + INTRA:          -9.127
REMARK INTER:                  -8.468
REMARK INTRA:                  -0.659
REMARK UNBOUND:                -0.476
REMARK  2 active torsions:
REMARK  status: ('A' for Active; 'I' for Inactive)
REMARK    1  A    between atoms: C_1  and  C_12 
REMARK    2  A    between atoms: CA_11  and  C_16 
ROOT
HETATM    1  C   UNL     1     -25.388   2.730  66.304  1.00  0.00     0.022 A 
HETATM    2  C   UNL     1     -27.232  -0.708  63.551  1.00  0.00     0.050 C 
HETATM    3  C   UNL     1     -26.270   0.459  63.667  1.00  0.00    -0.034 A 
HETATM    4  C   UNL     1     -25.504   0.839  62.577  1.00  0.00     0.009 A 
HETATM    5  C   UNL     1     -24.618   1.913  62.684  1.00  0.00     0.002 A 
HETATM    6  C   UNL     1     -24.492   2.606  63.881  1.00  0.00     0.014 A 
HETATM    7  C   UNL     1     -25.263   2.221  64.975  1.00  0.00     0.005 A 
HETATM    8  C   UNL     1     -26.147   1.155  64.876  1.00  0.00     0.050 A 
HETATM    9  CA  UNL     1     -26.329   1.892  66.921  1.00  0.00     0.122 A 
HETATM   10  N   UNL     1     -26.755   0.986  66.055  1.00  0.00    -0.349 N 
ATOM     11  HN  UNL     1     -27.447   0.264  66.258  1.00  0.00     0.166 HD
ENDROOT
BRANCH   1  12
HETATM   12  C   UNL     1     -24.565   3.838  66.902  1.00  0.00    -0.001 A 
HETATM   13  C   UNL     1     -23.615   3.455  67.838  1.00  0.00     0.014 A 
HETATM   14  C   UNL     1     -22.781   4.398  68.431  1.00  0.00     0.001 A 
HETATM   15  C   UNL     1     -22.887   5.729  68.065  1.00  0.00     0.002 A 
HETATM   16  C   UNL     1     -23.820   6.107  67.116  1.00  0.00     0.024 A 
HETATM   17  C   UNL     1     -24.644   5.165  66.532  1.00  0.00     0.045 A 
HETATM   18 CL   UNL     1     -25.800   5.661  65.344  1.00  0.00    -0.083 Cl
ENDBRANCH   1  12
BRANCH   9  19
HETATM   19  C   UNL     1     -26.834   1.994  68.332  1.00  0.00     0.227 C 
HETATM   20  O   UNL     1     -27.841   2.694  68.620  1.00  0.00    -0.643 OA
HETATM   21  OXT UNL     1     -26.277   1.326  69.220  1.00  0.00    -0.643 OA
ENDBRANCH   9  19
TORSDOF 2
ENDMDL
MODEL 7
REMARK VINA RESULT:    -7.685      2.634      5.177
REMARK INTER + INTRA:          -9.059
REMARK INTER:                  -9.130
REMARK INTRA:                   0.070
REMARK UNBOUND:                -0.476
REMARK  2 active torsions:
REMARK  status: ('A' for Active; 'I' for Inactive)
REMARK    1  A    between atoms: C_1  and  C_12 
REMARK    2  A    between atoms: CA_11  and  C_16 
ROOT
HETATM    1  C   UNL     1     -24.840   1.455  62.722  1.00  0.00     0.022 A 
HETATM    2  C   UNL     1     -24.394   5.796  64.662  1.00  0.00     0.050 C 
HETATM    3  C   UNL     1     -24.609   4.311  64.886  1.00  0.00    -0.034 A 
HETATM    4  C   UNL     1     -24.774   3.819  66.170  1.00  0.00     0.009 A 
HETATM    5  C   UNL     1     -24.972   2.452  66.376  1.00  0.00     0.002 A 
HETATM    6  C   UNL     1     -25.001   1.574  65.300  1.00  0.00     0.014 A 
HETATM    7  C   UNL     1     -24.834   2.072  64.011  1.00  0.00     0.005 A 
HETATM    8  C   UNL     1     -24.637   3.430  63.797  1.00  0.00     0.050 A 
HETATM    9  CA  UNL     1     -24.607   2.506  61.822  1.00  0.00     0.122 A 
HETATM   10  N   UNL     1     -24.499   3.647  62.485  1.00  0.00    -0.349 N 
ATOM     11  HN  UNL     1     -24.335   4.558  62.057  1.00  0.00     0.166 HD
ENDROOT
BRANCH   1  12
HETATM   12  C   UNL     1     -24.939  -0.021  62.455  1.00  0.00    -0.001 A 
HETATM   13  C   UNL     1     -23.932  -0.569  61.672  1.00  0.00     0.014 A 
HETATM   14  C   UNL     1     -23.913  -1.931  61.389  1.00  0.00     0.001 A 
HETATM   15  C   UNL     1     -24.899  -2.750  61.912  1.00  0.00     0.002 A 
HETATM   16  C   UNL     1     -25.891  -2.208  62.708  1.00  0.00     0.024 A 
HETATM   17  C   UNL     1     -25.903  -0.855  62.985  1.00  0.00     0.045 A 
HETATM   18 CL   UNL     1     -27.151  -0.199  63.988  1.00  0.00    -0.083 Cl
ENDBRANCH   1  12
BRANCH   9  19
HETATM   19  C   UNL     1     -24.525   2.405  60.325  1.00  0.00     0.227 C 
HETATM   20  O   UNL     1     -25.561   2.403  59.609  1.00  0.00    -0.643 OA
HETATM   21  OXT UNL     1     -23.406   2.382  59.785  1.00  0.00    -0.643 OA
ENDBRANCH   9  19
TORSDOF 2
ENDMDL
MODEL 8
REMARK VINA RESULT:    -7.631      4.987      5.966
REMARK INTER + INTRA:          -8.999
REMARK INTER:                  -8.317
REMARK INTRA:                  -0.683
REMARK UNBOUND:                -0.476
REMARK  2 active torsions:
REMARK  status: ('A' for Active; 'I' for Inactive)
REMARK    1  A    between atoms: C_1  and  C_12 
REMARK    2  A    between atoms: CA_11  and  C_16 
ROOT
HETATM    1  C   UNL     1     -25.945   0.548  66.973  1.00  0.00     0.022 A 
HETATM    2  C   UNL     1     -25.173  -3.637  64.808  1.00  0.00     0.050 C 
HETATM    3  C   UNL     1     -25.789  -2.253  64.733  1.00  0.00    -0.034 A 
HETATM    4  C   UNL     1     -26.479  -1.860  63.598  1.00  0.00     0.009 A 
HETATM    5  C   UNL     1     -27.046  -0.586  63.528  1.00  0.00     0.002 A 
HETATM    6  C   UNL     1     -26.919   0.300  64.591  1.00  0.00     0.014 A 
HETATM    7  C   UNL     1     -26.223  -0.097  65.729  1.00  0.00     0.005 A 
HETATM    8  C   UNL     1     -25.658  -1.363  65.807  1.00  0.00     0.050 A 
HETATM    9  CA  UNL     1     -25.190  -0.386  67.699  1.00  0.00     0.122 A 
HETATM   10  N   UNL     1     -25.047  -1.493  66.989  1.00  0.00    -0.349 N 
ATOM     11  HN  UNL     1     -24.543  -2.325  67.298  1.00  0.00     0.166 HD
ENDROOT
BRANCH   1  12
HETATM   12  C   UNL     1     -26.289   1.970  67.322  1.00  0.00    -0.001 A 
HETATM   13  C   UNL     1     -27.282   2.141  68.277  1.00  0.00     0.014 A 
HETATM   14  C   UNL     1     -27.657   3.415  68.692  1.00  0.00     0.001 A 
HETATM   15  C   UNL     1     -27.017   4.521  68.161  1.00  0.00     0.002 A 
HETATM   16  C   UNL     1     -26.014   4.350  67.225  1.00  0.00     0.024 A 
HETATM   17  C   UNL     1     -25.647   3.082  66.818  1.00  0.00     0.045 A 
HETATM   18 CL   UNL     1     -24.385   2.892  65.649  1.00  0.00    -0.083 Cl
ENDBRANCH   1  12
BRANCH   9  19
HETATM   19  C   UNL     1     -24.643  -0.214  69.087  1.00  0.00     0.227 C 
HETATM   20  O   UNL     1     -23.414  -0.033  69.292  1.00  0.00    -0.643 OA
HETATM   21  OXT UNL     1     -25.434  -0.192  70.046  1.00  0.00    -0.643 OA
ENDBRANCH   9  19
TORSDOF 2
ENDMDL
MODEL 9
REMARK VINA RESULT:    -7.597      4.723      8.329
REMARK INTER + INTRA:          -8.960
REMARK INTER:                  -8.323
REMARK INTRA:                  -0.637
REMARK UNBOUND:                -0.476
REMARK  2 active torsions:
REMARK  status: ('A' for Active; 'I' for Inactive)
REMARK    1  A    between atoms: C_1  and  C_12 
REMARK    2  A    between atoms: CA_11  and  C_16 
ROOT
HETATM    1  C   UNL     1     -25.615  -4.671  65.189  1.00  0.00     0.022 A 
HETATM    2  C   UNL     1     -26.202  -0.040  64.184  1.00  0.00     0.050 C 
HETATM    3  C   UNL     1     -25.777  -1.085  65.198  1.00  0.00    -0.034 A 
HETATM    4  C   UNL     1     -25.336  -0.696  66.453  1.00  0.00     0.009 A 
HETATM    5  C   UNL     1     -24.945  -1.657  67.387  1.00  0.00     0.002 A 
HETATM    6  C   UNL     1     -24.988  -3.008  67.068  1.00  0.00     0.014 A 
HETATM    7  C   UNL     1     -25.430  -3.396  65.805  1.00  0.00     0.005 A 
HETATM    8  C   UNL     1     -25.822  -2.446  64.871  1.00  0.00     0.050 A 
HETATM    9  CA  UNL     1     -26.079  -4.380  63.897  1.00  0.00     0.122 A 
HETATM   10  N   UNL     1     -26.193  -3.070  63.748  1.00  0.00    -0.349 N 
ATOM     11  HN  UNL     1     -26.518  -2.604  62.901  1.00  0.00     0.166 HD
ENDROOT
BRANCH   1  12
HETATM   12  C   UNL     1     -25.246  -5.999  65.790  1.00  0.00    -0.001 A 
HETATM   13  C   UNL     1     -26.299  -6.864  66.053  1.00  0.00     0.014 A 
HETATM   14  C   UNL     1     -26.064  -8.129  66.583  1.00  0.00     0.001 A 
HETATM   15  C   UNL     1     -24.764  -8.535  66.830  1.00  0.00     0.002 A 
HETATM   16  C   UNL     1     -23.714  -7.681  66.548  1.00  0.00     0.024 A 
HETATM   17  C   UNL     1     -23.954  -6.427  66.022  1.00  0.00     0.045 A 
HETATM   18 CL   UNL     1     -22.624  -5.377  65.673  1.00  0.00    -0.083 Cl
ENDBRANCH   1  12
BRANCH   9  19
HETATM   19  C   UNL     1     -26.442  -5.371  62.828  1.00  0.00     0.227 C 
HETATM   20  O   UNL     1     -25.597  -5.766  61.983  1.00  0.00    -0.643 OA
HETATM   21  OXT UNL     1     -27.588  -5.853  62.820  1.00  0.00    -0.643 OA
ENDBRANCH   9  19
TORSDOF 2
ENDMDL
MODEL 10
REMARK VINA RESULT:    -7.595      4.795      5.514
REMARK INTER + INTRA:          -8.959
REMARK INTER:                  -8.241
REMARK INTRA:                  -0.718
REMARK UNBOUND:                -0.476
REMARK  2 active torsions:
REMARK  status: ('A' for Active; 'I' for Inactive)
REMARK    1  A    between atoms: C_1  and  C_12 
REMARK    2  A    between atoms: CA_11  and  C_16 
ROOT
HETATM    1  C   UNL     1     -25.497   0.952  66.618  1.00  0.00     0.022 A 
HETATM    2  C   UNL     1     -25.609  -3.575  65.105  1.00  0.00     0.050 C 
HETATM    3  C   UNL     1     -25.921  -2.121  64.810  1.00  0.00    -0.034 A 
HETATM    4  C   UNL     1     -26.509  -1.766  63.606  1.00  0.00     0.009 A 
HETATM    5  C   UNL     1     -26.796  -0.427  63.334  1.00  0.00     0.002 A 
HETATM    6  C   UNL     1     -26.492   0.561  64.262  1.00  0.00     0.014 A 
HETATM    7  C   UNL     1     -25.899   0.202  65.470  1.00  0.00     0.005 A 
HETATM    8  C   UNL     1     -25.612  -1.128  65.748  1.00  0.00     0.050 A 
HETATM    9  CA  UNL     1     -24.958   0.001  67.496  1.00  0.00     0.122 A 
HETATM   10  N   UNL     1     -25.046  -1.205  66.958  1.00  0.00    -0.349 N 
ATOM     11  HN  UNL     1     -24.729  -2.068  67.401  1.00  0.00     0.166 HD
ENDROOT
BRANCH   1  12
HETATM   12  C   UNL     1     -25.539   2.450  66.746  1.00  0.00    -0.001 A 
HETATM   13  C   UNL     1     -24.668   3.157  65.928  1.00  0.00     0.014 A 
HETATM   14  C   UNL     1     -24.646   4.548  65.947  1.00  0.00     0.001 A 
HETATM   15  C   UNL     1     -25.518   5.233  66.777  1.00  0.00     0.002 A 
HETATM   16  C   UNL     1     -26.399   4.528  67.576  1.00  0.00     0.024 A 
HETATM   17  C   UNL     1     -26.415   3.148  67.552  1.00  0.00     0.045 A 
HETATM   18 CL   UNL     1     -27.530   2.288  68.557  1.00  0.00    -0.083 Cl
ENDBRANCH   1  12
BRANCH   9  19
HETATM   19  C   UNL     1     -24.393   0.260  68.863  1.00  0.00     0.227 C 
HETATM   20  O   UNL     1     -25.128   0.278  69.886  1.00  0.00    -0.643 OA
HETATM   21  OXT UNL     1     -23.164   0.401  68.989  1.00  0.00    -0.643 OA
ENDBRANCH   9  19
TORSDOF 2
ENDMDL
MODEL 11
REMARK VINA RESULT:    -7.492      9.054     10.790
REMARK INTER + INTRA:          -8.844
REMARK INTER:                  -8.154
REMARK INTRA:                  -0.690
REMARK UNBOUND:                -0.476
REMARK  2 active torsions:
REMARK  status: ('A' for Active; 'I' for Inactive)
REMARK    1  A    between atoms: C_1  and  C_12 
REMARK    2  A    between atoms: CA_11  and  C_16 
ROOT
HETATM    1  C   UNL     1     -27.114   9.349  67.788  1.00  0.00     0.022 A 
HETATM    2  C   UNL     1     -26.625   4.624  68.272  1.00  0.00     0.050 C 
HETATM    3  C   UNL     1     -27.418   5.869  68.619  1.00  0.00    -0.034 A 
HETATM    4  C   UNL     1     -28.531   5.779  69.440  1.00  0.00     0.009 A 
HETATM    5  C   UNL     1     -29.261   6.926  69.760  1.00  0.00     0.002 A 
HETATM    6  C   UNL     1     -28.883   8.164  69.256  1.00  0.00     0.014 A 
HETATM    7  C   UNL     1     -27.766   8.251  68.430  1.00  0.00     0.005 A 
HETATM    8  C   UNL     1     -27.034   7.116  68.108  1.00  0.00     0.050 A 
HETATM    9  CA  UNL     1     -26.044   8.770  67.090  1.00  0.00     0.122 A 
HETATM   10  N   UNL     1     -26.024   7.465  67.305  1.00  0.00    -0.349 N 
ATOM     11  HN  UNL     1     -25.338   6.818  66.914  1.00  0.00     0.166 HD
ENDROOT
BRANCH   1  12
HETATM   12  C   UNL     1     -27.595  10.774  67.782  1.00  0.00    -0.001 A 
HETATM   13  C   UNL     1     -28.794  11.011  67.125  1.00  0.00     0.014 A 
HETATM   14  C   UNL     1     -29.343  12.289  67.085  1.00  0.00     0.001 A 
HETATM   15  C   UNL     1     -28.693  13.330  67.725  1.00  0.00     0.002 A 
HETATM   16  C   UNL     1     -27.509  13.090  68.397  1.00  0.00     0.024 A 
HETATM   17  C   UNL     1     -26.971  11.819  68.433  1.00  0.00     0.045 A 
HETATM   18 CL   UNL     1     -25.490  11.541  69.284  1.00  0.00    -0.083 Cl
ENDBRANCH   1  12
BRANCH   9  19
HETATM   19  C   UNL     1     -25.027   9.489  66.250  1.00  0.00     0.227 C 
HETATM   20  O   UNL     1     -23.821   9.572  66.604  1.00  0.00    -0.643 OA
HETATM   21  OXT UNL     1     -25.377   9.960  65.154  1.00  0.00    -0.643 OA
ENDBRANCH   9  19
TORSDOF 2
ENDMDL
MODEL 12
REMARK VINA RESULT:    -7.430      4.177      4.918
REMARK INTER + INTRA:          -8.774
REMARK INTER:                  -8.492
REMARK INTRA:                  -0.282
REMARK UNBOUND:                -0.476
REMARK  2 active torsions:
REMARK  status: ('A' for Active; 'I' for Inactive)
REMARK    1  A    between atoms: C_1  and  C_12 
REMARK    2  A    between atoms: CA_11  and  C_16 
ROOT
HETATM    1  C   UNL     1     -25.316   1.407  66.014  1.00  0.00     0.022 A 
HETATM    2  C   UNL     1     -25.536  -3.332  65.470  1.00  0.00     0.050 C 
HETATM    3  C   UNL     1     -25.858  -1.964  64.901  1.00  0.00    -0.034 A 
HETATM    4  C   UNL     1     -26.513  -1.853  63.686  1.00  0.00     0.009 A 
HETATM    5  C   UNL     1     -26.810  -0.593  63.162  1.00  0.00     0.002 A 
HETATM    6  C   UNL     1     -26.447   0.559  63.849  1.00  0.00     0.014 A 
HETATM    7  C   UNL     1     -25.787   0.444  65.069  1.00  0.00     0.005 A 
HETATM    8  C   UNL     1     -25.490  -0.805  65.598  1.00  0.00     0.050 A 
HETATM    9  CA  UNL     1     -24.731   0.646  67.037  1.00  0.00     0.122 A 
HETATM   10  N   UNL     1     -24.856  -0.643  66.764  1.00  0.00    -0.349 N 
ATOM     11  HN  UNL     1     -24.518  -1.402  67.356  1.00  0.00     0.166 HD
ENDROOT
BRANCH   1  12
HETATM   12  C   UNL     1     -25.343   2.899  65.835  1.00  0.00    -0.001 A 
HETATM   13  C   UNL     1     -25.967   3.624  66.840  1.00  0.00     0.014 A 
HETATM   14  C   UNL     1     -26.023   5.013  66.786  1.00  0.00     0.001 A 
HETATM   15  C   UNL     1     -25.429   5.679  65.728  1.00  0.00     0.002 A 
HETATM   16  C   UNL     1     -24.789   4.958  64.736  1.00  0.00     0.024 A 
HETATM   17  C   UNL     1     -24.738   3.579  64.797  1.00  0.00     0.045 A 
HETATM   18 CL   UNL     1     -23.927   2.698  63.548  1.00  0.00    -0.083 Cl
ENDBRANCH   1  12
BRANCH   9  19
HETATM   19  C   UNL     1     -24.086   1.170  68.289  1.00  0.00     0.227 C 
HETATM   20  O   UNL     1     -23.099   1.950  68.243  1.00  0.00    -0.643 OA
HETATM   21  OXT UNL     1     -24.579   0.869  69.390  1.00  0.00    -0.643 OA
ENDBRANCH   9  19
TORSDOF 2
ENDMDL
MODEL 13
REMARK VINA RESULT:    -7.369      9.318     11.503
REMARK INTER + INTRA:          -8.706
REMARK INTER:                  -7.955
REMARK INTRA:                  -0.751
REMARK UNBOUND:                -0.476
REMARK  2 active torsions:
REMARK  status: ('A' for Active; 'I' for Inactive)
REMARK    1  A    between atoms: C_1  and  C_12 
REMARK    2  A    between atoms: CA_11  and  C_16 
ROOT
HETATM    1  C   UNL     1     -26.695   8.824  68.095  1.00  0.00     0.022 A 
HETATM    2  C   UNL     1     -29.741  12.243  66.742  1.00  0.00     0.050 C 
HETATM    3  C   UNL     1     -29.439  11.106  67.698  1.00  0.00    -0.034 A 
HETATM    4  C   UNL     1     -30.350  10.766  68.684  1.00  0.00     0.009 A 
HETATM    5  C   UNL     1     -30.072   9.718  69.565  1.00  0.00     0.002 A 
HETATM    6  C   UNL     1     -28.881   9.012  69.465  1.00  0.00     0.014 A 
HETATM    7  C   UNL     1     -27.966   9.357  68.474  1.00  0.00     0.005 A 
HETATM    8  C   UNL     1     -28.235  10.396  67.593  1.00  0.00     0.050 A 
HETATM    9  CA  UNL     1     -26.279   9.624  67.020  1.00  0.00     0.122 A 
HETATM   10  N   UNL     1     -27.206  10.528  66.750  1.00  0.00    -0.349 N 
ATOM     11  HN  UNL     1     -27.144  11.225  66.007  1.00  0.00     0.166 HD
ENDROOT
BRANCH   1  12
HETATM   12  C   UNL     1     -25.950   7.734  68.814  1.00  0.00    -0.001 A 
HETATM   13  C   UNL     1     -24.940   8.148  69.672  1.00  0.00     0.014 A 
HETATM   14  C   UNL     1     -24.208   7.222  70.408  1.00  0.00     0.001 A 
HETATM   15  C   UNL     1     -24.506   5.874  70.298  1.00  0.00     0.002 A 
HETATM   16  C   UNL     1     -25.526   5.464  69.459  1.00  0.00     0.024 A 
HETATM   17  C   UNL     1     -26.248   6.389  68.732  1.00  0.00     0.045 A 
HETATM   18 CL   UNL     1     -27.523   5.852  67.693  1.00  0.00    -0.083 Cl
ENDBRANCH   1  12
BRANCH   9  19
HETATM   19  C   UNL     1     -25.003   9.484  66.238  1.00  0.00     0.227 C 
HETATM   20  O   UNL     1     -23.934  10.028  66.622  1.00  0.00    -0.643 OA
HETATM   21  OXT UNL     1     -24.996   8.767  65.223  1.00  0.00    -0.643 OA
ENDBRANCH   9  19
TORSDOF 2
ENDMDL
MODEL 14
REMARK VINA RESULT:    -7.274     10.212     12.006
REMARK INTER + INTRA:          -8.600
REMARK INTER:                  -8.325
REMARK INTRA:                  -0.275
REMARK UNBOUND:                -0.476
REMARK  2 active torsions:
REMARK  status: ('A' for Active; 'I' for Inactive)
REMARK    1  A    between atoms: C_1  and  C_12 
REMARK    2  A    between atoms: CA_11  and  C_16 
ROOT
HETATM    1  C   UNL     1     -28.571   9.223  68.705  1.00  0.00     0.022 A 
HETATM    2  C   UNL     1     -27.588   4.670  69.755  1.00  0.00     0.050 C 
HETATM    3  C   UNL     1     -27.197   5.918  68.987  1.00  0.00    -0.034 A 
HETATM    4  C   UNL     1     -26.080   5.909  68.168  1.00  0.00     0.009 A 
HETATM    5  C   UNL     1     -25.720   7.057  67.460  1.00  0.00     0.002 A 
HETATM    6  C   UNL     1     -26.473   8.219  67.574  1.00  0.00     0.014 A 
HETATM    7  C   UNL     1     -27.594   8.226  68.400  1.00  0.00     0.005 A 
HETATM    8  C   UNL     1     -27.959   7.087  69.105  1.00  0.00     0.050 A 
HETATM    9  CA  UNL     1     -29.441   8.603  69.615  1.00  0.00     0.122 A 
HETATM   10  N   UNL     1     -29.057   7.354  69.821  1.00  0.00    -0.349 N 
ATOM     11  HN  UNL     1     -29.529   6.691  70.436  1.00  0.00     0.166 HD
ENDROOT
BRANCH   1  12
HETATM   12  C   UNL     1     -28.545  10.651  68.235  1.00  0.00    -0.001 A 
HETATM   13  C   UNL     1     -29.680  11.096  67.572  1.00  0.00     0.014 A 
HETATM   14  C   UNL     1     -29.771  12.409  67.121  1.00  0.00     0.001 A 
HETATM   15  C   UNL     1     -28.725  13.285  67.356  1.00  0.00     0.002 A 
HETATM   16  C   UNL     1     -27.603  12.847  68.035  1.00  0.00     0.024 A 
HETATM   17  C   UNL     1     -27.520  11.542  68.480  1.00  0.00     0.045 A 
HETATM   18 CL   UNL     1     -26.108  11.018  69.331  1.00  0.00    -0.083 Cl
ENDBRANCH   1  12
BRANCH   9  19
HETATM   19  C   UNL     1     -30.659   9.213  70.250  1.00  0.00     0.227 C 
HETATM   20  O   UNL     1     -31.752   9.296  69.631  1.00  0.00    -0.643 OA
HETATM   21  OXT UNL     1     -30.594   9.589  71.433  1.00  0.00    -0.643 OA
ENDBRANCH   9  19
TORSDOF 2
ENDMDL
