REMARK  11 active torsions:
REMARK  status: ('A' for Active; 'I' for Inactive)
REMARK    1  A    between atoms: C_1  and  C_3 
REMARK    2  A    between atoms: C_1  and  O_2 
REMARK    3  A    between atoms: O_2  and  P_18 
REMARK    4  A    between atoms: C_5  and  C_7 
REMARK    5  A    between atoms: C_7  and  C_8 
REMARK    6  A    between atoms: C_8  and  C_9 
REMARK    7  A    between atoms: C_10  and  C_12 
REMARK    8  A    between atoms: C_12  and  C_13 
REMARK    9  A    between atoms: C_13  and  C_14 
REMARK   10  A    between atoms: P_18  and  O_21 
REMARK   11  A    between atoms: O_21  and  P_22 
ROOT
HETATM    1  C   UNL     1     -21.007  -0.023 -19.723  1.00  0.00     0.120 C 
HETATM    2  F   UNL     1     -19.693   0.239 -19.510  1.00  0.00    -0.208 F 
HETATM    3  C   UNL     1     -21.964   0.736 -19.205  1.00  0.00    -0.047 C 
HETATM    4  C   UNL     1     -23.386   0.675 -19.660  1.00  0.00     0.046 C 
ENDROOT
BRANCH   3   5
HETATM    5  C   UNL     1     -21.678   1.702 -18.091  1.00  0.00     0.040 C 
BRANCH   5   6
HETATM    6  C   UNL     1     -21.652   1.046 -16.731  1.00  0.00     0.032 C 
BRANCH   6   7
HETATM    7  C   UNL     1     -20.622  -0.037 -16.628  1.00  0.00    -0.024 C 
HETATM    8  C   UNL     1     -20.793  -1.310 -16.288  1.00  0.00    -0.087 C 
HETATM    9  C   UNL     1     -21.998  -1.821 -15.559  1.00  0.00     0.043 C 
BRANCH   8  10
HETATM   10  C   UNL     1     -19.765  -2.349 -16.638  1.00  0.00     0.037 C 
BRANCH  10  11
HETATM   11  C   UNL     1     -19.279  -3.197 -15.482  1.00  0.00     0.031 C 
BRANCH  11  12
HETATM   12  C   UNL     1     -18.204  -2.528 -14.692  1.00  0.00    -0.024 C 
HETATM   13  C   UNL     1     -18.310  -1.495 -13.873  1.00  0.00    -0.091 C 
HETATM   14  C   UNL     1     -19.600  -1.093 -13.240  1.00  0.00     0.042 C 
HETATM   15  C   UNL     1     -17.143  -0.632 -13.509  1.00  0.00     0.042 C 
ENDBRANCH  11  12
ENDBRANCH  10  11
ENDBRANCH   8  10
ENDBRANCH   6   7
ENDBRANCH   5   6
ENDBRANCH   3   5
BRANCH   1  16
HETATM   16  C   UNL     1     -21.231  -1.223 -20.587  1.00  0.00     0.251 C 
BRANCH  16  17
HETATM   17  O   UNL     1     -20.663  -0.943 -21.848  1.00  0.00    -0.283 OA
BRANCH  17  18
HETATM   18  P   UNL     1     -20.890  -1.928 -23.082  1.00  0.00     0.418 P 
HETATM   19  O   UNL     1     -22.010  -2.866 -22.817  1.00  0.00    -0.624 OA
HETATM   20  O   UNL     1     -20.935  -0.995 -24.234  1.00  0.00    -0.624 OA
BRANCH  18  21
HETATM   21  O   UNL     1     -19.507  -2.733 -23.067  1.00  0.00    -0.173 OA
BRANCH  21  22
HETATM   22  P   UNL     1     -18.728  -3.724 -24.061  1.00  0.00     0.431 P 
HETATM   23  O   UNL     1     -19.311  -3.521 -25.407  1.00  0.00    -0.616 OA
HETATM   24  O   UNL     1     -18.974  -5.098 -23.542  1.00  0.00    -0.616 OA
HETATM   25  O   UNL     1     -17.305  -3.314 -23.977  1.00  0.00    -0.616 OA
ENDBRANCH  21  22
ENDBRANCH  18  21
ENDBRANCH  17  18
ENDBRANCH  16  17
ENDBRANCH   1  16
TORSDOF 11
