MODEL 1
REMARK VINA RESULT:    -8.129      0.000      0.000
REMARK INTER + INTRA:         -14.386
REMARK INTER:                 -13.119
REMARK INTRA:                  -1.267
REMARK UNBOUND:                -1.267
REMARK  12 active torsions:
REMARK  status: ('A' for Active; 'I' for Inactive)
REMARK    1  A    between atoms: C_1  and  O_7 
REMARK    2  A    between atoms: C_1  and  C_2 
REMARK    3  A    between atoms: C_2  and  C_3 
REMARK    4  A    between atoms: C_2  and  C_6 
REMARK    5  A    between atoms: C_2  and  O_8 
REMARK    6  A    between atoms: C_3  and  C_4 
REMARK    7  A    between atoms: C_3  and  O_10 
REMARK    8  A    between atoms: C_4  and  C_5 
REMARK    9  A    between atoms: C_4  and  O_12 
REMARK   10  A    between atoms: C_5  and  O_14 
REMARK   11  A    between atoms: O_7  and  P_17 
REMARK   12  A    between atoms: O_14  and  P_18 
ROOT
HETATM    1  C   UNL     1      79.221  71.735  37.477  1.00  0.00     0.196 C 
ENDROOT
BRANCH   1   2
HETATM    2  C   UNL     1      79.484  72.686  36.315  1.00  0.00     0.234 C 
BRANCH   2   3
HETATM    3  O   UNL     1      79.848  73.914  36.828  1.00  0.00    -0.279 OA
BRANCH   3   4
HETATM    4  P   UNL     1      81.463  74.398  36.411  1.00  0.00     0.422 P 
HETATM    5  O   UNL     1      82.255  74.018  37.651  1.00  0.00    -0.617 OA
HETATM    6  O   UNL     1      81.418  75.909  36.131  1.00  0.00    -0.617 OA
HETATM    7  O   UNL     1      81.758  73.529  35.190  1.00  0.00    -0.617 OA
ENDBRANCH   3   4
ENDBRANCH   2   3
ENDBRANCH   1   2
BRANCH   1   8
HETATM    8  C   UNL     1      77.774  71.963  38.049  1.00  0.00     0.196 C 
BRANCH   8   9
HETATM    9  C   UNL     1      76.696  72.186  36.950  1.00  0.00     0.174 C 
BRANCH   9  10
HETATM   10  C   UNL     1      75.516  71.167  37.101  1.00  0.00     0.217 C 
BRANCH  10  11
HETATM   11  O   UNL     1      74.841  71.137  35.848  1.00  0.00    -0.280 OA
BRANCH  11  12
HETATM   12  P   UNL     1      73.238  71.706  35.865  1.00  0.00     0.422 P 
HETATM   13  O   UNL     1      72.800  71.573  34.406  1.00  0.00    -0.617 OA
HETATM   14  O   UNL     1      73.250  73.115  36.418  1.00  0.00    -0.617 OA
HETATM   15  O   UNL     1      72.578  70.685  36.789  1.00  0.00    -0.617 OA
ENDBRANCH  11  12
ENDBRANCH  10  11
ENDBRANCH   9  10
BRANCH   9  16
HETATM   16  O   UNL     1      76.171  73.484  37.010  1.00  0.00    -0.391 OA
ATOM     17  HO  UNL     1      76.007  73.747  37.907  1.00  0.00     0.210 HD
ENDBRANCH   9  16
ENDBRANCH   8   9
BRANCH   8  18
HETATM   18  O   UNL     1      77.461  70.876  38.878  1.00  0.00    -0.389 OA
ATOM     19  HO  UNL     1      77.804  70.989  39.757  1.00  0.00     0.210 HD
ENDBRANCH   8  18
ENDBRANCH   1   8
BRANCH   1  20
HETATM   20  C   UNL     1      79.379  70.268  36.975  1.00  0.00     0.214 C 
HETATM   21  O   UNL     1      79.881  69.459  37.796  1.00  0.00    -0.646 OA
HETATM   22  O   UNL     1      79.010  69.964  35.824  1.00  0.00    -0.646 OA
ENDBRANCH   1  20
BRANCH   1  23
HETATM   23  O   UNL     1      80.144  71.898  38.515  1.00  0.00    -0.375 OA
ATOM     24  HO  UNL     1      80.853  72.484  38.278  1.00  0.00     0.211 HD
ENDBRANCH   1  23
TORSDOF 12
ENDMDL
MODEL 2
REMARK VINA RESULT:    -8.014      0.522      1.172
REMARK INTER + INTRA:         -14.201
REMARK INTER:                 -13.008
REMARK INTRA:                  -1.193
REMARK UNBOUND:                -1.267
REMARK  12 active torsions:
REMARK  status: ('A' for Active; 'I' for Inactive)
REMARK    1  A    between atoms: C_1  and  O_7 
REMARK    2  A    between atoms: C_1  and  C_2 
REMARK    3  A    between atoms: C_2  and  C_3 
REMARK    4  A    between atoms: C_2  and  C_6 
REMARK    5  A    between atoms: C_2  and  O_8 
REMARK    6  A    between atoms: C_3  and  C_4 
REMARK    7  A    between atoms: C_3  and  O_10 
REMARK    8  A    between atoms: C_4  and  C_5 
REMARK    9  A    between atoms: C_4  and  O_12 
REMARK   10  A    between atoms: C_5  and  O_14 
REMARK   11  A    between atoms: O_7  and  P_17 
REMARK   12  A    between atoms: O_14  and  P_18 
ROOT
HETATM    1  C   UNL     1      79.338  71.708  37.540  1.00  0.00     0.196 C 
ENDROOT
BRANCH   1   2
HETATM    2  C   UNL     1      79.711  72.693  36.439  1.00  0.00     0.234 C 
BRANCH   2   3
HETATM    3  O   UNL     1      79.752  73.962  36.980  1.00  0.00    -0.279 OA
BRANCH   3   4
HETATM    4  P   UNL     1      81.322  74.699  36.925  1.00  0.00     0.422 P 
HETATM    5  O   UNL     1      81.241  75.738  38.031  1.00  0.00    -0.617 OA
HETATM    6  O   UNL     1      81.488  75.290  35.516  1.00  0.00    -0.617 OA
HETATM    7  O   UNL     1      82.245  73.523  37.239  1.00  0.00    -0.617 OA
ENDBRANCH   3   4
ENDBRANCH   2   3
ENDBRANCH   1   2
BRANCH   1   8
HETATM    8  C   UNL     1      77.871  71.980  38.039  1.00  0.00     0.196 C 
BRANCH   8   9
HETATM    9  C   UNL     1      76.848  72.187  36.886  1.00  0.00     0.174 C 
BRANCH   9  10
HETATM   10  C   UNL     1      75.666  71.163  36.989  1.00  0.00     0.217 C 
BRANCH  10  11
HETATM   11  O   UNL     1      74.965  71.226  35.753  1.00  0.00    -0.280 OA
BRANCH  11  12
HETATM   12  P   UNL     1      73.356  71.769  35.849  1.00  0.00     0.422 P 
HETATM   13  O   UNL     1      73.502  73.236  36.255  1.00  0.00    -0.617 OA
HETATM   14  O   UNL     1      72.625  70.887  36.838  1.00  0.00    -0.617 OA
HETATM   15  O   UNL     1      72.902  71.586  34.403  1.00  0.00    -0.617 OA
ENDBRANCH  11  12
ENDBRANCH  10  11
ENDBRANCH   9  10
BRANCH   9  16
HETATM   16  O   UNL     1      76.315  73.483  36.907  1.00  0.00    -0.391 OA
ATOM     17  HO  UNL     1      75.393  73.479  36.683  1.00  0.00     0.210 HD
ENDBRANCH   9  16
ENDBRANCH   8   9
BRANCH   8  18
HETATM   18  O   UNL     1      77.501  70.927  38.888  1.00  0.00    -0.389 OA
ATOM     19  HO  UNL     1      78.254  70.435  39.194  1.00  0.00     0.210 HD
ENDBRANCH   8  18
ENDBRANCH   1   8
BRANCH   1  20
HETATM   20  C   UNL     1      79.459  70.257  36.984  1.00  0.00     0.214 C 
HETATM   21  O   UNL     1      79.918  69.401  37.782  1.00  0.00    -0.646 OA
HETATM   22  O   UNL     1      79.104  70.011  35.815  1.00  0.00    -0.646 OA
ENDBRANCH   1  20
BRANCH   1  23
HETATM   23  O   UNL     1      80.205  71.784  38.635  1.00  0.00    -0.375 OA
ATOM     24  HO  UNL     1      79.748  71.986  39.443  1.00  0.00     0.211 HD
ENDBRANCH   1  23
TORSDOF 12
ENDMDL
MODEL 3
REMARK VINA RESULT:    -7.676      2.116      7.269
REMARK INTER + INTRA:         -13.656
REMARK INTER:                 -12.240
REMARK INTRA:                  -1.415
REMARK UNBOUND:                -1.267
REMARK  12 active torsions:
REMARK  status: ('A' for Active; 'I' for Inactive)
REMARK    1  A    between atoms: C_1  and  O_7 
REMARK    2  A    between atoms: C_1  and  C_2 
REMARK    3  A    between atoms: C_2  and  C_3 
REMARK    4  A    between atoms: C_2  and  C_6 
REMARK    5  A    between atoms: C_2  and  O_8 
REMARK    6  A    between atoms: C_3  and  C_4 
REMARK    7  A    between atoms: C_3  and  O_10 
REMARK    8  A    between atoms: C_4  and  C_5 
REMARK    9  A    between atoms: C_4  and  O_12 
REMARK   10  A    between atoms: C_5  and  O_14 
REMARK   11  A    between atoms: O_7  and  P_17 
REMARK   12  A    between atoms: O_14  and  P_18 
ROOT
HETATM    1  C   UNL     1      74.328  71.516  37.242  1.00  0.00     0.196 C 
ENDROOT
BRANCH   1   2
HETATM    2  C   UNL     1      74.519  70.025  36.991  1.00  0.00     0.234 C 
BRANCH   2   3
HETATM    3  O   UNL     1      73.332  69.378  37.270  1.00  0.00    -0.279 OA
BRANCH   3   4
HETATM    4  P   UNL     1      73.327  67.699  36.829  1.00  0.00     0.422 P 
HETATM    5  O   UNL     1      71.872  67.307  37.028  1.00  0.00    -0.617 OA
HETATM    6  O   UNL     1      74.307  66.986  37.774  1.00  0.00    -0.617 OA
HETATM    7  O   UNL     1      73.767  67.745  35.367  1.00  0.00    -0.617 OA
ENDBRANCH   3   4
ENDBRANCH   2   3
ENDBRANCH   1   2
BRANCH   1   8
HETATM    8  C   UNL     1      75.724  72.230  37.367  1.00  0.00     0.196 C 
BRANCH   8   9
HETATM    9  C   UNL     1      76.925  71.244  37.430  1.00  0.00     0.174 C 
BRANCH   9  10
HETATM   10  C   UNL     1      78.081  71.701  36.476  1.00  0.00     0.217 C 
BRANCH  10  11
HETATM   11  O   UNL     1      78.634  72.882  37.044  1.00  0.00    -0.280 OA
BRANCH  11  12
HETATM   12  P   UNL     1      80.305  72.829  37.362  1.00  0.00     0.422 P 
HETATM   13  O   UNL     1      80.632  74.266  37.773  1.00  0.00    -0.617 OA
HETATM   14  O   UNL     1      81.002  72.331  36.115  1.00  0.00    -0.617 OA
HETATM   15  O   UNL     1      80.346  71.845  38.529  1.00  0.00    -0.617 OA
ENDBRANCH  11  12
ENDBRANCH  10  11
ENDBRANCH   9  10
BRANCH   9  16
HETATM   16  O   UNL     1      77.436  71.149  38.732  1.00  0.00    -0.391 OA
ATOM     17  HO  UNL     1      76.932  70.538  39.255  1.00  0.00     0.210 HD
ENDBRANCH   9  16
ENDBRANCH   8   9
BRANCH   8  18
HETATM   18  O   UNL     1      75.842  73.135  36.303  1.00  0.00    -0.389 OA
ATOM     19  HO  UNL     1      75.971  72.694  35.472  1.00  0.00     0.210 HD
ENDBRANCH   8  18
ENDBRANCH   1   8
BRANCH   1  20
HETATM   20  C   UNL     1      73.512  72.126  36.063  1.00  0.00     0.214 C 
HETATM   21  O   UNL     1      72.911  73.203  36.311  1.00  0.00    -0.646 OA
HETATM   22  O   UNL     1      73.492  71.548  34.959  1.00  0.00    -0.646 OA
ENDBRANCH   1  20
BRANCH   1  23
HETATM   23  O   UNL     1      73.590  71.768  38.403  1.00  0.00    -0.375 OA
ATOM     24  HO  UNL     1      72.683  71.977  38.216  1.00  0.00     0.211 HD
ENDBRANCH   1  23
TORSDOF 12
ENDMDL
MODEL 4
REMARK VINA RESULT:    -7.617      1.486      1.930
REMARK INTER + INTRA:         -13.560
REMARK INTER:                 -11.944
REMARK INTRA:                  -1.616
REMARK UNBOUND:                -1.267
REMARK  12 active torsions:
REMARK  status: ('A' for Active; 'I' for Inactive)
REMARK    1  A    between atoms: C_1  and  O_7 
REMARK    2  A    between atoms: C_1  and  C_2 
REMARK    3  A    between atoms: C_2  and  C_3 
REMARK    4  A    between atoms: C_2  and  C_6 
REMARK    5  A    between atoms: C_2  and  O_8 
REMARK    6  A    between atoms: C_3  and  C_4 
REMARK    7  A    between atoms: C_3  and  O_10 
REMARK    8  A    between atoms: C_4  and  C_5 
REMARK    9  A    between atoms: C_4  and  O_12 
REMARK   10  A    between atoms: C_5  and  O_14 
REMARK   11  A    between atoms: O_7  and  P_17 
REMARK   12  A    between atoms: O_14  and  P_18 
ROOT
HETATM    1  C   UNL     1      79.272  71.726  37.459  1.00  0.00     0.196 C 
ENDROOT
BRANCH   1   2
HETATM    2  C   UNL     1      79.532  72.662  36.285  1.00  0.00     0.234 C 
BRANCH   2   3
HETATM    3  O   UNL     1      79.907  73.894  36.781  1.00  0.00    -0.279 OA
BRANCH   3   4
HETATM    4  P   UNL     1      81.503  74.387  36.308  1.00  0.00     0.422 P 
HETATM    5  O   UNL     1      82.351  73.947  37.490  1.00  0.00    -0.617 OA
HETATM    6  O   UNL     1      81.456  75.908  36.097  1.00  0.00    -0.617 OA
HETATM    7  O   UNL     1      81.731  73.571  35.037  1.00  0.00    -0.617 OA
ENDBRANCH   3   4
ENDBRANCH   2   3
ENDBRANCH   1   2
BRANCH   1   8
HETATM    8  C   UNL     1      77.810  71.929  38.003  1.00  0.00     0.196 C 
BRANCH   8   9
HETATM    9  C   UNL     1      76.771  72.253  36.892  1.00  0.00     0.174 C 
BRANCH   9  10
HETATM   10  C   UNL     1      75.571  71.246  36.930  1.00  0.00     0.217 C 
BRANCH  10  11
HETATM   11  O   UNL     1      75.934  70.149  36.099  1.00  0.00    -0.280 OA
BRANCH  11  12
HETATM   12  P   UNL     1      75.311  68.637  36.568  1.00  0.00     0.422 P 
HETATM   13  O   UNL     1      75.348  67.823  35.273  1.00  0.00    -0.617 OA
HETATM   14  O   UNL     1      73.937  68.862  37.160  1.00  0.00    -0.617 OA
HETATM   15  O   UNL     1      76.360  68.197  37.587  1.00  0.00    -0.617 OA
ENDBRANCH  11  12
ENDBRANCH  10  11
ENDBRANCH   9  10
BRANCH   9  16
HETATM   16  O   UNL     1      76.264  73.552  37.035  1.00  0.00    -0.391 OA
ATOM     17  HO  UNL     1      76.732  74.032  37.707  1.00  0.00     0.210 HD
ENDBRANCH   9  16
ENDBRANCH   8   9
BRANCH   8  18
HETATM   18  O   UNL     1      77.459  70.786  38.734  1.00  0.00    -0.389 OA
ATOM     19  HO  UNL     1      77.901  70.750  39.574  1.00  0.00     0.210 HD
ENDBRANCH   8  18
ENDBRANCH   1   8
BRANCH   1  20
HETATM   20  C   UNL     1      79.473  70.254  36.985  1.00  0.00     0.214 C 
HETATM   21  O   UNL     1      80.081  69.499  37.786  1.00  0.00    -0.646 OA
HETATM   22  O   UNL     1      79.034  69.896  35.875  1.00  0.00    -0.646 OA
ENDBRANCH   1  20
BRANCH   1  23
HETATM   23  O   UNL     1      80.173  71.928  38.509  1.00  0.00    -0.375 OA
ATOM     24  HO  UNL     1      79.809  72.475  39.195  1.00  0.00     0.211 HD
ENDBRANCH   1  23
TORSDOF 12
ENDMDL
MODEL 5
REMARK VINA RESULT:    -6.947      2.164      6.550
REMARK INTER + INTRA:         -12.479
REMARK INTER:                 -11.004
REMARK INTRA:                  -1.475
REMARK UNBOUND:                -1.267
REMARK  12 active torsions:
REMARK  status: ('A' for Active; 'I' for Inactive)
REMARK    1  A    between atoms: C_1  and  O_7 
REMARK    2  A    between atoms: C_1  and  C_2 
REMARK    3  A    between atoms: C_2  and  C_3 
REMARK    4  A    between atoms: C_2  and  C_6 
REMARK    5  A    between atoms: C_2  and  O_8 
REMARK    6  A    between atoms: C_3  and  C_4 
REMARK    7  A    between atoms: C_3  and  O_10 
REMARK    8  A    between atoms: C_4  and  C_5 
REMARK    9  A    between atoms: C_4  and  O_12 
REMARK   10  A    between atoms: C_5  and  O_14 
REMARK   11  A    between atoms: O_7  and  P_17 
REMARK   12  A    between atoms: O_14  and  P_18 
ROOT
HETATM    1  C   UNL     1      76.976  71.045  37.390  1.00  0.00     0.196 C 
ENDROOT
BRANCH   1   2
HETATM    2  C   UNL     1      76.467  69.774  36.720  1.00  0.00     0.234 C 
BRANCH   2   3
HETATM    3  O   UNL     1      76.877  68.689  37.468  1.00  0.00    -0.279 OA
BRANCH   3   4
HETATM    4  P   UNL     1      77.735  67.489  36.554  1.00  0.00     0.422 P 
HETATM    5  O   UNL     1      77.291  67.775  35.129  1.00  0.00    -0.617 OA
HETATM    6  O   UNL     1      77.293  66.118  37.090  1.00  0.00    -0.617 OA
HETATM    7  O   UNL     1      79.194  67.847  36.836  1.00  0.00    -0.617 OA
ENDBRANCH   3   4
ENDBRANCH   2   3
ENDBRANCH   1   2
BRANCH   1   8
HETATM    8  C   UNL     1      78.243  71.588  36.634  1.00  0.00     0.196 C 
BRANCH   8   9
HETATM    9  C   UNL     1      79.391  72.037  37.583  1.00  0.00     0.174 C 
BRANCH   9  10
HETATM   10  C   UNL     1      80.578  72.666  36.776  1.00  0.00     0.217 C 
BRANCH  10  11
HETATM   11  O   UNL     1      80.247  74.034  36.566  1.00  0.00    -0.280 OA
BRANCH  11  12
HETATM   12  P   UNL     1      81.525  75.138  36.776  1.00  0.00     0.422 P 
HETATM   13  O   UNL     1      81.239  75.752  38.147  1.00  0.00    -0.617 OA
HETATM   14  O   UNL     1      81.503  76.102  35.610  1.00  0.00    -0.617 OA
HETATM   15  O   UNL     1      82.725  74.194  36.775  1.00  0.00    -0.617 OA
ENDBRANCH  11  12
ENDBRANCH  10  11
ENDBRANCH   9  10
BRANCH   9  16
HETATM   16  O   UNL     1      78.939  72.981  38.515  1.00  0.00    -0.391 OA
ATOM     17  HO  UNL     1      78.061  73.277  38.306  1.00  0.00     0.210 HD
ENDBRANCH   9  16
ENDBRANCH   8   9
BRANCH   8  18
HETATM   18  O   UNL     1      78.664  70.602  35.731  1.00  0.00    -0.389 OA
ATOM     19  HO  UNL     1      78.410  70.805  34.838  1.00  0.00     0.210 HD
ENDBRANCH   8  18
ENDBRANCH   1   8
BRANCH   1  20
HETATM   20  C   UNL     1      75.840  72.113  37.378  1.00  0.00     0.214 C 
HETATM   21  O   UNL     1      76.184  73.275  37.042  1.00  0.00    -0.646 OA
HETATM   22  O   UNL     1      74.678  71.783  37.683  1.00  0.00    -0.646 OA
ENDBRANCH   1  20
BRANCH   1  23
HETATM   23  O   UNL     1      77.309  70.840  38.733  1.00  0.00    -0.375 OA
ATOM     24  HO  UNL     1      76.639  70.354  39.200  1.00  0.00     0.211 HD
ENDBRANCH   1  23
TORSDOF 12
ENDMDL
MODEL 6
REMARK VINA RESULT:    -6.865      1.569      2.545
REMARK INTER + INTRA:         -12.346
REMARK INTER:                 -10.272
REMARK INTRA:                  -2.074
REMARK UNBOUND:                -1.267
REMARK  12 active torsions:
REMARK  status: ('A' for Active; 'I' for Inactive)
REMARK    1  A    between atoms: C_1  and  O_7 
REMARK    2  A    between atoms: C_1  and  C_2 
REMARK    3  A    between atoms: C_2  and  C_3 
REMARK    4  A    between atoms: C_2  and  C_6 
REMARK    5  A    between atoms: C_2  and  O_8 
REMARK    6  A    between atoms: C_3  and  C_4 
REMARK    7  A    between atoms: C_3  and  O_10 
REMARK    8  A    between atoms: C_4  and  C_5 
REMARK    9  A    between atoms: C_4  and  O_12 
REMARK   10  A    between atoms: C_5  and  O_14 
REMARK   11  A    between atoms: O_7  and  P_17 
REMARK   12  A    between atoms: O_14  and  P_18 
ROOT
HETATM    1  C   UNL     1      78.163  69.912  36.908  1.00  0.00     0.196 C 
ENDROOT
BRANCH   1   2
HETATM    2  C   UNL     1      78.744  70.998  36.011  1.00  0.00     0.234 C 
BRANCH   2   3
HETATM    3  O   UNL     1      80.079  71.157  36.323  1.00  0.00    -0.279 OA
BRANCH   3   4
HETATM    4  P   UNL     1      80.415  72.572  37.270  1.00  0.00     0.422 P 
HETATM    5  O   UNL     1      79.416  73.581  36.728  1.00  0.00    -0.617 OA
HETATM    6  O   UNL     1      81.885  72.942  37.015  1.00  0.00    -0.617 OA
HETATM    7  O   UNL     1      80.112  72.093  38.689  1.00  0.00    -0.617 OA
ENDBRANCH   3   4
ENDBRANCH   2   3
ENDBRANCH   1   2
BRANCH   1   8
HETATM    8  C   UNL     1      76.956  70.481  37.740  1.00  0.00     0.196 C 
BRANCH   8   9
HETATM    9  C   UNL     1      76.600  71.955  37.392  1.00  0.00     0.174 C 
BRANCH   9  10
HETATM   10  C   UNL     1      75.055  72.129  37.190  1.00  0.00     0.217 C 
BRANCH  10  11
HETATM   11  O   UNL     1      74.774  71.740  35.851  1.00  0.00    -0.280 OA
BRANCH  11  12
HETATM   12  P   UNL     1      73.271  70.982  35.608  1.00  0.00     0.422 P 
HETATM   13  O   UNL     1      72.458  71.408  36.831  1.00  0.00    -0.617 OA
HETATM   14  O   UNL     1      73.516  69.494  35.472  1.00  0.00    -0.617 OA
HETATM   15  O   UNL     1      72.813  71.654  34.315  1.00  0.00    -0.617 OA
ENDBRANCH  11  12
ENDBRANCH  10  11
ENDBRANCH   9  10
BRANCH   9  16
HETATM   16  O   UNL     1      77.016  72.830  38.405  1.00  0.00    -0.391 OA
ATOM     17  HO  UNL     1      76.432  73.575  38.476  1.00  0.00     0.210 HD
ENDBRANCH   9  16
ENDBRANCH   8   9
BRANCH   8  18
HETATM   18  O   UNL     1      75.864  69.620  37.562  1.00  0.00    -0.389 OA
ATOM     19  HO  UNL     1      75.229  69.972  36.951  1.00  0.00     0.210 HD
ENDBRANCH   8  18
ENDBRANCH   1   8
BRANCH   1  20
HETATM   20  C   UNL     1      77.693  68.720  36.020  1.00  0.00     0.214 C 
HETATM   21  O   UNL     1      77.318  69.017  34.858  1.00  0.00    -0.646 OA
HETATM   22  O   UNL     1      77.714  67.561  36.479  1.00  0.00    -0.646 OA
ENDBRANCH   1  20
BRANCH   1  23
HETATM   23  O   UNL     1      79.113  69.392  37.794  1.00  0.00    -0.375 OA
ATOM     24  HO  UNL     1      79.087  69.821  38.642  1.00  0.00     0.211 HD
ENDBRANCH   1  23
TORSDOF 12
ENDMDL
MODEL 7
REMARK VINA RESULT:    -6.818      2.405      7.214
REMARK INTER + INTRA:         -12.270
REMARK INTER:                 -10.807
REMARK INTRA:                  -1.464
REMARK UNBOUND:                -1.267
REMARK  12 active torsions:
REMARK  status: ('A' for Active; 'I' for Inactive)
REMARK    1  A    between atoms: C_1  and  O_7 
REMARK    2  A    between atoms: C_1  and  C_2 
REMARK    3  A    between atoms: C_2  and  C_3 
REMARK    4  A    between atoms: C_2  and  C_6 
REMARK    5  A    between atoms: C_2  and  O_8 
REMARK    6  A    between atoms: C_3  and  C_4 
REMARK    7  A    between atoms: C_3  and  O_10 
REMARK    8  A    between atoms: C_4  and  C_5 
REMARK    9  A    between atoms: C_4  and  O_12 
REMARK   10  A    between atoms: C_5  and  O_14 
REMARK   11  A    between atoms: O_7  and  P_17 
REMARK   12  A    between atoms: O_14  and  P_18 
ROOT
HETATM    1  C   UNL     1      73.965  71.094  36.594  1.00  0.00     0.196 C 
ENDROOT
BRANCH   1   2
HETATM    2  C   UNL     1      73.422  69.723  36.211  1.00  0.00     0.234 C 
BRANCH   2   3
HETATM    3  O   UNL     1      73.410  68.925  37.337  1.00  0.00    -0.279 OA
BRANCH   3   4
HETATM    4  P   UNL     1      73.670  67.241  37.009  1.00  0.00     0.422 P 
HETATM    5  O   UNL     1      74.344  66.754  38.281  1.00  0.00    -0.617 OA
HETATM    6  O   UNL     1      74.557  67.162  35.756  1.00  0.00    -0.617 OA
HETATM    7  O   UNL     1      72.246  66.722  36.819  1.00  0.00    -0.617 OA
ENDBRANCH   3   4
ENDBRANCH   2   3
ENDBRANCH   1   2
BRANCH   1   8
HETATM    8  C   UNL     1      75.519  71.149  36.359  1.00  0.00     0.196 C 
BRANCH   8   9
HETATM    9  C   UNL     1      76.269  72.068  37.365  1.00  0.00     0.174 C 
BRANCH   9  10
HETATM   10  C   UNL     1      77.550  71.361  37.927  1.00  0.00     0.217 C 
BRANCH  10  11
HETATM   11  O   UNL     1      78.519  71.386  36.885  1.00  0.00    -0.280 OA
BRANCH  11  12
HETATM   12  P   UNL     1      79.984  72.163  37.265  1.00  0.00     0.422 P 
HETATM   13  O   UNL     1      79.664  73.644  37.053  1.00  0.00    -0.617 OA
HETATM   14  O   UNL     1      81.061  71.592  36.368  1.00  0.00    -0.617 OA
HETATM   15  O   UNL     1      80.139  71.785  38.736  1.00  0.00    -0.617 OA
ENDBRANCH  11  12
ENDBRANCH  10  11
ENDBRANCH   9  10
BRANCH   9  16
HETATM   16  O   UNL     1      76.656  73.272  36.761  1.00  0.00    -0.391 OA
ATOM     17  HO  UNL     1      77.088  73.117  35.930  1.00  0.00     0.210 HD
ENDBRANCH   9  16
ENDBRANCH   8   9
BRANCH   8  18
HETATM   18  O   UNL     1      76.006  69.835  36.382  1.00  0.00    -0.389 OA
ATOM     19  HO  UNL     1      75.412  69.242  36.825  1.00  0.00     0.210 HD
ENDBRANCH   8  18
ENDBRANCH   1   8
BRANCH   1  20
HETATM   20  C   UNL     1      73.249  72.179  35.734  1.00  0.00     0.214 C 
HETATM   21  O   UNL     1      72.984  73.258  36.323  1.00  0.00    -0.646 OA
HETATM   22  O   UNL     1      72.983  71.946  34.539  1.00  0.00    -0.646 OA
ENDBRANCH   1  20
BRANCH   1  23
HETATM   23  O   UNL     1      73.702  71.414  37.930  1.00  0.00    -0.375 OA
ATOM     24  HO  UNL     1      74.084  72.247  38.183  1.00  0.00     0.211 HD
ENDBRANCH   1  23
TORSDOF 12
ENDMDL
MODEL 8
REMARK VINA RESULT:    -6.792      2.349      6.280
REMARK INTER + INTRA:         -12.229
REMARK INTER:                 -10.401
REMARK INTRA:                  -1.828
REMARK UNBOUND:                -1.267
REMARK  12 active torsions:
REMARK  status: ('A' for Active; 'I' for Inactive)
REMARK    1  A    between atoms: C_1  and  O_7 
REMARK    2  A    between atoms: C_1  and  C_2 
REMARK    3  A    between atoms: C_2  and  C_3 
REMARK    4  A    between atoms: C_2  and  C_6 
REMARK    5  A    between atoms: C_2  and  O_8 
REMARK    6  A    between atoms: C_3  and  C_4 
REMARK    7  A    between atoms: C_3  and  O_10 
REMARK    8  A    between atoms: C_4  and  C_5 
REMARK    9  A    between atoms: C_4  and  O_12 
REMARK   10  A    between atoms: C_5  and  O_14 
REMARK   11  A    between atoms: O_7  and  P_17 
REMARK   12  A    between atoms: O_14  and  P_18 
ROOT
HETATM    1  C   UNL     1      77.886  71.581  37.457  1.00  0.00     0.196 C 
ENDROOT
BRANCH   1   2
HETATM    2  C   UNL     1      76.778  72.470  36.905  1.00  0.00     0.234 C 
BRANCH   2   3
HETATM    3  O   UNL     1      75.605  72.171  37.568  1.00  0.00    -0.279 OA
BRANCH   3   4
HETATM    4  P   UNL     1      74.215  72.081  36.532  1.00  0.00     0.422 P 
HETATM    5  O   UNL     1      74.380  73.304  35.646  1.00  0.00    -0.617 OA
HETATM    6  O   UNL     1      72.977  72.124  37.441  1.00  0.00    -0.617 OA
HETATM    7  O   UNL     1      74.433  70.752  35.810  1.00  0.00    -0.617 OA
ENDBRANCH   3   4
ENDBRANCH   2   3
ENDBRANCH   1   2
BRANCH   1   8
HETATM    8  C   UNL     1      78.187  70.404  36.459  1.00  0.00     0.196 C 
BRANCH   8   9
HETATM    9  C   UNL     1      78.411  69.033  37.160  1.00  0.00     0.174 C 
BRANCH   9  10
HETATM   10  C   UNL     1      78.638  67.892  36.110  1.00  0.00     0.217 C 
BRANCH  10  11
HETATM   11  O   UNL     1      79.555  68.401  35.148  1.00  0.00    -0.280 OA
BRANCH  11  12
HETATM   12  P   UNL     1      81.082  67.650  35.123  1.00  0.00     0.422 P 
HETATM   13  O   UNL     1      81.847  68.368  36.235  1.00  0.00    -0.617 OA
HETATM   14  O   UNL     1      81.654  67.805  33.730  1.00  0.00    -0.617 OA
HETATM   15  O   UNL     1      80.703  66.214  35.480  1.00  0.00    -0.617 OA
ENDBRANCH  11  12
ENDBRANCH  10  11
ENDBRANCH   9  10
BRANCH   9  16
HETATM   16  O   UNL     1      79.521  69.076  38.015  1.00  0.00    -0.391 OA
ATOM     17  HO  UNL     1      79.633  69.941  38.389  1.00  0.00     0.210 HD
ENDBRANCH   9  16
ENDBRANCH   8   9
BRANCH   8  18
HETATM   18  O   UNL     1      77.144  70.352  35.524  1.00  0.00    -0.389 OA
ATOM     19  HO  UNL     1      76.555  69.626  35.687  1.00  0.00     0.210 HD
ENDBRANCH   8  18
ENDBRANCH   1   8
BRANCH   1  20
HETATM   20  C   UNL     1      79.165  72.445  37.676  1.00  0.00     0.214 C 
HETATM   21  O   UNL     1      79.251  73.484  36.973  1.00  0.00    -0.646 OA
HETATM   22  O   UNL     1      80.017  72.088  38.513  1.00  0.00    -0.646 OA
ENDBRANCH   1  20
BRANCH   1  23
HETATM   23  O   UNL     1      77.559  71.038  38.704  1.00  0.00    -0.375 OA
ATOM     24  HO  UNL     1      77.939  70.177  38.833  1.00  0.00     0.211 HD
ENDBRANCH   1  23
TORSDOF 12
ENDMDL
MODEL 9
REMARK VINA RESULT:    -6.744      1.777      3.714
REMARK INTER + INTRA:         -12.152
REMARK INTER:                 -10.699
REMARK INTRA:                  -1.453
REMARK UNBOUND:                -1.267
REMARK  12 active torsions:
REMARK  status: ('A' for Active; 'I' for Inactive)
REMARK    1  A    between atoms: C_1  and  O_7 
REMARK    2  A    between atoms: C_1  and  C_2 
REMARK    3  A    between atoms: C_2  and  C_3 
REMARK    4  A    between atoms: C_2  and  C_6 
REMARK    5  A    between atoms: C_2  and  O_8 
REMARK    6  A    between atoms: C_3  and  C_4 
REMARK    7  A    between atoms: C_3  and  O_10 
REMARK    8  A    between atoms: C_4  and  C_5 
REMARK    9  A    between atoms: C_4  and  O_12 
REMARK   10  A    between atoms: C_5  and  O_14 
REMARK   11  A    between atoms: O_7  and  P_17 
REMARK   12  A    between atoms: O_14  and  P_18 
ROOT
HETATM    1  C   UNL     1      79.137  71.850  36.967  1.00  0.00     0.196 C 
ENDROOT
BRANCH   1   2
HETATM    2  C   UNL     1      79.700  70.494  37.376  1.00  0.00     0.234 C 
BRANCH   2   3
HETATM    3  O   UNL     1      79.914  69.746  36.236  1.00  0.00    -0.279 OA
BRANCH   3   4
HETATM    4  P   UNL     1      78.723  68.511  35.971  1.00  0.00     0.422 P 
HETATM    5  O   UNL     1      78.038  68.976  34.697  1.00  0.00    -0.617 OA
HETATM    6  O   UNL     1      77.811  68.498  37.208  1.00  0.00    -0.617 OA
HETATM    7  O   UNL     1      79.584  67.261  35.797  1.00  0.00    -0.617 OA
ENDBRANCH   3   4
ENDBRANCH   2   3
ENDBRANCH   1   2
BRANCH   1   8
HETATM    8  C   UNL     1      77.797  72.137  37.739  1.00  0.00     0.196 C 
BRANCH   8   9
HETATM    9  C   UNL     1      76.565  72.314  36.805  1.00  0.00     0.174 C 
BRANCH   9  10
HETATM   10  C   UNL     1      75.493  71.202  37.068  1.00  0.00     0.217 C 
BRANCH  10  11
HETATM   11  O   UNL     1      74.786  71.022  35.847  1.00  0.00    -0.280 OA
BRANCH  11  12
HETATM   12  P   UNL     1      73.148  71.482  35.873  1.00  0.00     0.422 P 
HETATM   13  O   UNL     1      72.696  71.264  34.429  1.00  0.00    -0.617 OA
HETATM   14  O   UNL     1      73.073  72.909  36.373  1.00  0.00    -0.617 OA
HETATM   15  O   UNL     1      72.575  70.455  36.847  1.00  0.00    -0.617 OA
ENDBRANCH  11  12
ENDBRANCH  10  11
ENDBRANCH   9  10
BRANCH   9  16
HETATM   16  O   UNL     1      75.961  73.565  36.992  1.00  0.00    -0.391 OA
ATOM     17  HO  UNL     1      76.524  74.267  36.688  1.00  0.00     0.210 HD
ENDBRANCH   9  16
ENDBRANCH   8   9
BRANCH   8  18
HETATM   18  O   UNL     1      77.606  71.108  38.672  1.00  0.00    -0.389 OA
ATOM     19  HO  UNL     1      76.903  70.523  38.417  1.00  0.00     0.210 HD
ENDBRANCH   8  18
ENDBRANCH   1   8
BRANCH   1  20
HETATM   20  C   UNL     1      80.191  72.952  37.287  1.00  0.00     0.214 C 
HETATM   21  O   UNL     1      79.975  74.081  36.778  1.00  0.00    -0.646 OA
HETATM   22  O   UNL     1      81.169  72.682  38.011  1.00  0.00    -0.646 OA
ENDBRANCH   1  20
BRANCH   1  23
HETATM   23  O   UNL     1      78.888  71.929  35.593  1.00  0.00    -0.375 OA
ATOM     24  HO  UNL     1      78.112  71.444  35.339  1.00  0.00     0.211 HD
ENDBRANCH   1  23
TORSDOF 12
ENDMDL
MODEL 10
REMARK VINA RESULT:    -6.677      2.215      6.648
REMARK INTER + INTRA:         -12.042
REMARK INTER:                 -10.660
REMARK INTRA:                  -1.383
REMARK UNBOUND:                -1.267
REMARK  12 active torsions:
REMARK  status: ('A' for Active; 'I' for Inactive)
REMARK    1  A    between atoms: C_1  and  O_7 
REMARK    2  A    between atoms: C_1  and  C_2 
REMARK    3  A    between atoms: C_2  and  C_3 
REMARK    4  A    between atoms: C_2  and  C_6 
REMARK    5  A    between atoms: C_2  and  O_8 
REMARK    6  A    between atoms: C_3  and  C_4 
REMARK    7  A    between atoms: C_3  and  O_10 
REMARK    8  A    between atoms: C_4  and  C_5 
REMARK    9  A    between atoms: C_4  and  O_12 
REMARK   10  A    between atoms: C_5  and  O_14 
REMARK   11  A    between atoms: O_7  and  P_17 
REMARK   12  A    between atoms: O_14  and  P_18 
ROOT
HETATM    1  C   UNL     1      77.039  71.029  37.330  1.00  0.00     0.196 C 
ENDROOT
BRANCH   1   2
HETATM    2  C   UNL     1      76.487  69.826  36.575  1.00  0.00     0.234 C 
BRANCH   2   3
HETATM    3  O   UNL     1      76.555  68.722  37.400  1.00  0.00    -0.279 OA
BRANCH   3   4
HETATM    4  P   UNL     1      77.291  67.335  36.659  1.00  0.00     0.422 P 
HETATM    5  O   UNL     1      78.775  67.619  36.822  1.00  0.00    -0.617 OA
HETATM    6  O   UNL     1      76.813  67.303  35.198  1.00  0.00    -0.617 OA
HETATM    7  O   UNL     1      76.774  66.189  37.527  1.00  0.00    -0.617 OA
ENDBRANCH   3   4
ENDBRANCH   2   3
ENDBRANCH   1   2
BRANCH   1   8
HETATM    8  C   UNL     1      78.385  71.512  36.675  1.00  0.00     0.196 C 
BRANCH   8   9
HETATM    9  C   UNL     1      79.459  71.954  37.710  1.00  0.00     0.174 C 
BRANCH   9  10
HETATM   10  C   UNL     1      80.819  72.284  37.006  1.00  0.00     0.217 C 
BRANCH  10  11
HETATM   11  O   UNL     1      80.729  73.631  36.558  1.00  0.00    -0.280 OA
BRANCH  11  12
HETATM   12  P   UNL     1      82.094  74.222  35.732  1.00  0.00     0.422 P 
HETATM   13  O   UNL     1      82.011  73.530  34.371  1.00  0.00    -0.617 OA
HETATM   14  O   UNL     1      83.318  73.893  36.559  1.00  0.00    -0.617 OA
HETATM   15  O   UNL     1      81.771  75.713  35.671  1.00  0.00    -0.617 OA
ENDBRANCH  11  12
ENDBRANCH  10  11
ENDBRANCH   9  10
BRANCH   9  16
HETATM   16  O   UNL     1      79.042  73.087  38.422  1.00  0.00    -0.391 OA
ATOM     17  HO  UNL     1      78.678  72.847  39.266  1.00  0.00     0.210 HD
ENDBRANCH   9  16
ENDBRANCH   8   9
BRANCH   8  18
HETATM   18  O   UNL     1      78.851  70.487  35.839  1.00  0.00    -0.389 OA
ATOM     19  HO  UNL     1      78.141  70.043  35.391  1.00  0.00     0.210 HD
ENDBRANCH   8  18
ENDBRANCH   1   8
BRANCH   1  20
HETATM   20  C   UNL     1      75.982  72.174  37.299  1.00  0.00     0.214 C 
HETATM   21  O   UNL     1      74.798  71.834  37.553  1.00  0.00    -0.646 OA
HETATM   22  O   UNL     1      76.339  73.340  37.040  1.00  0.00    -0.646 OA
ENDBRANCH   1  20
BRANCH   1  23
HETATM   23  O   UNL     1      77.274  70.746  38.680  1.00  0.00    -0.375 OA
ATOM     24  HO  UNL     1      76.549  70.283  39.082  1.00  0.00     0.211 HD
ENDBRANCH   1  23
TORSDOF 12
ENDMDL
MODEL 11
REMARK VINA RESULT:    -6.660      1.530      6.294
REMARK INTER + INTRA:         -12.015
REMARK INTER:                 -10.604
REMARK INTRA:                  -1.411
REMARK UNBOUND:                -1.267
REMARK  12 active torsions:
REMARK  status: ('A' for Active; 'I' for Inactive)
REMARK    1  A    between atoms: C_1  and  O_7 
REMARK    2  A    between atoms: C_1  and  C_2 
REMARK    3  A    between atoms: C_2  and  C_3 
REMARK    4  A    between atoms: C_2  and  C_6 
REMARK    5  A    between atoms: C_2  and  O_8 
REMARK    6  A    between atoms: C_3  and  C_4 
REMARK    7  A    between atoms: C_3  and  O_10 
REMARK    8  A    between atoms: C_4  and  C_5 
REMARK    9  A    between atoms: C_4  and  O_12 
REMARK   10  A    between atoms: C_5  and  O_14 
REMARK   11  A    between atoms: O_7  and  P_17 
REMARK   12  A    between atoms: O_14  and  P_18 
ROOT
HETATM    1  C   UNL     1      76.918  70.081  36.837  1.00  0.00     0.196 C 
ENDROOT
BRANCH   1   2
HETATM    2  C   UNL     1      75.457  70.356  37.173  1.00  0.00     0.234 C 
BRANCH   2   3
HETATM    3  O   UNL     1      74.797  70.698  36.010  1.00  0.00    -0.279 OA
BRANCH   3   4
HETATM    4  P   UNL     1      73.958  72.215  36.099  1.00  0.00     0.422 P 
HETATM    5  O   UNL     1      75.086  73.205  36.342  1.00  0.00    -0.617 OA
HETATM    6  O   UNL     1      72.956  72.105  37.258  1.00  0.00    -0.617 OA
HETATM    7  O   UNL     1      73.325  72.318  34.712  1.00  0.00    -0.617 OA
ENDBRANCH   3   4
ENDBRANCH   2   3
ENDBRANCH   1   2
BRANCH   1   8
HETATM    8  C   UNL     1      77.856  71.023  37.677  1.00  0.00     0.196 C 
BRANCH   8   9
HETATM    9  C   UNL     1      78.951  71.731  36.828  1.00  0.00     0.174 C 
BRANCH   9  10
HETATM   10  C   UNL     1      79.637  72.883  37.639  1.00  0.00     0.217 C 
BRANCH  10  11
HETATM   11  O   UNL     1      79.888  73.936  36.716  1.00  0.00    -0.280 OA
BRANCH  11  12
HETATM   12  P   UNL     1      81.338  74.793  36.959  1.00  0.00     0.422 P 
HETATM   13  O   UNL     1      81.122  75.478  38.308  1.00  0.00    -0.617 OA
HETATM   14  O   UNL     1      81.534  75.720  35.779  1.00  0.00    -0.617 OA
HETATM   15  O   UNL     1      82.345  73.647  37.018  1.00  0.00    -0.617 OA
ENDBRANCH  11  12
ENDBRANCH  10  11
ENDBRANCH   9  10
BRANCH   9  16
HETATM   16  O   UNL     1      79.940  70.826  36.419  1.00  0.00    -0.391 OA
ATOM     17  HO  UNL     1      79.594  69.944  36.354  1.00  0.00     0.210 HD
ENDBRANCH   9  16
ENDBRANCH   8   9
BRANCH   8  18
HETATM   18  O   UNL     1      77.047  71.940  38.362  1.00  0.00    -0.389 OA
ATOM     19  HO  UNL     1      77.105  72.812  37.990  1.00  0.00     0.210 HD
ENDBRANCH   8  18
ENDBRANCH   1   8
BRANCH   1  20
HETATM   20  C   UNL     1      77.235  68.587  37.146  1.00  0.00     0.214 C 
HETATM   21  O   UNL     1      76.239  67.842  37.331  1.00  0.00    -0.646 OA
HETATM   22  O   UNL     1      78.420  68.202  37.190  1.00  0.00    -0.646 OA
ENDBRANCH   1  20
BRANCH   1  23
HETATM   23  O   UNL     1      77.194  70.269  35.479  1.00  0.00    -0.375 OA
ATOM     24  HO  UNL     1      76.472  70.001  34.923  1.00  0.00     0.211 HD
ENDBRANCH   1  23
TORSDOF 12
ENDMDL
MODEL 12
REMARK VINA RESULT:    -6.640      2.511      7.411
REMARK INTER + INTRA:         -11.984
REMARK INTER:                 -10.055
REMARK INTRA:                  -1.929
REMARK UNBOUND:                -1.267
REMARK  12 active torsions:
REMARK  status: ('A' for Active; 'I' for Inactive)
REMARK    1  A    between atoms: C_1  and  O_7 
REMARK    2  A    between atoms: C_1  and  C_2 
REMARK    3  A    between atoms: C_2  and  C_3 
REMARK    4  A    between atoms: C_2  and  C_6 
REMARK    5  A    between atoms: C_2  and  O_8 
REMARK    6  A    between atoms: C_3  and  C_4 
REMARK    7  A    between atoms: C_3  and  O_10 
REMARK    8  A    between atoms: C_4  and  C_5 
REMARK    9  A    between atoms: C_4  and  O_12 
REMARK   10  A    between atoms: C_5  and  O_14 
REMARK   11  A    between atoms: O_7  and  P_17 
REMARK   12  A    between atoms: O_14  and  P_18 
ROOT
HETATM    1  C   UNL     1      73.794  70.774  36.535  1.00  0.00     0.196 C 
ENDROOT
BRANCH   1   2
HETATM    2  C   UNL     1      73.739  69.566  35.608  1.00  0.00     0.234 C 
BRANCH   2   3
HETATM    3  O   UNL     1      72.722  68.734  36.032  1.00  0.00    -0.279 OA
BRANCH   3   4
HETATM    4  P   UNL     1      73.265  67.171  36.556  1.00  0.00     0.422 P 
HETATM    5  O   UNL     1      74.271  66.790  35.483  1.00  0.00    -0.617 OA
HETATM    6  O   UNL     1      72.026  66.263  36.610  1.00  0.00    -0.617 OA
HETATM    7  O   UNL     1      73.890  67.483  37.915  1.00  0.00    -0.617 OA
ENDBRANCH   3   4
ENDBRANCH   2   3
ENDBRANCH   1   2
BRANCH   1   8
HETATM    8  C   UNL     1      75.270  71.023  37.017  1.00  0.00     0.196 C 
BRANCH   8   9
HETATM    9  C   UNL     1      76.221  69.819  36.761  1.00  0.00     0.174 C 
BRANCH   9  10
HETATM   10  C   UNL     1      77.651  70.308  36.345  1.00  0.00     0.217 C 
BRANCH  10  11
HETATM   11  O   UNL     1      78.343  70.611  37.551  1.00  0.00    -0.280 OA
BRANCH  11  12
HETATM   12  P   UNL     1      79.529  71.826  37.429  1.00  0.00     0.422 P 
HETATM   13  O   UNL     1      80.492  71.274  36.377  1.00  0.00    -0.617 OA
HETATM   14  O   UNL     1      80.118  72.041  38.806  1.00  0.00    -0.617 OA
HETATM   15  O   UNL     1      78.691  72.998  36.924  1.00  0.00    -0.617 OA
ENDBRANCH  11  12
ENDBRANCH  10  11
ENDBRANCH   9  10
BRANCH   9  16
HETATM   16  O   UNL     1      76.342  69.016  37.903  1.00  0.00    -0.391 OA
ATOM     17  HO  UNL     1      77.207  68.630  37.962  1.00  0.00     0.210 HD
ENDBRANCH   9  16
ENDBRANCH   8   9
BRANCH   8  18
HETATM   18  O   UNL     1      75.732  72.197  36.405  1.00  0.00    -0.389 OA
ATOM     19  HO  UNL     1      76.198  72.756  37.015  1.00  0.00     0.210 HD
ENDBRANCH   8  18
ENDBRANCH   1   8
BRANCH   1  20
HETATM   20  C   UNL     1      73.257  72.022  35.771  1.00  0.00     0.214 C 
HETATM   21  O   UNL     1      73.144  71.896  34.525  1.00  0.00    -0.646 OA
HETATM   22  O   UNL     1      72.965  73.056  36.403  1.00  0.00    -0.646 OA
ENDBRANCH   1  20
BRANCH   1  23
HETATM   23  O   UNL     1      72.976  70.619  37.659  1.00  0.00    -0.375 OA
ATOM     24  HO  UNL     1      73.443  70.241  38.395  1.00  0.00     0.211 HD
ENDBRANCH   1  23
TORSDOF 12
ENDMDL
MODEL 13
REMARK VINA RESULT:    -6.588      2.158      4.023
REMARK INTER + INTRA:         -11.899
REMARK INTER:                 -10.491
REMARK INTRA:                  -1.408
REMARK UNBOUND:                -1.267
REMARK  12 active torsions:
REMARK  status: ('A' for Active; 'I' for Inactive)
REMARK    1  A    between atoms: C_1  and  O_7 
REMARK    2  A    between atoms: C_1  and  C_2 
REMARK    3  A    between atoms: C_2  and  C_3 
REMARK    4  A    between atoms: C_2  and  C_6 
REMARK    5  A    between atoms: C_2  and  O_8 
REMARK    6  A    between atoms: C_3  and  C_4 
REMARK    7  A    between atoms: C_3  and  O_10 
REMARK    8  A    between atoms: C_4  and  C_5 
REMARK    9  A    between atoms: C_4  and  O_12 
REMARK   10  A    between atoms: C_5  and  O_14 
REMARK   11  A    between atoms: O_7  and  P_17 
REMARK   12  A    between atoms: O_14  and  P_18 
ROOT
HETATM    1  C   UNL     1      78.845  71.180  36.968  1.00  0.00     0.196 C 
ENDROOT
BRANCH   1   2
HETATM    2  C   UNL     1      79.522  69.822  37.110  1.00  0.00     0.234 C 
BRANCH   2   3
HETATM    3  O   UNL     1      79.942  69.410  35.861  1.00  0.00    -0.279 OA
BRANCH   3   4
HETATM    4  P   UNL     1      79.563  67.754  35.504  1.00  0.00     0.422 P 
HETATM    5  O   UNL     1      78.668  67.359  36.666  1.00  0.00    -0.617 OA
HETATM    6  O   UNL     1      80.897  66.992  35.448  1.00  0.00    -0.617 OA
HETATM    7  O   UNL     1      78.835  67.870  34.165  1.00  0.00    -0.617 OA
ENDBRANCH   3   4
ENDBRANCH   2   3
ENDBRANCH   1   2
BRANCH   1   8
HETATM    8  C   UNL     1      77.365  71.108  37.496  1.00  0.00     0.196 C 
BRANCH   8   9
HETATM    9  C   UNL     1      76.551  69.919  36.909  1.00  0.00     0.174 C 
BRANCH   9  10
HETATM   10  C   UNL     1      75.011  70.142  37.096  1.00  0.00     0.217 C 
BRANCH  10  11
HETATM   11  O   UNL     1      74.520  70.645  35.859  1.00  0.00    -0.280 OA
BRANCH  11  12
HETATM   12  P   UNL     1      73.756  72.164  35.937  1.00  0.00     0.422 P 
HETATM   13  O   UNL     1      74.922  73.136  36.123  1.00  0.00    -0.617 OA
HETATM   14  O   UNL     1      72.752  72.123  37.068  1.00  0.00    -0.617 OA
HETATM   15  O   UNL     1      73.123  72.240  34.550  1.00  0.00    -0.617 OA
ENDBRANCH  11  12
ENDBRANCH  10  11
ENDBRANCH   9  10
BRANCH   9  16
HETATM   16  O   UNL     1      76.812  69.752  35.542  1.00  0.00    -0.391 OA
ATOM     17  HO  UNL     1      77.146  70.552  35.155  1.00  0.00     0.210 HD
ENDBRANCH   9  16
ENDBRANCH   8   9
BRANCH   8  18
HETATM   18  O   UNL     1      77.407  71.075  38.897  1.00  0.00    -0.389 OA
ATOM     19  HO  UNL     1      76.545  70.959  39.276  1.00  0.00     0.210 HD
ENDBRANCH   8  18
ENDBRANCH   1   8
BRANCH   1  20
HETATM   20  C   UNL     1      79.656  72.237  37.778  1.00  0.00     0.214 C 
HETATM   21  O   UNL     1      80.332  71.789  38.739  1.00  0.00    -0.646 OA
HETATM   22  O   UNL     1      79.610  73.438  37.448  1.00  0.00    -0.646 OA
ENDBRANCH   1  20
BRANCH   1  23
HETATM   23  O   UNL     1      78.826  71.629  35.643  1.00  0.00    -0.375 OA
ATOM     24  HO  UNL     1      78.607  72.551  35.578  1.00  0.00     0.211 HD
ENDBRANCH   1  23
TORSDOF 12
ENDMDL
MODEL 14
REMARK VINA RESULT:    -6.588      1.882      3.108
REMARK INTER + INTRA:         -11.899
REMARK INTER:                 -10.441
REMARK INTRA:                  -1.458
REMARK UNBOUND:                -1.267
REMARK  12 active torsions:
REMARK  status: ('A' for Active; 'I' for Inactive)
REMARK    1  A    between atoms: C_1  and  O_7 
REMARK    2  A    between atoms: C_1  and  C_2 
REMARK    3  A    between atoms: C_2  and  C_3 
REMARK    4  A    between atoms: C_2  and  C_6 
REMARK    5  A    between atoms: C_2  and  O_8 
REMARK    6  A    between atoms: C_3  and  C_4 
REMARK    7  A    between atoms: C_3  and  O_10 
REMARK    8  A    between atoms: C_4  and  C_5 
REMARK    9  A    between atoms: C_4  and  O_12 
REMARK   10  A    between atoms: C_5  and  O_14 
REMARK   11  A    between atoms: O_7  and  P_17 
REMARK   12  A    between atoms: O_14  and  P_18 
ROOT
HETATM    1  C   UNL     1      78.522  68.968  36.752  1.00  0.00     0.196 C 
ENDROOT
BRANCH   1   2
HETATM    2  C   UNL     1      79.681  69.854  37.192  1.00  0.00     0.234 C 
BRANCH   2   3
HETATM    3  O   UNL     1      79.715  70.968  36.377  1.00  0.00    -0.279 OA
BRANCH   3   4
HETATM    4  P   UNL     1      79.871  72.465  37.241  1.00  0.00     0.422 P 
HETATM    5  O   UNL     1      78.522  73.125  37.011  1.00  0.00    -0.617 OA
HETATM    6  O   UNL     1      81.056  73.219  36.616  1.00  0.00    -0.617 OA
HETATM    7  O   UNL     1      80.099  71.991  38.676  1.00  0.00    -0.617 OA
ENDBRANCH   3   4
ENDBRANCH   2   3
ENDBRANCH   1   2
BRANCH   1   8
HETATM    8  C   UNL     1      77.151  69.676  37.055  1.00  0.00     0.196 C 
BRANCH   8   9
HETATM    9  C   UNL     1      75.961  68.687  37.220  1.00  0.00     0.174 C 
BRANCH   9  10
HETATM   10  C   UNL     1      74.590  69.408  36.979  1.00  0.00     0.217 C 
BRANCH  10  11
HETATM   11  O   UNL     1      74.885  70.630  36.314  1.00  0.00    -0.280 OA
BRANCH  11  12
HETATM   12  P   UNL     1      73.775  71.893  36.575  1.00  0.00     0.422 P 
HETATM   13  O   UNL     1      73.384  71.722  38.043  1.00  0.00    -0.617 OA
HETATM   14  O   UNL     1      72.649  71.738  35.576  1.00  0.00    -0.617 OA
HETATM   15  O   UNL     1      74.661  73.112  36.325  1.00  0.00    -0.617 OA
ENDBRANCH  11  12
ENDBRANCH  10  11
ENDBRANCH   9  10
BRANCH   9  16
HETATM   16  O   UNL     1      76.063  67.617  36.320  1.00  0.00    -0.391 OA
ATOM     17  HO  UNL     1      76.864  67.127  36.459  1.00  0.00     0.210 HD
ENDBRANCH   9  16
ENDBRANCH   8   9
BRANCH   8  18
HETATM   18  O   UNL     1      77.323  70.484  38.188  1.00  0.00    -0.389 OA
ATOM     19  HO  UNL     1      76.517  70.918  38.442  1.00  0.00     0.210 HD
ENDBRANCH   8  18
ENDBRANCH   1   8
BRANCH   1  20
HETATM   20  C   UNL     1      78.656  68.680  35.226  1.00  0.00     0.214 C 
HETATM   21  O   UNL     1      79.712  68.099  34.869  1.00  0.00    -0.646 OA
HETATM   22  O   UNL     1      77.742  69.019  34.450  1.00  0.00    -0.646 OA
ENDBRANCH   1  20
BRANCH   1  23
HETATM   23  O   UNL     1      78.533  67.723  37.390  1.00  0.00    -0.375 OA
ATOM     24  HO  UNL     1      77.664  67.444  37.652  1.00  0.00     0.211 HD
ENDBRANCH   1  23
TORSDOF 12
ENDMDL
MODEL 15
REMARK VINA RESULT:    -6.393      3.028      4.736
REMARK INTER + INTRA:         -11.584
REMARK INTER:                 -10.262
REMARK INTRA:                  -1.322
REMARK UNBOUND:                -1.267
REMARK  12 active torsions:
REMARK  status: ('A' for Active; 'I' for Inactive)
REMARK    1  A    between atoms: C_1  and  O_7 
REMARK    2  A    between atoms: C_1  and  C_2 
REMARK    3  A    between atoms: C_2  and  C_3 
REMARK    4  A    between atoms: C_2  and  C_6 
REMARK    5  A    between atoms: C_2  and  O_8 
REMARK    6  A    between atoms: C_3  and  C_4 
REMARK    7  A    between atoms: C_3  and  O_10 
REMARK    8  A    between atoms: C_4  and  C_5 
REMARK    9  A    between atoms: C_4  and  O_12 
REMARK   10  A    between atoms: C_5  and  O_14 
REMARK   11  A    between atoms: O_7  and  P_17 
REMARK   12  A    between atoms: O_14  and  P_18 
ROOT
HETATM    1  C   UNL     1      81.661  73.644  36.115  1.00  0.00     0.196 C 
ENDROOT
BRANCH   1   2
HETATM    2  C   UNL     1      83.132  73.246  36.078  1.00  0.00     0.234 C 
BRANCH   2   3
HETATM    3  O   UNL     1      83.337  72.426  34.986  1.00  0.00    -0.279 OA
BRANCH   3   4
HETATM    4  P   UNL     1      83.992  73.248  33.604  1.00  0.00     0.422 P 
HETATM    5  O   UNL     1      85.377  72.635  33.478  1.00  0.00    -0.617 OA
HETATM    6  O   UNL     1      83.994  74.748  33.937  1.00  0.00    -0.617 OA
HETATM    7  O   UNL     1      83.024  72.839  32.495  1.00  0.00    -0.617 OA
ENDBRANCH   3   4
ENDBRANCH   2   3
ENDBRANCH   1   2
BRANCH   1   8
HETATM    8  C   UNL     1      80.845  72.629  36.996  1.00  0.00     0.196 C 
BRANCH   8   9
HETATM    9  C   UNL     1      79.342  73.001  37.145  1.00  0.00     0.174 C 
BRANCH   9  10
HETATM   10  C   UNL     1      78.435  72.032  36.313  1.00  0.00     0.217 C 
BRANCH  10  11
HETATM   11  O   UNL     1      77.968  71.036  37.215  1.00  0.00    -0.280 OA
BRANCH  11  12
HETATM   12  P   UNL     1      78.322  69.429  36.782  1.00  0.00     0.422 P 
HETATM   13  O   UNL     1      78.718  69.540  35.309  1.00  0.00    -0.617 OA
HETATM   14  O   UNL     1      77.097  68.589  37.068  1.00  0.00    -0.617 OA
HETATM   15  O   UNL     1      79.503  69.135  37.704  1.00  0.00    -0.617 OA
ENDBRANCH  11  12
ENDBRANCH  10  11
ENDBRANCH   9  10
BRANCH   9  16
HETATM   16  O   UNL     1      78.936  72.947  38.486  1.00  0.00    -0.391 OA
ATOM     17  HO  UNL     1      78.321  73.642  38.687  1.00  0.00     0.210 HD
ENDBRANCH   9  16
ENDBRANCH   8   9
BRANCH   8  18
HETATM   18  O   UNL     1      81.018  71.348  36.453  1.00  0.00    -0.389 OA
ATOM     19  HO  UNL     1      80.764  71.312  35.539  1.00  0.00     0.210 HD
ENDBRANCH   8  18
ENDBRANCH   1   8
BRANCH   1  20
HETATM   20  C   UNL     1      81.542  75.084  36.698  1.00  0.00     0.214 C 
HETATM   21  O   UNL     1      81.506  76.016  35.855  1.00  0.00    -0.646 OA
HETATM   22  O   UNL     1      81.484  75.249  37.932  1.00  0.00    -0.646 OA
ENDBRANCH   1  20
BRANCH   1  23
HETATM   23  O   UNL     1      81.091  73.688  34.838  1.00  0.00    -0.375 OA
ATOM     24  HO  UNL     1      80.295  74.204  34.818  1.00  0.00     0.211 HD
ENDBRANCH   1  23
TORSDOF 12
ENDMDL
MODEL 16
REMARK VINA RESULT:    -6.354      2.347      5.173
REMARK INTER + INTRA:         -11.522
REMARK INTER:                  -9.874
REMARK INTRA:                  -1.648
REMARK UNBOUND:                -1.267
REMARK  12 active torsions:
REMARK  status: ('A' for Active; 'I' for Inactive)
REMARK    1  A    between atoms: C_1  and  O_7 
REMARK    2  A    between atoms: C_1  and  C_2 
REMARK    3  A    between atoms: C_2  and  C_3 
REMARK    4  A    between atoms: C_2  and  C_6 
REMARK    5  A    between atoms: C_2  and  O_8 
REMARK    6  A    between atoms: C_3  and  C_4 
REMARK    7  A    between atoms: C_3  and  O_10 
REMARK    8  A    between atoms: C_4  and  C_5 
REMARK    9  A    between atoms: C_4  and  O_12 
REMARK   10  A    between atoms: C_5  and  O_14 
REMARK   11  A    between atoms: O_7  and  P_17 
REMARK   12  A    between atoms: O_14  and  P_18 
ROOT
HETATM    1  C   UNL     1      77.843  71.542  37.462  1.00  0.00     0.196 C 
ENDROOT
BRANCH   1   2
HETATM    2  C   UNL     1      76.707  72.416  36.944  1.00  0.00     0.234 C 
BRANCH   2   3
HETATM    3  O   UNL     1      75.550  72.074  37.615  1.00  0.00    -0.279 OA
BRANCH   3   4
HETATM    4  P   UNL     1      74.117  72.176  36.641  1.00  0.00     0.422 P 
HETATM    5  O   UNL     1      74.202  73.581  36.069  1.00  0.00    -0.617 OA
HETATM    6  O   UNL     1      72.922  71.948  37.580  1.00  0.00    -0.617 OA
HETATM    7  O   UNL     1      74.343  71.068  35.613  1.00  0.00    -0.617 OA
ENDBRANCH   3   4
ENDBRANCH   2   3
ENDBRANCH   1   2
BRANCH   1   8
HETATM    8  C   UNL     1      78.126  70.365  36.458  1.00  0.00     0.196 C 
BRANCH   8   9
HETATM    9  C   UNL     1      78.576  69.048  37.151  1.00  0.00     0.174 C 
BRANCH   9  10
HETATM   10  C   UNL     1      77.516  67.912  36.948  1.00  0.00     0.217 C 
BRANCH  10  11
HETATM   11  O   UNL     1      76.325  68.347  37.592  1.00  0.00    -0.280 OA
BRANCH  11  12
HETATM   12  P   UNL     1      74.954  67.372  37.334  1.00  0.00     0.422 P 
HETATM   13  O   UNL     1      74.941  66.451  38.554  1.00  0.00    -0.617 OA
HETATM   14  O   UNL     1      75.117  66.684  35.996  1.00  0.00    -0.617 OA
HETATM   15  O   UNL     1      73.845  68.422  37.358  1.00  0.00    -0.617 OA
ENDBRANCH  11  12
ENDBRANCH  10  11
ENDBRANCH   9  10
BRANCH   9  16
HETATM   16  O   UNL     1      79.806  68.603  36.646  1.00  0.00    -0.391 OA
ATOM     17  HO  UNL     1      80.519  69.153  36.945  1.00  0.00     0.210 HD
ENDBRANCH   9  16
ENDBRANCH   8   9
BRANCH   8  18
HETATM   18  O   UNL     1      76.978  70.181  35.674  1.00  0.00    -0.389 OA
ATOM     19  HO  UNL     1      76.614  71.006  35.376  1.00  0.00     0.210 HD
ENDBRANCH   8  18
ENDBRANCH   1   8
BRANCH   1  20
HETATM   20  C   UNL     1      79.118  72.421  37.638  1.00  0.00     0.214 C 
HETATM   21  O   UNL     1      79.958  72.008  38.477  1.00  0.00    -0.646 OA
HETATM   22  O   UNL     1      79.252  73.459  36.960  1.00  0.00    -0.646 OA
ENDBRANCH   1  20
BRANCH   1  23
HETATM   23  O   UNL     1      77.563  70.999  38.721  1.00  0.00    -0.375 OA
ATOM     24  HO  UNL     1      76.641  70.799  38.830  1.00  0.00     0.211 HD
ENDBRANCH   1  23
TORSDOF 12
ENDMDL
MODEL 17
REMARK VINA RESULT:    -6.183      2.300      6.287
REMARK INTER + INTRA:         -11.246
REMARK INTER:                  -9.360
REMARK INTRA:                  -1.886
REMARK UNBOUND:                -1.267
REMARK  12 active torsions:
REMARK  status: ('A' for Active; 'I' for Inactive)
REMARK    1  A    between atoms: C_1  and  O_7 
REMARK    2  A    between atoms: C_1  and  C_2 
REMARK    3  A    between atoms: C_2  and  C_3 
REMARK    4  A    between atoms: C_2  and  C_6 
REMARK    5  A    between atoms: C_2  and  O_8 
REMARK    6  A    between atoms: C_3  and  C_4 
REMARK    7  A    between atoms: C_3  and  O_10 
REMARK    8  A    between atoms: C_4  and  C_5 
REMARK    9  A    between atoms: C_4  and  O_12 
REMARK   10  A    between atoms: C_5  and  O_14 
REMARK   11  A    between atoms: O_7  and  P_17 
REMARK   12  A    between atoms: O_14  and  P_18 
ROOT
HETATM    1  C   UNL     1      75.778  68.665  36.720  1.00  0.00     0.196 C 
ENDROOT
BRANCH   1   2
HETATM    2  C   UNL     1      74.591  69.583  36.990  1.00  0.00     0.234 C 
BRANCH   2   3
HETATM    3  O   UNL     1      74.320  70.298  35.841  1.00  0.00    -0.279 OA
BRANCH   3   4
HETATM    4  P   UNL     1      73.709  71.896  36.135  1.00  0.00     0.422 P 
HETATM    5  O   UNL     1      72.934  71.723  37.430  1.00  0.00    -0.617 OA
HETATM    6  O   UNL     1      72.840  72.272  34.925  1.00  0.00    -0.617 OA
HETATM    7  O   UNL     1      74.992  72.713  36.280  1.00  0.00    -0.617 OA
ENDBRANCH   3   4
ENDBRANCH   2   3
ENDBRANCH   1   2
BRANCH   1   8
HETATM    8  C   UNL     1      77.077  69.245  37.390  1.00  0.00     0.196 C 
BRANCH   8   9
HETATM    9  C   UNL     1      78.364  69.032  36.543  1.00  0.00     0.174 C 
BRANCH   9  10
HETATM   10  C   UNL     1      79.559  69.873  37.110  1.00  0.00     0.217 C 
BRANCH  10  11
HETATM   11  O   UNL     1      79.622  71.064  36.335  1.00  0.00    -0.280 OA
BRANCH  11  12
HETATM   12  P   UNL     1      79.818  72.505  37.219  1.00  0.00     0.422 P 
HETATM   13  O   UNL     1      78.423  73.131  37.187  1.00  0.00    -0.617 OA
HETATM   14  O   UNL     1      80.912  73.314  36.556  1.00  0.00    -0.617 OA
HETATM   15  O   UNL     1      80.200  71.953  38.590  1.00  0.00    -0.617 OA
ENDBRANCH  11  12
ENDBRANCH  10  11
ENDBRANCH   9  10
BRANCH   9  16
HETATM   16  O   UNL     1      78.742  67.683  36.524  1.00  0.00    -0.391 OA
ATOM     17  HO  UNL     1      78.943  67.370  37.397  1.00  0.00     0.210 HD
ENDBRANCH   9  16
ENDBRANCH   8   9
BRANCH   8  18
HETATM   18  O   UNL     1      76.851  70.600  37.672  1.00  0.00    -0.389 OA
ATOM     19  HO  UNL     1      76.351  70.719  38.470  1.00  0.00     0.210 HD
ENDBRANCH   8  18
ENDBRANCH   1   8
BRANCH   1  20
HETATM   20  C   UNL     1      75.462  67.249  37.289  1.00  0.00     0.214 C 
HETATM   21  O   UNL     1      76.155  66.306  36.830  1.00  0.00    -0.646 OA
HETATM   22  O   UNL     1      74.571  67.113  38.150  1.00  0.00    -0.646 OA
ENDBRANCH   1  20
BRANCH   1  23
HETATM   23  O   UNL     1      76.017  68.495  35.352  1.00  0.00    -0.375 OA
ATOM     24  HO  UNL     1      76.711  69.061  35.035  1.00  0.00     0.211 HD
ENDBRANCH   1  23
TORSDOF 12
ENDMDL
MODEL 18
REMARK VINA RESULT:    -6.165      3.048      5.558
REMARK INTER + INTRA:         -11.216
REMARK INTER:                  -9.891
REMARK INTRA:                  -1.326
REMARK UNBOUND:                -1.267
REMARK  12 active torsions:
REMARK  status: ('A' for Active; 'I' for Inactive)
REMARK    1  A    between atoms: C_1  and  O_7 
REMARK    2  A    between atoms: C_1  and  C_2 
REMARK    3  A    between atoms: C_2  and  C_3 
REMARK    4  A    between atoms: C_2  and  C_6 
REMARK    5  A    between atoms: C_2  and  O_8 
REMARK    6  A    between atoms: C_3  and  C_4 
REMARK    7  A    between atoms: C_3  and  O_10 
REMARK    8  A    between atoms: C_4  and  C_5 
REMARK    9  A    between atoms: C_4  and  O_12 
REMARK   10  A    between atoms: C_5  and  O_14 
REMARK   11  A    between atoms: O_7  and  P_17 
REMARK   12  A    between atoms: O_14  and  P_18 
ROOT
HETATM    1  C   UNL     1      77.939  71.331  37.627  1.00  0.00     0.196 C 
ENDROOT
BRANCH   1   2
HETATM    2  C   UNL     1      76.916  71.942  36.677  1.00  0.00     0.234 C 
BRANCH   2   3
HETATM    3  O   UNL     1      75.815  72.334  37.411  1.00  0.00    -0.279 OA
BRANCH   3   4
HETATM    4  P   UNL     1      74.298  71.966  36.653  1.00  0.00     0.422 P 
HETATM    5  O   UNL     1      73.373  71.760  37.840  1.00  0.00    -0.617 OA
HETATM    6  O   UNL     1      74.519  70.707  35.799  1.00  0.00    -0.617 OA
HETATM    7  O   UNL     1      74.016  73.239  35.855  1.00  0.00    -0.617 OA
ENDBRANCH   3   4
ENDBRANCH   2   3
ENDBRANCH   1   2
BRANCH   1   8
HETATM    8  C   UNL     1      78.371  69.907  37.118  1.00  0.00     0.196 C 
BRANCH   8   9
HETATM    9  C   UNL     1      77.176  68.939  36.884  1.00  0.00     0.174 C 
BRANCH   9  10
HETATM   10  C   UNL     1      77.649  67.445  36.897  1.00  0.00     0.217 C 
BRANCH  10  11
HETATM   11  O   UNL     1      76.574  66.673  36.375  1.00  0.00    -0.280 OA
BRANCH  11  12
HETATM   12  P   UNL     1      75.865  65.573  37.462  1.00  0.00     0.422 P 
HETATM   13  O   UNL     1      74.993  64.698  36.560  1.00  0.00    -0.617 OA
HETATM   14  O   UNL     1      75.124  66.369  38.514  1.00  0.00    -0.617 OA
HETATM   15  O   UNL     1      77.102  64.851  37.990  1.00  0.00    -0.617 OA
ENDBRANCH  11  12
ENDBRANCH  10  11
ENDBRANCH   9  10
BRANCH   9  16
HETATM   16  O   UNL     1      76.192  69.101  37.868  1.00  0.00    -0.391 OA
ATOM     17  HO  UNL     1      76.276  69.941  38.303  1.00  0.00     0.210 HD
ENDBRANCH   9  16
ENDBRANCH   8   9
BRANCH   8  18
HETATM   18  O   UNL     1      79.144  70.078  35.961  1.00  0.00    -0.389 OA
ATOM     19  HO  UNL     1      79.048  70.948  35.594  1.00  0.00     0.210 HD
ENDBRANCH   8  18
ENDBRANCH   1   8
BRANCH   1  20
HETATM   20  C   UNL     1      79.177  72.274  37.711  1.00  0.00     0.214 C 
HETATM   21  O   UNL     1      79.204  73.218  36.882  1.00  0.00    -0.646 OA
HETATM   22  O   UNL     1      80.057  72.065  38.570  1.00  0.00    -0.646 OA
ENDBRANCH   1  20
BRANCH   1  23
HETATM   23  O   UNL     1      77.447  71.210  38.931  1.00  0.00    -0.375 OA
ATOM     24  HO  UNL     1      76.498  71.175  38.955  1.00  0.00     0.211 HD
ENDBRANCH   1  23
TORSDOF 12
ENDMDL
MODEL 19
REMARK VINA RESULT:    -6.126      2.695      5.690
REMARK INTER + INTRA:         -11.154
REMARK INTER:                  -8.963
REMARK INTRA:                  -2.191
REMARK UNBOUND:                -1.267
REMARK  12 active torsions:
REMARK  status: ('A' for Active; 'I' for Inactive)
REMARK    1  A    between atoms: C_1  and  O_7 
REMARK    2  A    between atoms: C_1  and  C_2 
REMARK    3  A    between atoms: C_2  and  C_3 
REMARK    4  A    between atoms: C_2  and  C_6 
REMARK    5  A    between atoms: C_2  and  O_8 
REMARK    6  A    between atoms: C_3  and  C_4 
REMARK    7  A    between atoms: C_3  and  O_10 
REMARK    8  A    between atoms: C_4  and  C_5 
REMARK    9  A    between atoms: C_4  and  O_12 
REMARK   10  A    between atoms: C_5  and  O_14 
REMARK   11  A    between atoms: O_7  and  P_17 
REMARK   12  A    between atoms: O_14  and  P_18 
ROOT
HETATM    1  C   UNL     1      76.567  71.708  37.307  1.00  0.00     0.196 C 
ENDROOT
BRANCH   1   2
HETATM    2  C   UNL     1      76.008  72.475  36.114  1.00  0.00     0.234 C 
BRANCH   2   3
HETATM    3  O   UNL     1      75.081  73.388  36.575  1.00  0.00    -0.279 OA
BRANCH   3   4
HETATM    4  P   UNL     1      73.454  73.051  36.075  1.00  0.00     0.422 P 
HETATM    5  O   UNL     1      72.934  72.173  37.200  1.00  0.00    -0.617 OA
HETATM    6  O   UNL     1      73.543  72.344  34.713  1.00  0.00    -0.617 OA
HETATM    7  O   UNL     1      72.831  74.446  36.032  1.00  0.00    -0.617 OA
ENDBRANCH   3   4
ENDBRANCH   2   3
ENDBRANCH   1   2
BRANCH   1   8
HETATM    8  C   UNL     1      75.974  70.252  37.343  1.00  0.00     0.196 C 
BRANCH   8   9
HETATM    9  C   UNL     1      75.529  69.725  35.949  1.00  0.00     0.174 C 
BRANCH   9  10
HETATM   10  C   UNL     1      76.255  68.381  35.596  1.00  0.00     0.217 C 
BRANCH  10  11
HETATM   11  O   UNL     1      77.473  68.735  34.952  1.00  0.00    -0.280 OA
BRANCH  11  12
HETATM   12  P   UNL     1      78.817  67.767  35.344  1.00  0.00     0.422 P 
HETATM   13  O   UNL     1      79.183  68.227  36.756  1.00  0.00    -0.617 OA
HETATM   14  O   UNL     1      79.877  67.993  34.288  1.00  0.00    -0.617 OA
HETATM   15  O   UNL     1      78.192  66.375  35.305  1.00  0.00    -0.617 OA
ENDBRANCH  11  12
ENDBRANCH  10  11
ENDBRANCH   9  10
BRANCH   9  16
HETATM   16  O   UNL     1      74.145  69.505  35.907  1.00  0.00    -0.391 OA
ATOM     17  HO  UNL     1      73.938  68.590  36.053  1.00  0.00     0.210 HD
ENDBRANCH   9  16
ENDBRANCH   8   9
BRANCH   8  18
HETATM   18  O   UNL     1      76.924  69.414  37.944  1.00  0.00    -0.389 OA
ATOM     19  HO  UNL     1      76.564  68.560  38.153  1.00  0.00     0.210 HD
ENDBRANCH   8  18
ENDBRANCH   1   8
BRANCH   1  20
HETATM   20  C   UNL     1      78.120  71.656  37.191  1.00  0.00     0.214 C 
HETATM   21  O   UNL     1      78.754  71.775  38.271  1.00  0.00    -0.646 OA
HETATM   22  O   UNL     1      78.653  71.499  36.076  1.00  0.00    -0.646 OA
ENDBRANCH   1  20
BRANCH   1  23
HETATM   23  O   UNL     1      76.283  72.338  38.523  1.00  0.00    -0.375 OA
ATOM     24  HO  UNL     1      76.873  72.065  39.216  1.00  0.00     0.211 HD
ENDBRANCH   1  23
TORSDOF 12
ENDMDL
MODEL 20
REMARK VINA RESULT:    -6.105      1.848      6.918
REMARK INTER + INTRA:         -11.120
REMARK INTER:                 -10.948
REMARK INTRA:                  -0.173
REMARK UNBOUND:                -1.267
REMARK  12 active torsions:
REMARK  status: ('A' for Active; 'I' for Inactive)
REMARK    1  A    between atoms: C_1  and  O_7 
REMARK    2  A    between atoms: C_1  and  C_2 
REMARK    3  A    between atoms: C_2  and  C_3 
REMARK    4  A    between atoms: C_2  and  C_6 
REMARK    5  A    between atoms: C_2  and  O_8 
REMARK    6  A    between atoms: C_3  and  C_4 
REMARK    7  A    between atoms: C_3  and  O_10 
REMARK    8  A    between atoms: C_4  and  C_5 
REMARK    9  A    between atoms: C_4  and  O_12 
REMARK   10  A    between atoms: C_5  and  O_14 
REMARK   11  A    between atoms: O_7  and  P_17 
REMARK   12  A    between atoms: O_14  and  P_18 
ROOT
HETATM    1  C   UNL     1      77.090  71.011  37.500  1.00  0.00     0.196 C 
ENDROOT
BRANCH   1   2
HETATM    2  C   UNL     1      76.592  69.666  36.985  1.00  0.00     0.234 C 
BRANCH   2   3
HETATM    3  O   UNL     1      75.225  69.743  36.810  1.00  0.00    -0.279 OA
BRANCH   3   4
HETATM    4  P   UNL     1      74.512  68.284  36.195  1.00  0.00     0.422 P 
HETATM    5  O   UNL     1      74.158  67.526  37.463  1.00  0.00    -0.617 OA
HETATM    6  O   UNL     1      75.580  67.597  35.328  1.00  0.00    -0.617 OA
HETATM    7  O   UNL     1      73.304  68.812  35.424  1.00  0.00    -0.617 OA
ENDBRANCH   3   4
ENDBRANCH   2   3
ENDBRANCH   1   2
BRANCH   1   8
HETATM    8  C   UNL     1      78.359  71.467  36.690  1.00  0.00     0.196 C 
BRANCH   8   9
HETATM    9  C   UNL     1      79.499  72.033  37.585  1.00  0.00     0.174 C 
BRANCH   9  10
HETATM   10  C   UNL     1      80.692  72.558  36.715  1.00  0.00     0.217 C 
BRANCH  10  11
HETATM   11  O   UNL     1      80.372  73.897  36.353  1.00  0.00    -0.280 OA
BRANCH  11  12
HETATM   12  P   UNL     1      81.565  75.057  36.710  1.00  0.00     0.422 P 
HETATM   13  O   UNL     1      81.218  75.493  38.134  1.00  0.00    -0.617 OA
HETATM   14  O   UNL     1      81.489  76.142  35.658  1.00  0.00    -0.617 OA
HETATM   15  O   UNL     1      82.829  74.205  36.631  1.00  0.00    -0.617 OA
ENDBRANCH  11  12
ENDBRANCH  10  11
ENDBRANCH   9  10
BRANCH   9  16
HETATM   16  O   UNL     1      79.038  73.086  38.388  1.00  0.00    -0.391 OA
ATOM     17  HO  UNL     1      79.742  73.684  38.607  1.00  0.00     0.210 HD
ENDBRANCH   9  16
ENDBRANCH   8   9
BRANCH   8  18
HETATM   18  O   UNL     1      78.790  70.382  35.914  1.00  0.00    -0.389 OA
ATOM     19  HO  UNL     1      79.569  69.975  36.272  1.00  0.00     0.210 HD
ENDBRANCH   8  18
ENDBRANCH   1   8
BRANCH   1  20
HETATM   20  C   UNL     1      75.948  72.063  37.352  1.00  0.00     0.214 C 
HETATM   21  O   UNL     1      76.231  73.088  36.682  1.00  0.00    -0.646 OA
HETATM   22  O   UNL     1      74.840  71.851  37.881  1.00  0.00    -0.646 OA
ENDBRANCH   1  20
BRANCH   1  23
HETATM   23  O   UNL     1      77.416  70.972  38.859  1.00  0.00    -0.375 OA
ATOM     24  HO  UNL     1      78.020  70.268  39.065  1.00  0.00     0.211 HD
ENDBRANCH   1  23
TORSDOF 12
ENDMDL
