MODEL 1
REMARK VINA RESULT:   -13.807      0.000      0.000
REMARK INTER + INTRA:         -18.694
REMARK INTER:                 -17.843
REMARK INTRA:                  -0.852
REMARK UNBOUND:                -0.852
REMARK  5 active torsions:
REMARK  status: ('A' for Active; 'I' for Inactive)
REMARK       I    between atoms: N_1  and  C_25 
REMARK    1  A    between atoms: N_1  and  C_24 
REMARK    2  A    between atoms: C_4  and  C_25 
REMARK    3  A    between atoms: C_9  and  C_14 
REMARK    4  A    between atoms: C_21  and  C_29 
REMARK    5  A    between atoms: C_29  and  C_30 
ROOT
HETATM    1  C   UNL     1      -1.562  86.669  22.821  1.00  0.00     0.069 C 
HETATM    2  C   UNL     1      -0.500  85.667  23.013  1.00  0.00     0.073 C 
HETATM    3  C   UNL     1      -1.350  87.297  21.433  1.00  0.00     0.036 C 
HETATM    4  N   UNL     1       0.353  84.945  23.148  1.00  0.00    -0.196 NA
HETATM    5  C   UNL     1      -1.343  87.759  23.897  1.00  0.00     0.036 C 
ENDROOT
BRANCH   1   6
HETATM    6  C   UNL     1      -2.940  85.999  22.945  1.00  0.00    -0.035 A 
HETATM    7  C   UNL     1      -3.185  85.055  23.941  1.00  0.00     0.009 A 
HETATM    8  C   UNL     1      -4.420  84.436  24.041  1.00  0.00     0.002 A 
HETATM    9  C   UNL     1      -5.434  84.748  23.152  1.00  0.00     0.017 A 
HETATM   10  C   UNL     1      -5.225  85.702  22.165  1.00  0.00     0.032 A 
HETATM   11  C   UNL     1      -3.975  86.319  22.065  1.00  0.00     0.026 A 
BRANCH  10  12
HETATM   12  C   UNL     1      -6.298  86.072  21.180  1.00  0.00     0.256 C 
HETATM   13  O   UNL     1      -6.000  86.585  20.123  1.00  0.00    -0.267 OA
HETATM   14  N   UNL     1      -7.560  86.106  21.624  1.00  0.00    -0.320 N 
ATOM     15  HN  UNL     1      -7.658  85.882  22.615  1.00  0.00     0.169 HD
BRANCH  14  16
HETATM   16  C   UNL     1      -8.794  86.398  20.967  1.00  0.00     0.075 A 
HETATM   17  C   UNL     1      -9.109  85.972  19.676  1.00  0.00     0.160 A 
HETATM   18  F   UNL     1      -8.296  85.114  19.036  1.00  0.00    -0.203 F 
HETATM   19  C   UNL     1     -10.293  86.347  19.051  1.00  0.00     0.094 A 
HETATM   20  C   UNL     1     -11.141  87.159  19.802  1.00  0.00     0.133 A 
HETATM   21  F   UNL     1     -12.303  87.540  19.244  1.00  0.00    -0.205 F 
HETATM   22  C   UNL     1     -10.882  87.552  21.087  1.00  0.00     0.046 A 
HETATM   23  C   UNL     1      -9.716  87.137  21.693  1.00  0.00     0.036 A 
BRANCH  19  24
HETATM   24  C   UNL     1     -10.624  85.906  17.661  1.00  0.00     0.200 C 
HETATM   25  O   UNL     1     -10.935  84.726  17.436  1.00  0.00    -0.286 OA
BRANCH  24  26
HETATM   26  C   UNL     1     -10.517  86.904  16.586  1.00  0.00     0.044 A 
HETATM   27  C   UNL     1     -10.869  86.774  15.200  1.00  0.00     0.025 A 
HETATM   28  C   UNL     1     -10.555  87.992  14.580  1.00  0.00     0.116 A 
HETATM   29  C   UNL     1     -11.422  85.775  14.395  1.00  0.00     0.041 A 
HETATM   30  N   UNL     1     -10.739  88.293  13.292  1.00  0.00    -0.350 N 
HETATM   31  N   UNL     1     -10.032  88.827  15.530  1.00  0.00    -0.351 N 
HETATM   32  C   UNL     1     -11.286  87.330  12.552  1.00  0.00     0.113 A 
ATOM     33  HN  UNL     1     -10.479  89.198  12.901  1.00  0.00     0.166 HD
HETATM   34  C   UNL     1     -11.622  86.086  13.061  1.00  0.00     0.050 A 
HETATM   35 CL   UNL     1     -12.269  84.876  11.997  1.00  0.00    -0.083 Cl
HETATM   36  C   UNL     1      -9.999  88.168  16.728  1.00  0.00     0.106 A 
ATOM     37  HN  UNL     1      -9.717  89.785  15.370  1.00  0.00     0.166 HD
ENDBRANCH  24  26
ENDBRANCH  19  24
ENDBRANCH  14  16
ENDBRANCH  10  12
ENDBRANCH   1   6
TORSDOF 5
ENDMDL
MODEL 2
REMARK VINA RESULT:   -13.337      1.243      2.345
REMARK INTER + INTRA:         -18.087
REMARK INTER:                 -16.964
REMARK INTRA:                  -1.123
REMARK UNBOUND:                -0.852
REMARK  5 active torsions:
REMARK  status: ('A' for Active; 'I' for Inactive)
REMARK       I    between atoms: N_1  and  C_25 
REMARK    1  A    between atoms: N_1  and  C_24 
REMARK    2  A    between atoms: C_4  and  C_25 
REMARK    3  A    between atoms: C_9  and  C_14 
REMARK    4  A    between atoms: C_21  and  C_29 
REMARK    5  A    between atoms: C_29  and  C_30 
ROOT
HETATM    1  C   UNL     1      -4.307  83.282  24.804  1.00  0.00     0.069 C 
HETATM    2  C   UNL     1      -3.221  82.294  24.689  1.00  0.00     0.073 C 
HETATM    3  C   UNL     1      -4.220  83.892  26.213  1.00  0.00     0.036 C 
HETATM    4  N   UNL     1      -2.414  81.510  24.653  1.00  0.00    -0.196 NA
HETATM    5  C   UNL     1      -5.635  82.499  24.683  1.00  0.00     0.036 C 
ENDROOT
BRANCH   1   6
HETATM    6  C   UNL     1      -4.159  84.348  23.705  1.00  0.00    -0.035 A 
HETATM    7  C   UNL     1      -2.899  84.735  23.254  1.00  0.00     0.009 A 
HETATM    8  C   UNL     1      -2.764  85.709  22.279  1.00  0.00     0.002 A 
HETATM    9  C   UNL     1      -3.883  86.314  21.734  1.00  0.00     0.017 A 
HETATM   10  C   UNL     1      -5.152  85.930  22.147  1.00  0.00     0.032 A 
HETATM   11  C   UNL     1      -5.282  84.951  23.135  1.00  0.00     0.026 A 
BRANCH  10  12
HETATM   12  C   UNL     1      -6.393  86.560  21.581  1.00  0.00     0.256 C 
HETATM   13  O   UNL     1      -6.544  87.761  21.638  1.00  0.00    -0.267 OA
HETATM   14  N   UNL     1      -7.428  85.754  21.312  1.00  0.00    -0.320 N 
ATOM     15  HN  UNL     1      -7.260  84.773  21.536  1.00  0.00     0.169 HD
BRANCH  14  16
HETATM   16  C   UNL     1      -8.722  86.015  20.768  1.00  0.00     0.075 A 
HETATM   17  C   UNL     1      -9.094  85.706  19.458  1.00  0.00     0.160 A 
HETATM   18  F   UNL     1      -8.266  84.990  18.678  1.00  0.00    -0.203 F 
HETATM   19  C   UNL     1     -10.342  86.050  18.953  1.00  0.00     0.094 A 
HETATM   20  C   UNL     1     -11.194  86.706  19.839  1.00  0.00     0.133 A 
HETATM   21  F   UNL     1     -12.416  87.050  19.399  1.00  0.00    -0.205 F 
HETATM   22  C   UNL     1     -10.876  86.978  21.143  1.00  0.00     0.046 A 
HETATM   23  C   UNL     1      -9.644  86.595  21.626  1.00  0.00     0.036 A 
BRANCH  19  24
HETATM   24  C   UNL     1     -10.736  85.735  17.544  1.00  0.00     0.200 C 
HETATM   25  O   UNL     1     -11.110  84.592  17.239  1.00  0.00    -0.286 OA
BRANCH  24  26
HETATM   26  C   UNL     1     -10.613  86.809  16.547  1.00  0.00     0.044 A 
HETATM   27  C   UNL     1     -10.918  86.772  15.143  1.00  0.00     0.025 A 
HETATM   28  C   UNL     1     -10.607  88.036  14.622  1.00  0.00     0.116 A 
HETATM   29  C   UNL     1     -11.426  85.824  14.252  1.00  0.00     0.041 A 
HETATM   30  N   UNL     1     -10.755  88.425  13.353  1.00  0.00    -0.350 N 
HETATM   31  N   UNL     1     -10.129  88.810  15.646  1.00  0.00    -0.351 N 
HETATM   32  C   UNL     1     -11.260  87.508  12.529  1.00  0.00     0.113 A 
ATOM     33  HN  UNL     1     -10.499  89.360  13.036  1.00  0.00     0.166 HD
HETATM   34  C   UNL     1     -11.589  86.226  12.938  1.00  0.00     0.050 A 
HETATM   35 CL   UNL     1     -12.179  85.084  11.770  1.00  0.00    -0.083 Cl
HETATM   36  C   UNL     1     -10.123  88.068  16.794  1.00  0.00     0.106 A 
ATOM     37  HN  UNL     1      -9.827  89.781  15.564  1.00  0.00     0.166 HD
ENDBRANCH  24  26
ENDBRANCH  19  24
ENDBRANCH  14  16
ENDBRANCH  10  12
ENDBRANCH   1   6
TORSDOF 5
ENDMDL
MODEL 3
REMARK VINA RESULT:   -11.824      6.006     10.377
REMARK INTER + INTRA:         -16.133
REMARK INTER:                 -14.951
REMARK INTRA:                  -1.182
REMARK UNBOUND:                -0.852
REMARK  5 active torsions:
REMARK  status: ('A' for Active; 'I' for Inactive)
REMARK       I    between atoms: N_1  and  C_25 
REMARK    1  A    between atoms: N_1  and  C_24 
REMARK    2  A    between atoms: C_4  and  C_25 
REMARK    3  A    between atoms: C_9  and  C_14 
REMARK    4  A    between atoms: C_21  and  C_29 
REMARK    5  A    between atoms: C_29  and  C_30 
ROOT
HETATM    1  C   UNL     1     -10.604  86.361  18.153  1.00  0.00     0.069 C 
HETATM    2  C   UNL     1     -11.658  86.972  18.980  1.00  0.00     0.073 C 
HETATM    3  C   UNL     1     -10.893  84.852  18.090  1.00  0.00     0.036 C 
HETATM    4  N   UNL     1     -12.448  87.398  19.659  1.00  0.00    -0.196 NA
HETATM    5  C   UNL     1      -9.268  86.580  18.901  1.00  0.00     0.036 C 
ENDROOT
BRANCH   1   6
HETATM    6  C   UNL     1     -10.600  87.005  16.757  1.00  0.00    -0.035 A 
HETATM    7  C   UNL     1      -9.954  88.219  16.535  1.00  0.00     0.009 A 
HETATM    8  C   UNL     1      -9.967  88.810  15.282  1.00  0.00     0.002 A 
HETATM    9  C   UNL     1     -10.622  88.200  14.227  1.00  0.00     0.017 A 
HETATM   10  C   UNL     1     -11.254  86.977  14.413  1.00  0.00     0.032 A 
HETATM   11  C   UNL     1     -11.243  86.389  15.681  1.00  0.00     0.026 A 
BRANCH  10  12
HETATM   12  C   UNL     1     -11.976  86.280  13.296  1.00  0.00     0.256 C 
HETATM   13  O   UNL     1     -12.875  85.506  13.544  1.00  0.00    -0.267 OA
HETATM   14  N   UNL     1     -11.406  86.298  12.084  1.00  0.00    -0.320 N 
ATOM     15  HN  UNL     1     -10.511  86.788  12.053  1.00  0.00     0.169 HD
BRANCH  14  16
HETATM   16  C   UNL     1     -11.819  85.759  10.828  1.00  0.00     0.075 A 
HETATM   17  C   UNL     1     -11.765  84.402  10.507  1.00  0.00     0.160 A 
HETATM   18  F   UNL     1     -11.450  83.501  11.454  1.00  0.00    -0.203 F 
HETATM   19  C   UNL     1     -12.107  83.936   9.243  1.00  0.00     0.094 A 
HETATM   20  C   UNL     1     -12.518  84.906   8.332  1.00  0.00     0.133 A 
HETATM   21  F   UNL     1     -12.868  84.503   7.099  1.00  0.00    -0.205 F 
HETATM   22  C   UNL     1     -12.629  86.237   8.632  1.00  0.00     0.046 A 
HETATM   23  C   UNL     1     -12.315  86.666   9.904  1.00  0.00     0.036 A 
BRANCH  19  24
HETATM   24  C   UNL     1     -12.032  82.484   8.892  1.00  0.00     0.200 C 
HETATM   25  O   UNL     1     -13.064  81.796   8.847  1.00  0.00    -0.286 OA
BRANCH  24  26
HETATM   26  C   UNL     1     -10.699  81.908   8.657  1.00  0.00     0.044 A 
HETATM   27  C   UNL     1     -10.329  80.528   8.510  1.00  0.00     0.025 A 
HETATM   28  C   UNL     1      -8.939  80.492   8.330  1.00  0.00     0.116 A 
HETATM   29  C   UNL     1     -11.003  79.304   8.501  1.00  0.00     0.041 A 
HETATM   30  N   UNL     1      -8.194  79.399   8.145  1.00  0.00    -0.350 N 
HETATM   31  N   UNL     1      -8.474  81.780   8.369  1.00  0.00    -0.351 N 
HETATM   32  C   UNL     1      -8.864  78.248   8.121  1.00  0.00     0.113 A 
ATOM     33  HN  UNL     1      -7.182  79.442   8.030  1.00  0.00     0.166 HD
HETATM   34  C   UNL     1     -10.235  78.169   8.301  1.00  0.00     0.050 A 
HETATM   35 CL   UNL     1     -11.005  76.613   8.319  1.00  0.00    -0.083 Cl
HETATM   36  C   UNL     1      -9.530  82.624   8.577  1.00  0.00     0.106 A 
ATOM     37  HN  UNL     1      -7.500  82.063   8.262  1.00  0.00     0.166 HD
ENDBRANCH  24  26
ENDBRANCH  19  24
ENDBRANCH  14  16
ENDBRANCH  10  12
ENDBRANCH   1   6
TORSDOF 5
ENDMDL
MODEL 4
REMARK VINA RESULT:   -11.721      5.184     11.724
REMARK INTER + INTRA:         -15.999
REMARK INTER:                 -14.628
REMARK INTRA:                  -1.370
REMARK UNBOUND:                -0.852
REMARK  5 active torsions:
REMARK  status: ('A' for Active; 'I' for Inactive)
REMARK       I    between atoms: N_1  and  C_25 
REMARK    1  A    between atoms: N_1  and  C_24 
REMARK    2  A    between atoms: C_4  and  C_25 
REMARK    3  A    between atoms: C_9  and  C_14 
REMARK    4  A    between atoms: C_21  and  C_29 
REMARK    5  A    between atoms: C_29  and  C_30 
ROOT
HETATM    1  C   UNL     1     -10.818  86.652  18.338  1.00  0.00     0.069 C 
HETATM    2  C   UNL     1     -10.209  87.585  17.375  1.00  0.00     0.073 C 
HETATM    3  C   UNL     1     -10.653  85.234  17.764  1.00  0.00     0.036 C 
HETATM    4  N   UNL     1      -9.781  88.274  16.594  1.00  0.00    -0.196 NA
HETATM    5  C   UNL     1     -12.326  86.992  18.393  1.00  0.00     0.036 C 
ENDROOT
BRANCH   1   6
HETATM    6  C   UNL     1     -10.138  86.801  19.709  1.00  0.00    -0.035 A 
HETATM    7  C   UNL     1     -10.845  87.295  20.803  1.00  0.00     0.009 A 
HETATM    8  C   UNL     1     -10.228  87.448  22.033  1.00  0.00     0.002 A 
HETATM    9  C   UNL     1      -8.896  87.111  22.196  1.00  0.00     0.017 A 
HETATM   10  C   UNL     1      -8.174  86.593  21.128  1.00  0.00     0.032 A 
HETATM   11  C   UNL     1      -8.800  86.446  19.888  1.00  0.00     0.026 A 
BRANCH  10  12
HETATM   12  C   UNL     1      -6.726  86.213  21.261  1.00  0.00     0.256 C 
HETATM   13  O   UNL     1      -6.084  85.920  20.276  1.00  0.00    -0.267 OA
HETATM   14  N   UNL     1      -6.275  85.913  22.485  1.00  0.00    -0.320 N 
ATOM     15  HN  UNL     1      -6.986  85.965  23.214  1.00  0.00     0.169 HD
BRANCH  14  16
HETATM   16  C   UNL     1      -4.982  85.533  22.957  1.00  0.00     0.075 A 
HETATM   17  C   UNL     1      -4.744  84.423  23.769  1.00  0.00     0.160 A 
HETATM   18  F   UNL     1      -5.737  83.553  24.023  1.00  0.00    -0.203 F 
HETATM   19  C   UNL     1      -3.477  84.139  24.266  1.00  0.00     0.094 A 
HETATM   20  C   UNL     1      -2.468  85.023  23.889  1.00  0.00     0.133 A 
HETATM   21  F   UNL     1      -1.224  84.785  24.337  1.00  0.00    -0.205 F 
HETATM   22  C   UNL     1      -2.661  86.091  23.055  1.00  0.00     0.046 A 
HETATM   23  C   UNL     1      -3.921  86.328  22.551  1.00  0.00     0.036 A 
BRANCH  19  24
HETATM   24  C   UNL     1      -3.224  82.960  25.150  1.00  0.00     0.200 C 
HETATM   25  O   UNL     1      -2.999  81.843  24.657  1.00  0.00    -0.286 OA
BRANCH  24  26
HETATM   26  C   UNL     1      -3.302  83.169  26.604  1.00  0.00     0.044 A 
HETATM   27  C   UNL     1      -2.245  83.482  27.525  1.00  0.00     0.025 A 
HETATM   28  C   UNL     1      -2.822  83.556  28.802  1.00  0.00     0.116 A 
HETATM   29  C   UNL     1      -0.872  83.720  27.433  1.00  0.00     0.041 A 
HETATM   30  N   UNL     1      -2.184  83.837  29.941  1.00  0.00    -0.350 N 
HETATM   31  N   UNL     1      -4.160  83.296  28.677  1.00  0.00    -0.351 N 
HETATM   32  C   UNL     1      -0.880  84.078  29.822  1.00  0.00     0.113 A 
ATOM     33  HN  UNL     1      -2.663  83.864  30.841  1.00  0.00     0.166 HD
HETATM   34  C   UNL     1      -0.209  84.020  28.611  1.00  0.00     0.050 A 
HETATM   35 CL   UNL     1       1.506  84.287  28.573  1.00  0.00    -0.083 Cl
HETATM   36  C   UNL     1      -4.442  83.053  27.361  1.00  0.00     0.106 A 
ATOM     37  HN  UNL     1      -4.836  83.284  29.440  1.00  0.00     0.166 HD
ENDBRANCH  24  26
ENDBRANCH  19  24
ENDBRANCH  14  16
ENDBRANCH  10  12
ENDBRANCH   1   6
TORSDOF 5
ENDMDL
MODEL 5
REMARK VINA RESULT:   -11.693      1.682      2.030
REMARK INTER + INTRA:         -15.963
REMARK INTER:                 -14.746
REMARK INTRA:                  -1.218
REMARK UNBOUND:                -0.852
REMARK  5 active torsions:
REMARK  status: ('A' for Active; 'I' for Inactive)
REMARK       I    between atoms: N_1  and  C_25 
REMARK    1  A    between atoms: N_1  and  C_24 
REMARK    2  A    between atoms: C_4  and  C_25 
REMARK    3  A    between atoms: C_9  and  C_14 
REMARK    4  A    between atoms: C_21  and  C_29 
REMARK    5  A    between atoms: C_29  and  C_30 
ROOT
HETATM    1  C   UNL     1      -1.580  85.427  22.862  1.00  0.00     0.069 C 
HETATM    2  C   UNL     1      -1.311  86.021  21.542  1.00  0.00     0.073 C 
HETATM    3  C   UNL     1      -1.118  86.443  23.921  1.00  0.00     0.036 C 
HETATM    4  N   UNL     1      -1.046  86.482  20.550  1.00  0.00    -0.196 NA
HETATM    5  C   UNL     1      -0.696  84.162  22.969  1.00  0.00     0.036 C 
ENDROOT
BRANCH   1   6
HETATM    6  C   UNL     1      -3.077  85.102  22.992  1.00  0.00    -0.035 A 
HETATM    7  C   UNL     1      -3.508  84.037  23.781  1.00  0.00     0.009 A 
HETATM    8  C   UNL     1      -4.855  83.731  23.882  1.00  0.00     0.002 A 
HETATM    9  C   UNL     1      -5.797  84.481  23.201  1.00  0.00     0.017 A 
HETATM   10  C   UNL     1      -5.398  85.563  22.427  1.00  0.00     0.032 A 
HETATM   11  C   UNL     1      -4.037  85.864  22.324  1.00  0.00     0.026 A 
BRANCH  10  12
HETATM   12  C   UNL     1      -6.387  86.405  21.672  1.00  0.00     0.256 C 
HETATM   13  O   UNL     1      -6.106  87.544  21.367  1.00  0.00    -0.267 OA
HETATM   14  N   UNL     1      -7.655  85.979  21.628  1.00  0.00    -0.320 N 
ATOM     15  HN  UNL     1      -7.820  85.110  22.136  1.00  0.00     0.169 HD
BRANCH  14  16
HETATM   16  C   UNL     1      -8.820  86.518  21.001  1.00  0.00     0.075 A 
HETATM   17  C   UNL     1      -8.939  86.728  19.626  1.00  0.00     0.160 A 
HETATM   18  F   UNL     1      -7.984  86.276  18.795  1.00  0.00    -0.203 F 
HETATM   19  C   UNL     1     -10.065  87.326  19.073  1.00  0.00     0.094 A 
HETATM   20  C   UNL     1     -11.063  87.685  19.975  1.00  0.00     0.133 A 
HETATM   21  F   UNL     1     -12.176  88.259  19.486  1.00  0.00    -0.205 F 
HETATM   22  C   UNL     1     -10.997  87.448  21.321  1.00  0.00     0.046 A 
HETATM   23  C   UNL     1      -9.883  86.823  21.838  1.00  0.00     0.036 A 
BRANCH  19  24
HETATM   24  C   UNL     1     -10.185  87.567  17.601  1.00  0.00     0.200 C 
HETATM   25  O   UNL     1      -9.883  88.671  17.121  1.00  0.00    -0.286 OA
BRANCH  24  26
HETATM   26  C   UNL     1     -10.717  86.475  16.773  1.00  0.00     0.044 A 
HETATM   27  C   UNL     1     -11.021  86.477  15.369  1.00  0.00     0.025 A 
HETATM   28  C   UNL     1     -11.527  85.207  15.057  1.00  0.00     0.116 A 
HETATM   29  C   UNL     1     -10.923  87.397  14.323  1.00  0.00     0.041 A 
HETATM   30  N   UNL     1     -11.921  84.788  13.851  1.00  0.00    -0.350 N 
HETATM   31  N   UNL     1     -11.541  84.463  16.206  1.00  0.00    -0.351 N 
HETATM   32  C   UNL     1     -11.798  85.680  12.868  1.00  0.00     0.113 A 
ATOM     33  HN  UNL     1     -12.290  83.851  13.693  1.00  0.00     0.166 HD
HETATM   34  C   UNL     1     -11.322  86.965  13.070  1.00  0.00     0.050 A 
HETATM   35 CL   UNL     1     -11.263  88.071  11.733  1.00  0.00    -0.083 Cl
HETATM   36  C   UNL     1     -11.066  85.229  17.234  1.00  0.00     0.106 A 
ATOM     37  HN  UNL     1     -11.855  83.495  16.282  1.00  0.00     0.166 HD
ENDBRANCH  24  26
ENDBRANCH  19  24
ENDBRANCH  14  16
ENDBRANCH  10  12
ENDBRANCH   1   6
TORSDOF 5
ENDMDL
MODEL 6
REMARK VINA RESULT:   -11.655      4.645     10.899
REMARK INTER + INTRA:         -15.914
REMARK INTER:                 -14.506
REMARK INTRA:                  -1.408
REMARK UNBOUND:                -0.852
REMARK  5 active torsions:
REMARK  status: ('A' for Active; 'I' for Inactive)
REMARK       I    between atoms: N_1  and  C_25 
REMARK    1  A    between atoms: N_1  and  C_24 
REMARK    2  A    between atoms: C_4  and  C_25 
REMARK    3  A    between atoms: C_9  and  C_14 
REMARK    4  A    between atoms: C_21  and  C_29 
REMARK    5  A    between atoms: C_29  and  C_30 
ROOT
HETATM    1  C   UNL     1     -10.790  86.712  18.154  1.00  0.00     0.069 C 
HETATM    2  C   UNL     1     -10.182  87.695  17.242  1.00  0.00     0.073 C 
HETATM    3  C   UNL     1     -10.559  85.320  17.542  1.00  0.00     0.036 C 
HETATM    4  N   UNL     1      -9.752  88.423  16.499  1.00  0.00    -0.196 NA
HETATM    5  C   UNL     1     -12.309  87.001  18.171  1.00  0.00     0.036 C 
ENDROOT
BRANCH   1   6
HETATM    6  C   UNL     1     -10.159  86.837  19.551  1.00  0.00    -0.035 A 
HETATM    7  C   UNL     1     -10.897  87.336  20.623  1.00  0.00     0.009 A 
HETATM    8  C   UNL     1     -10.323  87.469  21.876  1.00  0.00     0.002 A 
HETATM    9  C   UNL     1      -9.005  87.103  22.086  1.00  0.00     0.017 A 
HETATM   10  C   UNL     1      -8.254  86.580  21.042  1.00  0.00     0.032 A 
HETATM   11  C   UNL     1      -8.835  86.454  19.777  1.00  0.00     0.026 A 
BRANCH  10  12
HETATM   12  C   UNL     1      -6.820  86.170  21.225  1.00  0.00     0.256 C 
HETATM   13  O   UNL     1      -6.145  85.879  20.261  1.00  0.00    -0.267 OA
HETATM   14  N   UNL     1      -6.423  85.843  22.461  1.00  0.00    -0.320 N 
ATOM     15  HN  UNL     1      -7.162  85.898  23.163  1.00  0.00     0.169 HD
BRANCH  14  16
HETATM   16  C   UNL     1      -5.157  85.432  22.978  1.00  0.00     0.075 A 
HETATM   17  C   UNL     1      -4.960  84.269  23.724  1.00  0.00     0.160 A 
HETATM   18  F   UNL     1      -5.963  83.384  23.862  1.00  0.00    -0.203 F 
HETATM   19  C   UNL     1      -3.722  83.952  24.270  1.00  0.00     0.094 A 
HETATM   20  C   UNL     1      -2.697  84.859  24.012  1.00  0.00     0.133 A 
HETATM   21  F   UNL     1      -1.479  84.591  24.511  1.00  0.00    -0.205 F 
HETATM   22  C   UNL     1      -2.847  85.981  23.242  1.00  0.00     0.046 A 
HETATM   23  C   UNL     1      -4.078  86.253  22.686  1.00  0.00     0.036 A 
BRANCH  19  24
HETATM   24  C   UNL     1      -3.514  82.715  25.085  1.00  0.00     0.200 C 
HETATM   25  O   UNL     1      -2.974  81.717  24.582  1.00  0.00    -0.286 OA
BRANCH  24  26
HETATM   26  C   UNL     1      -4.015  82.718  26.468  1.00  0.00     0.044 A 
HETATM   27  C   UNL     1      -5.143  82.018  27.017  1.00  0.00     0.025 A 
HETATM   28  C   UNL     1      -5.222  82.367  28.373  1.00  0.00     0.116 A 
HETATM   29  C   UNL     1      -6.102  81.125  26.533  1.00  0.00     0.041 A 
HETATM   30  N   UNL     1      -6.126  81.924  29.251  1.00  0.00    -0.350 N 
HETATM   31  N   UNL     1      -4.204  83.240  28.645  1.00  0.00    -0.351 N 
HETATM   32  C   UNL     1      -7.016  81.059  28.768  1.00  0.00     0.113 A 
ATOM     33  HN  UNL     1      -6.135  82.227  30.225  1.00  0.00     0.166 HD
HETATM   34  C   UNL     1      -7.035  80.656  27.442  1.00  0.00     0.050 A 
HETATM   35 CL   UNL     1      -8.279  79.575  26.898  1.00  0.00    -0.083 Cl
HETATM   36  C   UNL     1      -3.490  83.457  27.499  1.00  0.00     0.106 A 
ATOM     37  HN  UNL     1      -4.009  83.661  29.554  1.00  0.00     0.166 HD
ENDBRANCH  24  26
ENDBRANCH  19  24
ENDBRANCH  14  16
ENDBRANCH  10  12
ENDBRANCH   1   6
TORSDOF 5
ENDMDL
MODEL 7
REMARK VINA RESULT:   -11.163      4.679     12.066
REMARK INTER + INTRA:         -15.278
REMARK INTER:                 -14.615
REMARK INTRA:                  -0.663
REMARK UNBOUND:                -0.852
REMARK  5 active torsions:
REMARK  status: ('A' for Active; 'I' for Inactive)
REMARK       I    between atoms: N_1  and  C_25 
REMARK    1  A    between atoms: N_1  and  C_24 
REMARK    2  A    between atoms: C_4  and  C_25 
REMARK    3  A    between atoms: C_9  and  C_14 
REMARK    4  A    between atoms: C_21  and  C_29 
REMARK    5  A    between atoms: C_29  and  C_30 
ROOT
HETATM    1  C   UNL     1     -14.908  82.637   8.806  1.00  0.00     0.069 C 
HETATM    2  C   UNL     1     -16.293  82.838   9.265  1.00  0.00     0.073 C 
HETATM    3  C   UNL     1     -14.975  82.236   7.323  1.00  0.00     0.036 C 
HETATM    4  N   UNL     1     -17.364  82.933   9.596  1.00  0.00    -0.196 NA
HETATM    5  C   UNL     1     -14.339  81.449   9.616  1.00  0.00     0.036 C 
ENDROOT
BRANCH   1   6
HETATM    6  C   UNL     1     -14.097  83.926   9.018  1.00  0.00    -0.035 A 
HETATM    7  C   UNL     1     -14.129  84.950   8.074  1.00  0.00     0.009 A 
HETATM    8  C   UNL     1     -13.384  86.103   8.254  1.00  0.00     0.002 A 
HETATM    9  C   UNL     1     -12.594  86.257   9.380  1.00  0.00     0.017 A 
HETATM   10  C   UNL     1     -12.561  85.263  10.349  1.00  0.00     0.032 A 
HETATM   11  C   UNL     1     -13.311  84.099  10.159  1.00  0.00     0.026 A 
BRANCH  10  12
HETATM   12  C   UNL     1     -11.719  85.389  11.586  1.00  0.00     0.256 C 
HETATM   13  O   UNL     1     -11.026  84.461  11.945  1.00  0.00    -0.267 OA
HETATM   14  N   UNL     1     -11.991  86.400  12.420  1.00  0.00    -0.320 N 
ATOM     15  HN  UNL     1     -12.771  86.986  12.122  1.00  0.00     0.169 HD
BRANCH  14  16
HETATM   16  C   UNL     1     -11.391  86.810  13.649  1.00  0.00     0.075 A 
HETATM   17  C   UNL     1     -11.453  86.072  14.832  1.00  0.00     0.160 A 
HETATM   18  F   UNL     1     -11.971  84.831  14.820  1.00  0.00    -0.203 F 
HETATM   19  C   UNL     1     -10.918  86.551  16.022  1.00  0.00     0.094 A 
HETATM   20  C   UNL     1     -10.308  87.801  15.950  1.00  0.00     0.133 A 
HETATM   21  F   UNL     1      -9.767  88.303  17.073  1.00  0.00    -0.205 F 
HETATM   22  C   UNL     1     -10.188  88.527  14.795  1.00  0.00     0.046 A 
HETATM   23  C   UNL     1     -10.698  88.012  13.624  1.00  0.00     0.036 A 
BRANCH  19  24
HETATM   24  C   UNL     1     -10.999  85.768  17.294  1.00  0.00     0.200 C 
HETATM   25  O   UNL     1     -10.948  84.528  17.270  1.00  0.00    -0.286 OA
BRANCH  24  26
HETATM   26  C   UNL     1     -11.191  86.518  18.544  1.00  0.00     0.044 A 
HETATM   27  C   UNL     1     -10.280  86.682  19.643  1.00  0.00     0.025 A 
HETATM   28  C   UNL     1     -10.936  87.461  20.607  1.00  0.00     0.116 A 
HETATM   29  C   UNL     1      -8.977  86.271  19.935  1.00  0.00     0.041 A 
HETATM   30  N   UNL     1     -10.432  87.854  21.780  1.00  0.00    -0.350 N 
HETATM   31  N   UNL     1     -12.185  87.756  20.134  1.00  0.00    -0.351 N 
HETATM   32  C   UNL     1      -9.182  87.465  22.024  1.00  0.00     0.113 A 
ATOM     33  HN  UNL     1     -10.968  88.413  22.444  1.00  0.00     0.166 HD
HETATM   34  C   UNL     1      -8.448  86.684  21.146  1.00  0.00     0.050 A 
HETATM   35 CL   UNL     1      -6.848  86.176  21.589  1.00  0.00    -0.083 Cl
HETATM   36  C   UNL     1     -12.339  87.181  18.903  1.00  0.00     0.106 A 
ATOM     37  HN  UNL     1     -12.888  88.315  20.619  1.00  0.00     0.166 HD
ENDBRANCH  24  26
ENDBRANCH  19  24
ENDBRANCH  14  16
ENDBRANCH  10  12
ENDBRANCH   1   6
TORSDOF 5
ENDMDL
MODEL 8
REMARK VINA RESULT:   -10.891      6.046     10.474
REMARK INTER + INTRA:         -14.926
REMARK INTER:                 -13.363
REMARK INTRA:                  -1.563
REMARK UNBOUND:                -0.852
REMARK  5 active torsions:
REMARK  status: ('A' for Active; 'I' for Inactive)
REMARK       I    between atoms: N_1  and  C_25 
REMARK    1  A    between atoms: N_1  and  C_24 
REMARK    2  A    between atoms: C_4  and  C_25 
REMARK    3  A    between atoms: C_9  and  C_14 
REMARK    4  A    between atoms: C_21  and  C_29 
REMARK    5  A    between atoms: C_29  and  C_30 
ROOT
HETATM    1  C   UNL     1     -10.627  86.279  17.905  1.00  0.00     0.069 C 
HETATM    2  C   UNL     1     -11.692  86.856  18.742  1.00  0.00     0.073 C 
HETATM    3  C   UNL     1     -10.839  84.755  17.888  1.00  0.00     0.036 C 
HETATM    4  N   UNL     1     -12.488  87.260  19.429  1.00  0.00    -0.196 NA
HETATM    5  C   UNL     1      -9.288  86.585  18.615  1.00  0.00     0.036 C 
ENDROOT
BRANCH   1   6
HETATM    6  C   UNL     1     -10.688  86.884  16.494  1.00  0.00    -0.035 A 
HETATM    7  C   UNL     1     -10.144  88.140  16.234  1.00  0.00     0.009 A 
HETATM    8  C   UNL     1     -10.216  88.695  14.967  1.00  0.00     0.002 A 
HETATM    9  C   UNL     1     -10.830  88.008  13.935  1.00  0.00     0.017 A 
HETATM   10  C   UNL     1     -11.359  86.743  14.159  1.00  0.00     0.032 A 
HETATM   11  C   UNL     1     -11.289  86.191  15.441  1.00  0.00     0.026 A 
BRANCH  10  12
HETATM   12  C   UNL     1     -12.034  85.962  13.068  1.00  0.00     0.256 C 
HETATM   13  O   UNL     1     -12.747  85.022  13.347  1.00  0.00    -0.267 OA
HETATM   14  N   UNL     1     -11.585  86.131  11.818  1.00  0.00    -0.320 N 
ATOM     15  HN  UNL     1     -10.804  86.783  11.742  1.00  0.00     0.169 HD
BRANCH  14  16
HETATM   16  C   UNL     1     -11.998  85.567  10.572  1.00  0.00     0.075 A 
HETATM   17  C   UNL     1     -11.487  84.380  10.046  1.00  0.00     0.160 A 
HETATM   18  F   UNL     1     -10.667  83.617  10.789  1.00  0.00    -0.203 F 
HETATM   19  C   UNL     1     -11.867  83.913   8.793  1.00  0.00     0.094 A 
HETATM   20  C   UNL     1     -12.794  84.698   8.111  1.00  0.00     0.133 A 
HETATM   21  F   UNL     1     -13.199  84.282   6.899  1.00  0.00    -0.205 F 
HETATM   22  C   UNL     1     -13.350  85.840   8.622  1.00  0.00     0.046 A 
HETATM   23  C   UNL     1     -12.980  86.261   9.880  1.00  0.00     0.036 A 
BRANCH  19  24
HETATM   24  C   UNL     1     -11.307  82.650   8.221  1.00  0.00     0.200 C 
HETATM   25  O   UNL     1     -10.415  82.695   7.359  1.00  0.00    -0.286 OA
BRANCH  24  26
HETATM   26  C   UNL     1     -11.886  81.378   8.680  1.00  0.00     0.044 A 
HETATM   27  C   UNL     1     -13.244  81.089   9.047  1.00  0.00     0.025 A 
HETATM   28  C   UNL     1     -13.285  79.743   9.440  1.00  0.00     0.116 A 
HETATM   29  C   UNL     1     -14.445  81.801   9.087  1.00  0.00     0.041 A 
HETATM   30  N   UNL     1     -14.367  79.072   9.845  1.00  0.00    -0.350 N 
HETATM   31  N   UNL     1     -12.021  79.231   9.328  1.00  0.00    -0.351 N 
HETATM   32  C   UNL     1     -15.502  79.770   9.855  1.00  0.00     0.113 A 
ATOM     33  HN  UNL     1     -14.327  78.093  10.128  1.00  0.00     0.166 HD
HETATM   34  C   UNL     1     -15.570  81.106   9.499  1.00  0.00     0.050 A 
HETATM   35 CL   UNL     1     -17.088  81.942   9.610  1.00  0.00    -0.083 Cl
HETATM   36  C   UNL     1     -11.183  80.216   8.884  1.00  0.00     0.106 A 
ATOM     37  HN  UNL     1     -11.748  78.271   9.542  1.00  0.00     0.166 HD
ENDBRANCH  24  26
ENDBRANCH  19  24
ENDBRANCH  14  16
ENDBRANCH  10  12
ENDBRANCH   1   6
TORSDOF 5
ENDMDL
MODEL 9
REMARK VINA RESULT:   -10.815      3.308     10.331
REMARK INTER + INTRA:         -14.828
REMARK INTER:                 -13.742
REMARK INTRA:                  -1.087
REMARK UNBOUND:                -0.852
REMARK  5 active torsions:
REMARK  status: ('A' for Active; 'I' for Inactive)
REMARK       I    between atoms: N_1  and  C_25 
REMARK    1  A    between atoms: N_1  and  C_24 
REMARK    2  A    between atoms: C_4  and  C_25 
REMARK    3  A    between atoms: C_9  and  C_14 
REMARK    4  A    between atoms: C_21  and  C_29 
REMARK    5  A    between atoms: C_29  and  C_30 
ROOT
HETATM    1  C   UNL     1     -12.027  85.392  11.504  1.00  0.00     0.069 C 
HETATM    2  C   UNL     1     -12.041  86.066  10.195  1.00  0.00     0.073 C 
HETATM    3  C   UNL     1     -11.083  84.185  11.384  1.00  0.00     0.036 C 
HETATM    4  N   UNL     1     -12.069  86.527   9.168  1.00  0.00    -0.196 NA
HETATM    5  C   UNL     1     -13.464  84.876  11.753  1.00  0.00     0.036 C 
ENDROOT
BRANCH   1   6
HETATM    6  C   UNL     1     -11.568  86.377  12.591  1.00  0.00    -0.035 A 
HETATM    7  C   UNL     1     -11.266  87.699  12.273  1.00  0.00     0.009 A 
HETATM    8  C   UNL     1     -10.832  88.581  13.248  1.00  0.00     0.002 A 
HETATM    9  C   UNL     1     -10.694  88.163  14.560  1.00  0.00     0.017 A 
HETATM   10  C   UNL     1     -11.011  86.857  14.911  1.00  0.00     0.032 A 
HETATM   11  C   UNL     1     -11.442  85.969  13.921  1.00  0.00     0.026 A 
BRANCH  10  12
HETATM   12  C   UNL     1     -10.876  86.360  16.322  1.00  0.00     0.256 C 
HETATM   13  O   UNL     1     -11.274  85.253  16.616  1.00  0.00    -0.267 OA
HETATM   14  N   UNL     1     -10.606  87.263  17.272  1.00  0.00    -0.320 N 
ATOM     15  HN  UNL     1     -10.530  88.220  16.927  1.00  0.00     0.169 HD
BRANCH  14  16
HETATM   16  C   UNL     1     -10.405  87.134  18.681  1.00  0.00     0.075 A 
HETATM   17  C   UNL     1      -9.432  86.316  19.257  1.00  0.00     0.160 A 
HETATM   18  F   UNL     1      -8.517  85.713  18.479  1.00  0.00    -0.203 F 
HETATM   19  C   UNL     1      -9.326  86.166  20.635  1.00  0.00     0.094 A 
HETATM   20  C   UNL     1     -10.241  86.892  21.394  1.00  0.00     0.133 A 
HETATM   21  F   UNL     1     -10.172  86.787  22.732  1.00  0.00    -0.205 F 
HETATM   22  C   UNL     1     -11.173  87.740  20.860  1.00  0.00     0.046 A 
HETATM   23  C   UNL     1     -11.233  87.895  19.492  1.00  0.00     0.036 A 
BRANCH  19  24
HETATM   24  C   UNL     1      -8.295  85.276  21.253  1.00  0.00     0.200 C 
HETATM   25  O   UNL     1      -8.601  84.134  21.634  1.00  0.00    -0.286 OA
BRANCH  24  26
HETATM   26  C   UNL     1      -6.942  85.822  21.433  1.00  0.00     0.044 A 
HETATM   27  C   UNL     1      -5.881  85.339  22.271  1.00  0.00     0.025 A 
HETATM   28  C   UNL     1      -4.799  86.218  22.113  1.00  0.00     0.116 A 
HETATM   29  C   UNL     1      -5.701  84.259  23.139  1.00  0.00     0.041 A 
HETATM   30  N   UNL     1      -3.608  86.120  22.710  1.00  0.00    -0.350 N 
HETATM   31  N   UNL     1      -5.174  87.195  21.230  1.00  0.00    -0.351 N 
HETATM   32  C   UNL     1      -3.458  85.071  23.516  1.00  0.00     0.113 A 
ATOM     33  HN  UNL     1      -2.865  86.802  22.558  1.00  0.00     0.166 HD
HETATM   34  C   UNL     1      -4.465  84.150  23.753  1.00  0.00     0.050 A 
HETATM   35 CL   UNL     1      -4.188  82.854  24.875  1.00  0.00    -0.083 Cl
HETATM   36  C   UNL     1      -6.462  86.962  20.834  1.00  0.00     0.106 A 
ATOM     37  HN  UNL     1      -4.589  87.971  20.919  1.00  0.00     0.166 HD
ENDBRANCH  24  26
ENDBRANCH  19  24
ENDBRANCH  14  16
ENDBRANCH  10  12
ENDBRANCH   1   6
TORSDOF 5
ENDMDL
