REMARK  5 active torsions:
REMARK  status: ('A' for Active; 'I' for Inactive)
REMARK    1  A    between atoms: N1_1  and  C1*_9 
REMARK    2  A    between atoms: C2*_10  and  O2*_13 
REMARK    3  A    between atoms: C3*_11  and  O3*_14 
REMARK    4  A    between atoms: C4*_12  and  C5*_16 
REMARK    5  A    between atoms: C5*_16  and  O5*_17 
ROOT
ATOM      1  C1*   U A   1       0.077  -1.138  -0.204  1.00  0.00     0.263 C 
ATOM      2  C2*   U A   1      -0.226  -0.552  -1.578  1.00  0.00     0.198 C 
ATOM      3  C3*   U A   1       1.141  -0.460  -2.216  1.00  0.00     0.182 C 
ATOM      4  C4*   U A   1       2.083  -0.412  -0.998  1.00  0.00     0.179 C 
ATOM      5  O4*   U A   1       1.351  -0.676   0.184  1.00  0.00    -0.353 OA
ENDROOT
BRANCH   1   6
ATOM      6  N1    U A   1      -0.951  -0.736   0.779  1.00  0.00    -0.280 N 
ATOM      7  C2    U A   1      -2.023  -1.552   1.048  1.00  0.00     0.331 A 
ATOM      8  N3    U A   1      -2.981  -1.159   1.934  1.00  0.00    -0.275 N 
ATOM      9  O2    U A   1      -2.138  -2.671   0.476  1.00  0.00    -0.246 OA
ATOM     10  C4    U A   1      -2.909   0.046   2.557  1.00  0.00     0.250 A 
ATOM     11  H3    U A   1      -3.788  -1.794   2.134  1.00  0.00     0.173 HD
ATOM     12  C5    U A   1      -1.847   0.901   2.287  1.00  0.00     0.092 A 
ATOM     13  O4    U A   1      -3.805   0.390   3.373  1.00  0.00    -0.268 OA
ATOM     14  C6    U A   1      -0.873   0.491   1.381  1.00  0.00     0.104 A 
ENDBRANCH   1   6
BRANCH   2  15
ATOM     15  O2*   U A   1      -1.146  -1.317  -2.323  1.00  0.00    -0.388 OA
ATOM     16  H2*   U A   1      -0.867  -2.269  -2.291  1.00  0.00     0.210 HD
ENDBRANCH   2  15
BRANCH   3  17
ATOM     17  O3*   U A   1       1.413  -1.598  -2.995  1.00  0.00    -0.390 OA
ATOM     18  H3*   U A   1       2.228  -1.390  -3.522  1.00  0.00     0.210 HD
ENDBRANCH   3  17
BRANCH   4  19
ATOM     19  C5*   U A   1       2.788   0.943  -0.868  1.00  0.00     0.198 C 
BRANCH  19  20
ATOM     20  O5*   U A   1       1.850   1.967  -0.680  1.00  0.00    -0.398 OA
ATOM     21  H5*   U A   1       2.371   2.808  -0.604  1.00  0.00     0.209 HD
ENDBRANCH  19  20
ENDBRANCH   4  19
TORSDOF 5
