REMARK  3 active torsions:
REMARK  status: ('A' for Active; 'I' for Inactive)
REMARK    1  A    between atoms: C_1  and  C_9 
REMARK    2  A    between atoms: C_4  and  C_5 
REMARK    3  A    between atoms: C_8  and  C_11 
ROOT
HETATM    1  C   UNL     1      37.503 -42.444  12.130  1.00  0.00     0.040 A 
HETATM    2  C   UNL     1      36.698 -41.740  13.018  1.00  0.00     0.019 A 
HETATM    3  C   UNL     1      36.974 -40.421  13.327  1.00  0.00     0.013 A 
HETATM    4  C   UNL     1      38.060 -39.757  12.763  1.00  0.00    -0.026 A 
HETATM    5  C   UNL     1      38.866 -40.473  11.878  1.00  0.00     0.013 A 
HETATM    6  C   UNL     1      38.595 -41.793  11.566  1.00  0.00     0.019 A 
ENDROOT
BRANCH   4   7
HETATM    7  C   UNL     1      38.341 -38.334  13.080  1.00  0.00    -0.025 A 
HETATM    8  C   UNL     1      37.321 -37.485  13.516  1.00  0.00     0.030 A 
HETATM    9  C   UNL     1      37.571 -36.144  13.797  1.00  0.00     0.041 A 
HETATM   10  C   UNL     1      38.860 -35.649  13.652  1.00  0.00     0.018 A 
HETATM   11  C   UNL     1      39.882 -36.477  13.224  1.00  0.00     0.002 A 
HETATM   12  C   UNL     1      39.626 -37.808  12.937  1.00  0.00     0.012 A 
BRANCH   9  13
HETATM   13  C   UNL     1      36.464 -35.243  14.219  1.00  0.00     0.209 C 
HETATM   14  O   UNL     1      36.568 -34.027  14.141  1.00  0.00    -0.644 OA
HETATM   15  O   UNL     1      35.396 -35.845  14.670  1.00  0.00    -0.644 OA
ENDBRANCH   9  13
ENDBRANCH   4   7
BRANCH   1  16
HETATM   16  C   UNL     1      37.188 -43.855  11.776  1.00  0.00     0.209 C 
HETATM   17  O   UNL     1      36.059 -44.312  11.893  1.00  0.00    -0.644 OA
HETATM   18  O   UNL     1      38.198 -44.546  11.333  1.00  0.00    -0.644 OA
ENDBRANCH   1  16
TORSDOF 3
