REMARK  0 active torsions:
REMARK  status: ('A' for Active; 'I' for Inactive)
ROOT
HETATM    1  N   UNL     1      -1.156 102.708  25.847  1.00  0.00    -0.318 N 
ATOM      2  HN  UNL     1      -0.470 102.378  25.168  1.00  0.00     0.170 HD
HETATM    3  C   UNL     1      -1.812 101.768  26.736  1.00  0.00     0.327 A 
HETATM    4  O   UNL     1      -1.556 100.612  26.679  1.00  0.00    -0.247 OA
HETATM    5  N   UNL     1      -2.770 102.236  27.670  1.00  0.00    -0.275 N 
ATOM      6  HN  UNL     1      -3.237 101.573  28.289  1.00  0.00     0.173 HD
HETATM    7  C   UNL     1      -3.085 103.612  27.753  1.00  0.00     0.256 A 
HETATM    8  O   UNL     1      -3.884 103.982  28.547  1.00  0.00    -0.267 OA
HETATM    9  C   UNL     1      -2.388 104.598  26.827  1.00  0.00     0.022 A 
HETATM   10  C   UNL     1      -2.721 106.086  26.896  1.00  0.00     0.056 C 
HETATM   11  C   UNL     1      -1.488 104.152  25.930  1.00  0.00     0.105 A 
ENDROOT
TORSDOF 0
