MODEL 1
REMARK VINA RESULT:    -8.771      0.000      0.000
REMARK INTER + INTRA:         -12.229
REMARK INTER:                 -11.335
REMARK INTRA:                  -0.895
REMARK UNBOUND:                -0.895
REMARK  5 active torsions:
REMARK  status: ('A' for Active; 'I' for Inactive)
REMARK    1  A    between atoms: N_3  and  C_16 
REMARK    2  A    between atoms: C_8  and  C_12 
REMARK    3  A    between atoms: C_9  and  N_24 
REMARK    4  A    between atoms: C_12  and  C_21 
REMARK    5  A    between atoms: C_21  and  N_24 
ROOT
HETATM    1  N   UNL     1      -8.825 -11.438  12.412  1.00  0.00    -0.202 N 
ATOM      2  HN  UNL     1      -8.775 -11.296  13.420  1.00  0.00     0.183 HD
HETATM    3  C   UNL     1      -9.122 -12.889  10.558  1.00  0.00     0.066 A 
HETATM    4  C   UNL     1      -9.046 -12.654  11.907  1.00  0.00     0.110 A 
HETATM    5  C   UNL     1      -8.671 -10.413  11.574  1.00  0.00     0.679 A 
HETATM    6  C   UNL     1      -8.973 -11.773   9.762  1.00  0.00     0.120 A 
HETATM    7  N   UNL     1      -8.757 -10.542  10.240  1.00  0.00    -0.177 N 
ATOM      8  HN  UNL     1      -8.661  -9.738   9.620  1.00  0.00     0.185 HD
ENDROOT
BRANCH   5   9
HETATM    9  N   UNL     1      -8.407  -9.186  12.185  1.00  0.00    -0.226 N 
ATOM     10  HN  UNL     1      -8.474  -9.058  13.195  1.00  0.00     0.177 HD
BRANCH   9  11
HETATM   11  C   UNL     1      -8.034  -8.112  11.297  1.00  0.00     0.142 C 
BRANCH  11  12
HETATM   12  C   UNL     1      -6.631  -7.646  11.752  1.00  0.00     0.058 C 
BRANCH  12  13
HETATM   13  C   UNL     1      -5.579  -8.455  11.052  1.00  0.00    -0.057 A 
HETATM   14  C   UNL     1      -5.627  -8.659   9.685  1.00  0.00     0.007 A 
HETATM   15  C   UNL     1      -4.678  -9.426   9.033  1.00  0.00     0.001 A 
HETATM   16  C   UNL     1      -3.655  -9.999   9.761  1.00  0.00     0.000 A 
HETATM   17  C   UNL     1      -3.593  -9.795  11.136  1.00  0.00     0.001 A 
HETATM   18  C   UNL     1      -4.551  -9.031  11.778  1.00  0.00     0.007 A 
ENDBRANCH  12  13
ENDBRANCH  11  12
ENDBRANCH   9  11
ENDBRANCH   5   9
BRANCH   6  19
HETATM   19  N   UNL     1      -9.040 -11.935   8.366  1.00  0.00    -0.367 N 
HETATM   20  C   UNL     1      -8.953 -10.776   7.493  1.00  0.00     0.124 C 
HETATM   21  C   UNL     1     -10.307 -10.655   6.810  1.00  0.00     0.024 C 
HETATM   22  C   UNL     1     -10.512 -11.898   5.977  1.00  0.00    -0.015 C 
HETATM   23  C   UNL     1     -10.466 -13.144   6.841  1.00  0.00     0.024 C 
HETATM   24  C   UNL     1     -11.847 -11.787   5.320  1.00  0.00     0.010 C 
HETATM   25  C   UNL     1      -9.209 -13.218   7.682  1.00  0.00     0.124 C 
ENDBRANCH   6  19
TORSDOF 5
ENDMDL
MODEL 2
REMARK VINA RESULT:    -8.481      1.965      3.547
REMARK INTER + INTRA:         -11.855
REMARK INTER:                 -11.004
REMARK INTRA:                  -0.851
REMARK UNBOUND:                -0.895
REMARK  5 active torsions:
REMARK  status: ('A' for Active; 'I' for Inactive)
REMARK    1  A    between atoms: N_3  and  C_16 
REMARK    2  A    between atoms: C_8  and  C_12 
REMARK    3  A    between atoms: C_9  and  N_24 
REMARK    4  A    between atoms: C_12  and  C_21 
REMARK    5  A    between atoms: C_21  and  N_24 
ROOT
HETATM    1  N   UNL     1      -5.120 -13.062   8.589  1.00  0.00    -0.202 N 
ATOM      2  HN  UNL     1      -4.128 -13.251   8.737  1.00  0.00     0.183 HD
HETATM    3  C   UNL     1      -7.350 -13.848   8.392  1.00  0.00     0.066 A 
HETATM    4  C   UNL     1      -6.008 -14.058   8.587  1.00  0.00     0.110 A 
HETATM    5  C   UNL     1      -5.550 -11.816   8.394  1.00  0.00     0.679 A 
HETATM    6  C   UNL     1      -7.715 -12.529   8.219  1.00  0.00     0.120 A 
HETATM    7  N   UNL     1      -6.847 -11.511   8.223  1.00  0.00    -0.177 N 
ATOM      8  HN  UNL     1      -7.156 -10.547   8.101  1.00  0.00     0.185 HD
ENDROOT
BRANCH   5   9
HETATM    9  N   UNL     1      -4.550 -10.843   8.375  1.00  0.00    -0.226 N 
ATOM     10  HN  UNL     1      -3.631 -11.017   7.967  1.00  0.00     0.177 HD
BRANCH   9  11
HETATM   11  C   UNL     1      -4.900  -9.574   8.967  1.00  0.00     0.142 C 
BRANCH  11  12
HETATM   12  C   UNL     1      -4.934  -9.809  10.496  1.00  0.00     0.058 C 
BRANCH  12  13
HETATM   13  C   UNL     1      -6.271  -9.401  11.040  1.00  0.00    -0.057 A 
HETATM   14  C   UNL     1      -7.191 -10.346  11.457  1.00  0.00     0.007 A 
HETATM   15  C   UNL     1      -8.437  -9.984  11.935  1.00  0.00     0.001 A 
HETATM   16  C   UNL     1      -8.772  -8.646  12.003  1.00  0.00     0.000 A 
HETATM   17  C   UNL     1      -7.853  -7.686  11.592  1.00  0.00     0.001 A 
HETATM   18  C   UNL     1      -6.612  -8.061  11.111  1.00  0.00     0.007 A 
ENDBRANCH  12  13
ENDBRANCH  11  12
ENDBRANCH   9  11
ENDBRANCH   5   9
BRANCH   6  19
HETATM   19  N   UNL     1      -9.076 -12.235   8.015  1.00  0.00    -0.367 N 
HETATM   20  C   UNL     1     -10.025 -13.308   7.774  1.00  0.00     0.124 C 
HETATM   21  C   UNL     1     -10.524 -13.123   6.349  1.00  0.00     0.024 C 
HETATM   22  C   UNL     1     -11.240 -11.793   6.284  1.00  0.00    -0.015 C 
HETATM   23  C   UNL     1     -10.312 -10.658   6.670  1.00  0.00     0.024 C 
HETATM   24  C   UNL     1     -11.716 -11.604   4.883  1.00  0.00     0.010 C 
HETATM   25  C   UNL     1      -9.645 -10.886   8.011  1.00  0.00     0.124 C 
ENDBRANCH   6  19
TORSDOF 5
ENDMDL
MODEL 3
REMARK VINA RESULT:    -8.040      1.356      6.280
REMARK INTER + INTRA:         -11.284
REMARK INTER:                 -10.659
REMARK INTRA:                  -0.625
REMARK UNBOUND:                -0.895
REMARK  5 active torsions:
REMARK  status: ('A' for Active; 'I' for Inactive)
REMARK    1  A    between atoms: N_3  and  C_16 
REMARK    2  A    between atoms: C_8  and  C_12 
REMARK    3  A    between atoms: C_9  and  N_24 
REMARK    4  A    between atoms: C_12  and  C_21 
REMARK    5  A    between atoms: C_21  and  N_24 
ROOT
HETATM    1  N   UNL     1      -8.758  -9.171  12.024  1.00  0.00    -0.202 N 
ATOM      2  HN  UNL     1      -9.706  -9.142  12.399  1.00  0.00     0.183 HD
HETATM    3  C   UNL     1      -6.782  -8.040  11.357  1.00  0.00     0.066 A 
HETATM    4  C   UNL     1      -8.059  -8.046  11.857  1.00  0.00     0.110 A 
HETATM    5  C   UNL     1      -8.195 -10.332  11.692  1.00  0.00     0.679 A 
HETATM    6  C   UNL     1      -6.266  -9.283  11.058  1.00  0.00     0.120 A 
HETATM    7  N   UNL     1      -6.941 -10.427  11.221  1.00  0.00    -0.177 N 
ATOM      8  HN  UNL     1      -6.522 -11.330  10.998  1.00  0.00     0.185 HD
ENDROOT
BRANCH   5   9
HETATM    9  N   UNL     1      -9.009 -11.453  11.864  1.00  0.00    -0.226 N 
ATOM     10  HN  UNL     1      -8.943 -12.050  12.689  1.00  0.00     0.177 HD
BRANCH   9  11
HETATM   11  C   UNL     1      -9.951 -11.712  10.802  1.00  0.00     0.142 C 
BRANCH  11  12
HETATM   12  C   UNL     1      -9.152 -12.425   9.685  1.00  0.00     0.058 C 
BRANCH  12  13
HETATM   13  C   UNL     1      -9.860 -12.258   8.373  1.00  0.00    -0.057 A 
HETATM   14  C   UNL     1     -10.408 -13.343   7.713  1.00  0.00     0.007 A 
HETATM   15  C   UNL     1     -11.039 -13.206   6.490  1.00  0.00     0.001 A 
HETATM   16  C   UNL     1     -11.130 -11.955   5.913  1.00  0.00     0.000 A 
HETATM   17  C   UNL     1     -10.588 -10.855   6.571  1.00  0.00     0.001 A 
HETATM   18  C   UNL     1      -9.954 -11.006   7.790  1.00  0.00     0.007 A 
ENDBRANCH  12  13
ENDBRANCH  11  12
ENDBRANCH   9  11
ENDBRANCH   5   9
BRANCH   6  19
HETATM   19  N   UNL     1      -4.960  -9.357  10.541  1.00  0.00    -0.367 N 
HETATM   20  C   UNL     1      -4.724  -9.143   9.123  1.00  0.00     0.124 C 
HETATM   21  C   UNL     1      -4.236 -10.472   8.567  1.00  0.00     0.024 C 
HETATM   22  C   UNL     1      -2.929 -10.801   9.250  1.00  0.00    -0.015 C 
HETATM   23  C   UNL     1      -3.110 -10.892  10.753  1.00  0.00     0.024 C 
HETATM   24  C   UNL     1      -2.457 -12.112   8.717  1.00  0.00     0.010 C 
HETATM   25  C   UNL     1      -3.765  -9.656  11.332  1.00  0.00     0.124 C 
ENDBRANCH   6  19
TORSDOF 5
ENDMDL
MODEL 4
REMARK VINA RESULT:    -7.978      1.661      7.129
REMARK INTER + INTRA:         -11.205
REMARK INTER:                 -10.561
REMARK INTRA:                  -0.644
REMARK UNBOUND:                -0.895
REMARK  5 active torsions:
REMARK  status: ('A' for Active; 'I' for Inactive)
REMARK    1  A    between atoms: N_3  and  C_16 
REMARK    2  A    between atoms: C_8  and  C_12 
REMARK    3  A    between atoms: C_9  and  N_24 
REMARK    4  A    between atoms: C_12  and  C_21 
REMARK    5  A    between atoms: C_21  and  N_24 
ROOT
HETATM    1  N   UNL     1      -8.276  -8.890  11.523  1.00  0.00    -0.202 N 
ATOM      2  HN  UNL     1      -9.239  -8.557  11.466  1.00  0.00     0.183 HD
HETATM    3  C   UNL     1      -5.948  -8.436  11.538  1.00  0.00     0.066 A 
HETATM    4  C   UNL     1      -7.256  -8.031  11.464  1.00  0.00     0.110 A 
HETATM    5  C   UNL     1      -8.015 -10.190  11.656  1.00  0.00     0.679 A 
HETATM    6  C   UNL     1      -5.764  -9.794  11.696  1.00  0.00     0.120 A 
HETATM    7  N   UNL     1      -6.768 -10.676  11.763  1.00  0.00    -0.177 N 
ATOM      8  HN  UNL     1      -6.594 -11.673  11.891  1.00  0.00     0.185 HD
ENDROOT
BRANCH   5   9
HETATM    9  N   UNL     1      -9.138 -11.018  11.671  1.00  0.00    -0.226 N 
ATOM     10  HN  UNL     1      -9.388 -11.579  12.486  1.00  0.00     0.177 HD
BRANCH   9  11
HETATM   11  C   UNL     1      -9.923 -11.032  10.460  1.00  0.00     0.142 C 
BRANCH  11  12
HETATM   12  C   UNL     1      -9.507 -12.308   9.692  1.00  0.00     0.058 C 
BRANCH  12  13
HETATM   13  C   UNL     1     -10.067 -12.266   8.301  1.00  0.00    -0.057 A 
HETATM   14  C   UNL     1     -10.475 -13.422   7.660  1.00  0.00     0.007 A 
HETATM   15  C   UNL     1     -10.968 -13.400   6.368  1.00  0.00     0.001 A 
HETATM   16  C   UNL     1     -11.060 -12.195   5.701  1.00  0.00     0.000 A 
HETATM   17  C   UNL     1     -10.658 -11.025   6.338  1.00  0.00     0.001 A 
HETATM   18  C   UNL     1     -10.162 -11.061   7.628  1.00  0.00     0.007 A 
ENDBRANCH  12  13
ENDBRANCH  11  12
ENDBRANCH   9  11
ENDBRANCH   5   9
BRANCH   6  19
HETATM   19  N   UNL     1      -4.448 -10.285  11.780  1.00  0.00    -0.367 N 
HETATM   20  C   UNL     1      -3.760 -10.308  13.060  1.00  0.00     0.124 C 
HETATM   21  C   UNL     1      -2.607  -9.323  12.940  1.00  0.00     0.024 C 
HETATM   22  C   UNL     1      -1.680  -9.833  11.861  1.00  0.00    -0.015 C 
HETATM   23  C   UNL     1      -2.407  -9.958  10.536  1.00  0.00     0.024 C 
HETATM   24  C   UNL     1      -0.557  -8.859  11.732  1.00  0.00     0.010 C 
HETATM   25  C   UNL     1      -3.671 -10.786  10.645  1.00  0.00     0.124 C 
ENDBRANCH   6  19
TORSDOF 5
ENDMDL
MODEL 5
REMARK VINA RESULT:    -7.692      2.043      6.641
REMARK INTER + INTRA:         -10.834
REMARK INTER:                 -10.047
REMARK INTRA:                  -0.788
REMARK UNBOUND:                -0.895
REMARK  5 active torsions:
REMARK  status: ('A' for Active; 'I' for Inactive)
REMARK    1  A    between atoms: N_3  and  C_16 
REMARK    2  A    between atoms: C_8  and  C_12 
REMARK    3  A    between atoms: C_9  and  N_24 
REMARK    4  A    between atoms: C_12  and  C_21 
REMARK    5  A    between atoms: C_21  and  N_24 
ROOT
HETATM    1  N   UNL     1      -5.427 -13.823   7.919  1.00  0.00    -0.202 N 
ATOM      2  HN  UNL     1      -5.466 -14.671   7.354  1.00  0.00     0.183 HD
HETATM    3  C   UNL     1      -4.184 -12.011   8.813  1.00  0.00     0.066 A 
HETATM    4  C   UNL     1      -4.280 -13.156   8.064  1.00  0.00     0.110 A 
HETATM    5  C   UNL     1      -6.520 -13.361   8.525  1.00  0.00     0.679 A 
HETATM    6  C   UNL     1      -5.364 -11.590   9.390  1.00  0.00     0.120 A 
HETATM    7  N   UNL     1      -6.528 -12.235   9.256  1.00  0.00    -0.177 N 
ATOM      8  HN  UNL     1      -7.383 -11.887   9.689  1.00  0.00     0.185 HD
ENDROOT
BRANCH   5   9
HETATM    9  N   UNL     1      -7.665 -14.140   8.350  1.00  0.00    -0.226 N 
ATOM     10  HN  UNL     1      -7.688 -14.936   7.712  1.00  0.00     0.177 HD
BRANCH   9  11
HETATM   11  C   UNL     1      -8.814 -13.748   9.130  1.00  0.00     0.142 C 
BRANCH  11  12
HETATM   12  C   UNL     1     -10.051 -14.028   8.243  1.00  0.00     0.058 C 
BRANCH  12  13
HETATM   13  C   UNL     1     -10.365 -12.817   7.416  1.00  0.00    -0.057 A 
HETATM   14  C   UNL     1      -9.915 -11.562   7.789  1.00  0.00     0.007 A 
HETATM   15  C   UNL     1     -10.220 -10.434   7.050  1.00  0.00     0.001 A 
HETATM   16  C   UNL     1     -10.988 -10.560   5.909  1.00  0.00     0.000 A 
HETATM   17  C   UNL     1     -11.440 -11.818   5.521  1.00  0.00     0.001 A 
HETATM   18  C   UNL     1     -11.133 -12.938   6.272  1.00  0.00     0.007 A 
ENDBRANCH  12  13
ENDBRANCH  11  12
ENDBRANCH   9  11
ENDBRANCH   5   9
BRANCH   6  19
HETATM   19  N   UNL     1      -5.344 -10.421  10.173  1.00  0.00    -0.367 N 
HETATM   20  C   UNL     1      -5.619 -10.495  11.598  1.00  0.00     0.124 C 
HETATM   21  C   UNL     1      -6.924  -9.745  11.820  1.00  0.00     0.024 C 
HETATM   22  C   UNL     1      -6.697  -8.305  11.425  1.00  0.00    -0.015 C 
HETATM   23  C   UNL     1      -6.268  -8.201   9.974  1.00  0.00     0.024 C 
HETATM   24  C   UNL     1      -7.981  -7.572  11.627  1.00  0.00     0.010 C 
HETATM   25  C   UNL     1      -5.073  -9.077   9.660  1.00  0.00     0.124 C 
ENDBRANCH   6  19
TORSDOF 5
ENDMDL
MODEL 6
REMARK VINA RESULT:    -7.532      1.455      2.084
REMARK INTER + INTRA:         -10.628
REMARK INTER:                  -9.839
REMARK INTRA:                  -0.789
REMARK UNBOUND:                -0.895
REMARK  5 active torsions:
REMARK  status: ('A' for Active; 'I' for Inactive)
REMARK    1  A    between atoms: N_3  and  C_16 
REMARK    2  A    between atoms: C_8  and  C_12 
REMARK    3  A    between atoms: C_9  and  N_24 
REMARK    4  A    between atoms: C_12  and  C_21 
REMARK    5  A    between atoms: C_21  and  N_24 
ROOT
HETATM    1  N   UNL     1      -7.909 -10.632  12.297  1.00  0.00    -0.202 N 
ATOM      2  HN  UNL     1      -7.751 -10.381  13.274  1.00  0.00     0.183 HD
HETATM    3  C   UNL     1      -8.761 -12.147  10.683  1.00  0.00     0.066 A 
HETATM    4  C   UNL     1      -8.528 -11.772  11.981  1.00  0.00     0.110 A 
HETATM    5  C   UNL     1      -7.500  -9.829  11.316  1.00  0.00     0.679 A 
HETATM    6  C   UNL     1      -8.325 -11.252   9.729  1.00  0.00     0.120 A 
HETATM    7  N   UNL     1      -7.708 -10.100  10.017  1.00  0.00    -0.177 N 
ATOM      8  HN  UNL     1      -7.409  -9.458   9.284  1.00  0.00     0.185 HD
ENDROOT
BRANCH   5   9
HETATM    9  N   UNL     1      -6.829  -8.679  11.736  1.00  0.00    -0.226 N 
ATOM     10  HN  UNL     1      -7.295  -7.942  12.265  1.00  0.00     0.177 HD
BRANCH   9  11
HETATM   11  C   UNL     1      -5.435  -8.600  11.373  1.00  0.00     0.142 C 
BRANCH  11  12
HETATM   12  C   UNL     1      -4.638  -8.769  12.689  1.00  0.00     0.058 C 
BRANCH  12  13
HETATM   13  C   UNL     1      -3.633  -9.871  12.532  1.00  0.00    -0.057 A 
HETATM   14  C   UNL     1      -4.026 -11.153  12.191  1.00  0.00     0.007 A 
HETATM   15  C   UNL     1      -3.112 -12.184  12.070  1.00  0.00     0.001 A 
HETATM   16  C   UNL     1      -1.773 -11.929  12.290  1.00  0.00     0.000 A 
HETATM   17  C   UNL     1      -1.365 -10.642  12.628  1.00  0.00     0.001 A 
HETATM   18  C   UNL     1      -2.290  -9.621  12.751  1.00  0.00     0.007 A 
ENDBRANCH  12  13
ENDBRANCH  11  12
ENDBRANCH   9  11
ENDBRANCH   5   9
BRANCH   6  19
HETATM   19  N   UNL     1      -8.530 -11.568   8.373  1.00  0.00    -0.367 N 
HETATM   20  C   UNL     1      -8.778 -10.510   7.408  1.00  0.00     0.124 C 
HETATM   21  C   UNL     1     -10.203 -10.709   6.914  1.00  0.00     0.024 C 
HETATM   22  C   UNL     1     -10.263 -12.049   6.219  1.00  0.00    -0.015 C 
HETATM   23  C   UNL     1      -9.870 -13.168   7.163  1.00  0.00     0.024 C 
HETATM   24  C   UNL     1     -11.664 -12.252   5.748  1.00  0.00     0.010 C 
HETATM   25  C   UNL     1      -8.529 -12.924   7.823  1.00  0.00     0.124 C 
ENDBRANCH   6  19
TORSDOF 5
ENDMDL
MODEL 7
REMARK VINA RESULT:    -7.413      4.505      6.277
REMARK INTER + INTRA:         -10.474
REMARK INTER:                  -9.765
REMARK INTRA:                  -0.709
REMARK UNBOUND:                -0.895
REMARK  5 active torsions:
REMARK  status: ('A' for Active; 'I' for Inactive)
REMARK    1  A    between atoms: N_3  and  C_16 
REMARK    2  A    between atoms: C_8  and  C_12 
REMARK    3  A    between atoms: C_9  and  N_24 
REMARK    4  A    between atoms: C_12  and  C_21 
REMARK    5  A    between atoms: C_21  and  N_24 
ROOT
HETATM    1  N   UNL     1      -5.245 -14.568   8.305  1.00  0.00    -0.202 N 
ATOM      2  HN  UNL     1      -4.333 -15.024   8.345  1.00  0.00     0.183 HD
HETATM    3  C   UNL     1      -6.797 -13.007   9.190  1.00  0.00     0.066 A 
HETATM    4  C   UNL     1      -5.583 -13.644   9.208  1.00  0.00     0.110 A 
HETATM    5  C   UNL     1      -6.120 -14.886   7.352  1.00  0.00     0.679 A 
HETATM    6  C   UNL     1      -7.636 -13.378   8.160  1.00  0.00     0.120 A 
HETATM    7  N   UNL     1      -7.322 -14.296   7.239  1.00  0.00    -0.177 N 
ATOM      8  HN  UNL     1      -7.965 -14.537   6.485  1.00  0.00     0.185 HD
ENDROOT
BRANCH   5   9
HETATM    9  N   UNL     1      -5.700 -15.887   6.475  1.00  0.00    -0.226 N 
ATOM     10  HN  UNL     1      -6.326 -16.627   6.156  1.00  0.00     0.177 HD
BRANCH   9  11
HETATM   11  C   UNL     1      -4.323 -15.809   6.049  1.00  0.00     0.142 C 
BRANCH  11  12
HETATM   12  C   UNL     1      -4.342 -15.142   4.653  1.00  0.00     0.058 C 
BRANCH  12  13
HETATM   13  C   UNL     1      -3.127 -14.277   4.490  1.00  0.00    -0.057 A 
HETATM   14  C   UNL     1      -2.461 -13.767   5.590  1.00  0.00     0.007 A 
HETATM   15  C   UNL     1      -1.356 -12.947   5.452  1.00  0.00     0.001 A 
HETATM   16  C   UNL     1      -0.902 -12.632   4.187  1.00  0.00     0.000 A 
HETATM   17  C   UNL     1      -1.561 -13.144   3.073  1.00  0.00     0.001 A 
HETATM   18  C   UNL     1      -2.668 -13.959   3.224  1.00  0.00     0.007 A 
ENDBRANCH  12  13
ENDBRANCH  11  12
ENDBRANCH   9  11
ENDBRANCH   5   9
BRANCH   6  19
HETATM   19  N   UNL     1      -8.901 -12.767   8.076  1.00  0.00    -0.367 N 
HETATM   20  C   UNL     1     -10.102 -13.583   8.011  1.00  0.00     0.124 C 
HETATM   21  C   UNL     1     -10.704 -13.344   6.634  1.00  0.00     0.024 C 
HETATM   22  C   UNL     1     -11.082 -11.884   6.547  1.00  0.00    -0.015 C 
HETATM   23  C   UNL     1      -9.871 -10.996   6.754  1.00  0.00     0.024 C 
HETATM   24  C   UNL     1     -11.659 -11.646   5.192  1.00  0.00     0.010 C 
HETATM   25  C   UNL     1      -9.127 -11.321   8.033  1.00  0.00     0.124 C 
ENDBRANCH   6  19
TORSDOF 5
ENDMDL
MODEL 8
REMARK VINA RESULT:    -7.367      2.236      6.302
REMARK INTER + INTRA:         -10.414
REMARK INTER:                  -9.742
REMARK INTRA:                  -0.673
REMARK UNBOUND:                -0.895
REMARK  5 active torsions:
REMARK  status: ('A' for Active; 'I' for Inactive)
REMARK    1  A    between atoms: N_3  and  C_16 
REMARK    2  A    between atoms: C_8  and  C_12 
REMARK    3  A    between atoms: C_9  and  N_24 
REMARK    4  A    between atoms: C_12  and  C_21 
REMARK    5  A    between atoms: C_21  and  N_24 
ROOT
HETATM    1  N   UNL     1      -6.622  -8.854  11.905  1.00  0.00    -0.202 N 
ATOM      2  HN  UNL     1      -7.302  -8.170  12.237  1.00  0.00     0.183 HD
HETATM    3  C   UNL     1      -4.366  -9.489  11.538  1.00  0.00     0.066 A 
HETATM    4  C   UNL     1      -5.313  -8.598  11.973  1.00  0.00     0.110 A 
HETATM    5  C   UNL     1      -7.023 -10.017  11.395  1.00  0.00     0.679 A 
HETATM    6  C   UNL     1      -4.863 -10.676  11.044  1.00  0.00     0.120 A 
HETATM    7  N   UNL     1      -6.168 -10.962  10.970  1.00  0.00    -0.177 N 
ATOM      8  HN  UNL     1      -6.498 -11.856  10.607  1.00  0.00     0.185 HD
ENDROOT
BRANCH   5   9
HETATM    9  N   UNL     1      -8.407 -10.186  11.328  1.00  0.00    -0.226 N 
ATOM     10  HN  UNL     1      -8.989 -10.241  12.165  1.00  0.00     0.177 HD
BRANCH   9  11
HETATM   11  C   UNL     1      -8.963 -10.277   9.999  1.00  0.00     0.142 C 
BRANCH  11  12
HETATM   12  C   UNL     1      -9.409 -11.748   9.820  1.00  0.00     0.058 C 
BRANCH  12  13
HETATM   13  C   UNL     1      -9.953 -11.945   8.436  1.00  0.00    -0.057 A 
HETATM   14  C   UNL     1     -10.134 -10.873   7.580  1.00  0.00     0.007 A 
HETATM   15  C   UNL     1     -10.659 -11.039   6.312  1.00  0.00     0.001 A 
HETATM   16  C   UNL     1     -11.008 -12.304   5.884  1.00  0.00     0.000 A 
HETATM   17  C   UNL     1     -10.824 -13.391   6.734  1.00  0.00     0.001 A 
HETATM   18  C   UNL     1     -10.303 -13.212   8.002  1.00  0.00     0.007 A 
ENDBRANCH  12  13
ENDBRANCH  11  12
ENDBRANCH   9  11
ENDBRANCH   5   9
BRANCH   6  19
HETATM   19  N   UNL     1      -3.950 -11.641  10.580  1.00  0.00    -0.367 N 
HETATM   20  C   UNL     1      -2.560 -11.280  10.354  1.00  0.00     0.124 C 
HETATM   21  C   UNL     1      -2.328 -11.400   8.855  1.00  0.00     0.024 C 
HETATM   22  C   UNL     1      -2.540 -12.846   8.474  1.00  0.00    -0.015 C 
HETATM   23  C   UNL     1      -3.943 -13.300   8.828  1.00  0.00     0.024 C 
HETATM   24  C   UNL     1      -2.327 -12.962   7.002  1.00  0.00     0.010 C 
HETATM   25  C   UNL     1      -4.289 -13.033  10.278  1.00  0.00     0.124 C 
ENDBRANCH   6  19
TORSDOF 5
ENDMDL
MODEL 9
REMARK VINA RESULT:    -7.283      4.636      6.374
REMARK INTER + INTRA:         -10.306
REMARK INTER:                  -9.686
REMARK INTRA:                  -0.621
REMARK UNBOUND:                -0.895
REMARK  5 active torsions:
REMARK  status: ('A' for Active; 'I' for Inactive)
REMARK    1  A    between atoms: N_3  and  C_16 
REMARK    2  A    between atoms: C_8  and  C_12 
REMARK    3  A    between atoms: C_9  and  N_24 
REMARK    4  A    between atoms: C_12  and  C_21 
REMARK    5  A    between atoms: C_21  and  N_24 
ROOT
HETATM    1  N   UNL     1      -5.309 -13.912   8.649  1.00  0.00    -0.202 N 
ATOM      2  HN  UNL     1      -4.359 -14.261   8.778  1.00  0.00     0.183 HD
HETATM    3  C   UNL     1      -6.997 -12.325   9.163  1.00  0.00     0.066 A 
HETATM    4  C   UNL     1      -5.729 -12.828   9.307  1.00  0.00     0.110 A 
HETATM    5  C   UNL     1      -6.152 -14.529   7.823  1.00  0.00     0.679 A 
HETATM    6  C   UNL     1      -7.799 -13.010   8.274  1.00  0.00     0.120 A 
HETATM    7  N   UNL     1      -7.403 -14.093   7.598  1.00  0.00    -0.177 N 
ATOM      8  HN  UNL     1      -8.022 -14.568   6.940  1.00  0.00     0.185 HD
ENDROOT
BRANCH   5   9
HETATM    9  N   UNL     1      -5.643 -15.673   7.206  1.00  0.00    -0.226 N 
ATOM     10  HN  UNL     1      -5.502 -16.546   7.715  1.00  0.00     0.177 HD
BRANCH   9  11
HETATM   11  C   UNL     1      -5.328 -15.541   5.804  1.00  0.00     0.142 C 
BRANCH  11  12
HETATM   12  C   UNL     1      -3.795 -15.356   5.723  1.00  0.00     0.058 C 
BRANCH  12  13
HETATM   13  C   UNL     1      -3.436 -14.674   4.435  1.00  0.00    -0.057 A 
HETATM   14  C   UNL     1      -4.234 -14.803   3.313  1.00  0.00     0.007 A 
HETATM   15  C   UNL     1      -3.901 -14.201   2.113  1.00  0.00     0.001 A 
HETATM   16  C   UNL     1      -2.745 -13.450   2.032  1.00  0.00     0.000 A 
HETATM   17  C   UNL     1      -1.937 -13.309   3.156  1.00  0.00     0.001 A 
HETATM   18  C   UNL     1      -2.279 -13.920   4.349  1.00  0.00     0.007 A 
ENDBRANCH  12  13
ENDBRANCH  11  12
ENDBRANCH   9  11
ENDBRANCH   5   9
BRANCH   6  19
HETATM   19  N   UNL     1      -9.114 -12.552   8.073  1.00  0.00    -0.367 N 
HETATM   20  C   UNL     1     -10.196 -13.503   7.882  1.00  0.00     0.124 C 
HETATM   21  C   UNL     1     -10.688 -13.308   6.456  1.00  0.00     0.024 C 
HETATM   22  C   UNL     1     -11.230 -11.902   6.348  1.00  0.00    -0.015 C 
HETATM   23  C   UNL     1     -10.160 -10.881   6.681  1.00  0.00     0.024 C 
HETATM   24  C   UNL     1     -11.699 -11.704   4.945  1.00  0.00     0.010 C 
HETATM   25  C   UNL     1      -9.508 -11.143   8.023  1.00  0.00     0.124 C 
ENDBRANCH   6  19
TORSDOF 5
ENDMDL
MODEL 10
REMARK VINA RESULT:    -7.258      2.468      7.323
REMARK INTER + INTRA:         -10.274
REMARK INTER:                  -9.592
REMARK INTRA:                  -0.682
REMARK UNBOUND:                -0.895
REMARK  5 active torsions:
REMARK  status: ('A' for Active; 'I' for Inactive)
REMARK    1  A    between atoms: N_3  and  C_16 
REMARK    2  A    between atoms: C_8  and  C_12 
REMARK    3  A    between atoms: C_9  and  N_24 
REMARK    4  A    between atoms: C_12  and  C_21 
REMARK    5  A    between atoms: C_21  and  N_24 
ROOT
HETATM    1  N   UNL     1      -5.740 -13.078   8.422  1.00  0.00    -0.202 N 
ATOM      2  HN  UNL     1      -6.178 -13.451   7.580  1.00  0.00     0.183 HD
HETATM    3  C   UNL     1      -4.250 -13.347  10.248  1.00  0.00     0.066 A 
HETATM    4  C   UNL     1      -4.862 -13.810   9.112  1.00  0.00     0.110 A 
HETATM    5  C   UNL     1      -6.034 -11.852   8.853  1.00  0.00     0.679 A 
HETATM    6  C   UNL     1      -4.593 -12.063  10.614  1.00  0.00     0.120 A 
HETATM    7  N   UNL     1      -5.464 -11.305   9.939  1.00  0.00    -0.177 N 
ATOM      8  HN  UNL     1      -5.685 -10.354  10.235  1.00  0.00     0.185 HD
ENDROOT
BRANCH   5   9
HETATM    9  N   UNL     1      -6.988 -11.173   8.093  1.00  0.00    -0.226 N 
ATOM     10  HN  UNL     1      -6.997 -11.210   7.074  1.00  0.00     0.177 HD
BRANCH   9  11
HETATM   11  C   UNL     1      -7.960 -10.415   8.843  1.00  0.00     0.142 C 
BRANCH  11  12
HETATM   12  C   UNL     1      -9.098 -11.402   9.194  1.00  0.00     0.058 C 
BRANCH  12  13
HETATM   13  C   UNL     1      -9.888 -11.722   7.959  1.00  0.00    -0.057 A 
HETATM   14  C   UNL     1     -10.292 -10.723   7.092  1.00  0.00     0.007 A 
HETATM   15  C   UNL     1     -11.044 -11.002   5.965  1.00  0.00     0.001 A 
HETATM   16  C   UNL     1     -11.397 -12.309   5.694  1.00  0.00     0.000 A 
HETATM   17  C   UNL     1     -10.991 -13.323   6.557  1.00  0.00     0.001 A 
HETATM   18  C   UNL     1     -10.244 -13.030   7.683  1.00  0.00     0.007 A 
ENDBRANCH  12  13
ENDBRANCH  11  12
ENDBRANCH   9  11
ENDBRANCH   5   9
BRANCH   6  19
HETATM   19  N   UNL     1      -4.004 -11.518  11.770  1.00  0.00    -0.367 N 
HETATM   20  C   UNL     1      -4.591 -10.351  12.406  1.00  0.00     0.124 C 
HETATM   21  C   UNL     1      -3.580  -9.225  12.246  1.00  0.00     0.024 C 
HETATM   22  C   UNL     1      -2.327  -9.627  12.990  1.00  0.00    -0.015 C 
HETATM   23  C   UNL     1      -1.764 -10.924  12.443  1.00  0.00     0.024 C 
HETATM   24  C   UNL     1      -1.330  -8.530  12.820  1.00  0.00     0.010 C 
HETATM   25  C   UNL     1      -2.794 -12.034  12.412  1.00  0.00     0.124 C 
ENDBRANCH   6  19
TORSDOF 5
ENDMDL
MODEL 11
REMARK VINA RESULT:    -7.193      2.410      3.506
REMARK INTER + INTRA:         -10.191
REMARK INTER:                  -9.482
REMARK INTRA:                  -0.709
REMARK UNBOUND:                -0.895
REMARK  5 active torsions:
REMARK  status: ('A' for Active; 'I' for Inactive)
REMARK    1  A    between atoms: N_3  and  C_16 
REMARK    2  A    between atoms: C_8  and  C_12 
REMARK    3  A    between atoms: C_9  and  N_24 
REMARK    4  A    between atoms: C_12  and  C_21 
REMARK    5  A    between atoms: C_21  and  N_24 
ROOT
HETATM    1  N   UNL     1      -5.528 -13.457   9.050  1.00  0.00    -0.202 N 
ATOM      2  HN  UNL     1      -4.566 -13.713   9.272  1.00  0.00     0.183 HD
HETATM    3  C   UNL     1      -7.849 -13.937   9.140  1.00  0.00     0.066 A 
HETATM    4  C   UNL     1      -6.542 -14.244   9.418  1.00  0.00     0.110 A 
HETATM    5  C   UNL     1      -5.795 -12.332   8.387  1.00  0.00     0.679 A 
HETATM    6  C   UNL     1      -8.041 -12.747   8.470  1.00  0.00     0.120 A 
HETATM    7  N   UNL     1      -7.045 -11.937   8.095  1.00  0.00    -0.177 N 
ATOM      8  HN  UNL     1      -7.226 -11.058   7.610  1.00  0.00     0.185 HD
ENDROOT
BRANCH   5   9
HETATM    9  N   UNL     1      -4.675 -11.590   8.009  1.00  0.00    -0.226 N 
ATOM     10  HN  UNL     1      -4.658 -11.029   7.157  1.00  0.00     0.177 HD
BRANCH   9  11
HETATM   11  C   UNL     1      -3.542 -11.668   8.900  1.00  0.00     0.142 C 
BRANCH  11  12
HETATM   12  C   UNL     1      -3.246 -10.217   9.348  1.00  0.00     0.058 C 
BRANCH  12  13
HETATM   13  C   UNL     1      -3.588 -10.057  10.800  1.00  0.00    -0.057 A 
HETATM   14  C   UNL     1      -2.625  -9.695  11.724  1.00  0.00     0.007 A 
HETATM   15  C   UNL     1      -2.921  -9.571  13.069  1.00  0.00     0.001 A 
HETATM   16  C   UNL     1      -4.211  -9.809  13.502  1.00  0.00     0.000 A 
HETATM   17  C   UNL     1      -5.189 -10.167  12.580  1.00  0.00     0.001 A 
HETATM   18  C   UNL     1      -4.879 -10.293  11.238  1.00  0.00     0.007 A 
ENDBRANCH  12  13
ENDBRANCH  11  12
ENDBRANCH   9  11
ENDBRANCH   5   9
BRANCH   6  19
HETATM   19  N   UNL     1      -9.357 -12.364   8.151  1.00  0.00    -0.367 N 
HETATM   20  C   UNL     1     -10.363 -13.376   7.876  1.00  0.00     0.124 C 
HETATM   21  C   UNL     1     -10.739 -13.215   6.411  1.00  0.00     0.024 C 
HETATM   22  C   UNL     1     -11.347 -11.841   6.244  1.00  0.00    -0.015 C 
HETATM   23  C   UNL     1     -10.369 -10.761   6.660  1.00  0.00     0.024 C 
HETATM   24  C   UNL     1     -11.702 -11.677   4.804  1.00  0.00     0.010 C 
HETATM   25  C   UNL     1      -9.823 -10.980   8.055  1.00  0.00     0.124 C 
ENDBRANCH   6  19
TORSDOF 5
ENDMDL
MODEL 12
REMARK VINA RESULT:    -7.153      1.604      2.535
REMARK INTER + INTRA:         -10.138
REMARK INTER:                  -9.178
REMARK INTRA:                  -0.959
REMARK UNBOUND:                -0.895
REMARK  5 active torsions:
REMARK  status: ('A' for Active; 'I' for Inactive)
REMARK    1  A    between atoms: N_3  and  C_16 
REMARK    2  A    between atoms: C_8  and  C_12 
REMARK    3  A    between atoms: C_9  and  N_24 
REMARK    4  A    between atoms: C_12  and  C_21 
REMARK    5  A    between atoms: C_21  and  N_24 
ROOT
HETATM    1  N   UNL     1      -7.620  -8.933  11.920  1.00  0.00    -0.202 N 
ATOM      2  HN  UNL     1      -7.451  -8.426  12.789  1.00  0.00     0.183 HD
HETATM    3  C   UNL     1      -9.052 -10.245  10.557  1.00  0.00     0.066 A 
HETATM    4  C   UNL     1      -8.784  -9.553  11.711  1.00  0.00     0.110 A 
HETATM    5  C   UNL     1      -6.683  -8.988  10.974  1.00  0.00     0.679 A 
HETATM    6  C   UNL     1      -8.039 -10.236   9.622  1.00  0.00     0.120 A 
HETATM    7  N   UNL     1      -6.866  -9.618   9.802  1.00  0.00    -0.177 N 
ATOM      8  HN  UNL     1      -6.144  -9.624   9.082  1.00  0.00     0.185 HD
ENDROOT
BRANCH   5   9
HETATM    9  N   UNL     1      -5.486  -8.345  11.292  1.00  0.00    -0.226 N 
ATOM     10  HN  UNL     1      -5.206  -7.469  10.848  1.00  0.00     0.177 HD
BRANCH   9  11
HETATM   11  C   UNL     1      -4.670  -8.996  12.287  1.00  0.00     0.142 C 
BRANCH  11  12
HETATM   12  C   UNL     1      -3.362  -9.406  11.570  1.00  0.00     0.058 C 
BRANCH  12  13
HETATM   13  C   UNL     1      -3.626 -10.576  10.667  1.00  0.00    -0.057 A 
HETATM   14  C   UNL     1      -3.336 -10.514   9.316  1.00  0.00     0.007 A 
HETATM   15  C   UNL     1      -3.600 -11.575   8.469  1.00  0.00     0.001 A 
HETATM   16  C   UNL     1      -4.163 -12.727   8.983  1.00  0.00     0.000 A 
HETATM   17  C   UNL     1      -4.453 -12.802  10.342  1.00  0.00     0.001 A 
HETATM   18  C   UNL     1      -4.189 -11.732  11.178  1.00  0.00     0.007 A 
ENDBRANCH  12  13
ENDBRANCH  11  12
ENDBRANCH   9  11
ENDBRANCH   5   9
BRANCH   6  19
HETATM   19  N   UNL     1      -8.242 -10.924   8.411  1.00  0.00    -0.367 N 
HETATM   20  C   UNL     1      -9.032 -10.318   7.352  1.00  0.00     0.124 C 
HETATM   21  C   UNL     1     -10.277 -11.179   7.204  1.00  0.00     0.024 C 
HETATM   22  C   UNL     1      -9.831 -12.557   6.774  1.00  0.00    -0.015 C 
HETATM   23  C   UNL     1      -8.887 -13.165   7.793  1.00  0.00     0.024 C 
HETATM   24  C   UNL     1     -11.051 -13.406   6.644  1.00  0.00     0.010 C 
HETATM   25  C   UNL     1      -7.718 -12.257   8.111  1.00  0.00     0.124 C 
ENDBRANCH   6  19
TORSDOF 5
ENDMDL
MODEL 13
REMARK VINA RESULT:    -7.081      1.666      2.630
REMARK INTER + INTRA:         -10.045
REMARK INTER:                  -9.279
REMARK INTRA:                  -0.766
REMARK UNBOUND:                -0.895
REMARK  5 active torsions:
REMARK  status: ('A' for Active; 'I' for Inactive)
REMARK    1  A    between atoms: N_3  and  C_16 
REMARK    2  A    between atoms: C_8  and  C_12 
REMARK    3  A    between atoms: C_9  and  N_24 
REMARK    4  A    between atoms: C_12  and  C_21 
REMARK    5  A    between atoms: C_21  and  N_24 
ROOT
HETATM    1  N   UNL     1      -7.572  -8.738  11.791  1.00  0.00    -0.202 N 
ATOM      2  HN  UNL     1      -7.402  -8.175  12.624  1.00  0.00     0.183 HD
HETATM    3  C   UNL     1      -9.001 -10.148  10.526  1.00  0.00     0.066 A 
HETATM    4  C   UNL     1      -8.732  -9.380  11.630  1.00  0.00     0.110 A 
HETATM    5  C   UNL     1      -6.640  -8.848  10.845  1.00  0.00     0.679 A 
HETATM    6  C   UNL     1      -7.993 -10.192   9.585  1.00  0.00     0.120 A 
HETATM    7  N   UNL     1      -6.825  -9.554   9.718  1.00  0.00    -0.177 N 
ATOM      8  HN  UNL     1      -6.106  -9.602   8.995  1.00  0.00     0.185 HD
ENDROOT
BRANCH   5   9
HETATM    9  N   UNL     1      -5.446  -8.175  11.112  1.00  0.00    -0.226 N 
ATOM     10  HN  UNL     1      -5.122  -7.396  10.538  1.00  0.00     0.177 HD
BRANCH   9  11
HETATM   11  C   UNL     1      -4.700  -8.653  12.251  1.00  0.00     0.142 C 
BRANCH  11  12
HETATM   12  C   UNL     1      -4.178 -10.057  11.865  1.00  0.00     0.058 C 
BRANCH  12  13
HETATM   13  C   UNL     1      -2.913  -9.925  11.070  1.00  0.00    -0.057 A 
HETATM   14  C   UNL     1      -2.864 -10.300   9.739  1.00  0.00     0.007 A 
HETATM   15  C   UNL     1      -1.697 -10.208   9.003  1.00  0.00     0.001 A 
HETATM   16  C   UNL     1      -0.552  -9.726   9.607  1.00  0.00     0.000 A 
HETATM   17  C   UNL     1      -0.592  -9.340  10.944  1.00  0.00     0.001 A 
HETATM   18  C   UNL     1      -1.764  -9.442  11.671  1.00  0.00     0.007 A 
ENDBRANCH  12  13
ENDBRANCH  11  12
ENDBRANCH   9  11
ENDBRANCH   5   9
BRANCH   6  19
HETATM   19  N   UNL     1      -8.197 -10.959   8.424  1.00  0.00    -0.367 N 
HETATM   20  C   UNL     1      -8.983 -10.423   7.325  1.00  0.00     0.124 C 
HETATM   21  C   UNL     1     -10.232 -11.287   7.234  1.00  0.00     0.024 C 
HETATM   22  C   UNL     1      -9.791 -12.693   6.898  1.00  0.00    -0.015 C 
HETATM   23  C   UNL     1      -8.851 -13.234   7.957  1.00  0.00     0.024 C 
HETATM   24  C   UNL     1     -11.014 -13.544   6.824  1.00  0.00     0.010 C 
HETATM   25  C   UNL     1      -7.678 -12.312   8.216  1.00  0.00     0.124 C 
ENDBRANCH   6  19
TORSDOF 5
ENDMDL
MODEL 14
REMARK VINA RESULT:    -6.994      4.056      5.435
REMARK INTER + INTRA:          -9.932
REMARK INTER:                  -9.336
REMARK INTRA:                  -0.596
REMARK UNBOUND:                -0.895
REMARK  5 active torsions:
REMARK  status: ('A' for Active; 'I' for Inactive)
REMARK    1  A    between atoms: N_3  and  C_16 
REMARK    2  A    between atoms: C_8  and  C_12 
REMARK    3  A    between atoms: C_9  and  N_24 
REMARK    4  A    between atoms: C_12  and  C_21 
REMARK    5  A    between atoms: C_21  and  N_24 
ROOT
HETATM    1  N   UNL     1      -4.995 -11.603   9.857  1.00  0.00    -0.202 N 
ATOM      2  HN  UNL     1      -4.010 -11.549  10.117  1.00  0.00     0.183 HD
HETATM    3  C   UNL     1      -7.284 -11.530  10.475  1.00  0.00     0.066 A 
HETATM    4  C   UNL     1      -5.949 -11.465  10.781  1.00  0.00     0.110 A 
HETATM    5  C   UNL     1      -5.352 -11.811   8.591  1.00  0.00     0.679 A 
HETATM    6  C   UNL     1      -7.569 -11.727   9.140  1.00  0.00     0.120 A 
HETATM    7  N   UNL     1      -6.634 -11.862   8.193  1.00  0.00    -0.177 N 
ATOM      8  HN  UNL     1      -6.883 -11.996   7.213  1.00  0.00     0.185 HD
ENDROOT
BRANCH   5   9
HETATM    9  N   UNL     1      -4.291 -11.980   7.699  1.00  0.00    -0.226 N 
ATOM     10  HN  UNL     1      -4.182 -11.397   6.869  1.00  0.00     0.177 HD
BRANCH   9  11
HETATM   11  C   UNL     1      -3.360 -13.032   8.026  1.00  0.00     0.142 C 
BRANCH  11  12
HETATM   12  C   UNL     1      -3.527 -14.111   6.929  1.00  0.00     0.058 C 
BRANCH  12  13
HETATM   13  C   UNL     1      -2.716 -13.736   5.725  1.00  0.00    -0.057 A 
HETATM   14  C   UNL     1      -1.526 -13.042   5.853  1.00  0.00     0.007 A 
HETATM   15  C   UNL     1      -0.782 -12.667   4.749  1.00  0.00     0.001 A 
HETATM   16  C   UNL     1      -1.234 -12.996   3.486  1.00  0.00     0.000 A 
HETATM   17  C   UNL     1      -2.426 -13.700   3.346  1.00  0.00     0.001 A 
HETATM   18  C   UNL     1      -3.163 -14.065   4.457  1.00  0.00     0.007 A 
ENDBRANCH  12  13
ENDBRANCH  11  12
ENDBRANCH   9  11
ENDBRANCH   5   9
BRANCH   6  19
HETATM   19  N   UNL     1      -8.918 -11.803   8.749  1.00  0.00    -0.367 N 
HETATM   20  C   UNL     1      -9.537 -13.097   8.515  1.00  0.00     0.124 C 
HETATM   21  C   UNL     1      -9.863 -13.151   7.030  1.00  0.00     0.024 C 
HETATM   22  C   UNL     1     -10.862 -12.055   6.741  1.00  0.00    -0.015 C 
HETATM   23  C   UNL     1     -10.299 -10.696   7.109  1.00  0.00     0.024 C 
HETATM   24  C   UNL     1     -11.170 -12.097   5.281  1.00  0.00     0.010 C 
HETATM   25  C   UNL     1      -9.791 -10.648   8.535  1.00  0.00     0.124 C 
ENDBRANCH   6  19
TORSDOF 5
ENDMDL
MODEL 15
REMARK VINA RESULT:    -6.969      5.182      7.458
REMARK INTER + INTRA:          -9.900
REMARK INTER:                  -9.355
REMARK INTRA:                  -0.545
REMARK UNBOUND:                -0.895
REMARK  5 active torsions:
REMARK  status: ('A' for Active; 'I' for Inactive)
REMARK    1  A    between atoms: N_3  and  C_16 
REMARK    2  A    between atoms: C_8  and  C_12 
REMARK    3  A    between atoms: C_9  and  N_24 
REMARK    4  A    between atoms: C_12  and  C_21 
REMARK    5  A    between atoms: C_21  and  N_24 
ROOT
HETATM    1  N   UNL     1      -5.762 -15.122   9.013  1.00  0.00    -0.202 N 
ATOM      2  HN  UNL     1      -6.359 -14.994   9.831  1.00  0.00     0.183 HD
HETATM    3  C   UNL     1      -3.782 -15.992   8.038  1.00  0.00     0.066 A 
HETATM    4  C   UNL     1      -4.613 -15.796   9.111  1.00  0.00     0.110 A 
HETATM    5  C   UNL     1      -6.114 -14.620   7.831  1.00  0.00     0.679 A 
HETATM    6  C   UNL     1      -4.229 -15.459   6.847  1.00  0.00     0.120 A 
HETATM    7  N   UNL     1      -5.378 -14.785   6.720  1.00  0.00    -0.177 N 
ATOM      8  HN  UNL     1      -5.681 -14.414   5.819  1.00  0.00     0.185 HD
ENDROOT
BRANCH   5   9
HETATM    9  N   UNL     1      -7.309 -13.900   7.828  1.00  0.00    -0.226 N 
ATOM     10  HN  UNL     1      -7.817 -13.693   6.967  1.00  0.00     0.177 HD
BRANCH   9  11
HETATM   11  C   UNL     1      -7.782 -13.466   9.121  1.00  0.00     0.142 C 
BRANCH  11  12
HETATM   12  C   UNL     1      -9.316 -13.666   9.107  1.00  0.00     0.058 C 
BRANCH  12  13
HETATM   13  C   UNL     1      -9.923 -12.843   8.009  1.00  0.00    -0.057 A 
HETATM   14  C   UNL     1      -9.733 -11.474   7.955  1.00  0.00     0.007 A 
HETATM   15  C   UNL     1     -10.310 -10.701   6.963  1.00  0.00     0.001 A 
HETATM   16  C   UNL     1     -11.090 -11.309   6.000  1.00  0.00     0.000 A 
HETATM   17  C   UNL     1     -11.283 -12.687   6.042  1.00  0.00     0.001 A 
HETATM   18  C   UNL     1     -10.705 -13.448   7.041  1.00  0.00     0.007 A 
ENDBRANCH  12  13
ENDBRANCH  11  12
ENDBRANCH   9  11
ENDBRANCH   5   9
BRANCH   6  19
HETATM   19  N   UNL     1      -3.429 -15.621   5.701  1.00  0.00    -0.367 N 
HETATM   20  C   UNL     1      -3.306 -14.538   4.740  1.00  0.00     0.124 C 
HETATM   21  C   UNL     1      -3.962 -15.030   3.458  1.00  0.00     0.024 C 
HETATM   22  C   UNL     1      -3.177 -16.226   2.972  1.00  0.00    -0.015 C 
HETATM   23  C   UNL     1      -3.165 -17.327   4.015  1.00  0.00     0.024 C 
HETATM   24  C   UNL     1      -3.830 -16.718   1.724  1.00  0.00     0.010 C 
HETATM   25  C   UNL     1      -2.688 -16.839   5.367  1.00  0.00     0.124 C 
ENDBRANCH   6  19
TORSDOF 5
ENDMDL
MODEL 16
REMARK VINA RESULT:    -6.927      4.969      7.496
REMARK INTER + INTRA:          -9.847
REMARK INTER:                  -9.223
REMARK INTRA:                  -0.623
REMARK UNBOUND:                -0.895
REMARK  5 active torsions:
REMARK  status: ('A' for Active; 'I' for Inactive)
REMARK    1  A    between atoms: N_3  and  C_16 
REMARK    2  A    between atoms: C_8  and  C_12 
REMARK    3  A    between atoms: C_9  and  N_24 
REMARK    4  A    between atoms: C_12  and  C_21 
REMARK    5  A    between atoms: C_21  and  N_24 
ROOT
HETATM    1  N   UNL     1      -5.340 -15.132   9.145  1.00  0.00    -0.202 N 
ATOM      2  HN  UNL     1      -5.805 -15.069  10.050  1.00  0.00     0.183 HD
HETATM    3  C   UNL     1      -3.385 -15.557   7.869  1.00  0.00     0.066 A 
HETATM    4  C   UNL     1      -4.048 -15.460   9.066  1.00  0.00     0.110 A 
HETATM    5  C   UNL     1      -6.011 -14.890   8.020  1.00  0.00     0.679 A 
HETATM    6  C   UNL     1      -4.155 -15.311   6.753  1.00  0.00     0.120 A 
HETATM    7  N   UNL     1      -5.453 -14.987   6.802  1.00  0.00    -0.177 N 
ATOM      8  HN  UNL     1      -5.993 -14.821   5.953  1.00  0.00     0.185 HD
ENDROOT
BRANCH   5   9
HETATM    9  N   UNL     1      -7.344 -14.518   8.197  1.00  0.00    -0.226 N 
ATOM     10  HN  UNL     1      -8.114 -15.043   7.780  1.00  0.00     0.177 HD
BRANCH   9  11
HETATM   11  C   UNL     1      -7.565 -13.345   9.007  1.00  0.00     0.142 C 
BRANCH  11  12
HETATM   12  C   UNL     1      -9.084 -13.303   9.298  1.00  0.00     0.058 C 
BRANCH  12  13
HETATM   13  C   UNL     1      -9.801 -12.660   8.148  1.00  0.00    -0.057 A 
HETATM   14  C   UNL     1     -10.575 -13.410   7.280  1.00  0.00     0.007 A 
HETATM   15  C   UNL     1     -11.219 -12.834   6.200  1.00  0.00     0.001 A 
HETATM   16  C   UNL     1     -11.092 -11.476   5.983  1.00  0.00     0.000 A 
HETATM   17  C   UNL     1     -10.321 -10.711   6.853  1.00  0.00     0.001 A 
HETATM   18  C   UNL     1      -9.678 -11.300   7.926  1.00  0.00     0.007 A 
ENDBRANCH  12  13
ENDBRANCH  11  12
ENDBRANCH   9  11
ENDBRANCH   5   9
BRANCH   6  19
HETATM   19  N   UNL     1      -3.544 -15.393   5.488  1.00  0.00    -0.367 N 
HETATM   20  C   UNL     1      -2.121 -15.666   5.383  1.00  0.00     0.124 C 
HETATM   21  C   UNL     1      -1.489 -14.412   4.798  1.00  0.00     0.024 C 
HETATM   22  C   UNL     1      -2.066 -14.212   3.416  1.00  0.00    -0.015 C 
HETATM   23  C   UNL     1      -3.574 -14.065   3.474  1.00  0.00     0.024 C 
HETATM   24  C   UNL     1      -1.458 -12.973   2.847  1.00  0.00     0.010 C 
HETATM   25  C   UNL     1      -4.239 -15.208   4.213  1.00  0.00     0.124 C 
ENDBRANCH   6  19
TORSDOF 5
ENDMDL
MODEL 17
REMARK VINA RESULT:    -6.703      4.653      6.927
REMARK INTER + INTRA:          -9.557
REMARK INTER:                  -8.898
REMARK INTRA:                  -0.660
REMARK UNBOUND:                -0.895
REMARK  5 active torsions:
REMARK  status: ('A' for Active; 'I' for Inactive)
REMARK    1  A    between atoms: N_3  and  C_16 
REMARK    2  A    between atoms: C_8  and  C_12 
REMARK    3  A    between atoms: C_9  and  N_24 
REMARK    4  A    between atoms: C_12  and  C_21 
REMARK    5  A    between atoms: C_21  and  N_24 
ROOT
HETATM    1  N   UNL     1      -3.933 -12.827   9.721  1.00  0.00    -0.202 N 
ATOM      2  HN  UNL     1      -4.176 -12.380  10.605  1.00  0.00     0.183 HD
HETATM    3  C   UNL     1      -2.583 -14.343   8.492  1.00  0.00     0.066 A 
HETATM    4  C   UNL     1      -2.942 -13.719   9.660  1.00  0.00     0.110 A 
HETATM    5  C   UNL     1      -4.599 -12.529   8.606  1.00  0.00     0.679 A 
HETATM    6  C   UNL     1      -3.335 -13.995   7.390  1.00  0.00     0.120 A 
HETATM    7  N   UNL     1      -4.337 -13.109   7.423  1.00  0.00    -0.177 N 
ATOM      8  HN  UNL     1      -4.877 -12.884   6.588  1.00  0.00     0.185 HD
ENDROOT
BRANCH   5   9
HETATM    9  N   UNL     1      -5.593 -11.560   8.753  1.00  0.00    -0.226 N 
ATOM     10  HN  UNL     1      -5.378 -10.563   8.785  1.00  0.00     0.177 HD
BRANCH   9  11
HETATM   11  C   UNL     1      -6.943 -12.059   8.857  1.00  0.00     0.142 C 
BRANCH  11  12
HETATM   12  C   UNL     1      -7.865 -10.904   8.400  1.00  0.00     0.058 C 
BRANCH  12  13
HETATM   13  C   UNL     1      -8.948 -11.443   7.513  1.00  0.00    -0.057 A 
HETATM   14  C   UNL     1      -9.928 -10.614   6.998  1.00  0.00     0.007 A 
HETATM   15  C   UNL     1     -10.948 -11.103   6.202  1.00  0.00     0.001 A 
HETATM   16  C   UNL     1     -10.988 -12.452   5.909  1.00  0.00     0.000 A 
HETATM   17  C   UNL     1     -10.004 -13.294   6.417  1.00  0.00     0.001 A 
HETATM   18  C   UNL     1      -8.993 -12.794   7.216  1.00  0.00     0.007 A 
ENDBRANCH  12  13
ENDBRANCH  11  12
ENDBRANCH   9  11
ENDBRANCH   5   9
BRANCH   6  19
HETATM   19  N   UNL     1      -3.026 -14.594   6.155  1.00  0.00    -0.367 N 
HETATM   20  C   UNL     1      -1.841 -14.183   5.421  1.00  0.00     0.124 C 
HETATM   21  C   UNL     1      -2.340 -13.521   4.145  1.00  0.00     0.024 C 
HETATM   22  C   UNL     1      -3.087 -14.565   3.349  1.00  0.00    -0.015 C 
HETATM   23  C   UNL     1      -4.252 -15.122   4.145  1.00  0.00     0.024 C 
HETATM   24  C   UNL     1      -3.590 -13.912   2.106  1.00  0.00     0.010 C 
HETATM   25  C   UNL     1      -3.831 -15.632   5.507  1.00  0.00     0.124 C 
ENDBRANCH   6  19
TORSDOF 5
ENDMDL
MODEL 18
REMARK VINA RESULT:    -6.674      2.385      6.682
REMARK INTER + INTRA:          -9.519
REMARK INTER:                  -9.451
REMARK INTRA:                  -0.068
REMARK UNBOUND:                -0.895
REMARK  5 active torsions:
REMARK  status: ('A' for Active; 'I' for Inactive)
REMARK    1  A    between atoms: N_3  and  C_16 
REMARK    2  A    between atoms: C_8  and  C_12 
REMARK    3  A    between atoms: C_9  and  N_24 
REMARK    4  A    between atoms: C_12  and  C_21 
REMARK    5  A    between atoms: C_21  and  N_24 
ROOT
HETATM    1  N   UNL     1      -7.622 -14.854   9.226  1.00  0.00    -0.202 N 
ATOM      2  HN  UNL     1      -8.365 -15.490   8.934  1.00  0.00     0.183 HD
HETATM    3  C   UNL     1      -5.346 -14.190   9.147  1.00  0.00     0.066 A 
HETATM    4  C   UNL     1      -6.374 -15.021   8.782  1.00  0.00     0.110 A 
HETATM    5  C   UNL     1      -7.880 -13.844  10.055  1.00  0.00     0.679 A 
HETATM    6  C   UNL     1      -5.700 -13.159   9.991  1.00  0.00     0.120 A 
HETATM    7  N   UNL     1      -6.943 -12.964  10.446  1.00  0.00    -0.177 N 
ATOM      8  HN  UNL     1      -7.170 -12.183  11.062  1.00  0.00     0.185 HD
ENDROOT
BRANCH   5   9
HETATM    9  N   UNL     1      -9.201 -13.767  10.498  1.00  0.00    -0.226 N 
ATOM     10  HN  UNL     1      -9.634 -14.511  11.047  1.00  0.00     0.177 HD
BRANCH   9  11
HETATM   11  C   UNL     1      -9.916 -12.569  10.131  1.00  0.00     0.142 C 
BRANCH  11  12
HETATM   12  C   UNL     1      -9.108 -11.922   8.981  1.00  0.00     0.058 C 
BRANCH  12  13
HETATM   13  C   UNL     1      -9.907 -11.973   7.712  1.00  0.00    -0.057 A 
HETATM   14  C   UNL     1     -10.309 -10.814   7.074  1.00  0.00     0.007 A 
HETATM   15  C   UNL     1     -11.069 -10.848   5.919  1.00  0.00     0.001 A 
HETATM   16  C   UNL     1     -11.433 -12.068   5.385  1.00  0.00     0.000 A 
HETATM   17  C   UNL     1     -11.029 -13.241   6.015  1.00  0.00     0.001 A 
HETATM   18  C   UNL     1     -10.274 -13.194   7.173  1.00  0.00     0.007 A 
ENDBRANCH  12  13
ENDBRANCH  11  12
ENDBRANCH   9  11
ENDBRANCH   5   9
BRANCH   6  19
HETATM   19  N   UNL     1      -4.698 -12.263  10.409  1.00  0.00    -0.367 N 
HETATM   20  C   UNL     1      -4.870 -10.834  10.212  1.00  0.00     0.124 C 
HETATM   21  C   UNL     1      -3.806 -10.412   9.209  1.00  0.00     0.024 C 
HETATM   22  C   UNL     1      -2.457 -10.675   9.836  1.00  0.00    -0.015 C 
HETATM   23  C   UNL     1      -2.299 -12.141  10.189  1.00  0.00     0.024 C 
HETATM   24  C   UNL     1      -1.413 -10.276   8.847  1.00  0.00     0.010 C 
HETATM   25  C   UNL     1      -3.439 -12.658  11.042  1.00  0.00     0.124 C 
ENDBRANCH   6  19
TORSDOF 5
ENDMDL
MODEL 19
REMARK VINA RESULT:    -6.652      3.848      7.163
REMARK INTER + INTRA:          -9.491
REMARK INTER:                  -9.074
REMARK INTRA:                  -0.417
REMARK UNBOUND:                -0.895
REMARK  5 active torsions:
REMARK  status: ('A' for Active; 'I' for Inactive)
REMARK    1  A    between atoms: N_3  and  C_16 
REMARK    2  A    between atoms: C_8  and  C_12 
REMARK    3  A    between atoms: C_9  and  N_24 
REMARK    4  A    between atoms: C_12  and  C_21 
REMARK    5  A    between atoms: C_21  and  N_24 
ROOT
HETATM    1  N   UNL     1      -4.529 -10.308   9.765  1.00  0.00    -0.202 N 
ATOM      2  HN  UNL     1      -5.058  -9.670  10.359  1.00  0.00     0.183 HD
HETATM    3  C   UNL     1      -2.496 -11.415   9.245  1.00  0.00     0.066 A 
HETATM    4  C   UNL     1      -3.243 -10.562  10.017  1.00  0.00     0.110 A 
HETATM    5  C   UNL     1      -5.109 -10.904   8.724  1.00  0.00     0.679 A 
HETATM    6  C   UNL     1      -3.176 -12.005   8.201  1.00  0.00     0.120 A 
HETATM    7  N   UNL     1      -4.465 -11.774   7.929  1.00  0.00    -0.177 N 
ATOM      8  HN  UNL     1      -4.938 -12.237   7.153  1.00  0.00     0.185 HD
ENDROOT
BRANCH   5   9
HETATM    9  N   UNL     1      -6.443 -10.553   8.512  1.00  0.00    -0.226 N 
ATOM     10  HN  UNL     1      -6.712  -9.787   7.893  1.00  0.00     0.177 HD
BRANCH   9  11
HETATM   11  C   UNL     1      -7.419 -11.343   9.223  1.00  0.00     0.142 C 
BRANCH  11  12
HETATM   12  C   UNL     1      -7.723 -12.564   8.323  1.00  0.00     0.058 C 
BRANCH  12  13
HETATM   13  C   UNL     1      -8.923 -12.275   7.469  1.00  0.00    -0.057 A 
HETATM   14  C   UNL     1      -9.488 -11.013   7.436  1.00  0.00     0.007 A 
HETATM   15  C   UNL     1     -10.610 -10.741   6.674  1.00  0.00     0.001 A 
HETATM   16  C   UNL     1     -11.178 -11.751   5.923  1.00  0.00     0.000 A 
HETATM   17  C   UNL     1     -10.614 -13.023   5.944  1.00  0.00     0.001 A 
HETATM   18  C   UNL     1      -9.496 -13.284   6.715  1.00  0.00     0.007 A 
ENDBRANCH  12  13
ENDBRANCH  11  12
ENDBRANCH   9  11
ENDBRANCH   5   9
BRANCH   6  19
HETATM   19  N   UNL     1      -2.475 -12.893   7.364  1.00  0.00    -0.367 N 
HETATM   20  C   UNL     1      -1.028 -12.807   7.259  1.00  0.00     0.124 C 
HETATM   21  C   UNL     1      -0.730 -12.379   5.830  1.00  0.00     0.024 C 
HETATM   22  C   UNL     1      -1.238 -13.467   4.912  1.00  0.00    -0.015 C 
HETATM   23  C   UNL     1      -2.727 -13.684   5.099  1.00  0.00     0.024 C 
HETATM   24  C   UNL     1      -0.960 -13.040   3.509  1.00  0.00     0.010 C 
HETATM   25  C   UNL     1      -3.098 -13.934   6.545  1.00  0.00     0.124 C 
ENDBRANCH   6  19
TORSDOF 5
ENDMDL
MODEL 20
REMARK VINA RESULT:    -6.635      4.061      7.382
REMARK INTER + INTRA:          -9.469
REMARK INTER:                  -8.865
REMARK INTRA:                  -0.605
REMARK UNBOUND:                -0.895
REMARK  5 active torsions:
REMARK  status: ('A' for Active; 'I' for Inactive)
REMARK    1  A    between atoms: N_3  and  C_16 
REMARK    2  A    between atoms: C_8  and  C_12 
REMARK    3  A    between atoms: C_9  and  N_24 
REMARK    4  A    between atoms: C_12  and  C_21 
REMARK    5  A    between atoms: C_21  and  N_24 
ROOT
HETATM    1  N   UNL     1      -7.043 -17.042   9.280  1.00  0.00    -0.202 N 
ATOM      2  HN  UNL     1      -7.912 -17.433   9.643  1.00  0.00     0.183 HD
HETATM    3  C   UNL     1      -4.873 -17.360   8.375  1.00  0.00     0.066 A 
HETATM    4  C   UNL     1      -6.057 -17.844   8.870  1.00  0.00     0.110 A 
HETATM    5  C   UNL     1      -6.871 -15.723   9.206  1.00  0.00     0.679 A 
HETATM    6  C   UNL     1      -4.783 -15.985   8.313  1.00  0.00     0.120 A 
HETATM    7  N   UNL     1      -5.757 -15.159   8.710  1.00  0.00    -0.177 N 
ATOM      8  HN  UNL     1      -5.659 -14.146   8.640  1.00  0.00     0.185 HD
ENDROOT
BRANCH   5   9
HETATM    9  N   UNL     1      -7.936 -14.962   9.690  1.00  0.00    -0.226 N 
ATOM     10  HN  UNL     1      -8.589 -15.323  10.386  1.00  0.00     0.177 HD
BRANCH   9  11
HETATM   11  C   UNL     1      -8.055 -13.632   9.142  1.00  0.00     0.142 C 
BRANCH  11  12
HETATM   12  C   UNL     1      -9.517 -13.193   9.393  1.00  0.00     0.058 C 
BRANCH  12  13
HETATM   13  C   UNL     1     -10.090 -12.606   8.137  1.00  0.00    -0.057 A 
HETATM   14  C   UNL     1     -10.707 -13.406   7.192  1.00  0.00     0.007 A 
HETATM   15  C   UNL     1     -11.215 -12.881   6.017  1.00  0.00     0.001 A 
HETATM   16  C   UNL     1     -11.110 -11.525   5.782  1.00  0.00     0.000 A 
HETATM   17  C   UNL     1     -10.497 -10.710   6.729  1.00  0.00     0.001 A 
HETATM   18  C   UNL     1      -9.988 -11.247   7.896  1.00  0.00     0.007 A 
ENDBRANCH  12  13
ENDBRANCH  11  12
ENDBRANCH   9  11
ENDBRANCH   5   9
BRANCH   6  19
HETATM   19  N   UNL     1      -3.598 -15.415   7.814  1.00  0.00    -0.367 N 
HETATM   20  C   UNL     1      -2.367 -15.506   8.581  1.00  0.00     0.124 C 
HETATM   21  C   UNL     1      -2.015 -14.084   8.992  1.00  0.00     0.024 C 
HETATM   22  C   UNL     1      -1.764 -13.292   7.729  1.00  0.00    -0.015 C 
HETATM   23  C   UNL     1      -2.988 -13.296   6.834  1.00  0.00     0.024 C 
HETATM   24  C   UNL     1      -1.434 -11.894   8.130  1.00  0.00     0.010 C 
HETATM   25  C   UNL     1      -3.488 -14.696   6.544  1.00  0.00     0.124 C 
ENDBRANCH   6  19
TORSDOF 5
ENDMDL
