MODEL 1
REMARK VINA RESULT:    -8.847      0.000      0.000
REMARK INTER + INTRA:         -12.675
REMARK INTER:                 -11.691
REMARK INTRA:                  -0.984
REMARK UNBOUND:                -0.984
REMARK  6 active torsions:
REMARK  status: ('A' for Active; 'I' for Inactive)
REMARK    1  A    between atoms: C_4  and  C_5 
REMARK       I    between atoms: C_5  and  N_19 
REMARK    2  A    between atoms: C_6  and  N_19 
REMARK    3  A    between atoms: C_6  and  C_22 
REMARK    4  A    between atoms: C_10  and  C_15 
REMARK    5  A    between atoms: C_25  and  S_27 
REMARK    6  A    between atoms: S_27  and  N_30 
ROOT
HETATM    1  C   UNL     1     -22.036  11.285   0.004  1.00  0.00     0.253 C 
HETATM    2  N   UNL     1     -21.194  11.381  -1.038  1.00  0.00    -0.349 N 
ATOM      3  HN  UNL     1     -20.433  10.706  -1.112  1.00  0.00     0.163 HD
HETATM    4  O   UNL     1     -23.136  11.826   0.007  1.00  0.00    -0.268 OA
ENDROOT
BRANCH   1   5
HETATM    5  C   UNL     1     -21.607  10.414   1.142  1.00  0.00     0.048 A 
HETATM    6  C   UNL     1     -20.315   9.910   1.182  1.00  0.00     0.036 A 
HETATM    7  C   UNL     1     -19.941   9.075   2.219  1.00  0.00     0.043 A 
HETATM    8  C   UNL     1     -20.894   8.776   3.196  1.00  0.00     0.182 A 
HETATM    9  C   UNL     1     -18.744   8.390   2.591  1.00  0.00     0.050 A 
HETATM   10  O   UNL     1     -20.256   7.931   4.109  1.00  0.00    -0.219 OA
HETATM   11  N   UNL     1     -22.129   9.244   3.182  1.00  0.00    -0.343 N 
HETATM   12  N   UNL     1     -18.908   7.711   3.667  1.00  0.00    -0.262 N 
ATOM     13  HN  UNL     1     -18.210   7.125   4.124  1.00  0.00     0.194 HD
HETATM   14  C   UNL     1     -22.475  10.042   2.163  1.00  0.00     0.107 A 
ATOM     15  HN  UNL     1     -22.794   9.007   3.919  1.00  0.00     0.167 HD
BRANCH   9  16
HETATM   16  C   UNL     1     -17.431   8.382   1.845  1.00  0.00     0.030 C 
HETATM   17  C   UNL     1     -17.151   7.025   1.228  1.00  0.00     0.016 C 
HETATM   18  C   UNL     1     -16.290   8.862   2.715  1.00  0.00     0.016 C 
ENDBRANCH   9  16
ENDBRANCH   1   5
BRANCH   2  19
HETATM   19  C   UNL     1     -21.320  12.409  -2.073  1.00  0.00     0.114 C 
HETATM   20  C   UNL     1     -20.583  11.965  -3.333  1.00  0.00     0.037 C 
BRANCH  19  21
HETATM   21  C   UNL     1     -20.804  13.736  -1.555  1.00  0.00    -0.034 A 
HETATM   22  C   UNL     1     -19.450  13.950  -1.352  1.00  0.00     0.009 A 
HETATM   23  C   UNL     1     -18.991  15.165  -0.880  1.00  0.00     0.002 A 
HETATM   24  C   UNL     1     -19.883  16.178  -0.571  1.00  0.00     0.025 A 
HETATM   25  C   UNL     1     -21.238  15.967  -0.772  1.00  0.00     0.079 A 
HETATM   26  C   UNL     1     -21.699  14.755  -1.252  1.00  0.00     0.034 A 
BRANCH  25  27
HETATM   27  S   UNL     1     -22.383  17.269  -0.432  1.00  0.00     0.256 S 
HETATM   28  O   UNL     1     -22.378  18.143  -1.572  1.00  0.00    -0.201 OA
HETATM   29  O   UNL     1     -22.035  17.815   0.843  1.00  0.00    -0.201 OA
BRANCH  27  30
HETATM   30  N   UNL     1     -23.859  16.671  -0.295  1.00  0.00    -0.324 N 
ATOM     31  HN2 UNL     1     -24.287  16.395   0.589  1.00  0.00     0.169 HD
ATOM     32  HN1 UNL     1     -24.295  16.611  -1.215  1.00  0.00     0.169 HD
ENDBRANCH  27  30
ENDBRANCH  25  27
ENDBRANCH  19  21
ENDBRANCH   2  19
TORSDOF 6
ENDMDL
MODEL 2
REMARK VINA RESULT:    -7.966      1.748      3.395
REMARK INTER + INTRA:         -11.511
REMARK INTER:                 -10.661
REMARK INTRA:                  -0.849
REMARK UNBOUND:                -0.984
REMARK  6 active torsions:
REMARK  status: ('A' for Active; 'I' for Inactive)
REMARK    1  A    between atoms: C_4  and  C_5 
REMARK       I    between atoms: C_5  and  N_19 
REMARK    2  A    between atoms: C_6  and  N_19 
REMARK    3  A    between atoms: C_6  and  C_22 
REMARK    4  A    between atoms: C_10  and  C_15 
REMARK    5  A    between atoms: C_25  and  S_27 
REMARK    6  A    between atoms: S_27  and  N_30 
ROOT
HETATM    1  C   UNL     1     -22.322  11.382  -0.017  1.00  0.00     0.253 C 
HETATM    2  N   UNL     1     -21.356  11.446  -0.948  1.00  0.00    -0.349 N 
ATOM      3  HN  UNL     1     -20.591  10.774  -0.901  1.00  0.00     0.163 HD
HETATM    4  O   UNL     1     -23.415  11.916  -0.172  1.00  0.00    -0.268 OA
ENDROOT
BRANCH   1   5
HETATM    5  C   UNL     1     -22.038  10.556   1.197  1.00  0.00     0.048 A 
HETATM    6  C   UNL     1     -23.013  10.397   2.172  1.00  0.00     0.036 A 
HETATM    7  C   UNL     1     -22.726   9.663   3.308  1.00  0.00     0.043 A 
HETATM    8  C   UNL     1     -21.452   9.103   3.423  1.00  0.00     0.182 A 
HETATM    9  C   UNL     1     -23.445   9.289   4.485  1.00  0.00     0.050 A 
HETATM   10  O   UNL     1     -21.439   8.423   4.645  1.00  0.00    -0.219 OA
HETATM   11  N   UNL     1     -20.507   9.237   2.509  1.00  0.00    -0.343 N 
HETATM   12  N   UNL     1     -22.717   8.589   5.276  1.00  0.00    -0.262 N 
ATOM     13  HN  UNL     1     -22.996   8.219   6.185  1.00  0.00     0.194 HD
HETATM   14  C   UNL     1     -20.801   9.962   1.421  1.00  0.00     0.107 A 
ATOM     15  HN  UNL     1     -19.590   8.807   2.627  1.00  0.00     0.167 HD
BRANCH   9  16
HETATM   16  C   UNL     1     -24.863   9.664   4.842  1.00  0.00     0.030 C 
HETATM   17  C   UNL     1     -25.858   9.067   3.864  1.00  0.00     0.016 C 
HETATM   18  C   UNL     1     -25.028  11.162   4.984  1.00  0.00     0.016 C 
ENDBRANCH   9  16
ENDBRANCH   1   5
BRANCH   2  19
HETATM   19  C   UNL     1     -21.352  12.436  -2.026  1.00  0.00     0.114 C 
HETATM   20  C   UNL     1     -20.557  11.901  -3.214  1.00  0.00     0.037 C 
BRANCH  19  21
HETATM   21  C   UNL     1     -20.800  13.753  -1.524  1.00  0.00    -0.034 A 
HETATM   22  C   UNL     1     -19.438  13.937  -1.339  1.00  0.00     0.009 A 
HETATM   23  C   UNL     1     -18.945  15.144  -0.880  1.00  0.00     0.002 A 
HETATM   24  C   UNL     1     -19.810  16.179  -0.566  1.00  0.00     0.025 A 
HETATM   25  C   UNL     1     -21.172  15.999  -0.749  1.00  0.00     0.079 A 
HETATM   26  C   UNL     1     -21.666  14.794  -1.215  1.00  0.00     0.034 A 
BRANCH  25  27
HETATM   27  S   UNL     1     -22.282  17.328  -0.403  1.00  0.00     0.256 S 
HETATM   28  O   UNL     1     -22.254  18.207  -1.539  1.00  0.00    -0.201 OA
HETATM   29  O   UNL     1     -21.920  17.859   0.875  1.00  0.00    -0.201 OA
BRANCH  27  30
HETATM   30  N   UNL     1     -23.773  16.769  -0.269  1.00  0.00    -0.324 N 
ATOM     31  HN2 UNL     1     -24.567  17.112  -0.811  1.00  0.00     0.169 HD
ATOM     32  HN1 UNL     1     -23.804  16.029   0.433  1.00  0.00     0.169 HD
ENDBRANCH  27  30
ENDBRANCH  25  27
ENDBRANCH  19  21
ENDBRANCH   2  19
TORSDOF 6
ENDMDL
MODEL 3
REMARK VINA RESULT:    -7.876      2.308      3.197
REMARK INTER + INTRA:         -11.392
REMARK INTER:                 -10.422
REMARK INTRA:                  -0.970
REMARK UNBOUND:                -0.984
REMARK  6 active torsions:
REMARK  status: ('A' for Active; 'I' for Inactive)
REMARK    1  A    between atoms: C_4  and  C_5 
REMARK       I    between atoms: C_5  and  N_19 
REMARK    2  A    between atoms: C_6  and  N_19 
REMARK    3  A    between atoms: C_6  and  C_22 
REMARK    4  A    between atoms: C_10  and  C_15 
REMARK    5  A    between atoms: C_25  and  S_27 
REMARK    6  A    between atoms: S_27  and  N_30 
ROOT
HETATM    1  C   UNL     1     -21.739  12.974  -0.771  1.00  0.00     0.253 C 
HETATM    2  N   UNL     1     -20.636  13.668  -0.446  1.00  0.00    -0.349 N 
ATOM      3  HN  UNL     1     -20.038  13.310   0.298  1.00  0.00     0.163 HD
HETATM    4  O   UNL     1     -22.326  13.141  -1.834  1.00  0.00    -0.268 OA
ENDROOT
BRANCH   1   5
HETATM    5  C   UNL     1     -22.182  11.919   0.192  1.00  0.00     0.048 A 
HETATM    6  C   UNL     1     -21.241  11.140   0.850  1.00  0.00     0.036 A 
HETATM    7  C   UNL     1     -21.664  10.142   1.709  1.00  0.00     0.043 A 
HETATM    8  C   UNL     1     -23.038   9.962   1.880  1.00  0.00     0.182 A 
HETATM    9  C   UNL     1     -21.018   9.174   2.539  1.00  0.00     0.050 A 
HETATM   10  O   UNL     1     -23.179   8.908   2.787  1.00  0.00    -0.219 OA
HETATM   11  N   UNL     1     -23.955  10.690   1.266  1.00  0.00    -0.343 N 
HETATM   12  N   UNL     1     -21.872   8.442   3.156  1.00  0.00    -0.262 N 
ATOM     13  HN  UNL     1     -21.661   7.672   3.790  1.00  0.00     0.194 HD
HETATM   14  C   UNL     1     -23.524  11.645   0.429  1.00  0.00     0.107 A 
ATOM     15  HN  UNL     1     -24.950  10.532   1.422  1.00  0.00     0.167 HD
BRANCH   9  16
HETATM   16  C   UNL     1     -19.533   8.953   2.690  1.00  0.00     0.030 C 
HETATM   17  C   UNL     1     -18.982   8.093   1.569  1.00  0.00     0.016 C 
HETATM   18  C   UNL     1     -19.184   8.404   4.057  1.00  0.00     0.016 C 
ENDBRANCH   9  16
ENDBRANCH   1   5
BRANCH   2  19
HETATM   19  C   UNL     1     -20.253  14.914  -1.112  1.00  0.00     0.114 C 
HETATM   20  C   UNL     1     -18.733  15.058  -1.102  1.00  0.00     0.037 C 
BRANCH  19  21
HETATM   21  C   UNL     1     -20.935  16.092  -0.450  1.00  0.00    -0.034 A 
HETATM   22  C   UNL     1     -21.791  16.919  -1.160  1.00  0.00     0.009 A 
HETATM   23  C   UNL     1     -22.409  17.991  -0.545  1.00  0.00     0.002 A 
HETATM   24  C   UNL     1     -22.156  18.274   0.787  1.00  0.00     0.025 A 
HETATM   25  C   UNL     1     -21.301  17.449   1.501  1.00  0.00     0.079 A 
HETATM   26  C   UNL     1     -20.687  16.372   0.888  1.00  0.00     0.034 A 
BRANCH  25  27
HETATM   27  S   UNL     1     -21.011  17.767   3.214  1.00  0.00     0.256 S 
HETATM   28  O   UNL     1     -19.587  17.802   3.400  1.00  0.00    -0.201 OA
HETATM   29  O   UNL     1     -21.769  16.807   3.956  1.00  0.00    -0.201 OA
BRANCH  27  30
HETATM   30  N   UNL     1     -21.579  19.209   3.603  1.00  0.00    -0.324 N 
ATOM     31  HN2 UNL     1     -21.279  19.744   4.418  1.00  0.00     0.169 HD
ATOM     32  HN1 UNL     1     -22.278  19.502   2.920  1.00  0.00     0.169 HD
ENDBRANCH  27  30
ENDBRANCH  25  27
ENDBRANCH  19  21
ENDBRANCH   2  19
TORSDOF 6
ENDMDL
MODEL 4
REMARK VINA RESULT:    -7.670      5.383      8.347
REMARK INTER + INTRA:         -11.120
REMARK INTER:                 -10.174
REMARK INTRA:                  -0.946
REMARK UNBOUND:                -0.984
REMARK  6 active torsions:
REMARK  status: ('A' for Active; 'I' for Inactive)
REMARK    1  A    between atoms: C_4  and  C_5 
REMARK       I    between atoms: C_5  and  N_19 
REMARK    2  A    between atoms: C_6  and  N_19 
REMARK    3  A    between atoms: C_6  and  C_22 
REMARK    4  A    between atoms: C_10  and  C_15 
REMARK    5  A    between atoms: C_25  and  S_27 
REMARK    6  A    between atoms: S_27  and  N_30 
ROOT
HETATM    1  C   UNL     1     -23.795  18.354   2.962  1.00  0.00     0.253 C 
HETATM    2  N   UNL     1     -22.675  19.003   3.320  1.00  0.00    -0.349 N 
ATOM      3  HN  UNL     1     -21.880  18.989   2.681  1.00  0.00     0.163 HD
HETATM    4  O   UNL     1     -24.878  18.577   3.493  1.00  0.00    -0.268 OA
ENDROOT
BRANCH   1   5
HETATM    5  C   UNL     1     -23.686  17.392   1.821  1.00  0.00     0.048 A 
HETATM    6  C   UNL     1     -22.441  17.078   1.295  1.00  0.00     0.036 A 
HETATM    7  C   UNL     1     -22.355  16.218   0.216  1.00  0.00     0.043 A 
HETATM    8  C   UNL     1     -23.542  15.694  -0.301  1.00  0.00     0.182 A 
HETATM    9  C   UNL     1     -21.291  15.674  -0.569  1.00  0.00     0.050 A 
HETATM   10  O   UNL     1     -23.167  14.868  -1.365  1.00  0.00    -0.219 OA
HETATM   11  N   UNL     1     -24.739  15.976   0.181  1.00  0.00    -0.343 N 
HETATM   12  N   UNL     1     -21.738  14.908  -1.495  1.00  0.00    -0.262 N 
ATOM     13  HN  UNL     1     -21.180  14.417  -2.194  1.00  0.00     0.194 HD
HETATM   14  C   UNL     1     -24.802  16.820   1.221  1.00  0.00     0.107 A 
ATOM     15  HN  UNL     1     -25.583  15.567  -0.220  1.00  0.00     0.167 HD
BRANCH   9  16
HETATM   16  C   UNL     1     -19.815  15.951  -0.415  1.00  0.00     0.030 C 
HETATM   17  C   UNL     1     -18.980  14.957  -1.199  1.00  0.00     0.016 C 
HETATM   18  C   UNL     1     -19.407  16.020   1.041  1.00  0.00     0.016 C 
ENDBRANCH   9  16
ENDBRANCH   1   5
BRANCH   2  19
HETATM   19  C   UNL     1     -22.544  19.730   4.583  1.00  0.00     0.114 C 
HETATM   20  C   UNL     1     -21.966  21.118   4.321  1.00  0.00     0.037 C 
BRANCH  19  21
HETATM   21  C   UNL     1     -21.694  18.939   5.555  1.00  0.00    -0.034 A 
HETATM   22  C   UNL     1     -21.518  19.360   6.863  1.00  0.00     0.009 A 
HETATM   23  C   UNL     1     -20.741  18.630   7.742  1.00  0.00     0.002 A 
HETATM   24  C   UNL     1     -20.096  17.480   7.316  1.00  0.00     0.025 A 
HETATM   25  C   UNL     1     -20.270  17.055   6.008  1.00  0.00     0.079 A 
HETATM   26  C   UNL     1     -21.053  17.781   5.130  1.00  0.00     0.034 A 
BRANCH  25  27
HETATM   27  S   UNL     1     -19.497  15.562   5.466  1.00  0.00     0.256 S 
HETATM   28  O   UNL     1     -20.285  15.051   4.379  1.00  0.00    -0.201 OA
HETATM   29  O   UNL     1     -19.319  14.736   6.621  1.00  0.00    -0.201 OA
BRANCH  27  30
HETATM   30  N   UNL     1     -18.040  15.881   4.893  1.00  0.00    -0.324 N 
ATOM     31  HN2 UNL     1     -17.272  15.210   4.870  1.00  0.00     0.169 HD
ATOM     32  HN1 UNL     1     -18.002  16.845   4.560  1.00  0.00     0.169 HD
ENDBRANCH  27  30
ENDBRANCH  25  27
ENDBRANCH  19  21
ENDBRANCH   2  19
TORSDOF 6
ENDMDL
MODEL 5
REMARK VINA RESULT:    -7.567      4.685      7.968
REMARK INTER + INTRA:         -10.984
REMARK INTER:                 -10.283
REMARK INTRA:                  -0.700
REMARK UNBOUND:                -0.984
REMARK  6 active torsions:
REMARK  status: ('A' for Active; 'I' for Inactive)
REMARK    1  A    between atoms: C_4  and  C_5 
REMARK       I    between atoms: C_5  and  N_19 
REMARK    2  A    between atoms: C_6  and  N_19 
REMARK    3  A    between atoms: C_6  and  C_22 
REMARK    4  A    between atoms: C_10  and  C_15 
REMARK    5  A    between atoms: C_25  and  S_27 
REMARK    6  A    between atoms: S_27  and  N_30 
ROOT
HETATM    1  C   UNL     1     -19.876  16.459   1.426  1.00  0.00     0.253 C 
HETATM    2  N   UNL     1     -20.963  16.774   0.703  1.00  0.00    -0.349 N 
ATOM      3  HN  UNL     1     -21.683  17.354   1.134  1.00  0.00     0.163 HD
HETATM    4  O   UNL     1     -18.841  16.055   0.907  1.00  0.00    -0.268 OA
ENDROOT
BRANCH   1   5
HETATM    5  C   UNL     1     -19.951  16.700   2.900  1.00  0.00     0.048 A 
HETATM    6  C   UNL     1     -20.140  17.986   3.386  1.00  0.00     0.036 A 
HETATM    7  C   UNL     1     -20.169  18.201   4.751  1.00  0.00     0.043 A 
HETATM    8  C   UNL     1     -20.007  17.098   5.592  1.00  0.00     0.182 A 
HETATM    9  C   UNL     1     -20.340  19.340   5.597  1.00  0.00     0.050 A 
HETATM   10  O   UNL     1     -20.081  17.596   6.897  1.00  0.00    -0.219 OA
HETATM   11  N   UNL     1     -19.827  15.864   5.157  1.00  0.00    -0.343 N 
HETATM   12  N   UNL     1     -20.277  19.017   6.837  1.00  0.00    -0.262 N 
ATOM     13  HN  UNL     1     -20.351  19.651   7.631  1.00  0.00     0.194 HD
HETATM   14  C   UNL     1     -19.791  15.678   3.830  1.00  0.00     0.107 A 
ATOM     15  HN  UNL     1     -19.719  15.083   5.804  1.00  0.00     0.167 HD
BRANCH   9  16
HETATM   16  C   UNL     1     -20.535  20.773   5.164  1.00  0.00     0.030 C 
HETATM   17  C   UNL     1     -20.507  21.720   6.349  1.00  0.00     0.016 C 
HETATM   18  C   UNL     1     -21.784  20.941   4.326  1.00  0.00     0.016 C 
ENDBRANCH   9  16
ENDBRANCH   1   5
BRANCH   2  19
HETATM   19  C   UNL     1     -21.162  16.324  -0.676  1.00  0.00     0.114 C 
HETATM   20  C   UNL     1     -22.364  17.041  -1.283  1.00  0.00     0.037 C 
BRANCH  19  21
HETATM   21  C   UNL     1     -21.322  14.819  -0.716  1.00  0.00    -0.034 A 
HETATM   22  C   UNL     1     -20.678  14.053  -1.674  1.00  0.00     0.009 A 
HETATM   23  C   UNL     1     -20.831  12.680  -1.701  1.00  0.00     0.002 A 
HETATM   24  C   UNL     1     -21.660  12.051  -0.787  1.00  0.00     0.025 A 
HETATM   25  C   UNL     1     -22.306  12.813   0.173  1.00  0.00     0.079 A 
HETATM   26  C   UNL     1     -22.148  14.187   0.205  1.00  0.00     0.034 A 
BRANCH  25  27
HETATM   27  S   UNL     1     -23.325  12.019   1.378  1.00  0.00     0.256 S 
HETATM   28  O   UNL     1     -24.040  10.973   0.701  1.00  0.00    -0.201 OA
HETATM   29  O   UNL     1     -24.079  13.042   2.034  1.00  0.00    -0.201 OA
BRANCH  27  30
HETATM   30  N   UNL     1     -22.411  11.329   2.492  1.00  0.00    -0.324 N 
ATOM     31  HN2 UNL     1     -21.512  11.696   2.806  1.00  0.00     0.169 HD
ATOM     32  HN1 UNL     1     -22.861  10.479   2.832  1.00  0.00     0.169 HD
ENDBRANCH  27  30
ENDBRANCH  25  27
ENDBRANCH  19  21
ENDBRANCH   2  19
TORSDOF 6
ENDMDL
MODEL 6
REMARK VINA RESULT:    -7.436      5.319      9.467
REMARK INTER + INTRA:         -10.810
REMARK INTER:                 -10.554
REMARK INTRA:                  -0.256
REMARK UNBOUND:                -0.984
REMARK  6 active torsions:
REMARK  status: ('A' for Active; 'I' for Inactive)
REMARK    1  A    between atoms: C_4  and  C_5 
REMARK       I    between atoms: C_5  and  N_19 
REMARK    2  A    between atoms: C_6  and  N_19 
REMARK    3  A    between atoms: C_6  and  C_22 
REMARK    4  A    between atoms: C_10  and  C_15 
REMARK    5  A    between atoms: C_25  and  S_27 
REMARK    6  A    between atoms: S_27  and  N_30 
ROOT
HETATM    1  C   UNL     1     -21.511  17.464   2.373  1.00  0.00     0.253 C 
HETATM    2  N   UNL     1     -21.554  17.889   1.099  1.00  0.00    -0.349 N 
ATOM      3  HN  UNL     1     -21.145  18.796   0.875  1.00  0.00     0.163 HD
HETATM    4  O   UNL     1     -21.677  16.288   2.675  1.00  0.00    -0.268 OA
ENDROOT
BRANCH   1   5
HETATM    5  C   UNL     1     -21.169  18.481   3.415  1.00  0.00     0.048 A 
HETATM    6  C   UNL     1     -22.073  19.487   3.727  1.00  0.00     0.036 A 
HETATM    7  C   UNL     1     -21.730  20.444   4.664  1.00  0.00     0.043 A 
HETATM    8  C   UNL     1     -20.473  20.353   5.265  1.00  0.00     0.182 A 
HETATM    9  C   UNL     1     -22.373  21.587   5.231  1.00  0.00     0.050 A 
HETATM   10  O   UNL     1     -20.394  21.426   6.158  1.00  0.00    -0.219 OA
HETATM   11  N   UNL     1     -19.594  19.406   4.987  1.00  0.00    -0.343 N 
HETATM   12  N   UNL     1     -21.615  22.177   6.081  1.00  0.00    -0.262 N 
ATOM     13  HN  UNL     1     -21.839  23.023   6.605  1.00  0.00     0.194 HD
HETATM   14  C   UNL     1     -19.942  18.494   4.068  1.00  0.00     0.107 A 
ATOM     15  HN  UNL     1     -18.688  19.370   5.453  1.00  0.00     0.167 HD
BRANCH   9  16
HETATM   16  C   UNL     1     -23.746  22.118   4.895  1.00  0.00     0.030 C 
HETATM   17  C   UNL     1     -23.875  23.587   5.250  1.00  0.00     0.016 C 
HETATM   18  C   UNL     1     -24.840  21.279   5.521  1.00  0.00     0.016 C 
ENDBRANCH   9  16
ENDBRANCH   1   5
BRANCH   2  19
HETATM   19  C   UNL     1     -22.161  17.110   0.019  1.00  0.00     0.114 C 
HETATM   20  C   UNL     1     -23.523  16.585   0.463  1.00  0.00     0.037 C 
BRANCH  19  21
HETATM   21  C   UNL     1     -21.233  15.989  -0.401  1.00  0.00    -0.034 A 
HETATM   22  C   UNL     1     -19.871  16.199  -0.543  1.00  0.00     0.009 A 
HETATM   23  C   UNL     1     -19.033  15.168  -0.925  1.00  0.00     0.002 A 
HETATM   24  C   UNL     1     -19.551  13.914  -1.205  1.00  0.00     0.025 A 
HETATM   25  C   UNL     1     -20.912  13.700  -1.064  1.00  0.00     0.079 A 
HETATM   26  C   UNL     1     -21.751  14.729  -0.675  1.00  0.00     0.034 A 
BRANCH  25  27
HETATM   27  S   UNL     1     -21.579  12.092  -1.367  1.00  0.00     0.256 S 
HETATM   28  O   UNL     1     -21.112  11.680  -2.661  1.00  0.00    -0.201 OA
HETATM   29  O   UNL     1     -22.990  12.172  -1.148  1.00  0.00    -0.201 OA
BRANCH  27  30
HETATM   30  N   UNL     1     -21.001  11.055  -0.297  1.00  0.00    -0.324 N 
ATOM     31  HN2 UNL     1     -20.045  10.699  -0.301  1.00  0.00     0.169 HD
ATOM     32  HN1 UNL     1     -21.727  10.811   0.376  1.00  0.00     0.169 HD
ENDBRANCH  27  30
ENDBRANCH  25  27
ENDBRANCH  19  21
ENDBRANCH   2  19
TORSDOF 6
ENDMDL
MODEL 7
REMARK VINA RESULT:    -7.386      4.580      6.683
REMARK INTER + INTRA:         -10.745
REMARK INTER:                  -9.860
REMARK INTRA:                  -0.885
REMARK UNBOUND:                -0.984
REMARK  6 active torsions:
REMARK  status: ('A' for Active; 'I' for Inactive)
REMARK    1  A    between atoms: C_4  and  C_5 
REMARK       I    between atoms: C_5  and  N_19 
REMARK    2  A    between atoms: C_6  and  N_19 
REMARK    3  A    between atoms: C_6  and  C_22 
REMARK    4  A    between atoms: C_10  and  C_15 
REMARK    5  A    between atoms: C_25  and  S_27 
REMARK    6  A    between atoms: S_27  and  N_30 
ROOT
HETATM    1  C   UNL     1     -20.091  16.434   1.309  1.00  0.00     0.253 C 
HETATM    2  N   UNL     1     -21.225  16.635   0.616  1.00  0.00    -0.349 N 
ATOM      3  HN  UNL     1     -21.953  17.215   1.033  1.00  0.00     0.163 HD
HETATM    4  O   UNL     1     -19.062  16.037   0.775  1.00  0.00    -0.268 OA
ENDROOT
BRANCH   1   5
HETATM    5  C   UNL     1     -20.112  16.795   2.760  1.00  0.00     0.048 A 
HETATM    6  C   UNL     1     -19.416  16.022   3.678  1.00  0.00     0.036 A 
HETATM    7  C   UNL     1     -19.474  16.343   5.022  1.00  0.00     0.043 A 
HETATM    8  C   UNL     1     -20.238  17.449   5.400  1.00  0.00     0.182 A 
HETATM    9  C   UNL     1     -18.909  15.807   6.220  1.00  0.00     0.050 A 
HETATM   10  O   UNL     1     -20.118  17.543   6.789  1.00  0.00    -0.219 OA
HETATM   11  N   UNL     1     -20.909  18.202   4.546  1.00  0.00    -0.343 N 
HETATM   12  N   UNL     1     -19.281  16.473   7.252  1.00  0.00    -0.262 N 
ATOM     13  HN  UNL     1     -19.028  16.277   8.220  1.00  0.00     0.194 HD
HETATM   14  C   UNL     1     -20.849  17.868   3.250  1.00  0.00     0.107 A 
ATOM     15  HN  UNL     1     -21.451  19.006   4.861  1.00  0.00     0.167 HD
BRANCH   9  16
HETATM   16  C   UNL     1     -18.017  14.595   6.342  1.00  0.00     0.030 C 
HETATM   17  C   UNL     1     -18.401  13.741   7.536  1.00  0.00     0.016 C 
HETATM   18  C   UNL     1     -16.553  14.976   6.357  1.00  0.00     0.016 C 
ENDBRANCH   9  16
ENDBRANCH   1   5
BRANCH   2  19
HETATM   19  C   UNL     1     -21.462  16.060  -0.709  1.00  0.00     0.114 C 
HETATM   20  C   UNL     1     -22.526  16.873  -1.440  1.00  0.00     0.037 C 
BRANCH  19  21
HETATM   21  C   UNL     1     -21.852  14.603  -0.584  1.00  0.00    -0.034 A 
HETATM   22  C   UNL     1     -21.645  13.712  -1.625  1.00  0.00     0.009 A 
HETATM   23  C   UNL     1     -22.004  12.384  -1.500  1.00  0.00     0.002 A 
HETATM   24  C   UNL     1     -22.608  11.929  -0.339  1.00  0.00     0.025 A 
HETATM   25  C   UNL     1     -22.817  12.816   0.704  1.00  0.00     0.079 A 
HETATM   26  C   UNL     1     -22.451  14.145   0.583  1.00  0.00     0.034 A 
BRANCH  25  27
HETATM   27  S   UNL     1     -23.538  12.239   2.210  1.00  0.00     0.256 S 
HETATM   28  O   UNL     1     -24.284  13.333   2.766  1.00  0.00    -0.201 OA
HETATM   29  O   UNL     1     -22.484  11.670   2.992  1.00  0.00    -0.201 OA
BRANCH  27  30
HETATM   30  N   UNL     1     -24.574  11.062   1.899  1.00  0.00    -0.324 N 
ATOM     31  HN2 UNL     1     -25.297  10.748   2.546  1.00  0.00     0.169 HD
ATOM     32  HN1 UNL     1     -24.398  10.683   0.969  1.00  0.00     0.169 HD
ENDBRANCH  27  30
ENDBRANCH  25  27
ENDBRANCH  19  21
ENDBRANCH   2  19
TORSDOF 6
ENDMDL
MODEL 8
REMARK VINA RESULT:    -7.368      1.948      2.443
REMARK INTER + INTRA:         -10.721
REMARK INTER:                  -9.772
REMARK INTRA:                  -0.949
REMARK UNBOUND:                -0.984
REMARK  6 active torsions:
REMARK  status: ('A' for Active; 'I' for Inactive)
REMARK    1  A    between atoms: C_4  and  C_5 
REMARK       I    between atoms: C_5  and  N_19 
REMARK    2  A    between atoms: C_6  and  N_19 
REMARK    3  A    between atoms: C_6  and  C_22 
REMARK    4  A    between atoms: C_10  and  C_15 
REMARK    5  A    between atoms: C_25  and  S_27 
REMARK    6  A    between atoms: S_27  and  N_30 
ROOT
HETATM    1  C   UNL     1     -22.139  11.456   0.072  1.00  0.00     0.253 C 
HETATM    2  N   UNL     1     -21.085  12.098  -0.457  1.00  0.00    -0.349 N 
ATOM      3  HN  UNL     1     -20.149  11.824  -0.158  1.00  0.00     0.163 HD
HETATM    4  O   UNL     1     -23.250  11.488  -0.446  1.00  0.00    -0.268 OA
ENDROOT
BRANCH   1   5
HETATM    5  C   UNL     1     -21.885  10.623   1.288  1.00  0.00     0.048 A 
HETATM    6  C   UNL     1     -20.706   9.900   1.400  1.00  0.00     0.036 A 
HETATM    7  C   UNL     1     -20.498   9.104   2.511  1.00  0.00     0.043 A 
HETATM    8  C   UNL     1     -21.498   9.065   3.486  1.00  0.00     0.182 A 
HETATM    9  C   UNL     1     -19.448   8.248   2.967  1.00  0.00     0.050 A 
HETATM   10  O   UNL     1     -21.032   8.200   4.481  1.00  0.00    -0.219 OA
HETATM   11  N   UNL     1     -22.629   9.743   3.404  1.00  0.00    -0.343 N 
HETATM   12  N   UNL     1     -19.742   7.705   4.091  1.00  0.00    -0.262 N 
ATOM     13  HN  UNL     1     -19.165   7.044   4.611  1.00  0.00     0.194 HD
HETATM   14  C   UNL     1     -22.815  10.501   2.314  1.00  0.00     0.107 A 
ATOM     15  HN  UNL     1     -23.332   9.693   4.141  1.00  0.00     0.167 HD
BRANCH   9  16
HETATM   16  C   UNL     1     -18.152   7.942   2.256  1.00  0.00     0.030 C 
HETATM   17  C   UNL     1     -17.394   9.210   1.914  1.00  0.00     0.016 C 
HETATM   18  C   UNL     1     -18.372   7.062   1.045  1.00  0.00     0.016 C 
ENDBRANCH   9  16
ENDBRANCH   1   5
BRANCH   2  19
HETATM   19  C   UNL     1     -21.218  13.174  -1.440  1.00  0.00     0.114 C 
HETATM   20  C   UNL     1     -19.979  13.213  -2.331  1.00  0.00     0.037 C 
BRANCH  19  21
HETATM   21  C   UNL     1     -21.451  14.496  -0.740  1.00  0.00    -0.034 A 
HETATM   22  C   UNL     1     -22.309  15.447  -1.269  1.00  0.00     0.009 A 
HETATM   23  C   UNL     1     -22.515  16.650  -0.621  1.00  0.00     0.002 A 
HETATM   24  C   UNL     1     -21.839  16.937   0.554  1.00  0.00     0.025 A 
HETATM   25  C   UNL     1     -20.981  15.988   1.085  1.00  0.00     0.079 A 
HETATM   26  C   UNL     1     -20.779  14.781   0.442  1.00  0.00     0.034 A 
BRANCH  25  27
HETATM   27  S   UNL     1     -20.153  16.319   2.611  1.00  0.00     0.256 S 
HETATM   28  O   UNL     1     -20.527  15.277   3.527  1.00  0.00    -0.201 OA
HETATM   29  O   UNL     1     -20.447  17.673   2.966  1.00  0.00    -0.201 OA
BRANCH  27  30
HETATM   30  N   UNL     1     -18.571  16.226   2.401  1.00  0.00    -0.324 N 
ATOM     31  HN2 UNL     1     -18.069  15.363   2.189  1.00  0.00     0.169 HD
ATOM     32  HN1 UNL     1     -18.152  17.149   2.513  1.00  0.00     0.169 HD
ENDBRANCH  27  30
ENDBRANCH  25  27
ENDBRANCH  19  21
ENDBRANCH   2  19
TORSDOF 6
ENDMDL
MODEL 9
REMARK VINA RESULT:    -7.316      3.095      4.754
REMARK INTER + INTRA:         -10.652
REMARK INTER:                  -9.623
REMARK INTRA:                  -1.030
REMARK UNBOUND:                -0.984
REMARK  6 active torsions:
REMARK  status: ('A' for Active; 'I' for Inactive)
REMARK    1  A    between atoms: C_4  and  C_5 
REMARK       I    between atoms: C_5  and  N_19 
REMARK    2  A    between atoms: C_6  and  N_19 
REMARK    3  A    between atoms: C_6  and  C_22 
REMARK    4  A    between atoms: C_10  and  C_15 
REMARK    5  A    between atoms: C_25  and  S_27 
REMARK    6  A    between atoms: S_27  and  N_30 
ROOT
HETATM    1  C   UNL     1     -21.789  13.230  -0.442  1.00  0.00     0.253 C 
HETATM    2  N   UNL     1     -20.561  13.774  -0.446  1.00  0.00    -0.349 N 
ATOM      3  HN  UNL     1     -19.819  13.304   0.074  1.00  0.00     0.163 HD
HETATM    4  O   UNL     1     -22.638  13.530  -1.274  1.00  0.00    -0.268 OA
ENDROOT
BRANCH   1   5
HETATM    5  C   UNL     1     -22.057  12.171   0.580  1.00  0.00     0.048 A 
HETATM    6  C   UNL     1     -22.942  12.419   1.620  1.00  0.00     0.036 A 
HETATM    7  C   UNL     1     -23.153  11.447   2.580  1.00  0.00     0.043 A 
HETATM    8  C   UNL     1     -22.459  10.241   2.457  1.00  0.00     0.182 A 
HETATM    9  C   UNL     1     -23.962  11.335   3.753  1.00  0.00     0.050 A 
HETATM   10  O   UNL     1     -22.859   9.454   3.541  1.00  0.00    -0.219 OA
HETATM   11  N   UNL     1     -21.612   9.980   1.477  1.00  0.00    -0.343 N 
HETATM   12  N   UNL     1     -23.795  10.203   4.331  1.00  0.00    -0.262 N 
ATOM     13  HN  UNL     1     -24.244   9.892   5.193  1.00  0.00     0.194 HD
HETATM   14  C   UNL     1     -21.413  10.939   0.562  1.00  0.00     0.107 A 
ATOM     15  HN  UNL     1     -21.129   9.083   1.418  1.00  0.00     0.167 HD
BRANCH   9  16
HETATM   16  C   UNL     1     -24.884  12.385   4.324  1.00  0.00     0.030 C 
HETATM   17  C   UNL     1     -24.106  13.522   4.959  1.00  0.00     0.016 C 
HETATM   18  C   UNL     1     -25.897  11.784   5.275  1.00  0.00     0.016 C 
ENDBRANCH   9  16
ENDBRANCH   1   5
BRANCH   2  19
HETATM   19  C   UNL     1     -20.238  15.009  -1.162  1.00  0.00     0.114 C 
HETATM   20  C   UNL     1     -18.723  15.173  -1.248  1.00  0.00     0.037 C 
BRANCH  19  21
HETATM   21  C   UNL     1     -20.896  16.192  -0.485  1.00  0.00    -0.034 A 
HETATM   22  C   UNL     1     -21.694  17.074  -1.196  1.00  0.00     0.009 A 
HETATM   23  C   UNL     1     -22.291  18.151  -0.568  1.00  0.00     0.002 A 
HETATM   24  C   UNL     1     -22.072  18.383   0.780  1.00  0.00     0.025 A 
HETATM   25  C   UNL     1     -21.275  17.504   1.495  1.00  0.00     0.079 A 
HETATM   26  C   UNL     1     -20.683  16.422   0.869  1.00  0.00     0.034 A 
BRANCH  25  27
HETATM   27  S   UNL     1     -21.030  17.758   3.226  1.00  0.00     0.256 S 
HETATM   28  O   UNL     1     -19.612  17.836   3.443  1.00  0.00    -0.201 OA
HETATM   29  O   UNL     1     -21.766  16.740   3.910  1.00  0.00    -0.201 OA
BRANCH  27  30
HETATM   30  N   UNL     1     -21.659  19.160   3.663  1.00  0.00    -0.324 N 
ATOM     31  HN2 UNL     1     -22.435  19.263   4.318  1.00  0.00     0.169 HD
ATOM     32  HN1 UNL     1     -21.169  19.921   3.192  1.00  0.00     0.169 HD
ENDBRANCH  27  30
ENDBRANCH  25  27
ENDBRANCH  19  21
ENDBRANCH   2  19
TORSDOF 6
ENDMDL
MODEL 10
REMARK VINA RESULT:    -7.314      4.760      8.685
REMARK INTER + INTRA:         -10.650
REMARK INTER:                  -9.731
REMARK INTRA:                  -0.919
REMARK UNBOUND:                -0.984
REMARK  6 active torsions:
REMARK  status: ('A' for Active; 'I' for Inactive)
REMARK    1  A    between atoms: C_4  and  C_5 
REMARK       I    between atoms: C_5  and  N_19 
REMARK    2  A    between atoms: C_6  and  N_19 
REMARK    3  A    between atoms: C_6  and  C_22 
REMARK    4  A    between atoms: C_10  and  C_15 
REMARK    5  A    between atoms: C_25  and  S_27 
REMARK    6  A    between atoms: S_27  and  N_30 
ROOT
HETATM    1  C   UNL     1     -23.179  17.752   1.612  1.00  0.00     0.253 C 
HETATM    2  N   UNL     1     -22.967  17.174   0.419  1.00  0.00    -0.349 N 
ATOM      3  HN  UNL     1     -23.714  16.611   0.012  1.00  0.00     0.163 HD
HETATM    4  O   UNL     1     -22.490  18.682   2.019  1.00  0.00    -0.268 OA
ENDROOT
BRANCH   1   5
HETATM    5  C   UNL     1     -24.353  17.267   2.401  1.00  0.00     0.048 A 
HETATM    6  C   UNL     1     -25.638  17.644   2.037  1.00  0.00     0.036 A 
HETATM    7  C   UNL     1     -26.713  17.220   2.797  1.00  0.00     0.043 A 
HETATM    8  C   UNL     1     -26.454  16.417   3.910  1.00  0.00     0.182 A 
HETATM    9  C   UNL     1     -28.130  17.392   2.737  1.00  0.00     0.050 A 
HETATM   10  O   UNL     1     -27.699  16.137   4.481  1.00  0.00    -0.219 OA
HETATM   11  N   UNL     1     -25.241  16.042   4.277  1.00  0.00    -0.343 N 
HETATM   12  N   UNL     1     -28.716  16.791   3.707  1.00  0.00    -0.262 N 
ATOM     13  HN  UNL     1     -29.719  16.780   3.894  1.00  0.00     0.194 HD
HETATM   14  C   UNL     1     -24.212  16.473   3.534  1.00  0.00     0.107 A 
ATOM     15  HN  UNL     1     -25.093  15.449   5.093  1.00  0.00     0.167 HD
BRANCH   9  16
HETATM   16  C   UNL     1     -28.907  18.196   1.722  1.00  0.00     0.030 C 
HETATM   17  C   UNL     1     -28.730  17.640   0.322  1.00  0.00     0.016 C 
HETATM   18  C   UNL     1     -28.572  19.670   1.800  1.00  0.00     0.016 C 
ENDBRANCH   9  16
ENDBRANCH   1   5
BRANCH   2  19
HETATM   19  C   UNL     1     -21.713  17.314  -0.324  1.00  0.00     0.114 C 
HETATM   20  C   UNL     1     -21.970  18.054  -1.634  1.00  0.00     0.037 C 
BRANCH  19  21
HETATM   21  C   UNL     1     -21.089  15.954  -0.557  1.00  0.00    -0.034 A 
HETATM   22  C   UNL     1     -19.882  15.823  -1.224  1.00  0.00     0.009 A 
HETATM   23  C   UNL     1     -19.321  14.577  -1.430  1.00  0.00     0.002 A 
HETATM   24  C   UNL     1     -19.977  13.434  -1.001  1.00  0.00     0.025 A 
HETATM   25  C   UNL     1     -21.185  13.562  -0.334  1.00  0.00     0.079 A 
HETATM   26  C   UNL     1     -21.744  14.809  -0.120  1.00  0.00     0.034 A 
BRANCH  25  27
HETATM   27  S   UNL     1     -22.007  12.118   0.267  1.00  0.00     0.256 S 
HETATM   28  O   UNL     1     -23.210  11.968  -0.503  1.00  0.00    -0.201 OA
HETATM   29  O   UNL     1     -22.122  12.257   1.686  1.00  0.00    -0.201 OA
BRANCH  27  30
HETATM   30  N   UNL     1     -21.103  10.828  -0.002  1.00  0.00    -0.324 N 
ATOM     31  HN2 UNL     1     -21.235  10.186  -0.784  1.00  0.00     0.169 HD
ATOM     32  HN1 UNL     1     -20.387  10.750   0.721  1.00  0.00     0.169 HD
ENDBRANCH  27  30
ENDBRANCH  25  27
ENDBRANCH  19  21
ENDBRANCH   2  19
TORSDOF 6
ENDMDL
MODEL 11
REMARK VINA RESULT:    -7.268      4.978      6.318
REMARK INTER + INTRA:         -10.588
REMARK INTER:                  -9.653
REMARK INTRA:                  -0.936
REMARK UNBOUND:                -0.984
REMARK  6 active torsions:
REMARK  status: ('A' for Active; 'I' for Inactive)
REMARK    1  A    between atoms: C_4  and  C_5 
REMARK       I    between atoms: C_5  and  N_19 
REMARK    2  A    between atoms: C_6  and  N_19 
REMARK    3  A    between atoms: C_6  and  C_22 
REMARK    4  A    between atoms: C_10  and  C_15 
REMARK    5  A    between atoms: C_25  and  S_27 
REMARK    6  A    between atoms: S_27  and  N_30 
ROOT
HETATM    1  C   UNL     1     -19.647  16.640   3.295  1.00  0.00     0.253 C 
HETATM    2  N   UNL     1     -20.834  16.640   2.667  1.00  0.00    -0.349 N 
ATOM      3  HN  UNL     1     -21.663  16.366   3.195  1.00  0.00     0.163 HD
HETATM    4  O   UNL     1     -18.676  17.245   2.856  1.00  0.00    -0.268 OA
ENDROOT
BRANCH   1   5
HETATM    5  C   UNL     1     -19.577  15.930   4.610  1.00  0.00     0.048 A 
HETATM    6  C   UNL     1     -18.346  15.571   5.141  1.00  0.00     0.036 A 
HETATM    7  C   UNL     1     -18.295  14.882   6.338  1.00  0.00     0.043 A 
HETATM    8  C   UNL     1     -19.502  14.576   6.970  1.00  0.00     0.182 A 
HETATM    9  C   UNL     1     -17.254  14.364   7.170  1.00  0.00     0.050 A 
HETATM   10  O   UNL     1     -19.161  13.892   8.141  1.00  0.00    -0.219 OA
HETATM   11  N   UNL     1     -20.687  14.906   6.488  1.00  0.00    -0.343 N 
HETATM   12  N   UNL     1     -17.731  13.776   8.205  1.00  0.00    -0.262 N 
ATOM     13  HN  UNL     1     -17.194  13.312   8.937  1.00  0.00     0.194 HD
HETATM   14  C   UNL     1     -20.715  15.565   5.320  1.00  0.00     0.107 A 
ATOM     15  HN  UNL     1     -21.546  14.670   6.983  1.00  0.00     0.167 HD
BRANCH   9  16
HETATM   16  C   UNL     1     -15.768  14.426   6.911  1.00  0.00     0.030 C 
HETATM   17  C   UNL     1     -15.093  13.107   7.233  1.00  0.00     0.016 C 
HETATM   18  C   UNL     1     -15.122  15.591   7.630  1.00  0.00     0.016 C 
ENDBRANCH   9  16
ENDBRANCH   1   5
BRANCH   2  19
HETATM   19  C   UNL     1     -20.993  17.015   1.261  1.00  0.00     0.114 C 
HETATM   20  C   UNL     1     -22.391  17.581   1.033  1.00  0.00     0.037 C 
BRANCH  19  21
HETATM   21  C   UNL     1     -20.714  15.824   0.368  1.00  0.00    -0.034 A 
HETATM   22  C   UNL     1     -19.790  15.900  -0.662  1.00  0.00     0.009 A 
HETATM   23  C   UNL     1     -19.543  14.807  -1.471  1.00  0.00     0.002 A 
HETATM   24  C   UNL     1     -20.241  13.626  -1.282  1.00  0.00     0.025 A 
HETATM   25  C   UNL     1     -21.165  13.546  -0.253  1.00  0.00     0.079 A 
HETATM   26  C   UNL     1     -21.409  14.637   0.561  1.00  0.00     0.034 A 
BRANCH  25  27
HETATM   27  S   UNL     1     -22.025  12.029   0.032  1.00  0.00     0.256 S 
HETATM   28  O   UNL     1     -22.975  11.876  -1.034  1.00  0.00    -0.201 OA
HETATM   29  O   UNL     1     -22.514  12.067   1.376  1.00  0.00    -0.201 OA
BRANCH  27  30
HETATM   30  N   UNL     1     -21.005  10.802  -0.056  1.00  0.00    -0.324 N 
ATOM     31  HN2 UNL     1     -21.162   9.891   0.376  1.00  0.00     0.169 HD
ATOM     32  HN1 UNL     1     -20.187  11.070  -0.604  1.00  0.00     0.169 HD
ENDBRANCH  27  30
ENDBRANCH  25  27
ENDBRANCH  19  21
ENDBRANCH   2  19
TORSDOF 6
ENDMDL
MODEL 12
REMARK VINA RESULT:    -7.248     11.518     13.873
REMARK INTER + INTRA:         -10.562
REMARK INTER:                  -9.615
REMARK INTRA:                  -0.947
REMARK UNBOUND:                -0.984
REMARK  6 active torsions:
REMARK  status: ('A' for Active; 'I' for Inactive)
REMARK    1  A    between atoms: C_4  and  C_5 
REMARK       I    between atoms: C_5  and  N_19 
REMARK    2  A    between atoms: C_6  and  N_19 
REMARK    3  A    between atoms: C_6  and  C_22 
REMARK    4  A    between atoms: C_10  and  C_15 
REMARK    5  A    between atoms: C_25  and  S_27 
REMARK    6  A    between atoms: S_27  and  N_30 
ROOT
HETATM    1  C   UNL     1     -13.021   3.950  -9.085  1.00  0.00     0.253 C 
HETATM    2  N   UNL     1     -11.911   4.267  -8.398  1.00  0.00    -0.349 N 
ATOM      3  HN  UNL     1     -11.995   4.456  -7.399  1.00  0.00     0.163 HD
HETATM    4  O   UNL     1     -12.977   3.406 -10.183  1.00  0.00    -0.268 OA
ENDROOT
BRANCH   1   5
HETATM    5  C   UNL     1     -14.332   4.216  -8.414  1.00  0.00     0.048 A 
HETATM    6  C   UNL     1     -14.576   3.714  -7.144  1.00  0.00     0.036 A 
HETATM    7  C   UNL     1     -15.805   3.933  -6.550  1.00  0.00     0.043 A 
HETATM    8  C   UNL     1     -16.757   4.664  -7.264  1.00  0.00     0.182 A 
HETATM    9  C   UNL     1     -16.405   3.591  -5.299  1.00  0.00     0.050 A 
HETATM   10  O   UNL     1     -17.884   4.737  -6.439  1.00  0.00    -0.219 OA
HETATM   11  N   UNL     1     -16.550   5.154  -8.473  1.00  0.00    -0.343 N 
HETATM   12  N   UNL     1     -17.608   4.029  -5.221  1.00  0.00    -0.262 N 
ATOM     13  HN  UNL     1     -18.249   3.899  -4.438  1.00  0.00     0.194 HD
HETATM   14  C   UNL     1     -15.356   4.920  -9.036  1.00  0.00     0.107 A 
ATOM     15  HN  UNL     1     -17.269   5.689  -8.959  1.00  0.00     0.167 HD
BRANCH   9  16
HETATM   16  C   UNL     1     -15.784   2.787  -4.183  1.00  0.00     0.030 C 
HETATM   17  C   UNL     1     -16.771   1.795  -3.597  1.00  0.00     0.016 C 
HETATM   18  C   UNL     1     -15.171   3.678  -3.124  1.00  0.00     0.016 C 
ENDBRANCH   9  16
ENDBRANCH   1   5
BRANCH   2  19
HETATM   19  C   UNL     1     -10.588   4.355  -9.018  1.00  0.00     0.114 C 
HETATM   20  C   UNL     1      -9.839   3.040  -8.823  1.00  0.00     0.037 C 
BRANCH  19  21
HETATM   21  C   UNL     1      -9.822   5.531  -8.449  1.00  0.00    -0.034 A 
HETATM   22  C   UNL     1      -8.861   6.192  -9.197  1.00  0.00     0.009 A 
HETATM   23  C   UNL     1      -8.169   7.264  -8.668  1.00  0.00     0.002 A 
HETATM   24  C   UNL     1      -8.402   7.674  -7.366  1.00  0.00     0.025 A 
HETATM   25  C   UNL     1      -9.362   7.015  -6.614  1.00  0.00     0.079 A 
HETATM   26  C   UNL     1     -10.062   5.947  -7.145  1.00  0.00     0.034 A 
BRANCH  25  27
HETATM   27  S   UNL     1      -9.709   7.561  -4.970  1.00  0.00     0.256 S 
HETATM   28  O   UNL     1      -8.527   8.220  -4.488  1.00  0.00    -0.201 OA
HETATM   29  O   UNL     1     -10.199   6.429  -4.245  1.00  0.00    -0.201 OA
BRANCH  27  30
HETATM   30  N   UNL     1     -10.884   8.643  -4.993  1.00  0.00    -0.324 N 
ATOM     31  HN2 UNL     1     -11.250   9.112  -4.164  1.00  0.00     0.169 HD
ATOM     32  HN1 UNL     1     -11.204   8.786  -5.951  1.00  0.00     0.169 HD
ENDBRANCH  27  30
ENDBRANCH  25  27
ENDBRANCH  19  21
ENDBRANCH   2  19
TORSDOF 6
ENDMDL
MODEL 13
REMARK VINA RESULT:    -7.230      6.710     10.102
REMARK INTER + INTRA:         -10.539
REMARK INTER:                 -10.336
REMARK INTRA:                  -0.202
REMARK UNBOUND:                -0.984
REMARK  6 active torsions:
REMARK  status: ('A' for Active; 'I' for Inactive)
REMARK    1  A    between atoms: C_4  and  C_5 
REMARK       I    between atoms: C_5  and  N_19 
REMARK    2  A    between atoms: C_6  and  N_19 
REMARK    3  A    between atoms: C_6  and  C_22 
REMARK    4  A    between atoms: C_10  and  C_15 
REMARK    5  A    between atoms: C_25  and  S_27 
REMARK    6  A    between atoms: S_27  and  N_30 
ROOT
HETATM    1  C   UNL     1     -20.048  18.639   4.171  1.00  0.00     0.253 C 
HETATM    2  N   UNL     1     -20.889  17.606   4.004  1.00  0.00    -0.349 N 
ATOM      3  HN  UNL     1     -21.888  17.767   4.133  1.00  0.00     0.163 HD
HETATM    4  O   UNL     1     -18.902  18.626   3.735  1.00  0.00    -0.268 OA
ENDROOT
BRANCH   1   5
HETATM    5  C   UNL     1     -20.594  19.854   4.851  1.00  0.00     0.048 A 
HETATM    6  C   UNL     1     -20.070  20.264   6.068  1.00  0.00     0.036 A 
HETATM    7  C   UNL     1     -20.609  21.367   6.706  1.00  0.00     0.043 A 
HETATM    8  C   UNL     1     -21.670  22.030   6.084  1.00  0.00     0.182 A 
HETATM    9  C   UNL     1     -20.345  22.068   7.922  1.00  0.00     0.050 A 
HETATM   10  O   UNL     1     -22.010  23.089   6.930  1.00  0.00    -0.219 OA
HETATM   11  N   UNL     1     -22.186  21.661   4.925  1.00  0.00    -0.343 N 
HETATM   12  N   UNL     1     -21.151  23.053   8.080  1.00  0.00    -0.262 N 
ATOM     13  HN  UNL     1     -21.176  23.692   8.875  1.00  0.00     0.194 HD
HETATM   14  C   UNL     1     -21.657  20.584   4.329  1.00  0.00     0.107 A 
ATOM     15  HN  UNL     1     -22.957  22.177   4.500  1.00  0.00     0.167 HD
BRANCH   9  16
HETATM   16  C   UNL     1     -19.299  21.729   8.957  1.00  0.00     0.030 C 
HETATM   17  C   UNL     1     -19.929  21.180  10.224  1.00  0.00     0.016 C 
HETATM   18  C   UNL     1     -18.385  22.903   9.235  1.00  0.00     0.016 C 
ENDBRANCH   9  16
ENDBRANCH   1   5
BRANCH   2  19
HETATM   19  C   UNL     1     -20.439  16.261   3.643  1.00  0.00     0.114 C 
HETATM   20  C   UNL     1     -19.124  15.951   4.352  1.00  0.00     0.037 C 
BRANCH  19  21
HETATM   21  C   UNL     1     -20.313  16.137   2.140  1.00  0.00    -0.034 A 
HETATM   22  C   UNL     1     -19.084  15.920   1.537  1.00  0.00     0.009 A 
HETATM   23  C   UNL     1     -18.980  15.808   0.164  1.00  0.00     0.002 A 
HETATM   24  C   UNL     1     -20.103  15.946  -0.636  1.00  0.00     0.025 A 
HETATM   25  C   UNL     1     -21.334  16.164  -0.037  1.00  0.00     0.079 A 
HETATM   26  C   UNL     1     -21.440  16.268   1.338  1.00  0.00     0.034 A 
BRANCH  25  27
HETATM   27  S   UNL     1     -22.782  16.288  -1.041  1.00  0.00     0.256 S 
HETATM   28  O   UNL     1     -22.993  14.999  -1.638  1.00  0.00    -0.201 OA
HETATM   29  O   UNL     1     -22.602  17.414  -1.904  1.00  0.00    -0.201 OA
BRANCH  27  30
HETATM   30  N   UNL     1     -24.053  16.604  -0.124  1.00  0.00    -0.324 N 
ATOM     31  HN2 UNL     1     -24.173  16.262   0.829  1.00  0.00     0.169 HD
ATOM     32  HN1 UNL     1     -24.712  17.191  -0.636  1.00  0.00     0.169 HD
ENDBRANCH  27  30
ENDBRANCH  25  27
ENDBRANCH  19  21
ENDBRANCH   2  19
TORSDOF 6
ENDMDL
MODEL 14
REMARK VINA RESULT:    -7.124      5.945      8.987
REMARK INTER + INTRA:         -10.399
REMARK INTER:                  -9.489
REMARK INTRA:                  -0.909
REMARK UNBOUND:                -0.984
REMARK  6 active torsions:
REMARK  status: ('A' for Active; 'I' for Inactive)
REMARK    1  A    between atoms: C_4  and  C_5 
REMARK       I    between atoms: C_5  and  N_19 
REMARK    2  A    between atoms: C_6  and  N_19 
REMARK    3  A    between atoms: C_6  and  C_22 
REMARK    4  A    between atoms: C_10  and  C_15 
REMARK    5  A    between atoms: C_25  and  S_27 
REMARK    6  A    between atoms: S_27  and  N_30 
ROOT
HETATM    1  C   UNL     1     -20.261  17.966   3.687  1.00  0.00     0.253 C 
HETATM    2  N   UNL     1     -20.925  18.142   4.841  1.00  0.00    -0.349 N 
ATOM      3  HN  UNL     1     -21.902  17.854   4.889  1.00  0.00     0.163 HD
HETATM    4  O   UNL     1     -19.036  17.978   3.630  1.00  0.00    -0.268 OA
ENDROOT
BRANCH   1   5
HETATM    5  C   UNL     1     -21.082  17.673   2.472  1.00  0.00     0.048 A 
HETATM    6  C   UNL     1     -20.690  16.672   1.594  1.00  0.00     0.036 A 
HETATM    7  C   UNL     1     -21.435  16.436   0.454  1.00  0.00     0.043 A 
HETATM    8  C   UNL     1     -22.568  17.223   0.236  1.00  0.00     0.182 A 
HETATM    9  C   UNL     1     -21.354  15.523  -0.643  1.00  0.00     0.050 A 
HETATM   10  O   UNL     1     -23.124  16.774  -0.966  1.00  0.00    -0.219 OA
HETATM   11  N   UNL     1     -22.964  18.181   1.056  1.00  0.00    -0.343 N 
HETATM   12  N   UNL     1     -22.306  15.712  -1.481  1.00  0.00    -0.262 N 
ATOM     13  HN  UNL     1     -22.455  15.202  -2.351  1.00  0.00     0.194 HD
HETATM   14  C   UNL     1     -22.221  18.402   2.149  1.00  0.00     0.107 A 
ATOM     15  HN  UNL     1     -23.802  18.730   0.864  1.00  0.00     0.167 HD
BRANCH   9  16
HETATM   16  C   UNL     1     -20.293  14.475  -0.877  1.00  0.00     0.030 C 
HETATM   17  C   UNL     1     -18.979  15.101  -1.304  1.00  0.00     0.016 C 
HETATM   18  C   UNL     1     -20.761  13.410  -1.844  1.00  0.00     0.016 C 
ENDBRANCH   9  16
ENDBRANCH   1   5
BRANCH   2  19
HETATM   19  C   UNL     1     -20.310  18.727   6.034  1.00  0.00     0.114 C 
HETATM   20  C   UNL     1     -20.581  17.836   7.243  1.00  0.00     0.037 C 
BRANCH  19  21
HETATM   21  C   UNL     1     -20.821  20.137   6.246  1.00  0.00    -0.034 A 
HETATM   22  C   UNL     1     -20.070  21.076   6.935  1.00  0.00     0.009 A 
HETATM   23  C   UNL     1     -20.545  22.360   7.122  1.00  0.00     0.002 A 
HETATM   24  C   UNL     1     -21.798  22.718   6.651  1.00  0.00     0.025 A 
HETATM   25  C   UNL     1     -22.551  21.782   5.962  1.00  0.00     0.079 A 
HETATM   26  C   UNL     1     -22.074  20.498   5.768  1.00  0.00     0.034 A 
BRANCH  25  27
HETATM   27  S   UNL     1     -24.128  22.240   5.310  1.00  0.00     0.256 S 
HETATM   28  O   UNL     1     -24.733  21.044   4.794  1.00  0.00    -0.201 OA
HETATM   29  O   UNL     1     -23.911  23.332   4.412  1.00  0.00    -0.201 OA
BRANCH  27  30
HETATM   30  N   UNL     1     -25.065  22.782   6.485  1.00  0.00    -0.324 N 
ATOM     31  HN2 UNL     1     -25.034  22.444   7.447  1.00  0.00     0.169 HD
ATOM     32  HN1 UNL     1     -25.688  23.506   6.125  1.00  0.00     0.169 HD
ENDBRANCH  27  30
ENDBRANCH  25  27
ENDBRANCH  19  21
ENDBRANCH   2  19
TORSDOF 6
ENDMDL
MODEL 15
REMARK VINA RESULT:    -7.097     11.892     14.282
REMARK INTER + INTRA:         -10.362
REMARK INTER:                  -9.414
REMARK INTRA:                  -0.948
REMARK UNBOUND:                -0.984
REMARK  6 active torsions:
REMARK  status: ('A' for Active; 'I' for Inactive)
REMARK    1  A    between atoms: C_4  and  C_5 
REMARK       I    between atoms: C_5  and  N_19 
REMARK    2  A    between atoms: C_6  and  N_19 
REMARK    3  A    between atoms: C_6  and  C_22 
REMARK    4  A    between atoms: C_10  and  C_15 
REMARK    5  A    between atoms: C_25  and  S_27 
REMARK    6  A    between atoms: S_27  and  N_30 
ROOT
HETATM    1  C   UNL     1     -12.685   3.177  -9.295  1.00  0.00     0.253 C 
HETATM    2  N   UNL     1     -11.545   3.677  -8.791  1.00  0.00    -0.349 N 
ATOM      3  HN  UNL     1     -11.353   3.544  -7.798  1.00  0.00     0.163 HD
HETATM    4  O   UNL     1     -12.848   3.005 -10.498  1.00  0.00    -0.268 OA
ENDROOT
BRANCH   1   5
HETATM    5  C   UNL     1     -13.733   2.758  -8.313  1.00  0.00     0.048 A 
HETATM    6  C   UNL     1     -14.523   3.713  -7.689  1.00  0.00     0.036 A 
HETATM    7  C   UNL     1     -15.461   3.317  -6.755  1.00  0.00     0.043 A 
HETATM    8  C   UNL     1     -15.577   1.952  -6.479  1.00  0.00     0.182 A 
HETATM    9  C   UNL     1     -16.426   3.983  -5.937  1.00  0.00     0.050 A 
HETATM   10  O   UNL     1     -16.586   1.838  -5.518  1.00  0.00    -0.219 OA
HETATM   11  N   UNL     1     -14.838   1.023  -7.059  1.00  0.00    -0.343 N 
HETATM   12  N   UNL     1     -17.073   3.152  -5.205  1.00  0.00    -0.262 N 
ATOM     13  HN  UNL     1     -17.798   3.382  -4.526  1.00  0.00     0.194 HD
HETATM   14  C   UNL     1     -13.927   1.429  -7.953  1.00  0.00     0.107 A 
ATOM     15  HN  UNL     1     -14.958   0.035  -6.835  1.00  0.00     0.167 HD
BRANCH   9  16
HETATM   16  C   UNL     1     -16.681   5.469  -5.859  1.00  0.00     0.030 C 
HETATM   17  C   UNL     1     -16.836   5.931  -4.423  1.00  0.00     0.016 C 
HETATM   18  C   UNL     1     -17.852   5.882  -6.724  1.00  0.00     0.016 C 
ENDBRANCH   9  16
ENDBRANCH   1   5
BRANCH   2  19
HETATM   19  C   UNL     1     -10.566   4.402  -9.601  1.00  0.00     0.114 C 
HETATM   20  C   UNL     1      -9.567   3.419 -10.205  1.00  0.00     0.037 C 
BRANCH  19  21
HETATM   21  C   UNL     1      -9.880   5.463  -8.766  1.00  0.00    -0.034 A 
HETATM   22  C   UNL     1      -8.826   6.206  -9.273  1.00  0.00     0.009 A 
HETATM   23  C   UNL     1      -8.208   7.172  -8.502  1.00  0.00     0.002 A 
HETATM   24  C   UNL     1      -8.612   7.388  -7.195  1.00  0.00     0.025 A 
HETATM   25  C   UNL     1      -9.665   6.647  -6.684  1.00  0.00     0.079 A 
HETATM   26  C   UNL     1     -10.290   5.685  -7.457  1.00  0.00     0.034 A 
BRANCH  25  27
HETATM   27  S   UNL     1     -10.227   6.949  -5.037  1.00  0.00     0.256 S 
HETATM   28  O   UNL     1      -9.075   6.883  -4.181  1.00  0.00    -0.201 OA
HETATM   29  O   UNL     1     -11.310   6.047  -4.788  1.00  0.00    -0.201 OA
BRANCH  27  30
HETATM   30  N   UNL     1     -10.819   8.429  -4.927  1.00  0.00    -0.324 N 
ATOM     31  HN2 UNL     1     -11.590   8.695  -4.314  1.00  0.00     0.169 HD
ATOM     32  HN1 UNL     1     -10.313   9.052  -5.557  1.00  0.00     0.169 HD
ENDBRANCH  27  30
ENDBRANCH  25  27
ENDBRANCH  19  21
ENDBRANCH   2  19
TORSDOF 6
ENDMDL
MODEL 16
REMARK VINA RESULT:    -7.081      3.584      8.115
REMARK INTER + INTRA:         -10.341
REMARK INTER:                  -9.435
REMARK INTRA:                  -0.906
REMARK UNBOUND:                -0.984
REMARK  6 active torsions:
REMARK  status: ('A' for Active; 'I' for Inactive)
REMARK    1  A    between atoms: C_4  and  C_5 
REMARK       I    between atoms: C_5  and  N_19 
REMARK    2  A    between atoms: C_6  and  N_19 
REMARK    3  A    between atoms: C_6  and  C_22 
REMARK    4  A    between atoms: C_10  and  C_15 
REMARK    5  A    between atoms: C_25  and  S_27 
REMARK    6  A    between atoms: S_27  and  N_30 
ROOT
HETATM    1  C   UNL     1     -22.064   9.568   2.339  1.00  0.00     0.253 C 
HETATM    2  N   UNL     1     -20.767   9.451   2.670  1.00  0.00    -0.349 N 
ATOM      3  HN  UNL     1     -20.181  10.285   2.643  1.00  0.00     0.163 HD
HETATM    4  O   UNL     1     -22.895   8.721   2.644  1.00  0.00    -0.268 OA
ENDROOT
BRANCH   1   5
HETATM    5  C   UNL     1     -22.474  10.828   1.645  1.00  0.00     0.048 A 
HETATM    6  C   UNL     1     -21.627  11.418   0.718  1.00  0.00     0.036 A 
HETATM    7  C   UNL     1     -21.999  12.603   0.111  1.00  0.00     0.043 A 
HETATM    8  C   UNL     1     -23.232  13.160   0.462  1.00  0.00     0.182 A 
HETATM    9  C   UNL     1     -21.418  13.475  -0.861  1.00  0.00     0.050 A 
HETATM   10  O   UNL     1     -23.353  14.331  -0.292  1.00  0.00    -0.219 OA
HETATM   11  N   UNL     1     -24.057  12.619   1.340  1.00  0.00    -0.343 N 
HETATM   12  N   UNL     1     -22.173  14.485  -1.095  1.00  0.00    -0.262 N 
ATOM     13  HN  UNL     1     -21.971  15.254  -1.733  1.00  0.00     0.194 HD
HETATM   14  C   UNL     1     -23.672  11.476   1.925  1.00  0.00     0.107 A 
ATOM     15  HN  UNL     1     -24.952  13.054   1.564  1.00  0.00     0.167 HD
BRANCH   9  16
HETATM   16  C   UNL     1     -20.077  13.317  -1.537  1.00  0.00     0.030 C 
HETATM   17  C   UNL     1     -19.295  14.616  -1.528  1.00  0.00     0.016 C 
HETATM   18  C   UNL     1     -20.217  12.741  -2.930  1.00  0.00     0.016 C 
ENDBRANCH   9  16
ENDBRANCH   1   5
BRANCH   2  19
HETATM   19  C   UNL     1     -20.158   8.180   3.067  1.00  0.00     0.114 C 
HETATM   20  C   UNL     1     -20.095   8.092   4.589  1.00  0.00     0.037 C 
BRANCH  19  21
HETATM   21  C   UNL     1     -18.788   8.039   2.436  1.00  0.00    -0.034 A 
HETATM   22  C   UNL     1     -17.774   8.943   2.711  1.00  0.00     0.009 A 
HETATM   23  C   UNL     1     -16.528   8.804   2.131  1.00  0.00     0.002 A 
HETATM   24  C   UNL     1     -16.284   7.774   1.237  1.00  0.00     0.025 A 
HETATM   25  C   UNL     1     -17.295   6.869   0.960  1.00  0.00     0.079 A 
HETATM   26  C   UNL     1     -18.541   7.002   1.545  1.00  0.00     0.034 A 
BRANCH  25  27
HETATM   27  S   UNL     1     -16.981   5.519  -0.137  1.00  0.00     0.256 S 
HETATM   28  O   UNL     1     -15.564   5.290  -0.127  1.00  0.00    -0.201 OA
HETATM   29  O   UNL     1     -17.609   5.834  -1.383  1.00  0.00    -0.201 OA
BRANCH  27  30
HETATM   30  N   UNL     1     -17.684   4.195   0.416  1.00  0.00    -0.324 N 
ATOM     31  HN2 UNL     1     -18.609   3.873   0.129  1.00  0.00     0.169 HD
ATOM     32  HN1 UNL     1     -17.072   3.733   1.089  1.00  0.00     0.169 HD
ENDBRANCH  27  30
ENDBRANCH  25  27
ENDBRANCH  19  21
ENDBRANCH   2  19
TORSDOF 6
ENDMDL
MODEL 17
REMARK VINA RESULT:    -7.027     10.634     13.260
REMARK INTER + INTRA:         -10.270
REMARK INTER:                  -9.364
REMARK INTRA:                  -0.906
REMARK UNBOUND:                -0.984
REMARK  6 active torsions:
REMARK  status: ('A' for Active; 'I' for Inactive)
REMARK    1  A    between atoms: C_4  and  C_5 
REMARK       I    between atoms: C_5  and  N_19 
REMARK    2  A    between atoms: C_6  and  N_19 
REMARK    3  A    between atoms: C_6  and  C_22 
REMARK    4  A    between atoms: C_10  and  C_15 
REMARK    5  A    between atoms: C_25  and  S_27 
REMARK    6  A    between atoms: S_27  and  N_30 
ROOT
HETATM    1  C   UNL     1      -9.083  13.688   8.764  1.00  0.00     0.253 C 
HETATM    2  N   UNL     1      -9.929  13.815   9.800  1.00  0.00    -0.349 N 
ATOM      3  HN  UNL     1     -10.449  12.994  10.107  1.00  0.00     0.163 HD
HETATM    4  O   UNL     1      -8.200  14.508   8.537  1.00  0.00    -0.268 OA
ENDROOT
BRANCH   1   5
HETATM    5  C   UNL     1      -9.210  12.450   7.935  1.00  0.00     0.048 A 
HETATM    6  C   UNL     1     -10.203  12.360   6.969  1.00  0.00     0.036 A 
HETATM    7  C   UNL     1     -10.335  11.196   6.235  1.00  0.00     0.043 A 
HETATM    8  C   UNL     1      -9.449  10.149   6.500  1.00  0.00     0.182 A 
HETATM    9  C   UNL     1     -11.201  10.745   5.190  1.00  0.00     0.050 A 
HETATM   10  O   UNL     1      -9.802   9.116   5.626  1.00  0.00    -0.219 OA
HETATM   11  N   UNL     1      -8.495  10.209   7.412  1.00  0.00    -0.343 N 
HETATM   12  N   UNL     1     -10.922   9.544   4.837  1.00  0.00    -0.262 N 
ATOM     13  HN  UNL     1     -11.406   8.996   4.126  1.00  0.00     0.194 HD
HETATM   14  C   UNL     1      -8.391  11.342   8.120  1.00  0.00     0.107 A 
ATOM     15  HN  UNL     1      -7.863   9.425   7.571  1.00  0.00     0.167 HD
BRANCH   9  16
HETATM   16  C   UNL     1     -12.342  11.509   4.563  1.00  0.00     0.030 C 
HETATM   17  C   UNL     1     -13.315  12.013   5.611  1.00  0.00     0.016 C 
HETATM   18  C   UNL     1     -13.030  10.701   3.484  1.00  0.00     0.016 C 
ENDBRANCH   9  16
ENDBRANCH   1   5
BRANCH   2  19
HETATM   19  C   UNL     1     -10.137  15.079  10.508  1.00  0.00     0.114 C 
HETATM   20  C   UNL     1     -10.379  14.806  11.990  1.00  0.00     0.037 C 
BRANCH  19  21
HETATM   21  C   UNL     1     -11.282  15.847   9.881  1.00  0.00    -0.034 A 
HETATM   22  C   UNL     1     -12.373  15.190   9.335  1.00  0.00     0.009 A 
HETATM   23  C   UNL     1     -13.413  15.900   8.766  1.00  0.00     0.002 A 
HETATM   24  C   UNL     1     -13.363  17.283   8.703  1.00  0.00     0.025 A 
HETATM   25  C   UNL     1     -12.274  17.943   9.249  1.00  0.00     0.079 A 
HETATM   26  C   UNL     1     -11.236  17.234   9.825  1.00  0.00     0.034 A 
BRANCH  25  27
HETATM   27  S   UNL     1     -12.222  19.709   9.224  1.00  0.00     0.256 S 
HETATM   28  O   UNL     1     -10.971  20.085   8.626  1.00  0.00    -0.201 OA
HETATM   29  O   UNL     1     -12.502  20.158  10.553  1.00  0.00    -0.201 OA
BRANCH  27  30
HETATM   30  N   UNL     1     -13.388  20.273   8.287  1.00  0.00    -0.324 N 
ATOM     31  HN2 UNL     1     -13.302  20.406   7.279  1.00  0.00     0.169 HD
ATOM     32  HN1 UNL     1     -14.215  20.476   8.849  1.00  0.00     0.169 HD
ENDBRANCH  27  30
ENDBRANCH  25  27
ENDBRANCH  19  21
ENDBRANCH   2  19
TORSDOF 6
ENDMDL
MODEL 18
REMARK VINA RESULT:    -6.950      4.341      6.756
REMARK INTER + INTRA:         -10.168
REMARK INTER:                  -9.031
REMARK INTRA:                  -1.137
REMARK UNBOUND:                -0.984
REMARK  6 active torsions:
REMARK  status: ('A' for Active; 'I' for Inactive)
REMARK    1  A    between atoms: C_4  and  C_5 
REMARK       I    between atoms: C_5  and  N_19 
REMARK    2  A    between atoms: C_6  and  N_19 
REMARK    3  A    between atoms: C_6  and  C_22 
REMARK    4  A    between atoms: C_10  and  C_15 
REMARK    5  A    between atoms: C_25  and  S_27 
REMARK    6  A    between atoms: S_27  and  N_30 
ROOT
HETATM    1  C   UNL     1     -23.973  13.721   2.814  1.00  0.00     0.253 C 
HETATM    2  N   UNL     1     -24.413  14.990   2.843  1.00  0.00    -0.349 N 
ATOM      3  HN  UNL     1     -24.466  15.506   1.965  1.00  0.00     0.163 HD
HETATM    4  O   UNL     1     -24.175  12.939   3.736  1.00  0.00    -0.268 OA
ENDROOT
BRANCH   1   5
HETATM    5  C   UNL     1     -23.289  13.270   1.563  1.00  0.00     0.048 A 
HETATM    6  C   UNL     1     -22.382  14.106   0.928  1.00  0.00     0.036 A 
HETATM    7  C   UNL     1     -21.784  13.694  -0.249  1.00  0.00     0.043 A 
HETATM    8  C   UNL     1     -22.123  12.435  -0.751  1.00  0.00     0.182 A 
HETATM    9  C   UNL     1     -20.832  14.253  -1.156  1.00  0.00     0.050 A 
HETATM   10  O   UNL     1     -21.383  12.277  -1.927  1.00  0.00    -0.219 OA
HETATM   11  N   UNL     1     -22.983  11.620  -0.166  1.00  0.00    -0.343 N 
HETATM   12  N   UNL     1     -20.599  13.461  -2.138  1.00  0.00    -0.262 N 
ATOM     13  HN  UNL     1     -19.973  13.640  -2.923  1.00  0.00     0.194 HD
HETATM   14  C   UNL     1     -23.559  12.043   0.968  1.00  0.00     0.107 A 
ATOM     15  HN  UNL     1     -23.199  10.705  -0.561  1.00  0.00     0.167 HD
BRANCH   9  16
HETATM   16  C   UNL     1     -20.174  15.608  -1.061  1.00  0.00     0.030 C 
HETATM   17  C   UNL     1     -19.155  15.653   0.062  1.00  0.00     0.016 C 
HETATM   18  C   UNL     1     -21.195  16.721  -0.954  1.00  0.00     0.016 C 
ENDBRANCH   9  16
ENDBRANCH   1   5
BRANCH   2  19
HETATM   19  C   UNL     1     -24.819  15.665   4.076  1.00  0.00     0.114 C 
HETATM   20  C   UNL     1     -26.330  15.881   4.073  1.00  0.00     0.037 C 
BRANCH  19  21
HETATM   21  C   UNL     1     -24.063  16.968   4.232  1.00  0.00    -0.034 A 
HETATM   22  C   UNL     1     -24.731  18.171   4.395  1.00  0.00     0.009 A 
HETATM   23  C   UNL     1     -24.031  19.354   4.537  1.00  0.00     0.002 A 
HETATM   24  C   UNL     1     -22.647  19.358   4.483  1.00  0.00     0.025 A 
HETATM   25  C   UNL     1     -21.976  18.157   4.320  1.00  0.00     0.079 A 
HETATM   26  C   UNL     1     -22.674  16.972   4.185  1.00  0.00     0.034 A 
BRANCH  25  27
HETATM   27  S   UNL     1     -20.209  18.141   4.303  1.00  0.00     0.256 S 
HETATM   28  O   UNL     1     -19.773  19.479   4.590  1.00  0.00    -0.201 OA
HETATM   29  O   UNL     1     -19.804  17.545   3.067  1.00  0.00    -0.201 OA
BRANCH  27  30
HETATM   30  N   UNL     1     -19.664  17.200   5.474  1.00  0.00    -0.324 N 
ATOM     31  HN2 UNL     1     -19.872  16.204   5.555  1.00  0.00     0.169 HD
ATOM     32  HN1 UNL     1     -19.085  17.744   6.114  1.00  0.00     0.169 HD
ENDBRANCH  27  30
ENDBRANCH  25  27
ENDBRANCH  19  21
ENDBRANCH   2  19
TORSDOF 6
ENDMDL
MODEL 19
REMARK VINA RESULT:    -6.884      4.696      8.371
REMARK INTER + INTRA:         -10.081
REMARK INTER:                  -9.039
REMARK INTRA:                  -1.042
REMARK UNBOUND:                -0.984
REMARK  6 active torsions:
REMARK  status: ('A' for Active; 'I' for Inactive)
REMARK    1  A    between atoms: C_4  and  C_5 
REMARK       I    between atoms: C_5  and  N_19 
REMARK    2  A    between atoms: C_6  and  N_19 
REMARK    3  A    between atoms: C_6  and  C_22 
REMARK    4  A    between atoms: C_10  and  C_15 
REMARK    5  A    between atoms: C_25  and  S_27 
REMARK    6  A    between atoms: S_27  and  N_30 
ROOT
HETATM    1  C   UNL     1     -20.251  16.451   1.092  1.00  0.00     0.253 C 
HETATM    2  N   UNL     1     -21.469  16.384   0.529  1.00  0.00    -0.349 N 
ATOM      3  HN  UNL     1     -22.205  16.992   0.889  1.00  0.00     0.163 HD
HETATM    4  O   UNL     1     -19.250  16.013   0.536  1.00  0.00    -0.268 OA
ENDROOT
BRANCH   1   5
HETATM    5  C   UNL     1     -20.150  17.162   2.404  1.00  0.00     0.048 A 
HETATM    6  C   UNL     1     -21.221  17.909   2.873  1.00  0.00     0.036 A 
HETATM    7  C   UNL     1     -21.102  18.594   4.069  1.00  0.00     0.043 A 
HETATM    8  C   UNL     1     -19.894  18.497   4.762  1.00  0.00     0.182 A 
HETATM    9  C   UNL     1     -21.956  19.433   4.849  1.00  0.00     0.050 A 
HETATM   10  O   UNL     1     -20.050  19.270   5.917  1.00  0.00    -0.219 OA
HETATM   11  N   UNL     1     -18.860  17.793   4.339  1.00  0.00    -0.343 N 
HETATM   12  N   UNL     1     -21.365  19.847   5.909  1.00  0.00    -0.262 N 
ATOM     13  HN  UNL     1     -21.756  20.470   6.615  1.00  0.00     0.194 HD
HETATM   14  C   UNL     1     -18.991  17.146   3.172  1.00  0.00     0.107 A 
ATOM     15  HN  UNL     1     -17.995  17.742   4.878  1.00  0.00     0.167 HD
BRANCH   9  16
HETATM   16  C   UNL     1     -23.367  19.855   4.516  1.00  0.00     0.030 C 
HETATM   17  C   UNL     1     -23.756  21.122   5.253  1.00  0.00     0.016 C 
HETATM   18  C   UNL     1     -24.357  18.733   4.744  1.00  0.00     0.016 C 
ENDBRANCH   9  16
ENDBRANCH   1   5
BRANCH   2  19
HETATM   19  C   UNL     1     -21.788  15.479  -0.576  1.00  0.00     0.114 C 
HETATM   20  C   UNL     1     -22.800  16.139  -1.507  1.00  0.00     0.037 C 
BRANCH  19  21
HETATM   21  C   UNL     1     -22.294  14.156  -0.039  1.00  0.00    -0.034 A 
HETATM   22  C   UNL     1     -22.403  13.043  -0.857  1.00  0.00     0.009 A 
HETATM   23  C   UNL     1     -22.866  11.842  -0.356  1.00  0.00     0.002 A 
HETATM   24  C   UNL     1     -23.259  11.741   0.969  1.00  0.00     0.025 A 
HETATM   25  C   UNL     1     -23.150  12.851   1.790  1.00  0.00     0.079 A 
HETATM   26  C   UNL     1     -22.681  14.053   1.291  1.00  0.00     0.034 A 
BRANCH  25  27
HETATM   27  S   UNL     1     -23.597  12.723   3.494  1.00  0.00     0.256 S 
HETATM   28  O   UNL     1     -22.613  13.452   4.244  1.00  0.00    -0.201 OA
HETATM   29  O   UNL     1     -23.775  11.333   3.780  1.00  0.00    -0.201 OA
BRANCH  27  30
HETATM   30  N   UNL     1     -25.008  13.432   3.740  1.00  0.00    -0.324 N 
ATOM     31  HN2 UNL     1     -25.403  13.621   4.662  1.00  0.00     0.169 HD
ATOM     32  HN1 UNL     1     -25.441  13.662   2.846  1.00  0.00     0.169 HD
ENDBRANCH  27  30
ENDBRANCH  25  27
ENDBRANCH  19  21
ENDBRANCH   2  19
TORSDOF 6
ENDMDL
