REMARK  7 active torsions:
REMARK  status: ('A' for Active; 'I' for Inactive)
REMARK    1  A    between atoms: P_2  and  O_5 
REMARK    2  A    between atoms: O_5  and  C_6 
REMARK    3  A    between atoms: C_6  and  C_7 
REMARK    4  A    between atoms: C_7  and  C_8 
REMARK    5  A    between atoms: C_8  and  O_9 
REMARK    6  A    between atoms: C_8  and  C_12 
REMARK    7  A    between atoms: C_12  and  C_13 
ROOT
HETATM    1  C   UNL     1       2.919 -21.461 -18.510  1.00  0.00     0.065 C 
HETATM    2  C   UNL     1       3.765 -22.173 -17.471  1.00  0.00     0.046 C 
ENDROOT
BRANCH   1   3
HETATM    3  C   UNL     1       1.635 -21.034 -17.794  1.00  0.00     0.065 C 
BRANCH   3   4
HETATM    4  C   UNL     1       0.635 -20.367 -18.733  1.00  0.00     0.185 C 
BRANCH   4   5
HETATM    5  O   UNL     1      -0.447 -19.812 -17.981  1.00  0.00    -0.283 OA
BRANCH   5   6
HETATM    6  P   UNL     1      -1.559 -18.891 -18.681  1.00  0.00     0.422 P 
HETATM    7  O   UNL     1      -2.438 -19.796 -19.511  1.00  0.00    -0.617 OA
HETATM    8  O   UNL     1      -2.382 -18.207 -17.604  1.00  0.00    -0.617 OA
HETATM    9  O   UNL     1      -0.869 -17.835 -19.662  1.00  0.00    -0.617 OA
ENDBRANCH   5   6
ENDBRANCH   4   5
ENDBRANCH   3   4
ENDBRANCH   1   3
BRANCH   1  10
HETATM   10  O   UNL     1       2.606 -22.413 -19.543  1.00  0.00    -0.390 OA
ATOM     11  HO  UNL     1       3.403 -22.678 -19.987  1.00  0.00     0.210 HD
ENDBRANCH   1  10
BRANCH   1  12
HETATM   12  C   UNL     1       3.595 -20.238 -19.151  1.00  0.00     0.150 C 
BRANCH  12  13
HETATM   13  C   UNL     1       4.975 -20.435 -19.767  1.00  0.00     0.175 C 
HETATM   14  O   UNL     1       5.514 -21.565 -19.818  1.00  0.00    -0.648 OA
HETATM   15  O   UNL     1       5.614 -19.405 -20.108  1.00  0.00    -0.648 OA
ENDBRANCH  12  13
ENDBRANCH   1  12
TORSDOF 7
