MODEL 1
REMARK VINA RESULT:   -11.519      0.000      0.000
REMARK INTER + INTRA:         -19.221
REMARK INTER:                 -16.906
REMARK INTRA:                  -2.315
REMARK UNBOUND:                -2.315
REMARK  8 active torsions:
REMARK  status: ('A' for Active; 'I' for Inactive)
REMARK    1  A    between atoms: C_1  and  C_19 
REMARK    2  A    between atoms: C_1  and  N_37 
REMARK    3  A    between atoms: C_4  and  C_23 
REMARK    4  A    between atoms: C_5  and  N_40 
REMARK    5  A    between atoms: C_12  and  C_26 
REMARK    6  A    between atoms: C_12  and  N_34 
REMARK    7  A    between atoms: C_12  and  C_28 
REMARK    8  A    between atoms: C_17  and  C_24 
ROOT
HETATM    1  C   UNL     1       5.383 -33.402  28.519  1.00  0.00     0.132 C 
HETATM    2  C   UNL     1       5.769 -31.047  27.830  1.00  0.00     0.255 C 
HETATM    3  C   UNL     1       5.216 -31.406  26.520  1.00  0.00     0.040 A 
HETATM    4  C   UNL     1       4.414 -32.541  26.383  1.00  0.00    -0.030 A 
HETATM    5  C   UNL     1       4.122 -33.367  27.631  1.00  0.00     0.060 C 
HETATM    6  C   UNL     1       3.913 -32.912  25.127  1.00  0.00    -0.014 A 
HETATM    7  C   UNL     1       4.235 -32.078  24.035  1.00  0.00     0.021 A 
HETATM    8  C   UNL     1       5.039 -30.941  24.174  1.00  0.00    -0.038 A 
HETATM    9  C   UNL     1       5.529 -30.609  25.430  1.00  0.00     0.026 A 
HETATM   10  N   UNL     1       5.827 -32.019  28.791  1.00  0.00    -0.337 N 
HETATM   11  O   UNL     1       6.175 -29.914  28.093  1.00  0.00    -0.267 OA
ENDROOT
BRANCH   6  12
HETATM   12  C   UNL     1       3.028 -34.067  24.925  1.00  0.00     0.025 A 
HETATM   13  C   UNL     1       3.332 -35.377  24.668  1.00  0.00     0.124 A 
HETATM   14  N   UNL     1       2.153 -36.047  24.560  1.00  0.00    -0.302 N 
HETATM   15  N   UNL     1       1.111 -35.223  24.724  1.00  0.00    -0.294 N 
HETATM   16  C   UNL     1       1.623 -34.036  24.952  1.00  0.00     0.144 A 
ATOM     17  HN  UNL     1       0.122 -35.468  24.680  1.00  0.00     0.187 HD
BRANCH  14  18
HETATM   18  C   UNL     1       1.879 -37.462  24.276  1.00  0.00     0.143 C 
HETATM   19  C   UNL     1       2.933 -38.371  24.913  1.00  0.00     0.028 C 
ENDBRANCH  14  18
BRANCH  16  20
HETATM   20  C   UNL     1       0.765 -32.788  25.194  1.00  0.00     0.434 C 
HETATM   21  F   UNL     1       1.077 -32.250  26.381  1.00  0.00    -0.165 F 
HETATM   22  F   UNL     1       0.991 -31.798  24.283  1.00  0.00    -0.165 F 
HETATM   23  F   UNL     1      -0.515 -33.170  25.162  1.00  0.00    -0.165 F 
ENDBRANCH  16  20
ENDBRANCH   6  12
BRANCH   8  24
HETATM   24  C   UNL     1       5.411 -30.069  22.979  1.00  0.00     0.163 C 
BRANCH  24  25
HETATM   25  N   UNL     1       6.731 -30.632  22.540  1.00  0.00    -0.362 N 
HETATM   26  C   UNL     1       6.951 -31.996  21.953  1.00  0.00     0.168 C 
HETATM   27  C   UNL     1       8.240 -31.970  21.571  1.00  0.00     0.082 C 
HETATM   28  N   UNL     1       8.814 -30.677  21.720  1.00  0.00    -0.358 N 
HETATM   29  C   UNL     1       7.953 -29.865  22.172  1.00  0.00     0.075 C 
ATOM     30  HN  UNL     1       9.780 -30.438  21.496  1.00  0.00     0.166 HD
HETATM   31  C   UNL     1       8.177 -28.420  22.523  1.00  0.00     0.089 C 
ENDBRANCH  24  25
ENDBRANCH   8  24
BRANCH  10  32
HETATM   32  C   UNL     1       6.414 -31.638  30.110  1.00  0.00     0.141 C 
BRANCH  32  33
HETATM   33  C   UNL     1       5.481 -32.156  31.230  1.00  0.00     0.014 A 
HETATM   34  C   UNL     1       4.077 -31.614  31.207  1.00  0.00     0.007 A 
HETATM   35  C   UNL     1       5.071 -31.111  32.234  1.00  0.00     0.007 A 
ENDBRANCH  32  33
BRANCH  32  36
HETATM   36  C   UNL     1       7.844 -32.204  30.207  1.00  0.00     0.033 A 
HETATM   37  C   UNL     1       8.671 -32.344  29.092  1.00  0.00     0.034 A 
HETATM   38  C   UNL     1       9.956 -32.853  29.214  1.00  0.00    -0.059 A 
HETATM   39  C   UNL     1      10.381 -33.223  30.486  1.00  0.00     0.024 A 
HETATM   40  C   UNL     1      10.851 -32.991  28.001  1.00  0.00     0.048 C 
HETATM   41  C   UNL     1       9.515 -33.073  31.573  1.00  0.00     0.088 A 
HETATM   42  N   UNL     1       8.275 -32.575  31.418  1.00  0.00    -0.367 N 
ATOM     43  HN  UNL     1       7.662 -32.479  32.228  1.00  0.00     0.165 HD
ENDBRANCH  32  36
ENDBRANCH  10  32
TORSDOF 8
ENDMDL
MODEL 2
REMARK VINA RESULT:    -8.818      1.836      2.504
REMARK INTER + INTRA:         -15.257
REMARK INTER:                 -12.844
REMARK INTRA:                  -2.413
REMARK UNBOUND:                -2.315
REMARK  8 active torsions:
REMARK  status: ('A' for Active; 'I' for Inactive)
REMARK    1  A    between atoms: C_1  and  C_19 
REMARK    2  A    between atoms: C_1  and  N_37 
REMARK    3  A    between atoms: C_4  and  C_23 
REMARK    4  A    between atoms: C_5  and  N_40 
REMARK    5  A    between atoms: C_12  and  C_26 
REMARK    6  A    between atoms: C_12  and  N_34 
REMARK    7  A    between atoms: C_12  and  C_28 
REMARK    8  A    between atoms: C_17  and  C_24 
ROOT
HETATM    1  C   UNL     1       5.305 -33.062  29.188  1.00  0.00     0.132 C 
HETATM    2  C   UNL     1       5.979 -30.870  28.235  1.00  0.00     0.255 C 
HETATM    3  C   UNL     1       5.151 -31.194  27.068  1.00  0.00     0.040 A 
HETATM    4  C   UNL     1       4.148 -32.161  27.166  1.00  0.00    -0.030 A 
HETATM    5  C   UNL     1       3.935 -32.840  28.514  1.00  0.00     0.060 C 
HETATM    6  C   UNL     1       3.377 -32.502  26.045  1.00  0.00    -0.014 A 
HETATM    7  C   UNL     1       3.647 -31.812  24.844  1.00  0.00     0.021 A 
HETATM    8  C   UNL     1       4.653 -30.844  24.749  1.00  0.00    -0.038 A 
HETATM    9  C   UNL     1       5.406 -30.538  25.874  1.00  0.00     0.026 A 
HETATM   10  N   UNL     1       6.030 -31.777  29.259  1.00  0.00    -0.337 N 
HETATM   11  O   UNL     1       6.620 -29.822  28.325  1.00  0.00    -0.267 OA
ENDROOT
BRANCH   6  12
HETATM   12  C   UNL     1       2.279 -33.477  26.094  1.00  0.00     0.025 A 
HETATM   13  C   UNL     1       0.937 -33.286  26.290  1.00  0.00     0.124 A 
HETATM   14  N   UNL     1       0.349 -34.512  26.253  1.00  0.00    -0.302 N 
HETATM   15  N   UNL     1       1.254 -35.477  26.056  1.00  0.00    -0.294 N 
HETATM   16  C   UNL     1       2.413 -34.868  25.951  1.00  0.00     0.144 A 
ATOM     17  HN  UNL     1       1.080 -36.480  25.999  1.00  0.00     0.187 HD
BRANCH  14  18
HETATM   18  C   UNL     1      -1.057 -34.904  26.420  1.00  0.00     0.143 C 
HETATM   19  C   UNL     1      -1.542 -34.643  27.848  1.00  0.00     0.028 C 
ENDBRANCH  14  18
BRANCH  16  20
HETATM   20  C   UNL     1       3.732 -35.616  25.719  1.00  0.00     0.434 C 
HETATM   21  F   UNL     1       4.502 -34.919  24.871  1.00  0.00    -0.165 F 
HETATM   22  F   UNL     1       4.479 -35.748  26.852  1.00  0.00    -0.165 F 
HETATM   23  F   UNL     1       3.430 -36.816  25.216  1.00  0.00    -0.165 F 
ENDBRANCH  16  20
ENDBRANCH   6  12
BRANCH   8  24
HETATM   24  C   UNL     1       4.961 -30.132  23.435  1.00  0.00     0.163 C 
BRANCH  24  25
HETATM   25  N   UNL     1       6.165 -30.864  22.921  1.00  0.00    -0.362 N 
HETATM   26  C   UNL     1       6.180 -32.273  22.406  1.00  0.00     0.168 C 
HETATM   27  C   UNL     1       7.424 -32.415  21.913  1.00  0.00     0.082 C 
HETATM   28  N   UNL     1       8.146 -31.190  21.928  1.00  0.00    -0.358 N 
HETATM   29  C   UNL     1       7.424 -30.262  22.400  1.00  0.00     0.075 C 
ATOM     30  HN  UNL     1       9.107 -31.075  21.606  1.00  0.00     0.166 HD
HETATM   31  C   UNL     1       7.835 -28.835  22.637  1.00  0.00     0.089 C 
ENDBRANCH  24  25
ENDBRANCH   8  24
BRANCH  10  32
HETATM   32  C   UNL     1       6.896 -31.437  30.426  1.00  0.00     0.141 C 
BRANCH  32  33
HETATM   33  C   UNL     1       6.156 -31.848  31.721  1.00  0.00     0.014 A 
HETATM   34  C   UNL     1       4.943 -31.026  32.064  1.00  0.00     0.007 A 
HETATM   35  C   UNL     1       6.235 -30.835  32.833  1.00  0.00     0.007 A 
ENDBRANCH  32  33
BRANCH  32  36
HETATM   36  C   UNL     1       8.258 -32.138  30.262  1.00  0.00     0.033 A 
HETATM   37  C   UNL     1       8.955 -32.683  31.341  1.00  0.00     0.034 A 
HETATM   38  C   UNL     1      10.178 -33.312  31.158  1.00  0.00    -0.059 A 
HETATM   39  C   UNL     1      10.682 -33.371  29.862  1.00  0.00     0.024 A 
HETATM   40  C   UNL     1      10.923 -33.910  32.332  1.00  0.00     0.048 C 
HETATM   41  C   UNL     1       9.952 -32.804  28.813  1.00  0.00     0.088 A 
HETATM   42  N   UNL     1       8.769 -32.202  29.026  1.00  0.00    -0.367 N 
ATOM     43  HN  UNL     1       8.258 -31.792  28.243  1.00  0.00     0.165 HD
ENDBRANCH  32  36
ENDBRANCH  10  32
TORSDOF 8
ENDMDL
