MODEL 1
REMARK VINA RESULT:   -10.227      0.000      0.000
REMARK INTER + INTRA:         -18.325
REMARK INTER:                 -17.102
REMARK INTRA:                  -1.222
REMARK UNBOUND:                -1.222
REMARK  14 active torsions:
REMARK  status: ('A' for Active; 'I' for Inactive)
REMARK    1  A    between atoms: N_15  and  C_16 
REMARK    2  A    between atoms: C_17  and  O_18 
REMARK    3  A    between atoms: C_20  and  O_21 
REMARK    4  A    between atoms: C_24  and  C_25 
REMARK    5  A    between atoms: C_25  and  O_26 
REMARK    6  A    between atoms: O_26  and  P_27 
REMARK    7  A    between atoms: P_27  and  O_30 
REMARK    8  A    between atoms: O_30  and  P_31 
REMARK    9  A    between atoms: P_31  and  O_34 
REMARK   10  A    between atoms: O_34  and  C_35 
REMARK   11  A    between atoms: C_35  and  C_46 
REMARK   12  A    between atoms: O_37  and  C_39 
REMARK   13  A    between atoms: O_40  and  C_42 
REMARK   14  A    between atoms: O_43  and  C_45 
ROOT
HETATM    1  C   UNL     1       9.357  15.611 -49.327  1.00  0.00     0.262 C 
HETATM    2  C   UNL     1       9.686  15.296 -50.776  1.00  0.00     0.198 C 
HETATM    3  C   UNL     1      10.897  16.204 -51.000  1.00  0.00     0.182 C 
HETATM    4  O   UNL     1       9.558  16.996 -49.203  1.00  0.00    -0.353 OA
HETATM    5  C   UNL     1      10.569  17.438 -50.149  1.00  0.00     0.180 C 
ENDROOT
BRANCH   5   6
HETATM    6  C   UNL     1      10.050  18.630 -50.907  1.00  0.00     0.216 C 
BRANCH   6   7
HETATM    7  O   UNL     1      11.017  18.978 -51.945  1.00  0.00    -0.287 OA
BRANCH   7   8
HETATM    8  P   UNL     1      11.161  20.492 -52.394  1.00  0.00     0.417 P 
HETATM    9  O   UNL     1      10.170  21.314 -51.643  1.00  0.00    -0.624 OA
HETATM   10  O   UNL     1      11.182  20.613 -53.888  1.00  0.00    -0.624 OA
BRANCH   8  11
HETATM   11  O   UNL     1      12.668  20.743 -51.901  1.00  0.00    -0.180 OA
BRANCH  11  12
HETATM   12  P   UNL     1      13.413  20.573 -50.500  1.00  0.00     0.417 P 
HETATM   13  O   UNL     1      12.641  21.270 -49.414  1.00  0.00    -0.624 OA
HETATM   14  O   UNL     1      13.729  19.117 -50.339  1.00  0.00    -0.624 OA
BRANCH  12  15
HETATM   15  O   UNL     1      14.761  21.371 -50.683  1.00  0.00    -0.287 OA
BRANCH  15  16
HETATM   16  C   UNL     1      15.783  20.887 -51.575  1.00  0.00     0.216 C 
BRANCH  16  17
HETATM   17  C   UNL     1      17.110  20.969 -50.870  1.00  0.00     0.180 C 
HETATM   18  O   UNL     1      17.989  21.833 -51.622  1.00  0.00    -0.349 OA
HETATM   19  C   UNL     1      18.446  22.908 -50.831  1.00  0.00     0.288 C 
HETATM   20  C   UNL     1      17.433  23.000 -49.691  1.00  0.00     0.204 C 
HETATM   21  C   UNL     1      17.040  21.544 -49.451  1.00  0.00     0.182 C 
BRANCH  19  22
HETATM   22  O   UNL     1      18.509  24.092 -51.584  1.00  0.00    -0.369 OA
ATOM     23  HO  UNL     1      17.644  24.351 -51.881  1.00  0.00     0.212 HD
ENDBRANCH  19  22
BRANCH  20  24
HETATM   24  O   UNL     1      17.948  23.605 -48.524  1.00  0.00    -0.388 OA
ATOM     25  HO  UNL     1      17.911  24.554 -48.538  1.00  0.00     0.210 HD
ENDBRANCH  20  24
BRANCH  21  26
HETATM   26  O   UNL     1      17.913  20.848 -48.571  1.00  0.00    -0.390 OA
ATOM     27  HO  UNL     1      17.476  20.453 -47.826  1.00  0.00     0.210 HD
ENDBRANCH  21  26
ENDBRANCH  16  17
ENDBRANCH  15  16
ENDBRANCH  12  15
ENDBRANCH  11  12
ENDBRANCH   8  11
ENDBRANCH   7   8
ENDBRANCH   6   7
ENDBRANCH   5   6
BRANCH   3  28
HETATM   28  O   UNL     1      12.096  15.609 -50.523  1.00  0.00    -0.390 OA
ATOM     29  HO  UNL     1      12.161  14.697 -50.778  1.00  0.00     0.210 HD
ENDBRANCH   3  28
BRANCH   2  30
HETATM   30  O   UNL     1       9.924  13.909 -50.875  1.00  0.00    -0.388 OA
ATOM     31  HO  UNL     1       9.216  13.458 -50.432  1.00  0.00     0.210 HD
ENDBRANCH   2  30
BRANCH   1  32
HETATM   32  N   UNL     1       7.990  15.326 -48.949  1.00  0.00    -0.297 N 
HETATM   33  C   UNL     1       7.519  15.188 -47.675  1.00  0.00     0.142 A 
HETATM   34  N   UNL     1       8.219  15.270 -46.533  1.00  0.00    -0.336 N 
HETATM   35  C   UNL     1       6.166  14.950 -47.801  1.00  0.00     0.122 A 
HETATM   36  C   UNL     1       7.429  15.067 -45.486  1.00  0.00     0.183 A 
ATOM     37  HN  UNL     1       9.220  15.460 -46.477  1.00  0.00     0.168 HD
HETATM   38  N   UNL     1       6.113  14.820 -45.445  1.00  0.00    -0.337 N 
HETATM   39  C   UNL     1       5.435  14.765 -46.618  1.00  0.00     0.131 A 
ATOM     40  HN  UNL     1       5.635  14.678 -44.555  1.00  0.00     0.168 HD
HETATM   41  N   UNL     1       4.125  14.551 -46.583  1.00  0.00    -0.383 N 
ATOM     42  HN2 UNL     1       3.593  14.417 -45.722  1.00  0.00     0.157 HD
ATOM     43  HN1 UNL     1       3.615  14.510 -47.464  1.00  0.00     0.157 HD
HETATM   44  N   UNL     1       5.814  14.935 -49.143  1.00  0.00    -0.346 N 
HETATM   45  C   UNL     1       6.930  15.157 -49.789  1.00  0.00     0.188 A 
ATOM     46  HN  UNL     1       4.886  14.785 -49.540  1.00  0.00     0.167 HD
ENDBRANCH   1  32
TORSDOF 14
ENDMDL
MODEL 2
REMARK VINA RESULT:   -10.171      1.494      2.372
REMARK INTER + INTRA:         -18.231
REMARK INTER:                 -16.376
REMARK INTRA:                  -1.854
REMARK UNBOUND:                -1.222
REMARK  14 active torsions:
REMARK  status: ('A' for Active; 'I' for Inactive)
REMARK    1  A    between atoms: N_15  and  C_16 
REMARK    2  A    between atoms: C_17  and  O_18 
REMARK    3  A    between atoms: C_20  and  O_21 
REMARK    4  A    between atoms: C_24  and  C_25 
REMARK    5  A    between atoms: C_25  and  O_26 
REMARK    6  A    between atoms: O_26  and  P_27 
REMARK    7  A    between atoms: P_27  and  O_30 
REMARK    8  A    between atoms: O_30  and  P_31 
REMARK    9  A    between atoms: P_31  and  O_34 
REMARK   10  A    between atoms: O_34  and  C_35 
REMARK   11  A    between atoms: C_35  and  C_46 
REMARK   12  A    between atoms: O_37  and  C_39 
REMARK   13  A    between atoms: O_40  and  C_42 
REMARK   14  A    between atoms: O_43  and  C_45 
ROOT
HETATM    1  C   UNL     1       9.584  15.630 -49.437  1.00  0.00     0.262 C 
HETATM    2  C   UNL     1       9.913  15.284 -50.879  1.00  0.00     0.198 C 
HETATM    3  C   UNL     1      11.199  16.088 -51.082  1.00  0.00     0.182 C 
HETATM    4  O   UNL     1       9.899  16.993 -49.312  1.00  0.00    -0.353 OA
HETATM    5  C   UNL     1      10.960  17.347 -50.240  1.00  0.00     0.180 C 
ENDROOT
BRANCH   5   6
HETATM    6  C   UNL     1      10.556  18.576 -51.009  1.00  0.00     0.216 C 
BRANCH   6   7
HETATM    7  O   UNL     1      11.687  19.500 -51.036  1.00  0.00    -0.287 OA
BRANCH   7   8
HETATM    8  P   UNL     1      11.439  21.038 -50.745  1.00  0.00     0.417 P 
HETATM    9  O   UNL     1      12.075  21.392 -49.444  1.00  0.00    -0.624 OA
HETATM   10  O   UNL     1       9.996  21.399 -50.939  1.00  0.00    -0.624 OA
BRANCH   8  11
HETATM   11  O   UNL     1      12.229  21.648 -52.002  1.00  0.00    -0.180 OA
BRANCH  11  12
HETATM   12  P   UNL     1      12.243  21.317 -53.563  1.00  0.00     0.417 P 
HETATM   13  O   UNL     1      11.076  20.439 -53.917  1.00  0.00    -0.624 OA
HETATM   14  O   UNL     1      12.416  22.616 -54.290  1.00  0.00    -0.624 OA
BRANCH  12  15
HETATM   15  O   UNL     1      13.543  20.446 -53.758  1.00  0.00    -0.287 OA
BRANCH  15  16
HETATM   16  C   UNL     1      14.769  20.798 -53.088  1.00  0.00     0.216 C 
BRANCH  16  17
HETATM   17  C   UNL     1      15.022  19.794 -51.997  1.00  0.00     0.180 C 
HETATM   18  O   UNL     1      16.227  19.059 -52.306  1.00  0.00    -0.349 OA
HETATM   19  C   UNL     1      17.176  19.179 -51.270  1.00  0.00     0.288 C 
HETATM   20  C   UNL     1      16.751  20.432 -50.505  1.00  0.00     0.204 C 
HETATM   21  C   UNL     1      15.228  20.405 -50.606  1.00  0.00     0.182 C 
BRANCH  19  22
HETATM   22  O   UNL     1      18.476  19.289 -51.792  1.00  0.00    -0.369 OA
ATOM     23  HO  UNL     1      19.032  19.795 -51.211  1.00  0.00     0.212 HD
ENDBRANCH  19  22
BRANCH  20  24
HETATM   24  O   UNL     1      17.189  20.451 -49.163  1.00  0.00    -0.388 OA
ATOM     25  HO  UNL     1      18.001  20.927 -49.034  1.00  0.00     0.210 HD
ENDBRANCH  20  24
BRANCH  21  26
HETATM   26  O   UNL     1      14.596  19.623 -49.602  1.00  0.00    -0.390 OA
ATOM     27  HO  UNL     1      13.661  19.515 -49.728  1.00  0.00     0.210 HD
ENDBRANCH  21  26
ENDBRANCH  16  17
ENDBRANCH  15  16
ENDBRANCH  12  15
ENDBRANCH  11  12
ENDBRANCH   8  11
ENDBRANCH   7   8
ENDBRANCH   6   7
ENDBRANCH   5   6
BRANCH   3  28
HETATM   28  O   UNL     1      12.336  15.396 -50.582  1.00  0.00    -0.390 OA
ATOM     29  HO  UNL     1      12.672  15.798 -49.790  1.00  0.00     0.210 HD
ENDBRANCH   3  28
BRANCH   2  30
HETATM   30  O   UNL     1      10.037  13.881 -50.973  1.00  0.00    -0.388 OA
ATOM     31  HO  UNL     1       9.209  13.497 -50.710  1.00  0.00     0.210 HD
ENDBRANCH   2  30
BRANCH   1  32
HETATM   32  N   UNL     1       8.192  15.461 -49.085  1.00  0.00    -0.297 N 
HETATM   33  C   UNL     1       7.674  15.469 -47.821  1.00  0.00     0.142 A 
HETATM   34  N   UNL     1       8.344  15.614 -46.667  1.00  0.00    -0.336 N 
HETATM   35  C   UNL     1       6.314  15.299 -47.974  1.00  0.00     0.122 A 
HETATM   36  C   UNL     1       7.511  15.556 -45.635  1.00  0.00     0.183 A 
ATOM     37  HN  UNL     1       9.352  15.750 -46.593  1.00  0.00     0.168 HD
HETATM   38  N   UNL     1       6.181  15.391 -45.619  1.00  0.00    -0.337 N 
HETATM   39  C   UNL     1       5.537  15.267 -46.806  1.00  0.00     0.131 A 
ATOM     40  HN  UNL     1       5.668  15.359 -44.738  1.00  0.00     0.168 HD
HETATM   41  N   UNL     1       4.216  15.134 -46.799  1.00  0.00    -0.383 N 
ATOM     42  HN2 UNL     1       3.651  15.111 -45.949  1.00  0.00     0.157 HD
ATOM     43  HN1 UNL     1       3.731  15.041 -47.691  1.00  0.00     0.157 HD
HETATM   44  N   UNL     1       6.003  15.181 -49.321  1.00  0.00    -0.346 N 
HETATM   45  C   UNL     1       7.149  15.277 -49.944  1.00  0.00     0.188 A 
ATOM     46  HN  UNL     1       5.080  15.049 -49.736  1.00  0.00     0.167 HD
ENDBRANCH   1  32
TORSDOF 14
ENDMDL
MODEL 3
REMARK VINA RESULT:    -9.877      1.490      2.274
REMARK INTER + INTRA:         -17.739
REMARK INTER:                 -16.261
REMARK INTRA:                  -1.479
REMARK UNBOUND:                -1.222
REMARK  14 active torsions:
REMARK  status: ('A' for Active; 'I' for Inactive)
REMARK    1  A    between atoms: N_15  and  C_16 
REMARK    2  A    between atoms: C_17  and  O_18 
REMARK    3  A    between atoms: C_20  and  O_21 
REMARK    4  A    between atoms: C_24  and  C_25 
REMARK    5  A    between atoms: C_25  and  O_26 
REMARK    6  A    between atoms: O_26  and  P_27 
REMARK    7  A    between atoms: P_27  and  O_30 
REMARK    8  A    between atoms: O_30  and  P_31 
REMARK    9  A    between atoms: P_31  and  O_34 
REMARK   10  A    between atoms: O_34  and  C_35 
REMARK   11  A    between atoms: C_35  and  C_46 
REMARK   12  A    between atoms: O_37  and  C_39 
REMARK   13  A    between atoms: O_40  and  C_42 
REMARK   14  A    between atoms: O_43  and  C_45 
ROOT
HETATM    1  C   UNL     1       9.522  15.495 -49.193  1.00  0.00     0.262 C 
HETATM    2  C   UNL     1       9.988  14.838 -50.481  1.00  0.00     0.198 C 
HETATM    3  C   UNL     1      11.253  15.646 -50.776  1.00  0.00     0.182 C 
HETATM    4  O   UNL     1       9.768  16.866 -49.378  1.00  0.00    -0.353 OA
HETATM    5  C   UNL     1      10.891  17.053 -50.282  1.00  0.00     0.180 C 
ENDROOT
BRANCH   5   6
HETATM    6  C   UNL     1      10.505  18.037 -51.353  1.00  0.00     0.216 C 
BRANCH   6   7
HETATM    7  O   UNL     1      10.929  17.508 -52.646  1.00  0.00    -0.287 OA
BRANCH   7   8
HETATM    8  P   UNL     1      12.020  18.295 -53.486  1.00  0.00     0.417 P 
HETATM    9  O   UNL     1      11.631  18.269 -54.925  1.00  0.00    -0.624 OA
HETATM   10  O   UNL     1      13.405  17.848 -53.128  1.00  0.00    -0.624 OA
BRANCH   8  11
HETATM   11  O   UNL     1      11.829  19.745 -52.825  1.00  0.00    -0.180 OA
BRANCH  11  12
HETATM   12  P   UNL     1      12.140  21.231 -53.315  1.00  0.00     0.417 P 
HETATM   13  O   UNL     1      12.956  21.200 -54.578  1.00  0.00    -0.624 OA
HETATM   14  O   UNL     1      10.842  21.980 -53.313  1.00  0.00    -0.624 OA
BRANCH  12  15
HETATM   15  O   UNL     1      13.072  21.820 -52.186  1.00  0.00    -0.287 OA
BRANCH  15  16
HETATM   16  C   UNL     1      14.501  21.852 -52.359  1.00  0.00     0.216 C 
BRANCH  16  17
HETATM   17  C   UNL     1      15.073  20.559 -51.847  1.00  0.00     0.180 C 
HETATM   18  O   UNL     1      16.344  20.318 -52.491  1.00  0.00    -0.349 OA
HETATM   19  C   UNL     1      17.379  20.185 -51.543  1.00  0.00     0.288 C 
HETATM   20  C   UNL     1      16.831  20.853 -50.283  1.00  0.00     0.204 C 
HETATM   21  C   UNL     1      15.339  20.535 -50.337  1.00  0.00     0.182 C 
BRANCH  19  22
HETATM   22  O   UNL     1      18.558  20.796 -52.000  1.00  0.00    -0.369 OA
ATOM     23  HO  UNL     1      19.140  20.157 -52.393  1.00  0.00     0.212 HD
ENDBRANCH  19  22
BRANCH  20  24
HETATM   24  O   UNL     1      17.426  20.385 -49.091  1.00  0.00    -0.388 OA
ATOM     25  HO  UNL     1      16.860  19.817 -48.581  1.00  0.00     0.210 HD
ENDBRANCH  20  24
BRANCH  21  26
HETATM   26  O   UNL     1      14.996  19.276 -49.774  1.00  0.00    -0.390 OA
ATOM     27  HO  UNL     1      15.743  18.719 -49.589  1.00  0.00     0.210 HD
ENDBRANCH  21  26
ENDBRANCH  16  17
ENDBRANCH  15  16
ENDBRANCH  12  15
ENDBRANCH  11  12
ENDBRANCH   8  11
ENDBRANCH   7   8
ENDBRANCH   6   7
ENDBRANCH   5   6
BRANCH   3  28
HETATM   28  O   UNL     1      12.369  15.163 -50.041  1.00  0.00    -0.390 OA
ATOM     29  HO  UNL     1      12.179  15.103 -49.112  1.00  0.00     0.210 HD
ENDBRANCH   3  28
BRANCH   2  30
HETATM   30  O   UNL     1      10.176  13.463 -50.224  1.00  0.00    -0.388 OA
ATOM     31  HO  UNL     1       9.387  13.132 -49.812  1.00  0.00     0.210 HD
ENDBRANCH   2  30
BRANCH   1  32
HETATM   32  N   UNL     1       8.113  15.331 -48.915  1.00  0.00    -0.297 N 
HETATM   33  C   UNL     1       7.545  15.214 -47.678  1.00  0.00     0.142 A 
HETATM   34  N   UNL     1       8.170  15.208 -46.490  1.00  0.00    -0.336 N 
HETATM   35  C   UNL     1       6.187  15.104 -47.899  1.00  0.00     0.122 A 
HETATM   36  C   UNL     1       7.295  15.060 -45.504  1.00  0.00     0.183 A 
ATOM     37  HN  UNL     1       9.178  15.304 -46.364  1.00  0.00     0.168 HD
HETATM   38  N   UNL     1       5.962  14.936 -45.556  1.00  0.00    -0.337 N 
HETATM   39  C   UNL     1       5.363  14.966 -46.772  1.00  0.00     0.131 A 
ATOM     40  HN  UNL     1       5.413  14.821 -44.704  1.00  0.00     0.168 HD
HETATM   41  N   UNL     1       4.040  14.873 -46.830  1.00  0.00    -0.383 N 
ATOM     42  HN2 UNL     1       3.440  14.773 -46.010  1.00  0.00     0.157 HD
ATOM     43  HN1 UNL     1       3.590  14.896 -47.744  1.00  0.00     0.157 HD
HETATM   44  N   UNL     1       5.928  15.147 -49.262  1.00  0.00    -0.346 N 
HETATM   45  C   UNL     1       7.101  15.277 -49.827  1.00  0.00     0.188 A 
ATOM     46  HN  UNL     1       5.020  15.091 -49.724  1.00  0.00     0.167 HD
ENDBRANCH   1  32
TORSDOF 14
ENDMDL
MODEL 4
REMARK VINA RESULT:    -9.847      1.023      1.978
REMARK INTER + INTRA:         -17.689
REMARK INTER:                 -16.319
REMARK INTRA:                  -1.370
REMARK UNBOUND:                -1.222
REMARK  14 active torsions:
REMARK  status: ('A' for Active; 'I' for Inactive)
REMARK    1  A    between atoms: N_15  and  C_16 
REMARK    2  A    between atoms: C_17  and  O_18 
REMARK    3  A    between atoms: C_20  and  O_21 
REMARK    4  A    between atoms: C_24  and  C_25 
REMARK    5  A    between atoms: C_25  and  O_26 
REMARK    6  A    between atoms: O_26  and  P_27 
REMARK    7  A    between atoms: P_27  and  O_30 
REMARK    8  A    between atoms: O_30  and  P_31 
REMARK    9  A    between atoms: P_31  and  O_34 
REMARK   10  A    between atoms: O_34  and  C_35 
REMARK   11  A    between atoms: C_35  and  C_46 
REMARK   12  A    between atoms: O_37  and  C_39 
REMARK   13  A    between atoms: O_40  and  C_42 
REMARK   14  A    between atoms: O_43  and  C_45 
ROOT
HETATM    1  C   UNL     1       9.498  15.593 -49.387  1.00  0.00     0.262 C 
HETATM    2  C   UNL     1       9.851  15.271 -50.828  1.00  0.00     0.198 C 
HETATM    3  C   UNL     1      11.114  16.115 -51.011  1.00  0.00     0.182 C 
HETATM    4  O   UNL     1       9.770  16.964 -49.246  1.00  0.00    -0.353 OA
HETATM    5  C   UNL     1      10.830  17.358 -50.159  1.00  0.00     0.180 C 
ENDROOT
BRANCH   5   6
HETATM    6  C   UNL     1      10.397  18.582 -50.921  1.00  0.00     0.216 C 
BRANCH   6   7
HETATM    7  O   UNL     1      11.575  19.187 -51.537  1.00  0.00    -0.287 OA
BRANCH   7   8
HETATM    8  P   UNL     1      12.604  19.979 -50.628  1.00  0.00     0.417 P 
HETATM    9  O   UNL     1      13.739  19.076 -50.284  1.00  0.00    -0.624 OA
HETATM   10  O   UNL     1      11.904  20.681 -49.503  1.00  0.00    -0.624 OA
BRANCH   8  11
HETATM   11  O   UNL     1      13.022  21.118 -51.679  1.00  0.00    -0.180 OA
BRANCH  11  12
HETATM   12  P   UNL     1      13.705  21.091 -53.122  1.00  0.00     0.417 P 
HETATM   13  O   UNL     1      14.371  19.764 -53.355  1.00  0.00    -0.624 OA
HETATM   14  O   UNL     1      12.679  21.566 -54.106  1.00  0.00    -0.624 OA
BRANCH  12  15
HETATM   15  O   UNL     1      14.855  22.166 -53.022  1.00  0.00    -0.287 OA
BRANCH  15  16
HETATM   16  C   UNL     1      15.273  22.674 -51.741  1.00  0.00     0.216 C 
BRANCH  16  17
HETATM   17  C   UNL     1      16.719  22.316 -51.534  1.00  0.00     0.180 C 
HETATM   18  O   UNL     1      17.381  23.406 -50.856  1.00  0.00    -0.349 OA
HETATM   19  C   UNL     1      17.966  22.975 -49.648  1.00  0.00     0.288 C 
HETATM   20  C   UNL     1      17.229  21.681 -49.307  1.00  0.00     0.204 C 
HETATM   21  C   UNL     1      16.947  21.066 -50.676  1.00  0.00     0.182 C 
BRANCH  19  22
HETATM   22  O   UNL     1      17.822  23.950 -48.646  1.00  0.00    -0.369 OA
ATOM     23  HO  UNL     1      18.193  24.778 -48.925  1.00  0.00     0.212 HD
ENDBRANCH  19  22
BRANCH  20  24
HETATM   24  O   UNL     1      17.970  20.808 -48.481  1.00  0.00    -0.388 OA
ATOM     25  HO  UNL     1      17.709  20.835 -47.568  1.00  0.00     0.210 HD
ENDBRANCH  20  24
BRANCH  21  26
HETATM   26  O   UNL     1      18.015  20.279 -51.186  1.00  0.00    -0.390 OA
ATOM     27  HO  UNL     1      17.777  19.745 -51.934  1.00  0.00     0.210 HD
ENDBRANCH  21  26
ENDBRANCH  16  17
ENDBRANCH  15  16
ENDBRANCH  12  15
ENDBRANCH  11  12
ENDBRANCH   8  11
ENDBRANCH   7   8
ENDBRANCH   6   7
ENDBRANCH   5   6
BRANCH   3  28
HETATM   28  O   UNL     1      12.266  15.452 -50.505  1.00  0.00    -0.390 OA
ATOM     29  HO  UNL     1      12.725  15.983 -49.866  1.00  0.00     0.210 HD
ENDBRANCH   3  28
BRANCH   2  30
HETATM   30  O   UNL     1      10.017  13.874 -50.933  1.00  0.00    -0.388 OA
ATOM     31  HO  UNL     1       9.828  13.493 -50.084  1.00  0.00     0.210 HD
ENDBRANCH   2  30
BRANCH   1  32
HETATM   32  N   UNL     1       8.108  15.380 -49.050  1.00  0.00    -0.297 N 
HETATM   33  C   UNL     1       7.587  15.303 -47.790  1.00  0.00     0.142 A 
HETATM   34  N   UNL     1       8.251  15.390 -46.626  1.00  0.00    -0.336 N 
HETATM   35  C   UNL     1       6.230  15.119 -47.957  1.00  0.00     0.122 A 
HETATM   36  C   UNL     1       7.417  15.256 -45.603  1.00  0.00     0.183 A 
ATOM     37  HN  UNL     1       9.256  15.539 -46.541  1.00  0.00     0.168 HD
HETATM   38  N   UNL     1       6.091  15.067 -45.601  1.00  0.00    -0.337 N 
HETATM   39  C   UNL     1       5.451  15.004 -46.795  1.00  0.00     0.131 A 
ATOM     40  HN  UNL     1       5.576  14.973 -44.725  1.00  0.00     0.168 HD
HETATM   41  N   UNL     1       4.132  14.848 -46.801  1.00  0.00    -0.383 N 
ATOM     42  HN2 UNL     1       3.566  14.764 -45.956  1.00  0.00     0.157 HD
ATOM     43  HN1 UNL     1       3.652  14.801 -47.699  1.00  0.00     0.157 HD
HETATM   44  N   UNL     1       5.925  15.078 -49.310  1.00  0.00    -0.346 N 
HETATM   45  C   UNL     1       7.070  15.230 -49.922  1.00  0.00     0.188 A 
ATOM     46  HN  UNL     1       5.005  14.955 -49.735  1.00  0.00     0.167 HD
ENDBRANCH   1  32
TORSDOF 14
ENDMDL
MODEL 5
REMARK VINA RESULT:    -9.761      4.963     10.314
REMARK INTER + INTRA:         -17.545
REMARK INTER:                 -15.979
REMARK INTRA:                  -1.566
REMARK UNBOUND:                -1.222
REMARK  14 active torsions:
REMARK  status: ('A' for Active; 'I' for Inactive)
REMARK    1  A    between atoms: N_15  and  C_16 
REMARK    2  A    between atoms: C_17  and  O_18 
REMARK    3  A    between atoms: C_20  and  O_21 
REMARK    4  A    between atoms: C_24  and  C_25 
REMARK    5  A    between atoms: C_25  and  O_26 
REMARK    6  A    between atoms: O_26  and  P_27 
REMARK    7  A    between atoms: P_27  and  O_30 
REMARK    8  A    between atoms: O_30  and  P_31 
REMARK    9  A    between atoms: P_31  and  O_34 
REMARK   10  A    between atoms: O_34  and  C_35 
REMARK   11  A    between atoms: C_35  and  C_46 
REMARK   12  A    between atoms: O_37  and  C_39 
REMARK   13  A    between atoms: O_40  and  C_42 
REMARK   14  A    between atoms: O_43  and  C_45 
ROOT
HETATM    1  C   UNL     1      12.874  21.691 -52.202  1.00  0.00     0.262 C 
HETATM    2  C   UNL     1      12.679  20.577 -53.216  1.00  0.00     0.198 C 
HETATM    3  C   UNL     1      11.153  20.549 -53.321  1.00  0.00     0.182 C 
HETATM    4  O   UNL     1      11.846  21.508 -51.262  1.00  0.00    -0.353 OA
HETATM    5  C   UNL     1      10.698  20.881 -51.895  1.00  0.00     0.180 C 
ENDROOT
BRANCH   5   6
HETATM    6  C   UNL     1      10.254  19.707 -51.064  1.00  0.00     0.216 C 
BRANCH   6   7
HETATM    7  O   UNL     1      10.522  18.481 -51.811  1.00  0.00    -0.287 OA
BRANCH   7   8
HETATM    8  P   UNL     1      11.623  17.473 -51.277  1.00  0.00     0.417 P 
HETATM    9  O   UNL     1      12.589  18.221 -50.424  1.00  0.00    -0.624 OA
HETATM   10  O   UNL     1      12.176  16.637 -52.392  1.00  0.00    -0.624 OA
BRANCH   8  11
HETATM   11  O   UNL     1      10.667  16.508 -50.422  1.00  0.00    -0.180 OA
BRANCH  11  12
HETATM   12  P   UNL     1       9.769  15.239 -50.786  1.00  0.00     0.417 P 
HETATM   13  O   UNL     1       8.927  15.530 -51.997  1.00  0.00    -0.624 OA
HETATM   14  O   UNL     1      10.677  14.047 -50.807  1.00  0.00    -0.624 OA
BRANCH  12  15
HETATM   15  O   UNL     1       8.780  15.107 -49.565  1.00  0.00    -0.287 OA
BRANCH  15  16
HETATM   16  C   UNL     1       8.366  16.274 -48.827  1.00  0.00     0.216 C 
BRANCH  16  17
HETATM   17  C   UNL     1       7.115  15.937 -48.063  1.00  0.00     0.180 C 
HETATM   18  O   UNL     1       7.242  14.606 -47.517  1.00  0.00    -0.349 OA
HETATM   19  C   UNL     1       7.097  14.616 -46.114  1.00  0.00     0.288 C 
HETATM   20  C   UNL     1       7.380  16.062 -45.710  1.00  0.00     0.204 C 
HETATM   21  C   UNL     1       6.824  16.869 -46.881  1.00  0.00     0.182 C 
BRANCH  19  22
HETATM   22  O   UNL     1       7.988  13.711 -45.512  1.00  0.00    -0.369 OA
ATOM     23  HO  UNL     1       7.997  13.822 -44.569  1.00  0.00     0.212 HD
ENDBRANCH  19  22
BRANCH  20  24
HETATM   24  O   UNL     1       6.785  16.434 -44.485  1.00  0.00    -0.388 OA
ATOM     25  HO  UNL     1       6.261  15.746 -44.092  1.00  0.00     0.210 HD
ENDBRANCH  20  24
BRANCH  21  26
HETATM   26  O   UNL     1       5.434  17.151 -46.779  1.00  0.00    -0.390 OA
ATOM     27  HO  UNL     1       5.089  17.078 -45.898  1.00  0.00     0.210 HD
ENDBRANCH  21  26
ENDBRANCH  16  17
ENDBRANCH  15  16
ENDBRANCH  12  15
ENDBRANCH  11  12
ENDBRANCH   8  11
ENDBRANCH   7   8
ENDBRANCH   6   7
ENDBRANCH   5   6
BRANCH   3  28
HETATM   28  O   UNL     1      10.668  21.543 -54.214  1.00  0.00    -0.390 OA
ATOM     29  HO  UNL     1      11.195  22.333 -54.179  1.00  0.00     0.210 HD
ENDBRANCH   3  28
BRANCH   2  30
HETATM   30  O   UNL     1      13.375  20.932 -54.391  1.00  0.00    -0.388 OA
ATOM     31  HO  UNL     1      13.324  21.876 -54.487  1.00  0.00     0.210 HD
ENDBRANCH   2  30
BRANCH   1  32
HETATM   32  N   UNL     1      14.135  21.642 -51.496  1.00  0.00    -0.297 N 
HETATM   33  C   UNL     1      15.329  22.129 -51.946  1.00  0.00     0.142 A 
HETATM   34  N   UNL     1      15.576  22.725 -53.124  1.00  0.00    -0.336 N 
HETATM   35  C   UNL     1      16.237  21.883 -50.937  1.00  0.00     0.122 A 
HETATM   36  C   UNL     1      16.858  23.053 -53.221  1.00  0.00     0.183 A 
ATOM     37  HN  UNL     1      14.875  22.900 -53.844  1.00  0.00     0.168 HD
HETATM   38  N   UNL     1      17.853  22.878 -52.341  1.00  0.00    -0.337 N 
HETATM   39  C   UNL     1      17.562  22.291 -51.153  1.00  0.00     0.131 A 
ATOM     40  HN  UNL     1      18.803  23.180 -52.558  1.00  0.00     0.168 HD
HETATM   41  N   UNL     1      18.537  22.142 -50.264  1.00  0.00    -0.383 N 
ATOM     42  HN2 UNL     1      19.501  22.438 -50.422  1.00  0.00     0.157 HD
ATOM     43  HN1 UNL     1      18.318  21.701 -49.372  1.00  0.00     0.157 HD
HETATM   44  N   UNL     1      15.603  21.246 -49.879  1.00  0.00    -0.346 N 
HETATM   45  C   UNL     1      14.358  21.117 -50.258  1.00  0.00     0.188 A 
ATOM     46  HN  UNL     1      16.019  20.944 -48.998  1.00  0.00     0.167 HD
ENDBRANCH   1  32
TORSDOF 14
ENDMDL
MODEL 6
REMARK VINA RESULT:    -9.635      3.285      5.058
REMARK INTER + INTRA:         -17.335
REMARK INTER:                 -15.971
REMARK INTRA:                  -1.364
REMARK UNBOUND:                -1.222
REMARK  14 active torsions:
REMARK  status: ('A' for Active; 'I' for Inactive)
REMARK    1  A    between atoms: N_15  and  C_16 
REMARK    2  A    between atoms: C_17  and  O_18 
REMARK    3  A    between atoms: C_20  and  O_21 
REMARK    4  A    between atoms: C_24  and  C_25 
REMARK    5  A    between atoms: C_25  and  O_26 
REMARK    6  A    between atoms: O_26  and  P_27 
REMARK    7  A    between atoms: P_27  and  O_30 
REMARK    8  A    between atoms: O_30  and  P_31 
REMARK    9  A    between atoms: P_31  and  O_34 
REMARK   10  A    between atoms: O_34  and  C_35 
REMARK   11  A    between atoms: C_35  and  C_46 
REMARK   12  A    between atoms: O_37  and  C_39 
REMARK   13  A    between atoms: O_40  and  C_42 
REMARK   14  A    between atoms: O_43  and  C_45 
ROOT
HETATM    1  C   UNL     1       6.580  14.304 -48.170  1.00  0.00     0.262 C 
HETATM    2  C   UNL     1       6.044  15.338 -49.146  1.00  0.00     0.198 C 
HETATM    3  C   UNL     1       7.221  15.453 -50.117  1.00  0.00     0.182 C 
HETATM    4  O   UNL     1       7.936  14.630 -48.006  1.00  0.00    -0.353 OA
HETATM    5  C   UNL     1       8.443  15.272 -49.208  1.00  0.00     0.180 C 
ENDROOT
BRANCH   5   6
HETATM    6  C   UNL     1       9.163  16.537 -48.828  1.00  0.00     0.216 C 
BRANCH   6   7
HETATM    7  O   UNL     1       9.323  17.358 -50.025  1.00  0.00    -0.287 OA
BRANCH   7   8
HETATM    8  P   UNL     1      10.465  16.999 -51.065  1.00  0.00     0.417 P 
HETATM    9  O   UNL     1       9.960  15.944 -51.990  1.00  0.00    -0.624 OA
HETATM   10  O   UNL     1      11.771  16.753 -50.371  1.00  0.00    -0.624 OA
BRANCH   8  11
HETATM   11  O   UNL     1      10.596  18.430 -51.779  1.00  0.00    -0.180 OA
BRANCH  11  12
HETATM   12  P   UNL     1      10.962  19.894 -51.258  1.00  0.00     0.417 P 
HETATM   13  O   UNL     1       9.708  20.660 -50.941  1.00  0.00    -0.624 OA
HETATM   14  O   UNL     1      12.001  19.737 -50.190  1.00  0.00    -0.624 OA
BRANCH  12  15
HETATM   15  O   UNL     1      11.617  20.593 -52.511  1.00  0.00    -0.287 OA
BRANCH  15  16
HETATM   16  C   UNL     1      13.004  20.982 -52.490  1.00  0.00     0.216 C 
BRANCH  16  17
HETATM   17  C   UNL     1      13.751  20.142 -53.490  1.00  0.00     0.180 C 
HETATM   18  O   UNL     1      13.864  18.795 -52.981  1.00  0.00    -0.349 OA
HETATM   19  C   UNL     1      13.295  17.864 -53.874  1.00  0.00     0.288 C 
HETATM   20  C   UNL     1      12.352  18.695 -54.744  1.00  0.00     0.204 C 
HETATM   21  C   UNL     1      13.073  20.035 -54.861  1.00  0.00     0.182 C 
BRANCH  19  22
HETATM   22  O   UNL     1      12.619  16.849 -53.176  1.00  0.00    -0.369 OA
ATOM     23  HO  UNL     1      12.958  16.763 -52.293  1.00  0.00     0.212 HD
ENDBRANCH  19  22
BRANCH  20  24
HETATM   24  O   UNL     1      12.098  18.122 -56.009  1.00  0.00    -0.388 OA
ATOM     25  HO  UNL     1      11.199  17.835 -56.123  1.00  0.00     0.210 HD
ENDBRANCH  20  24
BRANCH  21  26
HETATM   26  O   UNL     1      14.029  20.087 -55.912  1.00  0.00    -0.390 OA
ATOM     27  HO  UNL     1      14.735  20.704 -55.762  1.00  0.00     0.210 HD
ENDBRANCH  21  26
ENDBRANCH  16  17
ENDBRANCH  15  16
ENDBRANCH  12  15
ENDBRANCH  11  12
ENDBRANCH   8  11
ENDBRANCH   7   8
ENDBRANCH   6   7
ENDBRANCH   5   6
BRANCH   3  28
HETATM   28  O   UNL     1       7.201  14.418 -51.092  1.00  0.00    -0.390 OA
ATOM     29  HO  UNL     1       8.044  13.987 -51.163  1.00  0.00     0.210 HD
ENDBRANCH   3  28
BRANCH   2  30
HETATM   30  O   UNL     1       4.839  14.841 -49.686  1.00  0.00    -0.388 OA
ATOM     31  HO  UNL     1       4.763  15.165 -50.576  1.00  0.00     0.210 HD
ENDBRANCH   2  30
BRANCH   1  32
HETATM   32  N   UNL     1       5.956  14.334 -46.866  1.00  0.00    -0.297 N 
HETATM   33  C   UNL     1       4.802  13.695 -46.510  1.00  0.00     0.142 A 
HETATM   34  N   UNL     1       4.016  12.937 -47.291  1.00  0.00    -0.336 N 
HETATM   35  C   UNL     1       4.609  13.986 -45.176  1.00  0.00     0.122 A 
HETATM   36  C   UNL     1       2.970  12.491 -46.606  1.00  0.00     0.183 A 
ATOM     37  HN  UNL     1       4.196  12.733 -48.274  1.00  0.00     0.168 HD
HETATM   38  N   UNL     1       2.643  12.689 -45.322  1.00  0.00    -0.337 N 
HETATM   39  C   UNL     1       3.472  13.444 -44.559  1.00  0.00     0.131 A 
ATOM     40  HN  UNL     1       1.793  12.284 -44.929  1.00  0.00     0.168 HD
HETATM   41  N   UNL     1       3.170  13.619 -43.278  1.00  0.00    -0.383 N 
ATOM     42  HN2 UNL     1       2.343  13.225 -42.829  1.00  0.00     0.157 HD
ATOM     43  HN1 UNL     1       3.794  14.186 -42.704  1.00  0.00     0.157 HD
HETATM   44  N   UNL     1       5.635  14.803 -44.720  1.00  0.00    -0.346 N 
HETATM   45  C   UNL     1       6.408  14.989 -45.759  1.00  0.00     0.188 A 
ATOM     46  HN  UNL     1       5.760  15.177 -43.779  1.00  0.00     0.167 HD
ENDBRANCH   1  32
TORSDOF 14
ENDMDL
MODEL 7
REMARK VINA RESULT:    -9.625      6.351     11.893
REMARK INTER + INTRA:         -17.317
REMARK INTER:                 -16.293
REMARK INTRA:                  -1.025
REMARK UNBOUND:                -1.222
REMARK  14 active torsions:
REMARK  status: ('A' for Active; 'I' for Inactive)
REMARK    1  A    between atoms: N_15  and  C_16 
REMARK    2  A    between atoms: C_17  and  O_18 
REMARK    3  A    between atoms: C_20  and  O_21 
REMARK    4  A    between atoms: C_24  and  C_25 
REMARK    5  A    between atoms: C_25  and  O_26 
REMARK    6  A    between atoms: O_26  and  P_27 
REMARK    7  A    between atoms: P_27  and  O_30 
REMARK    8  A    between atoms: O_30  and  P_31 
REMARK    9  A    between atoms: P_31  and  O_34 
REMARK   10  A    between atoms: O_34  and  C_35 
REMARK   11  A    between atoms: C_35  and  C_46 
REMARK   12  A    between atoms: O_37  and  C_39 
REMARK   13  A    between atoms: O_40  and  C_42 
REMARK   14  A    between atoms: O_43  and  C_45 
ROOT
HETATM    1  C   UNL     1      18.906  24.222 -51.226  1.00  0.00     0.262 C 
HETATM    2  C   UNL     1      19.263  22.773 -50.941  1.00  0.00     0.198 C 
HETATM    3  C   UNL     1      18.967  22.131 -52.298  1.00  0.00     0.182 C 
HETATM    4  O   UNL     1      17.757  24.159 -52.032  1.00  0.00    -0.353 OA
HETATM    5  C   UNL     1      17.757  22.927 -52.803  1.00  0.00     0.180 C 
ENDROOT
BRANCH   5   6
HETATM    6  C   UNL     1      16.423  22.247 -52.650  1.00  0.00     0.216 C 
BRANCH   6   7
HETATM    7  O   UNL     1      16.609  20.810 -52.838  1.00  0.00    -0.287 OA
BRANCH   7   8
HETATM    8  P   UNL     1      16.525  19.847 -51.581  1.00  0.00     0.417 P 
HETATM    9  O   UNL     1      16.528  20.672 -50.340  1.00  0.00    -0.624 OA
HETATM   10  O   UNL     1      17.527  18.736 -51.685  1.00  0.00    -0.624 OA
BRANCH   8  11
HETATM   11  O   UNL     1      15.092  19.191 -51.879  1.00  0.00    -0.180 OA
BRANCH  11  12
HETATM   12  P   UNL     1      13.595  19.586 -51.491  1.00  0.00     0.417 P 
HETATM   13  O   UNL     1      13.464  19.714 -49.999  1.00  0.00    -0.624 OA
HETATM   14  O   UNL     1      13.206  20.750 -52.352  1.00  0.00    -0.624 OA
BRANCH  12  15
HETATM   15  O   UNL     1      12.743  18.328 -51.916  1.00  0.00    -0.287 OA
BRANCH  15  16
HETATM   16  C   UNL     1      11.556  17.966 -51.185  1.00  0.00     0.216 C 
BRANCH  16  17
HETATM   17  C   UNL     1      11.064  16.641 -51.700  1.00  0.00     0.180 C 
HETATM   18  O   UNL     1      11.956  15.600 -51.245  1.00  0.00    -0.349 OA
HETATM   19  C   UNL     1      11.261  14.624 -50.500  1.00  0.00     0.288 C 
HETATM   20  C   UNL     1       9.981  15.327 -50.050  1.00  0.00     0.204 C 
HETATM   21  C   UNL     1       9.660  16.255 -51.219  1.00  0.00     0.182 C 
BRANCH  19  22
HETATM   22  O   UNL     1      12.034  14.180 -49.414  1.00  0.00    -0.369 OA
ATOM     23  HO  UNL     1      12.478  14.907 -48.994  1.00  0.00     0.212 HD
ENDBRANCH  19  22
BRANCH  20  24
HETATM   24  O   UNL     1       8.916  14.442 -49.775  1.00  0.00    -0.388 OA
ATOM     25  HO  UNL     1       8.355  14.276 -50.523  1.00  0.00     0.210 HD
ENDBRANCH  20  24
BRANCH  21  26
HETATM   26  O   UNL     1       8.913  15.638 -52.259  1.00  0.00    -0.390 OA
ATOM     27  HO  UNL     1       8.573  16.246 -52.904  1.00  0.00     0.210 HD
ENDBRANCH  21  26
ENDBRANCH  16  17
ENDBRANCH  15  16
ENDBRANCH  12  15
ENDBRANCH  11  12
ENDBRANCH   8  11
ENDBRANCH   7   8
ENDBRANCH   6   7
ENDBRANCH   5   6
BRANCH   3  28
HETATM   28  O   UNL     1      20.049  22.295 -53.204  1.00  0.00    -0.390 OA
ATOM     29  HO  UNL     1      20.179  23.207 -53.436  1.00  0.00     0.210 HD
ENDBRANCH   3  28
BRANCH   2  30
HETATM   30  O   UNL     1      20.608  22.734 -50.516  1.00  0.00    -0.388 OA
ATOM     31  HO  UNL     1      21.091  23.384 -51.011  1.00  0.00     0.210 HD
ENDBRANCH   2  30
BRANCH   1  32
HETATM   32  N   UNL     1      18.582  25.000 -50.051  1.00  0.00    -0.297 N 
HETATM   33  C   UNL     1      19.248  26.107 -49.609  1.00  0.00     0.142 A 
HETATM   34  N   UNL     1      20.332  26.679 -50.156  1.00  0.00    -0.336 N 
HETATM   35  C   UNL     1      18.573  26.523 -48.480  1.00  0.00     0.122 A 
HETATM   36  C   UNL     1      20.713  27.732 -49.443  1.00  0.00     0.183 A 
ATOM     37  HN  UNL     1      20.799  26.349 -51.001  1.00  0.00     0.168 HD
HETATM   38  N   UNL     1      20.173  28.253 -48.333  1.00  0.00    -0.337 N 
HETATM   39  C   UNL     1      19.066  27.660 -47.821  1.00  0.00     0.131 A 
ATOM     40  HN  UNL     1      20.583  29.072 -47.886  1.00  0.00     0.168 HD
HETATM   41  N   UNL     1      18.507  28.189 -46.739  1.00  0.00    -0.383 N 
ATOM     42  HN2 UNL     1      18.866  29.015 -46.259  1.00  0.00     0.157 HD
ATOM     43  HN1 UNL     1      17.675  27.743 -46.354  1.00  0.00     0.157 HD
HETATM   44  N   UNL     1      17.505  25.673 -48.230  1.00  0.00    -0.346 N 
HETATM   45  C   UNL     1      17.552  24.779 -49.184  1.00  0.00     0.188 A 
ATOM     46  HN  UNL     1      16.830  25.731 -47.467  1.00  0.00     0.167 HD
ENDBRANCH   1  32
TORSDOF 14
ENDMDL
MODEL 8
REMARK VINA RESULT:    -9.561      4.875     10.368
REMARK INTER + INTRA:         -17.211
REMARK INTER:                 -15.758
REMARK INTRA:                  -1.453
REMARK UNBOUND:                -1.222
REMARK  14 active torsions:
REMARK  status: ('A' for Active; 'I' for Inactive)
REMARK    1  A    between atoms: N_15  and  C_16 
REMARK    2  A    between atoms: C_17  and  O_18 
REMARK    3  A    between atoms: C_20  and  O_21 
REMARK    4  A    between atoms: C_24  and  C_25 
REMARK    5  A    between atoms: C_25  and  O_26 
REMARK    6  A    between atoms: O_26  and  P_27 
REMARK    7  A    between atoms: P_27  and  O_30 
REMARK    8  A    between atoms: O_30  and  P_31 
REMARK    9  A    between atoms: P_31  and  O_34 
REMARK   10  A    between atoms: O_34  and  C_35 
REMARK   11  A    between atoms: C_35  and  C_46 
REMARK   12  A    between atoms: O_37  and  C_39 
REMARK   13  A    between atoms: O_40  and  C_42 
REMARK   14  A    between atoms: O_43  and  C_45 
ROOT
HETATM    1  C   UNL     1      13.185  21.686 -52.714  1.00  0.00     0.262 C 
HETATM    2  C   UNL     1      12.900  20.458 -53.562  1.00  0.00     0.198 C 
HETATM    3  C   UNL     1      11.472  20.129 -53.121  1.00  0.00     0.182 C 
HETATM    4  O   UNL     1      12.602  21.408 -51.467  1.00  0.00    -0.353 OA
HETATM    5  C   UNL     1      11.469  20.513 -51.636  1.00  0.00     0.180 C 
ENDROOT
BRANCH   5   6
HETATM    6  C   UNL     1      11.595  19.367 -50.668  1.00  0.00     0.216 C 
BRANCH   6   7
HETATM    7  O   UNL     1      10.614  18.346 -51.027  1.00  0.00    -0.287 OA
BRANCH   7   8
HETATM    8  P   UNL     1      11.107  16.872 -51.340  1.00  0.00     0.417 P 
HETATM    9  O   UNL     1      11.817  16.337 -50.143  1.00  0.00    -0.624 OA
HETATM   10  O   UNL     1      11.816  16.808 -52.659  1.00  0.00    -0.624 OA
BRANCH   8  11
HETATM   11  O   UNL     1       9.675  16.184 -51.564  1.00  0.00    -0.180 OA
BRANCH  11  12
HETATM   12  P   UNL     1       8.954  14.906 -50.936  1.00  0.00     0.417 P 
HETATM   13  O   UNL     1       7.616  14.693 -51.586  1.00  0.00    -0.624 OA
HETATM   14  O   UNL     1       9.950  13.785 -50.949  1.00  0.00    -0.624 OA
BRANCH  12  15
HETATM   15  O   UNL     1       8.672  15.321 -49.440  1.00  0.00    -0.287 OA
BRANCH  15  16
HETATM   16  C   UNL     1       7.696  16.334 -49.133  1.00  0.00     0.216 C 
BRANCH  16  17
HETATM   17  C   UNL     1       6.583  15.702 -48.343  1.00  0.00     0.180 C 
HETATM   18  O   UNL     1       7.085  14.512 -47.695  1.00  0.00    -0.349 OA
HETATM   19  C   UNL     1       6.913  14.583 -46.297  1.00  0.00     0.288 C 
HETATM   20  C   UNL     1       6.749  16.075 -46.007  1.00  0.00     0.204 C 
HETATM   21  C   UNL     1       6.005  16.591 -47.236  1.00  0.00     0.182 C 
BRANCH  19  22
HETATM   22  O   UNL     1       8.018  14.029 -45.628  1.00  0.00    -0.369 OA
ATOM     23  HO  UNL     1       8.355  13.276 -46.098  1.00  0.00     0.212 HD
ENDBRANCH  19  22
BRANCH  20  24
HETATM   24  O   UNL     1       6.045  16.345 -44.814  1.00  0.00    -0.388 OA
ATOM     25  HO  UNL     1       5.183  15.948 -44.782  1.00  0.00     0.210 HD
ENDBRANCH  20  24
BRANCH  21  26
HETATM   26  O   UNL     1       4.593  16.457 -47.155  1.00  0.00    -0.390 OA
ATOM     27  HO  UNL     1       4.135  16.702 -47.950  1.00  0.00     0.210 HD
ENDBRANCH  21  26
ENDBRANCH  16  17
ENDBRANCH  15  16
ENDBRANCH  12  15
ENDBRANCH  11  12
ENDBRANCH   8  11
ENDBRANCH   7   8
ENDBRANCH   6   7
ENDBRANCH   5   6
BRANCH   3  28
HETATM   28  O   UNL     1      10.513  20.918 -53.813  1.00  0.00    -0.390 OA
ATOM     29  HO  UNL     1      10.416  21.777 -53.420  1.00  0.00     0.210 HD
ENDBRANCH   3  28
BRANCH   2  30
HETATM   30  O   UNL     1      13.064  20.818 -54.916  1.00  0.00    -0.388 OA
ATOM     31  HO  UNL     1      13.992  20.938 -55.077  1.00  0.00     0.210 HD
ENDBRANCH   2  30
BRANCH   1  32
HETATM   32  N   UNL     1      14.590  21.949 -52.498  1.00  0.00    -0.297 N 
HETATM   33  C   UNL     1      15.375  21.390 -51.531  1.00  0.00     0.142 A 
HETATM   34  N   UNL     1      15.004  20.511 -50.586  1.00  0.00    -0.336 N 
HETATM   35  C   UNL     1      16.637  21.915 -51.723  1.00  0.00     0.122 A 
HETATM   36  C   UNL     1      16.034  20.200 -49.809  1.00  0.00     0.183 A 
ATOM     37  HN  UNL     1      14.062  20.135 -50.481  1.00  0.00     0.168 HD
HETATM   38  N   UNL     1      17.304  20.624 -49.863  1.00  0.00    -0.337 N 
HETATM   39  C   UNL     1      17.646  21.497 -50.843  1.00  0.00     0.131 A 
ATOM     40  HN  UNL     1      17.994  20.300 -49.185  1.00  0.00     0.168 HD
HETATM   41  N   UNL     1      18.910  21.898 -50.921  1.00  0.00    -0.383 N 
ATOM     42  HN2 UNL     1      19.644  21.595 -50.280  1.00  0.00     0.157 HD
ATOM     43  HN1 UNL     1      19.167  22.554 -51.658  1.00  0.00     0.157 HD
HETATM   44  N   UNL     1      16.622  22.793 -52.798  1.00  0.00    -0.346 N 
HETATM   45  C   UNL     1      15.385  22.787 -53.224  1.00  0.00     0.188 A 
ATOM     46  HN  UNL     1      17.405  23.327 -53.175  1.00  0.00     0.167 HD
ENDBRANCH   1  32
TORSDOF 14
ENDMDL
MODEL 9
REMARK VINA RESULT:    -9.548      6.240     11.656
REMARK INTER + INTRA:         -17.190
REMARK INTER:                 -16.268
REMARK INTRA:                  -0.922
REMARK UNBOUND:                -1.222
REMARK  14 active torsions:
REMARK  status: ('A' for Active; 'I' for Inactive)
REMARK    1  A    between atoms: N_15  and  C_16 
REMARK    2  A    between atoms: C_17  and  O_18 
REMARK    3  A    between atoms: C_20  and  O_21 
REMARK    4  A    between atoms: C_24  and  C_25 
REMARK    5  A    between atoms: C_25  and  O_26 
REMARK    6  A    between atoms: O_26  and  P_27 
REMARK    7  A    between atoms: P_27  and  O_30 
REMARK    8  A    between atoms: O_30  and  P_31 
REMARK    9  A    between atoms: P_31  and  O_34 
REMARK   10  A    between atoms: O_34  and  C_35 
REMARK   11  A    between atoms: C_35  and  C_46 
REMARK   12  A    between atoms: O_37  and  C_39 
REMARK   13  A    between atoms: O_40  and  C_42 
REMARK   14  A    between atoms: O_43  and  C_45 
ROOT
HETATM    1  C   UNL     1      17.992  23.806 -50.910  1.00  0.00     0.262 C 
HETATM    2  C   UNL     1      18.754  22.516 -50.662  1.00  0.00     0.198 C 
HETATM    3  C   UNL     1      17.990  21.551 -51.572  1.00  0.00     0.182 C 
HETATM    4  O   UNL     1      16.643  23.420 -50.990  1.00  0.00    -0.353 OA
HETATM    5  C   UNL     1      16.544  22.055 -51.479  1.00  0.00     0.180 C 
ENDROOT
BRANCH   5   6
HETATM    6  C   UNL     1      15.639  21.268 -50.570  1.00  0.00     0.216 C 
BRANCH   6   7
HETATM    7  O   UNL     1      14.281  21.323 -51.105  1.00  0.00    -0.287 OA
BRANCH   7   8
HETATM    8  P   UNL     1      13.153  20.421 -50.451  1.00  0.00     0.417 P 
HETATM    9  O   UNL     1      12.477  21.200 -49.375  1.00  0.00    -0.624 OA
HETATM   10  O   UNL     1      13.681  19.061 -50.104  1.00  0.00    -0.624 OA
BRANCH   8  11
HETATM   11  O   UNL     1      12.223  20.227 -51.745  1.00  0.00    -0.180 OA
BRANCH  11  12
HETATM   12  P   UNL     1      12.446  19.549 -53.172  1.00  0.00     0.417 P 
HETATM   13  O   UNL     1      11.611  20.243 -54.212  1.00  0.00    -0.624 OA
HETATM   14  O   UNL     1      13.926  19.444 -53.387  1.00  0.00    -0.624 OA
BRANCH  12  15
HETATM   15  O   UNL     1      11.850  18.098 -53.004  1.00  0.00    -0.287 OA
BRANCH  15  16
HETATM   16  C   UNL     1      11.101  17.746 -51.826  1.00  0.00     0.216 C 
BRANCH  16  17
HETATM   17  C   UNL     1      10.614  16.331 -51.974  1.00  0.00     0.180 C 
HETATM   18  O   UNL     1      11.613  15.432 -51.445  1.00  0.00    -0.349 OA
HETATM   19  C   UNL     1      11.080  14.624 -50.419  1.00  0.00     0.288 C 
HETATM   20  C   UNL     1       9.838  15.378 -49.946  1.00  0.00     0.204 C 
HETATM   21  C   UNL     1       9.311  16.025 -51.225  1.00  0.00     0.182 C 
BRANCH  19  22
HETATM   22  O   UNL     1      12.017  14.442 -49.388  1.00  0.00    -0.369 OA
ATOM     23  HO  UNL     1      11.880  13.610 -48.950  1.00  0.00     0.212 HD
ENDBRANCH  19  22
BRANCH  20  24
HETATM   24  O   UNL     1       8.869  14.549 -49.340  1.00  0.00    -0.388 OA
ATOM     25  HO  UNL     1       8.977  13.627 -49.542  1.00  0.00     0.210 HD
ENDBRANCH  20  24
BRANCH  21  26
HETATM   26  O   UNL     1       8.463  15.182 -51.992  1.00  0.00    -0.390 OA
ATOM     27  HO  UNL     1       7.536  15.333 -51.848  1.00  0.00     0.210 HD
ENDBRANCH  21  26
ENDBRANCH  16  17
ENDBRANCH  15  16
ENDBRANCH  12  15
ENDBRANCH  11  12
ENDBRANCH   8  11
ENDBRANCH   7   8
ENDBRANCH   6   7
ENDBRANCH   5   6
BRANCH   3  28
HETATM   28  O   UNL     1      18.433  21.637 -52.920  1.00  0.00    -0.390 OA
ATOM     29  HO  UNL     1      19.232  21.144 -53.059  1.00  0.00     0.210 HD
ENDBRANCH   3  28
BRANCH   2  30
HETATM   30  O   UNL     1      20.107  22.740 -50.992  1.00  0.00    -0.388 OA
ATOM     31  HO  UNL     1      20.339  23.612 -50.698  1.00  0.00     0.210 HD
ENDBRANCH   2  30
BRANCH   1  32
HETATM   32  N   UNL     1      18.112  24.784 -49.852  1.00  0.00    -0.297 N 
HETATM   33  C   UNL     1      18.979  25.839 -49.824  1.00  0.00     0.142 A 
HETATM   34  N   UNL     1      19.894  26.167 -50.750  1.00  0.00    -0.336 N 
HETATM   35  C   UNL     1      18.720  26.505 -48.644  1.00  0.00     0.122 A 
HETATM   36  C   UNL     1      20.568  27.248 -50.377  1.00  0.00     0.183 A 
ATOM     37  HN  UNL     1      20.050  25.656 -51.619  1.00  0.00     0.168 HD
HETATM   38  N   UNL     1      20.440  27.995 -49.272  1.00  0.00    -0.337 N 
HETATM   39  C   UNL     1      19.491  27.644 -48.369  1.00  0.00     0.131 A 
ATOM     40  HN  UNL     1      21.040  28.804 -49.115  1.00  0.00     0.168 HD
HETATM   41  N   UNL     1      19.339  28.397 -47.286  1.00  0.00    -0.383 N 
ATOM     42  HN2 UNL     1      19.899  29.226 -47.085  1.00  0.00     0.157 HD
ATOM     43  HN1 UNL     1      18.625  28.134 -46.607  1.00  0.00     0.157 HD
HETATM   44  N   UNL     1      17.706  25.858 -47.952  1.00  0.00    -0.346 N 
HETATM   45  C   UNL     1      17.379  24.838 -48.703  1.00  0.00     0.188 A 
ATOM     46  HN  UNL     1      17.302  26.121 -47.053  1.00  0.00     0.167 HD
ENDBRANCH   1  32
TORSDOF 14
ENDMDL
MODEL 10
REMARK VINA RESULT:    -9.542      5.765     10.746
REMARK INTER + INTRA:         -17.180
REMARK INTER:                 -15.767
REMARK INTRA:                  -1.413
REMARK UNBOUND:                -1.222
REMARK  14 active torsions:
REMARK  status: ('A' for Active; 'I' for Inactive)
REMARK    1  A    between atoms: N_15  and  C_16 
REMARK    2  A    between atoms: C_17  and  O_18 
REMARK    3  A    between atoms: C_20  and  O_21 
REMARK    4  A    between atoms: C_24  and  C_25 
REMARK    5  A    between atoms: C_25  and  O_26 
REMARK    6  A    between atoms: O_26  and  P_27 
REMARK    7  A    between atoms: P_27  and  O_30 
REMARK    8  A    between atoms: O_30  and  P_31 
REMARK    9  A    between atoms: P_31  and  O_34 
REMARK   10  A    between atoms: O_34  and  C_35 
REMARK   11  A    between atoms: C_35  and  C_46 
REMARK   12  A    between atoms: O_37  and  C_39 
REMARK   13  A    between atoms: O_40  and  C_42 
REMARK   14  A    between atoms: O_43  and  C_45 
ROOT
HETATM    1  C   UNL     1      16.787  21.994 -51.038  1.00  0.00     0.262 C 
HETATM    2  C   UNL     1      16.240  20.942 -50.089  1.00  0.00     0.198 C 
HETATM    3  C   UNL     1      15.202  20.260 -50.983  1.00  0.00     0.182 C 
HETATM    4  O   UNL     1      15.666  22.463 -51.743  1.00  0.00    -0.353 OA
HETATM    5  C   UNL     1      14.662  21.416 -51.834  1.00  0.00     0.180 C 
ENDROOT
BRANCH   5   6
HETATM    6  C   UNL     1      13.329  21.970 -51.406  1.00  0.00     0.216 C 
BRANCH   6   7
HETATM    7  O   UNL     1      12.288  21.017 -51.780  1.00  0.00    -0.287 OA
BRANCH   7   8
HETATM    8  P   UNL     1      11.445  21.267 -53.099  1.00  0.00     0.417 P 
HETATM    9  O   UNL     1      12.211  22.179 -53.996  1.00  0.00    -0.624 OA
HETATM   10  O   UNL     1      10.028  21.635 -52.774  1.00  0.00    -0.624 OA
BRANCH   8  11
HETATM   11  O   UNL     1      11.405  19.759 -53.646  1.00  0.00    -0.180 OA
BRANCH  11  12
HETATM   12  P   UNL     1      12.519  18.751 -54.186  1.00  0.00     0.417 P 
HETATM   13  O   UNL     1      12.119  18.209 -55.530  1.00  0.00    -0.624 OA
HETATM   14  O   UNL     1      13.843  19.440 -54.051  1.00  0.00    -0.624 OA
BRANCH  12  15
HETATM   15  O   UNL     1      12.466  17.543 -53.174  1.00  0.00    -0.287 OA
BRANCH  15  16
HETATM   16  C   UNL     1      11.498  17.523 -52.106  1.00  0.00     0.216 C 
BRANCH  16  17
HETATM   17  C   UNL     1      10.798  16.193 -52.120  1.00  0.00     0.180 C 
HETATM   18  O   UNL     1      11.685  15.190 -51.577  1.00  0.00    -0.349 OA
HETATM   19  C   UNL     1      11.103  14.544 -50.466  1.00  0.00     0.288 C 
HETATM   20  C   UNL     1      10.019  15.509 -49.988  1.00  0.00     0.204 C 
HETATM   21  C   UNL     1       9.515  16.141 -51.283  1.00  0.00     0.182 C 
BRANCH  19  22
HETATM   22  O   UNL     1      12.065  14.291 -49.474  1.00  0.00    -0.369 OA
ATOM     23  HO  UNL     1      11.937  13.432 -49.090  1.00  0.00     0.212 HD
ENDBRANCH  19  22
BRANCH  20  24
HETATM   24  O   UNL     1       8.978  14.881 -49.270  1.00  0.00    -0.388 OA
ATOM     25  HO  UNL     1       8.174  14.789 -49.767  1.00  0.00     0.210 HD
ENDBRANCH  20  24
BRANCH  21  26
HETATM   26  O   UNL     1       8.504  15.387 -51.938  1.00  0.00    -0.390 OA
ATOM     27  HO  UNL     1       8.574  15.388 -52.885  1.00  0.00     0.210 HD
ENDBRANCH  21  26
ENDBRANCH  16  17
ENDBRANCH  15  16
ENDBRANCH  12  15
ENDBRANCH  11  12
ENDBRANCH   8  11
ENDBRANCH   7   8
ENDBRANCH   6   7
ENDBRANCH   5   6
BRANCH   3  28
HETATM   28  O   UNL     1      15.797  19.288 -51.832  1.00  0.00    -0.390 OA
ATOM     29  HO  UNL     1      16.421  19.680 -52.431  1.00  0.00     0.210 HD
ENDBRANCH   3  28
BRANCH   2  30
HETATM   30  O   UNL     1      17.319  20.136 -49.665  1.00  0.00    -0.388 OA
ATOM     31  HO  UNL     1      18.117  20.502 -50.027  1.00  0.00     0.210 HD
ENDBRANCH   2  30
BRANCH   1  32
HETATM   32  N   UNL     1      17.405  23.126 -50.383  1.00  0.00    -0.297 N 
HETATM   33  C   UNL     1      18.133  24.109 -50.990  1.00  0.00     0.142 A 
HETATM   34  N   UNL     1      18.435  24.213 -52.294  1.00  0.00    -0.336 N 
HETATM   35  C   UNL     1      18.497  24.980 -49.984  1.00  0.00     0.122 A 
HETATM   36  C   UNL     1      19.174  25.293 -52.516  1.00  0.00     0.183 A 
ATOM     37  HN  UNL     1      18.138  23.554 -53.013  1.00  0.00     0.168 HD
HETATM   38  N   UNL     1      19.609  26.222 -51.655  1.00  0.00    -0.337 N 
HETATM   39  C   UNL     1      19.267  26.094 -50.348  1.00  0.00     0.131 A 
ATOM     40  HN  UNL     1      20.181  27.004 -51.973  1.00  0.00     0.168 HD
HETATM   41  N   UNL     1      19.670  27.028 -49.494  1.00  0.00    -0.383 N 
ATOM     42  HN2 UNL     1      20.230  27.838 -49.759  1.00  0.00     0.157 HD
ATOM     43  HN1 UNL     1      19.412  26.932 -48.512  1.00  0.00     0.157 HD
HETATM   44  N   UNL     1      17.998  24.530 -48.770  1.00  0.00    -0.346 N 
HETATM   45  C   UNL     1      17.362  23.422 -49.053  1.00  0.00     0.188 A 
ATOM     46  HN  UNL     1      18.105  24.967 -47.854  1.00  0.00     0.167 HD
ENDBRANCH   1  32
TORSDOF 14
ENDMDL
MODEL 11
REMARK VINA RESULT:    -9.528      5.125     10.259
REMARK INTER + INTRA:         -17.156
REMARK INTER:                 -15.890
REMARK INTRA:                  -1.266
REMARK UNBOUND:                -1.222
REMARK  14 active torsions:
REMARK  status: ('A' for Active; 'I' for Inactive)
REMARK    1  A    between atoms: N_15  and  C_16 
REMARK    2  A    between atoms: C_17  and  O_18 
REMARK    3  A    between atoms: C_20  and  O_21 
REMARK    4  A    between atoms: C_24  and  C_25 
REMARK    5  A    between atoms: C_25  and  O_26 
REMARK    6  A    between atoms: O_26  and  P_27 
REMARK    7  A    between atoms: P_27  and  O_30 
REMARK    8  A    between atoms: O_30  and  P_31 
REMARK    9  A    between atoms: P_31  and  O_34 
REMARK   10  A    between atoms: O_34  and  C_35 
REMARK   11  A    between atoms: C_35  and  C_46 
REMARK   12  A    between atoms: O_37  and  C_39 
REMARK   13  A    between atoms: O_40  and  C_42 
REMARK   14  A    between atoms: O_43  and  C_45 
ROOT
HETATM    1  C   UNL     1      12.050  21.783 -52.537  1.00  0.00     0.262 C 
HETATM    2  C   UNL     1      10.930  21.044 -53.249  1.00  0.00     0.198 C 
HETATM    3  C   UNL     1       9.969  20.789 -52.085  1.00  0.00     0.182 C 
HETATM    4  O   UNL     1      12.185  21.130 -51.301  1.00  0.00    -0.353 OA
HETATM    5  C   UNL     1      10.912  20.556 -50.899  1.00  0.00     0.180 C 
ENDROOT
BRANCH   5   6
HETATM    6  C   UNL     1      11.119  19.118 -50.506  1.00  0.00     0.216 C 
BRANCH   6   7
HETATM    7  O   UNL     1      10.781  18.271 -51.647  1.00  0.00    -0.287 OA
BRANCH   7   8
HETATM    8  P   UNL     1      11.404  16.816 -51.744  1.00  0.00     0.417 P 
HETATM    9  O   UNL     1      11.930  16.426 -50.405  1.00  0.00    -0.624 OA
HETATM   10  O   UNL     1      12.328  16.702 -52.919  1.00  0.00    -0.624 OA
BRANCH   8  11
HETATM   11  O   UNL     1      10.071  16.013 -52.139  1.00  0.00    -0.180 OA
BRANCH  11  12
HETATM   12  P   UNL     1       8.981  15.204 -51.299  1.00  0.00     0.417 P 
HETATM   13  O   UNL     1       7.808  14.856 -52.172  1.00  0.00    -0.624 OA
HETATM   14  O   UNL     1       9.702  14.101 -50.585  1.00  0.00    -0.624 OA
BRANCH  12  15
HETATM   15  O   UNL     1       8.463  16.248 -50.236  1.00  0.00    -0.287 OA
BRANCH  15  16
HETATM   16  C   UNL     1       7.273  15.984 -49.469  1.00  0.00     0.216 C 
BRANCH  16  17
HETATM   17  C   UNL     1       7.497  16.461 -48.061  1.00  0.00     0.180 C 
HETATM   18  O   UNL     1       6.221  16.555 -47.389  1.00  0.00    -0.349 OA
HETATM   19  C   UNL     1       6.199  15.757 -46.226  1.00  0.00     0.288 C 
HETATM   20  C   UNL     1       7.321  14.742 -46.438  1.00  0.00     0.204 C 
HETATM   21  C   UNL     1       8.373  15.537 -47.208  1.00  0.00     0.182 C 
BRANCH  19  22
HETATM   22  O   UNL     1       4.946  15.140 -46.067  1.00  0.00    -0.369 OA
ATOM     23  HO  UNL     1       4.939  14.583 -45.298  1.00  0.00     0.212 HD
ENDBRANCH  19  22
BRANCH  20  24
HETATM   24  O   UNL     1       7.839  14.212 -45.236  1.00  0.00    -0.388 OA
ATOM     25  HO  UNL     1       8.531  13.575 -45.367  1.00  0.00     0.210 HD
ENDBRANCH  20  24
BRANCH  21  26
HETATM   26  O   UNL     1       9.254  16.283 -46.379  1.00  0.00    -0.390 OA
ATOM     27  HO  UNL     1      10.172  16.076 -46.506  1.00  0.00     0.210 HD
ENDBRANCH  21  26
ENDBRANCH  16  17
ENDBRANCH  15  16
ENDBRANCH  12  15
ENDBRANCH  11  12
ENDBRANCH   8  11
ENDBRANCH   7   8
ENDBRANCH   6   7
ENDBRANCH   5   6
BRANCH   3  28
HETATM   28  O   UNL     1       9.151  21.921 -51.822  1.00  0.00    -0.390 OA
ATOM     29  HO  UNL     1       9.661  22.720 -51.777  1.00  0.00     0.210 HD
ENDBRANCH   3  28
BRANCH   2  30
HETATM   30  O   UNL     1      10.447  21.875 -54.281  1.00  0.00    -0.388 OA
ATOM     31  HO  UNL     1      10.899  21.639 -55.082  1.00  0.00     0.210 HD
ENDBRANCH   2  30
BRANCH   1  32
HETATM   32  N   UNL     1      13.327  21.724 -53.212  1.00  0.00    -0.297 N 
HETATM   33  C   UNL     1      14.546  21.977 -52.652  1.00  0.00     0.142 A 
HETATM   34  N   UNL     1      14.802  22.344 -51.386  1.00  0.00    -0.336 N 
HETATM   35  C   UNL     1      15.469  21.776 -53.658  1.00  0.00     0.122 A 
HETATM   36  C   UNL     1      16.106  22.517 -51.205  1.00  0.00     0.183 A 
ATOM     37  HN  UNL     1      14.093  22.472 -50.664  1.00  0.00     0.168 HD
HETATM   38  N   UNL     1      17.115  22.368 -52.073  1.00  0.00    -0.337 N 
HETATM   39  C   UNL     1      16.820  21.977 -53.338  1.00  0.00     0.131 A 
ATOM     40  HN  UNL     1      18.079  22.544 -51.790  1.00  0.00     0.168 HD
HETATM   41  N   UNL     1      17.819  21.799 -54.195  1.00  0.00    -0.383 N 
ATOM     42  HN2 UNL     1      18.801  21.946 -53.963  1.00  0.00     0.157 HD
ATOM     43  HN1 UNL     1      17.597  21.505 -55.146  1.00  0.00     0.157 HD
HETATM   44  N   UNL     1      14.817  21.408 -54.827  1.00  0.00    -0.346 N 
HETATM   45  C   UNL     1      13.547  21.396 -54.518  1.00  0.00     0.188 A 
ATOM     46  HN  UNL     1      15.238  21.193 -55.731  1.00  0.00     0.167 HD
ENDBRANCH   1  32
TORSDOF 14
ENDMDL
MODEL 12
REMARK VINA RESULT:    -9.475      2.169      3.987
REMARK INTER + INTRA:         -17.068
REMARK INTER:                 -15.806
REMARK INTRA:                  -1.262
REMARK UNBOUND:                -1.222
REMARK  14 active torsions:
REMARK  status: ('A' for Active; 'I' for Inactive)
REMARK    1  A    between atoms: N_15  and  C_16 
REMARK    2  A    between atoms: C_17  and  O_18 
REMARK    3  A    between atoms: C_20  and  O_21 
REMARK    4  A    between atoms: C_24  and  C_25 
REMARK    5  A    between atoms: C_25  and  O_26 
REMARK    6  A    between atoms: O_26  and  P_27 
REMARK    7  A    between atoms: P_27  and  O_30 
REMARK    8  A    between atoms: O_30  and  P_31 
REMARK    9  A    between atoms: P_31  and  O_34 
REMARK   10  A    between atoms: O_34  and  C_35 
REMARK   11  A    between atoms: C_35  and  C_46 
REMARK   12  A    between atoms: O_37  and  C_39 
REMARK   13  A    between atoms: O_40  and  C_42 
REMARK   14  A    between atoms: O_43  and  C_45 
ROOT
HETATM    1  C   UNL     1       6.619  14.298 -48.285  1.00  0.00     0.262 C 
HETATM    2  C   UNL     1       6.099  15.358 -49.241  1.00  0.00     0.198 C 
HETATM    3  C   UNL     1       7.249  15.426 -50.248  1.00  0.00     0.182 C 
HETATM    4  O   UNL     1       7.993  14.565 -48.162  1.00  0.00    -0.353 OA
HETATM    5  C   UNL     1       8.489  15.188 -49.377  1.00  0.00     0.180 C 
ENDROOT
BRANCH   5   6
HETATM    6  C   UNL     1       9.275  16.420 -49.017  1.00  0.00     0.216 C 
BRANCH   6   7
HETATM    7  O   UNL     1       9.664  17.101 -50.249  1.00  0.00    -0.287 OA
BRANCH   7   8
HETATM    8  P   UNL     1      10.712  16.411 -51.218  1.00  0.00     0.417 P 
HETATM    9  O   UNL     1       9.978  15.537 -52.178  1.00  0.00    -0.624 OA
HETATM   10  O   UNL     1      11.845  15.806 -50.446  1.00  0.00    -0.624 OA
BRANCH   8  11
HETATM   11  O   UNL     1      11.296  17.733 -51.916  1.00  0.00    -0.180 OA
BRANCH  11  12
HETATM   12  P   UNL     1      11.949  19.078 -51.358  1.00  0.00     0.417 P 
HETATM   13  O   UNL     1      10.918  20.171 -51.304  1.00  0.00    -0.624 OA
HETATM   14  O   UNL     1      12.691  18.724 -50.104  1.00  0.00    -0.624 OA
BRANCH  12  15
HETATM   15  O   UNL     1      12.990  19.489 -52.469  1.00  0.00    -0.287 OA
BRANCH  15  16
HETATM   16  C   UNL     1      13.142  20.868 -52.857  1.00  0.00     0.216 C 
BRANCH  16  17
HETATM   17  C   UNL     1      14.499  21.342 -52.414  1.00  0.00     0.180 C 
HETATM   18  O   UNL     1      14.592  21.224 -50.977  1.00  0.00    -0.349 OA
HETATM   19  C   UNL     1      15.677  20.405 -50.602  1.00  0.00     0.288 C 
HETATM   20  C   UNL     1      15.982  19.579 -51.851  1.00  0.00     0.204 C 
HETATM   21  C   UNL     1      15.672  20.543 -52.994  1.00  0.00     0.182 C 
BRANCH  19  22
HETATM   22  O   UNL     1      15.341  19.600 -49.501  1.00  0.00    -0.369 OA
ATOM     23  HO  UNL     1      15.580  20.025 -48.686  1.00  0.00     0.212 HD
ENDBRANCH  19  22
BRANCH  20  24
HETATM   24  O   UNL     1      17.312  19.108 -51.908  1.00  0.00    -0.388 OA
ATOM     25  HO  UNL     1      17.572  18.611 -51.141  1.00  0.00     0.210 HD
ENDBRANCH  20  24
BRANCH  21  26
HETATM   26  O   UNL     1      16.754  21.397 -53.339  1.00  0.00    -0.390 OA
ATOM     27  HO  UNL     1      16.947  21.420 -54.269  1.00  0.00     0.210 HD
ENDBRANCH  21  26
ENDBRANCH  16  17
ENDBRANCH  15  16
ENDBRANCH  12  15
ENDBRANCH  11  12
ENDBRANCH   8  11
ENDBRANCH   7   8
ENDBRANCH   6   7
ENDBRANCH   5   6
BRANCH   3  28
HETATM   28  O   UNL     1       7.155  14.396 -51.224  1.00  0.00    -0.390 OA
ATOM     29  HO  UNL     1       7.062  13.540 -50.824  1.00  0.00     0.210 HD
ENDBRANCH   3  28
BRANCH   2  30
HETATM   30  O   UNL     1       4.857  14.916 -49.745  1.00  0.00    -0.388 OA
ATOM     31  HO  UNL     1       4.282  14.757 -49.007  1.00  0.00     0.210 HD
ENDBRANCH   2  30
BRANCH   1  32
HETATM   32  N   UNL     1       6.037  14.350 -46.962  1.00  0.00    -0.297 N 
HETATM   33  C   UNL     1       4.871  13.756 -46.571  1.00  0.00     0.142 A 
HETATM   34  N   UNL     1       4.032  13.030 -47.327  1.00  0.00    -0.336 N 
HETATM   35  C   UNL     1       4.731  14.052 -45.231  1.00  0.00     0.122 A 
HETATM   36  C   UNL     1       2.991  12.624 -46.610  1.00  0.00     0.183 A 
ATOM     37  HN  UNL     1       4.174  12.821 -48.315  1.00  0.00     0.168 HD
HETATM   38  N   UNL     1       2.712  12.833 -45.317  1.00  0.00    -0.337 N 
HETATM   39  C   UNL     1       3.593  13.554 -44.580  1.00  0.00     0.131 A 
ATOM     40  HN  UNL     1       1.860  12.460 -44.898  1.00  0.00     0.168 HD
HETATM   41  N   UNL     1       3.337  13.739 -43.290  1.00  0.00    -0.383 N 
ATOM     42  HN2 UNL     1       2.510  13.376 -42.816  1.00  0.00     0.157 HD
ATOM     43  HN1 UNL     1       4.000  14.280 -42.735  1.00  0.00     0.157 HD
HETATM   44  N   UNL     1       5.801  14.828 -44.807  1.00  0.00    -0.346 N 
HETATM   45  C   UNL     1       6.548  14.985 -45.869  1.00  0.00     0.188 A 
ATOM     46  HN  UNL     1       5.969  15.196 -43.870  1.00  0.00     0.167 HD
ENDBRANCH   1  32
TORSDOF 14
ENDMDL
MODEL 13
REMARK VINA RESULT:    -9.432      5.082     10.352
REMARK INTER + INTRA:         -16.996
REMARK INTER:                 -15.729
REMARK INTRA:                  -1.267
REMARK UNBOUND:                -1.222
REMARK  14 active torsions:
REMARK  status: ('A' for Active; 'I' for Inactive)
REMARK    1  A    between atoms: N_15  and  C_16 
REMARK    2  A    between atoms: C_17  and  O_18 
REMARK    3  A    between atoms: C_20  and  O_21 
REMARK    4  A    between atoms: C_24  and  C_25 
REMARK    5  A    between atoms: C_25  and  O_26 
REMARK    6  A    between atoms: O_26  and  P_27 
REMARK    7  A    between atoms: P_27  and  O_30 
REMARK    8  A    between atoms: O_30  and  P_31 
REMARK    9  A    between atoms: P_31  and  O_34 
REMARK   10  A    between atoms: O_34  and  C_35 
REMARK   11  A    between atoms: C_35  and  C_46 
REMARK   12  A    between atoms: O_37  and  C_39 
REMARK   13  A    between atoms: O_40  and  C_42 
REMARK   14  A    between atoms: O_43  and  C_45 
ROOT
HETATM    1  C   UNL     1      12.710  20.069 -51.718  1.00  0.00     0.262 C 
HETATM    2  C   UNL     1      11.635  20.175 -52.785  1.00  0.00     0.198 C 
HETATM    3  C   UNL     1      10.558  19.257 -52.201  1.00  0.00     0.182 C 
HETATM    4  O   UNL     1      12.702  18.719 -51.329  1.00  0.00    -0.353 OA
HETATM    5  C   UNL     1      11.374  18.156 -51.513  1.00  0.00     0.180 C 
ENDROOT
BRANCH   5   6
HETATM    6  C   UNL     1      11.487  16.861 -52.271  1.00  0.00     0.216 C 
BRANCH   6   7
HETATM    7  O   UNL     1      10.452  15.950 -51.791  1.00  0.00    -0.287 OA
BRANCH   7   8
HETATM    8  P   UNL     1      10.809  14.896 -50.661  1.00  0.00     0.417 P 
HETATM    9  O   UNL     1      12.148  15.231 -50.096  1.00  0.00    -0.624 OA
HETATM   10  O   UNL     1      10.583  13.493 -51.139  1.00  0.00    -0.624 OA
BRANCH   8  11
HETATM   11  O   UNL     1       9.613  15.224 -49.643  1.00  0.00    -0.180 OA
BRANCH  11  12
HETATM   12  P   UNL     1       8.236  16.019 -49.778  1.00  0.00     0.417 P 
HETATM   13  O   UNL     1       8.497  17.497 -49.866  1.00  0.00    -0.624 OA
HETATM   14  O   UNL     1       7.448  15.359 -50.869  1.00  0.00    -0.624 OA
BRANCH  12  15
HETATM   15  O   UNL     1       7.511  15.767 -48.400  1.00  0.00    -0.287 OA
BRANCH  15  16
HETATM   16  C   UNL     1       6.324  16.504 -48.050  1.00  0.00     0.216 C 
BRANCH  16  17
HETATM   17  C   UNL     1       5.996  16.226 -46.609  1.00  0.00     0.180 C 
HETATM   18  O   UNL     1       5.329  14.948 -46.517  1.00  0.00    -0.349 OA
HETATM   19  C   UNL     1       6.026  14.072 -45.659  1.00  0.00     0.288 C 
HETATM   20  C   UNL     1       7.442  14.643 -45.596  1.00  0.00     0.204 C 
HETATM   21  C   UNL     1       7.216  16.151 -45.683  1.00  0.00     0.182 C 
BRANCH  19  22
HETATM   22  O   UNL     1       6.004  12.759 -46.160  1.00  0.00    -0.369 OA
ATOM     23  HO  UNL     1       6.752  12.600 -46.724  1.00  0.00     0.212 HD
ENDBRANCH  19  22
BRANCH  20  24
HETATM   24  O   UNL     1       8.145  14.284 -44.426  1.00  0.00    -0.388 OA
ATOM     25  HO  UNL     1       8.215  14.989 -43.793  1.00  0.00     0.210 HD
ENDBRANCH  20  24
BRANCH  21  26
HETATM   26  O   UNL     1       6.949  16.768 -44.431  1.00  0.00    -0.390 OA
ATOM     27  HO  UNL     1       6.303  16.313 -43.906  1.00  0.00     0.210 HD
ENDBRANCH  21  26
ENDBRANCH  16  17
ENDBRANCH  15  16
ENDBRANCH  12  15
ENDBRANCH  11  12
ENDBRANCH   8  11
ENDBRANCH   7   8
ENDBRANCH   6   7
ENDBRANCH   5   6
BRANCH   3  28
HETATM   28  O   UNL     1       9.764  19.929 -51.233  1.00  0.00    -0.390 OA
ATOM     29  HO  UNL     1       9.879  19.559 -50.366  1.00  0.00     0.210 HD
ENDBRANCH   3  28
BRANCH   2  30
HETATM   30  O   UNL     1      11.286  21.536 -52.917  1.00  0.00    -0.388 OA
ATOM     31  HO  UNL     1      12.079  22.050 -52.832  1.00  0.00     0.210 HD
ENDBRANCH   2  30
BRANCH   1  32
HETATM   32  N   UNL     1      14.042  20.390 -52.178  1.00  0.00    -0.297 N 
HETATM   33  C   UNL     1      15.186  20.342 -51.433  1.00  0.00     0.142 A 
HETATM   34  N   UNL     1      15.301  20.012 -50.137  1.00  0.00    -0.336 N 
HETATM   35  C   UNL     1      16.206  20.704 -52.289  1.00  0.00     0.122 A 
HETATM   36  C   UNL     1      16.567  20.092 -49.746  1.00  0.00     0.183 A 
ATOM     37  HN  UNL     1      14.524  19.738 -49.536  1.00  0.00     0.168 HD
HETATM   38  N   UNL     1      17.657  20.429 -50.448  1.00  0.00    -0.337 N 
HETATM   39  C   UNL     1      17.505  20.738 -51.760  1.00  0.00     0.131 A 
ATOM     40  HN  UNL     1      18.577  20.454 -50.007  1.00  0.00     0.168 HD
HETATM   41  N   UNL     1      18.585  21.044 -52.468  1.00  0.00    -0.383 N 
ATOM     42  HN2 UNL     1      19.530  21.069 -52.084  1.00  0.00     0.157 HD
ATOM     43  HN1 UNL     1      18.470  21.275 -53.455  1.00  0.00     0.157 HD
HETATM   44  N   UNL     1      15.688  20.976 -53.547  1.00  0.00    -0.346 N 
HETATM   45  C   UNL     1      14.400  20.783 -53.434  1.00  0.00     0.188 A 
ATOM     46  HN  UNL     1      16.202  21.264 -54.381  1.00  0.00     0.167 HD
ENDBRANCH   1  32
TORSDOF 14
ENDMDL
MODEL 14
REMARK VINA RESULT:    -9.393      6.422     10.414
REMARK INTER + INTRA:         -16.931
REMARK INTER:                 -15.100
REMARK INTRA:                  -1.831
REMARK UNBOUND:                -1.222
REMARK  14 active torsions:
REMARK  status: ('A' for Active; 'I' for Inactive)
REMARK    1  A    between atoms: N_15  and  C_16 
REMARK    2  A    between atoms: C_17  and  O_18 
REMARK    3  A    between atoms: C_20  and  O_21 
REMARK    4  A    between atoms: C_24  and  C_25 
REMARK    5  A    between atoms: C_25  and  O_26 
REMARK    6  A    between atoms: O_26  and  P_27 
REMARK    7  A    between atoms: P_27  and  O_30 
REMARK    8  A    between atoms: O_30  and  P_31 
REMARK    9  A    between atoms: P_31  and  O_34 
REMARK   10  A    between atoms: O_34  and  C_35 
REMARK   11  A    between atoms: C_35  and  C_46 
REMARK   12  A    between atoms: O_37  and  C_39 
REMARK   13  A    between atoms: O_40  and  C_42 
REMARK   14  A    between atoms: O_43  and  C_45 
ROOT
HETATM    1  C   UNL     1      18.115  21.981 -50.776  1.00  0.00     0.262 C 
HETATM    2  C   UNL     1      17.077  20.977 -50.304  1.00  0.00     0.198 C 
HETATM    3  C   UNL     1      16.907  20.125 -51.564  1.00  0.00     0.182 C 
HETATM    4  O   UNL     1      17.753  22.279 -52.100  1.00  0.00    -0.353 OA
HETATM    5  C   UNL     1      17.072  21.143 -52.699  1.00  0.00     0.180 C 
ENDROOT
BRANCH   5   6
HETATM    6  C   UNL     1      15.795  21.614 -53.340  1.00  0.00     0.216 C 
BRANCH   6   7
HETATM    7  O   UNL     1      15.732  21.078 -54.697  1.00  0.00    -0.287 OA
BRANCH   7   8
HETATM    8  P   UNL     1      14.318  20.875 -55.386  1.00  0.00     0.417 P 
HETATM    9  O   UNL     1      14.517  20.234 -56.717  1.00  0.00    -0.624 OA
HETATM   10  O   UNL     1      13.504  22.132 -55.330  1.00  0.00    -0.624 OA
BRANCH   8  11
HETATM   11  O   UNL     1      13.673  19.872 -54.312  1.00  0.00    -0.180 OA
BRANCH  11  12
HETATM   12  P   UNL     1      12.636  18.662 -54.415  1.00  0.00     0.417 P 
HETATM   13  O   UNL     1      12.313  18.378 -55.855  1.00  0.00    -0.624 OA
HETATM   14  O   UNL     1      13.167  17.550 -53.562  1.00  0.00    -0.624 OA
BRANCH  12  15
HETATM   15  O   UNL     1      11.320  19.229 -53.756  1.00  0.00    -0.287 OA
BRANCH  15  16
HETATM   16  C   UNL     1      11.275  20.577 -53.250  1.00  0.00     0.216 C 
BRANCH  16  17
HETATM   17  C   UNL     1      11.226  20.522 -51.748  1.00  0.00     0.180 C 
HETATM   18  O   UNL     1      10.896  19.177 -51.337  1.00  0.00    -0.349 OA
HETATM   19  C   UNL     1      11.891  18.644 -50.492  1.00  0.00     0.288 C 
HETATM   20  C   UNL     1      13.129  19.495 -50.775  1.00  0.00     0.204 C 
HETATM   21  C   UNL     1      12.547  20.878 -51.056  1.00  0.00     0.182 C 
BRANCH  19  22
HETATM   22  O   UNL     1      12.106  17.283 -50.768  1.00  0.00    -0.369 OA
ATOM     23  HO  UNL     1      12.858  17.168 -51.337  1.00  0.00     0.212 HD
ENDBRANCH  19  22
BRANCH  20  24
HETATM   24  O   UNL     1      14.053  19.521 -49.708  1.00  0.00    -0.388 OA
ATOM     25  HO  UNL     1      14.774  18.910 -49.814  1.00  0.00     0.210 HD
ENDBRANCH  20  24
BRANCH  21  26
HETATM   26  O   UNL     1      12.322  21.658 -49.890  1.00  0.00    -0.390 OA
ATOM     27  HO  UNL     1      12.134  21.146 -49.113  1.00  0.00     0.210 HD
ENDBRANCH  21  26
ENDBRANCH  16  17
ENDBRANCH  15  16
ENDBRANCH  12  15
ENDBRANCH  11  12
ENDBRANCH   8  11
ENDBRANCH   7   8
ENDBRANCH   6   7
ENDBRANCH   5   6
BRANCH   3  28
HETATM   28  O   UNL     1      17.922  19.134 -51.669  1.00  0.00    -0.390 OA
ATOM     29  HO  UNL     1      17.564  18.257 -51.600  1.00  0.00     0.210 HD
ENDBRANCH   3  28
BRANCH   2  30
HETATM   30  O   UNL     1      17.596  20.315 -49.172  1.00  0.00    -0.388 OA
ATOM     31  HO  UNL     1      16.915  20.288 -48.511  1.00  0.00     0.210 HD
ENDBRANCH   2  30
BRANCH   1  32
HETATM   32  N   UNL     1      18.131  23.219 -50.030  1.00  0.00    -0.297 N 
HETATM   33  C   UNL     1      18.593  24.424 -50.478  1.00  0.00     0.142 A 
HETATM   34  N   UNL     1      19.136  24.695 -51.676  1.00  0.00    -0.336 N 
HETATM   35  C   UNL     1      18.386  25.312 -49.443  1.00  0.00     0.122 A 
HETATM   36  C   UNL     1      19.484  25.973 -51.751  1.00  0.00     0.183 A 
ATOM     37  HN  UNL     1      19.263  24.013 -52.423  1.00  0.00     0.168 HD
HETATM   38  N   UNL     1      19.356  26.948 -50.841  1.00  0.00    -0.337 N 
HETATM   39  C   UNL     1      18.785  26.641 -49.650  1.00  0.00     0.131 A 
ATOM     40  HN  UNL     1      19.679  27.895 -51.039  1.00  0.00     0.168 HD
HETATM   41  N   UNL     1      18.627  27.609 -48.755  1.00  0.00    -0.383 N 
ATOM     42  HN2 UNL     1      18.918  28.576 -48.905  1.00  0.00     0.157 HD
ATOM     43  HN1 UNL     1      18.198  27.379 -47.859  1.00  0.00     0.157 HD
HETATM   44  N   UNL     1      17.807  24.654 -48.368  1.00  0.00    -0.346 N 
HETATM   45  C   UNL     1      17.679  23.412 -48.758  1.00  0.00     0.188 A 
ATOM     46  HN  UNL     1      17.538  25.052 -47.467  1.00  0.00     0.167 HD
ENDBRANCH   1  32
TORSDOF 14
ENDMDL
MODEL 15
REMARK VINA RESULT:    -9.369      5.244     10.897
REMARK INTER + INTRA:         -16.889
REMARK INTER:                 -15.393
REMARK INTRA:                  -1.496
REMARK UNBOUND:                -1.222
REMARK  14 active torsions:
REMARK  status: ('A' for Active; 'I' for Inactive)
REMARK    1  A    between atoms: N_15  and  C_16 
REMARK    2  A    between atoms: C_17  and  O_18 
REMARK    3  A    between atoms: C_20  and  O_21 
REMARK    4  A    between atoms: C_24  and  C_25 
REMARK    5  A    between atoms: C_25  and  O_26 
REMARK    6  A    between atoms: O_26  and  P_27 
REMARK    7  A    between atoms: P_27  and  O_30 
REMARK    8  A    between atoms: O_30  and  P_31 
REMARK    9  A    between atoms: P_31  and  O_34 
REMARK   10  A    between atoms: O_34  and  C_35 
REMARK   11  A    between atoms: C_35  and  C_46 
REMARK   12  A    between atoms: O_37  and  C_39 
REMARK   13  A    between atoms: O_40  and  C_42 
REMARK   14  A    between atoms: O_43  and  C_45 
ROOT
HETATM    1  C   UNL     1      14.416  20.785 -50.458  1.00  0.00     0.262 C 
HETATM    2  C   UNL     1      13.377  21.431 -51.357  1.00  0.00     0.198 C 
HETATM    3  C   UNL     1      12.084  20.962 -50.686  1.00  0.00     0.182 C 
HETATM    4  O   UNL     1      13.894  19.517 -50.153  1.00  0.00    -0.353 OA
HETATM    5  C   UNL     1      12.441  19.556 -50.185  1.00  0.00     0.180 C 
ENDROOT
BRANCH   5   6
HETATM    6  C   UNL     1      11.933  18.418 -51.029  1.00  0.00     0.216 C 
BRANCH   6   7
HETATM    7  O   UNL     1      10.827  17.775 -50.325  1.00  0.00    -0.287 OA
BRANCH   7   8
HETATM    8  P   UNL     1      10.363  16.326 -50.769  1.00  0.00     0.417 P 
HETATM    9  O   UNL     1      11.173  15.313 -50.034  1.00  0.00    -0.624 OA
HETATM   10  O   UNL     1      10.292  16.215 -52.263  1.00  0.00    -0.624 OA
BRANCH   8  11
HETATM   11  O   UNL     1       8.845  16.393 -50.250  1.00  0.00    -0.180 OA
BRANCH  11  12
HETATM   12  P   UNL     1       7.727  15.290 -49.964  1.00  0.00     0.417 P 
HETATM   13  O   UNL     1       7.082  14.860 -51.252  1.00  0.00    -0.624 OA
HETATM   14  O   UNL     1       8.348  14.248 -49.084  1.00  0.00    -0.624 OA
BRANCH  12  15
HETATM   15  O   UNL     1       6.627  16.065 -49.141  1.00  0.00    -0.287 OA
BRANCH  15  16
HETATM   16  C   UNL     1       7.003  16.961 -48.078  1.00  0.00     0.216 C 
BRANCH  16  17
HETATM   17  C   UNL     1       6.378  16.475 -46.799  1.00  0.00     0.180 C 
HETATM   18  O   UNL     1       5.889  15.130 -46.997  1.00  0.00    -0.349 OA
HETATM   19  C   UNL     1       6.471  14.236 -46.074  1.00  0.00     0.288 C 
HETATM   20  C   UNL     1       7.738  14.947 -45.600  1.00  0.00     0.204 C 
HETATM   21  C   UNL     1       7.336  16.420 -45.604  1.00  0.00     0.182 C 
BRANCH  19  22
HETATM   22  O   UNL     1       6.750  13.000 -46.682  1.00  0.00    -0.369 OA
ATOM     23  HO  UNL     1       6.878  12.323 -46.028  1.00  0.00     0.212 HD
ENDBRANCH  19  22
BRANCH  20  24
HETATM   24  O   UNL     1       8.180  14.526 -44.327  1.00  0.00    -0.388 OA
ATOM     25  HO  UNL     1       8.944  14.995 -44.015  1.00  0.00     0.210 HD
ENDBRANCH  20  24
BRANCH  21  26
HETATM   26  O   UNL     1       6.694  16.847 -44.410  1.00  0.00    -0.390 OA
ATOM     27  HO  UNL     1       5.751  16.933 -44.489  1.00  0.00     0.210 HD
ENDBRANCH  21  26
ENDBRANCH  16  17
ENDBRANCH  15  16
ENDBRANCH  12  15
ENDBRANCH  11  12
ENDBRANCH   8  11
ENDBRANCH   7   8
ENDBRANCH   6   7
ENDBRANCH   5   6
BRANCH   3  28
HETATM   28  O   UNL     1      11.739  21.782 -49.577  1.00  0.00    -0.390 OA
ATOM     29  HO  UNL     1      12.342  22.510 -49.478  1.00  0.00     0.210 HD
ENDBRANCH   3  28
BRANCH   2  30
HETATM   30  O   UNL     1      13.606  22.823 -51.357  1.00  0.00    -0.388 OA
ATOM     31  HO  UNL     1      13.622  23.116 -50.454  1.00  0.00     0.210 HD
ENDBRANCH   2  30
BRANCH   1  32
HETATM   32  N   UNL     1      15.708  20.596 -51.079  1.00  0.00    -0.297 N 
HETATM   33  C   UNL     1      16.670  21.551 -51.245  1.00  0.00     0.142 A 
HETATM   34  N   UNL     1      16.605  22.844 -50.890  1.00  0.00    -0.336 N 
HETATM   35  C   UNL     1      17.730  20.913 -51.856  1.00  0.00     0.122 A 
HETATM   36  C   UNL     1      17.724  23.475 -51.223  1.00  0.00     0.183 A 
ATOM     37  HN  UNL     1      15.808  23.280 -50.428  1.00  0.00     0.168 HD
HETATM   38  N   UNL     1      18.827  23.002 -51.819  1.00  0.00    -0.337 N 
HETATM   39  C   UNL     1      18.864  21.686 -52.145  1.00  0.00     0.131 A 
ATOM     40  HN  UNL     1      19.617  23.614 -52.021  1.00  0.00     0.168 HD
HETATM   41  N   UNL     1      19.965  21.204 -52.709  1.00  0.00    -0.383 N 
ATOM     42  HN2 UNL     1      20.790  21.766 -52.919  1.00  0.00     0.157 HD
ATOM     43  HN1 UNL     1      19.993  20.214 -52.954  1.00  0.00     0.157 HD
HETATM   44  N   UNL     1      17.415  19.577 -52.066  1.00  0.00    -0.346 N 
HETATM   45  C   UNL     1      16.204  19.435 -51.595  1.00  0.00     0.188 A 
ATOM     46  HN  UNL     1      18.003  18.861 -52.495  1.00  0.00     0.167 HD
ENDBRANCH   1  32
TORSDOF 14
ENDMDL
MODEL 16
REMARK VINA RESULT:    -9.313      6.899     12.405
REMARK INTER + INTRA:         -16.796
REMARK INTER:                 -15.414
REMARK INTRA:                  -1.382
REMARK UNBOUND:                -1.222
REMARK  14 active torsions:
REMARK  status: ('A' for Active; 'I' for Inactive)
REMARK    1  A    between atoms: N_15  and  C_16 
REMARK    2  A    between atoms: C_17  and  O_18 
REMARK    3  A    between atoms: C_20  and  O_21 
REMARK    4  A    between atoms: C_24  and  C_25 
REMARK    5  A    between atoms: C_25  and  O_26 
REMARK    6  A    between atoms: O_26  and  P_27 
REMARK    7  A    between atoms: P_27  and  O_30 
REMARK    8  A    between atoms: O_30  and  P_31 
REMARK    9  A    between atoms: P_31  and  O_34 
REMARK   10  A    between atoms: O_34  and  C_35 
REMARK   11  A    between atoms: C_35  and  C_46 
REMARK   12  A    between atoms: O_37  and  C_39 
REMARK   13  A    between atoms: O_40  and  C_42 
REMARK   14  A    between atoms: O_43  and  C_45 
ROOT
HETATM    1  C   UNL     1      18.928  24.217 -50.244  1.00  0.00     0.262 C 
HETATM    2  C   UNL     1      17.583  24.407 -49.566  1.00  0.00     0.198 C 
HETATM    3  C   UNL     1      17.134  22.954 -49.402  1.00  0.00     0.182 C 
HETATM    4  O   UNL     1      18.729  23.162 -51.151  1.00  0.00    -0.353 OA
HETATM    5  C   UNL     1      17.688  22.274 -50.661  1.00  0.00     0.180 C 
ENDROOT
BRANCH   5   6
HETATM    6  C   UNL     1      16.689  22.029 -51.759  1.00  0.00     0.216 C 
BRANCH   6   7
HETATM    7  O   UNL     1      15.452  21.535 -51.161  1.00  0.00    -0.287 OA
BRANCH   7   8
HETATM    8  P   UNL     1      15.274  19.977 -50.922  1.00  0.00     0.417 P 
HETATM    9  O   UNL     1      15.462  19.688 -49.472  1.00  0.00    -0.624 OA
HETATM   10  O   UNL     1      16.083  19.184 -51.904  1.00  0.00    -0.624 OA
BRANCH   8  11
HETATM   11  O   UNL     1      13.743  19.839 -51.383  1.00  0.00    -0.180 OA
BRANCH  11  12
HETATM   12  P   UNL     1      12.392  20.572 -50.954  1.00  0.00     0.417 P 
HETATM   13  O   UNL     1      12.344  20.740 -49.461  1.00  0.00    -0.624 OA
HETATM   14  O   UNL     1      12.252  21.786 -51.822  1.00  0.00    -0.624 OA
BRANCH  12  15
HETATM   15  O   UNL     1      11.260  19.540 -51.333  1.00  0.00    -0.287 OA
BRANCH  15  16
HETATM   16  C   UNL     1      11.025  18.378 -50.515  1.00  0.00     0.216 C 
BRANCH  16  17
HETATM   17  C   UNL     1      11.186  17.151 -51.371  1.00  0.00     0.180 C 
HETATM   18  O   UNL     1      12.126  16.256 -50.737  1.00  0.00    -0.349 OA
HETATM   19  C   UNL     1      11.546  14.993 -50.498  1.00  0.00     0.288 C 
HETATM   20  C   UNL     1      10.040  15.253 -50.531  1.00  0.00     0.204 C 
HETATM   21  C   UNL     1       9.896  16.351 -51.582  1.00  0.00     0.182 C 
BRANCH  19  22
HETATM   22  O   UNL     1      11.969  14.473 -49.263  1.00  0.00    -0.369 OA
ATOM     23  HO  UNL     1      12.255  15.169 -48.684  1.00  0.00     0.212 HD
ENDBRANCH  19  22
BRANCH  20  24
HETATM   24  O   UNL     1       9.276  14.111 -50.856  1.00  0.00    -0.388 OA
ATOM     25  HO  UNL     1       9.679  13.558 -51.515  1.00  0.00     0.210 HD
ENDBRANCH  20  24
BRANCH  21  26
HETATM   26  O   UNL     1       9.805  15.866 -52.915  1.00  0.00    -0.390 OA
ATOM     27  HO  UNL     1       9.036  15.333 -53.081  1.00  0.00     0.210 HD
ENDBRANCH  21  26
ENDBRANCH  16  17
ENDBRANCH  15  16
ENDBRANCH  12  15
ENDBRANCH  11  12
ENDBRANCH   8  11
ENDBRANCH   7   8
ENDBRANCH   6   7
ENDBRANCH   5   6
BRANCH   3  28
HETATM   28  O   UNL     1      17.711  22.352 -48.250  1.00  0.00    -0.390 OA
ATOM     29  HO  UNL     1      17.499  22.834 -47.460  1.00  0.00     0.210 HD
ENDBRANCH   3  28
BRANCH   2  30
HETATM   30  O   UNL     1      17.796  25.129 -48.372  1.00  0.00    -0.388 OA
ATOM     31  HO  UNL     1      16.961  25.481 -48.090  1.00  0.00     0.210 HD
ENDBRANCH   2  30
BRANCH   1  32
HETATM   32  N   UNL     1      19.387  25.365 -50.994  1.00  0.00    -0.297 N 
HETATM   33  C   UNL     1      20.008  26.467 -50.479  1.00  0.00     0.142 A 
HETATM   34  N   UNL     1      20.297  26.713 -49.191  1.00  0.00    -0.336 N 
HETATM   35  C   UNL     1      20.282  27.280 -51.559  1.00  0.00     0.122 A 
HETATM   36  C   UNL     1      20.890  27.894 -49.065  1.00  0.00     0.183 A 
ATOM     37  HN  UNL     1      20.089  26.082 -48.418  1.00  0.00     0.168 HD
HETATM   38  N   UNL     1      21.215  28.792 -50.005  1.00  0.00    -0.337 N 
HETATM   39  C   UNL     1      20.926  28.499 -51.297  1.00  0.00     0.131 A 
ATOM     40  HN  UNL     1      21.668  29.671 -49.755  1.00  0.00     0.168 HD
HETATM   41  N   UNL     1      21.273  29.371 -52.237  1.00  0.00    -0.383 N 
ATOM     42  HN2 UNL     1      21.741  30.257 -52.046  1.00  0.00     0.157 HD
ATOM     43  HN1 UNL     1      21.055  29.150 -53.208  1.00  0.00     0.157 HD
HETATM   44  N   UNL     1      19.826  26.682 -52.726  1.00  0.00    -0.346 N 
HETATM   45  C   UNL     1      19.296  25.549 -52.342  1.00  0.00     0.188 A 
ATOM     46  HN  UNL     1      19.891  27.047 -53.677  1.00  0.00     0.167 HD
ENDBRANCH   1  32
TORSDOF 14
ENDMDL
MODEL 17
REMARK VINA RESULT:    -9.285      5.173     11.101
REMARK INTER + INTRA:         -16.750
REMARK INTER:                 -15.196
REMARK INTRA:                  -1.554
REMARK UNBOUND:                -1.222
REMARK  14 active torsions:
REMARK  status: ('A' for Active; 'I' for Inactive)
REMARK    1  A    between atoms: N_15  and  C_16 
REMARK    2  A    between atoms: C_17  and  O_18 
REMARK    3  A    between atoms: C_20  and  O_21 
REMARK    4  A    between atoms: C_24  and  C_25 
REMARK    5  A    between atoms: C_25  and  O_26 
REMARK    6  A    between atoms: O_26  and  P_27 
REMARK    7  A    between atoms: P_27  and  O_30 
REMARK    8  A    between atoms: O_30  and  P_31 
REMARK    9  A    between atoms: P_31  and  O_34 
REMARK   10  A    between atoms: O_34  and  C_35 
REMARK   11  A    between atoms: C_35  and  C_46 
REMARK   12  A    between atoms: O_37  and  C_39 
REMARK   13  A    between atoms: O_40  and  C_42 
REMARK   14  A    between atoms: O_43  and  C_45 
ROOT
HETATM    1  C   UNL     1      13.460  20.690 -51.886  1.00  0.00     0.262 C 
HETATM    2  C   UNL     1      13.408  19.568 -52.908  1.00  0.00     0.198 C 
HETATM    3  C   UNL     1      11.907  19.271 -52.932  1.00  0.00     0.182 C 
HETATM    4  O   UNL     1      12.535  20.320 -50.895  1.00  0.00    -0.353 OA
HETATM    5  C   UNL     1      11.481  19.505 -51.478  1.00  0.00     0.180 C 
ENDROOT
BRANCH   5   6
HETATM    6  C   UNL     1      11.298  18.264 -50.646  1.00  0.00     0.216 C 
BRANCH   6   7
HETATM    7  O   UNL     1      10.433  17.340 -51.374  1.00  0.00    -0.287 OA
BRANCH   7   8
HETATM    8  P   UNL     1       9.729  16.155 -50.590  1.00  0.00     0.417 P 
HETATM    9  O   UNL     1      10.688  15.602 -49.591  1.00  0.00    -0.624 OA
HETATM   10  O   UNL     1       9.073  15.195 -51.536  1.00  0.00    -0.624 OA
BRANCH   8  11
HETATM   11  O   UNL     1       8.544  16.994 -49.906  1.00  0.00    -0.180 OA
BRANCH  11  12
HETATM   12  P   UNL     1       7.572  16.723 -48.669  1.00  0.00     0.417 P 
HETATM   13  O   UNL     1       8.367  16.286 -47.471  1.00  0.00    -0.624 OA
HETATM   14  O   UNL     1       6.673  17.915 -48.543  1.00  0.00    -0.624 OA
BRANCH  12  15
HETATM   15  O   UNL     1       6.713  15.480 -49.123  1.00  0.00    -0.287 OA
BRANCH  15  16
HETATM   16  C   UNL     1       5.300  15.426 -48.845  1.00  0.00     0.216 C 
BRANCH  16  17
HETATM   17  C   UNL     1       5.036  14.253 -47.941  1.00  0.00     0.180 C 
HETATM   18  O   UNL     1       6.298  13.726 -47.474  1.00  0.00    -0.349 OA
HETATM   19  C   UNL     1       6.362  13.732 -46.066  1.00  0.00     0.288 C 
HETATM   20  C   UNL     1       5.308  14.753 -45.639  1.00  0.00     0.204 C 
HETATM   21  C   UNL     1       4.214  14.588 -46.691  1.00  0.00     0.182 C 
BRANCH  19  22
HETATM   22  O   UNL     1       7.650  14.081 -45.625  1.00  0.00    -0.369 OA
ATOM     23  HO  UNL     1       7.831  14.997 -45.799  1.00  0.00     0.212 HD
ENDBRANCH  19  22
BRANCH  20  24
HETATM   24  O   UNL     1       4.817  14.545 -44.332  1.00  0.00    -0.388 OA
ATOM     25  HO  UNL     1       4.538  13.652 -44.167  1.00  0.00     0.210 HD
ENDBRANCH  20  24
BRANCH  21  26
HETATM   26  O   UNL     1       3.281  13.557 -46.398  1.00  0.00    -0.390 OA
ATOM     27  HO  UNL     1       3.656  12.684 -46.402  1.00  0.00     0.210 HD
ENDBRANCH  21  26
ENDBRANCH  16  17
ENDBRANCH  15  16
ENDBRANCH  12  15
ENDBRANCH  11  12
ENDBRANCH   8  11
ENDBRANCH   7   8
ENDBRANCH   6   7
ENDBRANCH   5   6
BRANCH   3  28
HETATM   28  O   UNL     1      11.206  20.172 -53.779  1.00  0.00    -0.390 OA
ATOM     29  HO  UNL     1      11.454  21.073 -53.615  1.00  0.00     0.210 HD
ENDBRANCH   3  28
BRANCH   2  30
HETATM   30  O   UNL     1      13.964  20.051 -54.111  1.00  0.00    -0.388 OA
ATOM     31  HO  UNL     1      14.191  20.964 -53.983  1.00  0.00     0.210 HD
ENDBRANCH   2  30
BRANCH   1  32
HETATM   32  N   UNL     1      14.748  20.859 -51.249  1.00  0.00    -0.297 N 
HETATM   33  C   UNL     1      15.753  21.681 -51.671  1.00  0.00     0.142 A 
HETATM   34  N   UNL     1      15.758  22.474 -52.755  1.00  0.00    -0.336 N 
HETATM   35  C   UNL     1      16.769  21.533 -50.749  1.00  0.00     0.122 A 
HETATM   36  C   UNL     1      16.914  23.119 -52.855  1.00  0.00     0.183 A 
ATOM     37  HN  UNL     1      14.982  22.567 -53.410  1.00  0.00     0.168 HD
HETATM   38  N   UNL     1      17.987  23.078 -52.054  1.00  0.00    -0.337 N 
HETATM   39  C   UNL     1      17.938  22.281 -50.958  1.00  0.00     0.131 A 
ATOM     40  HN  UNL     1      18.818  23.631 -52.264  1.00  0.00     0.168 HD
HETATM   41  N   UNL     1      18.986  22.258 -50.143  1.00  0.00    -0.383 N 
ATOM     42  HN2 UNL     1      19.836  22.802 -50.295  1.00  0.00     0.157 HD
ATOM     43  HN1 UNL     1      18.949  21.660 -49.319  1.00  0.00     0.157 HD
HETATM   44  N   UNL     1      16.389  20.622 -49.774  1.00  0.00    -0.346 N 
HETATM   45  C   UNL     1      15.185  20.242 -50.114  1.00  0.00     0.188 A 
ATOM     46  HN  UNL     1      16.932  20.315 -48.966  1.00  0.00     0.167 HD
ENDBRANCH   1  32
TORSDOF 14
ENDMDL
MODEL 18
REMARK VINA RESULT:    -9.261      4.803      9.870
REMARK INTER + INTRA:         -16.710
REMARK INTER:                 -15.245
REMARK INTRA:                  -1.465
REMARK UNBOUND:                -1.222
REMARK  14 active torsions:
REMARK  status: ('A' for Active; 'I' for Inactive)
REMARK    1  A    between atoms: N_15  and  C_16 
REMARK    2  A    between atoms: C_17  and  O_18 
REMARK    3  A    between atoms: C_20  and  O_21 
REMARK    4  A    between atoms: C_24  and  C_25 
REMARK    5  A    between atoms: C_25  and  O_26 
REMARK    6  A    between atoms: O_26  and  P_27 
REMARK    7  A    between atoms: P_27  and  O_30 
REMARK    8  A    between atoms: O_30  and  P_31 
REMARK    9  A    between atoms: P_31  and  O_34 
REMARK   10  A    between atoms: O_34  and  C_35 
REMARK   11  A    between atoms: C_35  and  C_46 
REMARK   12  A    between atoms: O_37  and  C_39 
REMARK   13  A    between atoms: O_40  and  C_42 
REMARK   14  A    between atoms: O_43  and  C_45 
ROOT
HETATM    1  C   UNL     1      12.757  22.118 -52.631  1.00  0.00     0.262 C 
HETATM    2  C   UNL     1      11.922  21.734 -53.840  1.00  0.00     0.198 C 
HETATM    3  C   UNL     1      10.527  21.666 -53.216  1.00  0.00     0.182 C 
HETATM    4  O   UNL     1      12.212  21.381 -51.566  1.00  0.00    -0.353 OA
HETATM    5  C   UNL     1      10.801  21.130 -51.805  1.00  0.00     0.180 C 
ENDROOT
BRANCH   5   6
HETATM    6  C   UNL     1      10.516  19.667 -51.600  1.00  0.00     0.216 C 
BRANCH   6   7
HETATM    7  O   UNL     1      11.757  18.920 -51.792  1.00  0.00    -0.287 OA
BRANCH   7   8
HETATM    8  P   UNL     1      11.852  17.865 -52.972  1.00  0.00     0.417 P 
HETATM    9  O   UNL     1      13.247  17.345 -53.043  1.00  0.00    -0.624 OA
HETATM   10  O   UNL     1      11.242  18.406 -54.231  1.00  0.00    -0.624 OA
BRANCH   8  11
HETATM   11  O   UNL     1      10.819  16.778 -52.402  1.00  0.00    -0.180 OA
BRANCH  11  12
HETATM   12  P   UNL     1      10.868  15.736 -51.194  1.00  0.00     0.417 P 
HETATM   13  O   UNL     1      11.166  14.356 -51.710  1.00  0.00    -0.624 OA
HETATM   14  O   UNL     1      11.761  16.321 -50.141  1.00  0.00    -0.624 OA
BRANCH  12  15
HETATM   15  O   UNL     1       9.388  15.709 -50.650  1.00  0.00    -0.287 OA
BRANCH  15  16
HETATM   16  C   UNL     1       9.071  16.262 -49.359  1.00  0.00     0.216 C 
BRANCH  16  17
HETATM   17  C   UNL     1       7.682  15.827 -48.980  1.00  0.00     0.180 C 
HETATM   18  O   UNL     1       7.767  14.630 -48.175  1.00  0.00    -0.349 OA
HETATM   19  C   UNL     1       7.151  14.816 -46.920  1.00  0.00     0.288 C 
HETATM   20  C   UNL     1       7.110  16.332 -46.735  1.00  0.00     0.204 C 
HETATM   21  C   UNL     1       6.898  16.854 -48.154  1.00  0.00     0.182 C 
BRANCH  19  22
HETATM   22  O   UNL     1       7.881  14.175 -45.905  1.00  0.00    -0.369 OA
ATOM     23  HO  UNL     1       7.621  13.265 -45.825  1.00  0.00     0.212 HD
ENDBRANCH  19  22
BRANCH  20  24
HETATM   24  O   UNL     1       6.093  16.767 -45.858  1.00  0.00    -0.388 OA
ATOM     25  HO  UNL     1       6.420  17.229 -45.095  1.00  0.00     0.210 HD
ENDBRANCH  20  24
BRANCH  21  26
HETATM   26  O   UNL     1       5.535  16.902 -48.555  1.00  0.00    -0.390 OA
ATOM     27  HO  UNL     1       5.194  17.782 -48.660  1.00  0.00     0.210 HD
ENDBRANCH  21  26
ENDBRANCH  16  17
ENDBRANCH  15  16
ENDBRANCH  12  15
ENDBRANCH  11  12
ENDBRANCH   8  11
ENDBRANCH   7   8
ENDBRANCH   6   7
ENDBRANCH   5   6
BRANCH   3  28
HETATM   28  O   UNL     1       9.929  22.953 -53.122  1.00  0.00    -0.390 OA
ATOM     29  HO  UNL     1       9.317  23.004 -52.399  1.00  0.00     0.210 HD
ENDBRANCH   3  28
BRANCH   2  30
HETATM   30  O   UNL     1      12.112  22.721 -54.830  1.00  0.00    -0.388 OA
ATOM     31  HO  UNL     1      12.201  22.282 -55.667  1.00  0.00     0.210 HD
ENDBRANCH   2  30
BRANCH   1  32
HETATM   32  N   UNL     1      14.157  21.774 -52.738  1.00  0.00    -0.297 N 
HETATM   33  C   UNL     1      14.866  21.002 -51.863  1.00  0.00     0.142 A 
HETATM   34  N   UNL     1      14.420  20.430 -50.733  1.00  0.00    -0.336 N 
HETATM   35  C   UNL     1      16.143  20.926 -52.380  1.00  0.00     0.122 A 
HETATM   36  C   UNL     1      15.398  19.765 -50.130  1.00  0.00     0.183 A 
ATOM     37  HN  UNL     1      13.464  20.498 -50.386  1.00  0.00     0.168 HD
HETATM   38  N   UNL     1      16.676  19.605 -50.498  1.00  0.00    -0.337 N 
HETATM   39  C   UNL     1      17.085  20.180 -51.656  1.00  0.00     0.131 A 
ATOM     40  HN  UNL     1      17.323  19.065 -49.924  1.00  0.00     0.168 HD
HETATM   41  N   UNL     1      18.343  20.000 -52.043  1.00  0.00    -0.383 N 
ATOM     42  HN2 UNL     1      19.028  19.458 -51.516  1.00  0.00     0.157 HD
ATOM     43  HN1 UNL     1      18.651  20.433 -52.913  1.00  0.00     0.157 HD
HETATM   44  N   UNL     1      16.215  21.652 -53.561  1.00  0.00    -0.346 N 
HETATM   45  C   UNL     1      15.015  22.143 -53.732  1.00  0.00     0.188 A 
ATOM     46  HN  UNL     1      17.028  21.775 -54.165  1.00  0.00     0.167 HD
ENDBRANCH   1  32
TORSDOF 14
ENDMDL
MODEL 19
REMARK VINA RESULT:    -9.161      5.900     10.949
REMARK INTER + INTRA:         -16.543
REMARK INTER:                 -15.553
REMARK INTRA:                  -0.990
REMARK UNBOUND:                -1.222
REMARK  14 active torsions:
REMARK  status: ('A' for Active; 'I' for Inactive)
REMARK    1  A    between atoms: N_15  and  C_16 
REMARK    2  A    between atoms: C_17  and  O_18 
REMARK    3  A    between atoms: C_20  and  O_21 
REMARK    4  A    between atoms: C_24  and  C_25 
REMARK    5  A    between atoms: C_25  and  O_26 
REMARK    6  A    between atoms: O_26  and  P_27 
REMARK    7  A    between atoms: P_27  and  O_30 
REMARK    8  A    between atoms: O_30  and  P_31 
REMARK    9  A    between atoms: P_31  and  O_34 
REMARK   10  A    between atoms: O_34  and  C_35 
REMARK   11  A    between atoms: C_35  and  C_46 
REMARK   12  A    between atoms: O_37  and  C_39 
REMARK   13  A    between atoms: O_40  and  C_42 
REMARK   14  A    between atoms: O_43  and  C_45 
ROOT
HETATM    1  C   UNL     1      18.142  22.023 -51.032  1.00  0.00     0.262 C 
HETATM    2  C   UNL     1      17.089  21.002 -50.636  1.00  0.00     0.198 C 
HETATM    3  C   UNL     1      16.957  20.206 -51.936  1.00  0.00     0.182 C 
HETATM    4  O   UNL     1      17.821  22.380 -52.352  1.00  0.00    -0.353 OA
HETATM    5  C   UNL     1      17.157  21.273 -53.020  1.00  0.00     0.180 C 
ENDROOT
BRANCH   5   6
HETATM    6  C   UNL     1      15.900  21.773 -53.679  1.00  0.00     0.216 C 
BRANCH   6   7
HETATM    7  O   UNL     1      15.032  20.631 -53.953  1.00  0.00    -0.287 OA
BRANCH   7   8
HETATM    8  P   UNL     1      13.532  20.657 -53.440  1.00  0.00     0.417 P 
HETATM    9  O   UNL     1      12.638  20.205 -54.544  1.00  0.00    -0.624 OA
HETATM   10  O   UNL     1      13.212  21.959 -52.770  1.00  0.00    -0.624 OA
BRANCH   8  11
HETATM   11  O   UNL     1      13.662  19.567 -52.269  1.00  0.00    -0.180 OA
BRANCH  11  12
HETATM   12  P   UNL     1      13.217  19.536 -50.737  1.00  0.00     0.417 P 
HETATM   13  O   UNL     1      14.421  19.371 -49.851  1.00  0.00    -0.624 OA
HETATM   14  O   UNL     1      12.312  20.710 -50.514  1.00  0.00    -0.624 OA
BRANCH  12  15
HETATM   15  O   UNL     1      12.373  18.209 -50.609  1.00  0.00    -0.287 OA
BRANCH  15  16
HETATM   16  C   UNL     1      11.002  18.168 -51.049  1.00  0.00     0.216 C 
BRANCH  16  17
HETATM   17  C   UNL     1      10.714  16.794 -51.589  1.00  0.00     0.180 C 
HETATM   18  O   UNL     1      11.771  15.898 -51.180  1.00  0.00    -0.349 OA
HETATM   19  C   UNL     1      11.259  14.807 -50.448  1.00  0.00     0.288 C 
HETATM   20  C   UNL     1       9.895  15.286 -49.953  1.00  0.00     0.204 C 
HETATM   21  C   UNL     1       9.402  16.178 -51.090  1.00  0.00     0.182 C 
BRANCH  19  22
HETATM   22  O   UNL     1      12.119  14.466 -49.390  1.00  0.00    -0.369 OA
ATOM     23  HO  UNL     1      11.725  14.679 -48.552  1.00  0.00     0.212 HD
ENDBRANCH  19  22
BRANCH  20  24
HETATM   24  O   UNL     1       8.991  14.235 -49.680  1.00  0.00    -0.388 OA
ATOM     25  HO  UNL     1       8.173  14.527 -49.297  1.00  0.00     0.210 HD
ENDBRANCH  20  24
BRANCH  21  26
HETATM   26  O   UNL     1       8.737  15.474 -52.131  1.00  0.00    -0.390 OA
ATOM     27  HO  UNL     1       9.263  15.353 -52.912  1.00  0.00     0.210 HD
ENDBRANCH  21  26
ENDBRANCH  16  17
ENDBRANCH  15  16
ENDBRANCH  12  15
ENDBRANCH  11  12
ENDBRANCH   8  11
ENDBRANCH   7   8
ENDBRANCH   6   7
ENDBRANCH   5   6
BRANCH   3  28
HETATM   28  O   UNL     1      17.973  19.219 -52.054  1.00  0.00    -0.390 OA
ATOM     29  HO  UNL     1      18.829  19.568 -51.834  1.00  0.00     0.210 HD
ENDBRANCH   3  28
BRANCH   2  30
HETATM   30  O   UNL     1      17.573  20.290 -49.519  1.00  0.00    -0.388 OA
ATOM     31  HO  UNL     1      17.069  19.489 -49.442  1.00  0.00     0.210 HD
ENDBRANCH   2  30
BRANCH   1  32
HETATM   32  N   UNL     1      18.136  23.228 -50.233  1.00  0.00    -0.297 N 
HETATM   33  C   UNL     1      18.613  24.450 -50.614  1.00  0.00     0.142 A 
HETATM   34  N   UNL     1      19.192  24.772 -51.781  1.00  0.00    -0.336 N 
HETATM   35  C   UNL     1      18.375  25.293 -49.548  1.00  0.00     0.122 A 
HETATM   36  C   UNL     1      19.543  26.052 -51.790  1.00  0.00     0.183 A 
ATOM     37  HN  UNL     1      19.341  24.123 -52.554  1.00  0.00     0.168 HD
HETATM   38  N   UNL     1      19.388  26.986 -50.843  1.00  0.00    -0.337 N 
HETATM   39  C   UNL     1      18.781  26.629 -49.684  1.00  0.00     0.131 A 
ATOM     40  HN  UNL     1      19.718  27.940 -50.990  1.00  0.00     0.168 HD
HETATM   41  N   UNL     1      18.597  27.558 -48.753  1.00  0.00    -0.383 N 
ATOM     42  HN2 UNL     1      18.892  28.529 -48.852  1.00  0.00     0.157 HD
ATOM     43  HN1 UNL     1      18.140  27.289 -47.882  1.00  0.00     0.157 HD
HETATM   44  N   UNL     1      17.762  24.590 -48.520  1.00  0.00    -0.346 N 
HETATM   45  C   UNL     1      17.645  23.366 -48.968  1.00  0.00     0.188 A 
ATOM     46  HN  UNL     1      17.466  24.949 -47.612  1.00  0.00     0.167 HD
ENDBRANCH   1  32
TORSDOF 14
ENDMDL
MODEL 20
REMARK VINA RESULT:    -8.965      5.752     11.291
REMARK INTER + INTRA:         -16.215
REMARK INTER:                 -14.983
REMARK INTRA:                  -1.232
REMARK UNBOUND:                -1.222
REMARK  14 active torsions:
REMARK  status: ('A' for Active; 'I' for Inactive)
REMARK    1  A    between atoms: N_15  and  C_16 
REMARK    2  A    between atoms: C_17  and  O_18 
REMARK    3  A    between atoms: C_20  and  O_21 
REMARK    4  A    between atoms: C_24  and  C_25 
REMARK    5  A    between atoms: C_25  and  O_26 
REMARK    6  A    between atoms: O_26  and  P_27 
REMARK    7  A    between atoms: P_27  and  O_30 
REMARK    8  A    between atoms: O_30  and  P_31 
REMARK    9  A    between atoms: P_31  and  O_34 
REMARK   10  A    between atoms: O_34  and  C_35 
REMARK   11  A    between atoms: C_35  and  C_46 
REMARK   12  A    between atoms: O_37  and  C_39 
REMARK   13  A    between atoms: O_40  and  C_42 
REMARK   14  A    between atoms: O_43  and  C_45 
ROOT
HETATM    1  C   UNL     1      16.969  21.698 -51.096  1.00  0.00     0.262 C 
HETATM    2  C   UNL     1      16.476  20.569 -50.207  1.00  0.00     0.198 C 
HETATM    3  C   UNL     1      15.555  19.823 -51.174  1.00  0.00     0.182 C 
HETATM    4  O   UNL     1      15.847  22.082 -51.848  1.00  0.00    -0.353 OA
HETATM    5  C   UNL     1      14.952  20.950 -52.022  1.00  0.00     0.180 C 
ENDROOT
BRANCH   5   6
HETATM    6  C   UNL     1      13.553  21.363 -51.653  1.00  0.00     0.216 C 
BRANCH   6   7
HETATM    7  O   UNL     1      12.626  20.339 -52.128  1.00  0.00    -0.287 OA
BRANCH   7   8
HETATM    8  P   UNL     1      11.581  19.709 -51.115  1.00  0.00     0.417 P 
HETATM    9  O   UNL     1      10.315  20.493 -51.179  1.00  0.00    -0.624 OA
HETATM   10  O   UNL     1      12.200  19.489 -49.767  1.00  0.00    -0.624 OA
BRANCH   8  11
HETATM   11  O   UNL     1      11.441  18.260 -51.788  1.00  0.00    -0.180 OA
BRANCH  11  12
HETATM   12  P   UNL     1      10.908  16.848 -51.268  1.00  0.00     0.417 P 
HETATM   13  O   UNL     1      10.240  16.101 -52.389  1.00  0.00    -0.624 OA
HETATM   14  O   UNL     1      12.037  16.190 -50.535  1.00  0.00    -0.624 OA
BRANCH  12  15
HETATM   15  O   UNL     1       9.776  17.223 -50.235  1.00  0.00    -0.287 OA
BRANCH  15  16
HETATM   16  C   UNL     1       9.531  16.392 -49.084  1.00  0.00     0.216 C 
BRANCH  16  17
HETATM   17  C   UNL     1       8.055  16.117 -48.999  1.00  0.00     0.180 C 
HETATM   18  O   UNL     1       7.855  14.773 -48.509  1.00  0.00    -0.349 OA
HETATM   19  C   UNL     1       7.076  14.770 -47.333  1.00  0.00     0.288 C 
HETATM   20  C   UNL     1       7.203  16.192 -46.787  1.00  0.00     0.204 C 
HETATM   21  C   UNL     1       7.290  17.046 -48.050  1.00  0.00     0.182 C 
BRANCH  19  22
HETATM   22  O   UNL     1       7.546  13.807 -46.424  1.00  0.00    -0.369 OA
ATOM     23  HO  UNL     1       7.279  12.934 -46.688  1.00  0.00     0.212 HD
ENDBRANCH  19  22
BRANCH  20  24
HETATM   24  O   UNL     1       6.125  16.580 -45.963  1.00  0.00    -0.388 OA
ATOM     25  HO  UNL     1       5.527  15.870 -45.759  1.00  0.00     0.210 HD
ENDBRANCH  20  24
BRANCH  21  26
HETATM   26  O   UNL     1       6.026  17.406 -48.591  1.00  0.00    -0.390 OA
ATOM     27  HO  UNL     1       5.286  17.090 -48.087  1.00  0.00     0.210 HD
ENDBRANCH  21  26
ENDBRANCH  16  17
ENDBRANCH  15  16
ENDBRANCH  12  15
ENDBRANCH  11  12
ENDBRANCH   8  11
ENDBRANCH   7   8
ENDBRANCH   6   7
ENDBRANCH   5   6
BRANCH   3  28
HETATM   28  O   UNL     1      16.283  18.938 -52.016  1.00  0.00    -0.390 OA
ATOM     29  HO  UNL     1      15.710  18.468 -52.610  1.00  0.00     0.210 HD
ENDBRANCH   3  28
BRANCH   2  30
HETATM   30  O   UNL     1      17.603  19.855 -49.747  1.00  0.00    -0.388 OA
ATOM     31  HO  UNL     1      18.380  20.304 -50.055  1.00  0.00     0.210 HD
ENDBRANCH   2  30
BRANCH   1  32
HETATM   32  N   UNL     1      17.442  22.860 -50.378  1.00  0.00    -0.297 N 
HETATM   33  C   UNL     1      18.097  23.930 -50.919  1.00  0.00     0.142 A 
HETATM   34  N   UNL     1      18.446  24.108 -52.203  1.00  0.00    -0.336 N 
HETATM   35  C   UNL     1      18.326  24.797 -49.871  1.00  0.00     0.122 A 
HETATM   36  C   UNL     1      19.084  25.262 -52.356  1.00  0.00     0.183 A 
ATOM     37  HN  UNL     1      18.249  23.449 -52.955  1.00  0.00     0.168 HD
HETATM   38  N   UNL     1      19.386  26.199 -51.447  1.00  0.00    -0.337 N 
HETATM   39  C   UNL     1      18.999  25.993 -50.164  1.00  0.00     0.131 A 
ATOM     40  HN  UNL     1      19.892  27.043 -51.713  1.00  0.00     0.168 HD
HETATM   41  N   UNL     1      19.268  26.931 -49.263  1.00  0.00    -0.383 N 
ATOM     42  HN2 UNL     1      19.758  27.801 -49.476  1.00  0.00     0.157 HD
ATOM     43  HN1 UNL     1      18.977  26.776 -48.298  1.00  0.00     0.157 HD
HETATM   44  N   UNL     1      17.820  24.259 -48.696  1.00  0.00    -0.346 N 
HETATM   45  C   UNL     1      17.310  23.105 -49.043  1.00  0.00     0.188 A 
ATOM     46  HN  UNL     1      17.841  24.673 -47.763  1.00  0.00     0.167 HD
ENDBRANCH   1  32
TORSDOF 14
ENDMDL
