REMARK  11 active torsions:
REMARK  status: ('A' for Active; 'I' for Inactive)
REMARK    1  A    between atoms: C_2  and  N_4 
REMARK    2  A    between atoms: N_4  and  C_5 
REMARK       I    between atoms: N_4  and  C_7 
REMARK    3  A    between atoms: C_7  and  C_9 
REMARK    4  A    between atoms: C_15  and  O_16 
REMARK    5  A    between atoms: O_16  and  C_17 
REMARK    6  A    between atoms: C_24  and  N_25 
REMARK    7  A    between atoms: N_33  and  C_34 
REMARK    8  A    between atoms: C_34  and  C_35 
REMARK    9  A    between atoms: C_40  and  N_41 
REMARK   10  A    between atoms: N_41  and  S_42 
REMARK   11  A    between atoms: S_42  and  C_45 
ROOT
HETATM    1  C   UNL     1       1.500  -1.516  -5.561  1.00  0.00     0.135 A 
HETATM    2  C   UNL     1       1.707  -2.221  -6.748  1.00  0.00     0.130 A 
HETATM    3  N   UNL     1       1.890  -1.550  -7.917  1.00  0.00    -0.359 N 
ATOM      4  HN  UNL     1       2.047  -2.074  -8.778  1.00  0.00     0.166 HD
HETATM    5  C   UNL     1       1.867  -0.194  -7.954  1.00  0.00     0.182 A 
HETATM    6  N   UNL     1       1.629   0.513  -6.817  1.00  0.00    -0.336 N 
ATOM      7  HN  UNL     1       1.602   1.532  -6.857  1.00  0.00     0.168 HD
HETATM    8  C   UNL     1       1.426  -0.114  -5.628  1.00  0.00     0.140 A 
ENDROOT
BRANCH   8   9
HETATM    9  N   UNL     1       1.068   0.656  -4.478  1.00  0.00    -0.363 N 
HETATM   10  C   UNL     1      -0.011   0.642  -3.469  1.00  0.00     0.135 A 
HETATM   11  C   UNL     1       0.416   1.907  -2.771  1.00  0.00    -0.005 A 
HETATM   12  C   UNL     1       1.481   1.919  -3.834  1.00  0.00     0.135 A 
HETATM   13  C   UNL     1      -0.588   3.067  -2.851  1.00  0.00     0.043 C 
HETATM   14  C   UNL     1       0.930   1.687  -1.341  1.00  0.00     0.043 C 
HETATM   15  C   UNL     1      -1.708   2.854  -1.826  1.00  0.00     0.273 C 
HETATM   16  N   UNL     1      -1.171   2.692  -0.454  1.00  0.00     0.088 N 
HETATM   17  C   UNL     1      -0.260   1.521  -0.384  1.00  0.00     0.273 C 
BRANCH  16  18
HETATM   18  C   UNL     1      -2.317   2.538   0.481  1.00  0.00     0.277 C 
BRANCH  18  19
HETATM   19  C   UNL     1      -1.903   2.599   1.969  1.00  0.00     0.014 C 
HETATM   20  C   UNL     1      -1.006   3.829   2.273  1.00  0.00     0.008 C 
HETATM   21  C   UNL     1      -1.157   4.366   3.715  1.00  0.00     0.021 C 
HETATM   22  C   UNL     1      -1.454   3.253   4.737  1.00  0.00     0.071 C 
HETATM   23  C   UNL     1      -2.754   2.473   4.364  1.00  0.00     0.021 C 
HETATM   24  C   UNL     1      -3.146   2.584   2.876  1.00  0.00     0.008 C 
BRANCH  22  25
HETATM   25  N   UNL     1      -0.276   2.367   4.838  1.00  0.00    -0.215 NA
HETATM   26  H   UNL     1      -0.410   1.494   4.283  1.00  0.00     0.140 HD
BRANCH  25  27
HETATM   27  S   UNL     1       0.048   1.900   6.480  1.00  0.00     0.209 S 
HETATM   28  O   UNL     1       0.326   3.131   7.305  1.00  0.00    -0.211 OA
HETATM   29  O   UNL     1       1.261   1.010   6.496  1.00  0.00    -0.211 OA
BRANCH  27  30
HETATM   30  C   UNL     1      -1.339   1.012   7.179  1.00  0.00     0.153 C 
HETATM   31  C   UNL     1      -1.020   0.536   8.591  1.00  0.00     0.022 C 
ENDBRANCH  27  30
ENDBRANCH  25  27
ENDBRANCH  22  25
ENDBRANCH  18  19
ENDBRANCH  16  18
ENDBRANCH   8   9
BRANCH   1  32
HETATM   32  O   UNL     1       1.393  -2.218  -4.353  1.00  0.00    -0.304 OA
BRANCH  32  33
HETATM   33  C   UNL     1       2.154  -1.945  -3.199  1.00  0.00     0.092 A 
HETATM   34  C   UNL     1       1.721  -2.437  -1.946  1.00  0.00     0.069 A 
HETATM   35  C   UNL     1       2.472  -2.153  -0.793  1.00  0.00     0.062 A 
HETATM   36  C   UNL     1       3.655  -1.410  -0.882  1.00  0.00     0.117 A 
HETATM   37  F   UNL     1       4.377  -1.139   0.238  1.00  0.00    -0.206 F 
HETATM   38  C   UNL     1       4.102  -0.952  -2.123  1.00  0.00     0.045 A 
HETATM   39  C   UNL     1       3.359  -1.216  -3.276  1.00  0.00     0.041 A 
BRANCH  34  40
HETATM   40  C   UNL     1       0.476  -3.226  -1.827  1.00  0.00     0.257 C 
HETATM   41  N   UNL     1       0.456  -4.456  -1.073  1.00  0.00    -0.344 N 
HETATM   42  O   UNL     1      -0.560  -2.849  -2.441  1.00  0.00    -0.267 OA
BRANCH  41  43
HETATM   43  C   UNL     1      -0.562  -4.710  -0.029  1.00  0.00     0.079 C 
HETATM   44  C   UNL     1      -0.488  -3.652   1.080  1.00  0.00     0.032 C 
HETATM   45  C   UNL     1      -1.973  -4.790  -0.625  1.00  0.00     0.032 C 
ENDBRANCH  41  43
BRANCH  41  46
HETATM   46  C   UNL     1       1.419  -5.513  -1.417  1.00  0.00     0.122 C 
HETATM   47  C   UNL     1       2.526  -5.624  -0.368  1.00  0.00     0.026 C 
ENDBRANCH  41  46
ENDBRANCH  34  40
ENDBRANCH  32  33
ENDBRANCH   1  32
TORSDOF 11
