MODEL 1
REMARK VINA RESULT:    -9.903      0.000      0.000
REMARK INTER + INTRA:         -15.016
REMARK INTER:                 -14.534
REMARK INTRA:                  -0.481
REMARK UNBOUND:                -0.481
REMARK  8 active torsions:
REMARK  status: ('A' for Active; 'I' for Inactive)
REMARK    1  A    between atoms: C_1  and  O_7 
REMARK    2  A    between atoms: C_4  and  S_12 
REMARK    3  A    between atoms: O_7  and  C_8 
REMARK    4  A    between atoms: S_12  and  N_13 
REMARK    5  A    between atoms: N_13  and  C_15 
REMARK    6  A    between atoms: C_15  and  C_16 
REMARK    7  A    between atoms: C_16  and  O_17 
REMARK    8  A    between atoms: O_17  and  P_18 
ROOT
HETATM    1  S   UNL     1     -40.983  -3.814  15.461  1.00  0.00     0.258 S 
HETATM    2  O   UNL     1     -39.747  -3.096  15.540  1.00  0.00    -0.201 OA
HETATM    3  O   UNL     1     -41.948  -3.670  16.507  1.00  0.00    -0.201 OA
ENDROOT
BRANCH   1   4
HETATM    4  N   UNL     1     -41.702  -3.357  14.093  1.00  0.00    -0.313 N 
ATOM      5  HN  UNL     1     -42.042  -4.057  13.433  1.00  0.00     0.172 HD
BRANCH   4   6
HETATM    6  C   UNL     1     -41.866  -1.926  13.802  1.00  0.00     0.159 C 
BRANCH   6   7
HETATM    7  C   UNL     1     -42.736  -1.713  12.591  1.00  0.00     0.202 C 
BRANCH   7   8
HETATM    8  O   UNL     1     -41.976  -1.997  11.385  1.00  0.00    -0.281 OA
BRANCH   8   9
HETATM    9  P   UNL     1     -41.607  -0.775  10.396  1.00  0.00     0.422 P 
HETATM   10  O   UNL     1     -40.613   0.085  11.153  1.00  0.00    -0.617 OA
HETATM   11  O   UNL     1     -42.914  -0.059  10.119  1.00  0.00    -0.617 OA
HETATM   12  O   UNL     1     -41.010  -1.414   9.157  1.00  0.00    -0.617 OA
ENDBRANCH   8   9
ENDBRANCH   7   8
ENDBRANCH   6   7
ENDBRANCH   4   6
ENDBRANCH   1   4
BRANCH   1  13
HETATM   13  C   UNL     1     -40.602  -5.528  15.311  1.00  0.00     0.079 A 
HETATM   14  C   UNL     1     -39.296  -5.926  15.072  1.00  0.00     0.028 A 
HETATM   15  C   UNL     1     -38.997  -7.268  14.955  1.00  0.00     0.038 A 
HETATM   16  C   UNL     1     -40.002  -8.217  15.077  1.00  0.00     0.078 A 
HETATM   17  C   UNL     1     -41.308  -7.815  15.315  1.00  0.00     0.038 A 
HETATM   18  C   UNL     1     -41.607  -6.473  15.432  1.00  0.00     0.028 A 
BRANCH  16  19
HETATM   19  O   UNL     1     -39.694  -9.599  14.955  1.00  0.00    -0.255 OA
BRANCH  19  20
HETATM   20  C   UNL     1     -39.985 -10.190  13.804  1.00  0.00     0.530 C 
HETATM   21  F   UNL     1     -41.250 -10.021  13.476  1.00  0.00    -0.144 F 
HETATM   22  F   UNL     1     -39.257  -9.709  12.814  1.00  0.00    -0.144 F 
HETATM   23  F   UNL     1     -39.763 -11.488  13.855  1.00  0.00    -0.144 F 
ENDBRANCH  19  20
ENDBRANCH  16  19
ENDBRANCH   1  13
TORSDOF 8
ENDMDL
MODEL 2
REMARK VINA RESULT:    -9.807      0.772      1.701
REMARK INTER + INTRA:         -14.875
REMARK INTER:                 -14.262
REMARK INTRA:                  -0.613
REMARK UNBOUND:                -0.481
REMARK  8 active torsions:
REMARK  status: ('A' for Active; 'I' for Inactive)
REMARK    1  A    between atoms: C_1  and  O_7 
REMARK    2  A    between atoms: C_4  and  S_12 
REMARK    3  A    between atoms: O_7  and  C_8 
REMARK    4  A    between atoms: S_12  and  N_13 
REMARK    5  A    between atoms: N_13  and  C_15 
REMARK    6  A    between atoms: C_15  and  C_16 
REMARK    7  A    between atoms: C_16  and  O_17 
REMARK    8  A    between atoms: O_17  and  P_18 
ROOT
HETATM    1  S   UNL     1     -41.211  -3.196  15.500  1.00  0.00     0.258 S 
HETATM    2  O   UNL     1     -40.078  -2.412  15.109  1.00  0.00    -0.201 OA
HETATM    3  O   UNL     1     -41.820  -2.966  16.774  1.00  0.00    -0.201 OA
ENDROOT
BRANCH   1   4
HETATM    4  N   UNL     1     -42.351  -2.958  14.386  1.00  0.00    -0.313 N 
ATOM      5  HN  UNL     1     -43.120  -3.621  14.289  1.00  0.00     0.172 HD
BRANCH   4   6
HETATM    6  C   UNL     1     -42.276  -1.780  13.511  1.00  0.00     0.159 C 
BRANCH   6   7
HETATM    7  C   UNL     1     -42.069  -2.181  12.074  1.00  0.00     0.202 C 
BRANCH   7   8
HETATM    8  O   UNL     1     -42.562  -1.132  11.197  1.00  0.00    -0.281 OA
BRANCH   8   9
HETATM    9  P   UNL     1     -41.515  -0.379  10.226  1.00  0.00     0.422 P 
HETATM   10  O   UNL     1     -42.282   0.772   9.603  1.00  0.00    -0.617 OA
HETATM   11  O   UNL     1     -41.078  -1.414   9.207  1.00  0.00    -0.617 OA
HETATM   12  O   UNL     1     -40.381   0.084  11.120  1.00  0.00    -0.617 OA
ENDBRANCH   8   9
ENDBRANCH   7   8
ENDBRANCH   6   7
ENDBRANCH   4   6
ENDBRANCH   1   4
BRANCH   1  13
HETATM   13  C   UNL     1     -40.743  -4.893  15.425  1.00  0.00     0.079 A 
HETATM   14  C   UNL     1     -41.698  -5.881  15.606  1.00  0.00     0.028 A 
HETATM   15  C   UNL     1     -41.332  -7.210  15.546  1.00  0.00     0.038 A 
HETATM   16  C   UNL     1     -40.010  -7.556  15.306  1.00  0.00     0.078 A 
HETATM   17  C   UNL     1     -39.057  -6.565  15.126  1.00  0.00     0.038 A 
HETATM   18  C   UNL     1     -39.423  -5.236  15.185  1.00  0.00     0.028 A 
BRANCH  16  19
HETATM   19  O   UNL     1     -39.633  -8.925  15.245  1.00  0.00    -0.255 OA
BRANCH  19  20
HETATM   20  C   UNL     1     -39.614  -9.500  14.049  1.00  0.00     0.530 C 
HETATM   21  F   UNL     1     -39.612 -10.814  14.141  1.00  0.00    -0.144 F 
HETATM   22  F   UNL     1     -40.666  -9.159  13.330  1.00  0.00    -0.144 F 
HETATM   23  F   UNL     1     -38.544  -9.154  13.361  1.00  0.00    -0.144 F 
ENDBRANCH  19  20
ENDBRANCH  16  19
ENDBRANCH   1  13
TORSDOF 8
ENDMDL
MODEL 3
REMARK VINA RESULT:    -9.247      0.699      1.417
REMARK INTER + INTRA:         -14.054
REMARK INTER:                 -13.734
REMARK INTRA:                  -0.319
REMARK UNBOUND:                -0.481
REMARK  8 active torsions:
REMARK  status: ('A' for Active; 'I' for Inactive)
REMARK    1  A    between atoms: C_1  and  O_7 
REMARK    2  A    between atoms: C_4  and  S_12 
REMARK    3  A    between atoms: O_7  and  C_8 
REMARK    4  A    between atoms: S_12  and  N_13 
REMARK    5  A    between atoms: N_13  and  C_15 
REMARK    6  A    between atoms: C_15  and  C_16 
REMARK    7  A    between atoms: C_16  and  O_17 
REMARK    8  A    between atoms: O_17  and  P_18 
ROOT
HETATM    1  S   UNL     1     -41.029  -3.492  15.504  1.00  0.00     0.258 S 
HETATM    2  O   UNL     1     -39.813  -2.749  15.365  1.00  0.00    -0.201 OA
HETATM    3  O   UNL     1     -41.837  -3.308  16.669  1.00  0.00    -0.201 OA
ENDROOT
BRANCH   1   4
HETATM    4  N   UNL     1     -41.949  -3.122  14.232  1.00  0.00    -0.313 N 
ATOM      5  HN  UNL     1     -42.942  -3.359  14.231  1.00  0.00     0.172 HD
BRANCH   4   6
HETATM    6  C   UNL     1     -41.351  -2.443  13.076  1.00  0.00     0.159 C 
BRANCH   6   7
HETATM    7  C   UNL     1     -41.604  -0.959  13.125  1.00  0.00     0.202 C 
BRANCH   7   8
HETATM    8  O   UNL     1     -41.158  -0.345  11.885  1.00  0.00    -0.281 OA
BRANCH   8   9
HETATM    9  P   UNL     1     -42.005  -0.614  10.538  1.00  0.00     0.422 P 
HETATM   10  O   UNL     1     -43.336  -1.185  10.993  1.00  0.00    -0.617 OA
HETATM   11  O   UNL     1     -41.189  -1.601   9.726  1.00  0.00    -0.617 OA
HETATM   12  O   UNL     1     -42.143   0.736   9.860  1.00  0.00    -0.617 OA
ENDBRANCH   8   9
ENDBRANCH   7   8
ENDBRANCH   6   7
ENDBRANCH   4   6
ENDBRANCH   1   4
BRANCH   1  13
HETATM   13  C   UNL     1     -40.629  -5.205  15.388  1.00  0.00     0.079 A 
HETATM   14  C   UNL     1     -39.340  -5.591  15.056  1.00  0.00     0.028 A 
HETATM   15  C   UNL     1     -39.027  -6.932  14.966  1.00  0.00     0.038 A 
HETATM   16  C   UNL     1     -40.001  -7.890  15.206  1.00  0.00     0.078 A 
HETATM   17  C   UNL     1     -41.290  -7.500  15.536  1.00  0.00     0.038 A 
HETATM   18  C   UNL     1     -41.603  -6.159  15.626  1.00  0.00     0.028 A 
BRANCH  16  19
HETATM   19  O   UNL     1     -39.678  -9.271  15.112  1.00  0.00    -0.255 OA
BRANCH  19  20
HETATM   20  C   UNL     1     -40.013  -9.901  13.993  1.00  0.00     0.530 C 
HETATM   21  F   UNL     1     -39.238  -9.552  12.987  1.00  0.00    -0.144 F 
HETATM   22  F   UNL     1     -39.917 -11.210  14.125  1.00  0.00    -0.144 F 
HETATM   23  F   UNL     1     -41.256  -9.636  13.640  1.00  0.00    -0.144 F 
ENDBRANCH  19  20
ENDBRANCH  16  19
ENDBRANCH   1  13
TORSDOF 8
ENDMDL
MODEL 4
REMARK VINA RESULT:    -8.023      4.477      7.847
REMARK INTER + INTRA:         -12.256
REMARK INTER:                 -12.190
REMARK INTRA:                  -0.066
REMARK UNBOUND:                -0.481
REMARK  8 active torsions:
REMARK  status: ('A' for Active; 'I' for Inactive)
REMARK    1  A    between atoms: C_1  and  O_7 
REMARK    2  A    between atoms: C_4  and  S_12 
REMARK    3  A    between atoms: O_7  and  C_8 
REMARK    4  A    between atoms: S_12  and  N_13 
REMARK    5  A    between atoms: N_13  and  C_15 
REMARK    6  A    between atoms: C_15  and  C_16 
REMARK    7  A    between atoms: C_16  and  O_17 
REMARK    8  A    between atoms: O_17  and  P_18 
ROOT
HETATM    1  S   UNL     1     -42.030  -3.610  15.696  1.00  0.00     0.258 S 
HETATM    2  O   UNL     1     -43.415  -3.542  16.054  1.00  0.00    -0.201 OA
HETATM    3  O   UNL     1     -41.034  -3.307  16.677  1.00  0.00    -0.201 OA
ENDROOT
BRANCH   1   4
HETATM    4  N   UNL     1     -41.750  -5.116  15.193  1.00  0.00    -0.313 N 
ATOM      5  HN  UNL     1     -42.518  -5.693  14.850  1.00  0.00     0.172 HD
BRANCH   4   6
HETATM    6  C   UNL     1     -40.383  -5.651  15.232  1.00  0.00     0.159 C 
BRANCH   6   7
HETATM    7  C   UNL     1     -40.383  -7.125  15.544  1.00  0.00     0.202 C 
BRANCH   7   8
HETATM    8  O   UNL     1     -39.293  -7.775  14.836  1.00  0.00    -0.281 OA
BRANCH   8   9
HETATM    9  P   UNL     1     -39.444  -9.334  14.445  1.00  0.00     0.422 P 
HETATM   10  O   UNL     1     -40.523  -9.391  13.379  1.00  0.00    -0.617 OA
HETATM   11  O   UNL     1     -39.841 -10.045  15.724  1.00  0.00    -0.617 OA
HETATM   12  O   UNL     1     -38.083  -9.764  13.930  1.00  0.00    -0.617 OA
ENDBRANCH   8   9
ENDBRANCH   7   8
ENDBRANCH   6   7
ENDBRANCH   4   6
ENDBRANCH   1   4
BRANCH   1  13
HETATM   13  C   UNL     1     -41.777  -2.537  14.321  1.00  0.00     0.079 A 
HETATM   14  C   UNL     1     -40.844  -1.515  14.406  1.00  0.00     0.028 A 
HETATM   15  C   UNL     1     -40.645  -0.675  13.330  1.00  0.00     0.038 A 
HETATM   16  C   UNL     1     -41.378  -0.853  12.165  1.00  0.00     0.078 A 
HETATM   17  C   UNL     1     -42.311  -1.876  12.084  1.00  0.00     0.038 A 
HETATM   18  C   UNL     1     -42.510  -2.716  13.161  1.00  0.00     0.028 A 
BRANCH  16  19
HETATM   19  O   UNL     1     -41.173   0.013  11.057  1.00  0.00    -0.255 OA
BRANCH  19  20
HETATM   20  C   UNL     1     -41.505  -0.445   9.856  1.00  0.00     0.530 C 
HETATM   21  F   UNL     1     -41.073   0.347   8.897  1.00  0.00    -0.144 F 
HETATM   22  F   UNL     1     -40.995  -1.641   9.635  1.00  0.00    -0.144 F 
HETATM   23  F   UNL     1     -42.812  -0.548   9.720  1.00  0.00    -0.144 F 
ENDBRANCH  19  20
ENDBRANCH  16  19
ENDBRANCH   1  13
TORSDOF 8
ENDMDL
