MODEL 1
REMARK VINA RESULT:    -8.553      0.000      0.000
REMARK INTER + INTRA:          -8.933
REMARK INTER:                  -9.053
REMARK INTRA:                   0.120
REMARK UNBOUND:                 0.120
REMARK  1 active torsions:
REMARK  status: ('A' for Active; 'I' for Inactive)
REMARK    1  A    between atoms: C_4  and  C_7 
ROOT
HETATM    1  C   UNL     1      35.800  39.649  62.801  1.00  0.00     0.010 A 
HETATM    2  C   UNL     1      35.820  38.992  64.026  1.00  0.00     0.002 A 
HETATM    3  C   UNL     1      35.152  37.780  64.204  1.00  0.00     0.014 A 
HETATM    4  C   UNL     1      35.112  39.126  61.689  1.00  0.00    -0.026 A 
HETATM    5  C   UNL     1      34.450  37.905  61.903  1.00  0.00     0.051 A 
HETATM    6  C   UNL     1      34.448  37.219  63.120  1.00  0.00     0.005 A 
HETATM    7  C   UNL     1      33.231  36.023  61.639  1.00  0.00     0.117 A 
HETATM    8  C   UNL     1      33.678  36.028  62.952  1.00  0.00     0.021 A 
HETATM    9  C   UNL     1      33.298  34.941  63.752  1.00  0.00     0.018 A 
HETATM   10  C   UNL     1      32.505  33.952  63.162  1.00  0.00     0.025 A 
HETATM   11  C   UNL     1      32.124  34.073  61.822  1.00  0.00     0.007 A 
HETATM   12  C   UNL     1      31.271  33.008  61.194  1.00  0.00     0.068 C 
HETATM   13  N   UNL     1      32.469  35.107  61.021  1.00  0.00    -0.346 N 
ATOM     14  HN  UNL     1      32.180  35.183  60.047  1.00  0.00     0.167 HD
HETATM   15  N   UNL     1      33.700  37.147  61.035  1.00  0.00    -0.341 N 
ATOM     16  HN  UNL     1      33.518  37.395  60.062  1.00  0.00     0.167 HD
ENDROOT
BRANCH   4  17
HETATM   17  C   UNL     1      35.031  39.763  60.333  1.00  0.00     0.021 A 
HETATM   18  C   UNL     1      33.999  40.826  60.042  1.00  0.00     0.010 A 
HETATM   19  C   UNL     1      35.446  41.199  60.102  1.00  0.00     0.010 A 
ENDBRANCH   4  17
TORSDOF 1
ENDMDL
MODEL 2
REMARK VINA RESULT:    -8.260      0.990      5.415
REMARK INTER + INTRA:          -8.623
REMARK INTER:                  -8.515
REMARK INTRA:                  -0.108
REMARK UNBOUND:                 0.120
REMARK  1 active torsions:
REMARK  status: ('A' for Active; 'I' for Inactive)
REMARK    1  A    between atoms: C_4  and  C_7 
ROOT
HETATM    1  C   UNL     1      33.143  34.133  63.479  1.00  0.00     0.010 A 
HETATM    2  C   UNL     1      33.817  34.778  64.510  1.00  0.00     0.002 A 
HETATM    3  C   UNL     1      34.376  36.041  64.325  1.00  0.00     0.014 A 
HETATM    4  C   UNL     1      32.993  34.721  62.208  1.00  0.00    -0.026 A 
HETATM    5  C   UNL     1      33.569  35.994  62.056  1.00  0.00     0.051 A 
HETATM    6  C   UNL     1      34.252  36.669  63.069  1.00  0.00     0.005 A 
HETATM    7  C   UNL     1      34.259  37.977  61.228  1.00  0.00     0.117 A 
HETATM    8  C   UNL     1      34.688  37.924  62.546  1.00  0.00     0.021 A 
HETATM    9  C   UNL     1      35.399  39.035  63.023  1.00  0.00     0.018 A 
HETATM   10  C   UNL     1      35.613  40.094  62.135  1.00  0.00     0.025 A 
HETATM   11  C   UNL     1      35.124  40.015  60.828  1.00  0.00     0.007 A 
HETATM   12  C   UNL     1      35.359  41.156  59.878  1.00  0.00     0.068 C 
HETATM   13  N   UNL     1      34.437  38.961  60.332  1.00  0.00    -0.346 N 
ATOM     14  HN  UNL     1      34.090  38.918  59.374  1.00  0.00     0.167 HD
HETATM   15  N   UNL     1      33.598  36.821  60.957  1.00  0.00    -0.341 N 
ATOM     16  HN  UNL     1      33.177  36.596  60.056  1.00  0.00     0.167 HD
ENDROOT
BRANCH   4  17
HETATM   17  C   UNL     1      32.288  34.103  61.037  1.00  0.00     0.021 A 
HETATM   18  C   UNL     1      31.193  33.085  61.247  1.00  0.00     0.010 A 
HETATM   19  C   UNL     1      30.850  34.437  60.706  1.00  0.00     0.010 A 
ENDBRANCH   4  17
TORSDOF 1
ENDMDL
MODEL 3
REMARK VINA RESULT:    -7.437      1.123      1.628
REMARK INTER + INTRA:          -7.752
REMARK INTER:                  -7.687
REMARK INTRA:                  -0.065
REMARK UNBOUND:                 0.120
REMARK  1 active torsions:
REMARK  status: ('A' for Active; 'I' for Inactive)
REMARK    1  A    between atoms: C_4  and  C_7 
ROOT
HETATM    1  C   UNL     1      35.033  38.242  63.734  1.00  0.00     0.010 A 
HETATM    2  C   UNL     1      35.111  37.352  64.800  1.00  0.00     0.002 A 
HETATM    3  C   UNL     1      34.519  36.092  64.731  1.00  0.00     0.014 A 
HETATM    4  C   UNL     1      34.360  37.914  62.542  1.00  0.00    -0.026 A 
HETATM    5  C   UNL     1      33.774  36.637  62.506  1.00  0.00     0.051 A 
HETATM    6  C   UNL     1      33.832  35.720  63.557  1.00  0.00     0.005 A 
HETATM    7  C   UNL     1      32.665  34.776  61.869  1.00  0.00     0.117 A 
HETATM    8  C   UNL     1      33.132  34.543  63.154  1.00  0.00     0.021 A 
HETATM    9  C   UNL     1      32.828  33.296  63.719  1.00  0.00     0.018 A 
HETATM   10  C   UNL     1      32.086  32.400  62.942  1.00  0.00     0.025 A 
HETATM   11  C   UNL     1      31.677  32.766  61.657  1.00  0.00     0.007 A 
HETATM   12  C   UNL     1      30.879  31.800  60.828  1.00  0.00     0.068 C 
HETATM   13  N   UNL     1      31.948  33.959  61.081  1.00  0.00    -0.346 N 
ATOM     14  HN  UNL     1      31.640  34.213  60.143  1.00  0.00     0.167 HD
HETATM   15  N   UNL     1      33.056  36.025  61.504  1.00  0.00    -0.341 N 
ATOM     16  HN  UNL     1      32.845  36.454  60.603  1.00  0.00     0.167 HD
ENDROOT
BRANCH   4  17
HETATM   17  C   UNL     1      34.220  38.806  61.343  1.00  0.00     0.021 A 
HETATM   18  C   UNL     1      34.650  40.252  61.406  1.00  0.00     0.010 A 
HETATM   19  C   UNL     1      35.424  39.287  60.565  1.00  0.00     0.010 A 
ENDBRANCH   4  17
TORSDOF 1
ENDMDL
MODEL 4
REMARK VINA RESULT:    -7.225      1.015      5.759
REMARK INTER + INTRA:          -7.527
REMARK INTER:                  -7.492
REMARK INTRA:                  -0.035
REMARK UNBOUND:                 0.120
REMARK  1 active torsions:
REMARK  status: ('A' for Active; 'I' for Inactive)
REMARK    1  A    between atoms: C_4  and  C_7 
ROOT
HETATM    1  C   UNL     1      32.577  32.490  63.636  1.00  0.00     0.010 A 
HETATM    2  C   UNL     1      33.161  33.100  64.741  1.00  0.00     0.002 A 
HETATM    3  C   UNL     1      33.664  34.398  64.664  1.00  0.00     0.014 A 
HETATM    4  C   UNL     1      32.466  33.149  62.397  1.00  0.00    -0.026 A 
HETATM    5  C   UNL     1      32.984  34.455  62.354  1.00  0.00     0.051 A 
HETATM    6  C   UNL     1      33.577  35.097  63.443  1.00  0.00     0.005 A 
HETATM    7  C   UNL     1      33.617  36.517  61.687  1.00  0.00     0.117 A 
HETATM    8  C   UNL     1      33.976  36.402  63.021  1.00  0.00     0.021 A 
HETATM    9  C   UNL     1      34.603  37.512  63.604  1.00  0.00     0.018 A 
HETATM   10  C   UNL     1      34.811  38.634  62.794  1.00  0.00     0.025 A 
HETATM   11  C   UNL     1      34.398  38.614  61.459  1.00  0.00     0.007 A 
HETATM   12  C   UNL     1      34.625  39.822  60.595  1.00  0.00     0.068 C 
HETATM   13  N   UNL     1      33.793  37.562  60.863  1.00  0.00    -0.346 N 
ATOM     14  HN  UNL     1      33.501  37.562  59.886  1.00  0.00     0.167 HD
HETATM   15  N   UNL     1      33.031  35.350  61.310  1.00  0.00    -0.341 N 
ATOM     16  HN  UNL     1      32.671  35.162  60.374  1.00  0.00     0.167 HD
ENDROOT
BRANCH   4  17
HETATM   17  C   UNL     1      31.858  32.573  61.152  1.00  0.00     0.021 A 
HETATM   18  C   UNL     1      30.661  31.657  61.234  1.00  0.00     0.010 A 
HETATM   19  C   UNL     1      30.506  33.023  60.644  1.00  0.00     0.010 A 
ENDBRANCH   4  17
TORSDOF 1
ENDMDL
MODEL 5
REMARK VINA RESULT:    -7.222     12.140     12.519
REMARK INTER + INTRA:          -7.525
REMARK INTER:                  -7.410
REMARK INTRA:                  -0.115
REMARK UNBOUND:                 0.120
REMARK  1 active torsions:
REMARK  status: ('A' for Active; 'I' for Inactive)
REMARK    1  A    between atoms: C_4  and  C_7 
ROOT
HETATM    1  C   UNL     1      44.816  30.627  58.360  1.00  0.00     0.010 A 
HETATM    2  C   UNL     1      45.688  29.613  58.742  1.00  0.00     0.002 A 
HETATM    3  C   UNL     1      45.251  28.546  59.526  1.00  0.00     0.014 A 
HETATM    4  C   UNL     1      43.461  30.624  58.742  1.00  0.00    -0.026 A 
HETATM    5  C   UNL     1      43.055  29.534  59.533  1.00  0.00     0.051 A 
HETATM    6  C   UNL     1      43.903  28.501  59.935  1.00  0.00     0.005 A 
HETATM    7  C   UNL     1      41.846  28.084  60.771  1.00  0.00     0.117 A 
HETATM    8  C   UNL     1      43.138  27.583  60.717  1.00  0.00     0.021 A 
HETATM    9  C   UNL     1      43.377  26.378  61.394  1.00  0.00     0.018 A 
HETATM   10  C   UNL     1      42.298  25.790  62.062  1.00  0.00     0.025 A 
HETATM   11  C   UNL     1      41.043  26.405  62.035  1.00  0.00     0.007 A 
HETATM   12  C   UNL     1      39.889  25.768  62.755  1.00  0.00     0.068 C 
HETATM   13  N   UNL     1      40.777  27.567  61.395  1.00  0.00    -0.346 N 
ATOM     14  HN  UNL     1      39.856  28.005  61.388  1.00  0.00     0.167 HD
HETATM   15  N   UNL     1      41.819  29.243  60.062  1.00  0.00    -0.341 N 
ATOM     16  HN  UNL     1      40.988  29.823  59.939  1.00  0.00     0.167 HD
ENDROOT
BRANCH   4  17
HETATM   17  C   UNL     1      42.449  31.671  58.383  1.00  0.00     0.021 A 
HETATM   18  C   UNL     1      42.811  32.804  57.452  1.00  0.00     0.010 A 
HETATM   19  C   UNL     1      41.846  31.754  56.998  1.00  0.00     0.010 A 
ENDBRANCH   4  17
TORSDOF 1
ENDMDL
MODEL 6
REMARK VINA RESULT:    -6.818      2.117      2.507
REMARK INTER + INTRA:          -7.097
REMARK INTER:                  -7.007
REMARK INTRA:                  -0.090
REMARK UNBOUND:                 0.120
REMARK  1 active torsions:
REMARK  status: ('A' for Active; 'I' for Inactive)
REMARK    1  A    between atoms: C_4  and  C_7 
ROOT
HETATM    1  C   UNL     1      34.540  38.143  63.839  1.00  0.00     0.010 A 
HETATM    2  C   UNL     1      34.634  37.424  65.026  1.00  0.00     0.002 A 
HETATM    3  C   UNL     1      34.649  36.030  65.024  1.00  0.00     0.014 A 
HETATM    4  C   UNL     1      34.459  37.502  62.588  1.00  0.00    -0.026 A 
HETATM    5  C   UNL     1      34.476  36.097  62.622  1.00  0.00     0.051 A 
HETATM    6  C   UNL     1      34.567  35.345  63.795  1.00  0.00     0.005 A 
HETATM    7  C   UNL     1      34.459  33.913  62.050  1.00  0.00     0.117 A 
HETATM    8  C   UNL     1      34.559  33.963  63.433  1.00  0.00     0.021 A 
HETATM    9  C   UNL     1      34.621  32.734  64.106  1.00  0.00     0.018 A 
HETATM   10  C   UNL     1      34.579  31.571  63.330  1.00  0.00     0.025 A 
HETATM   11  C   UNL     1      34.477  31.666  61.939  1.00  0.00     0.007 A 
HETATM   12  C   UNL     1      34.431  30.413  61.111  1.00  0.00     0.068 C 
HETATM   13  N   UNL     1      34.412  32.832  61.257  1.00  0.00    -0.346 N 
ATOM     14  HN  UNL     1      34.334  32.884  60.241  1.00  0.00     0.167 HD
HETATM   15  N   UNL     1      34.410  35.190  61.589  1.00  0.00    -0.341 N 
ATOM     16  HN  UNL     1      34.335  35.444  60.604  1.00  0.00     0.167 HD
ENDROOT
BRANCH   4  17
HETATM   17  C   UNL     1      34.352  38.190  61.259  1.00  0.00     0.021 A 
HETATM   18  C   UNL     1      34.249  39.694  61.178  1.00  0.00     0.010 A 
HETATM   19  C   UNL     1      35.489  39.012  60.694  1.00  0.00     0.010 A 
ENDBRANCH   4  17
TORSDOF 1
ENDMDL
MODEL 7
REMARK VINA RESULT:    -6.680      2.251      4.406
REMARK INTER + INTRA:          -6.951
REMARK INTER:                  -6.863
REMARK INTRA:                  -0.088
REMARK UNBOUND:                 0.120
REMARK  1 active torsions:
REMARK  status: ('A' for Active; 'I' for Inactive)
REMARK    1  A    between atoms: C_4  and  C_7 
ROOT
HETATM    1  C   UNL     1      34.248  35.025  63.688  1.00  0.00     0.010 A 
HETATM    2  C   UNL     1      34.332  33.795  64.332  1.00  0.00     0.002 A 
HETATM    3  C   UNL     1      33.541  32.718  63.932  1.00  0.00     0.014 A 
HETATM    4  C   UNL     1      33.369  35.240  62.609  1.00  0.00    -0.026 A 
HETATM    5  C   UNL     1      32.587  34.135  62.233  1.00  0.00     0.051 A 
HETATM    6  C   UNL     1      32.645  32.887  62.857  1.00  0.00     0.005 A 
HETATM    7  C   UNL     1      31.115  32.770  61.199  1.00  0.00     0.117 A 
HETATM    8  C   UNL     1      31.715  32.023  62.202  1.00  0.00     0.021 A 
HETATM    9  C   UNL     1      31.299  30.691  62.331  1.00  0.00     0.018 A 
HETATM   10  C   UNL     1      30.320  30.231  61.443  1.00  0.00     0.025 A 
HETATM   11  C   UNL     1      29.799  31.095  60.476  1.00  0.00     0.007 A 
HETATM   12  C   UNL     1      28.747  30.596  59.526  1.00  0.00     0.068 C 
HETATM   13  N   UNL     1      30.174  32.385  60.323  1.00  0.00    -0.346 N 
ATOM     14  HN  UNL     1      29.780  33.004  59.614  1.00  0.00     0.167 HD
HETATM   15  N   UNL     1      31.647  34.020  61.235  1.00  0.00    -0.341 N 
ATOM     16  HN  UNL     1      31.382  34.777  60.604  1.00  0.00     0.167 HD
ENDROOT
BRANCH   4  17
HETATM   17  C   UNL     1      33.206  36.529  61.858  1.00  0.00     0.021 A 
HETATM   18  C   UNL     1      33.952  37.769  62.287  1.00  0.00     0.010 A 
HETATM   19  C   UNL     1      34.317  37.096  61.001  1.00  0.00     0.010 A 
ENDBRANCH   4  17
TORSDOF 1
ENDMDL
MODEL 8
REMARK VINA RESULT:    -6.669     12.133     13.551
REMARK INTER + INTRA:          -6.939
REMARK INTER:                  -7.008
REMARK INTRA:                   0.069
REMARK UNBOUND:                 0.120
REMARK  1 active torsions:
REMARK  status: ('A' for Active; 'I' for Inactive)
REMARK    1  A    between atoms: C_4  and  C_7 
ROOT
HETATM    1  C   UNL     1      43.304  26.312  61.694  1.00  0.00     0.010 A 
HETATM    2  C   UNL     1      44.637  26.628  61.454  1.00  0.00     0.002 A 
HETATM    3  C   UNL     1      44.987  27.745  60.698  1.00  0.00     0.014 A 
HETATM    4  C   UNL     1      42.252  27.102  61.191  1.00  0.00    -0.026 A 
HETATM    5  C   UNL     1      42.640  28.220  60.433  1.00  0.00     0.051 A 
HETATM    6  C   UNL     1      43.968  28.564  60.172  1.00  0.00     0.005 A 
HETATM    7  C   UNL     1      42.638  30.096  59.178  1.00  0.00     0.117 A 
HETATM    8  C   UNL     1      43.966  29.753  59.379  1.00  0.00     0.021 A 
HETATM    9  C   UNL     1      44.930  30.590  58.798  1.00  0.00     0.018 A 
HETATM   10  C   UNL     1      44.471  31.693  58.071  1.00  0.00     0.025 A 
HETATM   11  C   UNL     1      43.098  31.923  57.947  1.00  0.00     0.007 A 
HETATM   12  C   UNL     1      42.611  33.109  57.164  1.00  0.00     0.068 C 
HETATM   13  N   UNL     1      42.141  31.136  58.490  1.00  0.00    -0.346 N 
ATOM     14  HN  UNL     1      41.142  31.315  58.388  1.00  0.00     0.167 HD
HETATM   15  N   UNL     1      41.867  29.173  59.812  1.00  0.00    -0.341 N 
ATOM     16  HN  UNL     1      40.848  29.186  59.824  1.00  0.00     0.167 HD
ENDROOT
BRANCH   4  17
HETATM   17  C   UNL     1      40.789  26.840  61.395  1.00  0.00     0.021 A 
HETATM   18  C   UNL     1      40.256  25.428  61.422  1.00  0.00     0.010 A 
HETATM   19  C   UNL     1      40.258  26.241  62.678  1.00  0.00     0.010 A 
ENDBRANCH   4  17
TORSDOF 1
ENDMDL
MODEL 9
REMARK VINA RESULT:    -6.618      2.541      4.975
REMARK INTER + INTRA:          -6.885
REMARK INTER:                  -6.889
REMARK INTRA:                   0.004
REMARK UNBOUND:                 0.120
REMARK  1 active torsions:
REMARK  status: ('A' for Active; 'I' for Inactive)
REMARK    1  A    between atoms: C_4  and  C_7 
ROOT
HETATM    1  C   UNL     1      34.612  34.376  62.756  1.00  0.00     0.010 A 
HETATM    2  C   UNL     1      35.028  33.053  62.855  1.00  0.00     0.002 A 
HETATM    3  C   UNL     1      34.221  32.009  62.404  1.00  0.00     0.014 A 
HETATM    4  C   UNL     1      33.367  34.723  62.197  1.00  0.00    -0.026 A 
HETATM    5  C   UNL     1      32.579  33.647  61.754  1.00  0.00     0.051 A 
HETATM    6  C   UNL     1      32.965  32.308  61.839  1.00  0.00     0.005 A 
HETATM    7  C   UNL     1      30.917  32.388  60.887  1.00  0.00     0.117 A 
HETATM    8  C   UNL     1      31.914  31.512  61.289  1.00  0.00     0.021 A 
HETATM    9  C   UNL     1      31.676  30.146  61.080  1.00  0.00     0.018 A 
HETATM   10  C   UNL     1      30.461  29.787  60.486  1.00  0.00     0.025 A 
HETATM   11  C   UNL     1      29.542  30.777  60.128  1.00  0.00     0.007 A 
HETATM   12  C   UNL     1      28.239  30.385  59.492  1.00  0.00     0.068 C 
HETATM   13  N   UNL     1      29.736  32.102  60.318  1.00  0.00    -0.346 N 
ATOM     14  HN  UNL     1      29.054  32.812  60.055  1.00  0.00     0.167 HD
HETATM   15  N   UNL     1      31.332  33.650  61.172  1.00  0.00    -0.341 N 
ATOM     16  HN  UNL     1      30.788  34.492  60.980  1.00  0.00     0.167 HD
ENDROOT
BRANCH   4  17
HETATM   17  C   UNL     1      32.833  36.117  62.051  1.00  0.00     0.021 A 
HETATM   18  C   UNL     1      33.342  37.233  62.933  1.00  0.00     0.010 A 
HETATM   19  C   UNL     1      33.672  37.235  61.474  1.00  0.00     0.010 A 
ENDBRANCH   4  17
TORSDOF 1
ENDMDL
MODEL 10
REMARK VINA RESULT:    -6.451     11.265     12.582
REMARK INTER + INTRA:          -6.708
REMARK INTER:                  -6.593
REMARK INTRA:                  -0.115
REMARK UNBOUND:                 0.120
REMARK  1 active torsions:
REMARK  status: ('A' for Active; 'I' for Inactive)
REMARK    1  A    between atoms: C_4  and  C_7 
ROOT
HETATM    1  C   UNL     1      42.281  27.395  62.588  1.00  0.00     0.010 A 
HETATM    2  C   UNL     1      42.921  26.760  61.530  1.00  0.00     0.002 A 
HETATM    3  C   UNL     1      43.259  27.458  60.371  1.00  0.00     0.014 A 
HETATM    4  C   UNL     1      41.947  28.762  62.543  1.00  0.00    -0.026 A 
HETATM    5  C   UNL     1      42.301  29.434  61.360  1.00  0.00     0.051 A 
HETATM    6  C   UNL     1      42.943  28.829  60.278  1.00  0.00     0.005 A 
HETATM    7  C   UNL     1      42.609  31.003  59.766  1.00  0.00     0.117 A 
HETATM    8  C   UNL     1      43.139  29.822  59.271  1.00  0.00     0.021 A 
HETATM    9  C   UNL     1      43.702  29.872  57.987  1.00  0.00     0.018 A 
HETATM   10  C   UNL     1      43.682  31.102  57.322  1.00  0.00     0.025 A 
HETATM   11  C   UNL     1      43.113  32.218  57.941  1.00  0.00     0.007 A 
HETATM   12  C   UNL     1      43.092  33.537  57.220  1.00  0.00     0.068 C 
HETATM   13  N   UNL     1      42.558  32.207  59.174  1.00  0.00    -0.346 N 
ATOM     14  HN  UNL     1      42.143  33.030  59.611  1.00  0.00     0.167 HD
HETATM   15  N   UNL     1      42.116  30.751  61.007  1.00  0.00    -0.341 N 
ATOM     16  HN  UNL     1      41.667  31.449  61.601  1.00  0.00     0.167 HD
ENDROOT
BRANCH   4  17
HETATM   17  C   UNL     1      41.255  29.530  63.630  1.00  0.00     0.021 A 
HETATM   18  C   UNL     1      41.337  29.072  65.067  1.00  0.00     0.010 A 
HETATM   19  C   UNL     1      42.028  30.333  64.653  1.00  0.00     0.010 A 
ENDBRANCH   4  17
TORSDOF 1
ENDMDL
MODEL 11
REMARK VINA RESULT:    -6.387      2.226      6.767
REMARK INTER + INTRA:          -6.641
REMARK INTER:                  -6.515
REMARK INTRA:                  -0.126
REMARK UNBOUND:                 0.120
REMARK  1 active torsions:
REMARK  status: ('A' for Active; 'I' for Inactive)
REMARK    1  A    between atoms: C_4  and  C_7 
ROOT
HETATM    1  C   UNL     1      32.027  31.970  62.948  1.00  0.00     0.010 A 
HETATM    2  C   UNL     1      31.722  32.646  61.772  1.00  0.00     0.002 A 
HETATM    3  C   UNL     1      32.162  33.952  61.557  1.00  0.00     0.014 A 
HETATM    4  C   UNL     1      32.791  32.565  63.970  1.00  0.00    -0.026 A 
HETATM    5  C   UNL     1      33.218  33.881  63.721  1.00  0.00     0.051 A 
HETATM    6  C   UNL     1      32.929  34.589  62.553  1.00  0.00     0.005 A 
HETATM    7  C   UNL     1      34.164  35.924  63.894  1.00  0.00     0.117 A 
HETATM    8  C   UNL     1      33.529  35.881  62.662  1.00  0.00     0.021 A 
HETATM    9  C   UNL     1      33.615  37.033  61.867  1.00  0.00     0.018 A 
HETATM   10  C   UNL     1      34.331  38.119  62.382  1.00  0.00     0.025 A 
HETATM   11  C   UNL     1      34.924  38.026  63.644  1.00  0.00     0.007 A 
HETATM   12  C   UNL     1      35.690  39.197  64.191  1.00  0.00     0.068 C 
HETATM   13  N   UNL     1      34.859  36.934  64.439  1.00  0.00    -0.346 N 
ATOM     14  HN  UNL     1      35.295  36.884  65.360  1.00  0.00     0.167 HD
HETATM   15  N   UNL     1      33.967  34.727  64.507  1.00  0.00    -0.341 N 
ATOM     16  HN  UNL     1      34.327  34.487  65.430  1.00  0.00     0.167 HD
ENDROOT
BRANCH   4  17
HETATM   17  C   UNL     1      33.167  31.918  65.270  1.00  0.00     0.021 A 
HETATM   18  C   UNL     1      33.014  30.428  65.461  1.00  0.00     0.010 A 
HETATM   19  C   UNL     1      34.383  31.027  65.394  1.00  0.00     0.010 A 
ENDBRANCH   4  17
TORSDOF 1
ENDMDL
MODEL 12
REMARK VINA RESULT:    -6.360      9.980     10.749
REMARK INTER + INTRA:          -6.612
REMARK INTER:                  -6.646
REMARK INTRA:                   0.034
REMARK UNBOUND:                 0.120
REMARK  1 active torsions:
REMARK  status: ('A' for Active; 'I' for Inactive)
REMARK    1  A    between atoms: C_4  and  C_7 
ROOT
HETATM    1  C   UNL     1      42.769  29.561  59.114  1.00  0.00     0.010 A 
HETATM    2  C   UNL     1      42.672  28.483  59.987  1.00  0.00     0.002 A 
HETATM    3  C   UNL     1      42.271  28.662  61.311  1.00  0.00     0.014 A 
HETATM    4  C   UNL     1      42.466  30.875  59.520  1.00  0.00    -0.026 A 
HETATM    5  C   UNL     1      42.066  31.019  60.860  1.00  0.00     0.051 A 
HETATM    6  C   UNL     1      41.959  29.960  61.763  1.00  0.00     0.005 A 
HETATM    7  C   UNL     1      41.383  31.860  62.841  1.00  0.00     0.117 A 
HETATM    8  C   UNL     1      41.526  30.492  63.016  1.00  0.00     0.021 A 
HETATM    9  C   UNL     1      41.234  29.985  64.290  1.00  0.00     0.018 A 
HETATM   10  C   UNL     1      40.826  30.897  65.270  1.00  0.00     0.025 A 
HETATM   11  C   UNL     1      40.725  32.255  64.956  1.00  0.00     0.007 A 
HETATM   12  C   UNL     1      40.287  33.230  66.012  1.00  0.00     0.068 C 
HETATM   13  N   UNL     1      41.000  32.780  63.740  1.00  0.00    -0.346 N 
ATOM     14  HN  UNL     1      40.925  33.774  63.528  1.00  0.00     0.167 HD
HETATM   15  N   UNL     1      41.709  32.152  61.554  1.00  0.00    -0.341 N 
ATOM     16  HN  UNL     1      41.692  33.091  61.155  1.00  0.00     0.167 HD
ENDROOT
BRANCH   4  17
HETATM   17  C   UNL     1      42.544  32.097  58.654  1.00  0.00     0.021 A 
HETATM   18  C   UNL     1      43.520  32.164  57.504  1.00  0.00     0.010 A 
HETATM   19  C   UNL     1      42.052  32.091  57.224  1.00  0.00     0.010 A 
ENDBRANCH   4  17
TORSDOF 1
ENDMDL
MODEL 13
REMARK VINA RESULT:    -6.311     11.282     11.978
REMARK INTER + INTRA:          -6.560
REMARK INTER:                  -6.559
REMARK INTRA:                  -0.001
REMARK UNBOUND:                 0.120
REMARK  1 active torsions:
REMARK  status: ('A' for Active; 'I' for Inactive)
REMARK    1  A    between atoms: C_4  and  C_7 
ROOT
HETATM    1  C   UNL     1      43.752  30.592  57.751  1.00  0.00     0.010 A 
HETATM    2  C   UNL     1      42.819  31.620  57.673  1.00  0.00     0.002 A 
HETATM    3  C   UNL     1      42.077  32.006  58.789  1.00  0.00     0.014 A 
HETATM    4  C   UNL     1      43.993  29.898  58.952  1.00  0.00    -0.026 A 
HETATM    5  C   UNL     1      43.228  30.311  60.056  1.00  0.00     0.051 A 
HETATM    6  C   UNL     1      42.283  31.338  60.013  1.00  0.00     0.005 A 
HETATM    7  C   UNL     1      42.331  30.519  62.118  1.00  0.00     0.117 A 
HETATM    8  C   UNL     1      41.716  31.470  61.317  1.00  0.00     0.021 A 
HETATM    9  C   UNL     1      40.750  32.281  61.930  1.00  0.00     0.018 A 
HETATM   10  C   UNL     1      40.491  32.063  63.287  1.00  0.00     0.025 A 
HETATM   11  C   UNL     1      41.187  31.066  63.976  1.00  0.00     0.007 A 
HETATM   12  C   UNL     1      40.904  30.836  65.434  1.00  0.00     0.068 C 
HETATM   13  N   UNL     1      42.122  30.263  63.419  1.00  0.00    -0.346 N 
ATOM     14  HN  UNL     1      42.618  29.537  63.935  1.00  0.00     0.167 HD
HETATM   15  N   UNL     1      43.224  29.841  61.350  1.00  0.00    -0.341 N 
ATOM     16  HN  UNL     1      43.816  29.082  61.688  1.00  0.00     0.167 HD
ENDROOT
BRANCH   4  17
HETATM   17  C   UNL     1      44.973  28.777  59.132  1.00  0.00     0.021 A 
HETATM   18  C   UNL     1      46.317  28.812  58.445  1.00  0.00     0.010 A 
HETATM   19  C   UNL     1      46.244  28.951  59.933  1.00  0.00     0.010 A 
ENDBRANCH   4  17
TORSDOF 1
ENDMDL
MODEL 14
REMARK VINA RESULT:    -6.293      2.594      4.452
REMARK INTER + INTRA:          -6.541
REMARK INTER:                  -6.425
REMARK INTRA:                  -0.116
REMARK UNBOUND:                 0.120
REMARK  1 active torsions:
REMARK  status: ('A' for Active; 'I' for Inactive)
REMARK    1  A    between atoms: C_4  and  C_7 
ROOT
HETATM    1  C   UNL     1      32.552  35.973  60.761  1.00  0.00     0.010 A 
HETATM    2  C   UNL     1      31.692  34.882  60.817  1.00  0.00     0.002 A 
HETATM    3  C   UNL     1      31.885  33.860  61.746  1.00  0.00     0.014 A 
HETATM    4  C   UNL     1      33.650  36.098  61.633  1.00  0.00    -0.026 A 
HETATM    5  C   UNL     1      33.816  35.051  62.556  1.00  0.00     0.051 A 
HETATM    6  C   UNL     1      32.973  33.942  62.639  1.00  0.00     0.005 A 
HETATM    7  C   UNL     1      34.577  33.722  64.214  1.00  0.00     0.117 A 
HETATM    8  C   UNL     1      33.453  33.101  63.690  1.00  0.00     0.021 A 
HETATM    9  C   UNL     1      33.078  31.881  64.269  1.00  0.00     0.018 A 
HETATM   10  C   UNL     1      33.864  31.397  65.320  1.00  0.00     0.025 A 
HETATM   11  C   UNL     1      34.975  32.127  65.751  1.00  0.00     0.007 A 
HETATM   12  C   UNL     1      35.816  31.601  66.880  1.00  0.00     0.068 C 
HETATM   13  N   UNL     1      35.369  33.305  65.215  1.00  0.00    -0.346 N 
ATOM     14  HN  UNL     1      36.184  33.824  65.539  1.00  0.00     0.167 HD
HETATM   15  N   UNL     1      34.776  34.877  63.527  1.00  0.00    -0.341 N 
ATOM     16  HN  UNL     1      35.537  35.531  63.707  1.00  0.00     0.167 HD
ENDROOT
BRANCH   4  17
HETATM   17  C   UNL     1      34.632  37.233  61.645  1.00  0.00     0.021 A 
HETATM   18  C   UNL     1      34.248  38.588  61.102  1.00  0.00     0.010 A 
HETATM   19  C   UNL     1      34.469  38.417  62.572  1.00  0.00     0.010 A 
ENDBRANCH   4  17
TORSDOF 1
ENDMDL
MODEL 15
REMARK VINA RESULT:    -6.266      2.699      7.016
REMARK INTER + INTRA:          -6.512
REMARK INTER:                  -6.582
REMARK INTRA:                   0.070
REMARK UNBOUND:                 0.120
REMARK  1 active torsions:
REMARK  status: ('A' for Active; 'I' for Inactive)
REMARK    1  A    between atoms: C_4  and  C_7 
ROOT
HETATM    1  C   UNL     1      31.833  31.069  60.987  1.00  0.00     0.010 A 
HETATM    2  C   UNL     1      30.914  32.054  60.643  1.00  0.00     0.002 A 
HETATM    3  C   UNL     1      31.090  33.376  61.051  1.00  0.00     0.014 A 
HETATM    4  C   UNL     1      32.978  31.357  61.756  1.00  0.00    -0.026 A 
HETATM    5  C   UNL     1      33.123  32.698  62.150  1.00  0.00     0.051 A 
HETATM    6  C   UNL     1      32.220  33.711  61.823  1.00  0.00     0.005 A 
HETATM    7  C   UNL     1      33.882  34.624  63.052  1.00  0.00     0.117 A 
HETATM    8  C   UNL     1      32.701  34.930  62.393  1.00  0.00     0.021 A 
HETATM    9  C   UNL     1      32.282  36.267  62.436  1.00  0.00     0.018 A 
HETATM   10  C   UNL     1      33.087  37.173  63.136  1.00  0.00     0.025 A 
HETATM   11  C   UNL     1      34.257  36.727  63.757  1.00  0.00     0.007 A 
HETATM   12  C   UNL     1      35.116  37.704  64.508  1.00  0.00     0.068 C 
HETATM   13  N   UNL     1      34.690  35.446  63.739  1.00  0.00    -0.346 N 
ATOM     14  HN  UNL     1      35.545  35.136  64.200  1.00  0.00     0.167 HD
HETATM   15  N   UNL     1      34.114  33.294  62.896  1.00  0.00    -0.341 N 
ATOM     16  HN  UNL     1      34.919  32.801  63.282  1.00  0.00     0.167 HD
ENDROOT
BRANCH   4  17
HETATM   17  C   UNL     1      34.020  30.363  62.178  1.00  0.00     0.021 A 
HETATM   18  C   UNL     1      34.050  29.833  63.591  1.00  0.00     0.010 A 
HETATM   19  C   UNL     1      33.673  28.920  62.468  1.00  0.00     0.010 A 
ENDBRANCH   4  17
TORSDOF 1
ENDMDL
MODEL 16
REMARK VINA RESULT:    -6.226     11.093     11.551
REMARK INTER + INTRA:          -6.470
REMARK INTER:                  -6.345
REMARK INTRA:                  -0.126
REMARK UNBOUND:                 0.120
REMARK  1 active torsions:
REMARK  status: ('A' for Active; 'I' for Inactive)
REMARK    1  A    between atoms: C_4  and  C_7 
ROOT
HETATM    1  C   UNL     1      43.264  31.863  60.696  1.00  0.00     0.010 A 
HETATM    2  C   UNL     1      43.183  31.811  62.083  1.00  0.00     0.002 A 
HETATM    3  C   UNL     1      42.604  30.719  62.729  1.00  0.00     0.014 A 
HETATM    4  C   UNL     1      42.772  30.824  59.884  1.00  0.00    -0.026 A 
HETATM    5  C   UNL     1      42.194  29.740  60.567  1.00  0.00     0.051 A 
HETATM    6  C   UNL     1      42.095  29.656  61.957  1.00  0.00     0.005 A 
HETATM    7  C   UNL     1      41.184  27.786  61.075  1.00  0.00     0.117 A 
HETATM    8  C   UNL     1      41.458  28.419  62.279  1.00  0.00     0.021 A 
HETATM    9  C   UNL     1      41.072  27.746  63.447  1.00  0.00     0.018 A 
HETATM   10  C   UNL     1      40.448  26.503  63.300  1.00  0.00     0.025 A 
HETATM   11  C   UNL     1      40.233  25.980  62.022  1.00  0.00     0.007 A 
HETATM   12  C   UNL     1      39.562  24.644  61.870  1.00  0.00     0.068 C 
HETATM   13  N   UNL     1      40.589  26.600  60.874  1.00  0.00    -0.346 N 
ATOM     14  HN  UNL     1      40.421  26.207  59.948  1.00  0.00     0.167 HD
HETATM   15  N   UNL     1      41.629  28.587  60.072  1.00  0.00    -0.341 N 
ATOM     16  HN  UNL     1      41.553  28.363  59.080  1.00  0.00     0.167 HD
ENDROOT
BRANCH   4  17
HETATM   17  C   UNL     1      42.811  30.793  58.384  1.00  0.00     0.021 A 
HETATM   18  C   UNL     1      43.715  31.729  57.619  1.00  0.00     0.010 A 
HETATM   19  C   UNL     1      44.010  30.263  57.630  1.00  0.00     0.010 A 
ENDBRANCH   4  17
TORSDOF 1
ENDMDL
MODEL 17
REMARK VINA RESULT:    -6.199     10.765     11.608
REMARK INTER + INTRA:          -6.441
REMARK INTER:                  -6.395
REMARK INTRA:                  -0.047
REMARK UNBOUND:                 0.120
REMARK  1 active torsions:
REMARK  status: ('A' for Active; 'I' for Inactive)
REMARK    1  A    between atoms: C_4  and  C_7 
ROOT
HETATM    1  C   UNL     1      44.602  31.657  64.599  1.00  0.00     0.010 A 
HETATM    2  C   UNL     1      45.776  31.470  63.877  1.00  0.00     0.002 A 
HETATM    3  C   UNL     1      45.766  31.435  62.483  1.00  0.00     0.014 A 
HETATM    4  C   UNL     1      43.357  31.822  63.962  1.00  0.00    -0.026 A 
HETATM    5  C   UNL     1      43.383  31.781  62.558  1.00  0.00     0.051 A 
HETATM    6  C   UNL     1      44.542  31.594  61.802  1.00  0.00     0.005 A 
HETATM    7  C   UNL     1      42.803  31.809  60.376  1.00  0.00     0.117 A 
HETATM    8  C   UNL     1      44.175  31.613  60.422  1.00  0.00     0.021 A 
HETATM    9  C   UNL     1      44.836  31.487  59.191  1.00  0.00     0.018 A 
HETATM   10  C   UNL     1      44.060  31.570  58.031  1.00  0.00     0.025 A 
HETATM   11  C   UNL     1      42.680  31.771  58.130  1.00  0.00     0.007 A 
HETATM   12  C   UNL     1      41.852  31.857  56.879  1.00  0.00     0.068 C 
HETATM   13  N   UNL     1      42.009  31.894  59.297  1.00  0.00    -0.346 N 
ATOM     14  HN  UNL     1      41.001  32.036  59.353  1.00  0.00     0.167 HD
HETATM   15  N   UNL     1      42.353  31.906  61.654  1.00  0.00    -0.341 N 
ATOM     16  HN  UNL     1      41.376  32.052  61.911  1.00  0.00     0.167 HD
ENDROOT
BRANCH   4  17
HETATM   17  C   UNL     1      42.042  32.026  64.654  1.00  0.00     0.021 A 
HETATM   18  C   UNL     1      41.961  32.820  65.936  1.00  0.00     0.010 A 
HETATM   19  C   UNL     1      41.358  33.375  64.685  1.00  0.00     0.010 A 
ENDBRANCH   4  17
TORSDOF 1
ENDMDL
MODEL 18
REMARK VINA RESULT:    -6.092     10.901     11.749
REMARK INTER + INTRA:          -6.328
REMARK INTER:                  -6.203
REMARK INTRA:                  -0.125
REMARK UNBOUND:                 0.120
REMARK  1 active torsions:
REMARK  status: ('A' for Active; 'I' for Inactive)
REMARK    1  A    between atoms: C_4  and  C_7 
ROOT
HETATM    1  C   UNL     1      41.322  33.089  63.927  1.00  0.00     0.010 A 
HETATM    2  C   UNL     1      40.438  32.815  62.890  1.00  0.00     0.002 A 
HETATM    3  C   UNL     1      40.860  32.145  61.742  1.00  0.00     0.014 A 
HETATM    4  C   UNL     1      42.675  32.704  63.871  1.00  0.00    -0.026 A 
HETATM    5  C   UNL     1      43.067  32.032  62.701  1.00  0.00     0.051 A 
HETATM    6  C   UNL     1      42.207  31.742  61.640  1.00  0.00     0.005 A 
HETATM    7  C   UNL     1      44.256  30.946  61.118  1.00  0.00     0.117 A 
HETATM    8  C   UNL     1      42.958  31.053  60.639  1.00  0.00     0.021 A 
HETATM    9  C   UNL     1      42.704  30.503  59.375  1.00  0.00     0.018 A 
HETATM   10  C   UNL     1      43.774  29.896  58.709  1.00  0.00     0.025 A 
HETATM   11  C   UNL     1      45.036  29.858  59.310  1.00  0.00     0.007 A 
HETATM   12  C   UNL     1      46.181  29.205  58.589  1.00  0.00     0.068 C 
HETATM   13  N   UNL     1      45.318  30.380  60.525  1.00  0.00    -0.346 N 
ATOM     14  HN  UNL     1      46.245  30.348  60.948  1.00  0.00     0.167 HD
HETATM   15  N   UNL     1      44.299  31.534  62.342  1.00  0.00    -0.341 N 
ATOM     16  HN  UNL     1      45.136  31.597  62.921  1.00  0.00     0.167 HD
ENDROOT
BRANCH   4  17
HETATM   17  C   UNL     1      43.701  32.958  64.936  1.00  0.00     0.021 A 
HETATM   18  C   UNL     1      43.284  33.423  66.311  1.00  0.00     0.010 A 
HETATM   19  C   UNL     1      43.846  32.047  66.135  1.00  0.00     0.010 A 
ENDBRANCH   4  17
TORSDOF 1
ENDMDL
MODEL 19
REMARK VINA RESULT:    -6.055      4.385      7.479
REMARK INTER + INTRA:          -6.289
REMARK INTER:                  -6.168
REMARK INTRA:                  -0.121
REMARK UNBOUND:                 0.120
REMARK  1 active torsions:
REMARK  status: ('A' for Active; 'I' for Inactive)
REMARK    1  A    between atoms: C_4  and  C_7 
ROOT
HETATM    1  C   UNL     1      34.078  31.451  61.741  1.00  0.00     0.010 A 
HETATM    2  C   UNL     1      34.310  30.308  60.983  1.00  0.00     0.002 A 
HETATM    3  C   UNL     1      33.285  29.709  60.252  1.00  0.00     0.014 A 
HETATM    4  C   UNL     1      32.807  32.054  61.804  1.00  0.00    -0.026 A 
HETATM    5  C   UNL     1      31.798  31.424  61.057  1.00  0.00     0.051 A 
HETATM    6  C   UNL     1      31.995  30.276  60.287  1.00  0.00     0.005 A 
HETATM    7  C   UNL     1      29.828  30.885  60.093  1.00  0.00     0.117 A 
HETATM    8  C   UNL     1      30.750  29.936  59.676  1.00  0.00     0.021 A 
HETATM    9  C   UNL     1      30.279  28.934  58.815  1.00  0.00     0.018 A 
HETATM   10  C   UNL     1      28.928  28.978  58.453  1.00  0.00     0.025 A 
HETATM   11  C   UNL     1      28.108  29.995  58.949  1.00  0.00     0.007 A 
HETATM   12  C   UNL     1      26.658  30.036  58.557  1.00  0.00     0.068 C 
HETATM   13  N   UNL     1      28.526  30.975  59.782  1.00  0.00    -0.346 N 
ATOM     14  HN  UNL     1      27.913  31.708  60.138  1.00  0.00     0.167 HD
HETATM   15  N   UNL     1      30.471  31.758  60.913  1.00  0.00    -0.341 N 
ATOM     16  HN  UNL     1      30.026  32.558  61.363  1.00  0.00     0.167 HD
ENDROOT
BRANCH   4  17
HETATM   17  C   UNL     1      32.462  33.282  62.594  1.00  0.00     0.021 A 
HETATM   18  C   UNL     1      33.542  34.093  63.268  1.00  0.00     0.010 A 
HETATM   19  C   UNL     1      32.806  34.669  62.100  1.00  0.00     0.010 A 
ENDBRANCH   4  17
TORSDOF 1
ENDMDL
MODEL 20
REMARK VINA RESULT:    -5.781      2.705      7.269
REMARK INTER + INTRA:          -5.999
REMARK INTER:                  -6.077
REMARK INTRA:                   0.078
REMARK UNBOUND:                 0.120
REMARK  1 active torsions:
REMARK  status: ('A' for Active; 'I' for Inactive)
REMARK    1  A    between atoms: C_4  and  C_7 
ROOT
HETATM    1  C   UNL     1      31.695  30.620  63.778  1.00  0.00     0.010 A 
HETATM    2  C   UNL     1      31.887  30.759  62.408  1.00  0.00     0.002 A 
HETATM    3  C   UNL     1      32.396  31.940  61.870  1.00  0.00     0.014 A 
HETATM    4  C   UNL     1      32.004  31.655  64.681  1.00  0.00    -0.026 A 
HETATM    5  C   UNL     1      32.514  32.831  64.105  1.00  0.00     0.051 A 
HETATM    6  C   UNL     1      32.719  33.006  62.735  1.00  0.00     0.005 A 
HETATM    7  C   UNL     1      33.347  34.905  63.784  1.00  0.00     0.117 A 
HETATM    8  C   UNL     1      33.247  34.317  62.532  1.00  0.00     0.021 A 
HETATM    9  C   UNL     1      33.657  35.091  61.437  1.00  0.00     0.018 A 
HETATM   10  C   UNL     1      34.128  36.382  61.700  1.00  0.00     0.025 A 
HETATM   11  C   UNL     1      34.175  36.850  63.015  1.00  0.00     0.007 A 
HETATM   12  C   UNL     1      34.682  38.238  63.291  1.00  0.00     0.068 C 
HETATM   13  N   UNL     1      33.787  36.135  64.095  1.00  0.00    -0.346 N 
ATOM     14  HN  UNL     1      33.824  36.493  65.049  1.00  0.00     0.167 HD
HETATM   15  N   UNL     1      32.906  34.006  64.703  1.00  0.00    -0.341 N 
ATOM     16  HN  UNL     1      32.870  34.181  65.708  1.00  0.00     0.167 HD
ENDROOT
BRANCH   4  17
HETATM   17  C   UNL     1      31.828  31.598  66.170  1.00  0.00     0.021 A 
HETATM   18  C   UNL     1      30.635  32.247  66.829  1.00  0.00     0.010 A 
HETATM   19  C   UNL     1      30.748  30.756  66.812  1.00  0.00     0.010 A 
ENDBRANCH   4  17
TORSDOF 1
ENDMDL
