MODEL 1
REMARK VINA RESULT:    -7.173      0.000      0.000
REMARK INTER + INTRA:          -7.382
REMARK INTER:                  -7.382
REMARK INTRA:                   0.000
REMARK UNBOUND:                 0.000
REMARK  1 active torsions:
REMARK  status: ('A' for Active; 'I' for Inactive)
REMARK    1  A    between atoms: O_12  and  C_14 
ROOT
HETATM    1  C   UNL     1       2.421   3.785  10.579  1.00  0.00     0.059 A 
HETATM    2  C   UNL     1       1.720   4.599  11.483  1.00  0.00     0.038 A 
HETATM    3  C   UNL     1       2.252   4.886  12.735  1.00  0.00     0.057 A 
HETATM    4  C   UNL     1       0.500   4.325   9.424  1.00  0.00     0.172 A 
HETATM    5  C   UNL     1       1.762   3.111   8.152  1.00  0.00     0.207 A 
HETATM    6  N   UNL     1      -0.138   4.163   8.296  1.00  0.00    -0.278 N 
ATOM      7  HN  UNL     1      -1.064   4.521   8.063  1.00  0.00     0.189 HD
HETATM    8  N   UNL     1       0.693   3.404   7.472  1.00  0.00    -0.294 N 
ATOM      9  HN  UNL     1       0.497   3.128   6.509  1.00  0.00     0.187 HD
HETATM   10  C   UNL     1       3.672   3.276  10.900  1.00  0.00     0.034 A 
HETATM   11  N   UNL     1       1.680   3.639   9.396  1.00  0.00    -0.284 N 
HETATM   12  C   UNL     1       3.501   4.390  13.050  1.00  0.00     0.067 A 
HETATM   13  C   UNL     1       4.213   3.581  12.148  1.00  0.00     0.039 A 
HETATM   14  S   UNL     1       0.148   5.134  10.916  1.00  0.00    -0.050 SA
ENDROOT
BRANCH  12  15
HETATM   15  O   UNL     1       4.021   4.658  14.279  1.00  0.00    -0.361 OA
ATOM     16  HO  UNL     1       4.370   3.941  14.793  1.00  0.00     0.217 HD
ENDBRANCH  12  15
TORSDOF 1
ENDMDL
MODEL 2
REMARK VINA RESULT:    -7.159      1.487      2.218
REMARK INTER + INTRA:          -7.368
REMARK INTER:                  -7.368
REMARK INTRA:                   0.000
REMARK UNBOUND:                 0.000
REMARK  1 active torsions:
REMARK  status: ('A' for Active; 'I' for Inactive)
REMARK    1  A    between atoms: O_12  and  C_14 
ROOT
HETATM    1  C   UNL     1       1.832   4.101  11.024  1.00  0.00     0.059 A 
HETATM    2  C   UNL     1       2.917   3.367  10.518  1.00  0.00     0.038 A 
HETATM    3  C   UNL     1       4.117   3.306  11.218  1.00  0.00     0.057 A 
HETATM    4  C   UNL     1       1.014   3.243   9.047  1.00  0.00     0.172 A 
HETATM    5  C   UNL     1      -0.557   4.368  10.024  1.00  0.00     0.207 A 
HETATM    6  N   UNL     1      -0.035   3.190   8.270  1.00  0.00    -0.278 N 
ATOM      7  HN  UNL     1      -0.098   2.725   7.363  1.00  0.00     0.189 HD
HETATM    8  N   UNL     1      -1.050   3.893   8.918  1.00  0.00    -0.294 N 
ATOM      9  HN  UNL     1      -2.007   4.012   8.586  1.00  0.00     0.187 HD
HETATM   10  C   UNL     1       1.921   4.754  12.246  1.00  0.00     0.034 A 
HETATM   11  N   UNL     1       0.746   4.015  10.140  1.00  0.00    -0.284 N 
HETATM   12  C   UNL     1       4.201   3.945  12.439  1.00  0.00     0.067 A 
HETATM   13  C   UNL     1       3.118   4.675  12.956  1.00  0.00     0.039 A 
HETATM   14  S   UNL     1       2.631   2.626   8.954  1.00  0.00    -0.050 SA
ENDROOT
BRANCH  12  15
HETATM   15  O   UNL     1       5.378   3.897  13.122  1.00  0.00    -0.361 OA
ATOM     16  HO  UNL     1       5.396   4.203  14.020  1.00  0.00     0.217 HD
ENDBRANCH  12  15
TORSDOF 1
ENDMDL
MODEL 3
REMARK VINA RESULT:    -6.842      3.155      4.610
REMARK INTER + INTRA:          -7.042
REMARK INTER:                  -7.042
REMARK INTRA:                   0.000
REMARK UNBOUND:                 0.000
REMARK  1 active torsions:
REMARK  status: ('A' for Active; 'I' for Inactive)
REMARK    1  A    between atoms: O_12  and  C_14 
ROOT
HETATM    1  C   UNL     1       2.578   3.726  10.624  1.00  0.00     0.059 A 
HETATM    2  C   UNL     1       1.370   4.423  10.795  1.00  0.00     0.038 A 
HETATM    3  C   UNL     1       0.405   4.421   9.795  1.00  0.00     0.057 A 
HETATM    4  C   UNL     1       2.790   4.644  12.728  1.00  0.00     0.172 A 
HETATM    5  C   UNL     1       4.551   3.459  12.301  1.00  0.00     0.207 A 
HETATM    6  N   UNL     1       3.580   4.745  13.764  1.00  0.00    -0.278 N 
ATOM      7  HN  UNL     1       3.410   5.294  14.607  1.00  0.00     0.189 HD
HETATM    8  N   UNL     1       4.698   3.957  13.494  1.00  0.00    -0.294 N 
ATOM      9  HN  UNL     1       5.489   3.799  14.119  1.00  0.00     0.187 HD
HETATM   10  C   UNL     1       2.822   2.996   9.469  1.00  0.00     0.034 A 
HETATM   11  N   UNL     1       3.383   3.884  11.762  1.00  0.00    -0.284 N 
HETATM   12  C   UNL     1       0.643   3.685   8.651  1.00  0.00     0.067 A 
HETATM   13  C   UNL     1       1.845   2.979   8.475  1.00  0.00     0.039 A 
HETATM   14  S   UNL     1       1.244   5.305  12.307  1.00  0.00    -0.050 SA
ENDROOT
BRANCH  12  15
HETATM   15  O   UNL     1      -0.294   3.690   7.664  1.00  0.00    -0.361 OA
ATOM     16  HO  UNL     1      -0.913   2.972   7.619  1.00  0.00     0.217 HD
ENDBRANCH  12  15
TORSDOF 1
ENDMDL
MODEL 4
REMARK VINA RESULT:    -6.696      2.621      3.553
REMARK INTER + INTRA:          -6.892
REMARK INTER:                  -6.892
REMARK INTRA:                   0.000
REMARK UNBOUND:                 0.000
REMARK  1 active torsions:
REMARK  status: ('A' for Active; 'I' for Inactive)
REMARK    1  A    between atoms: O_12  and  C_14 
ROOT
HETATM    1  C   UNL     1       2.272   3.642  10.057  1.00  0.00     0.059 A 
HETATM    2  C   UNL     1       2.171   3.175   8.737  1.00  0.00     0.038 A 
HETATM    3  C   UNL     1       3.176   2.389   8.186  1.00  0.00     0.057 A 
HETATM    4  C   UNL     1       0.250   4.494   9.348  1.00  0.00     0.172 A 
HETATM    5  C   UNL     1       0.560   5.058  11.415  1.00  0.00     0.207 A 
HETATM    6  N   UNL     1      -0.781   5.211   9.708  1.00  0.00    -0.278 N 
ATOM      7  HN  UNL     1      -1.574   5.474   9.121  1.00  0.00     0.189 HD
HETATM    8  N   UNL     1      -0.588   5.546  11.048  1.00  0.00    -0.294 N 
ATOM      9  HN  UNL     1      -1.232   6.078  11.634  1.00  0.00     0.187 HD
HETATM   10  C   UNL     1       3.359   3.306  10.852  1.00  0.00     0.034 A 
HETATM   11  N   UNL     1       1.143   4.413  10.377  1.00  0.00    -0.284 N 
HETATM   12  C   UNL     1       4.253   2.044   8.980  1.00  0.00     0.067 A 
HETATM   13  C   UNL     1       4.357   2.501  10.304  1.00  0.00     0.039 A 
HETATM   14  S   UNL     1       0.740   3.717   7.878  1.00  0.00    -0.050 SA
ENDROOT
BRANCH  12  15
HETATM   15  O   UNL     1       5.245   1.285   8.441  1.00  0.00    -0.361 OA
ATOM     16  HO  UNL     1       6.085   1.252   8.883  1.00  0.00     0.217 HD
ENDBRANCH  12  15
TORSDOF 1
ENDMDL
MODEL 5
REMARK VINA RESULT:    -6.649      3.277      4.760
REMARK INTER + INTRA:          -6.844
REMARK INTER:                  -6.844
REMARK INTRA:                   0.000
REMARK UNBOUND:                 0.000
REMARK  1 active torsions:
REMARK  status: ('A' for Active; 'I' for Inactive)
REMARK    1  A    between atoms: O_12  and  C_14 
ROOT
HETATM    1  C   UNL     1       2.285   3.708  10.054  1.00  0.00     0.059 A 
HETATM    2  C   UNL     1       3.503   3.010  10.074  1.00  0.00     0.038 A 
HETATM    3  C   UNL     1       3.914   2.275   8.968  1.00  0.00     0.057 A 
HETATM    4  C   UNL     1       3.124   4.167  12.152  1.00  0.00     0.172 A 
HETATM    5  C   UNL     1       1.252   5.226  11.901  1.00  0.00     0.207 A 
HETATM    6  N   UNL     1       2.894   4.808  13.268  1.00  0.00    -0.278 N 
ATOM      7  HN  UNL     1       3.475   4.796  14.107  1.00  0.00     0.189 HD
HETATM    8  N   UNL     1       1.702   5.510  13.088  1.00  0.00    -0.294 N 
ATOM      9  HN  UNL     1       1.263   6.133  13.766  1.00  0.00     0.187 HD
HETATM   10  C   UNL     1       1.481   3.708   8.923  1.00  0.00     0.034 A 
HETATM   11  N   UNL     1       2.092   4.362  11.281  1.00  0.00    -0.284 N 
HETATM   12  C   UNL     1       3.121   2.285   7.838  1.00  0.00     0.067 A 
HETATM   13  C   UNL     1       1.905   2.988   7.808  1.00  0.00     0.039 A 
HETATM   14  S   UNL     1       4.375   3.105  11.594  1.00  0.00    -0.050 SA
ENDROOT
BRANCH  12  15
HETATM   15  O   UNL     1       3.514   1.557   6.757  1.00  0.00    -0.361 OA
ATOM     16  HO  UNL     1       4.320   1.058   6.812  1.00  0.00     0.217 HD
ENDBRANCH  12  15
TORSDOF 1
ENDMDL
MODEL 6
REMARK VINA RESULT:    -6.646      1.345      1.620
REMARK INTER + INTRA:          -6.841
REMARK INTER:                  -6.841
REMARK INTRA:                   0.000
REMARK UNBOUND:                 0.000
REMARK  1 active torsions:
REMARK  status: ('A' for Active; 'I' for Inactive)
REMARK    1  A    between atoms: O_12  and  C_14 
ROOT
HETATM    1  C   UNL     1       2.478   3.397  10.013  1.00  0.00     0.059 A 
HETATM    2  C   UNL     1       2.523   4.036  11.263  1.00  0.00     0.038 A 
HETATM    3  C   UNL     1       3.646   3.924  12.074  1.00  0.00     0.057 A 
HETATM    4  C   UNL     1       0.433   4.453  10.140  1.00  0.00     0.172 A 
HETATM    5  C   UNL     1       0.586   3.452   8.227  1.00  0.00     0.207 A 
HETATM    6  N   UNL     1      -0.690   4.666   9.507  1.00  0.00    -0.278 N 
ATOM      7  HN  UNL     1      -1.495   5.187   9.855  1.00  0.00     0.189 HD
HETATM    8  N   UNL     1      -0.573   4.043   8.265  1.00  0.00    -0.294 N 
ATOM      9  HN  UNL     1      -1.271   4.048   7.521  1.00  0.00     0.187 HD
HETATM   10  C   UNL     1       3.564   2.668   9.546  1.00  0.00     0.034 A 
HETATM   11  N   UNL     1       1.247   3.652   9.392  1.00  0.00    -0.284 N 
HETATM   12  C   UNL     1       4.730   3.209  11.605  1.00  0.00     0.067 A 
HETATM   13  C   UNL     1       4.697   2.574  10.352  1.00  0.00     0.039 A 
HETATM   14  S   UNL     1       1.055   4.893  11.697  1.00  0.00    -0.050 SA
ENDROOT
BRANCH  12  15
HETATM   15  O   UNL     1       5.828   3.088  12.401  1.00  0.00    -0.361 OA
ATOM     16  HO  UNL     1       5.884   3.621  13.184  1.00  0.00     0.217 HD
ENDBRANCH  12  15
TORSDOF 1
ENDMDL
MODEL 7
REMARK VINA RESULT:    -6.597      6.257      7.066
REMARK INTER + INTRA:          -6.790
REMARK INTER:                  -6.790
REMARK INTRA:                   0.000
REMARK UNBOUND:                 0.000
REMARK  1 active torsions:
REMARK  status: ('A' for Active; 'I' for Inactive)
REMARK    1  A    between atoms: O_12  and  C_14 
ROOT
HETATM    1  C   UNL     1       4.711  -1.214   8.697  1.00  0.00     0.059 A 
HETATM    2  C   UNL     1       4.672  -2.611   8.564  1.00  0.00     0.038 A 
HETATM    3  C   UNL     1       4.870  -3.432   9.668  1.00  0.00     0.057 A 
HETATM    4  C   UNL     1       4.283  -1.520   6.452  1.00  0.00     0.172 A 
HETATM    5  C   UNL     1       4.315   0.603   6.875  1.00  0.00     0.207 A 
HETATM    6  N   UNL     1       4.071  -0.902   5.321  1.00  0.00    -0.278 N 
ATOM      7  HN  UNL     1       3.937  -1.334   4.407  1.00  0.00     0.189 HD
HETATM    8  N   UNL     1       4.065   0.464   5.606  1.00  0.00    -0.294 N 
ATOM      9  HN  UNL     1       3.895   1.217   4.939  1.00  0.00     0.187 HD
HETATM   10  C   UNL     1       4.916  -0.621   9.935  1.00  0.00     0.034 A 
HETATM   11  N   UNL     1       4.490  -0.611   7.449  1.00  0.00    -0.284 N 
HETATM   12  C   UNL     1       5.062  -2.842  10.902  1.00  0.00     0.067 A 
HETATM   13  C   UNL     1       5.095  -1.445  11.044  1.00  0.00     0.039 A 
HETATM   14  S   UNL     1       4.423  -3.182   6.924  1.00  0.00    -0.050 SA
ENDROOT
BRANCH  12  15
HETATM   15  O   UNL     1       5.268  -3.642  11.984  1.00  0.00    -0.361 OA
ATOM     16  HO  UNL     1       6.159  -3.876  12.215  1.00  0.00     0.217 HD
ENDBRANCH  12  15
TORSDOF 1
ENDMDL
MODEL 8
REMARK VINA RESULT:    -6.516      3.386      4.876
REMARK INTER + INTRA:          -6.706
REMARK INTER:                  -6.706
REMARK INTRA:                   0.000
REMARK UNBOUND:                 0.000
REMARK  1 active torsions:
REMARK  status: ('A' for Active; 'I' for Inactive)
REMARK    1  A    between atoms: O_12  and  C_14 
ROOT
HETATM    1  C   UNL     1       2.156   4.359  11.735  1.00  0.00     0.059 A 
HETATM    2  C   UNL     1       2.119   3.732  10.480  1.00  0.00     0.038 A 
HETATM    3  C   UNL     1       0.982   3.809   9.684  1.00  0.00     0.057 A 
HETATM    4  C   UNL     1       4.241   3.392  11.567  1.00  0.00     0.172 A 
HETATM    5  C   UNL     1       4.124   4.479  13.435  1.00  0.00     0.207 A 
HETATM    6  N   UNL     1       5.384   3.225  12.178  1.00  0.00    -0.278 N 
ATOM      7  HN  UNL     1       6.176   2.672  11.849  1.00  0.00     0.189 HD
HETATM    8  N   UNL     1       5.312   3.951  13.367  1.00  0.00    -0.294 N 
ATOM      9  HN  UNL     1       6.056   4.051  14.058  1.00  0.00     0.187 HD
HETATM   10  C   UNL     1       1.073   5.095  12.197  1.00  0.00     0.034 A 
HETATM   11  N   UNL     1       3.400   4.133  12.344  1.00  0.00    -0.284 N 
HETATM   12  C   UNL     1      -0.091   4.551  10.138  1.00  0.00     0.067 A 
HETATM   13  C   UNL     1      -0.059   5.187  11.390  1.00  0.00     0.039 A 
HETATM   14  S   UNL     1       3.568   2.831  10.071  1.00  0.00    -0.050 SA
ENDROOT
BRANCH  12  15
HETATM   15  O   UNL     1      -1.211   4.619   9.367  1.00  0.00    -0.361 OA
ATOM     16  HO  UNL     1      -1.338   5.380   8.814  1.00  0.00     0.217 HD
ENDBRANCH  12  15
TORSDOF 1
ENDMDL
MODEL 9
REMARK VINA RESULT:    -6.405      3.080      4.331
REMARK INTER + INTRA:          -6.592
REMARK INTER:                  -6.592
REMARK INTRA:                   0.000
REMARK UNBOUND:                 0.000
REMARK  1 active torsions:
REMARK  status: ('A' for Active; 'I' for Inactive)
REMARK    1  A    between atoms: O_12  and  C_14 
ROOT
HETATM    1  C   UNL     1       2.427   3.120   8.803  1.00  0.00     0.059 A 
HETATM    2  C   UNL     1       2.268   3.609  10.109  1.00  0.00     0.038 A 
HETATM    3  C   UNL     1       1.126   4.318  10.465  1.00  0.00     0.057 A 
HETATM    4  C   UNL     1       4.355   2.433   9.864  1.00  0.00     0.172 A 
HETATM    5  C   UNL     1       4.382   1.707   7.824  1.00  0.00     0.207 A 
HETATM    6  N   UNL     1       5.479   1.787   9.703  1.00  0.00    -0.278 N 
ATOM      7  HN  UNL     1       6.216   1.665  10.398  1.00  0.00     0.189 HD
HETATM    8  N   UNL     1       5.477   1.298   8.396  1.00  0.00    -0.294 N 
ATOM      9  HN  UNL     1       6.202   0.724   7.967  1.00  0.00     0.187 HD
HETATM   10  C   UNL     1       1.437   3.304   7.847  1.00  0.00     0.034 A 
HETATM   11  N   UNL     1       3.655   2.450   8.692  1.00  0.00    -0.284 N 
HETATM   12  C   UNL     1       0.136   4.490   9.517  1.00  0.00     0.067 A 
HETATM   13  C   UNL     1       0.284   3.997   8.210  1.00  0.00     0.039 A 
HETATM   14  S   UNL     1       3.627   3.302  11.175  1.00  0.00    -0.050 SA
ENDROOT
BRANCH  12  15
HETATM   15  O   UNL     1      -0.979   5.194   9.857  1.00  0.00    -0.361 OA
ATOM     16  HO  UNL     1      -1.810   4.736   9.906  1.00  0.00     0.217 HD
ENDBRANCH  12  15
TORSDOF 1
ENDMDL
MODEL 10
REMARK VINA RESULT:    -6.336      5.675      6.390
REMARK INTER + INTRA:          -6.521
REMARK INTER:                  -6.521
REMARK INTRA:                   0.000
REMARK UNBOUND:                 0.000
REMARK  1 active torsions:
REMARK  status: ('A' for Active; 'I' for Inactive)
REMARK    1  A    between atoms: O_12  and  C_14 
ROOT
HETATM    1  C   UNL     1       4.652  -1.490   8.409  1.00  0.00     0.059 A 
HETATM    2  C   UNL     1       4.398  -0.881   9.649  1.00  0.00     0.038 A 
HETATM    3  C   UNL     1       4.587  -1.583  10.833  1.00  0.00     0.057 A 
HETATM    4  C   UNL     1       3.966   0.632   7.825  1.00  0.00     0.172 A 
HETATM    5  C   UNL     1       4.476  -0.458   6.026  1.00  0.00     0.207 A 
HETATM    6  N   UNL     1       3.742   1.432   6.817  1.00  0.00    -0.278 N 
ATOM      7  HN  UNL     1       3.376   2.384   6.865  1.00  0.00     0.189 HD
HETATM    8  N   UNL     1       4.100   0.734   5.664  1.00  0.00    -0.294 N 
ATOM      9  HN  UNL     1       4.072   1.093   4.710  1.00  0.00     0.187 HD
HETATM   10  C   UNL     1       5.128  -2.792   8.339  1.00  0.00     0.034 A 
HETATM   11  N   UNL     1       4.382  -0.586   7.371  1.00  0.00    -0.284 N 
HETATM   12  C   UNL     1       5.072  -2.874  10.764  1.00  0.00     0.067 A 
HETATM   13  C   UNL     1       5.337  -3.488   9.528  1.00  0.00     0.039 A 
HETATM   14  S   UNL     1       3.782   0.759   9.544  1.00  0.00    -0.050 SA
ENDROOT
BRANCH  12  15
HETATM   15  O   UNL     1       5.248  -3.570  11.921  1.00  0.00    -0.361 OA
ATOM     16  HO  UNL     1       4.886  -4.445  11.986  1.00  0.00     0.217 HD
ENDBRANCH  12  15
TORSDOF 1
ENDMDL
MODEL 11
REMARK VINA RESULT:    -6.267      9.129     10.059
REMARK INTER + INTRA:          -6.450
REMARK INTER:                  -6.450
REMARK INTRA:                   0.000
REMARK UNBOUND:                 0.000
REMARK  1 active torsions:
REMARK  status: ('A' for Active; 'I' for Inactive)
REMARK    1  A    between atoms: O_12  and  C_14 
ROOT
HETATM    1  C   UNL     1       5.698  -4.385   6.459  1.00  0.00     0.059 A 
HETATM    2  C   UNL     1       5.923  -4.259   7.839  1.00  0.00     0.038 A 
HETATM    3  C   UNL     1       6.635  -5.232   8.531  1.00  0.00     0.057 A 
HETATM    4  C   UNL     1       4.666  -2.392   6.984  1.00  0.00     0.172 A 
HETATM    5  C   UNL     1       4.483  -2.734   4.854  1.00  0.00     0.207 A 
HETATM    6  N   UNL     1       3.987  -1.389   6.492  1.00  0.00    -0.278 N 
ATOM      7  HN  UNL     1       3.598  -0.603   7.014  1.00  0.00     0.189 HD
HETATM    8  N   UNL     1       3.898  -1.602   5.117  1.00  0.00    -0.294 N 
ATOM      9  HN  UNL     1       3.455  -0.982   4.439  1.00  0.00     0.187 HD
HETATM   10  C   UNL     1       6.206  -5.465   5.749  1.00  0.00     0.034 A 
HETATM   11  N   UNL     1       4.956  -3.288   5.996  1.00  0.00    -0.284 N 
HETATM   12  C   UNL     1       7.151  -6.300   7.823  1.00  0.00     0.067 A 
HETATM   13  C   UNL     1       6.937  -6.429   6.441  1.00  0.00     0.039 A 
HETATM   14  S   UNL     1       5.190  -2.844   8.573  1.00  0.00    -0.050 SA
ENDROOT
BRANCH  12  15
HETATM   15  O   UNL     1       7.839  -7.261   8.498  1.00  0.00    -0.361 OA
ATOM     16  HO  UNL     1       7.567  -8.166   8.405  1.00  0.00     0.217 HD
ENDBRANCH  12  15
TORSDOF 1
ENDMDL
MODEL 12
REMARK VINA RESULT:    -6.238      8.738      9.806
REMARK INTER + INTRA:          -6.420
REMARK INTER:                  -6.420
REMARK INTRA:                   0.000
REMARK UNBOUND:                 0.000
REMARK  1 active torsions:
REMARK  status: ('A' for Active; 'I' for Inactive)
REMARK    1  A    between atoms: O_12  and  C_14 
ROOT
HETATM    1  C   UNL     1       5.956  -3.992   8.373  1.00  0.00     0.059 A 
HETATM    2  C   UNL     1       5.834  -3.194   7.224  1.00  0.00     0.038 A 
HETATM    3  C   UNL     1       6.348  -3.625   6.006  1.00  0.00     0.057 A 
HETATM    4  C   UNL     1       4.826  -2.134   9.137  1.00  0.00     0.172 A 
HETATM    5  C   UNL     1       5.056  -3.533  10.772  1.00  0.00     0.207 A 
HETATM    6  N   UNL     1       4.284  -1.583  10.191  1.00  0.00    -0.278 N 
ATOM      7  HN  UNL     1       3.852  -0.660  10.241  1.00  0.00     0.189 HD
HETATM    8  N   UNL     1       4.411  -2.502  11.233  1.00  0.00    -0.294 N 
ATOM      9  HN  UNL     1       4.060  -2.385  12.183  1.00  0.00     0.187 HD
HETATM   10  C   UNL     1       6.564  -5.239   8.314  1.00  0.00     0.034 A 
HETATM   11  N   UNL     1       5.368  -3.341   9.469  1.00  0.00    -0.284 N 
HETATM   12  C   UNL     1       6.942  -4.871   5.945  1.00  0.00     0.067 A 
HETATM   13  C   UNL     1       7.061  -5.678   7.089  1.00  0.00     0.039 A 
HETATM   14  S   UNL     1       5.058  -1.643   7.491  1.00  0.00    -0.050 SA
ENDROOT
BRANCH  12  15
HETATM   15  O   UNL     1       7.457  -5.291   4.758  1.00  0.00    -0.361 OA
ATOM     16  HO  UNL     1       6.864  -5.449   4.033  1.00  0.00     0.217 HD
ENDBRANCH  12  15
TORSDOF 1
ENDMDL
MODEL 13
REMARK VINA RESULT:    -6.208      1.946      2.648
REMARK INTER + INTRA:          -6.389
REMARK INTER:                  -6.389
REMARK INTRA:                   0.000
REMARK UNBOUND:                 0.000
REMARK  1 active torsions:
REMARK  status: ('A' for Active; 'I' for Inactive)
REMARK    1  A    between atoms: O_12  and  C_14 
ROOT
HETATM    1  C   UNL     1       2.954   3.424  10.456  1.00  0.00     0.059 A 
HETATM    2  C   UNL     1       4.053   2.614  10.127  1.00  0.00     0.038 A 
HETATM    3  C   UNL     1       5.080   2.409  11.041  1.00  0.00     0.057 A 
HETATM    4  C   UNL     1       2.478   2.735   8.309  1.00  0.00     0.172 A 
HETATM    5  C   UNL     1       0.843   3.959   9.029  1.00  0.00     0.207 A 
HETATM    6  N   UNL     1       1.604   2.815   7.340  1.00  0.00    -0.278 N 
ATOM      7  HN  UNL     1       1.685   2.398   6.412  1.00  0.00     0.189 HD
HETATM    8  N   UNL     1       0.542   3.581   7.821  1.00  0.00    -0.294 N 
ATOM      9  HN  UNL     1      -0.316   3.804   7.317  1.00  0.00     0.187 HD
HETATM   10  C   UNL     1       2.852   4.012  11.710  1.00  0.00     0.034 A 
HETATM   11  N   UNL     1       2.063   3.480   9.374  1.00  0.00    -0.284 N 
HETATM   12  C   UNL     1       4.972   2.984  12.292  1.00  0.00     0.067 A 
HETATM   13  C   UNL     1       3.872   3.789  12.633  1.00  0.00     0.039 A 
HETATM   14  S   UNL     1       4.024   1.973   8.494  1.00  0.00    -0.050 SA
ENDROOT
BRANCH  12  15
HETATM   15  O   UNL     1       5.981   2.795  13.187  1.00  0.00    -0.361 OA
ATOM     16  HO  UNL     1       6.574   3.516  13.363  1.00  0.00     0.217 HD
ENDBRANCH  12  15
TORSDOF 1
ENDMDL
MODEL 14
REMARK VINA RESULT:    -6.202      8.538      9.662
REMARK INTER + INTRA:          -6.383
REMARK INTER:                  -6.383
REMARK INTRA:                   0.000
REMARK UNBOUND:                 0.000
REMARK  1 active torsions:
REMARK  status: ('A' for Active; 'I' for Inactive)
REMARK    1  A    between atoms: O_12  and  C_14 
ROOT
HETATM    1  C   UNL     1       5.289  -2.944   7.258  1.00  0.00     0.059 A 
HETATM    2  C   UNL     1       4.632  -2.994   6.019  1.00  0.00     0.038 A 
HETATM    3  C   UNL     1       4.161  -1.831   5.420  1.00  0.00     0.057 A 
HETATM    4  C   UNL     1       5.307  -5.190   6.741  1.00  0.00     0.172 A 
HETATM    5  C   UNL     1       6.351  -4.896   8.614  1.00  0.00     0.207 A 
HETATM    6  N   UNL     1       5.688  -6.369   7.155  1.00  0.00    -0.278 N 
ATOM      7  HN  UNL     1       5.510  -7.263   6.696  1.00  0.00     0.189 HD
HETATM    8  N   UNL     1       6.384  -6.169   8.347  1.00  0.00    -0.294 N 
ATOM      9  HN  UNL     1       6.837  -6.890   8.909  1.00  0.00     0.187 HD
HETATM   10  C   UNL     1       5.513  -1.732   7.898  1.00  0.00     0.034 A 
HETATM   11  N   UNL     1       5.660  -4.238   7.653  1.00  0.00    -0.284 N 
HETATM   12  C   UNL     1       4.395  -0.624   6.051  1.00  0.00     0.067 A 
HETATM   13  C   UNL     1       5.059  -0.565   7.287  1.00  0.00     0.039 A 
HETATM   14  S   UNL     1       4.420  -4.610   5.369  1.00  0.00    -0.050 SA
ENDROOT
BRANCH  12  15
HETATM   15  O   UNL     1       3.925   0.516   5.474  1.00  0.00    -0.361 OA
ATOM     16  HO  UNL     1       3.896   1.310   5.993  1.00  0.00     0.217 HD
ENDBRANCH  12  15
TORSDOF 1
ENDMDL
MODEL 15
REMARK VINA RESULT:    -6.202      8.194      8.952
REMARK INTER + INTRA:          -6.383
REMARK INTER:                  -6.383
REMARK INTRA:                   0.000
REMARK UNBOUND:                 0.000
REMARK  1 active torsions:
REMARK  status: ('A' for Active; 'I' for Inactive)
REMARK    1  A    between atoms: O_12  and  C_14 
ROOT
HETATM    1  C   UNL     1       5.972  -3.528   7.949  1.00  0.00     0.059 A 
HETATM    2  C   UNL     1       5.526  -2.197   7.930  1.00  0.00     0.038 A 
HETATM    3  C   UNL     1       5.056  -1.592   9.090  1.00  0.00     0.057 A 
HETATM    4  C   UNL     1       6.269  -2.902   5.750  1.00  0.00     0.172 A 
HETATM    5  C   UNL     1       6.973  -4.934   6.000  1.00  0.00     0.207 A 
HETATM    6  N   UNL     1       6.681  -3.310   4.580  1.00  0.00    -0.278 N 
ATOM      7  HN  UNL     1       6.657  -2.781   3.707  1.00  0.00     0.189 HD
HETATM    8  N   UNL     1       7.159  -4.609   4.754  1.00  0.00    -0.294 N 
ATOM      9  HN  UNL     1       7.579  -5.198   4.034  1.00  0.00     0.187 HD
HETATM   10  C   UNL     1       5.985  -4.260   9.129  1.00  0.00     0.034 A 
HETATM   11  N   UNL     1       6.388  -3.909   6.664  1.00  0.00    -0.284 N 
HETATM   12  C   UNL     1       5.080  -2.316  10.267  1.00  0.00     0.067 A 
HETATM   13  C   UNL     1       5.533  -3.645  10.295  1.00  0.00     0.039 A 
HETATM   14  S   UNL     1       5.562  -1.437   6.349  1.00  0.00    -0.050 SA
ENDROOT
BRANCH  12  15
HETATM   15  O   UNL     1       4.610  -1.732  11.403  1.00  0.00    -0.361 OA
ATOM     16  HO  UNL     1       5.224  -1.522  12.096  1.00  0.00     0.217 HD
ENDBRANCH  12  15
TORSDOF 1
ENDMDL
MODEL 16
REMARK VINA RESULT:    -6.199      3.309      4.618
REMARK INTER + INTRA:          -6.381
REMARK INTER:                  -6.381
REMARK INTRA:                   0.000
REMARK UNBOUND:                 0.000
REMARK  1 active torsions:
REMARK  status: ('A' for Active; 'I' for Inactive)
REMARK    1  A    between atoms: O_12  and  C_14 
ROOT
HETATM    1  C   UNL     1       2.821   3.471  10.373  1.00  0.00     0.059 A 
HETATM    2  C   UNL     1       2.280   3.109   9.130  1.00  0.00     0.038 A 
HETATM    3  C   UNL     1       0.980   3.468   8.793  1.00  0.00     0.057 A 
HETATM    4  C   UNL     1       4.545   2.324   9.360  1.00  0.00     0.172 A 
HETATM    5  C   UNL     1       5.218   3.032  11.292  1.00  0.00     0.207 A 
HETATM    6  N   UNL     1       5.776   1.912   9.511  1.00  0.00    -0.278 N 
ATOM      7  HN  UNL     1       6.314   1.347   8.854  1.00  0.00     0.189 HD
HETATM    8  N   UNL     1       6.212   2.396  10.744  1.00  0.00    -0.294 N 
ATOM      9  HN  UNL     1       7.142   2.274  11.145  1.00  0.00     0.187 HD
HETATM   10  C   UNL     1       2.086   4.221  11.281  1.00  0.00     0.034 A 
HETATM   11  N   UNL     1       4.136   2.991  10.478  1.00  0.00    -0.284 N 
HETATM   12  C   UNL     1       0.252   4.225   9.690  1.00  0.00     0.067 A 
HETATM   13  C   UNL     1       0.790   4.598  10.933  1.00  0.00     0.039 A 
HETATM   14  S   UNL     1       3.345   2.145   8.122  1.00  0.00    -0.050 SA
ENDROOT
BRANCH  12  15
HETATM   15  O   UNL     1      -1.025   4.569   9.369  1.00  0.00    -0.361 OA
ATOM     16  HO  UNL     1      -1.301   4.505   8.463  1.00  0.00     0.217 HD
ENDBRANCH  12  15
TORSDOF 1
ENDMDL
MODEL 17
REMARK VINA RESULT:    -6.193      7.440      8.386
REMARK INTER + INTRA:          -6.374
REMARK INTER:                  -6.374
REMARK INTRA:                   0.000
REMARK UNBOUND:                 0.000
REMARK  1 active torsions:
REMARK  status: ('A' for Active; 'I' for Inactive)
REMARK    1  A    between atoms: O_12  and  C_14 
ROOT
HETATM    1  C   UNL     1       5.149  -2.139   7.824  1.00  0.00     0.059 A 
HETATM    2  C   UNL     1       5.261  -3.099   6.806  1.00  0.00     0.038 A 
HETATM    3  C   UNL     1       5.690  -4.390   7.095  1.00  0.00     0.057 A 
HETATM    4  C   UNL     1       4.490  -0.989   5.938  1.00  0.00     0.172 A 
HETATM    5  C   UNL     1       4.318   0.322   7.652  1.00  0.00     0.207 A 
HETATM    6  N   UNL     1       4.069   0.166   5.495  1.00  0.00    -0.278 N 
ATOM      7  HN  UNL     1       3.878   0.413   4.524  1.00  0.00     0.189 HD
HETATM    8  N   UNL     1       3.934   0.997   6.608  1.00  0.00    -0.294 N 
ATOM      9  HN  UNL     1       3.595   1.959   6.604  1.00  0.00     0.187 HD
HETATM   10  C   UNL     1       5.431  -2.464   9.144  1.00  0.00     0.034 A 
HETATM   11  N   UNL     1       4.707  -0.922   7.284  1.00  0.00    -0.284 N 
HETATM   12  C   UNL     1       5.958  -4.716   8.409  1.00  0.00     0.067 A 
HETATM   13  C   UNL     1       5.840  -3.763   9.435  1.00  0.00     0.039 A 
HETATM   14  S   UNL     1       4.885  -2.506   5.198  1.00  0.00    -0.050 SA
ENDROOT
BRANCH  12  15
HETATM   15  O   UNL     1       6.389  -5.975   8.695  1.00  0.00    -0.361 OA
ATOM     16  HO  UNL     1       5.910  -6.713   8.338  1.00  0.00     0.217 HD
ENDBRANCH  12  15
TORSDOF 1
ENDMDL
MODEL 18
REMARK VINA RESULT:    -6.161      8.019      8.831
REMARK INTER + INTRA:          -6.341
REMARK INTER:                  -6.341
REMARK INTRA:                   0.000
REMARK UNBOUND:                 0.000
REMARK  1 active torsions:
REMARK  status: ('A' for Active; 'I' for Inactive)
REMARK    1  A    between atoms: O_12  and  C_14 
ROOT
HETATM    1  C   UNL     1       5.603  -2.543   7.964  1.00  0.00     0.059 A 
HETATM    2  C   UNL     1       5.822  -3.726   8.688  1.00  0.00     0.038 A 
HETATM    3  C   UNL     1       5.562  -3.777  10.053  1.00  0.00     0.057 A 
HETATM    4  C   UNL     1       6.372  -4.011   6.361  1.00  0.00     0.172 A 
HETATM    5  C   UNL     1       5.909  -2.121   5.413  1.00  0.00     0.207 A 
HETATM    6  N   UNL     1       6.661  -4.139   5.093  1.00  0.00    -0.278 N 
ATOM      7  HN  UNL     1       7.050  -4.964   4.637  1.00  0.00     0.189 HD
HETATM    8  N   UNL     1       6.333  -2.927   4.484  1.00  0.00    -0.294 N 
ATOM      9  HN  UNL     1       6.412  -2.712   3.490  1.00  0.00     0.187 HD
HETATM   10  C   UNL     1       5.095  -1.410   8.584  1.00  0.00     0.034 A 
HETATM   11  N   UNL     1       5.942  -2.741   6.616  1.00  0.00    -0.284 N 
HETATM   12  C   UNL     1       5.045  -2.654  10.668  1.00  0.00     0.067 A 
HETATM   13  C   UNL     1       4.817  -1.469   9.949  1.00  0.00     0.039 A 
HETATM   14  S   UNL     1       6.486  -5.048   7.745  1.00  0.00    -0.050 SA
ENDROOT
BRANCH  12  15
HETATM   15  O   UNL     1       4.801  -2.695  12.007  1.00  0.00    -0.361 OA
ATOM     16  HO  UNL     1       4.651  -3.539  12.417  1.00  0.00     0.217 HD
ENDBRANCH  12  15
TORSDOF 1
ENDMDL
MODEL 19
REMARK VINA RESULT:    -6.117      3.949      5.519
REMARK INTER + INTRA:          -6.296
REMARK INTER:                  -6.296
REMARK INTRA:                   0.000
REMARK UNBOUND:                 0.000
REMARK  1 active torsions:
REMARK  status: ('A' for Active; 'I' for Inactive)
REMARK    1  A    between atoms: O_12  and  C_14 
ROOT
HETATM    1  C   UNL     1       3.553   2.757  10.332  1.00  0.00     0.059 A 
HETATM    2  C   UNL     1       3.836   2.187   9.081  1.00  0.00     0.038 A 
HETATM    3  C   UNL     1       2.994   2.408   7.997  1.00  0.00     0.057 A 
HETATM    4  C   UNL     1       5.508   1.596  10.710  1.00  0.00     0.172 A 
HETATM    5  C   UNL     1       4.936   2.615  12.533  1.00  0.00     0.207 A 
HETATM    6  N   UNL     1       6.402   1.294  11.614  1.00  0.00    -0.278 N 
ATOM      7  HN  UNL     1       7.207   0.678  11.492  1.00  0.00     0.189 HD
HETATM    8  N   UNL     1       6.043   1.976  12.777  1.00  0.00    -0.294 N 
ATOM      9  HN  UNL     1       6.556   1.974  13.658  1.00  0.00     0.187 HD
HETATM   10  C   UNL     1       2.446   3.577  10.509  1.00  0.00     0.034 A 
HETATM   11  N   UNL     1       4.539   2.386  11.259  1.00  0.00    -0.284 N 
HETATM   12  C   UNL     1       1.900   3.233   8.169  1.00  0.00     0.067 A 
HETATM   13  C   UNL     1       1.614   3.813   9.416  1.00  0.00     0.039 A 
HETATM   14  S   UNL     1       5.261   1.165   9.050  1.00  0.00    -0.050 SA
ENDROOT
BRANCH  12  15
HETATM   15  O   UNL     1       1.066   3.442   7.113  1.00  0.00    -0.361 OA
ATOM     16  HO  UNL     1       0.678   4.301   7.002  1.00  0.00     0.217 HD
ENDBRANCH  12  15
TORSDOF 1
ENDMDL
MODEL 20
REMARK VINA RESULT:    -6.102      7.739      9.006
REMARK INTER + INTRA:          -6.280
REMARK INTER:                  -6.280
REMARK INTRA:                   0.000
REMARK UNBOUND:                 0.000
REMARK  1 active torsions:
REMARK  status: ('A' for Active; 'I' for Inactive)
REMARK    1  A    between atoms: O_12  and  C_14 
ROOT
HETATM    1  C   UNL     1       5.489  -2.961   7.842  1.00  0.00     0.059 A 
HETATM    2  C   UNL     1       4.966  -1.787   7.277  1.00  0.00     0.038 A 
HETATM    3  C   UNL     1       4.999  -1.590   5.901  1.00  0.00     0.057 A 
HETATM    4  C   UNL     1       4.732  -1.783   9.674  1.00  0.00     0.172 A 
HETATM    5  C   UNL     1       5.525  -3.683  10.343  1.00  0.00     0.207 A 
HETATM    6  N   UNL     1       4.615  -1.809  10.975  1.00  0.00    -0.278 N 
ATOM      7  HN  UNL     1       4.240  -1.068  11.567  1.00  0.00     0.189 HD
HETATM    8  N   UNL     1       5.101  -3.047  11.396  1.00  0.00    -0.294 N 
ATOM      9  HN  UNL     1       5.121  -3.391  12.356  1.00  0.00     0.187 HD
HETATM   10  C   UNL     1       6.020  -3.963   7.042  1.00  0.00     0.034 A 
HETATM   11  N   UNL     1       5.345  -2.922   9.238  1.00  0.00    -0.284 N 
HETATM   12  C   UNL     1       5.517  -2.591   5.104  1.00  0.00     0.067 A 
HETATM   13  C   UNL     1       6.034  -3.772   5.661  1.00  0.00     0.039 A 
HETATM   14  S   UNL     1       4.356  -0.625   8.441  1.00  0.00    -0.050 SA
ENDROOT
BRANCH  12  15
HETATM   15  O   UNL     1       5.562  -2.397   3.757  1.00  0.00    -0.361 OA
ATOM     16  HO  UNL     1       6.342  -2.661   3.285  1.00  0.00     0.217 HD
ENDBRANCH  12  15
TORSDOF 1
ENDMDL
