MODEL 1
REMARK VINA RESULT:    -5.920      0.000      0.000
REMARK INTER + INTRA:          -7.381
REMARK INTER:                  -7.304
REMARK INTRA:                  -0.077
REMARK UNBOUND:                -0.077
REMARK  4 active torsions:
REMARK  status: ('A' for Active; 'I' for Inactive)
REMARK    1  A    between atoms: P_1  and  C_7 
REMARK    2  A    between atoms: C_7  and  N_10 
REMARK    3  A    between atoms: C_8  and  C_9 
REMARK    4  A    between atoms: C_8  and  N_10 
ROOT
HETATM    1  N   UNL     1      -1.968  -0.909  -4.178  1.00  0.00    -0.053 N 
ATOM      2  HN1 UNL     1      -1.141  -0.322  -4.072  1.00  0.00     0.278 HD
ATOM      3  HN2 UNL     1      -1.942  -1.069  -5.184  1.00  0.00     0.278 HD
ENDROOT
BRANCH   1   4
HETATM    4  C   UNL     1      -3.169  -0.163  -3.814  1.00  0.00     0.377 C 
BRANCH   4   5
HETATM    5  P   UNL     1      -2.895   1.650  -4.072  1.00  0.00     0.285 P 
HETATM    6  O   UNL     1      -1.681   2.059  -3.269  1.00  0.00    -0.638 OA
HETATM    7  O   UNL     1      -4.168   2.314  -3.565  1.00  0.00    -0.638 OA
HETATM    8  O   UNL     1      -2.678   1.758  -5.575  1.00  0.00    -0.638 OA
ENDBRANCH   4   5
ENDBRANCH   1   4
BRANCH   1   9
HETATM    9  C   UNL     1      -1.795  -2.165  -3.459  1.00  0.00     0.345 C 
BRANCH   9  10
HETATM   10  C   UNL     1      -0.381  -2.651  -3.735  1.00  0.00     0.199 C 
HETATM   11  O   UNL     1      -0.210  -3.881  -3.903  1.00  0.00    -0.647 OA
HETATM   12  O   UNL     1       0.573  -1.816  -3.791  1.00  0.00    -0.647 OA
ENDBRANCH   9  10
ENDBRANCH   1   9
TORSDOF 4
ENDMDL
MODEL 2
REMARK VINA RESULT:    -5.380      7.682      8.726
REMARK INTER + INTRA:          -6.715
REMARK INTER:                  -6.723
REMARK INTRA:                   0.008
REMARK UNBOUND:                -0.077
REMARK  4 active torsions:
REMARK  status: ('A' for Active; 'I' for Inactive)
REMARK    1  A    between atoms: P_1  and  C_7 
REMARK    2  A    between atoms: C_7  and  N_10 
REMARK    3  A    between atoms: C_8  and  C_9 
REMARK    4  A    between atoms: C_8  and  N_10 
ROOT
HETATM    1  N   UNL     1       5.043  -0.637   1.840  1.00  0.00    -0.053 N 
ATOM      2  HN1 UNL     1       6.018  -0.744   2.121  1.00  0.00     0.278 HD
ATOM      3  HN2 UNL     1       4.812  -1.608   1.632  1.00  0.00     0.278 HD
ENDROOT
BRANCH   1   4
HETATM    4  C   UNL     1       4.950   0.178   0.632  1.00  0.00     0.377 C 
BRANCH   4   5
HETATM    5  P   UNL     1       3.631  -0.487  -0.484  1.00  0.00     0.285 P 
HETATM    6  O   UNL     1       2.787   0.676  -0.955  1.00  0.00    -0.638 OA
HETATM    7  O   UNL     1       2.838  -1.457   0.382  1.00  0.00    -0.638 OA
HETATM    8  O   UNL     1       4.422  -1.140  -1.608  1.00  0.00    -0.638 OA
ENDBRANCH   4   5
ENDBRANCH   1   4
BRANCH   1   9
HETATM    9  C   UNL     1       4.244  -0.153   2.958  1.00  0.00     0.345 C 
BRANCH   9  10
HETATM   10  C   UNL     1       4.347  -1.188   4.067  1.00  0.00     0.199 C 
HETATM   11  O   UNL     1       5.237  -2.065   3.964  1.00  0.00    -0.647 OA
HETATM   12  O   UNL     1       3.550  -1.139   5.052  1.00  0.00    -0.647 OA
ENDBRANCH   9  10
ENDBRANCH   1   9
TORSDOF 4
ENDMDL
MODEL 3
REMARK VINA RESULT:    -5.350      7.655      8.742
REMARK INTER + INTRA:          -6.678
REMARK INTER:                  -6.635
REMARK INTRA:                  -0.043
REMARK UNBOUND:                -0.077
REMARK  4 active torsions:
REMARK  status: ('A' for Active; 'I' for Inactive)
REMARK    1  A    between atoms: P_1  and  C_7 
REMARK    2  A    between atoms: C_7  and  N_10 
REMARK    3  A    between atoms: C_8  and  C_9 
REMARK    4  A    between atoms: C_8  and  N_10 
ROOT
HETATM    1  N   UNL     1       5.123  -0.652   1.741  1.00  0.00    -0.053 N 
ATOM      2  HN1 UNL     1       6.098  -0.777   2.013  1.00  0.00     0.278 HD
ATOM      3  HN2 UNL     1       4.880  -1.614   1.509  1.00  0.00     0.278 HD
ENDROOT
BRANCH   1   4
HETATM    4  C   UNL     1       5.031   0.195   0.556  1.00  0.00     0.377 C 
BRANCH   4   5
HETATM    5  P   UNL     1       3.695  -0.422  -0.566  1.00  0.00     0.285 P 
HETATM    6  O   UNL     1       2.864  -1.426   0.202  1.00  0.00    -0.638 OA
HETATM    7  O   UNL     1       4.431  -1.063  -1.736  1.00  0.00    -0.638 OA
HETATM    8  O   UNL     1       2.924   0.842  -0.917  1.00  0.00    -0.638 OA
ENDBRANCH   4   5
ENDBRANCH   1   4
BRANCH   1   9
HETATM    9  C   UNL     1       4.335  -0.189   2.877  1.00  0.00     0.345 C 
BRANCH   9  10
HETATM   10  C   UNL     1       4.431  -1.257   3.956  1.00  0.00     0.199 C 
HETATM   11  O   UNL     1       5.267  -2.176   3.793  1.00  0.00    -0.647 OA
HETATM   12  O   UNL     1       3.681  -1.190   4.977  1.00  0.00    -0.647 OA
ENDBRANCH   9  10
ENDBRANCH   1   9
TORSDOF 4
ENDMDL
MODEL 4
REMARK VINA RESULT:    -4.286     10.423     11.529
REMARK INTER + INTRA:          -5.366
REMARK INTER:                  -5.232
REMARK INTRA:                  -0.134
REMARK UNBOUND:                -0.077
REMARK  4 active torsions:
REMARK  status: ('A' for Active; 'I' for Inactive)
REMARK    1  A    between atoms: P_1  and  C_7 
REMARK    2  A    between atoms: C_7  and  N_10 
REMARK    3  A    between atoms: C_8  and  C_9 
REMARK    4  A    between atoms: C_8  and  N_10 
ROOT
HETATM    1  N   UNL     1      -0.656   0.825 -14.631  1.00  0.00    -0.053 N 
ATOM      2  HN1 UNL     1      -1.324   1.497 -15.008  1.00  0.00     0.278 HD
ATOM      3  HN2 UNL     1       0.169   1.071 -15.177  1.00  0.00     0.278 HD
ENDROOT
BRANCH   1   4
HETATM    4  C   UNL     1      -1.080  -0.538 -14.937  1.00  0.00     0.377 C 
BRANCH   4   5
HETATM    5  P   UNL     1       0.397  -1.606 -15.260  1.00  0.00     0.285 P 
HETATM    6  O   UNL     1       1.515  -0.720 -15.762  1.00  0.00    -0.638 OA
HETATM    7  O   UNL     1      -0.064  -2.602 -16.316  1.00  0.00    -0.638 OA
HETATM    8  O   UNL     1       0.690  -2.217 -13.897  1.00  0.00    -0.638 OA
ENDBRANCH   4   5
ENDBRANCH   1   4
BRANCH   1   9
HETATM    9  C   UNL     1      -0.423   1.082 -13.215  1.00  0.00     0.345 C 
BRANCH   9  10
HETATM   10  C   UNL     1      -0.072   2.556 -13.077  1.00  0.00     0.199 C 
HETATM   11  O   UNL     1      -0.435   3.145 -12.032  1.00  0.00    -0.647 OA
HETATM   12  O   UNL     1       0.571   3.140 -14.001  1.00  0.00    -0.647 OA
ENDBRANCH   9  10
ENDBRANCH   1   9
TORSDOF 4
ENDMDL
MODEL 5
REMARK VINA RESULT:    -4.181      7.717      9.105
REMARK INTER + INTRA:          -5.235
REMARK INTER:                  -5.045
REMARK INTRA:                  -0.191
REMARK UNBOUND:                -0.077
REMARK  4 active torsions:
REMARK  status: ('A' for Active; 'I' for Inactive)
REMARK    1  A    between atoms: P_1  and  C_7 
REMARK    2  A    between atoms: C_7  and  N_10 
REMARK    3  A    between atoms: C_8  and  C_9 
REMARK    4  A    between atoms: C_8  and  N_10 
ROOT
HETATM    1  N   UNL     1       5.373  -0.193   0.996  1.00  0.00    -0.053 N 
ATOM      2  HN1 UNL     1       5.282  -1.194   0.820  1.00  0.00     0.278 HD
ATOM      3  HN2 UNL     1       6.389  -0.108   1.003  1.00  0.00     0.278 HD
ENDROOT
BRANCH   1   4
HETATM    4  C   UNL     1       4.827   0.142   2.308  1.00  0.00     0.377 C 
BRANCH   4   5
HETATM    5  P   UNL     1       4.470  -1.402   3.263  1.00  0.00     0.285 P 
HETATM    6  O   UNL     1       4.096  -1.005   4.674  1.00  0.00    -0.638 OA
HETATM    7  O   UNL     1       5.766  -2.200   3.217  1.00  0.00    -0.638 OA
HETATM    8  O   UNL     1       3.313  -2.027   2.496  1.00  0.00    -0.638 OA
ENDBRANCH   4   5
ENDBRANCH   1   4
BRANCH   1   9
HETATM    9  C   UNL     1       4.807   0.570  -0.108  1.00  0.00     0.345 C 
BRANCH   9  10
HETATM   10  C   UNL     1       3.802  -0.330  -0.810  1.00  0.00     0.199 C 
HETATM   11  O   UNL     1       4.249  -1.299  -1.467  1.00  0.00    -0.647 OA
HETATM   12  O   UNL     1       2.561  -0.086  -0.712  1.00  0.00    -0.647 OA
ENDBRANCH   9  10
ENDBRANCH   1   9
TORSDOF 4
ENDMDL
MODEL 6
REMARK VINA RESULT:    -3.805     13.962     14.460
REMARK INTER + INTRA:          -4.772
REMARK INTER:                  -4.541
REMARK INTRA:                  -0.231
REMARK UNBOUND:                -0.077
REMARK  4 active torsions:
REMARK  status: ('A' for Active; 'I' for Inactive)
REMARK    1  A    between atoms: P_1  and  C_7 
REMARK    2  A    between atoms: C_7  and  N_10 
REMARK    3  A    between atoms: C_8  and  C_9 
REMARK    4  A    between atoms: C_8  and  N_10 
ROOT
HETATM    1  N   UNL     1      -9.706  -8.402 -13.788  1.00  0.00    -0.053 N 
ATOM      2  HN1 UNL     1      -9.174  -8.182 -12.946  1.00  0.00     0.278 HD
ATOM      3  HN2 UNL     1      -8.942  -8.625 -14.425  1.00  0.00     0.278 HD
ENDROOT
BRANCH   1   4
HETATM    4  C   UNL     1     -10.426  -7.221 -14.254  1.00  0.00     0.377 C 
BRANCH   4   5
HETATM    5  P   UNL     1      -9.950  -5.744 -13.245  1.00  0.00     0.285 P 
HETATM    6  O   UNL     1      -8.463  -5.523 -13.410  1.00  0.00    -0.638 OA
HETATM    7  O   UNL     1     -10.320  -6.112 -11.814  1.00  0.00    -0.638 OA
HETATM    8  O   UNL     1     -10.787  -4.626 -13.849  1.00  0.00    -0.638 OA
ENDBRANCH   4   5
ENDBRANCH   1   4
BRANCH   1   9
HETATM    9  C   UNL     1     -10.543  -9.574 -13.568  1.00  0.00     0.345 C 
BRANCH   9  10
HETATM   10  C   UNL     1     -10.805  -9.666 -12.073  1.00  0.00     0.199 C 
HETATM   11  O   UNL     1      -9.824  -9.552 -11.301  1.00  0.00    -0.647 OA
HETATM   12  O   UNL     1     -11.987  -9.848 -11.650  1.00  0.00    -0.647 OA
ENDBRANCH   9  10
ENDBRANCH   1   9
TORSDOF 4
ENDMDL
MODEL 7
REMARK VINA RESULT:    -3.727     13.602     14.259
REMARK INTER + INTRA:          -4.675
REMARK INTER:                  -4.379
REMARK INTRA:                  -0.296
REMARK UNBOUND:                -0.077
REMARK  4 active torsions:
REMARK  status: ('A' for Active; 'I' for Inactive)
REMARK    1  A    between atoms: P_1  and  C_7 
REMARK    2  A    between atoms: C_7  and  N_10 
REMARK    3  A    between atoms: C_8  and  C_9 
REMARK    4  A    between atoms: C_8  and  N_10 
ROOT
HETATM    1  N   UNL     1     -11.298  -5.333 -13.414  1.00  0.00    -0.053 N 
ATOM      2  HN1 UNL     1     -11.885  -4.499 -13.403  1.00  0.00     0.278 HD
ATOM      3  HN2 UNL     1     -10.629  -5.087 -12.684  1.00  0.00     0.278 HD
ENDROOT
BRANCH   1   4
HETATM    4  C   UNL     1     -10.620  -5.459 -14.701  1.00  0.00     0.377 C 
BRANCH   4   5
HETATM    5  P   UNL     1      -8.820  -5.805 -14.441  1.00  0.00     0.285 P 
HETATM    6  O   UNL     1      -8.638  -7.305 -14.365  1.00  0.00    -0.638 OA
HETATM    7  O   UNL     1      -8.475  -5.118 -13.127  1.00  0.00    -0.638 OA
HETATM    8  O   UNL     1      -8.167  -5.190 -15.670  1.00  0.00    -0.638 OA
ENDBRANCH   4   5
ENDBRANCH   1   4
BRANCH   1   9
HETATM    9  C   UNL     1     -12.072  -6.503 -13.020  1.00  0.00     0.345 C 
BRANCH   9  10
HETATM   10  C   UNL     1     -11.481  -7.016 -11.716  1.00  0.00     0.199 C 
HETATM   11  O   UNL     1     -11.896  -6.507 -10.649  1.00  0.00    -0.647 OA
HETATM   12  O   UNL     1     -10.604  -7.932 -11.739  1.00  0.00    -0.647 OA
ENDBRANCH   9  10
ENDBRANCH   1   9
TORSDOF 4
ENDMDL
MODEL 8
REMARK VINA RESULT:    -3.669     13.564     14.180
REMARK INTER + INTRA:          -4.604
REMARK INTER:                  -4.308
REMARK INTRA:                  -0.296
REMARK UNBOUND:                -0.077
REMARK  4 active torsions:
REMARK  status: ('A' for Active; 'I' for Inactive)
REMARK    1  A    between atoms: P_1  and  C_7 
REMARK    2  A    between atoms: C_7  and  N_10 
REMARK    3  A    between atoms: C_8  and  C_9 
REMARK    4  A    between atoms: C_8  and  N_10 
ROOT
HETATM    1  N   UNL     1     -10.739  -4.816 -13.666  1.00  0.00    -0.053 N 
ATOM      2  HN1 UNL     1     -10.240  -4.828 -12.777  1.00  0.00     0.278 HD
ATOM      3  HN2 UNL     1     -11.221  -3.921 -13.585  1.00  0.00     0.278 HD
ENDROOT
BRANCH   1   4
HETATM    4  C   UNL     1     -11.705  -5.909 -13.720  1.00  0.00     0.377 C 
BRANCH   4   5
HETATM    5  P   UNL     1     -11.331  -7.155 -12.403  1.00  0.00     0.285 P 
HETATM    6  O   UNL     1     -10.512  -8.263 -13.026  1.00  0.00    -0.638 OA
HETATM    7  O   UNL     1     -12.693  -7.646 -11.930  1.00  0.00    -0.638 OA
HETATM    8  O   UNL     1     -10.553  -6.350 -11.373  1.00  0.00    -0.638 OA
ENDBRANCH   4   5
ENDBRANCH   1   4
BRANCH   1   9
HETATM    9  C   UNL     1      -9.797  -4.786 -14.777  1.00  0.00     0.345 C 
BRANCH   9  10
HETATM   10  C   UNL     1      -8.411  -5.027 -14.199  1.00  0.00     0.199 C 
HETATM   11  O   UNL     1      -8.064  -6.214 -13.993  1.00  0.00    -0.647 OA
HETATM   12  O   UNL     1      -7.653  -4.042 -13.948  1.00  0.00    -0.647 OA
ENDBRANCH   9  10
ENDBRANCH   1   9
TORSDOF 4
ENDMDL
MODEL 9
REMARK VINA RESULT:    -3.660     15.076     15.676
REMARK INTER + INTRA:          -4.593
REMARK INTER:                  -4.675
REMARK INTRA:                   0.082
REMARK UNBOUND:                -0.077
REMARK  4 active torsions:
REMARK  status: ('A' for Active; 'I' for Inactive)
REMARK    1  A    between atoms: P_1  and  C_7 
REMARK    2  A    between atoms: C_7  and  N_10 
REMARK    3  A    between atoms: C_8  and  C_9 
REMARK    4  A    between atoms: C_8  and  N_10 
ROOT
HETATM    1  N   UNL     1     -12.639  -5.645   5.116  1.00  0.00    -0.053 N 
ATOM      2  HN1 UNL     1     -12.365  -4.755   5.532  1.00  0.00     0.278 HD
ATOM      3  HN2 UNL     1     -12.936  -5.324   4.194  1.00  0.00     0.278 HD
ENDROOT
BRANCH   1   4
HETATM    4  C   UNL     1     -13.769  -6.217   5.841  1.00  0.00     0.377 C 
BRANCH   4   5
HETATM    5  P   UNL     1     -13.609  -5.863   7.651  1.00  0.00     0.285 P 
HETATM    6  O   UNL     1     -12.138  -5.879   8.003  1.00  0.00    -0.638 OA
HETATM    7  O   UNL     1     -14.375  -6.985   8.339  1.00  0.00    -0.638 OA
HETATM    8  O   UNL     1     -14.238  -4.485   7.794  1.00  0.00    -0.638 OA
ENDBRANCH   4   5
ENDBRANCH   1   4
BRANCH   1   9
HETATM    9  C   UNL     1     -11.486  -6.528   4.999  1.00  0.00     0.345 C 
BRANCH   9  10
HETATM   10  C   UNL     1     -10.462  -5.818   4.126  1.00  0.00     0.199 C 
HETATM   11  O   UNL     1      -9.357  -6.383   3.949  1.00  0.00    -0.647 OA
HETATM   12  O   UNL     1     -10.746  -4.697   3.606  1.00  0.00    -0.647 OA
ENDBRANCH   9  10
ENDBRANCH   1   9
TORSDOF 4
ENDMDL
MODEL 10
REMARK VINA RESULT:    -3.651     13.049     13.794
REMARK INTER + INTRA:          -4.582
REMARK INTER:                  -4.444
REMARK INTRA:                  -0.138
REMARK UNBOUND:                -0.077
REMARK  4 active torsions:
REMARK  status: ('A' for Active; 'I' for Inactive)
REMARK    1  A    between atoms: P_1  and  C_7 
REMARK    2  A    between atoms: C_7  and  N_10 
REMARK    3  A    between atoms: C_8  and  C_9 
REMARK    4  A    between atoms: C_8  and  N_10 
ROOT
HETATM    1  N   UNL     1      -8.693  -5.198 -13.235  1.00  0.00    -0.053 N 
ATOM      2  HN1 UNL     1      -8.499  -5.896 -12.516  1.00  0.00     0.278 HD
ATOM      3  HN2 UNL     1      -8.485  -4.347 -12.713  1.00  0.00     0.278 HD
ENDROOT
BRANCH   1   4
HETATM    4  C   UNL     1     -10.103  -5.233 -13.609  1.00  0.00     0.377 C 
BRANCH   4   5
HETATM    5  P   UNL     1     -10.944  -6.667 -12.794  1.00  0.00     0.285 P 
HETATM    6  O   UNL     1     -12.426  -6.563 -13.078  1.00  0.00    -0.638 OA
HETATM    7  O   UNL     1     -10.632  -6.512 -11.312  1.00  0.00    -0.638 OA
HETATM    8  O   UNL     1     -10.295  -7.873 -13.457  1.00  0.00    -0.638 OA
ENDBRANCH   4   5
ENDBRANCH   1   4
BRANCH   1   9
HETATM    9  C   UNL     1      -7.767  -5.349 -14.350  1.00  0.00     0.345 C 
BRANCH   9  10
HETATM   10  C   UNL     1      -7.351  -3.952 -14.783  1.00  0.00     0.199 C 
HETATM   11  O   UNL     1      -6.404  -3.409 -14.167  1.00  0.00    -0.647 OA
HETATM   12  O   UNL     1      -7.957  -3.382 -15.740  1.00  0.00    -0.647 OA
ENDBRANCH   9  10
ENDBRANCH   1   9
TORSDOF 4
ENDMDL
MODEL 11
REMARK VINA RESULT:    -3.609     13.710     14.414
REMARK INTER + INTRA:          -4.530
REMARK INTER:                  -4.273
REMARK INTRA:                  -0.257
REMARK UNBOUND:                -0.077
REMARK  4 active torsions:
REMARK  status: ('A' for Active; 'I' for Inactive)
REMARK    1  A    between atoms: P_1  and  C_7 
REMARK    2  A    between atoms: C_7  and  N_10 
REMARK    3  A    between atoms: C_8  and  C_9 
REMARK    4  A    between atoms: C_8  and  N_10 
ROOT
HETATM    1  N   UNL     1      -9.442  -7.477 -14.124  1.00  0.00    -0.053 N 
ATOM      2  HN1 UNL     1      -9.132  -8.393 -14.448  1.00  0.00     0.278 HD
ATOM      3  HN2 UNL     1      -8.934  -7.421 -13.242  1.00  0.00     0.278 HD
ENDROOT
BRANCH   1   4
HETATM    4  C   UNL     1     -10.881  -7.486 -13.880  1.00  0.00     0.377 C 
BRANCH   4   5
HETATM    5  P   UNL     1     -11.218  -7.578 -12.062  1.00  0.00     0.285 P 
HETATM    6  O   UNL     1     -10.609  -6.357 -11.411  1.00  0.00    -0.638 OA
HETATM    7  O   UNL     1     -10.549  -8.867 -11.604  1.00  0.00    -0.638 OA
HETATM    8  O   UNL     1     -12.739  -7.593 -11.990  1.00  0.00    -0.638 OA
ENDBRANCH   4   5
ENDBRANCH   1   4
BRANCH   1   9
HETATM    9  C   UNL     1      -8.991  -6.436 -15.038  1.00  0.00     0.345 C 
BRANCH   9  10
HETATM   10  C   UNL     1      -8.896  -5.145 -14.240  1.00  0.00     0.199 C 
HETATM   11  O   UNL     1      -8.094  -5.113 -13.277  1.00  0.00    -0.647 OA
HETATM   12  O   UNL     1      -9.614  -4.150 -14.562  1.00  0.00    -0.647 OA
ENDBRANCH   9  10
ENDBRANCH   1   9
TORSDOF 4
ENDMDL
MODEL 12
REMARK VINA RESULT:    -3.514     14.040     14.899
REMARK INTER + INTRA:          -4.413
REMARK INTER:                  -4.248
REMARK INTRA:                  -0.165
REMARK UNBOUND:                -0.077
REMARK  4 active torsions:
REMARK  status: ('A' for Active; 'I' for Inactive)
REMARK    1  A    between atoms: P_1  and  C_7 
REMARK    2  A    between atoms: C_7  and  N_10 
REMARK    3  A    between atoms: C_8  and  C_9 
REMARK    4  A    between atoms: C_8  and  N_10 
ROOT
HETATM    1  N   UNL     1      -9.486  -7.917 -13.966  1.00  0.00    -0.053 N 
ATOM      2  HN1 UNL     1      -8.743  -8.391 -14.478  1.00  0.00     0.278 HD
ATOM      3  HN2 UNL     1      -9.033  -7.807 -13.060  1.00  0.00     0.278 HD
ENDROOT
BRANCH   1   4
HETATM    4  C   UNL     1     -10.654  -8.784 -13.847  1.00  0.00     0.377 C 
BRANCH   4   5
HETATM    5  P   UNL     1     -10.934  -9.236 -12.073  1.00  0.00     0.285 P 
HETATM    6  O   UNL     1     -12.210 -10.043 -11.992  1.00  0.00    -0.638 OA
HETATM    7  O   UNL     1     -11.050  -7.905 -11.344  1.00  0.00    -0.638 OA
HETATM    8  O   UNL     1      -9.694 -10.046 -11.722  1.00  0.00    -0.638 OA
ENDBRANCH   4   5
ENDBRANCH   1   4
BRANCH   1   9
HETATM    9  C   UNL     1      -9.759  -6.613 -14.559  1.00  0.00     0.345 C 
BRANCH   9  10
HETATM   10  C   UNL     1      -9.592  -5.575 -13.460  1.00  0.00     0.199 C 
HETATM   11  O   UNL     1      -8.432  -5.171 -13.212  1.00  0.00    -0.647 OA
HETATM   12  O   UNL     1     -10.611  -5.148 -12.836  1.00  0.00    -0.647 OA
ENDBRANCH   9  10
ENDBRANCH   1   9
TORSDOF 4
ENDMDL
MODEL 13
REMARK VINA RESULT:    -3.462     14.408     14.822
REMARK INTER + INTRA:          -4.349
REMARK INTER:                  -4.053
REMARK INTRA:                  -0.296
REMARK UNBOUND:                -0.077
REMARK  4 active torsions:
REMARK  status: ('A' for Active; 'I' for Inactive)
REMARK    1  A    between atoms: P_1  and  C_7 
REMARK    2  A    between atoms: C_7  and  N_10 
REMARK    3  A    between atoms: C_8  and  C_9 
REMARK    4  A    between atoms: C_8  and  N_10 
ROOT
HETATM    1  N   UNL     1     -10.212  -8.892 -12.856  1.00  0.00    -0.053 N 
ATOM      2  HN1 UNL     1      -9.822  -9.742 -12.449  1.00  0.00     0.278 HD
ATOM      3  HN2 UNL     1      -9.517  -8.213 -12.545  1.00  0.00     0.278 HD
ENDROOT
BRANCH   1   4
HETATM    4  C   UNL     1     -11.512  -8.595 -12.265  1.00  0.00     0.377 C 
BRANCH   4   5
HETATM    5  P   UNL     1     -11.661  -6.781 -11.928  1.00  0.00     0.285 P 
HETATM    6  O   UNL     1     -10.269  -6.228 -11.718  1.00  0.00    -0.638 OA
HETATM    7  O   UNL     1     -12.512  -6.684 -10.669  1.00  0.00    -0.638 OA
HETATM    8  O   UNL     1     -12.328  -6.247 -13.188  1.00  0.00    -0.638 OA
ENDBRANCH   4   5
ENDBRANCH   1   4
BRANCH   1   9
HETATM    9  C   UNL     1     -10.215  -8.982 -14.311  1.00  0.00     0.345 C 
BRANCH   9  10
HETATM   10  C   UNL     1      -9.493  -7.754 -14.841  1.00  0.00     0.199 C 
HETATM   11  O   UNL     1     -10.054  -7.092 -15.745  1.00  0.00    -0.647 OA
HETATM   12  O   UNL     1      -8.363  -7.431 -14.361  1.00  0.00    -0.647 OA
ENDBRANCH   9  10
ENDBRANCH   1   9
TORSDOF 4
ENDMDL
MODEL 14
REMARK VINA RESULT:    -3.452     13.335     14.015
REMARK INTER + INTRA:          -4.336
REMARK INTER:                  -4.184
REMARK INTRA:                  -0.151
REMARK UNBOUND:                -0.077
REMARK  4 active torsions:
REMARK  status: ('A' for Active; 'I' for Inactive)
REMARK    1  A    between atoms: P_1  and  C_7 
REMARK    2  A    between atoms: C_7  and  N_10 
REMARK    3  A    between atoms: C_8  and  C_9 
REMARK    4  A    between atoms: C_8  and  N_10 
ROOT
HETATM    1  N   UNL     1     -10.936  -5.157 -13.252  1.00  0.00    -0.053 N 
ATOM      2  HN1 UNL     1     -11.419  -4.563 -13.926  1.00  0.00     0.278 HD
ATOM      3  HN2 UNL     1     -11.133  -4.645 -12.393  1.00  0.00     0.278 HD
ENDROOT
BRANCH   1   4
HETATM    4  C   UNL     1      -9.501  -5.166 -13.521  1.00  0.00     0.377 C 
BRANCH   4   5
HETATM    5  P   UNL     1      -9.122  -4.101 -14.987  1.00  0.00     0.285 P 
HETATM    6  O   UNL     1     -10.084  -2.934 -14.981  1.00  0.00    -0.638 OA
HETATM    7  O   UNL     1      -9.328  -5.007 -16.193  1.00  0.00    -0.638 OA
HETATM    8  O   UNL     1      -7.678  -3.681 -14.748  1.00  0.00    -0.638 OA
ENDBRANCH   4   5
ENDBRANCH   1   4
BRANCH   1   9
HETATM    9  C   UNL     1     -11.550  -6.478 -13.208  1.00  0.00     0.345 C 
BRANCH   9  10
HETATM   10  C   UNL     1     -11.275  -7.057 -11.829  1.00  0.00     0.199 C 
HETATM   11  O   UNL     1     -10.635  -8.133 -11.766  1.00  0.00    -0.647 OA
HETATM   12  O   UNL     1     -11.688  -6.448 -10.796  1.00  0.00    -0.647 OA
ENDBRANCH   9  10
ENDBRANCH   1   9
TORSDOF 4
ENDMDL
MODEL 15
REMARK VINA RESULT:    -3.389     13.850     14.457
REMARK INTER + INTRA:          -4.259
REMARK INTER:                  -4.043
REMARK INTRA:                  -0.216
REMARK UNBOUND:                -0.077
REMARK  4 active torsions:
REMARK  status: ('A' for Active; 'I' for Inactive)
REMARK    1  A    between atoms: P_1  and  C_7 
REMARK    2  A    between atoms: C_7  and  N_10 
REMARK    3  A    between atoms: C_8  and  C_9 
REMARK    4  A    between atoms: C_8  and  N_10 
ROOT
HETATM    1  N   UNL     1      -9.784  -7.818 -13.621  1.00  0.00    -0.053 N 
ATOM      2  HN1 UNL     1      -9.210  -7.348 -12.921  1.00  0.00     0.278 HD
ATOM      3  HN2 UNL     1      -9.648  -8.788 -13.338  1.00  0.00     0.278 HD
ENDROOT
BRANCH   1   4
HETATM    4  C   UNL     1      -9.239  -7.597 -14.957  1.00  0.00     0.377 C 
BRANCH   4   5
HETATM    5  P   UNL     1      -8.328  -5.987 -15.015  1.00  0.00     0.285 P 
HETATM    6  O   UNL     1      -8.093  -5.530 -13.593  1.00  0.00    -0.638 OA
HETATM    7  O   UNL     1      -9.250  -5.043 -15.776  1.00  0.00    -0.638 OA
HETATM    8  O   UNL     1      -7.041  -6.341 -15.746  1.00  0.00    -0.638 OA
ENDBRANCH   4   5
ENDBRANCH   1   4
BRANCH   1   9
HETATM    9  C   UNL     1     -11.183  -7.437 -13.468  1.00  0.00     0.345 C 
BRANCH   9  10
HETATM   10  C   UNL     1     -11.387  -7.048 -12.012  1.00  0.00     0.199 C 
HETATM   11  O   UNL     1     -12.440  -7.430 -11.450  1.00  0.00    -0.647 OA
HETATM   12  O   UNL     1     -10.503  -6.365 -11.412  1.00  0.00    -0.647 OA
ENDBRANCH   9  10
ENDBRANCH   1   9
TORSDOF 4
ENDMDL
MODEL 16
REMARK VINA RESULT:    -3.376     13.686     14.302
REMARK INTER + INTRA:          -4.243
REMARK INTER:                  -4.093
REMARK INTRA:                  -0.150
REMARK UNBOUND:                -0.077
REMARK  4 active torsions:
REMARK  status: ('A' for Active; 'I' for Inactive)
REMARK    1  A    between atoms: P_1  and  C_7 
REMARK    2  A    between atoms: C_7  and  N_10 
REMARK    3  A    between atoms: C_8  and  C_9 
REMARK    4  A    between atoms: C_8  and  N_10 
ROOT
HETATM    1  N   UNL     1     -10.393  -6.599 -12.199  1.00  0.00    -0.053 N 
ATOM      2  HN1 UNL     1     -10.193  -6.223 -11.272  1.00  0.00     0.278 HD
ATOM      3  HN2 UNL     1      -9.566  -7.180 -12.334  1.00  0.00     0.278 HD
ENDROOT
BRANCH   1   4
HETATM    4  C   UNL     1     -10.425  -5.524 -13.186  1.00  0.00     0.377 C 
BRANCH   4   5
HETATM    5  P   UNL     1      -8.927  -5.610 -14.271  1.00  0.00     0.285 P 
HETATM    6  O   UNL     1      -9.311  -5.096 -15.640  1.00  0.00    -0.638 OA
HETATM    7  O   UNL     1      -8.547  -7.084 -14.297  1.00  0.00    -0.638 OA
HETATM    8  O   UNL     1      -7.929  -4.710 -13.557  1.00  0.00    -0.638 OA
ENDBRANCH   4   5
ENDBRANCH   1   4
BRANCH   1   9
HETATM    9  C   UNL     1     -11.593  -7.424 -12.164  1.00  0.00     0.345 C 
BRANCH   9  10
HETATM   10  C   UNL     1     -11.141  -8.874 -12.098  1.00  0.00     0.199 C 
HETATM   11  O   UNL     1     -11.814  -9.723 -12.728  1.00  0.00    -0.647 OA
HETATM   12  O   UNL     1     -10.112  -9.184 -11.424  1.00  0.00    -0.647 OA
ENDBRANCH   9  10
ENDBRANCH   1   9
TORSDOF 4
ENDMDL
MODEL 17
REMARK VINA RESULT:    -3.317     13.888     14.816
REMARK INTER + INTRA:          -4.169
REMARK INTER:                  -4.095
REMARK INTRA:                  -0.074
REMARK UNBOUND:                -0.077
REMARK  4 active torsions:
REMARK  status: ('A' for Active; 'I' for Inactive)
REMARK    1  A    between atoms: P_1  and  C_7 
REMARK    2  A    between atoms: C_7  and  N_10 
REMARK    3  A    between atoms: C_8  and  C_9 
REMARK    4  A    between atoms: C_8  and  N_10 
ROOT
HETATM    1  N   UNL     1     -10.122  -6.992 -12.971  1.00  0.00    -0.053 N 
ATOM      2  HN1 UNL     1      -9.872  -7.475 -13.834  1.00  0.00     0.278 HD
ATOM      3  HN2 UNL     1      -9.300  -7.205 -12.406  1.00  0.00     0.278 HD
ENDROOT
BRANCH   1   4
HETATM    4  C   UNL     1     -11.314  -7.592 -12.380  1.00  0.00     0.377 C 
BRANCH   4   5
HETATM    5  P   UNL     1     -11.074  -9.417 -12.179  1.00  0.00     0.285 P 
HETATM    6  O   UNL     1      -9.814  -9.638 -11.373  1.00  0.00    -0.638 OA
HETATM    7  O   UNL     1     -10.949  -9.954 -13.599  1.00  0.00    -0.638 OA
HETATM    8  O   UNL     1     -12.333  -9.854 -11.444  1.00  0.00    -0.638 OA
ENDBRANCH   4   5
ENDBRANCH   1   4
BRANCH   1   9
HETATM    9  C   UNL     1     -10.220  -5.556 -13.204  1.00  0.00     0.345 C 
BRANCH   9  10
HETATM   10  C   UNL     1      -8.928  -5.120 -13.878  1.00  0.00     0.199 C 
HETATM   11  O   UNL     1      -8.917  -4.003 -14.447  1.00  0.00    -0.647 OA
HETATM   12  O   UNL     1      -7.912  -5.879 -13.845  1.00  0.00    -0.647 OA
ENDBRANCH   9  10
ENDBRANCH   1   9
TORSDOF 4
ENDMDL
MODEL 18
REMARK VINA RESULT:    -3.179     14.204     14.856
REMARK INTER + INTRA:          -3.999
REMARK INTER:                  -3.765
REMARK INTRA:                  -0.234
REMARK UNBOUND:                -0.077
REMARK  4 active torsions:
REMARK  status: ('A' for Active; 'I' for Inactive)
REMARK    1  A    between atoms: P_1  and  C_7 
REMARK    2  A    between atoms: C_7  and  N_10 
REMARK    3  A    between atoms: C_8  and  C_9 
REMARK    4  A    between atoms: C_8  and  N_10 
ROOT
HETATM    1  N   UNL     1     -13.054  -5.537 -12.753  1.00  0.00    -0.053 N 
ATOM      2  HN1 UNL     1     -13.442  -4.713 -13.212  1.00  0.00     0.278 HD
ATOM      3  HN2 UNL     1     -12.497  -5.087 -12.027  1.00  0.00     0.278 HD
ENDROOT
BRANCH   1   4
HETATM    4  C   UNL     1     -12.192  -6.272 -13.673  1.00  0.00     0.377 C 
BRANCH   4   5
HETATM    5  P   UNL     1     -10.414  -6.010 -13.227  1.00  0.00     0.285 P 
HETATM    6  O   UNL     1     -10.298  -6.054 -11.720  1.00  0.00    -0.638 OA
HETATM    7  O   UNL     1     -10.068  -4.637 -13.789  1.00  0.00    -0.638 OA
HETATM    8  O   UNL     1      -9.709  -7.172 -13.911  1.00  0.00    -0.638 OA
ENDBRANCH   4   5
ENDBRANCH   1   4
BRANCH   1   9
HETATM    9  C   UNL     1     -14.118  -6.333 -12.155  1.00  0.00     0.345 C 
BRANCH   9  10
HETATM   10  C   UNL     1     -13.567  -6.929 -10.869  1.00  0.00     0.199 C 
HETATM   11  O   UNL     1     -13.599  -8.175 -10.744  1.00  0.00    -0.647 OA
HETATM   12  O   UNL     1     -13.094  -6.166  -9.972  1.00  0.00    -0.647 OA
ENDBRANCH   9  10
ENDBRANCH   1   9
TORSDOF 4
ENDMDL
MODEL 19
REMARK VINA RESULT:    -3.176     15.239     15.958
REMARK INTER + INTRA:          -3.996
REMARK INTER:                  -3.758
REMARK INTRA:                  -0.237
REMARK UNBOUND:                -0.077
REMARK  4 active torsions:
REMARK  status: ('A' for Active; 'I' for Inactive)
REMARK    1  A    between atoms: P_1  and  C_7 
REMARK    2  A    between atoms: C_7  and  N_10 
REMARK    3  A    between atoms: C_8  and  C_9 
REMARK    4  A    between atoms: C_8  and  N_10 
ROOT
HETATM    1  N   UNL     1     -10.685  -8.754 -12.836  1.00  0.00    -0.053 N 
ATOM      2  HN1 UNL     1      -9.696  -8.979 -12.946  1.00  0.00     0.278 HD
ATOM      3  HN2 UNL     1     -10.765  -8.812 -11.821  1.00  0.00     0.278 HD
ENDROOT
BRANCH   1   4
HETATM    4  C   UNL     1     -11.511  -9.777 -13.469  1.00  0.00     0.377 C 
BRANCH   4   5
HETATM    5  P   UNL     1     -13.017 -10.104 -12.443  1.00  0.00     0.285 P 
HETATM    6  O   UNL     1     -13.997  -8.977 -12.677  1.00  0.00    -0.638 OA
HETATM    7  O   UNL     1     -12.512 -10.137 -11.007  1.00  0.00    -0.638 OA
HETATM    8  O   UNL     1     -13.514 -11.442 -12.972  1.00  0.00    -0.638 OA
ENDBRANCH   4   5
ENDBRANCH   1   4
BRANCH   1   9
HETATM    9  C   UNL     1     -10.950  -7.395 -13.290  1.00  0.00     0.345 C 
BRANCH   9  10
HETATM   10  C   UNL     1     -10.761  -6.475 -12.094  1.00  0.00     0.199 C 
HETATM   11  O   UNL     1     -11.462  -6.691 -11.077  1.00  0.00    -0.647 OA
HETATM   12  O   UNL     1      -9.913  -5.534 -12.150  1.00  0.00    -0.647 OA
ENDBRANCH   9  10
ENDBRANCH   1   9
TORSDOF 4
ENDMDL
MODEL 20
REMARK VINA RESULT:    -3.136     15.227     16.146
REMARK INTER + INTRA:          -3.947
REMARK INTER:                  -3.867
REMARK INTRA:                  -0.080
REMARK UNBOUND:                -0.077
REMARK  4 active torsions:
REMARK  status: ('A' for Active; 'I' for Inactive)
REMARK    1  A    between atoms: P_1  and  C_7 
REMARK    2  A    between atoms: C_7  and  N_10 
REMARK    3  A    between atoms: C_8  and  C_9 
REMARK    4  A    between atoms: C_8  and  N_10 
ROOT
HETATM    1  N   UNL     1       6.368   5.332 -15.700  1.00  0.00    -0.053 N 
ATOM      2  HN1 UNL     1       6.396   5.764 -14.776  1.00  0.00     0.278 HD
ATOM      3  HN2 UNL     1       5.994   4.415 -15.454  1.00  0.00     0.278 HD
ENDROOT
BRANCH   1   4
HETATM    4  C   UNL     1       7.717   5.202 -16.241  1.00  0.00     0.377 C 
BRANCH   4   5
HETATM    5  P   UNL     1       8.940   5.018 -14.864  1.00  0.00     0.285 P 
HETATM    6  O   UNL     1      10.221   5.705 -15.280  1.00  0.00    -0.638 OA
HETATM    7  O   UNL     1       9.123   3.515 -14.701  1.00  0.00    -0.638 OA
HETATM    8  O   UNL     1       8.252   5.704 -13.692  1.00  0.00    -0.638 OA
ENDBRANCH   4   5
ENDBRANCH   1   4
BRANCH   1   9
HETATM    9  C   UNL     1       5.435   6.044 -16.564  1.00  0.00     0.345 C 
BRANCH   9  10
HETATM   10  C   UNL     1       4.105   6.114 -15.831  1.00  0.00     0.199 C 
HETATM   11  O   UNL     1       3.147   5.455 -16.300  1.00  0.00    -0.647 OA
HETATM   12  O   UNL     1       3.999   6.819 -14.782  1.00  0.00    -0.647 OA
ENDBRANCH   9  10
ENDBRANCH   1   9
TORSDOF 4
ENDMDL
