REMARK  9 active torsions:
REMARK  status: ('A' for Active; 'I' for Inactive)
REMARK    1  A    between atoms: N_17  and  C_18 
REMARK    2  A    between atoms: C_18  and  C_19 
REMARK    3  A    between atoms: C_19  and  O_20 
REMARK    4  A    between atoms: C_19  and  C_22 
REMARK    5  A    between atoms: C_22  and  O_23 
REMARK    6  A    between atoms: C_22  and  C_25 
REMARK    7  A    between atoms: C_25  and  O_26 
REMARK    8  A    between atoms: C_25  and  C_28 
REMARK    9  A    between atoms: C_28  and  O_29 
ROOT
HETATM    1  C   UNL     1     -66.078  36.716  -5.491  1.00  0.00     0.070 C 
HETATM    2  C   UNL     1     -66.985  37.373  -6.566  1.00  0.00     0.032 A 
HETATM    3  C   UNL     1     -67.511  36.608  -7.564  1.00  0.00     0.028 A 
HETATM    4  C   UNL     1     -67.319  35.116  -7.678  1.00  0.00     0.070 C 
HETATM    5  N   UNL     1     -68.278  37.246  -8.529  1.00  0.00    -0.351 N 
ATOM      6  HN  UNL     1     -68.711  36.728  -9.294  1.00  0.00     0.166 HD
HETATM    7  C   UNL     1     -68.421  38.544  -8.414  1.00  0.00     0.146 A 
HETATM    8  C   UNL     1     -69.230  39.237  -9.508  1.00  0.00     0.280 C 
HETATM    9  O   UNL     1     -69.580  38.591 -10.467  1.00  0.00    -0.265 OA
HETATM   10  N   UNL     1     -69.390  40.540  -9.305  1.00  0.00    -0.273 N 
ATOM     11  HN  UNL     1     -69.865  41.047 -10.052  1.00  0.00     0.173 HD
HETATM   12  C   UNL     1     -68.995  41.313  -8.205  1.00  0.00     0.328 C 
HETATM   13  O   UNL     1     -69.271  42.466  -8.082  1.00  0.00    -0.247 OA
HETATM   14  N   UNL     1     -68.172  40.685  -7.241  1.00  0.00    -0.292 N 
ATOM     15  HN  UNL     1     -67.758  41.199  -6.464  1.00  0.00     0.172 HD
HETATM   16  C   UNL     1     -67.977  39.408  -7.409  1.00  0.00     0.144 A 
HETATM   17  N   UNL     1     -67.175  38.703  -6.438  1.00  0.00    -0.331 N 
ENDROOT
BRANCH  17  18
HETATM   18  C   UNL     1     -66.488  39.604  -5.492  1.00  0.00     0.165 C 
BRANCH  18  19
HETATM   19  C   UNL     1     -65.235  40.179  -6.274  1.00  0.00     0.167 C 
BRANCH  19  20
HETATM   20  O   UNL     1     -64.650  39.218  -7.192  1.00  0.00    -0.391 OA
ATOM     21  HO  UNL     1     -63.899  39.563  -7.661  1.00  0.00     0.210 HD
ENDBRANCH  19  20
BRANCH  19  22
HETATM   22  C   UNL     1     -64.031  40.653  -5.383  1.00  0.00     0.179 C 
BRANCH  22  23
HETATM   23  O   UNL     1     -63.493  39.478  -4.732  1.00  0.00    -0.390 OA
ATOM     24  HO  UNL     1     -62.765  39.765  -4.193  1.00  0.00     0.210 HD
ENDBRANCH  22  23
BRANCH  22  25
HETATM   25  C   UNL     1     -64.481  41.603  -4.284  1.00  0.00     0.173 C 
BRANCH  25  26
HETATM   26  O   UNL     1     -65.373  42.639  -4.771  1.00  0.00    -0.391 OA
ATOM     27  HO  UNL     1     -65.654  43.232  -4.084  1.00  0.00     0.210 HD
ENDBRANCH  25  26
BRANCH  25  28
HETATM   28  C   UNL     1     -63.252  42.220  -3.620  1.00  0.00     0.198 C 
BRANCH  28  29
HETATM   29  O   UNL     1     -63.563  43.214  -2.631  1.00  0.00    -0.398 OA
ATOM     30  HO  UNL     1     -62.798  43.598  -2.218  1.00  0.00     0.209 HD
ENDBRANCH  28  29
ENDBRANCH  25  28
ENDBRANCH  22  25
ENDBRANCH  19  22
ENDBRANCH  18  19
ENDBRANCH  17  18
TORSDOF 9
