MODEL 1
REMARK VINA RESULT:    -9.459      0.000      0.000
REMARK INTER + INTRA:         -13.810
REMARK INTER:                 -13.053
REMARK INTRA:                  -0.757
REMARK UNBOUND:                -0.757
REMARK  7 active torsions:
REMARK  status: ('A' for Active; 'I' for Inactive)
REMARK    1  A    between atoms: N_11  and  C_12 
REMARK    2  A    between atoms: C_12  and  C_13 
REMARK    3  A    between atoms: C_16  and  O_17 
REMARK    4  A    between atoms: C_25  and  C_26 
REMARK    5  A    between atoms: C_27  and  C_28 
REMARK    6  A    between atoms: C_28  and  C_29 
REMARK    7  A    between atoms: C_29  and  O_32 
ROOT
HETATM    1 CL   UNL     1      34.539   9.048 -27.588  1.00  0.00    -0.063 Cl
HETATM    2  C   UNL     1      33.625   9.738 -26.248  1.00  0.00     0.121 A 
HETATM    3  N   UNL     1      34.600  10.310 -25.571  1.00  0.00    -0.320 N 
ATOM      4  HN  UNL     1      35.552  10.316 -25.936  1.00  0.00     0.169 HD
HETATM    5  C   UNL     1      34.318  10.880 -24.401  1.00  0.00     0.195 A 
HETATM    6  N   UNL     1      35.415  11.434 -23.725  1.00  0.00    -0.063 NA
HETATM    7  N   UNL     1      33.085  10.986 -23.974  1.00  0.00    -0.315 N 
ATOM      8  HN  UNL     1      32.878  11.476 -23.104  1.00  0.00     0.170 HD
HETATM    9  C   UNL     1      32.118  10.448 -24.685  1.00  0.00     0.129 A 
HETATM   10  C   UNL     1      32.356   9.770 -25.817  1.00  0.00     0.067 A 
HETATM   11  N   UNL     1      30.772  10.402 -24.447  1.00  0.00    -0.314 N 
HETATM   12  C   UNL     1      30.169   9.708 -25.461  1.00  0.00     0.119 A 
HETATM   13  C   UNL     1      31.114   9.281 -26.333  1.00  0.00     0.050 A 
ENDROOT
BRANCH  11  14
HETATM   14  C   UNL     1      30.093  10.981 -23.364  1.00  0.00     0.128 C 
BRANCH  14  15
HETATM   15  C   UNL     1      29.082  11.981 -23.819  1.00  0.00     0.057 A 
HETATM   16  N   UNL     1      27.816  11.552 -23.719  1.00  0.00    -0.364 N 
HETATM   17  C   UNL     1      26.836  12.404 -24.138  1.00  0.00     0.098 A 
ATOM     18  HN  UNL     1      27.595  10.629 -23.346  1.00  0.00     0.165 HD
HETATM   19  C   UNL     1      27.065  13.709 -24.551  1.00  0.00    -0.013 A 
HETATM   20  C   UNL     1      25.909  14.639 -24.918  1.00  0.00     0.052 C 
HETATM   21  C   UNL     1      28.399  14.105 -24.625  1.00  0.00     0.083 A 
HETATM   22  C   UNL     1      29.427  13.257 -24.230  1.00  0.00     0.000 A 
HETATM   23  C   UNL     1      30.823  13.733 -24.258  1.00  0.00     0.054 C 
BRANCH  21  24
HETATM   24  O   UNL     1      28.682  15.396 -25.004  1.00  0.00    -0.355 OA
HETATM   25  C   UNL     1      28.885  15.541 -26.361  1.00  0.00     0.210 C 
ENDBRANCH  21  24
ENDBRANCH  14  15
ENDBRANCH  11  14
BRANCH  13  26
HETATM   26  C   UNL     1      30.784   8.491 -27.547  1.00  0.00    -0.064 C 
HETATM   27  C   UNL     1      30.512   7.883 -28.498  1.00  0.00    -0.098 C 
BRANCH  27  28
HETATM   28  C   UNL     1      30.210   7.063 -29.728  1.00  0.00     0.131 C 
BRANCH  28  29
HETATM   29  C   UNL     1      31.461   6.824 -30.532  1.00  0.00     0.061 C 
HETATM   30  C   UNL     1      31.124   6.108 -31.807  1.00  0.00     0.046 C 
HETATM   31  C   UNL     1      32.408   5.963 -29.729  1.00  0.00     0.046 C 
BRANCH  29  32
HETATM   32  O   UNL     1      32.074   8.023 -30.885  1.00  0.00    -0.390 OA
ATOM     33  HO  UNL     1      32.318   8.526 -30.118  1.00  0.00     0.210 HD
ENDBRANCH  29  32
ENDBRANCH  28  29
ENDBRANCH  27  28
ENDBRANCH  13  26
TORSDOF 7
ENDMDL
MODEL 2
REMARK VINA RESULT:    -9.076      0.928      1.640
REMARK INTER + INTRA:         -13.282
REMARK INTER:                 -12.636
REMARK INTRA:                  -0.646
REMARK UNBOUND:                -0.757
REMARK  7 active torsions:
REMARK  status: ('A' for Active; 'I' for Inactive)
REMARK    1  A    between atoms: N_11  and  C_12 
REMARK    2  A    between atoms: C_12  and  C_13 
REMARK    3  A    between atoms: C_16  and  O_17 
REMARK    4  A    between atoms: C_25  and  C_26 
REMARK    5  A    between atoms: C_27  and  C_28 
REMARK    6  A    between atoms: C_28  and  C_29 
REMARK    7  A    between atoms: C_29  and  O_32 
ROOT
HETATM    1 CL   UNL     1      34.557   8.678 -27.561  1.00  0.00    -0.063 Cl
HETATM    2  C   UNL     1      33.612   9.433 -26.279  1.00  0.00     0.121 A 
HETATM    3  N   UNL     1      34.578   9.975 -25.565  1.00  0.00    -0.320 N 
ATOM      4  HN  UNL     1      35.545   9.932 -25.884  1.00  0.00     0.169 HD
HETATM    5  C   UNL     1      34.266  10.580 -24.420  1.00  0.00     0.195 A 
HETATM    6  N   UNL     1      35.353  11.099 -23.702  1.00  0.00    -0.063 NA
HETATM    7  N   UNL     1      33.020  10.748 -24.055  1.00  0.00    -0.315 N 
ATOM      8  HN  UNL     1      32.794  11.264 -23.205  1.00  0.00     0.170 HD
HETATM    9  C   UNL     1      32.065  10.239 -24.803  1.00  0.00     0.129 A 
HETATM   10  C   UNL     1      32.327   9.529 -25.911  1.00  0.00     0.067 A 
HETATM   11  N   UNL     1      30.708  10.257 -24.630  1.00  0.00    -0.314 N 
HETATM   12  C   UNL     1      30.125   9.570 -25.660  1.00  0.00     0.119 A 
HETATM   13  C   UNL     1      31.089   9.085 -26.477  1.00  0.00     0.050 A 
ENDROOT
BRANCH  11  14
HETATM   14  C   UNL     1      30.005  10.886 -23.591  1.00  0.00     0.128 C 
BRANCH  14  15
HETATM   15  C   UNL     1      29.513  12.236 -23.998  1.00  0.00     0.057 A 
HETATM   16  N   UNL     1      30.490  13.079 -24.360  1.00  0.00    -0.364 N 
HETATM   17  C   UNL     1      30.119  14.341 -24.724  1.00  0.00     0.098 A 
ATOM     18  HN  UNL     1      31.468  12.790 -24.364  1.00  0.00     0.165 HD
HETATM   19  C   UNL     1      28.802  14.759 -24.844  1.00  0.00    -0.013 A 
HETATM   20  C   UNL     1      28.457  16.160 -25.347  1.00  0.00     0.052 C 
HETATM   21  C   UNL     1      27.827  13.837 -24.465  1.00  0.00     0.083 A 
HETATM   22  C   UNL     1      28.167  12.550 -24.066  1.00  0.00     0.000 A 
HETATM   23  C   UNL     1      27.106  11.580 -23.736  1.00  0.00     0.054 C 
BRANCH  21  24
HETATM   24  O   UNL     1      26.503  14.191 -24.588  1.00  0.00    -0.355 OA
HETATM   25  C   UNL     1      26.010  14.043 -25.868  1.00  0.00     0.210 C 
ENDBRANCH  21  24
ENDBRANCH  14  15
ENDBRANCH  11  14
BRANCH  13  26
HETATM   26  C   UNL     1      30.783   8.286 -27.692  1.00  0.00    -0.064 C 
HETATM   27  C   UNL     1      30.532   7.674 -28.646  1.00  0.00    -0.098 C 
BRANCH  27  28
HETATM   28  C   UNL     1      30.247   6.839 -29.870  1.00  0.00     0.131 C 
BRANCH  28  29
HETATM   29  C   UNL     1      31.483   6.700 -30.722  1.00  0.00     0.061 C 
HETATM   30  C   UNL     1      31.149   5.988 -32.000  1.00  0.00     0.046 C 
HETATM   31  C   UNL     1      32.513   5.888 -29.970  1.00  0.00     0.046 C 
BRANCH  29  32
HETATM   32  O   UNL     1      32.002   7.944 -31.069  1.00  0.00    -0.390 OA
ATOM     33  HO  UNL     1      31.404   8.645 -30.839  1.00  0.00     0.210 HD
ENDBRANCH  29  32
ENDBRANCH  28  29
ENDBRANCH  27  28
ENDBRANCH  13  26
TORSDOF 7
ENDMDL
MODEL 3
REMARK VINA RESULT:    -8.943      1.082      1.436
REMARK INTER + INTRA:         -13.099
REMARK INTER:                 -12.461
REMARK INTRA:                  -0.637
REMARK UNBOUND:                -0.757
REMARK  7 active torsions:
REMARK  status: ('A' for Active; 'I' for Inactive)
REMARK    1  A    between atoms: N_11  and  C_12 
REMARK    2  A    between atoms: C_12  and  C_13 
REMARK    3  A    between atoms: C_16  and  O_17 
REMARK    4  A    between atoms: C_25  and  C_26 
REMARK    5  A    between atoms: C_27  and  C_28 
REMARK    6  A    between atoms: C_28  and  C_29 
REMARK    7  A    between atoms: C_29  and  O_32 
ROOT
HETATM    1 CL   UNL     1      34.526   9.085 -27.671  1.00  0.00    -0.063 Cl
HETATM    2  C   UNL     1      33.598   9.754 -26.330  1.00  0.00     0.121 A 
HETATM    3  N   UNL     1      34.562  10.331 -25.643  1.00  0.00    -0.320 N 
ATOM      4  HN  UNL     1      35.516  10.351 -26.004  1.00  0.00     0.169 HD
HETATM    5  C   UNL     1      34.269  10.889 -24.470  1.00  0.00     0.195 A 
HETATM    6  N   UNL     1      35.356  11.451 -23.785  1.00  0.00    -0.063 NA
HETATM    7  N   UNL     1      33.033  10.978 -24.048  1.00  0.00    -0.315 N 
ATOM      8  HN  UNL     1      32.815  11.459 -23.176  1.00  0.00     0.170 HD
HETATM    9  C   UNL     1      32.075  10.435 -24.769  1.00  0.00     0.129 A 
HETATM   10  C   UNL     1      32.326   9.768 -25.905  1.00  0.00     0.067 A 
HETATM   11  N   UNL     1      30.728  10.372 -24.537  1.00  0.00    -0.314 N 
HETATM   12  C   UNL     1      30.139   9.679 -25.560  1.00  0.00     0.119 A 
HETATM   13  C   UNL     1      31.092   9.269 -26.430  1.00  0.00     0.050 A 
ENDROOT
BRANCH  11  14
HETATM   14  C   UNL     1      30.038  10.934 -23.453  1.00  0.00     0.128 C 
BRANCH  14  15
HETATM   15  C   UNL     1      29.041  11.951 -23.903  1.00  0.00     0.057 A 
HETATM   16  N   UNL     1      27.772  11.524 -23.849  1.00  0.00    -0.364 N 
HETATM   17  C   UNL     1      26.805  12.391 -24.267  1.00  0.00     0.098 A 
ATOM     18  HN  UNL     1      27.539  10.591 -23.510  1.00  0.00     0.165 HD
HETATM   19  C   UNL     1      27.048  13.707 -24.634  1.00  0.00    -0.013 A 
HETATM   20  C   UNL     1      25.905  14.652 -25.002  1.00  0.00     0.052 C 
HETATM   21  C   UNL     1      28.385  14.101 -24.662  1.00  0.00     0.083 A 
HETATM   22  C   UNL     1      29.400  13.238 -24.267  1.00  0.00     0.000 A 
HETATM   23  C   UNL     1      30.797  13.709 -24.245  1.00  0.00     0.054 C 
BRANCH  21  24
HETATM   24  O   UNL     1      28.681  15.402 -24.995  1.00  0.00    -0.355 OA
HETATM   25  C   UNL     1      28.856  15.599 -26.349  1.00  0.00     0.210 C 
ENDBRANCH  21  24
ENDBRANCH  14  15
ENDBRANCH  11  14
BRANCH  13  26
HETATM   26  C   UNL     1      30.778   8.485 -27.653  1.00  0.00    -0.064 C 
HETATM   27  C   UNL     1      30.525   7.887 -28.616  1.00  0.00    -0.098 C 
BRANCH  27  28
HETATM   28  C   UNL     1      30.221   7.061 -29.841  1.00  0.00     0.131 C 
BRANCH  28  29
HETATM   29  C   UNL     1      28.874   6.396 -29.717  1.00  0.00     0.061 C 
HETATM   30  C   UNL     1      28.741   5.753 -28.368  1.00  0.00     0.046 C 
HETATM   31  C   UNL     1      28.751   5.326 -30.777  1.00  0.00     0.046 C 
BRANCH  29  32
HETATM   32  O   UNL     1      27.840   7.320 -29.835  1.00  0.00    -0.390 OA
ATOM     33  HO  UNL     1      27.767   7.647 -30.724  1.00  0.00     0.210 HD
ENDBRANCH  29  32
ENDBRANCH  28  29
ENDBRANCH  27  28
ENDBRANCH  13  26
TORSDOF 7
ENDMDL
MODEL 4
REMARK VINA RESULT:    -8.759      3.324      7.427
REMARK INTER + INTRA:         -12.844
REMARK INTER:                 -12.177
REMARK INTRA:                  -0.668
REMARK UNBOUND:                -0.757
REMARK  7 active torsions:
REMARK  status: ('A' for Active; 'I' for Inactive)
REMARK    1  A    between atoms: N_11  and  C_12 
REMARK    2  A    between atoms: C_12  and  C_13 
REMARK    3  A    between atoms: C_16  and  O_17 
REMARK    4  A    between atoms: C_25  and  C_26 
REMARK    5  A    between atoms: C_27  and  C_28 
REMARK    6  A    between atoms: C_28  and  C_29 
REMARK    7  A    between atoms: C_29  and  O_32 
ROOT
HETATM    1 CL   UNL     1      30.422  14.921 -24.922  1.00  0.00    -0.063 Cl
HETATM    2  C   UNL     1      30.482  13.286 -24.266  1.00  0.00     0.121 A 
HETATM    3  N   UNL     1      31.786  13.114 -24.189  1.00  0.00    -0.320 N 
ATOM      4  HN  UNL     1      32.425  13.876 -24.414  1.00  0.00     0.169 HD
HETATM    5  C   UNL     1      32.255  11.926 -23.811  1.00  0.00     0.195 A 
HETATM    6  N   UNL     1      33.652  11.812 -23.789  1.00  0.00    -0.063 NA
HETATM    7  N   UNL     1      31.452  10.975 -23.406  1.00  0.00    -0.315 N 
ATOM      8  HN  UNL     1      31.826  10.090 -23.064  1.00  0.00     0.170 HD
HETATM    9  C   UNL     1      30.153  11.179 -23.446  1.00  0.00     0.129 A 
HETATM   10  C   UNL     1      29.623  12.318 -23.918  1.00  0.00     0.067 A 
HETATM   11  N   UNL     1      29.120  10.349 -23.106  1.00  0.00    -0.314 N 
HETATM   12  C   UNL     1      27.938  10.996 -23.347  1.00  0.00     0.119 A 
HETATM   13  C   UNL     1      28.197  12.220 -23.865  1.00  0.00     0.050 A 
ENDROOT
BRANCH  11  14
HETATM   14  C   UNL     1      29.227   9.054 -22.575  1.00  0.00     0.128 C 
BRANCH  14  15
HETATM   15  C   UNL     1      29.332   8.025 -23.653  1.00  0.00     0.057 A 
HETATM   16  N   UNL     1      30.584   7.825 -24.086  1.00  0.00    -0.364 N 
HETATM   17  C   UNL     1      30.758   6.914 -25.088  1.00  0.00     0.098 A 
ATOM     18  HN  UNL     1      31.374   8.331 -23.685  1.00  0.00     0.165 HD
HETATM   19  C   UNL     1      29.743   6.118 -25.597  1.00  0.00    -0.013 A 
HETATM   20  C   UNL     1      30.026   5.051 -26.654  1.00  0.00     0.052 C 
HETATM   21  C   UNL     1      28.463   6.362 -25.102  1.00  0.00     0.083 A 
HETATM   22  C   UNL     1      28.243   7.298 -24.100  1.00  0.00     0.000 A 
HETATM   23  C   UNL     1      26.886   7.483 -23.553  1.00  0.00     0.054 C 
BRANCH  21  24
HETATM   24  O   UNL     1      27.423   5.583 -25.555  1.00  0.00    -0.355 OA
HETATM   25  C   UNL     1      27.246   4.423 -24.831  1.00  0.00     0.210 C 
ENDBRANCH  21  24
ENDBRANCH  14  15
ENDBRANCH  11  14
BRANCH  13  26
HETATM   26  C   UNL     1      27.121  13.174 -24.241  1.00  0.00    -0.064 C 
HETATM   27  C   UNL     1      26.274  13.908 -24.545  1.00  0.00    -0.098 C 
BRANCH  27  28
HETATM   28  C   UNL     1      25.197  14.901 -24.904  1.00  0.00     0.131 C 
BRANCH  28  29
HETATM   29  C   UNL     1      24.406  14.427 -26.095  1.00  0.00     0.061 C 
HETATM   30  C   UNL     1      25.319  14.216 -27.267  1.00  0.00     0.046 C 
HETATM   31  C   UNL     1      23.383  15.478 -26.461  1.00  0.00     0.046 C 
BRANCH  29  32
HETATM   32  O   UNL     1      23.782  13.209 -25.837  1.00  0.00    -0.390 OA
ATOM     33  HO  UNL     1      23.251  12.930 -26.573  1.00  0.00     0.210 HD
ENDBRANCH  29  32
ENDBRANCH  28  29
ENDBRANCH  27  28
ENDBRANCH  13  26
TORSDOF 7
ENDMDL
MODEL 5
REMARK VINA RESULT:    -8.660      3.344      7.595
REMARK INTER + INTRA:         -12.708
REMARK INTER:                 -12.560
REMARK INTRA:                  -0.148
REMARK UNBOUND:                -0.757
REMARK  7 active torsions:
REMARK  status: ('A' for Active; 'I' for Inactive)
REMARK    1  A    between atoms: N_11  and  C_12 
REMARK    2  A    between atoms: C_12  and  C_13 
REMARK    3  A    between atoms: C_16  and  O_17 
REMARK    4  A    between atoms: C_25  and  C_26 
REMARK    5  A    between atoms: C_27  and  C_28 
REMARK    6  A    between atoms: C_28  and  C_29 
REMARK    7  A    between atoms: C_29  and  O_32 
ROOT
HETATM    1 CL   UNL     1      25.129   9.861 -23.492  1.00  0.00    -0.063 Cl
HETATM    2  C   UNL     1      26.880   9.749 -23.323  1.00  0.00     0.121 A 
HETATM    3  N   UNL     1      27.001   8.483 -22.979  1.00  0.00    -0.320 N 
ATOM      4  HN  UNL     1      26.185   7.871 -22.957  1.00  0.00     0.169 HD
HETATM    5  C   UNL     1      28.207   8.017 -22.662  1.00  0.00     0.195 A 
HETATM    6  N   UNL     1      28.246   6.670 -22.273  1.00  0.00    -0.063 NA
HETATM    7  N   UNL     1      29.280   8.754 -22.799  1.00  0.00    -0.315 N 
ATOM      8  HN  UNL     1      30.204   8.367 -22.609  1.00  0.00     0.170 HD
HETATM    9  C   UNL     1      29.147  10.004 -23.187  1.00  0.00     0.129 A 
HETATM   10  C   UNL     1      27.946  10.556 -23.418  1.00  0.00     0.067 A 
HETATM   11  N   UNL     1      30.095  10.971 -23.381  1.00  0.00    -0.314 N 
HETATM   12  C   UNL     1      29.470  12.129 -23.761  1.00  0.00     0.119 A 
HETATM   13  C   UNL     1      28.131  11.927 -23.786  1.00  0.00     0.050 A 
ENDROOT
BRANCH  11  14
HETATM   14  C   UNL     1      31.483  10.823 -23.241  1.00  0.00     0.128 C 
BRANCH  14  15
HETATM   15  C   UNL     1      32.109  10.303 -24.493  1.00  0.00     0.057 A 
HETATM   16  N   UNL     1      31.419   9.309 -25.069  1.00  0.00    -0.364 N 
HETATM   17  C   UNL     1      31.941   8.766 -26.206  1.00  0.00     0.098 A 
ATOM     18  HN  UNL     1      30.541   8.973 -24.674  1.00  0.00     0.165 HD
HETATM   19  C   UNL     1      33.070   9.251 -26.851  1.00  0.00    -0.013 A 
HETATM   20  C   UNL     1      33.547   8.653 -28.174  1.00  0.00     0.052 C 
HETATM   21  C   UNL     1      33.742  10.293 -26.213  1.00  0.00     0.083 A 
HETATM   22  C   UNL     1      33.254  10.855 -25.040  1.00  0.00     0.000 A 
HETATM   23  C   UNL     1      33.954  12.001 -24.429  1.00  0.00     0.054 C 
BRANCH  21  24
HETATM   24  O   UNL     1      34.854  10.828 -26.822  1.00  0.00    -0.355 OA
HETATM   25  C   UNL     1      36.041  10.455 -26.227  1.00  0.00     0.210 C 
ENDBRANCH  21  24
ENDBRANCH  14  15
ENDBRANCH  11  14
BRANCH  13  26
HETATM   26  C   UNL     1      27.167  12.994 -24.158  1.00  0.00    -0.064 C 
HETATM   27  C   UNL     1      26.426  13.841 -24.447  1.00  0.00    -0.098 C 
BRANCH  27  28
HETATM   28  C   UNL     1      25.421  14.899 -24.827  1.00  0.00     0.131 C 
BRANCH  28  29
HETATM   29  C   UNL     1      24.614  14.465 -26.024  1.00  0.00     0.061 C 
HETATM   30  C   UNL     1      25.515  14.267 -27.207  1.00  0.00     0.046 C 
HETATM   31  C   UNL     1      23.605  15.539 -26.357  1.00  0.00     0.046 C 
BRANCH  29  32
HETATM   32  O   UNL     1      23.973  13.251 -25.790  1.00  0.00    -0.390 OA
ATOM     33  HO  UNL     1      23.030  13.339 -25.860  1.00  0.00     0.210 HD
ENDBRANCH  29  32
ENDBRANCH  28  29
ENDBRANCH  27  28
ENDBRANCH  13  26
TORSDOF 7
ENDMDL
MODEL 6
REMARK VINA RESULT:    -8.636      4.820      7.672
REMARK INTER + INTRA:         -12.674
REMARK INTER:                 -12.081
REMARK INTRA:                  -0.593
REMARK UNBOUND:                -0.757
REMARK  7 active torsions:
REMARK  status: ('A' for Active; 'I' for Inactive)
REMARK    1  A    between atoms: N_11  and  C_12 
REMARK    2  A    between atoms: C_12  and  C_13 
REMARK    3  A    between atoms: C_16  and  O_17 
REMARK    4  A    between atoms: C_25  and  C_26 
REMARK    5  A    between atoms: C_27  and  C_28 
REMARK    6  A    between atoms: C_28  and  C_29 
REMARK    7  A    between atoms: C_29  and  O_32 
ROOT
HETATM    1 CL   UNL     1      29.102  15.735 -25.415  1.00  0.00    -0.063 Cl
HETATM    2  C   UNL     1      28.136  14.343 -24.929  1.00  0.00     0.121 A 
HETATM    3  N   UNL     1      26.931  14.775 -25.239  1.00  0.00    -0.320 N 
ATOM      4  HN  UNL     1      26.806  15.672 -25.709  1.00  0.00     0.169 HD
HETATM    5  C   UNL     1      25.879  14.020 -24.928  1.00  0.00     0.195 A 
HETATM    6  N   UNL     1      24.630  14.566 -25.259  1.00  0.00    -0.063 NA
HETATM    7  N   UNL     1      26.027  12.817 -24.434  1.00  0.00    -0.315 N 
ATOM      8  HN  UNL     1      25.214  12.226 -24.255  1.00  0.00     0.170 HD
HETATM    9  C   UNL     1      27.240  12.382 -24.172  1.00  0.00     0.129 A 
HETATM   10  C   UNL     1      28.328  13.142 -24.366  1.00  0.00     0.067 A 
HETATM   11  N   UNL     1      27.652  11.191 -23.640  1.00  0.00    -0.314 N 
HETATM   12  C   UNL     1      29.017  11.208 -23.529  1.00  0.00     0.119 A 
HETATM   13  C   UNL     1      29.485  12.405 -23.955  1.00  0.00     0.050 A 
ENDROOT
BRANCH  11  14
HETATM   14  C   UNL     1      26.836  10.108 -23.279  1.00  0.00     0.128 C 
BRANCH  14  15
HETATM   15  C   UNL     1      27.601   9.070 -22.526  1.00  0.00     0.057 A 
HETATM   16  N   UNL     1      27.815   9.385 -21.241  1.00  0.00    -0.364 N 
HETATM   17  C   UNL     1      28.528   8.495 -20.492  1.00  0.00     0.098 A 
ATOM     18  HN  UNL     1      27.460  10.253 -20.840  1.00  0.00     0.165 HD
HETATM   19  C   UNL     1      28.942   7.252 -20.950  1.00  0.00    -0.013 A 
HETATM   20  C   UNL     1      29.656   6.265 -20.027  1.00  0.00     0.052 C 
HETATM   21  C   UNL     1      28.683   6.973 -22.291  1.00  0.00     0.083 A 
HETATM   22  C   UNL     1      27.981   7.866 -23.091  1.00  0.00     0.000 A 
HETATM   23  C   UNL     1      27.667   7.509 -24.487  1.00  0.00     0.054 C 
BRANCH  21  24
HETATM   24  O   UNL     1      29.050   5.745 -22.790  1.00  0.00    -0.355 OA
HETATM   25  C   UNL     1      30.319   5.726 -23.330  1.00  0.00     0.210 C 
ENDBRANCH  21  24
ENDBRANCH  14  15
ENDBRANCH  11  14
BRANCH  13  26
HETATM   26  C   UNL     1      30.931  12.744 -23.959  1.00  0.00    -0.064 C 
HETATM   27  C   UNL     1      32.064  13.002 -23.946  1.00  0.00    -0.098 C 
BRANCH  27  28
HETATM   28  C   UNL     1      33.528  13.361 -23.985  1.00  0.00     0.131 C 
BRANCH  28  29
HETATM   29  C   UNL     1      34.332  12.422 -23.122  1.00  0.00     0.061 C 
HETATM   30  C   UNL     1      34.111  11.005 -23.561  1.00  0.00     0.046 C 
HETATM   31  C   UNL     1      33.880  12.560 -21.686  1.00  0.00     0.046 C 
BRANCH  29  32
HETATM   32  O   UNL     1      35.696  12.677 -23.229  1.00  0.00    -0.390 OA
ATOM     33  HO  UNL     1      36.199  11.871 -23.242  1.00  0.00     0.210 HD
ENDBRANCH  29  32
ENDBRANCH  28  29
ENDBRANCH  27  28
ENDBRANCH  13  26
TORSDOF 7
ENDMDL
MODEL 7
REMARK VINA RESULT:    -8.471      2.360      3.502
REMARK INTER + INTRA:         -12.446
REMARK INTER:                 -11.870
REMARK INTRA:                  -0.577
REMARK UNBOUND:                -0.757
REMARK  7 active torsions:
REMARK  status: ('A' for Active; 'I' for Inactive)
REMARK    1  A    between atoms: N_11  and  C_12 
REMARK    2  A    between atoms: C_12  and  C_13 
REMARK    3  A    between atoms: C_16  and  O_17 
REMARK    4  A    between atoms: C_25  and  C_26 
REMARK    5  A    between atoms: C_27  and  C_28 
REMARK    6  A    between atoms: C_28  and  C_29 
REMARK    7  A    between atoms: C_29  and  O_32 
ROOT
HETATM    1 CL   UNL     1      30.212   5.280 -25.450  1.00  0.00    -0.063 Cl
HETATM    2  C   UNL     1      30.163   6.740 -24.464  1.00  0.00     0.121 A 
HETATM    3  N   UNL     1      29.829   6.224 -23.299  1.00  0.00    -0.320 N 
ATOM      4  HN  UNL     1      29.751   5.214 -23.182  1.00  0.00     0.169 HD
HETATM    5  C   UNL     1      29.596   7.046 -22.277  1.00  0.00     0.195 A 
HETATM    6  N   UNL     1      29.211   6.421 -21.082  1.00  0.00    -0.063 NA
HETATM    7  N   UNL     1      29.807   8.334 -22.377  1.00  0.00    -0.315 N 
ATOM      8  HN  UNL     1      29.680   8.944 -21.570  1.00  0.00     0.170 HD
HETATM    9  C   UNL     1      30.184   8.828 -23.537  1.00  0.00     0.129 A 
HETATM   10  C   UNL     1      30.331   8.060 -24.627  1.00  0.00     0.067 A 
HETATM   11  N   UNL     1      30.442  10.121 -23.900  1.00  0.00    -0.314 N 
HETATM   12  C   UNL     1      30.778  10.146 -25.227  1.00  0.00     0.119 A 
HETATM   13  C   UNL     1      30.711   8.890 -25.729  1.00  0.00     0.050 A 
ENDROOT
BRANCH  11  14
HETATM   14  C   UNL     1      30.398  11.249 -23.067  1.00  0.00     0.128 C 
BRANCH  14  15
HETATM   15  C   UNL     1      29.899  12.453 -23.797  1.00  0.00     0.057 A 
HETATM   16  N   UNL     1      30.864  13.325 -24.120  1.00  0.00    -0.364 N 
HETATM   17  C   UNL     1      30.481  14.463 -24.770  1.00  0.00     0.098 A 
ATOM     18  HN  UNL     1      31.841  13.147 -23.891  1.00  0.00     0.165 HD
HETATM   19  C   UNL     1      29.187  14.711 -25.205  1.00  0.00    -0.013 A 
HETATM   20  C   UNL     1      28.848  15.965 -26.010  1.00  0.00     0.052 C 
HETATM   21  C   UNL     1      28.227  13.765 -24.850  1.00  0.00     0.083 A 
HETATM   22  C   UNL     1      28.574  12.606 -24.167  1.00  0.00     0.000 A 
HETATM   23  C   UNL     1      27.544  11.594 -23.867  1.00  0.00     0.054 C 
BRANCH  21  24
HETATM   24  O   UNL     1      26.933  13.949 -25.277  1.00  0.00    -0.355 OA
HETATM   25  C   UNL     1      26.184  14.750 -24.440  1.00  0.00     0.210 C 
ENDBRANCH  21  24
ENDBRANCH  14  15
ENDBRANCH  11  14
BRANCH  13  26
HETATM   26  C   UNL     1      31.015   8.578 -27.149  1.00  0.00    -0.064 C 
HETATM   27  C   UNL     1      31.245   8.318 -28.257  1.00  0.00    -0.098 C 
BRANCH  27  28
HETATM   28  C   UNL     1      31.570   8.034 -29.703  1.00  0.00     0.131 C 
BRANCH  28  29
HETATM   29  C   UNL     1      30.904   6.763 -30.161  1.00  0.00     0.061 C 
HETATM   30  C   UNL     1      29.459   6.765 -29.757  1.00  0.00     0.046 C 
HETATM   31  C   UNL     1      31.587   5.583 -29.509  1.00  0.00     0.046 C 
BRANCH  29  32
HETATM   32  O   UNL     1      30.942   6.642 -31.548  1.00  0.00    -0.390 OA
ATOM     33  HO  UNL     1      30.888   7.490 -31.971  1.00  0.00     0.210 HD
ENDBRANCH  29  32
ENDBRANCH  28  29
ENDBRANCH  27  28
ENDBRANCH  13  26
TORSDOF 7
ENDMDL
MODEL 8
REMARK VINA RESULT:    -8.458      1.516      2.230
REMARK INTER + INTRA:         -12.429
REMARK INTER:                 -11.638
REMARK INTRA:                  -0.791
REMARK UNBOUND:                -0.757
REMARK  7 active torsions:
REMARK  status: ('A' for Active; 'I' for Inactive)
REMARK    1  A    between atoms: N_11  and  C_12 
REMARK    2  A    between atoms: C_12  and  C_13 
REMARK    3  A    between atoms: C_16  and  O_17 
REMARK    4  A    between atoms: C_25  and  C_26 
REMARK    5  A    between atoms: C_27  and  C_28 
REMARK    6  A    between atoms: C_28  and  C_29 
REMARK    7  A    between atoms: C_29  and  O_32 
ROOT
HETATM    1 CL   UNL     1      34.117   7.703 -26.700  1.00  0.00    -0.063 Cl
HETATM    2  C   UNL     1      33.325   8.833 -25.603  1.00  0.00     0.121 A 
HETATM    3  N   UNL     1      34.366   9.527 -25.191  1.00  0.00    -0.320 N 
ATOM      4  HN  UNL     1      35.291   9.359 -25.587  1.00  0.00     0.169 HD
HETATM    5  C   UNL     1      34.188  10.451 -24.249  1.00  0.00     0.195 A 
HETATM    6  N   UNL     1      35.350  11.121 -23.840  1.00  0.00    -0.063 NA
HETATM    7  N   UNL     1      32.992  10.762 -23.817  1.00  0.00    -0.315 N 
ATOM      8  HN  UNL     1      32.865  11.512 -23.138  1.00  0.00     0.170 HD
HETATM    9  C   UNL     1      31.958  10.089 -24.272  1.00  0.00     0.129 A 
HETATM   10  C   UNL     1      32.090   9.076 -25.142  1.00  0.00     0.067 A 
HETATM   11  N   UNL     1      30.629  10.204 -23.964  1.00  0.00    -0.314 N 
HETATM   12  C   UNL     1      29.931   9.265 -24.675  1.00  0.00     0.119 A 
HETATM   13  C   UNL     1      30.796   8.529 -25.413  1.00  0.00     0.050 A 
ENDROOT
BRANCH  11  14
HETATM   14  C   UNL     1      30.050  11.133 -23.088  1.00  0.00     0.128 C 
BRANCH  14  15
HETATM   15  C   UNL     1      29.629  12.375 -23.802  1.00  0.00     0.057 A 
HETATM   16  N   UNL     1      30.642  13.208 -24.078  1.00  0.00    -0.364 N 
HETATM   17  C   UNL     1      30.331  14.377 -24.710  1.00  0.00     0.098 A 
ATOM     18  HN  UNL     1      31.603  12.979 -23.826  1.00  0.00     0.165 HD
HETATM   19  C   UNL     1      29.063  14.695 -25.175  1.00  0.00    -0.013 A 
HETATM   20  C   UNL     1      28.806  15.981 -25.959  1.00  0.00     0.052 C 
HETATM   21  C   UNL     1      28.051  13.787 -24.870  1.00  0.00     0.083 A 
HETATM   22  C   UNL     1      28.324  12.598 -24.205  1.00  0.00     0.000 A 
HETATM   23  C   UNL     1      27.239  11.629 -23.958  1.00  0.00     0.054 C 
BRANCH  21  24
HETATM   24  O   UNL     1      26.779  14.042 -25.328  1.00  0.00    -0.355 OA
HETATM   25  C   UNL     1      26.024  14.807 -24.464  1.00  0.00     0.210 C 
ENDBRANCH  21  24
ENDBRANCH  14  15
ENDBRANCH  11  14
BRANCH  13  26
HETATM   26  C   UNL     1      30.353   7.420 -26.297  1.00  0.00    -0.064 C 
HETATM   27  C   UNL     1      30.015   6.561 -27.002  1.00  0.00    -0.098 C 
BRANCH  27  28
HETATM   28  C   UNL     1      29.548   5.419 -27.870  1.00  0.00     0.131 C 
BRANCH  28  29
HETATM   29  C   UNL     1      30.085   5.557 -29.271  1.00  0.00     0.061 C 
HETATM   30  C   UNL     1      31.586   5.530 -29.250  1.00  0.00     0.046 C 
HETATM   31  C   UNL     1      29.634   6.880 -29.846  1.00  0.00     0.046 C 
BRANCH  29  32
HETATM   32  O   UNL     1      29.667   4.506 -30.081  1.00  0.00    -0.390 OA
ATOM     33  HO  UNL     1      29.318   4.822 -30.906  1.00  0.00     0.210 HD
ENDBRANCH  29  32
ENDBRANCH  28  29
ENDBRANCH  27  28
ENDBRANCH  13  26
TORSDOF 7
ENDMDL
MODEL 9
REMARK VINA RESULT:    -8.314      1.900      2.811
REMARK INTER + INTRA:         -12.230
REMARK INTER:                 -11.790
REMARK INTRA:                  -0.441
REMARK UNBOUND:                -0.757
REMARK  7 active torsions:
REMARK  status: ('A' for Active; 'I' for Inactive)
REMARK    1  A    between atoms: N_11  and  C_12 
REMARK    2  A    between atoms: C_12  and  C_13 
REMARK    3  A    between atoms: C_16  and  O_17 
REMARK    4  A    between atoms: C_25  and  C_26 
REMARK    5  A    between atoms: C_27  and  C_28 
REMARK    6  A    between atoms: C_28  and  C_29 
REMARK    7  A    between atoms: C_29  and  O_32 
ROOT
HETATM    1 CL   UNL     1      35.208  10.043 -27.577  1.00  0.00    -0.063 Cl
HETATM    2  C   UNL     1      34.121  10.091 -26.190  1.00  0.00     0.121 A 
HETATM    3  N   UNL     1      34.659  11.080 -25.506  1.00  0.00    -0.320 N 
ATOM      4  HN  UNL     1      35.441  11.611 -25.889  1.00  0.00     0.169 HD
HETATM    5  C   UNL     1      34.161  11.375 -24.307  1.00  0.00     0.195 A 
HETATM    6  N   UNL     1      34.811  12.415 -23.628  1.00  0.00    -0.063 NA
HETATM    7  N   UNL     1      33.085  10.784 -23.852  1.00  0.00    -0.315 N 
ATOM      8  HN  UNL     1      32.680  11.060 -22.958  1.00  0.00     0.170 HD
HETATM    9  C   UNL     1      32.533   9.829 -24.569  1.00  0.00     0.129 A 
HETATM   10  C   UNL     1      33.054   9.419 -25.735  1.00  0.00     0.067 A 
HETATM   11  N   UNL     1      31.435   9.055 -24.308  1.00  0.00    -0.314 N 
HETATM   12  C   UNL     1      31.264   8.174 -25.341  1.00  0.00     0.119 A 
HETATM   13  C   UNL     1      32.253   8.350 -26.249  1.00  0.00     0.050 A 
ENDROOT
BRANCH  11  14
HETATM   14  C   UNL     1      30.596   9.144 -23.187  1.00  0.00     0.128 C 
BRANCH  14  15
HETATM   15  C   UNL     1      29.422  10.030 -23.448  1.00  0.00     0.057 A 
HETATM   16  N   UNL     1      29.749  11.315 -23.638  1.00  0.00    -0.364 N 
HETATM   17  C   UNL     1      28.725  12.191 -23.860  1.00  0.00     0.098 A 
ATOM     18  HN  UNL     1      30.720  11.626 -23.619  1.00  0.00     0.165 HD
HETATM   19  C   UNL     1      27.399  11.813 -24.007  1.00  0.00    -0.013 A 
HETATM   20  C   UNL     1      26.316  12.836 -24.347  1.00  0.00     0.052 C 
HETATM   21  C   UNL     1      27.118  10.462 -23.809  1.00  0.00     0.083 A 
HETATM   22  C   UNL     1      28.131   9.544 -23.557  1.00  0.00     0.000 A 
HETATM   23  C   UNL     1      27.805   8.112 -23.420  1.00  0.00     0.054 C 
BRANCH  21  24
HETATM   24  O   UNL     1      25.822  10.029 -23.967  1.00  0.00    -0.355 OA
HETATM   25  C   UNL     1      25.190   9.735 -22.777  1.00  0.00     0.210 C 
ENDBRANCH  21  24
ENDBRANCH  14  15
ENDBRANCH  11  14
BRANCH  13  26
HETATM   26  C   UNL     1      32.354   7.542 -27.491  1.00  0.00    -0.064 C 
HETATM   27  C   UNL     1      32.434   6.925 -28.472  1.00  0.00    -0.098 C 
BRANCH  27  28
HETATM   28  C   UNL     1      32.534   6.074 -29.713  1.00  0.00     0.131 C 
BRANCH  28  29
HETATM   29  C   UNL     1      31.947   6.789 -30.902  1.00  0.00     0.061 C 
HETATM   30  C   UNL     1      30.538   6.329 -31.134  1.00  0.00     0.046 C 
HETATM   31  C   UNL     1      32.769   6.469 -32.128  1.00  0.00     0.046 C 
BRANCH  29  32
HETATM   32  O   UNL     1      31.899   8.165 -30.693  1.00  0.00    -0.390 OA
ATOM     33  HO  UNL     1      31.016   8.456 -30.502  1.00  0.00     0.210 HD
ENDBRANCH  29  32
ENDBRANCH  28  29
ENDBRANCH  27  28
ENDBRANCH  13  26
TORSDOF 7
ENDMDL
MODEL 10
REMARK VINA RESULT:    -8.245      2.387      7.129
REMARK INTER + INTRA:         -12.135
REMARK INTER:                 -11.752
REMARK INTRA:                  -0.383
REMARK UNBOUND:                -0.757
REMARK  7 active torsions:
REMARK  status: ('A' for Active; 'I' for Inactive)
REMARK    1  A    between atoms: N_11  and  C_12 
REMARK    2  A    between atoms: C_12  and  C_13 
REMARK    3  A    between atoms: C_16  and  O_17 
REMARK    4  A    between atoms: C_25  and  C_26 
REMARK    5  A    between atoms: C_27  and  C_28 
REMARK    6  A    between atoms: C_28  and  C_29 
REMARK    7  A    between atoms: C_29  and  O_32 
ROOT
HETATM    1 CL   UNL     1      31.320  14.305 -24.173  1.00  0.00    -0.063 Cl
HETATM    2  C   UNL     1      31.847  12.630 -24.023  1.00  0.00     0.121 A 
HETATM    3  N   UNL     1      33.153  12.800 -23.977  1.00  0.00    -0.320 N 
ATOM      4  HN  UNL     1      33.554  13.737 -23.958  1.00  0.00     0.169 HD
HETATM    5  C   UNL     1      33.939  11.725 -23.955  1.00  0.00     0.195 A 
HETATM    6  N   UNL     1      35.316  11.990 -23.943  1.00  0.00    -0.063 NA
HETATM    7  N   UNL     1      33.441  10.518 -23.859  1.00  0.00    -0.315 N 
ATOM      8  HN  UNL     1      34.055   9.708 -23.784  1.00  0.00     0.170 HD
HETATM    9  C   UNL     1      32.134  10.369 -23.860  1.00  0.00     0.129 A 
HETATM   10  C   UNL     1      31.296  11.409 -23.988  1.00  0.00     0.067 A 
HETATM   11  N   UNL     1      31.378   9.230 -23.795  1.00  0.00    -0.314 N 
HETATM   12  C   UNL     1      30.055   9.576 -23.857  1.00  0.00     0.119 A 
HETATM   13  C   UNL     1      29.951  10.920 -23.990  1.00  0.00     0.050 A 
ENDROOT
BRANCH  11  14
HETATM   14  C   UNL     1      31.854   7.917 -23.665  1.00  0.00     0.128 C 
BRANCH  14  15
HETATM   15  C   UNL     1      31.563   7.103 -24.883  1.00  0.00     0.057 A 
HETATM   16  N   UNL     1      30.377   6.481 -24.845  1.00  0.00    -0.364 N 
HETATM   17  C   UNL     1      30.050   5.698 -25.914  1.00  0.00     0.098 A 
ATOM     18  HN  UNL     1      29.745   6.587 -24.051  1.00  0.00     0.165 HD
HETATM   19  C   UNL     1      30.815   5.601 -27.068  1.00  0.00    -0.013 A 
HETATM   20  C   UNL     1      30.343   4.779 -28.266  1.00  0.00     0.052 C 
HETATM   21  C   UNL     1      32.034   6.278 -27.056  1.00  0.00     0.083 A 
HETATM   22  C   UNL     1      32.413   7.064 -25.975  1.00  0.00     0.000 A 
HETATM   23  C   UNL     1      33.678   7.820 -26.024  1.00  0.00     0.054 C 
BRANCH  21  24
HETATM   24  O   UNL     1      32.821   6.235 -28.183  1.00  0.00    -0.355 OA
HETATM   25  C   UNL     1      32.497   7.195 -29.119  1.00  0.00     0.210 C 
ENDBRANCH  21  24
ENDBRANCH  14  15
ENDBRANCH  11  14
BRANCH  13  26
HETATM   26  C   UNL     1      28.642  11.615 -24.089  1.00  0.00    -0.064 C 
HETATM   27  C   UNL     1      27.627  12.174 -24.170  1.00  0.00    -0.098 C 
BRANCH  27  28
HETATM   28  C   UNL     1      26.280  12.849 -24.263  1.00  0.00     0.131 C 
BRANCH  28  29
HETATM   29  C   UNL     1      26.414  14.231 -24.847  1.00  0.00     0.061 C 
HETATM   30  C   UNL     1      25.913  14.243 -26.261  1.00  0.00     0.046 C 
HETATM   31  C   UNL     1      27.871  14.630 -24.846  1.00  0.00     0.046 C 
BRANCH  29  32
HETATM   32  O   UNL     1      25.655  15.157 -24.136  1.00  0.00    -0.390 OA
ATOM     33  HO  UNL     1      25.786  16.038 -24.465  1.00  0.00     0.210 HD
ENDBRANCH  29  32
ENDBRANCH  28  29
ENDBRANCH  27  28
ENDBRANCH  13  26
TORSDOF 7
ENDMDL
MODEL 11
REMARK VINA RESULT:    -8.176      2.382      7.314
REMARK INTER + INTRA:         -12.039
REMARK INTER:                 -11.434
REMARK INTRA:                  -0.605
REMARK UNBOUND:                -0.757
REMARK  7 active torsions:
REMARK  status: ('A' for Active; 'I' for Inactive)
REMARK    1  A    between atoms: N_11  and  C_12 
REMARK    2  A    between atoms: C_12  and  C_13 
REMARK    3  A    between atoms: C_16  and  O_17 
REMARK    4  A    between atoms: C_25  and  C_26 
REMARK    5  A    between atoms: C_27  and  C_28 
REMARK    6  A    between atoms: C_28  and  C_29 
REMARK    7  A    between atoms: C_29  and  O_32 
ROOT
HETATM    1 CL   UNL     1      31.456  14.380 -23.917  1.00  0.00    -0.063 Cl
HETATM    2  C   UNL     1      31.967  12.693 -23.928  1.00  0.00     0.121 A 
HETATM    3  N   UNL     1      33.273  12.845 -23.840  1.00  0.00    -0.320 N 
ATOM      4  HN  UNL     1      33.681  13.771 -23.719  1.00  0.00     0.169 HD
HETATM    5  C   UNL     1      34.050  11.765 -23.913  1.00  0.00     0.195 A 
HETATM    6  N   UNL     1      35.429  12.014 -23.848  1.00  0.00    -0.063 NA
HETATM    7  N   UNL     1      33.540  10.560 -23.949  1.00  0.00    -0.315 N 
ATOM      8  HN  UNL     1      34.146   9.740 -23.946  1.00  0.00     0.170 HD
HETATM    9  C   UNL     1      32.232  10.425 -23.990  1.00  0.00     0.129 A 
HETATM   10  C   UNL     1      31.405  11.480 -24.027  1.00  0.00     0.067 A 
HETATM   11  N   UNL     1      31.467   9.293 -24.055  1.00  0.00    -0.314 N 
HETATM   12  C   UNL     1      30.148   9.657 -24.106  1.00  0.00     0.119 A 
HETATM   13  C   UNL     1      30.057  11.008 -24.105  1.00  0.00     0.050 A 
ENDROOT
BRANCH  11  14
HETATM   14  C   UNL     1      31.928   7.968 -24.049  1.00  0.00     0.128 C 
BRANCH  14  15
HETATM   15  C   UNL     1      32.002   7.405 -25.431  1.00  0.00     0.057 A 
HETATM   16  N   UNL     1      33.123   7.734 -26.088  1.00  0.00    -0.364 N 
HETATM   17  C   UNL     1      33.252   7.275 -27.367  1.00  0.00     0.098 A 
ATOM     18  HN  UNL     1      33.848   8.302 -25.651  1.00  0.00     0.165 HD
HETATM   19  C   UNL     1      32.354   6.410 -27.975  1.00  0.00    -0.013 A 
HETATM   20  C   UNL     1      32.609   5.861 -29.378  1.00  0.00     0.052 C 
HETATM   21  C   UNL     1      31.212   6.093 -27.242  1.00  0.00     0.083 A 
HETATM   22  C   UNL     1      31.033   6.562 -25.946  1.00  0.00     0.000 A 
HETATM   23  C   UNL     1      29.845   6.152 -25.175  1.00  0.00     0.054 C 
BRANCH  21  24
HETATM   24  O   UNL     1      30.301   5.220 -27.788  1.00  0.00    -0.355 OA
HETATM   25  C   UNL     1      29.300   5.843 -28.504  1.00  0.00     0.210 C 
ENDBRANCH  21  24
ENDBRANCH  14  15
ENDBRANCH  11  14
BRANCH  13  26
HETATM   26  C   UNL     1      28.755  11.723 -24.157  1.00  0.00    -0.064 C 
HETATM   27  C   UNL     1      27.745  12.295 -24.187  1.00  0.00    -0.098 C 
BRANCH  27  28
HETATM   28  C   UNL     1      26.410  12.994 -24.262  1.00  0.00     0.131 C 
BRANCH  28  29
HETATM   29  C   UNL     1      26.552  14.348 -24.908  1.00  0.00     0.061 C 
HETATM   30  C   UNL     1      26.014  14.308 -26.308  1.00  0.00     0.046 C 
HETATM   31  C   UNL     1      28.016  14.720 -24.963  1.00  0.00     0.046 C 
BRANCH  29  32
HETATM   32  O   UNL     1      25.829  15.318 -24.218  1.00  0.00    -0.390 OA
ATOM     33  HO  UNL     1      26.405  15.906 -23.745  1.00  0.00     0.210 HD
ENDBRANCH  29  32
ENDBRANCH  28  29
ENDBRANCH  27  28
ENDBRANCH  13  26
TORSDOF 7
ENDMDL
MODEL 12
REMARK VINA RESULT:    -8.175      4.990      8.254
REMARK INTER + INTRA:         -12.038
REMARK INTER:                 -11.534
REMARK INTRA:                  -0.504
REMARK UNBOUND:                -0.757
REMARK  7 active torsions:
REMARK  status: ('A' for Active; 'I' for Inactive)
REMARK    1  A    between atoms: N_11  and  C_12 
REMARK    2  A    between atoms: C_12  and  C_13 
REMARK    3  A    between atoms: C_16  and  O_17 
REMARK    4  A    between atoms: C_25  and  C_26 
REMARK    5  A    between atoms: C_27  and  C_28 
REMARK    6  A    between atoms: C_28  and  C_29 
REMARK    7  A    between atoms: C_29  and  O_32 
ROOT
HETATM    1 CL   UNL     1      28.552  13.600 -24.250  1.00  0.00    -0.063 Cl
HETATM    2  C   UNL     1      28.282  11.884 -23.949  1.00  0.00     0.121 A 
HETATM    3  N   UNL     1      26.968  11.839 -24.022  1.00  0.00    -0.320 N 
ATOM      4  HN  UNL     1      26.433  12.668 -24.281  1.00  0.00     0.169 HD
HETATM    5  C   UNL     1      26.350  10.690 -23.751  1.00  0.00     0.195 A 
HETATM    6  N   UNL     1      24.950  10.734 -23.815  1.00  0.00    -0.063 NA
HETATM    7  N   UNL     1      27.024   9.590 -23.533  1.00  0.00    -0.315 N 
ATOM      8  HN  UNL     1      26.539   8.705 -23.385  1.00  0.00     0.170 HD
HETATM    9  C   UNL     1      28.338   9.643 -23.509  1.00  0.00     0.129 A 
HETATM   10  C   UNL     1      29.009  10.794 -23.669  1.00  0.00     0.067 A 
HETATM   11  N   UNL     1      29.255   8.654 -23.282  1.00  0.00    -0.314 N 
HETATM   12  C   UNL     1      30.510   9.198 -23.330  1.00  0.00     0.119 A 
HETATM   13  C   UNL     1      30.412  10.530 -23.555  1.00  0.00     0.050 A 
ENDROOT
BRANCH  11  14
HETATM   14  C   UNL     1      28.983   7.296 -23.057  1.00  0.00     0.128 C 
BRANCH  14  15
HETATM   15  C   UNL     1      29.228   6.914 -21.634  1.00  0.00     0.057 A 
HETATM   16  N   UNL     1      28.857   7.853 -20.753  1.00  0.00    -0.364 N 
HETATM   17  C   UNL     1      29.071   7.585 -19.432  1.00  0.00     0.098 A 
ATOM     18  HN  UNL     1      28.433   8.729 -21.056  1.00  0.00     0.165 HD
HETATM   19  C   UNL     1      29.541   6.371 -18.952  1.00  0.00    -0.013 A 
HETATM   20  C   UNL     1      29.668   6.107 -17.452  1.00  0.00     0.052 C 
HETATM   21  C   UNL     1      29.901   5.427 -19.913  1.00  0.00     0.083 A 
HETATM   22  C   UNL     1      29.721   5.673 -21.269  1.00  0.00     0.000 A 
HETATM   23  C   UNL     1      30.050   4.627 -22.254  1.00  0.00     0.054 C 
BRANCH  21  24
HETATM   24  O   UNL     1      30.350   4.197 -19.491  1.00  0.00    -0.355 OA
HETATM   25  C   UNL     1      29.336   3.293 -19.253  1.00  0.00     0.210 C 
ENDBRANCH  21  24
ENDBRANCH  14  15
ENDBRANCH  11  14
BRANCH  13  26
HETATM   26  C   UNL     1      31.600  11.415 -23.658  1.00  0.00    -0.064 C 
HETATM   27  C   UNL     1      32.539  12.093 -23.741  1.00  0.00    -0.098 C 
BRANCH  27  28
HETATM   28  C   UNL     1      33.724  13.022 -23.842  1.00  0.00     0.131 C 
BRANCH  28  29
HETATM   29  C   UNL     1      34.903  12.469 -23.083  1.00  0.00     0.061 C 
HETATM   30  C   UNL     1      35.201  11.072 -23.542  1.00  0.00     0.046 C 
HETATM   31  C   UNL     1      34.570  12.434 -21.609  1.00  0.00     0.046 C 
BRANCH  29  32
HETATM   32  O   UNL     1      36.050  13.227 -23.306  1.00  0.00    -0.390 OA
ATOM     33  HO  UNL     1      36.464  13.476 -22.488  1.00  0.00     0.210 HD
ENDBRANCH  29  32
ENDBRANCH  28  29
ENDBRANCH  27  28
ENDBRANCH  13  26
TORSDOF 7
ENDMDL
MODEL 13
REMARK VINA RESULT:    -8.109      3.022      7.744
REMARK INTER + INTRA:         -11.947
REMARK INTER:                 -11.448
REMARK INTRA:                  -0.500
REMARK UNBOUND:                -0.757
REMARK  7 active torsions:
REMARK  status: ('A' for Active; 'I' for Inactive)
REMARK    1  A    between atoms: N_11  and  C_12 
REMARK    2  A    between atoms: C_12  and  C_13 
REMARK    3  A    between atoms: C_16  and  O_17 
REMARK    4  A    between atoms: C_25  and  C_26 
REMARK    5  A    between atoms: C_27  and  C_28 
REMARK    6  A    between atoms: C_28  and  C_29 
REMARK    7  A    between atoms: C_29  and  O_32 
ROOT
HETATM    1 CL   UNL     1      26.741  10.354 -21.709  1.00  0.00    -0.063 Cl
HETATM    2  C   UNL     1      28.234   9.549 -22.188  1.00  0.00     0.121 A 
HETATM    3  N   UNL     1      28.141   8.444 -21.477  1.00  0.00    -0.320 N 
ATOM      4  HN  UNL     1      27.306   8.250 -20.925  1.00  0.00     0.169 HD
HETATM    5  C   UNL     1      29.158   7.584 -21.493  1.00  0.00     0.195 A 
HETATM    6  N   UNL     1      28.998   6.451 -20.683  1.00  0.00    -0.063 NA
HETATM    7  N   UNL     1      30.185   7.758 -22.287  1.00  0.00    -0.315 N 
ATOM      8  HN  UNL     1      30.929   7.062 -22.333  1.00  0.00     0.170 HD
HETATM    9  C   UNL     1      30.240   8.846 -23.024  1.00  0.00     0.129 A 
HETATM   10  C   UNL     1      29.296   9.796 -22.968  1.00  0.00     0.067 A 
HETATM   11  N   UNL     1      31.202   9.265 -23.903  1.00  0.00    -0.314 N 
HETATM   12  C   UNL     1      30.831  10.480 -24.414  1.00  0.00     0.119 A 
HETATM   13  C   UNL     1      29.658  10.860 -23.854  1.00  0.00     0.050 A 
ENDROOT
BRANCH  11  14
HETATM   14  C   UNL     1      32.372   8.576 -24.255  1.00  0.00     0.128 C 
BRANCH  14  15
HETATM   15  C   UNL     1      32.168   7.734 -25.472  1.00  0.00     0.057 A 
HETATM   16  N   UNL     1      31.432   6.636 -25.251  1.00  0.00    -0.364 N 
HETATM   17  C   UNL     1      31.222   5.803 -26.311  1.00  0.00     0.098 A 
ATOM     18  HN  UNL     1      31.044   6.432 -24.330  1.00  0.00     0.165 HD
HETATM   19  C   UNL     1      31.627   6.082 -27.609  1.00  0.00    -0.013 A 
HETATM   20  C   UNL     1      31.277   5.148 -28.767  1.00  0.00     0.052 C 
HETATM   21  C   UNL     1      32.381   7.241 -27.782  1.00  0.00     0.083 A 
HETATM   22  C   UNL     1      32.637   8.102 -26.721  1.00  0.00     0.000 A 
HETATM   23  C   UNL     1      33.380   9.354 -26.954  1.00  0.00     0.054 C 
BRANCH  21  24
HETATM   24  O   UNL     1      32.788   7.577 -29.052  1.00  0.00    -0.355 OA
HETATM   25  C   UNL     1      31.798   8.167 -29.811  1.00  0.00     0.210 C 
ENDBRANCH  21  24
ENDBRANCH  14  15
ENDBRANCH  11  14
BRANCH  13  26
HETATM   26  C   UNL     1      28.985  12.140 -24.196  1.00  0.00    -0.064 C 
HETATM   27  C   UNL     1      28.444  13.132 -24.466  1.00  0.00    -0.098 C 
BRANCH  27  28
HETATM   28  C   UNL     1      27.793  14.449 -24.807  1.00  0.00     0.131 C 
BRANCH  28  29
HETATM   29  C   UNL     1      26.317  14.268 -25.054  1.00  0.00     0.061 C 
HETATM   30  C   UNL     1      26.010  14.476 -26.508  1.00  0.00     0.046 C 
HETATM   31  C   UNL     1      25.551  15.291 -24.247  1.00  0.00     0.046 C 
BRANCH  29  32
HETATM   32  O   UNL     1      25.903  12.980 -24.727  1.00  0.00    -0.390 OA
ATOM     33  HO  UNL     1      25.744  12.894 -23.795  1.00  0.00     0.210 HD
ENDBRANCH  29  32
ENDBRANCH  28  29
ENDBRANCH  27  28
ENDBRANCH  13  26
TORSDOF 7
ENDMDL
MODEL 14
REMARK VINA RESULT:    -8.069      3.598      4.376
REMARK INTER + INTRA:         -11.892
REMARK INTER:                 -11.665
REMARK INTRA:                  -0.227
REMARK UNBOUND:                -0.757
REMARK  7 active torsions:
REMARK  status: ('A' for Active; 'I' for Inactive)
REMARK    1  A    between atoms: N_11  and  C_12 
REMARK    2  A    between atoms: C_12  and  C_13 
REMARK    3  A    between atoms: C_16  and  O_17 
REMARK    4  A    between atoms: C_25  and  C_26 
REMARK    5  A    between atoms: C_27  and  C_28 
REMARK    6  A    between atoms: C_28  and  C_29 
REMARK    7  A    between atoms: C_29  and  O_32 
ROOT
HETATM    1 CL   UNL     1      33.401   6.378 -26.979  1.00  0.00    -0.063 Cl
HETATM    2  C   UNL     1      33.205   7.967 -26.242  1.00  0.00     0.121 A 
HETATM    3  N   UNL     1      33.976   8.686 -27.031  1.00  0.00    -0.320 N 
ATOM      4  HN  UNL     1      34.415   8.268 -27.851  1.00  0.00     0.169 HD
HETATM    5  C   UNL     1      34.172   9.971 -26.738  1.00  0.00     0.195 A 
HETATM    6  N   UNL     1      35.033  10.658 -27.605  1.00  0.00    -0.063 NA
HETATM    7  N   UNL     1      33.524  10.553 -25.761  1.00  0.00    -0.315 N 
ATOM      8  HN  UNL     1      33.638  11.551 -25.584  1.00  0.00     0.170 HD
HETATM    9  C   UNL     1      32.722   9.829 -25.010  1.00  0.00     0.129 A 
HETATM   10  C   UNL     1      32.570   8.509 -25.194  1.00  0.00     0.067 A 
HETATM   11  N   UNL     1      31.963  10.191 -23.931  1.00  0.00    -0.314 N 
HETATM   12  C   UNL     1      31.313   9.081 -23.460  1.00  0.00     0.119 A 
HETATM   13  C   UNL     1      31.668   8.006 -24.203  1.00  0.00     0.050 A 
ENDROOT
BRANCH  11  14
HETATM   14  C   UNL     1      31.836  11.479 -23.391  1.00  0.00     0.128 C 
BRANCH  14  15
HETATM   15  C   UNL     1      30.529  12.102 -23.756  1.00  0.00     0.057 A 
HETATM   16  N   UNL     1      29.476  11.293 -23.574  1.00  0.00    -0.364 N 
HETATM   17  C   UNL     1      28.248  11.785 -23.908  1.00  0.00     0.098 A 
ATOM     18  HN  UNL     1      29.588  10.350 -23.201  1.00  0.00     0.165 HD
HETATM   19  C   UNL     1      28.019  13.092 -24.314  1.00  0.00    -0.013 A 
HETATM   20  C   UNL     1      26.605  13.603 -24.583  1.00  0.00     0.052 C 
HETATM   21  C   UNL     1      29.149  13.892 -24.476  1.00  0.00     0.083 A 
HETATM   22  C   UNL     1      30.419  13.418 -24.170  1.00  0.00     0.000 A 
HETATM   23  C   UNL     1      31.585  14.314 -24.289  1.00  0.00     0.054 C 
BRANCH  21  24
HETATM   24  O   UNL     1      28.978  15.204 -24.854  1.00  0.00    -0.355 OA
HETATM   25  C   UNL     1      28.945  15.385 -26.221  1.00  0.00     0.210 C 
ENDBRANCH  21  24
ENDBRANCH  14  15
ENDBRANCH  11  14
BRANCH  13  26
HETATM   26  C   UNL     1      31.137   6.643 -23.944  1.00  0.00    -0.064 C 
HETATM   27  C   UNL     1      30.733   5.576 -23.728  1.00  0.00    -0.098 C 
BRANCH  27  28
HETATM   28  C   UNL     1      30.170   4.196 -23.493  1.00  0.00     0.131 C 
BRANCH  28  29
HETATM   29  C   UNL     1      29.895   3.972 -22.029  1.00  0.00     0.061 C 
HETATM   30  C   UNL     1      29.446   2.559 -21.801  1.00  0.00     0.046 C 
HETATM   31  C   UNL     1      28.794   4.907 -21.584  1.00  0.00     0.046 C 
BRANCH  29  32
HETATM   32  O   UNL     1      31.040   4.168 -21.262  1.00  0.00    -0.390 OA
ATOM     33  HO  UNL     1      31.293   5.083 -21.247  1.00  0.00     0.210 HD
ENDBRANCH  29  32
ENDBRANCH  28  29
ENDBRANCH  27  28
ENDBRANCH  13  26
TORSDOF 7
ENDMDL
MODEL 15
REMARK VINA RESULT:    -8.018      4.634      7.807
REMARK INTER + INTRA:         -11.822
REMARK INTER:                 -11.413
REMARK INTRA:                  -0.408
REMARK UNBOUND:                -0.757
REMARK  7 active torsions:
REMARK  status: ('A' for Active; 'I' for Inactive)
REMARK    1  A    between atoms: N_11  and  C_12 
REMARK    2  A    between atoms: C_12  and  C_13 
REMARK    3  A    between atoms: C_16  and  O_17 
REMARK    4  A    between atoms: C_25  and  C_26 
REMARK    5  A    between atoms: C_27  and  C_28 
REMARK    6  A    between atoms: C_28  and  C_29 
REMARK    7  A    between atoms: C_29  and  O_32 
ROOT
HETATM    1 CL   UNL     1      29.854  15.231 -25.263  1.00  0.00    -0.063 Cl
HETATM    2  C   UNL     1      28.921  13.865 -24.653  1.00  0.00     0.121 A 
HETATM    3  N   UNL     1      27.700  14.274 -24.930  1.00  0.00    -0.320 N 
ATOM      4  HN  UNL     1      27.547  15.141 -25.444  1.00  0.00     0.169 HD
HETATM    5  C   UNL     1      26.669  13.533 -24.527  1.00  0.00     0.195 A 
HETATM    6  N   UNL     1      25.403  14.054 -24.829  1.00  0.00    -0.063 NA
HETATM    7  N   UNL     1      26.848  12.361 -23.973  1.00  0.00    -0.315 N 
ATOM      8  HN  UNL     1      26.050  11.778 -23.722  1.00  0.00     0.170 HD
HETATM    9  C   UNL     1      28.075  11.947 -23.744  1.00  0.00     0.129 A 
HETATM   10  C   UNL     1      29.149  12.699 -24.032  1.00  0.00     0.067 A 
HETATM   11  N   UNL     1      28.520  10.790 -23.164  1.00  0.00    -0.314 N 
HETATM   12  C   UNL     1      29.888  10.819 -23.119  1.00  0.00     0.119 A 
HETATM   13  C   UNL     1      30.328  11.992 -23.634  1.00  0.00     0.050 A 
ENDROOT
BRANCH  11  14
HETATM   14  C   UNL     1      27.730   9.726 -22.704  1.00  0.00     0.128 C 
BRANCH  14  15
HETATM   15  C   UNL     1      28.416   8.412 -22.887  1.00  0.00     0.057 A 
HETATM   16  N   UNL     1      28.489   8.016 -24.166  1.00  0.00    -0.364 N 
HETATM   17  C   UNL     1      29.083   6.812 -24.411  1.00  0.00     0.098 A 
ATOM     18  HN  UNL     1      28.118   8.590 -24.922  1.00  0.00     0.165 HD
HETATM   19  C   UNL     1      29.703   6.040 -23.439  1.00  0.00    -0.013 A 
HETATM   20  C   UNL     1      30.430   4.745 -23.799  1.00  0.00     0.052 C 
HETATM   21  C   UNL     1      29.604   6.505 -22.128  1.00  0.00     0.083 A 
HETATM   22  C   UNL     1      28.986   7.715 -21.837  1.00  0.00     0.000 A 
HETATM   23  C   UNL     1      28.959   8.209 -20.447  1.00  0.00     0.054 C 
BRANCH  21  24
HETATM   24  O   UNL     1      30.222   5.791 -21.128  1.00  0.00    -0.355 OA
HETATM   25  C   UNL     1      29.367   4.958 -20.437  1.00  0.00     0.210 C 
ENDBRANCH  21  24
ENDBRANCH  14  15
ENDBRANCH  11  14
BRANCH  13  26
HETATM   26  C   UNL     1      31.770  12.336 -23.726  1.00  0.00    -0.064 C 
HETATM   27  C   UNL     1      32.900  12.600 -23.781  1.00  0.00    -0.098 C 
BRANCH  27  28
HETATM   28  C   UNL     1      34.359  12.962 -23.909  1.00  0.00     0.131 C 
BRANCH  28  29
HETATM   29  C   UNL     1      35.122  12.552 -22.676  1.00  0.00     0.061 C 
HETATM   30  C   UNL     1      34.215  12.569 -21.481  1.00  0.00     0.046 C 
HETATM   31  C   UNL     1      36.249  13.531 -22.442  1.00  0.00     0.046 C 
BRANCH  29  32
HETATM   32  O   UNL     1      35.619  11.256 -22.794  1.00  0.00    -0.390 OA
ATOM     33  HO  UNL     1      35.921  10.924 -21.958  1.00  0.00     0.210 HD
ENDBRANCH  29  32
ENDBRANCH  28  29
ENDBRANCH  27  28
ENDBRANCH  13  26
TORSDOF 7
ENDMDL
MODEL 16
REMARK VINA RESULT:    -7.877      3.148      3.921
REMARK INTER + INTRA:         -11.627
REMARK INTER:                 -11.324
REMARK INTRA:                  -0.302
REMARK UNBOUND:                -0.757
REMARK  7 active torsions:
REMARK  status: ('A' for Active; 'I' for Inactive)
REMARK    1  A    between atoms: N_11  and  C_12 
REMARK    2  A    between atoms: C_12  and  C_13 
REMARK    3  A    between atoms: C_16  and  O_17 
REMARK    4  A    between atoms: C_25  and  C_26 
REMARK    5  A    between atoms: C_27  and  C_28 
REMARK    6  A    between atoms: C_28  and  C_29 
REMARK    7  A    between atoms: C_29  and  O_32 
ROOT
HETATM    1 CL   UNL     1      32.631   7.049 -27.408  1.00  0.00    -0.063 Cl
HETATM    2  C   UNL     1      32.389   8.410 -26.315  1.00  0.00     0.121 A 
HETATM    3  N   UNL     1      33.470   9.115 -26.578  1.00  0.00    -0.320 N 
ATOM      4  HN  UNL     1      34.112   8.826 -27.315  1.00  0.00     0.169 HD
HETATM    5  C   UNL     1      33.708  10.213 -25.863  1.00  0.00     0.195 A 
HETATM    6  N   UNL     1      34.896  10.888 -26.179  1.00  0.00    -0.063 NA
HETATM    7  N   UNL     1      32.837  10.664 -24.995  1.00  0.00    -0.315 N 
ATOM      8  HN  UNL     1      33.006  11.537 -24.497  1.00  0.00     0.170 HD
HETATM    9  C   UNL     1      31.741   9.971 -24.777  1.00  0.00     0.129 A 
HETATM   10  C   UNL     1      31.500   8.803 -25.392  1.00  0.00     0.067 A 
HETATM   11  N   UNL     1      30.704  10.212 -23.918  1.00  0.00    -0.314 N 
HETATM   12  C   UNL     1      29.798   9.190 -24.025  1.00  0.00     0.119 A 
HETATM   13  C   UNL     1      30.254   8.281 -24.919  1.00  0.00     0.050 A 
ENDROOT
BRANCH  11  14
HETATM   14  C   UNL     1      30.556  11.323 -23.075  1.00  0.00     0.128 C 
BRANCH  14  15
HETATM   15  C   UNL     1      30.030  12.509 -23.814  1.00  0.00     0.057 A 
HETATM   16  N   UNL     1      30.976  13.396 -24.153  1.00  0.00    -0.364 N 
HETATM   17  C   UNL     1      30.568  14.519 -24.811  1.00  0.00     0.098 A 
ATOM     18  HN  UNL     1      31.958  13.238 -23.928  1.00  0.00     0.165 HD
HETATM   19  C   UNL     1      29.267  14.738 -25.241  1.00  0.00    -0.013 A 
HETATM   20  C   UNL     1      28.898  15.977 -26.056  1.00  0.00     0.052 C 
HETATM   21  C   UNL     1      28.327  13.778 -24.869  1.00  0.00     0.083 A 
HETATM   22  C   UNL     1      28.700  12.633 -24.176  1.00  0.00     0.000 A 
HETATM   23  C   UNL     1      27.691  11.606 -23.859  1.00  0.00     0.054 C 
BRANCH  21  24
HETATM   24  O   UNL     1      27.026  13.934 -25.289  1.00  0.00    -0.355 OA
HETATM   25  C   UNL     1      26.247  14.659 -24.413  1.00  0.00     0.210 C 
ENDBRANCH  21  24
ENDBRANCH  14  15
ENDBRANCH  11  14
BRANCH  13  26
HETATM   26  C   UNL     1      29.501   7.046 -25.260  1.00  0.00    -0.064 C 
HETATM   27  C   UNL     1      28.911   6.086 -25.543  1.00  0.00    -0.098 C 
BRANCH  27  28
HETATM   28  C   UNL     1      28.151   4.821 -25.854  1.00  0.00     0.131 C 
BRANCH  28  29
HETATM   29  C   UNL     1      27.666   4.163 -24.588  1.00  0.00     0.061 C 
HETATM   30  C   UNL     1      26.596   3.161 -24.907  1.00  0.00     0.046 C 
HETATM   31  C   UNL     1      27.086   5.217 -23.674  1.00  0.00     0.046 C 
BRANCH  29  32
HETATM   32  O   UNL     1      28.694   3.476 -23.948  1.00  0.00    -0.390 OA
ATOM     33  HO  UNL     1      28.429   2.594 -23.716  1.00  0.00     0.210 HD
ENDBRANCH  29  32
ENDBRANCH  28  29
ENDBRANCH  27  28
ENDBRANCH  13  26
TORSDOF 7
ENDMDL
MODEL 17
REMARK VINA RESULT:    -7.875      4.568      7.217
REMARK INTER + INTRA:         -11.625
REMARK INTER:                 -11.331
REMARK INTRA:                  -0.294
REMARK UNBOUND:                -0.757
REMARK  7 active torsions:
REMARK  status: ('A' for Active; 'I' for Inactive)
REMARK    1  A    between atoms: N_11  and  C_12 
REMARK    2  A    between atoms: C_12  and  C_13 
REMARK    3  A    between atoms: C_16  and  O_17 
REMARK    4  A    between atoms: C_25  and  C_26 
REMARK    5  A    between atoms: C_27  and  C_28 
REMARK    6  A    between atoms: C_28  and  C_29 
REMARK    7  A    between atoms: C_29  and  O_32 
ROOT
HETATM    1 CL   UNL     1      25.297   9.524 -23.520  1.00  0.00    -0.063 Cl
HETATM    2  C   UNL     1      26.600  10.699 -23.685  1.00  0.00     0.121 A 
HETATM    3  N   UNL     1      25.908  11.771 -24.011  1.00  0.00    -0.320 N 
ATOM      4  HN  UNL     1      24.889  11.746 -24.026  1.00  0.00     0.169 HD
HETATM    5  C   UNL     1      26.563  12.889 -24.320  1.00  0.00     0.195 A 
HETATM    6  N   UNL     1      25.757  13.974 -24.691  1.00  0.00    -0.063 NA
HETATM    7  N   UNL     1      27.863  12.973 -24.191  1.00  0.00    -0.315 N 
ATOM      8  HN  UNL     1      28.347  13.852 -24.375  1.00  0.00     0.170 HD
HETATM    9  C   UNL     1      28.536  11.906 -23.820  1.00  0.00     0.129 A 
HETATM   10  C   UNL     1      27.938  10.725 -23.599  1.00  0.00     0.067 A 
HETATM   11  N   UNL     1      29.881  11.732 -23.638  1.00  0.00    -0.314 N 
HETATM   12  C   UNL     1      30.111  10.432 -23.275  1.00  0.00     0.119 A 
HETATM   13  C   UNL     1      28.935   9.760 -23.249  1.00  0.00     0.050 A 
ENDROOT
BRANCH  11  14
HETATM   14  C   UNL     1      30.877  12.710 -23.774  1.00  0.00     0.128 C 
BRANCH  14  15
HETATM   15  C   UNL     1      32.233  12.099 -23.915  1.00  0.00     0.057 A 
HETATM   16  N   UNL     1      32.407  11.436 -25.066  1.00  0.00    -0.364 N 
HETATM   17  C   UNL     1      33.615  10.829 -25.258  1.00  0.00     0.098 A 
ATOM     18  HN  UNL     1      31.670  11.386 -25.769  1.00  0.00     0.165 HD
HETATM   19  C   UNL     1      34.692  10.952 -24.392  1.00  0.00    -0.013 A 
HETATM   20  C   UNL     1      36.046  10.323 -24.715  1.00  0.00     0.052 C 
HETATM   21  C   UNL     1      34.456  11.662 -23.215  1.00  0.00     0.083 A 
HETATM   22  C   UNL     1      33.232  12.273 -22.973  1.00  0.00     0.000 A 
HETATM   23  C   UNL     1      33.039  13.072 -21.749  1.00  0.00     0.054 C 
BRANCH  21  24
HETATM   24  O   UNL     1      35.497  11.835 -22.332  1.00  0.00    -0.355 OA
HETATM   25  C   UNL     1      36.045  13.100 -22.367  1.00  0.00     0.210 C 
ENDBRANCH  21  24
ENDBRANCH  14  15
ENDBRANCH  11  14
BRANCH  13  26
HETATM   26  C   UNL     1      28.842   8.321 -22.893  1.00  0.00    -0.064 C 
HETATM   27  C   UNL     1      28.767   7.192 -22.632  1.00  0.00    -0.098 C 
BRANCH  27  28
HETATM   28  C   UNL     1      28.679   5.739 -22.235  1.00  0.00     0.131 C 
BRANCH  28  29
HETATM   29  C   UNL     1      29.792   5.375 -21.286  1.00  0.00     0.061 C 
HETATM   30  C   UNL     1      31.117   5.495 -21.979  1.00  0.00     0.046 C 
HETATM   31  C   UNL     1      29.609   3.944 -20.835  1.00  0.00     0.046 C 
BRANCH  29  32
HETATM   32  O   UNL     1      29.823   6.232 -20.189  1.00  0.00    -0.390 OA
ATOM     33  HO  UNL     1      30.709   6.348 -19.867  1.00  0.00     0.210 HD
ENDBRANCH  29  32
ENDBRANCH  28  29
ENDBRANCH  27  28
ENDBRANCH  13  26
TORSDOF 7
ENDMDL
MODEL 18
REMARK VINA RESULT:    -7.843      1.959      2.240
REMARK INTER + INTRA:         -11.580
REMARK INTER:                 -10.917
REMARK INTRA:                  -0.663
REMARK UNBOUND:                -0.757
REMARK  7 active torsions:
REMARK  status: ('A' for Active; 'I' for Inactive)
REMARK    1  A    between atoms: N_11  and  C_12 
REMARK    2  A    between atoms: C_12  and  C_13 
REMARK    3  A    between atoms: C_16  and  O_17 
REMARK    4  A    between atoms: C_25  and  C_26 
REMARK    5  A    between atoms: C_27  and  C_28 
REMARK    6  A    between atoms: C_28  and  C_29 
REMARK    7  A    between atoms: C_29  and  O_32 
ROOT
HETATM    1 CL   UNL     1      33.878   8.206 -27.956  1.00  0.00    -0.063 Cl
HETATM    2  C   UNL     1      33.219   9.151 -26.622  1.00  0.00     0.121 A 
HETATM    3  N   UNL     1      34.249   9.929 -26.357  1.00  0.00    -0.320 N 
ATOM      4  HN  UNL     1      35.085   9.900 -26.940  1.00  0.00     0.169 HD
HETATM    5  C   UNL     1      34.177  10.754 -25.314  1.00  0.00     0.195 A 
HETATM    6  N   UNL     1      35.326  11.522 -25.077  1.00  0.00    -0.063 NA
HETATM    7  N   UNL     1      33.070  10.890 -24.628  1.00  0.00    -0.315 N 
ATOM      8  HN  UNL     1      33.010  11.568 -23.869  1.00  0.00     0.170 HD
HETATM    9  C   UNL     1      32.036  10.138 -24.935  1.00  0.00     0.129 A 
HETATM   10  C   UNL     1      32.087   9.215 -25.907  1.00  0.00     0.067 A 
HETATM   11  N   UNL     1      30.794  10.074 -24.365  1.00  0.00    -0.314 N 
HETATM   12  C   UNL     1      30.061   9.116 -25.013  1.00  0.00     0.119 A 
HETATM   13  C   UNL     1      30.825   8.542 -25.972  1.00  0.00     0.050 A 
ENDROOT
BRANCH  11  14
HETATM   14  C   UNL     1      30.317  10.862 -23.307  1.00  0.00     0.128 C 
BRANCH  14  15
HETATM   15  C   UNL     1      29.313  11.863 -23.775  1.00  0.00     0.057 A 
HETATM   16  N   UNL     1      28.046  11.433 -23.697  1.00  0.00    -0.364 N 
HETATM   17  C   UNL     1      27.071  12.286 -24.129  1.00  0.00     0.098 A 
ATOM     18  HN  UNL     1      27.819  10.510 -23.329  1.00  0.00     0.165 HD
HETATM   19  C   UNL     1      27.306  13.591 -24.535  1.00  0.00    -0.013 A 
HETATM   20  C   UNL     1      26.157  14.522 -24.919  1.00  0.00     0.052 C 
HETATM   21  C   UNL     1      28.642  13.988 -24.588  1.00  0.00     0.083 A 
HETATM   22  C   UNL     1      29.664  13.140 -24.179  1.00  0.00     0.000 A 
HETATM   23  C   UNL     1      31.059  13.616 -24.184  1.00  0.00     0.054 C 
BRANCH  21  24
HETATM   24  O   UNL     1      28.930  15.281 -24.960  1.00  0.00    -0.355 OA
HETATM   25  C   UNL     1      28.998  15.459 -26.326  1.00  0.00     0.210 C 
ENDBRANCH  21  24
ENDBRANCH  14  15
ENDBRANCH  11  14
BRANCH  13  26
HETATM   26  C   UNL     1      30.323   7.458 -26.855  1.00  0.00    -0.064 C 
HETATM   27  C   UNL     1      29.935   6.619 -27.559  1.00  0.00    -0.098 C 
BRANCH  27  28
HETATM   28  C   UNL     1      29.413   5.500 -28.425  1.00  0.00     0.131 C 
BRANCH  28  29
HETATM   29  C   UNL     1      28.331   4.732 -27.712  1.00  0.00     0.061 C 
HETATM   30  C   UNL     1      28.165   3.377 -28.336  1.00  0.00     0.046 C 
HETATM   31  C   UNL     1      27.026   5.484 -27.836  1.00  0.00     0.046 C 
BRANCH  29  32
HETATM   32  O   UNL     1      28.651   4.530 -26.372  1.00  0.00    -0.390 OA
ATOM     33  HO  UNL     1      27.870   4.446 -25.839  1.00  0.00     0.210 HD
ENDBRANCH  29  32
ENDBRANCH  28  29
ENDBRANCH  27  28
ENDBRANCH  13  26
TORSDOF 7
ENDMDL
MODEL 19
REMARK VINA RESULT:    -7.818      3.402      7.096
REMARK INTER + INTRA:         -11.545
REMARK INTER:                 -11.456
REMARK INTRA:                  -0.089
REMARK UNBOUND:                -0.757
REMARK  7 active torsions:
REMARK  status: ('A' for Active; 'I' for Inactive)
REMARK    1  A    between atoms: N_11  and  C_12 
REMARK    2  A    between atoms: C_12  and  C_13 
REMARK    3  A    between atoms: C_16  and  O_17 
REMARK    4  A    between atoms: C_25  and  C_26 
REMARK    5  A    between atoms: C_27  and  C_28 
REMARK    6  A    between atoms: C_28  and  C_29 
REMARK    7  A    between atoms: C_29  and  O_32 
ROOT
HETATM    1 CL   UNL     1      31.220  14.422 -24.191  1.00  0.00    -0.063 Cl
HETATM    2  C   UNL     1      31.772  12.758 -24.006  1.00  0.00     0.121 A 
HETATM    3  N   UNL     1      33.074  12.951 -23.936  1.00  0.00    -0.320 N 
ATOM      4  HN  UNL     1      33.458  13.895 -23.923  1.00  0.00     0.169 HD
HETATM    5  C   UNL     1      33.877  11.890 -23.883  1.00  0.00     0.195 A 
HETATM    6  N   UNL     1      35.249  12.179 -23.847  1.00  0.00    -0.063 NA
HETATM    7  N   UNL     1      33.397  10.677 -23.779  1.00  0.00    -0.315 N 
ATOM      8  HN  UNL     1      34.023   9.878 -23.680  1.00  0.00     0.170 HD
HETATM    9  C   UNL     1      32.093  10.505 -23.804  1.00  0.00     0.129 A 
HETATM   10  C   UNL     1      31.240  11.529 -23.963  1.00  0.00     0.067 A 
HETATM   11  N   UNL     1      31.356   9.355 -23.737  1.00  0.00    -0.314 N 
HETATM   12  C   UNL     1      30.028   9.677 -23.830  1.00  0.00     0.119 A 
HETATM   13  C   UNL     1      29.904  11.017 -23.986  1.00  0.00     0.050 A 
ENDROOT
BRANCH  11  14
HETATM   14  C   UNL     1      31.850   8.051 -23.578  1.00  0.00     0.128 C 
BRANCH  14  15
HETATM   15  C   UNL     1      30.747   7.065 -23.379  1.00  0.00     0.057 A 
HETATM   16  N   UNL     1      30.310   6.994 -22.114  1.00  0.00    -0.364 N 
HETATM   17  C   UNL     1      29.316   6.096 -21.848  1.00  0.00     0.098 A 
ATOM     18  HN  UNL     1      30.702   7.585 -21.381  1.00  0.00     0.165 HD
HETATM   19  C   UNL     1      28.668   5.346 -22.819  1.00  0.00    -0.013 A 
HETATM   20  C   UNL     1      27.499   4.428 -22.463  1.00  0.00     0.052 C 
HETATM   21  C   UNL     1      29.157   5.468 -24.119  1.00  0.00     0.083 A 
HETATM   22  C   UNL     1      30.184   6.353 -24.424  1.00  0.00     0.000 A 
HETATM   23  C   UNL     1      30.631   6.505 -25.821  1.00  0.00     0.054 C 
BRANCH  21  24
HETATM   24  O   UNL     1      28.535   4.765 -25.124  1.00  0.00    -0.355 OA
HETATM   25  C   UNL     1      27.478   5.441 -25.698  1.00  0.00     0.210 C 
ENDBRANCH  21  24
ENDBRANCH  14  15
ENDBRANCH  11  14
BRANCH  13  26
HETATM   26  C   UNL     1      28.586  11.689 -24.121  1.00  0.00    -0.064 C 
HETATM   27  C   UNL     1      27.558  12.222 -24.211  1.00  0.00    -0.098 C 
BRANCH  27  28
HETATM   28  C   UNL     1      26.214  12.886 -24.380  1.00  0.00     0.131 C 
BRANCH  28  29
HETATM   29  C   UNL     1      26.374  14.294 -24.892  1.00  0.00     0.061 C 
HETATM   30  C   UNL     1      25.863  14.390 -26.300  1.00  0.00     0.046 C 
HETATM   31  C   UNL     1      27.839  14.661 -24.883  1.00  0.00     0.046 C 
BRANCH  29  32
HETATM   32  O   UNL     1      25.640  15.198 -24.128  1.00  0.00    -0.390 OA
ATOM     33  HO  UNL     1      24.759  14.882 -23.970  1.00  0.00     0.210 HD
ENDBRANCH  29  32
ENDBRANCH  28  29
ENDBRANCH  27  28
ENDBRANCH  13  26
TORSDOF 7
ENDMDL
MODEL 20
REMARK VINA RESULT:    -7.607      4.730      7.694
REMARK INTER + INTRA:         -11.255
REMARK INTER:                 -10.638
REMARK INTRA:                  -0.617
REMARK UNBOUND:                -0.757
REMARK  7 active torsions:
REMARK  status: ('A' for Active; 'I' for Inactive)
REMARK    1  A    between atoms: N_11  and  C_12 
REMARK    2  A    between atoms: C_12  and  C_13 
REMARK    3  A    between atoms: C_16  and  O_17 
REMARK    4  A    between atoms: C_25  and  C_26 
REMARK    5  A    between atoms: C_27  and  C_28 
REMARK    6  A    between atoms: C_28  and  C_29 
REMARK    7  A    between atoms: C_29  and  O_32 
ROOT
HETATM    1 CL   UNL     1      33.663  10.556 -25.232  1.00  0.00    -0.063 Cl
HETATM    2  C   UNL     1      32.592   9.289 -24.636  1.00  0.00     0.121 A 
HETATM    3  N   UNL     1      33.383   8.242 -24.752  1.00  0.00    -0.320 N 
ATOM      4  HN  UNL     1      34.353   8.354 -25.046  1.00  0.00     0.169 HD
HETATM    5  C   UNL     1      32.892   7.034 -24.479  1.00  0.00     0.195 A 
HETATM    6  N   UNL     1      33.785   5.969 -24.661  1.00  0.00    -0.063 NA
HETATM    7  N   UNL     1      31.687   6.884 -23.987  1.00  0.00    -0.315 N 
ATOM      8  HN  UNL     1      31.345   5.959 -23.727  1.00  0.00     0.170 HD
HETATM    9  C   UNL     1      30.927   7.946 -23.835  1.00  0.00     0.129 A 
HETATM   10  C   UNL     1      31.332   9.173 -24.194  1.00  0.00     0.067 A 
HETATM   11  N   UNL     1      29.643   8.050 -23.372  1.00  0.00    -0.314 N 
HETATM   12  C   UNL     1      29.263   9.364 -23.422  1.00  0.00     0.119 A 
HETATM   13  C   UNL     1      30.274  10.102 -23.939  1.00  0.00     0.050 A 
ENDROOT
BRANCH  11  14
HETATM   14  C   UNL     1      28.837   7.004 -22.898  1.00  0.00     0.128 C 
BRANCH  14  15
HETATM   15  C   UNL     1      29.183   6.636 -21.492  1.00  0.00     0.057 A 
HETATM   16  N   UNL     1      28.900   7.595 -20.599  1.00  0.00    -0.364 N 
HETATM   17  C   UNL     1      29.210   7.341 -19.294  1.00  0.00     0.098 A 
ATOM     18  HN  UNL     1      28.472   8.476 -20.882  1.00  0.00     0.165 HD
HETATM   19  C   UNL     1      29.691   6.123 -18.834  1.00  0.00    -0.013 A 
HETATM   20  C   UNL     1      29.928   5.877 -17.344  1.00  0.00     0.052 C 
HETATM   21  C   UNL     1      29.956   5.160 -19.805  1.00  0.00     0.083 A 
HETATM   22  C   UNL     1      29.677   5.391 -21.147  1.00  0.00     0.000 A 
HETATM   23  C   UNL     1      29.908   4.324 -22.139  1.00  0.00     0.054 C 
BRANCH  21  24
HETATM   24  O   UNL     1      30.411   3.926 -19.401  1.00  0.00    -0.355 OA
HETATM   25  C   UNL     1      29.402   3.051 -19.059  1.00  0.00     0.210 C 
ENDBRANCH  21  24
ENDBRANCH  14  15
ENDBRANCH  11  14
BRANCH  13  26
HETATM   26  C   UNL     1      30.176  11.573 -24.130  1.00  0.00    -0.064 C 
HETATM   27  C   UNL     1      30.086  12.723 -24.266  1.00  0.00    -0.098 C 
BRANCH  27  28
HETATM   28  C   UNL     1      30.013  14.213 -24.486  1.00  0.00     0.131 C 
BRANCH  28  29
HETATM   29  C   UNL     1      28.744  14.586 -25.206  1.00  0.00     0.061 C 
HETATM   30  C   UNL     1      28.533  16.071 -25.141  1.00  0.00     0.046 C 
HETATM   31  C   UNL     1      27.575  13.902 -24.536  1.00  0.00     0.046 C 
BRANCH  29  32
HETATM   32  O   UNL     1      28.805  14.239 -26.553  1.00  0.00    -0.390 OA
ATOM     33  HO  UNL     1      28.489  13.355 -26.697  1.00  0.00     0.210 HD
ENDBRANCH  29  32
ENDBRANCH  28  29
ENDBRANCH  27  28
ENDBRANCH  13  26
TORSDOF 7
ENDMDL
