MODEL 1
REMARK VINA RESULT:    -8.855      0.000      0.000
REMARK INTER + INTRA:         -11.124
REMARK INTER:                 -10.926
REMARK INTRA:                  -0.198
REMARK UNBOUND:                -0.198
REMARK  5 active torsions:
REMARK  status: ('A' for Active; 'I' for Inactive)
REMARK    1  A    between atoms: N_1  and  CA_5 
REMARK    2  A    between atoms: CA_5  and  C_9 
REMARK    3  A    between atoms: CA_5  and  C_6 
REMARK    4  A    between atoms: C_9  and  C_10 
REMARK    5  A    between atoms: C_15  and  O_16 
ROOT
HETATM    1  C   UNL     1      69.561  -1.815  74.593  1.00  0.00    -0.053 A 
HETATM    2  C   UNL     1      69.743  -3.151  74.242  1.00  0.00     0.052 A 
HETATM    3  C   UNL     1      68.284  -1.246  74.520  1.00  0.00     0.010 A 
HETATM    4  C   UNL     1      68.669  -3.943  73.830  1.00  0.00     0.149 A 
HETATM    5  C   UNL     1      67.206  -2.026  74.097  1.00  0.00     0.040 A 
HETATM    6  C   UNL     1      67.387  -3.373  73.755  1.00  0.00     0.104 A 
HETATM    7  F   UNL     1      68.848  -5.248  73.486  1.00  0.00    -0.203 F 
ENDROOT
BRANCH   1   8
HETATM    8  C   UNL     1      70.740  -1.029  75.042  1.00  0.00     0.082 C 
BRANCH   8   9
HETATM    9  CA  UNL     1      71.261  -1.450  76.432  1.00  0.00     0.287 C 
BRANCH   9  10
HETATM   10  C   UNL     1      72.609  -0.764  76.566  1.00  0.00     0.204 C 
HETATM   11  OXT UNL     1      72.539   0.477  77.105  1.00  0.00    -0.646 OA
HETATM   12  O   UNL     1      73.730  -1.175  76.251  1.00  0.00    -0.646 OA
ENDBRANCH   9  10
BRANCH   9  13
HETATM   13  N   UNL     1      70.395  -1.144  77.561  1.00  0.00    -0.065 N 
ATOM     14  HN3 UNL     1      69.936  -1.996  77.885  1.00  0.00     0.275 HD
ATOM     15  HN2 UNL     1      70.960  -0.916  78.378  1.00  0.00     0.275 HD
ATOM     16  HN1 UNL     1      69.699  -0.414  77.407  1.00  0.00     0.275 HD
ENDBRANCH   9  13
ENDBRANCH   8   9
ENDBRANCH   1   8
BRANCH   6  17
HETATM   17  O   UNL     1      66.297  -4.093  73.340  1.00  0.00    -0.358 OA
ATOM     18  HO  UNL     1      65.898  -3.872  72.507  1.00  0.00     0.217 HD
ENDBRANCH   6  17
TORSDOF 5
ENDMDL
MODEL 2
REMARK VINA RESULT:    -8.792      1.225      1.778
REMARK INTER + INTRA:         -11.046
REMARK INTER:                 -10.853
REMARK INTRA:                  -0.193
REMARK UNBOUND:                -0.198
REMARK  5 active torsions:
REMARK  status: ('A' for Active; 'I' for Inactive)
REMARK    1  A    between atoms: N_1  and  CA_5 
REMARK    2  A    between atoms: CA_5  and  C_9 
REMARK    3  A    between atoms: CA_5  and  C_6 
REMARK    4  A    between atoms: C_9  and  C_10 
REMARK    5  A    between atoms: C_15  and  O_16 
ROOT
HETATM    1  C   UNL     1      69.603  -1.956  74.630  1.00  0.00    -0.053 A 
HETATM    2  C   UNL     1      68.333  -1.428  74.408  1.00  0.00     0.052 A 
HETATM    3  C   UNL     1      69.835  -3.319  74.416  1.00  0.00     0.010 A 
HETATM    4  C   UNL     1      67.283  -2.232  73.961  1.00  0.00     0.149 A 
HETATM    5  C   UNL     1      68.789  -4.135  73.980  1.00  0.00     0.040 A 
HETATM    6  C   UNL     1      67.514  -3.601  73.746  1.00  0.00     0.104 A 
HETATM    7  F   UNL     1      66.042  -1.716  73.746  1.00  0.00    -0.203 F 
ENDROOT
BRANCH   1   8
HETATM    8  C   UNL     1      70.684  -1.044  75.089  1.00  0.00     0.082 C 
BRANCH   8   9
HETATM    9  CA  UNL     1      71.256  -1.425  76.471  1.00  0.00     0.287 C 
BRANCH   9  10
HETATM   10  C   UNL     1      72.601  -0.722  76.540  1.00  0.00     0.204 C 
HETATM   11  OXT UNL     1      72.521   0.574  76.925  1.00  0.00    -0.646 OA
HETATM   12  O   UNL     1      73.728  -1.165  76.294  1.00  0.00    -0.646 OA
ENDBRANCH   9  10
BRANCH   9  13
HETATM   13  N   UNL     1      70.426  -1.097  77.620  1.00  0.00    -0.065 N 
ATOM     14  HN3 UNL     1      70.308  -0.086  77.684  1.00  0.00     0.275 HD
ATOM     15  HN2 UNL     1      69.463  -1.384  77.444  1.00  0.00     0.275 HD
ATOM     16  HN1 UNL     1      70.737  -1.466  78.519  1.00  0.00     0.275 HD
ENDBRANCH   9  13
ENDBRANCH   8   9
ENDBRANCH   1   8
BRANCH   6  17
HETATM   17  O   UNL     1      66.520  -4.446  73.324  1.00  0.00    -0.358 OA
ATOM     18  HO  UNL     1      66.758  -5.194  72.790  1.00  0.00     0.217 HD
ENDBRANCH   6  17
TORSDOF 5
ENDMDL
