MODEL 1
REMARK VINA RESULT:    -7.549      0.000      0.000
REMARK INTER + INTRA:         -10.965
REMARK INTER:                  -9.756
REMARK INTRA:                  -1.209
REMARK UNBOUND:                -1.209
REMARK  5 active torsions:
REMARK  status: ('A' for Active; 'I' for Inactive)
REMARK    1  A    between atoms: C_6  and  C_7 
REMARK    2  A    between atoms: C_10  and  N_26 
REMARK       I    between atoms: C_11  and  N_26 
REMARK    3  A    between atoms: C_11  and  C_12 
REMARK    4  A    between atoms: N_13  and  C_16 
REMARK    5  A    between atoms: C_17  and  C_20 
ROOT
HETATM    1  C   UNL     1     -15.040  43.670 -14.858  1.00  0.00     0.092 A 
HETATM    2  C   UNL     1     -14.796  42.837 -15.970  1.00  0.00     0.065 A 
HETATM    3  N   UNL     1     -16.322  41.963 -14.637  1.00  0.00    -0.252 N 
HETATM    4  C   UNL     1     -15.656  41.751 -15.808  1.00  0.00     0.077 A 
HETATM    5  N   UNL     1     -15.947  43.147 -14.023  1.00  0.00    -0.292 N 
ATOM      6  HN  UNL     1     -16.283  43.532 -13.141  1.00  0.00     0.187 HD
ENDROOT
BRANCH   4   7
HETATM    7  C   UNL     1     -15.807  40.594 -16.670  1.00  0.00     0.052 A 
HETATM    8  S   UNL     1     -15.313  38.987 -16.229  1.00  0.00    -0.050 SA
HETATM    9  C   UNL     1     -15.970  38.397 -17.715  1.00  0.00     0.151 A 
HETATM   10  N   UNL     1     -16.511  39.296 -18.488  1.00  0.00    -0.345 N 
HETATM   11  C   UNL     1     -16.428  40.533 -17.885  1.00  0.00     0.111 A 
ATOM     12  HN  UNL     1     -16.932  39.113 -19.400  1.00  0.00     0.167 HD
BRANCH   9  13
HETATM   13  N   UNL     1     -15.960  37.061 -18.071  1.00  0.00    -0.307 N 
HETATM   14  C   UNL     1     -16.893  36.471 -18.867  1.00  0.00     0.227 C 
HETATM   15  O   UNL     1     -17.841  37.082 -19.355  1.00  0.00    -0.273 OA
ATOM     16  HN  UNL     1     -15.203  36.479 -17.714  1.00  0.00     0.171 HD
BRANCH  14  17
HETATM   17  C   UNL     1     -16.705  34.986 -19.080  1.00  0.00     0.070 C 
HETATM   18  C   UNL     1     -15.962  34.754 -20.386  1.00  0.00     0.019 C 
HETATM   19  C   UNL     1     -18.070  34.320 -19.107  1.00  0.00     0.019 C 
ENDBRANCH  14  17
ENDBRANCH   9  13
ENDBRANCH   4   7
BRANCH   3  20
HETATM   20  C   UNL     1     -17.378  41.205 -14.014  1.00  0.00     0.100 A 
HETATM   21  C   UNL     1     -18.704  41.349 -14.410  1.00  0.00     0.064 A 
HETATM   22  C   UNL     1     -19.718  40.626 -13.809  1.00  0.00     0.026 A 
HETATM   23 CL   UNL     1     -19.114  42.386 -15.729  1.00  0.00    -0.082 Cl
HETATM   24  C   UNL     1     -19.408  39.731 -12.799  1.00  0.00     0.003 A 
HETATM   25  C   UNL     1     -18.097  39.560 -12.394  1.00  0.00     0.026 A 
HETATM   26  C   UNL     1     -17.096  40.298 -13.007  1.00  0.00     0.064 A 
HETATM   27 CL   UNL     1     -15.457  40.042 -12.540  1.00  0.00    -0.082 Cl
ENDBRANCH   3  20
BRANCH   1  28
HETATM   28  C   UNL     1     -14.484  45.089 -14.551  1.00  0.00     0.404 C 
HETATM   29  F   UNL     1     -13.214  45.179 -14.939  1.00  0.00    -0.207 F 
HETATM   30  F   UNL     1     -14.512  45.322 -13.251  1.00  0.00    -0.207 F 
ENDBRANCH   1  28
TORSDOF 5
ENDMDL
MODEL 2
REMARK VINA RESULT:    -7.467      0.220      1.745
REMARK INTER + INTRA:         -10.859
REMARK INTER:                  -9.707
REMARK INTRA:                  -1.151
REMARK UNBOUND:                -1.209
REMARK  5 active torsions:
REMARK  status: ('A' for Active; 'I' for Inactive)
REMARK    1  A    between atoms: C_6  and  C_7 
REMARK    2  A    between atoms: C_10  and  N_26 
REMARK       I    between atoms: C_11  and  N_26 
REMARK    3  A    between atoms: C_11  and  C_12 
REMARK    4  A    between atoms: N_13  and  C_16 
REMARK    5  A    between atoms: C_17  and  C_20 
ROOT
HETATM    1  C   UNL     1     -15.121  43.572 -15.024  1.00  0.00     0.092 A 
HETATM    2  C   UNL     1     -14.896  42.720 -16.126  1.00  0.00     0.065 A 
HETATM    3  N   UNL     1     -16.393  41.866 -14.748  1.00  0.00    -0.252 N 
HETATM    4  C   UNL     1     -15.751  41.635 -15.928  1.00  0.00     0.077 A 
HETATM    5  N   UNL     1     -16.009  43.062 -14.163  1.00  0.00    -0.292 N 
ATOM      6  HN  UNL     1     -16.329  43.461 -13.280  1.00  0.00     0.187 HD
ENDROOT
BRANCH   4   7
HETATM    7  C   UNL     1     -15.915  40.462 -16.767  1.00  0.00     0.052 A 
HETATM    8  S   UNL     1     -15.165  38.928 -16.444  1.00  0.00    -0.050 SA
HETATM    9  C   UNL     1     -16.002  38.255 -17.798  1.00  0.00     0.151 A 
HETATM   10  N   UNL     1     -16.774  39.079 -18.450  1.00  0.00    -0.345 N 
HETATM   11  C   UNL     1     -16.731  40.320 -17.853  1.00  0.00     0.111 A 
ATOM     12  HN  UNL     1     -17.325  38.841 -19.275  1.00  0.00     0.167 HD
BRANCH   9  13
HETATM   13  N   UNL     1     -15.898  36.927 -18.170  1.00  0.00    -0.307 N 
HETATM   14  C   UNL     1     -16.840  36.254 -18.886  1.00  0.00     0.227 C 
HETATM   15  O   UNL     1     -17.882  36.774 -19.278  1.00  0.00    -0.273 OA
ATOM     16  HN  UNL     1     -15.060  36.418 -17.889  1.00  0.00     0.171 HD
BRANCH  14  17
HETATM   17  C   UNL     1     -16.532  34.795 -19.133  1.00  0.00     0.070 C 
HETATM   18  C   UNL     1     -15.966  34.628 -20.534  1.00  0.00     0.019 C 
HETATM   19  C   UNL     1     -17.811  33.992 -18.966  1.00  0.00     0.019 C 
ENDBRANCH  14  17
ENDBRANCH   9  13
ENDBRANCH   4   7
BRANCH   3  20
HETATM   20  C   UNL     1     -17.435  41.116 -14.091  1.00  0.00     0.100 A 
HETATM   21  C   UNL     1     -17.150  40.242 -13.047  1.00  0.00     0.064 A 
HETATM   22  C   UNL     1     -18.149  39.519 -12.420  1.00  0.00     0.026 A 
HETATM   23 CL   UNL     1     -15.538  40.094 -12.446  1.00  0.00    -0.082 Cl
HETATM   24  C   UNL     1     -19.461  39.675 -12.832  1.00  0.00     0.003 A 
HETATM   25  C   UNL     1     -19.773  40.546 -13.860  1.00  0.00     0.026 A 
HETATM   26  C   UNL     1     -18.757  41.258 -14.477  1.00  0.00     0.064 A 
HETATM   27 CL   UNL     1     -19.153  42.385 -15.719  1.00  0.00    -0.082 Cl
ENDBRANCH   3  20
BRANCH   1  28
HETATM   28  C   UNL     1     -14.563  44.997 -14.753  1.00  0.00     0.404 C 
HETATM   29  F   UNL     1     -13.283  45.066 -15.111  1.00  0.00    -0.207 F 
HETATM   30  F   UNL     1     -14.623  45.276 -13.464  1.00  0.00    -0.207 F 
ENDBRANCH   1  28
TORSDOF 5
ENDMDL
MODEL 3
REMARK VINA RESULT:    -7.465      4.597      6.590
REMARK INTER + INTRA:         -10.856
REMARK INTER:                  -9.520
REMARK INTRA:                  -1.336
REMARK UNBOUND:                -1.209
REMARK  5 active torsions:
REMARK  status: ('A' for Active; 'I' for Inactive)
REMARK    1  A    between atoms: C_6  and  C_7 
REMARK    2  A    between atoms: C_10  and  N_26 
REMARK       I    between atoms: C_11  and  N_26 
REMARK    3  A    between atoms: C_11  and  C_12 
REMARK    4  A    between atoms: N_13  and  C_16 
REMARK    5  A    between atoms: C_17  and  C_20 
ROOT
HETATM    1  C   UNL     1     -17.517  40.577 -14.581  1.00  0.00     0.092 A 
HETATM    2  C   UNL     1     -16.393  39.755 -14.808  1.00  0.00     0.065 A 
HETATM    3  N   UNL     1     -15.788  41.824 -14.334  1.00  0.00    -0.252 N 
HETATM    4  C   UNL     1     -15.289  40.587 -14.619  1.00  0.00     0.077 A 
HETATM    5  N   UNL     1     -17.173  41.843 -14.315  1.00  0.00    -0.292 N 
ATOM      6  HN  UNL     1     -17.788  42.637 -14.139  1.00  0.00     0.187 HD
ENDROOT
BRANCH   4   7
HETATM    7  C   UNL     1     -13.883  40.248 -14.737  1.00  0.00     0.052 A 
HETATM    8  S   UNL     1     -13.033  40.156 -16.250  1.00  0.00    -0.050 SA
HETATM    9  C   UNL     1     -11.568  39.846 -15.386  1.00  0.00     0.151 A 
HETATM   10  N   UNL     1     -11.677  39.807 -14.088  1.00  0.00    -0.345 N 
HETATM   11  C   UNL     1     -12.985  40.049 -13.728  1.00  0.00     0.111 A 
ATOM     12  HN  UNL     1     -10.911  39.626 -13.438  1.00  0.00     0.167 HD
BRANCH   9  13
HETATM   13  N   UNL     1     -10.344  39.676 -16.006  1.00  0.00    -0.307 N 
HETATM   14  C   UNL     1      -9.402  40.650 -16.130  1.00  0.00     0.227 C 
HETATM   15  O   UNL     1      -9.554  41.788 -15.690  1.00  0.00    -0.273 OA
ATOM     16  HN  UNL     1     -10.132  38.757 -16.396  1.00  0.00     0.171 HD
BRANCH  14  17
HETATM   17  C   UNL     1      -8.160  40.246 -16.890  1.00  0.00     0.070 C 
HETATM   18  C   UNL     1      -7.182  41.410 -16.914  1.00  0.00     0.019 C 
HETATM   19  C   UNL     1      -8.559  39.844 -18.299  1.00  0.00     0.019 C 
ENDBRANCH  14  17
ENDBRANCH   9  13
ENDBRANCH   4   7
BRANCH   3  20
HETATM   20  C   UNL     1     -15.108  43.045 -13.981  1.00  0.00     0.100 A 
HETATM   21  C   UNL     1     -14.876  43.386 -12.652  1.00  0.00     0.064 A 
HETATM   22  C   UNL     1     -14.228  44.560 -12.313  1.00  0.00     0.026 A 
HETATM   23 CL   UNL     1     -15.323  42.306 -11.382  1.00  0.00    -0.082 Cl
HETATM   24  C   UNL     1     -13.791  45.410 -13.314  1.00  0.00     0.003 A 
HETATM   25  C   UNL     1     -13.999  45.089 -14.644  1.00  0.00     0.026 A 
HETATM   26  C   UNL     1     -14.654  43.909 -14.962  1.00  0.00     0.064 A 
HETATM   27 CL   UNL     1     -14.862  43.484 -16.619  1.00  0.00    -0.082 Cl
ENDBRANCH   3  20
BRANCH   1  28
HETATM   28  C   UNL     1     -19.021  40.190 -14.513  1.00  0.00     0.404 C 
HETATM   29  F   UNL     1     -19.764  41.127 -15.096  1.00  0.00    -0.207 F 
HETATM   30  F   UNL     1     -19.417  40.104 -13.256  1.00  0.00    -0.207 F 
ENDBRANCH   1  28
TORSDOF 5
ENDMDL
MODEL 4
REMARK VINA RESULT:    -7.440      4.245      7.851
REMARK INTER + INTRA:         -10.824
REMARK INTER:                  -9.553
REMARK INTRA:                  -1.271
REMARK UNBOUND:                -1.209
REMARK  5 active torsions:
REMARK  status: ('A' for Active; 'I' for Inactive)
REMARK    1  A    between atoms: C_6  and  C_7 
REMARK    2  A    between atoms: C_10  and  N_26 
REMARK       I    between atoms: C_11  and  N_26 
REMARK    3  A    between atoms: C_11  and  C_12 
REMARK    4  A    between atoms: N_13  and  C_16 
REMARK    5  A    between atoms: C_17  and  C_20 
ROOT
HETATM    1  C   UNL     1     -18.001  40.242 -12.969  1.00  0.00     0.092 A 
HETATM    2  C   UNL     1     -17.565  41.580 -12.880  1.00  0.00     0.065 A 
HETATM    3  N   UNL     1     -16.329  40.431 -14.303  1.00  0.00    -0.252 N 
HETATM    4  C   UNL     1     -16.496  41.676 -13.772  1.00  0.00     0.077 A 
HETATM    5  N   UNL     1     -17.249  39.520 -13.810  1.00  0.00    -0.292 N 
ATOM      6  HN  UNL     1     -17.335  38.529 -14.035  1.00  0.00     0.187 HD
ENDROOT
BRANCH   4   7
HETATM    7  C   UNL     1     -15.678  42.838 -14.065  1.00  0.00     0.052 A 
HETATM    8  S   UNL     1     -14.478  43.476 -12.983  1.00  0.00    -0.050 SA
HETATM    9  C   UNL     1     -14.038  44.638 -14.185  1.00  0.00     0.151 A 
HETATM   10  N   UNL     1     -14.712  44.578 -15.300  1.00  0.00    -0.345 N 
HETATM   11  C   UNL     1     -15.627  43.550 -15.230  1.00  0.00     0.111 A 
ATOM     12  HN  UNL     1     -14.581  45.197 -16.100  1.00  0.00     0.167 HD
BRANCH   9  13
HETATM   13  N   UNL     1     -13.024  45.562 -14.012  1.00  0.00    -0.307 N 
HETATM   14  C   UNL     1     -11.949  45.686 -14.836  1.00  0.00     0.227 C 
HETATM   15  O   UNL     1     -11.780  44.981 -15.829  1.00  0.00    -0.273 OA
ATOM     16  HN  UNL     1     -13.087  46.193 -13.213  1.00  0.00     0.171 HD
BRANCH  14  17
HETATM   17  C   UNL     1     -10.942  46.735 -14.420  1.00  0.00     0.070 C 
HETATM   18  C   UNL     1      -9.936  46.941 -15.541  1.00  0.00     0.019 C 
HETATM   19  C   UNL     1     -10.251  46.270 -13.150  1.00  0.00     0.019 C 
ENDBRANCH  14  17
ENDBRANCH   9  13
ENDBRANCH   4   7
BRANCH   3  20
HETATM   20  C   UNL     1     -15.425  39.966 -15.325  1.00  0.00     0.100 A 
HETATM   21  C   UNL     1     -14.117  39.603 -15.025  1.00  0.00     0.064 A 
HETATM   22  C   UNL     1     -13.248  39.163 -16.007  1.00  0.00     0.026 A 
HETATM   23 CL   UNL     1     -13.559  39.617 -13.391  1.00  0.00    -0.082 Cl
HETATM   24  C   UNL     1     -13.692  39.070 -17.315  1.00  0.00     0.003 A 
HETATM   25  C   UNL     1     -14.992  39.414 -17.639  1.00  0.00     0.026 A 
HETATM   26  C   UNL     1     -15.845  39.857 -16.640  1.00  0.00     0.064 A 
HETATM   27 CL   UNL     1     -17.479  40.231 -17.036  1.00  0.00    -0.082 Cl
ENDBRANCH   3  20
BRANCH   1  28
HETATM   28  C   UNL     1     -19.238  39.564 -12.316  1.00  0.00     0.404 C 
HETATM   29  F   UNL     1     -18.976  38.288 -12.048  1.00  0.00    -0.207 F 
HETATM   30  F   UNL     1     -20.265  39.586 -13.147  1.00  0.00    -0.207 F 
ENDBRANCH   1  28
TORSDOF 5
ENDMDL
MODEL 5
REMARK VINA RESULT:    -7.437      4.250      7.671
REMARK INTER + INTRA:         -10.820
REMARK INTER:                  -9.482
REMARK INTRA:                  -1.338
REMARK UNBOUND:                -1.209
REMARK  5 active torsions:
REMARK  status: ('A' for Active; 'I' for Inactive)
REMARK    1  A    between atoms: C_6  and  C_7 
REMARK    2  A    between atoms: C_10  and  N_26 
REMARK       I    between atoms: C_11  and  N_26 
REMARK    3  A    between atoms: C_11  and  C_12 
REMARK    4  A    between atoms: N_13  and  C_16 
REMARK    5  A    between atoms: C_17  and  C_20 
ROOT
HETATM    1  C   UNL     1     -17.984  40.218 -12.993  1.00  0.00     0.092 A 
HETATM    2  C   UNL     1     -17.554  41.558 -12.904  1.00  0.00     0.065 A 
HETATM    3  N   UNL     1     -16.307  40.411 -14.319  1.00  0.00    -0.252 N 
HETATM    4  C   UNL     1     -16.481  41.656 -13.791  1.00  0.00     0.077 A 
HETATM    5  N   UNL     1     -17.226  39.497 -13.829  1.00  0.00    -0.292 N 
ATOM      6  HN  UNL     1     -17.307  38.505 -14.053  1.00  0.00     0.187 HD
ENDROOT
BRANCH   4   7
HETATM    7  C   UNL     1     -15.667  42.821 -14.083  1.00  0.00     0.052 A 
HETATM    8  S   UNL     1     -14.470  43.463 -12.998  1.00  0.00    -0.050 SA
HETATM    9  C   UNL     1     -14.032  44.626 -14.199  1.00  0.00     0.151 A 
HETATM   10  N   UNL     1     -14.703  44.564 -15.315  1.00  0.00    -0.345 N 
HETATM   11  C   UNL     1     -15.615  43.533 -15.247  1.00  0.00     0.111 A 
ATOM     12  HN  UNL     1     -14.573  45.184 -16.115  1.00  0.00     0.167 HD
BRANCH   9  13
HETATM   13  N   UNL     1     -13.021  45.553 -14.024  1.00  0.00    -0.307 N 
HETATM   14  C   UNL     1     -11.952  45.691 -14.855  1.00  0.00     0.227 C 
HETATM   15  O   UNL     1     -11.787  44.997 -15.856  1.00  0.00    -0.273 OA
ATOM     16  HN  UNL     1     -13.081  46.175 -13.218  1.00  0.00     0.171 HD
BRANCH  14  17
HETATM   17  C   UNL     1     -10.948  46.740 -14.435  1.00  0.00     0.070 C 
HETATM   18  C   UNL     1      -9.873  46.865 -15.504  1.00  0.00     0.019 C 
HETATM   19  C   UNL     1     -10.342  46.330 -13.103  1.00  0.00     0.019 C 
ENDBRANCH  14  17
ENDBRANCH   9  13
ENDBRANCH   4   7
BRANCH   3  20
HETATM   20  C   UNL     1     -15.397  39.948 -15.337  1.00  0.00     0.100 A 
HETATM   21  C   UNL     1     -15.780  39.878 -16.673  1.00  0.00     0.064 A 
HETATM   22  C   UNL     1     -14.908  39.429 -17.649  1.00  0.00     0.026 A 
HETATM   23 CL   UNL     1     -17.340  40.430 -17.166  1.00  0.00    -0.082 Cl
HETATM   24  C   UNL     1     -13.625  39.052 -17.292  1.00  0.00     0.003 A 
HETATM   25  C   UNL     1     -13.216  39.122 -15.973  1.00  0.00     0.026 A 
HETATM   26  C   UNL     1     -14.106  39.571 -15.010  1.00  0.00     0.064 A 
HETATM   27 CL   UNL     1     -13.577  39.712 -13.376  1.00  0.00    -0.082 Cl
ENDBRANCH   3  20
BRANCH   1  28
HETATM   28  C   UNL     1     -19.222  39.537 -12.345  1.00  0.00     0.404 C 
HETATM   29  F   UNL     1     -18.954  38.263 -12.068  1.00  0.00    -0.207 F 
HETATM   30  F   UNL     1     -20.243  39.548 -13.182  1.00  0.00    -0.207 F 
ENDBRANCH   1  28
TORSDOF 5
ENDMDL
MODEL 6
REMARK VINA RESULT:    -7.431      4.782      6.450
REMARK INTER + INTRA:         -10.812
REMARK INTER:                  -9.709
REMARK INTRA:                  -1.103
REMARK UNBOUND:                -1.209
REMARK  5 active torsions:
REMARK  status: ('A' for Active; 'I' for Inactive)
REMARK    1  A    between atoms: C_6  and  C_7 
REMARK    2  A    between atoms: C_10  and  N_26 
REMARK       I    between atoms: C_11  and  N_26 
REMARK    3  A    between atoms: C_11  and  C_12 
REMARK    4  A    between atoms: N_13  and  C_16 
REMARK    5  A    between atoms: C_17  and  C_20 
ROOT
HETATM    1  C   UNL     1     -17.556  41.254 -13.567  1.00  0.00     0.092 A 
HETATM    2  C   UNL     1     -16.555  40.297 -13.832  1.00  0.00     0.065 A 
HETATM    3  N   UNL     1     -15.707  42.332 -13.728  1.00  0.00    -0.252 N 
HETATM    4  C   UNL     1     -15.366  41.024 -13.909  1.00  0.00     0.077 A 
HETATM    5  N   UNL     1     -17.067  42.499 -13.523  1.00  0.00    -0.292 N 
ATOM      6  HN  UNL     1     -17.577  43.370 -13.373  1.00  0.00     0.187 HD
ENDROOT
BRANCH   4   7
HETATM    7  C   UNL     1     -14.029  40.525 -14.171  1.00  0.00     0.052 A 
HETATM    8  S   UNL     1     -13.358  40.343 -15.764  1.00  0.00    -0.050 SA
HETATM    9  C   UNL     1     -11.856  39.863 -15.056  1.00  0.00     0.151 A 
HETATM   10  N   UNL     1     -11.832  39.831 -13.752  1.00  0.00    -0.345 N 
HETATM   11  C   UNL     1     -13.059  40.219 -13.259  1.00  0.00     0.111 A 
ATOM     12  HN  UNL     1     -11.028  39.560 -13.185  1.00  0.00     0.167 HD
BRANCH   9  13
HETATM   13  N   UNL     1     -10.731  39.555 -15.798  1.00  0.00    -0.307 N 
HETATM   14  C   UNL     1      -9.764  40.451 -16.137  1.00  0.00     0.227 C 
HETATM   15  O   UNL     1      -9.800  41.634 -15.803  1.00  0.00    -0.273 OA
ATOM     16  HN  UNL     1     -10.618  38.592 -16.113  1.00  0.00     0.171 HD
BRANCH  14  17
HETATM   17  C   UNL     1      -8.651  39.897 -16.996  1.00  0.00     0.070 C 
HETATM   18  C   UNL     1      -7.475  40.860 -16.982  1.00  0.00     0.019 C 
HETATM   19  C   UNL     1      -9.176  39.703 -18.408  1.00  0.00     0.019 C 
ENDBRANCH  14  17
ENDBRANCH   9  13
ENDBRANCH   4   7
BRANCH   3  20
HETATM   20  C   UNL     1     -14.877  43.507 -13.637  1.00  0.00     0.100 A 
HETATM   21  C   UNL     1     -14.368  44.123 -14.776  1.00  0.00     0.064 A 
HETATM   22  C   UNL     1     -13.567  45.248 -14.688  1.00  0.00     0.026 A 
HETATM   23 CL   UNL     1     -14.788  43.543 -16.346  1.00  0.00    -0.082 Cl
HETATM   24  C   UNL     1     -13.275  45.780 -13.444  1.00  0.00     0.003 A 
HETATM   25  C   UNL     1     -13.778  45.193 -12.297  1.00  0.00     0.026 A 
HETATM   26  C   UNL     1     -14.575  44.064 -12.407  1.00  0.00     0.064 A 
HETATM   27 CL   UNL     1     -15.247  43.368 -10.981  1.00  0.00    -0.082 Cl
ENDBRANCH   3  20
BRANCH   1  28
HETATM   28  C   UNL     1     -19.061  41.040 -13.243  1.00  0.00     0.404 C 
HETATM   29  F   UNL     1     -19.216  39.981 -12.453  1.00  0.00    -0.207 F 
HETATM   30  F   UNL     1     -19.740  40.801 -14.351  1.00  0.00    -0.207 F 
ENDBRANCH   1  28
TORSDOF 5
ENDMDL
MODEL 7
REMARK VINA RESULT:    -7.375      4.553      6.827
REMARK INTER + INTRA:         -10.740
REMARK INTER:                  -9.627
REMARK INTRA:                  -1.113
REMARK UNBOUND:                -1.209
REMARK  5 active torsions:
REMARK  status: ('A' for Active; 'I' for Inactive)
REMARK    1  A    between atoms: C_6  and  C_7 
REMARK    2  A    between atoms: C_10  and  N_26 
REMARK       I    between atoms: C_11  and  N_26 
REMARK    3  A    between atoms: C_11  and  C_12 
REMARK    4  A    between atoms: N_13  and  C_16 
REMARK    5  A    between atoms: C_17  and  C_20 
ROOT
HETATM    1  C   UNL     1     -10.643  44.768 -12.606  1.00  0.00     0.092 A 
HETATM    2  C   UNL     1     -12.053  44.791 -12.637  1.00  0.00     0.065 A 
HETATM    3  N   UNL     1     -11.241  43.452 -14.192  1.00  0.00    -0.252 N 
HETATM    4  C   UNL     1     -12.410  43.913 -13.661  1.00  0.00     0.077 A 
HETATM    5  N   UNL     1     -10.128  43.979 -13.557  1.00  0.00    -0.292 N 
ATOM      6  HN  UNL     1      -9.145  43.807 -13.765  1.00  0.00     0.187 HD
ENDROOT
BRANCH   4   7
HETATM    7  C   UNL     1     -13.742  43.569 -14.121  1.00  0.00     0.052 A 
HETATM    8  S   UNL     1     -14.917  42.737 -13.147  1.00  0.00    -0.050 SA
HETATM    9  C   UNL     1     -16.070  42.912 -14.423  1.00  0.00     0.151 A 
HETATM   10  N   UNL     1     -15.642  43.529 -15.489  1.00  0.00    -0.345 N 
HETATM   11  C   UNL     1     -14.331  43.909 -15.305  1.00  0.00     0.111 A 
ATOM     12  HN  UNL     1     -16.194  43.703 -16.330  1.00  0.00     0.167 HD
BRANCH   9  13
HETATM   13  N   UNL     1     -17.374  42.462 -14.334  1.00  0.00    -0.307 N 
HETATM   14  C   UNL     1     -17.923  41.527 -15.156  1.00  0.00     0.227 C 
HETATM   15  O   UNL     1     -17.298  40.983 -16.064  1.00  0.00    -0.273 OA
ATOM     16  HN  UNL     1     -17.965  42.857 -13.602  1.00  0.00     0.171 HD
BRANCH  14  17
HETATM   17  C   UNL     1     -19.383  41.228 -14.901  1.00  0.00     0.070 C 
HETATM   18  C   UNL     1     -20.100  42.511 -14.512  1.00  0.00     0.019 C 
HETATM   19  C   UNL     1     -19.483  40.194 -13.792  1.00  0.00     0.019 C 
ENDBRANCH  14  17
ENDBRANCH   9  13
ENDBRANCH   4   7
BRANCH   3  20
HETATM   20  C   UNL     1     -11.008  42.470 -15.222  1.00  0.00     0.100 A 
HETATM   21  C   UNL     1     -11.243  41.118 -14.999  1.00  0.00     0.064 A 
HETATM   22  C   UNL     1     -11.015  40.175 -15.985  1.00  0.00     0.026 A 
HETATM   23 CL   UNL     1     -11.909  40.582 -13.499  1.00  0.00    -0.082 Cl
HETATM   24  C   UNL     1     -10.552  40.585 -17.223  1.00  0.00     0.003 A 
HETATM   25  C   UNL     1     -10.320  41.925 -17.474  1.00  0.00     0.026 A 
HETATM   26  C   UNL     1     -10.552  42.853 -16.472  1.00  0.00     0.064 A 
HETATM   27 CL   UNL     1     -10.317  44.527 -16.804  1.00  0.00    -0.082 Cl
ENDBRANCH   3  20
BRANCH   1  28
HETATM   28  C   UNL     1      -9.671  45.437 -11.594  1.00  0.00     0.404 C 
HETATM   29  F   UNL     1      -8.427  45.012 -11.801  1.00  0.00    -0.207 F 
HETATM   30  F   UNL     1      -9.996  45.107 -10.357  1.00  0.00    -0.207 F 
ENDBRANCH   1  28
TORSDOF 5
ENDMDL
MODEL 8
REMARK VINA RESULT:    -7.311      4.536      6.724
REMARK INTER + INTRA:         -10.657
REMARK INTER:                  -9.585
REMARK INTRA:                  -1.072
REMARK UNBOUND:                -1.209
REMARK  5 active torsions:
REMARK  status: ('A' for Active; 'I' for Inactive)
REMARK    1  A    between atoms: C_6  and  C_7 
REMARK    2  A    between atoms: C_10  and  N_26 
REMARK       I    between atoms: C_11  and  N_26 
REMARK    3  A    between atoms: C_11  and  C_12 
REMARK    4  A    between atoms: N_13  and  C_16 
REMARK    5  A    between atoms: C_17  and  C_20 
ROOT
HETATM    1  C   UNL     1     -10.560  44.710 -12.736  1.00  0.00     0.092 A 
HETATM    2  C   UNL     1     -11.970  44.745 -12.754  1.00  0.00     0.065 A 
HETATM    3  N   UNL     1     -11.186  43.372 -14.294  1.00  0.00    -0.252 N 
HETATM    4  C   UNL     1     -12.345  43.852 -13.759  1.00  0.00     0.077 A 
HETATM    5  N   UNL     1     -10.062  43.900 -13.678  1.00  0.00    -0.292 N 
ATOM      6  HN  UNL     1      -9.082  43.714 -13.894  1.00  0.00     0.187 HD
ENDROOT
BRANCH   4   7
HETATM    7  C   UNL     1     -13.685  43.513 -14.199  1.00  0.00     0.052 A 
HETATM    8  S   UNL     1     -14.846  42.679 -13.211  1.00  0.00    -0.050 SA
HETATM    9  C   UNL     1     -16.019  42.861 -14.467  1.00  0.00     0.151 A 
HETATM   10  N   UNL     1     -15.606  43.482 -15.538  1.00  0.00    -0.345 N 
HETATM   11  C   UNL     1     -14.291  43.859 -15.373  1.00  0.00     0.111 A 
ATOM     12  HN  UNL     1     -16.170  43.661 -16.369  1.00  0.00     0.167 HD
BRANCH   9  13
HETATM   13  N   UNL     1     -17.322  42.413 -14.360  1.00  0.00    -0.307 N 
HETATM   14  C   UNL     1     -17.900  41.517 -15.206  1.00  0.00     0.227 C 
HETATM   15  O   UNL     1     -17.304  41.012 -16.155  1.00  0.00    -0.273 OA
ATOM     16  HN  UNL     1     -17.889  42.779 -13.595  1.00  0.00     0.171 HD
BRANCH  14  17
HETATM   17  C   UNL     1     -19.353  41.214 -14.921  1.00  0.00     0.070 C 
HETATM   18  C   UNL     1     -20.075  42.501 -14.556  1.00  0.00     0.019 C 
HETATM   19  C   UNL     1     -19.428  40.210 -13.783  1.00  0.00     0.019 C 
ENDBRANCH  14  17
ENDBRANCH   9  13
ENDBRANCH   4   7
BRANCH   3  20
HETATM   20  C   UNL     1     -10.972  42.369 -15.308  1.00  0.00     0.100 A 
HETATM   21  C   UNL     1     -10.485  42.705 -16.566  1.00  0.00     0.064 A 
HETATM   22  C   UNL     1     -10.285  41.745 -17.541  1.00  0.00     0.026 A 
HETATM   23 CL   UNL     1     -10.038  44.334 -16.925  1.00  0.00    -0.082 Cl
HETATM   24  C   UNL     1     -10.564  40.419 -17.256  1.00  0.00     0.003 A 
HETATM   25  C   UNL     1     -11.039  40.057 -16.008  1.00  0.00     0.026 A 
HETATM   26  C   UNL     1     -11.236  41.036 -15.047  1.00  0.00     0.064 A 
HETATM   27 CL   UNL     1     -11.773  40.575 -13.476  1.00  0.00    -0.082 Cl
ENDBRANCH   3  20
BRANCH   1  28
HETATM   28  C   UNL     1      -9.571  45.388 -11.747  1.00  0.00     0.404 C 
HETATM   29  F   UNL     1      -8.329  44.971 -11.979  1.00  0.00    -0.207 F 
HETATM   30  F   UNL     1      -9.868  45.057 -10.503  1.00  0.00    -0.207 F 
ENDBRANCH   1  28
TORSDOF 5
ENDMDL
MODEL 9
REMARK VINA RESULT:    -7.308      4.426      6.105
REMARK INTER + INTRA:         -10.653
REMARK INTER:                  -9.332
REMARK INTRA:                  -1.322
REMARK UNBOUND:                -1.209
REMARK  5 active torsions:
REMARK  status: ('A' for Active; 'I' for Inactive)
REMARK    1  A    between atoms: C_6  and  C_7 
REMARK    2  A    between atoms: C_10  and  N_26 
REMARK       I    between atoms: C_11  and  N_26 
REMARK    3  A    between atoms: C_11  and  C_12 
REMARK    4  A    between atoms: N_13  and  C_16 
REMARK    5  A    between atoms: C_17  and  C_20 
ROOT
HETATM    1  C   UNL     1     -18.070  41.599 -14.274  1.00  0.00     0.092 A 
HETATM    2  C   UNL     1     -17.179  40.560 -14.613  1.00  0.00     0.065 A 
HETATM    3  N   UNL     1     -16.095  42.437 -14.195  1.00  0.00    -0.252 N 
HETATM    4  C   UNL     1     -15.907  41.128 -14.531  1.00  0.00     0.077 A 
HETATM    5  N   UNL     1     -17.435  42.754 -14.039  1.00  0.00    -0.292 N 
ATOM      6  HN  UNL     1     -17.843  43.658 -13.801  1.00  0.00     0.187 HD
ENDROOT
BRANCH   4   7
HETATM    7  C   UNL     1     -14.627  40.495 -14.788  1.00  0.00     0.052 A 
HETATM    8  S   UNL     1     -13.983  40.224 -16.379  1.00  0.00    -0.050 SA
HETATM    9  C   UNL     1     -12.534  39.608 -15.666  1.00  0.00     0.151 A 
HETATM   10  N   UNL     1     -12.509  39.593 -14.363  1.00  0.00    -0.345 N 
HETATM   11  C   UNL     1     -13.689  40.108 -13.873  1.00  0.00     0.111 A 
ATOM     12  HN  UNL     1     -11.734  39.251 -13.793  1.00  0.00     0.167 HD
BRANCH   9  13
HETATM   13  N   UNL     1     -11.447  39.179 -16.406  1.00  0.00    -0.307 N 
HETATM   14  C   UNL     1     -10.260  39.839 -16.483  1.00  0.00     0.227 C 
HETATM   15  O   UNL     1     -10.039  40.892 -15.887  1.00  0.00    -0.273 OA
ATOM     16  HN  UNL     1     -11.542  38.309 -16.930  1.00  0.00     0.171 HD
BRANCH  14  17
HETATM   17  C   UNL     1      -9.234  39.206 -17.394  1.00  0.00     0.070 C 
HETATM   18  C   UNL     1      -8.199  40.247 -17.789  1.00  0.00     0.019 C 
HETATM   19  C   UNL     1      -9.943  38.655 -18.619  1.00  0.00     0.019 C 
ENDBRANCH  14  17
ENDBRANCH   9  13
ENDBRANCH   4   7
BRANCH   3  20
HETATM   20  C   UNL     1     -15.135  43.473 -13.906  1.00  0.00     0.100 A 
HETATM   21  C   UNL     1     -14.772  43.779 -12.599  1.00  0.00     0.064 A 
HETATM   22  C   UNL     1     -13.855  44.776 -12.321  1.00  0.00     0.026 A 
HETATM   23 CL   UNL     1     -15.401  42.861 -11.278  1.00  0.00    -0.082 Cl
HETATM   24  C   UNL     1     -13.277  45.478 -13.365  1.00  0.00     0.003 A 
HETATM   25  C   UNL     1     -13.613  45.185 -14.675  1.00  0.00     0.026 A 
HETATM   26  C   UNL     1     -14.537  44.185 -14.931  1.00  0.00     0.064 A 
HETATM   27 CL   UNL     1     -14.911  43.784 -16.564  1.00  0.00    -0.082 Cl
ENDBRANCH   3  20
BRANCH   1  28
HETATM   28  C   UNL     1     -19.609  41.545 -14.060  1.00  0.00     0.404 C 
HETATM   29  F   UNL     1     -20.107  40.428 -14.583  1.00  0.00    -0.207 F 
HETATM   30  F   UNL     1     -20.194  42.558 -14.675  1.00  0.00    -0.207 F 
ENDBRANCH   1  28
TORSDOF 5
ENDMDL
MODEL 10
REMARK VINA RESULT:    -7.190      4.402      7.954
REMARK INTER + INTRA:         -10.500
REMARK INTER:                  -9.225
REMARK INTRA:                  -1.276
REMARK UNBOUND:                -1.209
REMARK  5 active torsions:
REMARK  status: ('A' for Active; 'I' for Inactive)
REMARK    1  A    between atoms: C_6  and  C_7 
REMARK    2  A    between atoms: C_10  and  N_26 
REMARK       I    between atoms: C_11  and  N_26 
REMARK    3  A    between atoms: C_11  and  C_12 
REMARK    4  A    between atoms: N_13  and  C_16 
REMARK    5  A    between atoms: C_17  and  C_20 
ROOT
HETATM    1  C   UNL     1     -18.154  41.091 -14.332  1.00  0.00     0.092 A 
HETATM    2  C   UNL     1     -17.578  42.326 -13.968  1.00  0.00     0.065 A 
HETATM    3  N   UNL     1     -16.094  41.002 -14.926  1.00  0.00    -0.252 N 
HETATM    4  C   UNL     1     -16.249  42.245 -14.386  1.00  0.00     0.077 A 
HETATM    5  N   UNL     1     -17.265  40.263 -14.894  1.00  0.00    -0.292 N 
ATOM      6  HN  UNL     1     -17.415  39.309 -15.223  1.00  0.00     0.187 HD
ENDROOT
BRANCH   4   7
HETATM    7  C   UNL     1     -15.206  43.245 -14.249  1.00  0.00     0.052 A 
HETATM    8  S   UNL     1     -14.419  43.625 -12.747  1.00  0.00    -0.050 SA
HETATM    9  C   UNL     1     -13.378  44.717 -13.590  1.00  0.00     0.151 A 
HETATM   10  N   UNL     1     -13.580  44.810 -14.875  1.00  0.00    -0.345 N 
HETATM   11  C   UNL     1     -14.606  43.966 -15.242  1.00  0.00     0.111 A 
ATOM     12  HN  UNL     1     -13.060  45.416 -15.510  1.00  0.00     0.167 HD
BRANCH   9  13
HETATM   13  N   UNL     1     -12.371  45.435 -12.971  1.00  0.00    -0.307 N 
HETATM   14  C   UNL     1     -11.042  45.212 -13.157  1.00  0.00     0.227 C 
HETATM   15  O   UNL     1     -10.607  44.341 -13.908  1.00  0.00    -0.273 OA
ATOM     16  HN  UNL     1     -12.644  46.183 -12.333  1.00  0.00     0.171 HD
BRANCH  14  17
HETATM   17  C   UNL     1     -10.126  46.089 -12.336  1.00  0.00     0.070 C 
HETATM   18  C   UNL     1      -9.576  47.204 -13.212  1.00  0.00     0.019 C 
HETATM   19  C   UNL     1      -9.001  45.234 -11.779  1.00  0.00     0.019 C 
ENDBRANCH  14  17
ENDBRANCH   9  13
ENDBRANCH   4   7
BRANCH   3  20
HETATM   20  C   UNL     1     -14.955  40.404 -15.577  1.00  0.00     0.100 A 
HETATM   21  C   UNL     1     -14.835  40.394 -16.962  1.00  0.00     0.064 A 
HETATM   22  C   UNL     1     -13.745  39.816 -17.587  1.00  0.00     0.026 A 
HETATM   23 CL   UNL     1     -16.014  41.182 -17.948  1.00  0.00    -0.082 Cl
HETATM   24  C   UNL     1     -12.746  39.243 -16.818  1.00  0.00     0.003 A 
HETATM   25  C   UNL     1     -12.836  39.249 -15.438  1.00  0.00     0.026 A 
HETATM   26  C   UNL     1     -13.938  39.831 -14.832  1.00  0.00     0.064 A 
HETATM   27 CL   UNL     1     -14.020  39.888 -13.112  1.00  0.00    -0.082 Cl
ENDBRANCH   3  20
BRANCH   1  28
HETATM   28  C   UNL     1     -19.638  40.636 -14.250  1.00  0.00     0.404 C 
HETATM   29  F   UNL     1     -20.447  41.644 -14.566  1.00  0.00    -0.207 F 
HETATM   30  F   UNL     1     -19.938  40.268 -13.017  1.00  0.00    -0.207 F 
ENDBRANCH   1  28
TORSDOF 5
ENDMDL
MODEL 11
REMARK VINA RESULT:    -7.142      5.250      9.031
REMARK INTER + INTRA:         -10.439
REMARK INTER:                  -9.516
REMARK INTRA:                  -0.923
REMARK UNBOUND:                -1.209
REMARK  5 active torsions:
REMARK  status: ('A' for Active; 'I' for Inactive)
REMARK    1  A    between atoms: C_6  and  C_7 
REMARK    2  A    between atoms: C_10  and  N_26 
REMARK       I    between atoms: C_11  and  N_26 
REMARK    3  A    between atoms: C_11  and  C_12 
REMARK    4  A    between atoms: N_13  and  C_16 
REMARK    5  A    between atoms: C_17  and  C_20 
ROOT
HETATM    1  C   UNL     1     -17.005  42.443 -13.474  1.00  0.00     0.092 A 
HETATM    2  C   UNL     1     -16.327  43.529 -12.883  1.00  0.00     0.065 A 
HETATM    3  N   UNL     1     -14.961  42.308 -14.114  1.00  0.00    -0.252 N 
HETATM    4  C   UNL     1     -15.010  43.426 -13.334  1.00  0.00     0.077 A 
HETATM    5  N   UNL     1     -16.190  41.675 -14.207  1.00  0.00    -0.292 N 
ATOM      6  HN  UNL     1     -16.420  40.822 -14.716  1.00  0.00     0.187 HD
ENDROOT
BRANCH   4   7
HETATM    7  C   UNL     1     -13.888  44.291 -13.022  1.00  0.00     0.052 A 
HETATM    8  S   UNL     1     -12.665  44.743 -14.171  1.00  0.00    -0.050 SA
HETATM    9  C   UNL     1     -11.950  45.769 -12.978  1.00  0.00     0.151 A 
HETATM   10  N   UNL     1     -12.548  45.789 -11.820  1.00  0.00    -0.345 N 
HETATM   11  C   UNL     1     -13.650  44.962 -11.856  1.00  0.00     0.111 A 
ATOM     12  HN  UNL     1     -12.246  46.332 -11.010  1.00  0.00     0.167 HD
BRANCH   9  13
HETATM   13  N   UNL     1     -10.835  46.550 -13.219  1.00  0.00    -0.307 N 
HETATM   14  C   UNL     1      -9.604  46.319 -12.686  1.00  0.00     0.227 C 
HETATM   15  O   UNL     1      -9.366  45.376 -11.934  1.00  0.00    -0.273 OA
ATOM     16  HN  UNL     1     -10.941  47.354 -13.838  1.00  0.00     0.171 HD
BRANCH  14  17
HETATM   17  C   UNL     1      -8.547  47.335 -13.052  1.00  0.00     0.070 C 
HETATM   18  C   UNL     1      -8.427  48.362 -11.937  1.00  0.00     0.019 C 
HETATM   19  C   UNL     1      -8.942  48.000 -14.360  1.00  0.00     0.019 C 
ENDBRANCH  14  17
ENDBRANCH   9  13
ENDBRANCH   4   7
BRANCH   3  20
HETATM   20  C   UNL     1     -13.878  41.762 -14.893  1.00  0.00     0.100 A 
HETATM   21  C   UNL     1     -12.950  40.891 -14.332  1.00  0.00     0.064 A 
HETATM   22  C   UNL     1     -11.908  40.371 -15.078  1.00  0.00     0.026 A 
HETATM   23 CL   UNL     1     -13.120  40.368 -12.696  1.00  0.00    -0.082 Cl
HETATM   24  C   UNL     1     -11.791  40.714 -16.414  1.00  0.00     0.003 A 
HETATM   25  C   UNL     1     -12.707  41.570 -16.999  1.00  0.00     0.026 A 
HETATM   26  C   UNL     1     -13.741  42.083 -16.233  1.00  0.00     0.064 A 
HETATM   27 CL   UNL     1     -14.914  43.102 -16.978  1.00  0.00    -0.082 Cl
ENDBRANCH   3  20
BRANCH   1  28
HETATM   28  C   UNL     1     -18.522  42.103 -13.454  1.00  0.00     0.404 C 
HETATM   29  F   UNL     1     -18.700  40.806 -13.217  1.00  0.00    -0.207 F 
HETATM   30  F   UNL     1     -19.066  42.363 -14.630  1.00  0.00    -0.207 F 
ENDBRANCH   1  28
TORSDOF 5
ENDMDL
MODEL 12
REMARK VINA RESULT:    -7.093      3.348      4.977
REMARK INTER + INTRA:         -10.375
REMARK INTER:                  -9.075
REMARK INTRA:                  -1.300
REMARK UNBOUND:                -1.209
REMARK  5 active torsions:
REMARK  status: ('A' for Active; 'I' for Inactive)
REMARK    1  A    between atoms: C_6  and  C_7 
REMARK    2  A    between atoms: C_10  and  N_26 
REMARK       I    between atoms: C_11  and  N_26 
REMARK    3  A    between atoms: C_11  and  C_12 
REMARK    4  A    between atoms: N_13  and  C_16 
REMARK    5  A    between atoms: C_17  and  C_20 
ROOT
HETATM    1  C   UNL     1     -18.281  41.262 -15.080  1.00  0.00     0.092 A 
HETATM    2  C   UNL     1     -17.665  40.386 -15.998  1.00  0.00     0.065 A 
HETATM    3  N   UNL     1     -16.198  41.778 -15.113  1.00  0.00    -0.252 N 
HETATM    4  C   UNL     1     -16.313  40.732 -15.980  1.00  0.00     0.077 A 
HETATM    5  N   UNL     1     -17.413  42.131 -14.548  1.00  0.00    -0.292 N 
ATOM      6  HN  UNL     1     -17.602  42.879 -13.881  1.00  0.00     0.187 HD
ENDROOT
BRANCH   4   7
HETATM    7  C   UNL     1     -15.231  40.146 -16.749  1.00  0.00     0.052 A 
HETATM    8  S   UNL     1     -14.007  39.116 -16.068  1.00  0.00    -0.050 SA
HETATM    9  C   UNL     1     -13.353  38.879 -17.650  1.00  0.00     0.151 A 
HETATM   10  N   UNL     1     -13.971  39.502 -18.615  1.00  0.00    -0.345 N 
HETATM   11  C   UNL     1     -15.039  40.204 -18.100  1.00  0.00     0.111 A 
ATOM     12  HN  UNL     1     -13.705  39.473 -19.599  1.00  0.00     0.167 HD
BRANCH   9  13
HETATM   13  N   UNL     1     -12.265  38.066 -17.907  1.00  0.00    -0.307 N 
HETATM   14  C   UNL     1     -12.344  36.832 -18.476  1.00  0.00     0.227 C 
HETATM   15  O   UNL     1     -13.407  36.322 -18.824  1.00  0.00    -0.273 OA
ATOM     16  HN  UNL     1     -11.340  38.414 -17.653  1.00  0.00     0.171 HD
BRANCH  14  17
HETATM   17  C   UNL     1     -11.026  36.106 -18.613  1.00  0.00     0.070 C 
HETATM   18  C   UNL     1     -11.195  34.664 -18.163  1.00  0.00     0.019 C 
HETATM   19  C   UNL     1      -9.985  36.819 -17.768  1.00  0.00     0.019 C 
ENDBRANCH  14  17
ENDBRANCH   9  13
ENDBRANCH   4   7
BRANCH   3  20
HETATM   20  C   UNL     1     -15.028  42.484 -14.653  1.00  0.00     0.100 A 
HETATM   21  C   UNL     1     -14.288  42.028 -13.568  1.00  0.00     0.064 A 
HETATM   22  C   UNL     1     -13.168  42.708 -13.124  1.00  0.00     0.026 A 
HETATM   23 CL   UNL     1     -14.701  40.545 -12.788  1.00  0.00    -0.082 Cl
HETATM   24  C   UNL     1     -12.769  43.861 -13.778  1.00  0.00     0.003 A 
HETATM   25  C   UNL     1     -13.482  44.330 -14.867  1.00  0.00     0.026 A 
HETATM   26  C   UNL     1     -14.602  43.635 -15.294  1.00  0.00     0.064 A 
HETATM   27 CL   UNL     1     -15.456  44.188 -16.685  1.00  0.00    -0.082 Cl
ENDBRANCH   3  20
BRANCH   1  28
HETATM   28  C   UNL     1     -19.749  41.277 -14.568  1.00  0.00     0.404 C 
HETATM   29  F   UNL     1     -20.187  42.529 -14.463  1.00  0.00    -0.207 F 
HETATM   30  F   UNL     1     -19.822  40.735 -13.366  1.00  0.00    -0.207 F 
ENDBRANCH   1  28
TORSDOF 5
ENDMDL
MODEL 13
REMARK VINA RESULT:    -6.987      3.171      4.480
REMARK INTER + INTRA:         -10.239
REMARK INTER:                  -9.042
REMARK INTRA:                  -1.197
REMARK UNBOUND:                -1.209
REMARK  5 active torsions:
REMARK  status: ('A' for Active; 'I' for Inactive)
REMARK    1  A    between atoms: C_6  and  C_7 
REMARK    2  A    between atoms: C_10  and  N_26 
REMARK       I    between atoms: C_11  and  N_26 
REMARK    3  A    between atoms: C_11  and  C_12 
REMARK    4  A    between atoms: N_13  and  C_16 
REMARK    5  A    between atoms: C_17  and  C_20 
ROOT
HETATM    1  C   UNL     1     -18.313  41.339 -15.133  1.00  0.00     0.092 A 
HETATM    2  C   UNL     1     -17.814  40.497 -16.149  1.00  0.00     0.065 A 
HETATM    3  N   UNL     1     -16.188  41.641 -15.189  1.00  0.00    -0.252 N 
HETATM    4  C   UNL     1     -16.433  40.700 -16.146  1.00  0.00     0.077 A 
HETATM    5  N   UNL     1     -17.346  42.060 -14.552  1.00  0.00    -0.292 N 
ATOM      6  HN  UNL     1     -17.439  42.756 -13.813  1.00  0.00     0.187 HD
ENDROOT
BRANCH   4   7
HETATM    7  C   UNL     1     -15.437  40.083 -17.001  1.00  0.00     0.052 A 
HETATM    8  S   UNL     1     -14.214  38.988 -16.430  1.00  0.00    -0.050 SA
HETATM    9  C   UNL     1     -13.689  38.755 -18.060  1.00  0.00     0.151 A 
HETATM   10  N   UNL     1     -14.347  39.423 -18.966  1.00  0.00    -0.345 N 
HETATM   11  C   UNL     1     -15.342  40.161 -18.362  1.00  0.00     0.111 A 
ATOM     12  HN  UNL     1     -14.154  39.403 -19.968  1.00  0.00     0.167 HD
BRANCH   9  13
HETATM   13  N   UNL     1     -12.660  37.901 -18.410  1.00  0.00    -0.307 N 
HETATM   14  C   UNL     1     -12.837  36.655 -18.929  1.00  0.00     0.227 C 
HETATM   15  O   UNL     1     -13.946  36.170 -19.142  1.00  0.00    -0.273 OA
ATOM     16  HN  UNL     1     -11.703  38.226 -18.271  1.00  0.00     0.171 HD
BRANCH  14  17
HETATM   17  C   UNL     1     -11.563  35.884 -19.189  1.00  0.00     0.070 C 
HETATM   18  C   UNL     1     -11.903  34.555 -19.846  1.00  0.00     0.019 C 
HETATM   19  C   UNL     1     -10.846  35.667 -17.867  1.00  0.00     0.019 C 
ENDBRANCH  14  17
ENDBRANCH   9  13
ENDBRANCH   4   7
BRANCH   3  20
HETATM   20  C   UNL     1     -14.940  42.176 -14.705  1.00  0.00     0.100 A 
HETATM   21  C   UNL     1     -14.410  43.354 -15.221  1.00  0.00     0.064 A 
HETATM   22  C   UNL     1     -13.210  43.866 -14.761  1.00  0.00     0.026 A 
HETATM   23 CL   UNL     1     -15.282  44.262 -16.403  1.00  0.00    -0.082 Cl
HETATM   24  C   UNL     1     -12.526  43.198 -13.759  1.00  0.00     0.003 A 
HETATM   25  C   UNL     1     -13.037  42.030 -13.222  1.00  0.00     0.026 A 
HETATM   26  C   UNL     1     -14.239  41.533 -13.700  1.00  0.00     0.064 A 
HETATM   27 CL   UNL     1     -14.902  40.110 -12.990  1.00  0.00    -0.082 Cl
ENDBRANCH   3  20
BRANCH   1  28
HETATM   28  C   UNL     1     -19.758  41.454 -14.572  1.00  0.00     0.404 C 
HETATM   29  F   UNL     1     -20.153  42.724 -14.575  1.00  0.00    -0.207 F 
HETATM   30  F   UNL     1     -19.800  41.034 -13.321  1.00  0.00    -0.207 F 
ENDBRANCH   1  28
TORSDOF 5
ENDMDL
MODEL 14
REMARK VINA RESULT:    -6.939      3.903      4.886
REMARK INTER + INTRA:         -10.177
REMARK INTER:                  -9.004
REMARK INTRA:                  -1.173
REMARK UNBOUND:                -1.209
REMARK  5 active torsions:
REMARK  status: ('A' for Active; 'I' for Inactive)
REMARK    1  A    between atoms: C_6  and  C_7 
REMARK    2  A    between atoms: C_10  and  N_26 
REMARK       I    between atoms: C_11  and  N_26 
REMARK    3  A    between atoms: C_11  and  C_12 
REMARK    4  A    between atoms: N_13  and  C_16 
REMARK    5  A    between atoms: C_17  and  C_20 
ROOT
HETATM    1  C   UNL     1     -14.099  44.154 -12.716  1.00  0.00     0.092 A 
HETATM    2  C   UNL     1     -12.846  43.719 -13.196  1.00  0.00     0.065 A 
HETATM    3  N   UNL     1     -14.488  42.516 -14.047  1.00  0.00    -0.252 N 
HETATM    4  C   UNL     1     -13.134  42.672 -14.072  1.00  0.00     0.077 A 
HETATM    5  N   UNL     1     -15.109  43.422 -13.202  1.00  0.00    -0.292 N 
ATOM      6  HN  UNL     1     -16.104  43.511 -12.998  1.00  0.00     0.187 HD
ENDROOT
BRANCH   4   7
HETATM    7  C   UNL     1     -12.202  41.864 -14.836  1.00  0.00     0.052 A 
HETATM    8  S   UNL     1     -11.889  40.185 -14.518  1.00  0.00    -0.050 SA
HETATM    9  C   UNL     1     -10.855  40.134 -15.902  1.00  0.00     0.151 A 
HETATM   10  N   UNL     1     -10.735  41.255 -16.557  1.00  0.00    -0.345 N 
HETATM   11  C   UNL     1     -11.510  42.224 -15.958  1.00  0.00     0.111 A 
ATOM     12  HN  UNL     1     -10.157  41.393 -17.386  1.00  0.00     0.167 HD
BRANCH   9  13
HETATM   13  N   UNL     1     -10.208  38.988 -16.324  1.00  0.00    -0.307 N 
HETATM   14  C   UNL     1     -10.471  38.341 -17.492  1.00  0.00     0.227 C 
HETATM   15  O   UNL     1     -11.319  38.727 -18.294  1.00  0.00    -0.273 OA
ATOM     16  HN  UNL     1      -9.484  38.600 -15.719  1.00  0.00     0.171 HD
BRANCH  14  17
HETATM   17  C   UNL     1      -9.672  37.079 -17.719  1.00  0.00     0.070 C 
HETATM   18  C   UNL     1      -8.755  37.271 -18.916  1.00  0.00     0.019 C 
HETATM   19  C   UNL     1     -10.634  35.927 -17.953  1.00  0.00     0.019 C 
ENDBRANCH  14  17
ENDBRANCH   9  13
ENDBRANCH   4   7
BRANCH   3  20
HETATM   20  C   UNL     1     -15.340  41.636 -14.809  1.00  0.00     0.100 A 
HETATM   21  C   UNL     1     -15.969  40.547 -14.217  1.00  0.00     0.064 A 
HETATM   22  C   UNL     1     -16.782  39.700 -14.949  1.00  0.00     0.026 A 
HETATM   23 CL   UNL     1     -15.816  40.264 -12.521  1.00  0.00    -0.082 Cl
HETATM   24  C   UNL     1     -16.983  39.946 -16.296  1.00  0.00     0.003 A 
HETATM   25  C   UNL     1     -16.378  41.030 -16.906  1.00  0.00     0.026 A 
HETATM   26  C   UNL     1     -15.564  41.864 -16.156  1.00  0.00     0.064 A 
HETATM   27 CL   UNL     1     -14.857  43.245 -16.905  1.00  0.00    -0.082 Cl
ENDBRANCH   3  20
BRANCH   1  28
HETATM   28  C   UNL     1     -14.437  45.374 -11.814  1.00  0.00     0.404 C 
HETATM   29  F   UNL     1     -13.342  46.093 -11.582  1.00  0.00    -0.207 F 
HETATM   30  F   UNL     1     -14.892  44.967 -10.643  1.00  0.00    -0.207 F 
ENDBRANCH   1  28
TORSDOF 5
ENDMDL
MODEL 15
REMARK VINA RESULT:    -6.918      3.664      4.258
REMARK INTER + INTRA:         -10.149
REMARK INTER:                  -8.847
REMARK INTRA:                  -1.303
REMARK UNBOUND:                -1.209
REMARK  5 active torsions:
REMARK  status: ('A' for Active; 'I' for Inactive)
REMARK    1  A    between atoms: C_6  and  C_7 
REMARK    2  A    between atoms: C_10  and  N_26 
REMARK       I    between atoms: C_11  and  N_26 
REMARK    3  A    between atoms: C_11  and  C_12 
REMARK    4  A    between atoms: N_13  and  C_16 
REMARK    5  A    between atoms: C_17  and  C_20 
ROOT
HETATM    1  C   UNL     1     -12.305  44.234 -12.985  1.00  0.00     0.092 A 
HETATM    2  C   UNL     1     -11.527  43.631 -13.995  1.00  0.00     0.065 A 
HETATM    3  N   UNL     1     -13.555  42.762 -13.923  1.00  0.00    -0.252 N 
HETATM    4  C   UNL     1     -12.371  42.698 -14.598  1.00  0.00     0.077 A 
HETATM    5  N   UNL     1     -13.532  43.705 -12.908  1.00  0.00    -0.292 N 
ATOM      6  HN  UNL     1     -14.278  43.942 -12.253  1.00  0.00     0.187 HD
ENDROOT
BRANCH   4   7
HETATM    7  C   UNL     1     -12.070  41.796 -15.694  1.00  0.00     0.052 A 
HETATM    8  S   UNL     1     -11.072  40.382 -15.538  1.00  0.00    -0.050 SA
HETATM    9  C   UNL     1     -11.411  39.984 -17.185  1.00  0.00     0.151 A 
HETATM   10  N   UNL     1     -12.192  40.815 -17.817  1.00  0.00    -0.345 N 
HETATM   11  C   UNL     1     -12.571  41.829 -16.964  1.00  0.00     0.111 A 
ATOM     12  HN  UNL     1     -12.478  40.728 -18.792  1.00  0.00     0.167 HD
BRANCH   9  13
HETATM   13  N   UNL     1     -10.921  38.851 -17.808  1.00  0.00    -0.307 N 
HETATM   14  C   UNL     1     -11.665  37.747 -18.091  1.00  0.00     0.227 C 
HETATM   15  O   UNL     1     -12.860  37.657 -17.819  1.00  0.00    -0.273 OA
ATOM     16  HN  UNL     1      -9.937  38.841 -18.074  1.00  0.00     0.171 HD
BRANCH  14  17
HETATM   17  C   UNL     1     -10.903  36.609 -18.731  1.00  0.00     0.070 C 
HETATM   18  C   UNL     1     -11.423  35.287 -18.192  1.00  0.00     0.019 C 
HETATM   19  C   UNL     1      -9.425  36.777 -18.422  1.00  0.00     0.019 C 
ENDBRANCH  14  17
ENDBRANCH   9  13
ENDBRANCH   4   7
BRANCH   3  20
HETATM   20  C   UNL     1     -14.802  42.079 -14.159  1.00  0.00     0.100 A 
HETATM   21  C   UNL     1     -15.829  42.676 -14.882  1.00  0.00     0.064 A 
HETATM   22  C   UNL     1     -17.027  42.022 -15.105  1.00  0.00     0.026 A 
HETATM   23 CL   UNL     1     -15.606  44.232 -15.596  1.00  0.00    -0.082 Cl
HETATM   24  C   UNL     1     -17.206  40.743 -14.608  1.00  0.00     0.003 A 
HETATM   25  C   UNL     1     -16.196  40.122 -13.895  1.00  0.00     0.026 A 
HETATM   26  C   UNL     1     -15.005  40.796 -13.680  1.00  0.00     0.064 A 
HETATM   27 CL   UNL     1     -13.727  40.000 -12.841  1.00  0.00    -0.082 Cl
ENDBRANCH   3  20
BRANCH   1  28
HETATM   28  C   UNL     1     -11.959  45.437 -12.063  1.00  0.00     0.404 C 
HETATM   29  F   UNL     1     -10.991  45.104 -11.215  1.00  0.00    -0.207 F 
HETATM   30  F   UNL     1     -13.011  45.779 -11.341  1.00  0.00    -0.207 F 
ENDBRANCH   1  28
TORSDOF 5
ENDMDL
MODEL 16
REMARK VINA RESULT:    -6.877      2.459      2.873
REMARK INTER + INTRA:         -10.097
REMARK INTER:                  -8.742
REMARK INTRA:                  -1.355
REMARK UNBOUND:                -1.209
REMARK  5 active torsions:
REMARK  status: ('A' for Active; 'I' for Inactive)
REMARK    1  A    between atoms: C_6  and  C_7 
REMARK    2  A    between atoms: C_10  and  N_26 
REMARK       I    between atoms: C_11  and  N_26 
REMARK    3  A    between atoms: C_11  and  C_12 
REMARK    4  A    between atoms: N_13  and  C_16 
REMARK    5  A    between atoms: C_17  and  C_20 
ROOT
HETATM    1  C   UNL     1     -11.242  42.781 -14.970  1.00  0.00     0.092 A 
HETATM    2  C   UNL     1     -11.451  41.938 -16.081  1.00  0.00     0.065 A 
HETATM    3  N   UNL     1     -13.230  41.996 -14.775  1.00  0.00    -0.252 N 
HETATM    4  C   UNL     1     -12.755  41.462 -15.937  1.00  0.00     0.077 A 
HETATM    5  N   UNL     1     -12.301  42.813 -14.151  1.00  0.00    -0.292 N 
ATOM      6  HN  UNL     1     -12.400  43.320 -13.272  1.00  0.00     0.187 HD
ENDROOT
BRANCH   4   7
HETATM    7  C   UNL     1     -13.475  40.549 -16.805  1.00  0.00     0.052 A 
HETATM    8  S   UNL     1     -13.289  38.822 -16.762  1.00  0.00    -0.050 SA
HETATM    9  C   UNL     1     -14.532  38.677 -17.955  1.00  0.00     0.151 A 
HETATM   10  N   UNL     1     -15.052  39.800 -18.366  1.00  0.00    -0.345 N 
HETATM   11  C   UNL     1     -14.459  40.852 -17.702  1.00  0.00     0.111 A 
ATOM     12  HN  UNL     1     -15.784  39.886 -19.071  1.00  0.00     0.167 HD
BRANCH   9  13
HETATM   13  N   UNL     1     -14.982  37.463 -18.437  1.00  0.00    -0.307 N 
HETATM   14  C   UNL     1     -16.285  37.069 -18.434  1.00  0.00     0.227 C 
HETATM   15  O   UNL     1     -17.196  37.772 -18.000  1.00  0.00    -0.273 OA
ATOM     16  HN  UNL     1     -14.292  36.817 -18.822  1.00  0.00     0.171 HD
BRANCH  14  17
HETATM   17  C   UNL     1     -16.534  35.677 -18.968  1.00  0.00     0.070 C 
HETATM   18  C   UNL     1     -16.683  35.736 -20.480  1.00  0.00     0.019 C 
HETATM   19  C   UNL     1     -17.793  35.125 -18.321  1.00  0.00     0.019 C 
ENDBRANCH  14  17
ENDBRANCH   9  13
ENDBRANCH   4   7
BRANCH   3  20
HETATM   20  C   UNL     1     -14.536  41.904 -14.171  1.00  0.00     0.100 A 
HETATM   21  C   UNL     1     -15.510  42.870 -14.403  1.00  0.00     0.064 A 
HETATM   22  C   UNL     1     -16.761  42.784 -13.820  1.00  0.00     0.026 A 
HETATM   23 CL   UNL     1     -15.208  44.171 -15.496  1.00  0.00    -0.082 Cl
HETATM   24  C   UNL     1     -17.056  41.711 -12.997  1.00  0.00     0.003 A 
HETATM   25  C   UNL     1     -16.109  40.731 -12.760  1.00  0.00     0.026 A 
HETATM   26  C   UNL     1     -14.860  40.837 -13.351  1.00  0.00     0.064 A 
HETATM   27 CL   UNL     1     -13.702  39.587 -13.100  1.00  0.00    -0.082 Cl
ENDBRANCH   3  20
BRANCH   1  28
HETATM   28  C   UNL     1     -10.031  43.702 -14.648  1.00  0.00     0.404 C 
HETATM   29  F   UNL     1     -10.186  44.265 -13.453  1.00  0.00    -0.207 F 
HETATM   30  F   UNL     1      -9.951  44.679 -15.533  1.00  0.00    -0.207 F 
ENDBRANCH   1  28
TORSDOF 5
ENDMDL
MODEL 17
REMARK VINA RESULT:    -6.851      4.450      5.326
REMARK INTER + INTRA:         -10.063
REMARK INTER:                  -8.900
REMARK INTRA:                  -1.163
REMARK UNBOUND:                -1.209
REMARK  5 active torsions:
REMARK  status: ('A' for Active; 'I' for Inactive)
REMARK    1  A    between atoms: C_6  and  C_7 
REMARK    2  A    between atoms: C_10  and  N_26 
REMARK       I    between atoms: C_11  and  N_26 
REMARK    3  A    between atoms: C_11  and  C_12 
REMARK    4  A    between atoms: N_13  and  C_16 
REMARK    5  A    between atoms: C_17  and  C_20 
ROOT
HETATM    1  C   UNL     1     -13.843  44.223 -12.786  1.00  0.00     0.092 A 
HETATM    2  C   UNL     1     -12.627  43.638 -13.196  1.00  0.00     0.065 A 
HETATM    3  N   UNL     1     -14.358  42.536 -14.009  1.00  0.00    -0.252 N 
HETATM    4  C   UNL     1     -12.994  42.561 -14.003  1.00  0.00     0.077 A 
HETATM    5  N   UNL     1     -14.907  43.556 -13.249  1.00  0.00    -0.292 N 
ATOM      6  HN  UNL     1     -15.894  43.753 -13.081  1.00  0.00     0.187 HD
ENDROOT
BRANCH   4   7
HETATM    7  C   UNL     1     -12.127  41.615 -14.680  1.00  0.00     0.052 A 
HETATM    8  S   UNL     1     -10.880  42.075 -15.801  1.00  0.00    -0.050 SA
HETATM    9  C   UNL     1     -10.405  40.418 -15.923  1.00  0.00     0.151 A 
HETATM   10  N   UNL     1     -11.098  39.578 -15.205  1.00  0.00    -0.345 N 
HETATM   11  C   UNL     1     -12.060  40.264 -14.496  1.00  0.00     0.111 A 
ATOM     12  HN  UNL     1     -10.951  38.569 -15.174  1.00  0.00     0.167 HD
BRANCH   9  13
HETATM   13  N   UNL     1      -9.346  39.988 -16.700  1.00  0.00    -0.307 N 
HETATM   14  C   UNL     1      -9.468  39.177 -17.786  1.00  0.00     0.227 C 
HETATM   15  O   UNL     1     -10.549  38.750 -18.185  1.00  0.00    -0.273 OA
ATOM     16  HN  UNL     1      -8.409  40.299 -16.442  1.00  0.00     0.171 HD
BRANCH  14  17
HETATM   17  C   UNL     1      -8.165  38.797 -18.451  1.00  0.00     0.070 C 
HETATM   18  C   UNL     1      -7.856  39.790 -19.560  1.00  0.00     0.019 C 
HETATM   19  C   UNL     1      -8.291  37.388 -19.005  1.00  0.00     0.019 C 
ENDBRANCH  14  17
ENDBRANCH   9  13
ENDBRANCH   4   7
BRANCH   3  20
HETATM   20  C   UNL     1     -15.272  41.687 -14.731  1.00  0.00     0.100 A 
HETATM   21  C   UNL     1     -15.516  41.874 -16.087  1.00  0.00     0.064 A 
HETATM   22  C   UNL     1     -16.397  41.063 -16.779  1.00  0.00     0.026 A 
HETATM   23 CL   UNL     1     -14.658  43.084 -16.971  1.00  0.00    -0.082 Cl
HETATM   24  C   UNL     1     -17.042  40.036 -16.112  1.00  0.00     0.003 A 
HETATM   25  C   UNL     1     -16.809  39.821 -14.765  1.00  0.00     0.026 A 
HETATM   26  C   UNL     1     -15.925  40.648 -14.090  1.00  0.00     0.064 A 
HETATM   27 CL   UNL     1     -15.593  40.344 -12.427  1.00  0.00    -0.082 Cl
ENDBRANCH   3  20
BRANCH   1  28
HETATM   28  C   UNL     1     -14.084  45.533 -11.983  1.00  0.00     0.404 C 
HETATM   29  F   UNL     1     -12.965  45.907 -11.367  1.00  0.00    -0.207 F 
HETATM   30  F   UNL     1     -14.998  45.338 -11.050  1.00  0.00    -0.207 F 
ENDBRANCH   1  28
TORSDOF 5
ENDMDL
MODEL 18
REMARK VINA RESULT:    -6.833      2.346      3.099
REMARK INTER + INTRA:         -10.039
REMARK INTER:                  -8.679
REMARK INTRA:                  -1.360
REMARK UNBOUND:                -1.209
REMARK  5 active torsions:
REMARK  status: ('A' for Active; 'I' for Inactive)
REMARK    1  A    between atoms: C_6  and  C_7 
REMARK    2  A    between atoms: C_10  and  N_26 
REMARK       I    between atoms: C_11  and  N_26 
REMARK    3  A    between atoms: C_11  and  C_12 
REMARK    4  A    between atoms: N_13  and  C_16 
REMARK    5  A    between atoms: C_17  and  C_20 
ROOT
HETATM    1  C   UNL     1     -11.576  43.050 -14.870  1.00  0.00     0.092 A 
HETATM    2  C   UNL     1     -11.671  42.186 -15.981  1.00  0.00     0.065 A 
HETATM    3  N   UNL     1     -13.497  42.102 -14.745  1.00  0.00    -0.252 N 
HETATM    4  C   UNL     1     -12.935  41.603 -15.883  1.00  0.00     0.077 A 
HETATM    5  N   UNL     1     -12.664  42.997 -14.093  1.00  0.00    -0.292 N 
ATOM      6  HN  UNL     1     -12.840  43.500 -13.223  1.00  0.00     0.187 HD
ENDROOT
BRANCH   4   7
HETATM    7  C   UNL     1     -13.542  40.630 -16.771  1.00  0.00     0.052 A 
HETATM    8  S   UNL     1     -13.389  38.910 -16.571  1.00  0.00    -0.050 SA
HETATM    9  C   UNL     1     -14.458  38.678 -17.909  1.00  0.00     0.151 A 
HETATM   10  N   UNL     1     -14.900  39.768 -18.473  1.00  0.00    -0.345 N 
HETATM   11  C   UNL     1     -14.389  40.866 -17.816  1.00  0.00     0.111 A 
ATOM     12  HN  UNL     1     -15.528  39.802 -19.277  1.00  0.00     0.167 HD
BRANCH   9  13
HETATM   13  N   UNL     1     -14.856  37.432 -18.356  1.00  0.00    -0.307 N 
HETATM   14  C   UNL     1     -16.151  37.024 -18.443  1.00  0.00     0.227 C 
HETATM   15  O   UNL     1     -17.102  37.740 -18.134  1.00  0.00    -0.273 OA
ATOM     16  HN  UNL     1     -14.130  36.773 -18.638  1.00  0.00     0.171 HD
BRANCH  14  17
HETATM   17  C   UNL     1     -16.343  35.600 -18.912  1.00  0.00     0.070 C 
HETATM   18  C   UNL     1     -15.600  35.396 -20.223  1.00  0.00     0.019 C 
HETATM   19  C   UNL     1     -17.829  35.339 -19.086  1.00  0.00     0.019 C 
ENDBRANCH  14  17
ENDBRANCH   9  13
ENDBRANCH   4   7
BRANCH   3  20
HETATM   20  C   UNL     1     -14.814  41.905 -14.192  1.00  0.00     0.100 A 
HETATM   21  C   UNL     1     -15.096  40.826 -13.362  1.00  0.00     0.064 A 
HETATM   22  C   UNL     1     -16.361  40.634 -12.835  1.00  0.00     0.026 A 
HETATM   23 CL   UNL     1     -13.846  39.730 -12.896  1.00  0.00    -0.082 Cl
HETATM   24  C   UNL     1     -17.365  41.540 -13.131  1.00  0.00     0.003 A 
HETATM   25  C   UNL     1     -17.108  42.628 -13.945  1.00  0.00     0.026 A 
HETATM   26  C   UNL     1     -15.835  42.800 -14.465  1.00  0.00     0.064 A 
HETATM   27 CL   UNL     1     -15.502  44.186 -15.432  1.00  0.00    -0.082 Cl
ENDBRANCH   3  20
BRANCH   1  28
HETATM   28  C   UNL     1     -10.459  44.070 -14.510  1.00  0.00     0.404 C 
HETATM   29  F   UNL     1      -9.260  43.542 -14.743  1.00  0.00    -0.207 F 
HETATM   30  F   UNL     1     -10.510  44.372 -13.225  1.00  0.00    -0.207 F 
ENDBRANCH   1  28
TORSDOF 5
ENDMDL
MODEL 19
REMARK VINA RESULT:    -6.802      3.011      4.877
REMARK INTER + INTRA:          -9.999
REMARK INTER:                  -8.938
REMARK INTRA:                  -1.061
REMARK UNBOUND:                -1.209
REMARK  5 active torsions:
REMARK  status: ('A' for Active; 'I' for Inactive)
REMARK    1  A    between atoms: C_6  and  C_7 
REMARK    2  A    between atoms: C_10  and  N_26 
REMARK       I    between atoms: C_11  and  N_26 
REMARK    3  A    between atoms: C_11  and  C_12 
REMARK    4  A    between atoms: N_13  and  C_16 
REMARK    5  A    between atoms: C_17  and  C_20 
ROOT
HETATM    1  C   UNL     1     -14.378  44.344 -12.560  1.00  0.00     0.092 A 
HETATM    2  C   UNL     1     -15.433  43.783 -13.309  1.00  0.00     0.065 A 
HETATM    3  N   UNL     1     -13.474  43.057 -14.021  1.00  0.00    -0.252 N 
HETATM    4  C   UNL     1     -14.816  42.938 -14.233  1.00  0.00     0.077 A 
HETATM    5  N   UNL     1     -13.178  43.934 -12.990  1.00  0.00    -0.292 N 
ATOM      6  HN  UNL     1     -12.259  44.206 -12.641  1.00  0.00     0.187 HD
ENDROOT
BRANCH   4   7
HETATM    7  C   UNL     1     -15.444  42.119 -15.252  1.00  0.00     0.052 A 
HETATM    8  S   UNL     1     -15.016  42.172 -16.936  1.00  0.00    -0.050 SA
HETATM    9  C   UNL     1     -16.122  40.879 -17.239  1.00  0.00     0.151 A 
HETATM   10  N   UNL     1     -16.766  40.432 -16.197  1.00  0.00    -0.345 N 
HETATM   11  C   UNL     1     -16.367  41.128 -15.076  1.00  0.00     0.111 A 
ATOM     12  HN  UNL     1     -17.458  39.683 -16.210  1.00  0.00     0.167 HD
BRANCH   9  13
HETATM   13  N   UNL     1     -16.309  40.318 -18.489  1.00  0.00    -0.307 N 
HETATM   14  C   UNL     1     -16.472  38.987 -18.718  1.00  0.00     0.227 C 
HETATM   15  O   UNL     1     -16.474  38.148 -17.819  1.00  0.00    -0.273 OA
ATOM     16  HN  UNL     1     -16.327  40.945 -19.294  1.00  0.00     0.171 HD
BRANCH  14  17
HETATM   17  C   UNL     1     -16.612  38.600 -20.172  1.00  0.00     0.070 C 
HETATM   18  C   UNL     1     -17.721  39.422 -20.809  1.00  0.00     0.019 C 
HETATM   19  C   UNL     1     -16.922  37.115 -20.255  1.00  0.00     0.019 C 
ENDBRANCH  14  17
ENDBRANCH   9  13
ENDBRANCH   4   7
BRANCH   3  20
HETATM   20  C   UNL     1     -12.369  42.363 -14.633  1.00  0.00     0.100 A 
HETATM   21  C   UNL     1     -12.102  41.029 -14.345  1.00  0.00     0.064 A 
HETATM   22  C   UNL     1     -11.039  40.365 -14.929  1.00  0.00     0.026 A 
HETATM   23 CL   UNL     1     -13.148  40.133 -13.304  1.00  0.00    -0.082 Cl
HETATM   24  C   UNL     1     -10.227  41.037 -15.827  1.00  0.00     0.003 A 
HETATM   25  C   UNL     1     -10.477  42.362 -16.139  1.00  0.00     0.026 A 
HETATM   26  C   UNL     1     -11.546  43.009 -15.540  1.00  0.00     0.064 A 
HETATM   27 CL   UNL     1     -11.890  44.641 -15.973  1.00  0.00    -0.082 Cl
ENDBRANCH   3  20
BRANCH   1  28
HETATM   28  C   UNL     1     -14.440  45.256 -11.303  1.00  0.00     0.404 C 
HETATM   29  F   UNL     1     -13.223  45.696 -10.993  1.00  0.00    -0.207 F 
HETATM   30  F   UNL     1     -14.885  44.574 -10.263  1.00  0.00    -0.207 F 
ENDBRANCH   1  28
TORSDOF 5
ENDMDL
MODEL 20
REMARK VINA RESULT:    -6.690      4.570      7.085
REMARK INTER + INTRA:          -9.854
REMARK INTER:                  -8.673
REMARK INTRA:                  -1.181
REMARK UNBOUND:                -1.209
REMARK  5 active torsions:
REMARK  status: ('A' for Active; 'I' for Inactive)
REMARK    1  A    between atoms: C_6  and  C_7 
REMARK    2  A    between atoms: C_10  and  N_26 
REMARK       I    between atoms: C_11  and  N_26 
REMARK    3  A    between atoms: C_11  and  C_12 
REMARK    4  A    between atoms: N_13  and  C_16 
REMARK    5  A    between atoms: C_17  and  C_20 
ROOT
HETATM    1  C   UNL     1     -10.943  37.878 -17.440  1.00  0.00     0.092 A 
HETATM    2  C   UNL     1     -12.329  37.890 -17.701  1.00  0.00     0.065 A 
HETATM    3  N   UNL     1     -11.716  39.674 -16.556  1.00  0.00    -0.252 N 
HETATM    4  C   UNL     1     -12.797  39.076 -17.134  1.00  0.00     0.077 A 
HETATM    5  N   UNL     1     -10.553  38.941 -16.726  1.00  0.00    -0.292 N 
ATOM      6  HN  UNL     1      -9.617  39.160 -16.386  1.00  0.00     0.187 HD
ENDROOT
BRANCH   4   7
HETATM    7  C   UNL     1     -14.157  39.579 -17.110  1.00  0.00     0.052 A 
HETATM    8  S   UNL     1     -15.363  39.055 -15.973  1.00  0.00    -0.050 SA
HETATM    9  C   UNL     1     -16.462  40.215 -16.632  1.00  0.00     0.151 A 
HETATM   10  N   UNL     1     -15.997  40.938 -17.613  1.00  0.00    -0.345 N 
HETATM   11  C   UNL     1     -14.690  40.582 -17.868  1.00  0.00     0.111 A 
ATOM     12  HN  UNL     1     -16.520  41.656 -18.115  1.00  0.00     0.167 HD
BRANCH   9  13
HETATM   13  N   UNL     1     -17.744  40.404 -16.152  1.00  0.00    -0.307 N 
HETATM   14  C   UNL     1     -18.099  41.377 -15.269  1.00  0.00     0.227 C 
HETATM   15  O   UNL     1     -17.300  42.193 -14.814  1.00  0.00    -0.273 OA
ATOM     16  HN  UNL     1     -18.474  39.772 -16.482  1.00  0.00     0.171 HD
BRANCH  14  17
HETATM   17  C   UNL     1     -19.550  41.359 -14.847  1.00  0.00     0.070 C 
HETATM   18  C   UNL     1     -20.002  42.776 -14.532  1.00  0.00     0.019 C 
HETATM   19  C   UNL     1     -19.694  40.462 -13.630  1.00  0.00     0.019 C 
ENDBRANCH  14  17
ENDBRANCH   9  13
ENDBRANCH   4   7
BRANCH   3  20
HETATM   20  C   UNL     1     -11.600  40.950 -15.895  1.00  0.00     0.100 A 
HETATM   21  C   UNL     1     -11.984  41.116 -14.569  1.00  0.00     0.064 A 
HETATM   22  C   UNL     1     -11.877  42.341 -13.936  1.00  0.00     0.026 A 
HETATM   23 CL   UNL     1     -12.535  39.767 -13.643  1.00  0.00    -0.082 Cl
HETATM   24  C   UNL     1     -11.367  43.424 -14.632  1.00  0.00     0.003 A 
HETATM   25  C   UNL     1     -10.968  43.283 -15.949  1.00  0.00     0.026 A 
HETATM   26  C   UNL     1     -11.087  42.047 -16.565  1.00  0.00     0.064 A 
HETATM   27 CL   UNL     1     -10.536  41.860 -18.187  1.00  0.00    -0.082 Cl
ENDBRANCH   3  20
BRANCH   1  28
HETATM   28  C   UNL     1      -9.857  36.883 -17.937  1.00  0.00     0.404 C 
HETATM   29  F   UNL     1      -9.643  35.941 -17.022  1.00  0.00    -0.207 F 
HETATM   30  F   UNL     1      -8.710  37.511 -18.126  1.00  0.00    -0.207 F 
ENDBRANCH   1  28
TORSDOF 5
ENDMDL
