REMARK  10 active torsions:
REMARK  status: ('A' for Active; 'I' for Inactive)
REMARK    1  A    between atoms: C_2  and  C_17 
REMARK    2  A    between atoms: C_4  and  N_33 
REMARK    3  A    between atoms: C_10  and  C_12 
REMARK    4  A    between atoms: C_10  and  N_20 
REMARK    5  A    between atoms: C_10  and  C_26 
REMARK    6  A    between atoms: C_15  and  N_42 
REMARK    7  A    between atoms: N_33  and  S_34 
REMARK    8  A    between atoms: S_34  and  C_35 
REMARK    9  A    between atoms: C_35  and  C_36 
REMARK       I    between atoms: N_42  and  C_43 
REMARK       I    between atoms: C_43  and  N_44 
REMARK   10  A    between atoms: N_44  and  C_45 
ROOT
HETATM    1  C   UNL     1       0.530  -0.083   1.902  1.00  0.00    -0.020 A 
HETATM    2  C   UNL     1       1.004  -0.530   3.163  1.00  0.00     0.043 A 
HETATM    3  C   UNL     1       1.674  -1.762   3.293  1.00  0.00     0.055 A 
HETATM    4  C   UNL     1       1.905  -2.501   2.133  1.00  0.00     0.019 A 
HETATM    5  C   UNL     1       1.471  -2.081   0.904  1.00  0.00     0.049 A 
HETATM    6  C   UNL     1       0.771  -0.879   0.757  1.00  0.00     0.043 A 
HETATM    7  C   UNL     1       2.515  -3.942   0.587  1.00  0.00     0.094 A 
HETATM    8  C   UNL     1       2.565  -3.696   1.952  1.00  0.00     0.033 A 
HETATM    9  N   UNL     1       1.843  -2.954  -0.066  1.00  0.00    -0.335 N 
ENDROOT
BRANCH   1  10
HETATM   10  C   UNL     1      -0.213   1.205   1.782  1.00  0.00    -0.008 A 
HETATM   11  C   UNL     1      -0.140   1.970   0.609  1.00  0.00     0.049 A 
HETATM   12  C   UNL     1      -0.892   3.140   0.472  1.00  0.00     0.105 A 
HETATM   13  C   UNL     1      -1.660   3.585   1.560  1.00  0.00     0.274 A 
HETATM   14  N   UNL     1      -1.718   2.850   2.714  1.00  0.00    -0.326 N 
HETATM   15  O   UNL     1      -2.313   4.661   1.459  1.00  0.00    -0.266 OA
HETATM   16  C   UNL     1      -2.539   3.320   3.838  1.00  0.00     0.159 C 
HETATM   17  C   UNL     1      -1.031   1.672   2.827  1.00  0.00     0.106 A 
BRANCH  12  18
HETATM   18  N   UNL     1      -0.880   3.879  -0.762  1.00  0.00    -0.304 N 
HETATM   19  C   UNL     1      -1.024   3.251  -2.045  1.00  0.00     0.325 C 
HETATM   20  N   UNL     1      -1.012   4.054  -3.234  1.00  0.00    -0.306 N 
HETATM   21  O   UNL     1      -1.225   2.009  -2.120  1.00  0.00    -0.247 OA
HETATM   22  H   UNL     1      -0.978   5.092  -3.119  1.00  0.00     0.171 HD
HETATM   23  H   UNL     1      -0.939   4.920  -0.717  1.00  0.00     0.171 HD
BRANCH  20  24
HETATM   24  C   UNL     1      -1.331   3.533  -4.534  1.00  0.00     0.075 A 
HETATM   25  C   UNL     1      -2.274   4.203  -5.330  1.00  0.00     0.033 A 
HETATM   26  C   UNL     1      -2.609   3.709  -6.596  1.00  0.00     0.002 A 
HETATM   27  C   UNL     1      -1.992   2.554  -7.082  1.00  0.00     0.003 A 
HETATM   28  C   UNL     1      -1.030   1.897  -6.309  1.00  0.00     0.044 A 
HETATM   29  C   UNL     1      -0.692   2.385  -5.042  1.00  0.00     0.143 A 
HETATM   30  F   UNL     1       0.283   1.763  -4.333  1.00  0.00    -0.204 F 
ENDBRANCH  20  24
ENDBRANCH  12  18
ENDBRANCH   1  10
BRANCH   3  31
HETATM   31  N   UNL     1       2.148  -2.216   4.565  1.00  0.00    -0.283 N 
HETATM   32  H   UNL     1       3.092  -2.656   4.613  1.00  0.00     0.178 HD
BRANCH  31  33
HETATM   33  S   UNL     1       1.037  -2.605   5.839  1.00  0.00     0.239 S 
HETATM   34  O   UNL     1       1.808  -3.228   6.970  1.00  0.00    -0.205 OA
HETATM   35  O   UNL     1       0.033  -3.600   5.327  1.00  0.00    -0.205 OA
BRANCH  33  36
HETATM   36  C   UNL     1       0.190  -1.139   6.425  1.00  0.00     0.280 C 
BRANCH  36  37
HETATM   37  C   UNL     1      -0.553  -1.387   7.737  1.00  0.00     0.402 C 
HETATM   38  F   UNL     1       0.344  -1.671   8.752  1.00  0.00    -0.170 F 
HETATM   39  F   UNL     1      -1.267  -0.251   8.076  1.00  0.00    -0.170 F 
HETATM   40  F   UNL     1      -1.438  -2.441   7.599  1.00  0.00    -0.170 F 
ENDBRANCH  36  37
ENDBRANCH  33  36
ENDBRANCH  31  33
ENDBRANCH   3  31
BRANCH   9  41
HETATM   41  C   UNL     1       1.624  -2.815  -1.532  1.00  0.00     0.118 C 
HETATM   42  C   UNL     1       2.146  -4.049  -2.302  1.00  0.00     0.053 C 
BRANCH  41  43
HETATM   43  C   UNL     1       0.115  -2.716  -1.787  1.00  0.00     0.044 A 
HETATM   44  N   UNL     1      -0.412  -1.702  -2.536  1.00  0.00    -0.367 N 
HETATM   45  C   UNL     1      -1.747  -1.580  -2.762  1.00  0.00     0.088 A 
ATOM     46  HN  UNL     1       0.220  -1.011  -2.941  1.00  0.00     0.165 HD
HETATM   47  C   UNL     1      -2.635  -2.508  -2.218  1.00  0.00     0.017 A 
HETATM   48  C   UNL     1      -2.135  -3.557  -1.447  1.00  0.00     0.003 A 
HETATM   49  C   UNL     1      -0.760  -3.668  -1.230  1.00  0.00     0.028 A 
ENDBRANCH  41  43
BRANCH  41  50
HETATM   50  C   UNL     1       2.403  -1.605  -2.071  1.00  0.00     0.044 A 
HETATM   51  C   UNL     1       3.503  -1.056  -1.376  1.00  0.00     0.028 A 
HETATM   52  C   UNL     1       4.208   0.012  -1.931  1.00  0.00     0.003 A 
HETATM   53  C   UNL     1       3.852   0.511  -3.181  1.00  0.00     0.017 A 
HETATM   54  C   UNL     1       2.801  -0.086  -3.873  1.00  0.00     0.088 A 
HETATM   55  N   UNL     1       2.116  -1.118  -3.314  1.00  0.00    -0.367 N 
ATOM     56  HN  UNL     1       1.357  -1.546  -3.844  1.00  0.00     0.165 HD
ENDBRANCH  41  50
ENDBRANCH   9  41
TORSDOF 10
