REMARK  9 active torsions:
REMARK  status: ('A' for Active; 'I' for Inactive)
REMARK    1  A    between atoms: C_4  and  N_33 
REMARK    2  A    between atoms: C_10  and  N_20 
REMARK    3  A    between atoms: C_10  and  C_26 
REMARK    4  A    between atoms: C_10  and  C_12 
REMARK    5  A    between atoms: C_15  and  N_43 
REMARK    6  A    between atoms: N_33  and  S_35 
REMARK    7  A    between atoms: S_35  and  C_36 
REMARK    8  A    between atoms: C_36  and  C_37 
REMARK       I    between atoms: N_43  and  C_45 
REMARK       I    between atoms: C_45  and  N_46 
REMARK    9  A    between atoms: N_46  and  C_48 
ROOT
HETATM    1  C   UNL     1      11.284  11.135   6.859  1.00  0.00     0.159 C 
HETATM    2  C   UNL     1      11.264  14.916   3.727  1.00  0.00    -0.020 A 
HETATM    3  C   UNL     1       9.887  15.186   3.599  1.00  0.00     0.043 A 
HETATM    4  C   UNL     1       9.362  16.302   2.929  1.00  0.00     0.055 A 
HETATM    5  C   UNL     1      10.252  17.234   2.465  1.00  0.00     0.019 A 
HETATM    6  C   UNL     1      11.636  17.022   2.649  1.00  0.00     0.049 A 
HETATM    7  C   UNL     1      12.140  15.858   3.276  1.00  0.00     0.043 A 
HETATM    8  C   UNL     1      11.377  18.944   1.488  1.00  0.00     0.094 A 
HETATM    9  C   UNL     1      10.109  18.453   1.747  1.00  0.00     0.033 A 
HETATM   10  C   UNL     1      12.869  11.147   5.017  1.00  0.00     0.274 A 
HETATM   11  C   UNL     1      13.406  11.862   3.859  1.00  0.00     0.105 A 
HETATM   12  C   UNL     1      12.850  13.052   3.525  1.00  0.00     0.049 A 
HETATM   13  C   UNL     1      11.760  13.656   4.225  1.00  0.00    -0.008 A 
HETATM   14  C   UNL     1      11.291  12.981   5.304  1.00  0.00     0.106 A 
HETATM   15  N   UNL     1      11.827  11.790   5.658  1.00  0.00    -0.326 N 
HETATM   16  N   UNL     1      12.316  18.121   2.070  1.00  0.00    -0.335 N 
HETATM   17  O   UNL     1      13.316  10.052   5.393  1.00  0.00    -0.266 OA
ENDROOT
BRANCH   4  18
HETATM   18  N   UNL     1       8.000  16.541   2.719  1.00  0.00    -0.283 N 
ATOM     19  HN  UNL     1       7.711  17.490   2.483  1.00  0.00     0.178 HD
BRANCH  18  20
HETATM   20  S   UNL     1       6.837  15.385   2.830  1.00  0.00     0.239 S 
HETATM   21  O   UNL     1       7.335  14.185   2.347  1.00  0.00    -0.205 OA
HETATM   22  O   UNL     1       5.660  15.945   2.239  1.00  0.00    -0.205 OA
BRANCH  20  23
HETATM   23  C   UNL     1       6.510  15.079   4.578  1.00  0.00     0.280 C 
BRANCH  23  24
HETATM   24  C   UNL     1       5.977  16.250   5.242  1.00  0.00     0.402 C 
HETATM   25  F   UNL     1       4.837  16.831   4.757  1.00  0.00    -0.170 F 
HETATM   26  F   UNL     1       6.880  17.342   5.258  1.00  0.00    -0.170 F 
HETATM   27  F   UNL     1       5.752  16.097   6.523  1.00  0.00    -0.170 F 
ENDBRANCH  23  24
ENDBRANCH  20  23
ENDBRANCH  18  20
ENDBRANCH   4  18
BRANCH  11  28
HETATM   28  N   UNL     1      14.425  11.247   3.196  1.00  0.00    -0.304 N 
HETATM   29  C   UNL     1      15.111  11.672   2.077  1.00  0.00     0.325 C 
HETATM   30  O   UNL     1      14.762  12.716   1.535  1.00  0.00    -0.247 OA
HETATM   31  N   UNL     1      16.151  10.856   1.674  1.00  0.00    -0.306 N 
ATOM     32  HN  UNL     1      16.339  10.003   2.200  1.00  0.00     0.171 HD
ATOM     33  HN  UNL     1      14.721  10.349   3.579  1.00  0.00     0.171 HD
BRANCH  31  34
HETATM   34  C   UNL     1      16.961  11.161   0.562  1.00  0.00     0.075 A 
HETATM   35  C   UNL     1      16.786  12.112  -0.367  1.00  0.00     0.033 A 
HETATM   36  C   UNL     1      17.672  12.328  -1.437  1.00  0.00     0.002 A 
HETATM   37  C   UNL     1      18.798  11.574  -1.523  1.00  0.00     0.003 A 
HETATM   38  C   UNL     1      19.027  10.613  -0.578  1.00  0.00     0.044 A 
HETATM   39  C   UNL     1      18.078  10.443   0.450  1.00  0.00     0.143 A 
HETATM   40  F   UNL     1      18.226   9.493   1.343  1.00  0.00    -0.204 F 
ENDBRANCH  31  34
ENDBRANCH  11  28
BRANCH  16  41
HETATM   41  C   UNL     1      13.768  18.219   1.886  1.00  0.00     0.118 C 
HETATM   42  C   UNL     1      14.117  19.728   1.537  1.00  0.00     0.053 C 
BRANCH  41  43
HETATM   43  C   UNL     1      14.199  17.293   0.694  1.00  0.00     0.044 A 
HETATM   44  C   UNL     1      13.572  16.163   0.276  1.00  0.00     0.028 A 
HETATM   45  C   UNL     1      14.001  15.382  -0.826  1.00  0.00     0.003 A 
HETATM   46  C   UNL     1      15.169  15.722  -1.486  1.00  0.00     0.017 A 
HETATM   47  C   UNL     1      15.827  16.859  -0.996  1.00  0.00     0.088 A 
HETATM   48  N   UNL     1      15.399  17.630   0.045  1.00  0.00    -0.367 N 
ATOM     49  HN  UNL     1      15.942  18.439   0.348  1.00  0.00     0.165 HD
ENDBRANCH  41  43
BRANCH  41  50
HETATM   50  C   UNL     1      14.508  17.866   3.124  1.00  0.00     0.044 A 
HETATM   51  C   UNL     1      15.598  17.068   3.043  1.00  0.00     0.028 A 
HETATM   52  C   UNL     1      16.270  16.812   4.175  1.00  0.00     0.003 A 
HETATM   53  C   UNL     1      15.900  17.264   5.404  1.00  0.00     0.017 A 
HETATM   54  C   UNL     1      14.790  18.082   5.481  1.00  0.00     0.088 A 
HETATM   55  N   UNL     1      14.110  18.408   4.336  1.00  0.00    -0.367 N 
ATOM     56  HN  UNL     1      13.315  19.046   4.376  1.00  0.00     0.165 HD
ENDBRANCH  41  50
ENDBRANCH  16  41
TORSDOF 9
