MODEL 1
REMARK VINA RESULT:    -7.713      0.000      0.000
REMARK INTER + INTRA:         -11.272
REMARK INTER:                 -10.193
REMARK INTRA:                  -1.078
REMARK UNBOUND:                -1.078
REMARK  6 active torsions:
REMARK  status: ('A' for Active; 'I' for Inactive)
REMARK    1  A    between atoms: S_2  and  C_10 
REMARK    2  A    between atoms: S_2  and  C_4 
REMARK    3  A    between atoms: C_12  and  C_13 
REMARK    4  A    between atoms: C_13  and  O_14 
REMARK    5  A    between atoms: C_18  and  S_21 
REMARK    6  A    between atoms: S_21  and  N_24 
ROOT
HETATM    1  C   UNL     1      26.983   6.303  10.381  1.00  0.00     0.082 C 
HETATM    2  C   UNL     1      27.101   5.604   9.188  1.00  0.00     0.050 C 
HETATM    3  C   UNL     1      25.913   6.167  11.284  1.00  0.00     0.062 C 
HETATM    4  C   UNL     1      25.040   5.094  11.009  1.00  0.00     0.046 C 
HETATM    5  C   UNL     1      25.001   4.356   9.793  1.00  0.00     0.102 C 
HETATM    6  C   UNL     1      26.087   4.643   8.941  1.00  0.00     0.058 C 
HETATM    7 CL   UNL     1      26.277   3.816   7.426  1.00  0.00    -0.083 Cl
ENDROOT
BRANCH   1   8
HETATM    8  S   UNL     1      28.339   7.414  10.750  1.00  0.00     0.207 S 
HETATM    9  O   UNL     1      28.785   7.037  12.108  1.00  0.00    -0.217 OA
HETATM   10  O   UNL     1      29.320   7.288   9.670  1.00  0.00    -0.217 OA
BRANCH   8  11
HETATM   11  C   UNL     1      27.900   9.070  10.916  1.00  0.00     0.064 A 
HETATM   12  C   UNL     1      27.081   9.549   9.929  1.00  0.00     0.024 A 
HETATM   13  C   UNL     1      26.710  10.916  10.022  1.00  0.00     0.002 A 
HETATM   14  C   UNL     1      27.007  11.714  11.090  1.00  0.00     0.000 A 
HETATM   15  C   UNL     1      27.828  11.238  12.103  1.00  0.00     0.002 A 
HETATM   16  C   UNL     1      28.265   9.892  11.982  1.00  0.00     0.024 A 
ENDBRANCH   8  11
ENDBRANCH   1   8
BRANCH   3  17
HETATM   17  C   UNL     1      25.558   6.985  12.489  1.00  0.00     0.294 C 
HETATM   18  O   UNL     1      25.727   6.779  13.617  1.00  0.00    -0.259 OA
BRANCH  17  19
HETATM   19  O   UNL     1      24.713   7.975  12.136  1.00  0.00    -0.322 OA
HETATM   20  C   UNL     1      24.628   9.190  12.783  1.00  0.00     0.213 C 
ENDBRANCH  17  19
ENDBRANCH   3  17
BRANCH   5  21
HETATM   21  S   UNL     1      24.030   2.915   9.644  1.00  0.00     0.258 S 
HETATM   22  O   UNL     1      22.976   2.780  10.757  1.00  0.00    -0.201 OA
HETATM   23  O   UNL     1      23.170   2.898   8.369  1.00  0.00    -0.201 OA
BRANCH  21  24
HETATM   24  N   UNL     1      24.881   1.368   9.637  1.00  0.00    -0.324 N 
ATOM     25  HN2 UNL     1      25.191   0.951   8.759  1.00  0.00     0.169 HD
ATOM     26  HN1 UNL     1      25.043   0.922  10.540  1.00  0.00     0.169 HD
ENDBRANCH  21  24
ENDBRANCH   5  21
TORSDOF 6
ENDMDL
MODEL 2
REMARK VINA RESULT:    -7.576      4.142      6.699
REMARK INTER + INTRA:         -11.091
REMARK INTER:                 -10.476
REMARK INTRA:                  -0.614
REMARK UNBOUND:                -1.078
REMARK  6 active torsions:
REMARK  status: ('A' for Active; 'I' for Inactive)
REMARK    1  A    between atoms: S_2  and  C_10 
REMARK    2  A    between atoms: S_2  and  C_4 
REMARK    3  A    between atoms: C_12  and  C_13 
REMARK    4  A    between atoms: C_13  and  O_14 
REMARK    5  A    between atoms: C_18  and  S_21 
REMARK    6  A    between atoms: S_21  and  N_24 
ROOT
HETATM    1  C   UNL     1      24.806   7.289  13.382  1.00  0.00     0.082 C 
HETATM    2  C   UNL     1      25.255   8.161  12.401  1.00  0.00     0.050 C 
HETATM    3  C   UNL     1      24.260   7.688  14.616  1.00  0.00     0.062 C 
HETATM    4  C   UNL     1      23.989   9.067  14.725  1.00  0.00     0.046 C 
HETATM    5  C   UNL     1      24.465  10.072  13.837  1.00  0.00     0.102 C 
HETATM    6  C   UNL     1      25.061   9.540  12.675  1.00  0.00     0.058 C 
HETATM    7 CL   UNL     1      25.661  10.581  11.422  1.00  0.00    -0.083 Cl
ENDROOT
BRANCH   1   8
HETATM    8  S   UNL     1      24.929   5.550  12.969  1.00  0.00     0.207 S 
HETATM    9  O   UNL     1      25.952   5.009  13.889  1.00  0.00    -0.217 OA
HETATM   10  O   UNL     1      23.584   4.977  13.063  1.00  0.00    -0.217 OA
BRANCH   8  11
HETATM   11  C   UNL     1      25.571   5.215  11.409  1.00  0.00     0.064 A 
HETATM   12  C   UNL     1      24.755   4.469  10.599  1.00  0.00     0.024 A 
HETATM   13  C   UNL     1      25.257   4.158   9.308  1.00  0.00     0.002 A 
HETATM   14  C   UNL     1      26.418   4.666   8.800  1.00  0.00     0.000 A 
HETATM   15  C   UNL     1      27.250   5.431   9.606  1.00  0.00     0.002 A 
HETATM   16  C   UNL     1      26.790   5.688  10.925  1.00  0.00     0.024 A 
ENDBRANCH   8  11
ENDBRANCH   1   8
BRANCH   3  17
HETATM   17  C   UNL     1      23.925   6.874  15.830  1.00  0.00     0.294 C 
HETATM   18  O   UNL     1      24.611   6.419  16.646  1.00  0.00    -0.259 OA
BRANCH  17  19
HETATM   19  O   UNL     1      22.645   6.457  15.760  1.00  0.00    -0.322 OA
HETATM   20  C   UNL     1      22.219   5.198  16.129  1.00  0.00     0.213 C 
ENDBRANCH  17  19
ENDBRANCH   3  17
BRANCH   5  21
HETATM   21  S   UNL     1      23.892  11.715  13.944  1.00  0.00     0.258 S 
HETATM   22  O   UNL     1      23.128  12.003  15.249  1.00  0.00    -0.201 OA
HETATM   23  O   UNL     1      25.030  12.748  13.992  1.00  0.00    -0.201 OA
BRANCH  21  24
HETATM   24  N   UNL     1      22.821  12.280  12.659  1.00  0.00    -0.324 N 
ATOM     25  HN2 UNL     1      23.148  12.963  11.976  1.00  0.00     0.169 HD
ATOM     26  HN1 UNL     1      21.877  11.895  12.637  1.00  0.00     0.169 HD
ENDBRANCH  21  24
ENDBRANCH   5  21
TORSDOF 6
ENDMDL
MODEL 3
REMARK VINA RESULT:    -7.548      0.675      1.032
REMARK INTER + INTRA:         -11.053
REMARK INTER:                 -10.266
REMARK INTRA:                  -0.787
REMARK UNBOUND:                -1.078
REMARK  6 active torsions:
REMARK  status: ('A' for Active; 'I' for Inactive)
REMARK    1  A    between atoms: S_2  and  C_10 
REMARK    2  A    between atoms: S_2  and  C_4 
REMARK    3  A    between atoms: C_12  and  C_13 
REMARK    4  A    between atoms: C_13  and  O_14 
REMARK    5  A    between atoms: C_18  and  S_21 
REMARK    6  A    between atoms: S_21  and  N_24 
ROOT
HETATM    1  C   UNL     1      27.043   6.208  10.280  1.00  0.00     0.082 C 
HETATM    2  C   UNL     1      27.079   5.535   9.067  1.00  0.00     0.050 C 
HETATM    3  C   UNL     1      26.025   6.068  11.241  1.00  0.00     0.062 C 
HETATM    4  C   UNL     1      25.119   5.018  10.995  1.00  0.00     0.046 C 
HETATM    5  C   UNL     1      24.995   4.308   9.767  1.00  0.00     0.102 C 
HETATM    6  C   UNL     1      26.035   4.597   8.859  1.00  0.00     0.058 C 
HETATM    7 CL   UNL     1      26.121   3.803   7.317  1.00  0.00    -0.083 Cl
ENDROOT
BRANCH   1   8
HETATM    8  S   UNL     1      28.438   7.287  10.593  1.00  0.00     0.207 S 
HETATM    9  O   UNL     1      28.798   7.049  12.007  1.00  0.00    -0.217 OA
HETATM   10  O   UNL     1      29.462   6.989   9.589  1.00  0.00    -0.217 OA
BRANCH   8  11
HETATM   11  C   UNL     1      28.083   8.970  10.547  1.00  0.00     0.064 A 
HETATM   12  C   UNL     1      27.240   9.352   9.536  1.00  0.00     0.024 A 
HETATM   13  C   UNL     1      26.936  10.736   9.455  1.00  0.00     0.002 A 
HETATM   14  C   UNL     1      27.319  11.656  10.389  1.00  0.00     0.000 A 
HETATM   15  C   UNL     1      28.165  11.281  11.424  1.00  0.00     0.002 A 
HETATM   16  C   UNL     1      28.534   9.910  11.472  1.00  0.00     0.024 A 
ENDBRANCH   8  11
ENDBRANCH   1   8
BRANCH   3  17
HETATM   17  C   UNL     1      25.756   6.865  12.483  1.00  0.00     0.294 C 
HETATM   18  O   UNL     1      25.552   7.997  12.623  1.00  0.00    -0.259 OA
BRANCH  17  19
HETATM   19  O   UNL     1      26.046   6.123  13.571  1.00  0.00    -0.322 OA
HETATM   20  C   UNL     1      25.481   6.318  14.814  1.00  0.00     0.213 C 
ENDBRANCH  17  19
ENDBRANCH   3  17
BRANCH   5  21
HETATM   21  S   UNL     1      23.991   2.888   9.643  1.00  0.00     0.258 S 
HETATM   22  O   UNL     1      22.962   2.776  10.781  1.00  0.00    -0.201 OA
HETATM   23  O   UNL     1      23.100   2.888   8.389  1.00  0.00    -0.201 OA
BRANCH  21  24
HETATM   24  N   UNL     1      24.809   1.324   9.616  1.00  0.00    -0.324 N 
ATOM     25  HN2 UNL     1      24.290   0.471   9.410  1.00  0.00     0.169 HD
ATOM     26  HN1 UNL     1      25.810   1.319   9.815  1.00  0.00     0.169 HD
ENDBRANCH  21  24
ENDBRANCH   5  21
TORSDOF 6
ENDMDL
MODEL 4
REMARK VINA RESULT:    -7.406      2.032      2.807
REMARK INTER + INTRA:         -10.866
REMARK INTER:                 -10.206
REMARK INTRA:                  -0.659
REMARK UNBOUND:                -1.078
REMARK  6 active torsions:
REMARK  status: ('A' for Active; 'I' for Inactive)
REMARK    1  A    between atoms: S_2  and  C_10 
REMARK    2  A    between atoms: S_2  and  C_4 
REMARK    3  A    between atoms: C_12  and  C_13 
REMARK    4  A    between atoms: C_13  and  O_14 
REMARK    5  A    between atoms: C_18  and  S_21 
REMARK    6  A    between atoms: S_21  and  N_24 
ROOT
HETATM    1  C   UNL     1      26.191   6.283  11.481  1.00  0.00     0.082 C 
HETATM    2  C   UNL     1      26.664   5.987  10.211  1.00  0.00     0.050 C 
HETATM    3  C   UNL     1      25.075   5.671  12.080  1.00  0.00     0.062 C 
HETATM    4  C   UNL     1      24.568   4.554  11.385  1.00  0.00     0.046 C 
HETATM    5  C   UNL     1      24.905   4.193  10.051  1.00  0.00     0.102 C 
HETATM    6  C   UNL     1      25.989   4.936   9.538  1.00  0.00     0.058 C 
HETATM    7 CL   UNL     1      26.612   4.626   7.948  1.00  0.00    -0.083 Cl
ENDROOT
BRANCH   1   8
HETATM    8  S   UNL     1      27.134   7.515  12.377  1.00  0.00     0.207 S 
HETATM    9  O   UNL     1      26.389   8.778  12.190  1.00  0.00    -0.217 OA
HETATM   10  O   UNL     1      27.293   7.036  13.752  1.00  0.00    -0.217 OA
BRANCH   8  11
HETATM   11  C   UNL     1      28.687   7.863  11.723  1.00  0.00     0.064 A 
HETATM   12  C   UNL     1      28.762   9.031  11.011  1.00  0.00     0.024 A 
HETATM   13  C   UNL     1      30.024   9.345  10.442  1.00  0.00     0.002 A 
HETATM   14  C   UNL     1      31.164   8.633  10.679  1.00  0.00     0.000 A 
HETATM   15  C   UNL     1      31.104   7.452  11.407  1.00  0.00     0.002 A 
HETATM   16  C   UNL     1      29.830   7.091  11.921  1.00  0.00     0.024 A 
ENDBRANCH   8  11
ENDBRANCH   1   8
BRANCH   3  17
HETATM   17  C   UNL     1      24.342   6.024  13.341  1.00  0.00     0.294 C 
HETATM   18  O   UNL     1      23.871   7.026  13.683  1.00  0.00    -0.259 OA
BRANCH  17  19
HETATM   19  O   UNL     1      24.506   5.044  14.253  1.00  0.00    -0.322 OA
HETATM   20  C   UNL     1      23.543   4.665  15.164  1.00  0.00     0.213 C 
ENDBRANCH  17  19
ENDBRANCH   3  17
BRANCH   5  21
HETATM   21  S   UNL     1      24.384   2.676   9.367  1.00  0.00     0.258 S 
HETATM   22  O   UNL     1      25.347   1.515   9.674  1.00  0.00    -0.201 OA
HETATM   23  O   UNL     1      23.058   2.172   9.960  1.00  0.00    -0.201 OA
BRANCH  21  24
HETATM   24  N   UNL     1      24.149   2.619   7.618  1.00  0.00    -0.324 N 
ATOM     25  HN2 UNL     1      23.748   1.793   7.176  1.00  0.00     0.169 HD
ATOM     26  HN1 UNL     1      24.430   3.442   7.084  1.00  0.00     0.169 HD
ENDBRANCH  21  24
ENDBRANCH   5  21
TORSDOF 6
ENDMDL
MODEL 5
REMARK VINA RESULT:    -7.380      3.435      6.314
REMARK INTER + INTRA:         -10.831
REMARK INTER:                 -10.716
REMARK INTRA:                  -0.116
REMARK UNBOUND:                -1.078
REMARK  6 active torsions:
REMARK  status: ('A' for Active; 'I' for Inactive)
REMARK    1  A    between atoms: S_2  and  C_10 
REMARK    2  A    between atoms: S_2  and  C_4 
REMARK    3  A    between atoms: C_12  and  C_13 
REMARK    4  A    between atoms: C_13  and  O_14 
REMARK    5  A    between atoms: C_18  and  S_21 
REMARK    6  A    between atoms: S_21  and  N_24 
ROOT
HETATM    1  C   UNL     1      26.183   7.127  11.023  1.00  0.00     0.082 C 
HETATM    2  C   UNL     1      27.111   7.183   9.993  1.00  0.00     0.050 C 
HETATM    3  C   UNL     1      25.708   8.245  11.732  1.00  0.00     0.062 C 
HETATM    4  C   UNL     1      26.076   9.492  11.187  1.00  0.00     0.046 C 
HETATM    5  C   UNL     1      27.073   9.692  10.192  1.00  0.00     0.102 C 
HETATM    6  C   UNL     1      27.524   8.487   9.615  1.00  0.00     0.058 C 
HETATM    7 CL   UNL     1      28.699   8.493   8.337  1.00  0.00    -0.083 Cl
ENDROOT
BRANCH   1   8
HETATM    8  S   UNL     1      25.566   5.488  11.402  1.00  0.00     0.207 S 
HETATM    9  O   UNL     1      26.690   4.800  12.072  1.00  0.00    -0.217 OA
HETATM   10  O   UNL     1      24.332   5.649  12.175  1.00  0.00    -0.217 OA
BRANCH   8  11
HETATM   11  C   UNL     1      25.243   4.496  10.034  1.00  0.00     0.064 A 
HETATM   12  C   UNL     1      24.041   3.840  10.071  1.00  0.00     0.024 A 
HETATM   13  C   UNL     1      23.745   2.998   8.967  1.00  0.00     0.002 A 
HETATM   14  C   UNL     1      24.514   2.921   7.841  1.00  0.00     0.000 A 
HETATM   15  C   UNL     1      25.730   3.589   7.786  1.00  0.00     0.002 A 
HETATM   16  C   UNL     1      26.069   4.378   8.918  1.00  0.00     0.024 A 
ENDBRANCH   8  11
ENDBRANCH   1   8
BRANCH   3  17
HETATM   17  C   UNL     1      24.874   8.314  12.976  1.00  0.00     0.294 C 
HETATM   18  O   UNL     1      23.747   8.547  13.117  1.00  0.00    -0.259 OA
BRANCH  17  19
HETATM   19  O   UNL     1      25.674   8.330  14.062  1.00  0.00    -0.322 OA
HETATM   20  C   UNL     1      25.940   7.225  14.844  1.00  0.00     0.213 C 
ENDBRANCH  17  19
ENDBRANCH   3  17
BRANCH   5  21
HETATM   21  S   UNL     1      27.295  11.249   9.438  1.00  0.00     0.258 S 
HETATM   22  O   UNL     1      26.701  11.322   8.020  1.00  0.00    -0.201 OA
HETATM   23  O   UNL     1      26.554  12.383  10.167  1.00  0.00    -0.201 OA
BRANCH  21  24
HETATM   24  N   UNL     1      28.953  11.830   9.264  1.00  0.00    -0.324 N 
ATOM     25  HN2 UNL     1      29.668  11.568   9.942  1.00  0.00     0.169 HD
ATOM     26  HN1 UNL     1      29.154  12.431   8.465  1.00  0.00     0.169 HD
ENDBRANCH  21  24
ENDBRANCH   5  21
TORSDOF 6
ENDMDL
MODEL 6
REMARK VINA RESULT:    -7.297      3.683      6.712
REMARK INTER + INTRA:         -10.722
REMARK INTER:                 -10.219
REMARK INTRA:                  -0.503
REMARK UNBOUND:                -1.078
REMARK  6 active torsions:
REMARK  status: ('A' for Active; 'I' for Inactive)
REMARK    1  A    between atoms: S_2  and  C_10 
REMARK    2  A    between atoms: S_2  and  C_4 
REMARK    3  A    between atoms: C_12  and  C_13 
REMARK    4  A    between atoms: C_13  and  O_14 
REMARK    5  A    between atoms: C_18  and  S_21 
REMARK    6  A    between atoms: S_21  and  N_24 
ROOT
HETATM    1  C   UNL     1      26.173   7.218  11.339  1.00  0.00     0.082 C 
HETATM    2  C   UNL     1      25.188   7.466  12.284  1.00  0.00     0.050 C 
HETATM    3  C   UNL     1      26.775   8.202  10.535  1.00  0.00     0.062 C 
HETATM    4  C   UNL     1      26.466   9.530  10.894  1.00  0.00     0.046 C 
HETATM    5  C   UNL     1      25.424   9.922  11.781  1.00  0.00     0.102 C 
HETATM    6  C   UNL     1      24.850   8.833  12.468  1.00  0.00     0.058 C 
HETATM    7 CL   UNL     1      23.598   9.079  13.646  1.00  0.00    -0.083 Cl
ENDROOT
BRANCH   1   8
HETATM    8  S   UNL     1      26.691   5.508  11.212  1.00  0.00     0.207 S 
HETATM    9  O   UNL     1      28.143   5.566  10.943  1.00  0.00    -0.217 OA
HETATM   10  O   UNL     1      26.270   4.825  12.438  1.00  0.00    -0.217 OA
BRANCH   8  11
HETATM   11  C   UNL     1      26.064   4.655   9.855  1.00  0.00     0.064 A 
HETATM   12  C   UNL     1      24.789   4.179  10.015  1.00  0.00     0.024 A 
HETATM   13  C   UNL     1      24.242   3.456   8.922  1.00  0.00     0.002 A 
HETATM   14  C   UNL     1      24.853   3.335   7.707  1.00  0.00     0.000 A 
HETATM   15  C   UNL     1      26.141   3.821   7.528  1.00  0.00     0.002 A 
HETATM   16  C   UNL     1      26.726   4.484   8.640  1.00  0.00     0.024 A 
ENDBRANCH   8  11
ENDBRANCH   1   8
BRANCH   3  17
HETATM   17  C   UNL     1      27.690   8.057   9.356  1.00  0.00     0.294 C 
HETATM   18  O   UNL     1      27.509   7.579   8.315  1.00  0.00    -0.259 OA
BRANCH  17  19
HETATM   19  O   UNL     1      28.957   8.335   9.725  1.00  0.00    -0.322 OA
HETATM   20  C   UNL     1      29.753   9.281   9.112  1.00  0.00     0.213 C 
ENDBRANCH  17  19
ENDBRANCH   3  17
BRANCH   5  21
HETATM   21  S   UNL     1      25.271  11.573  12.319  1.00  0.00     0.258 S 
HETATM   22  O   UNL     1      25.782  11.789  13.754  1.00  0.00    -0.201 OA
HETATM   23  O   UNL     1      26.134  12.554  11.508  1.00  0.00    -0.201 OA
BRANCH  21  24
HETATM   24  N   UNL     1      23.652  12.277  12.304  1.00  0.00    -0.324 N 
ATOM     25  HN2 UNL     1      23.519  13.275  12.467  1.00  0.00     0.169 HD
ATOM     26  HN1 UNL     1      22.871  11.645  12.127  1.00  0.00     0.169 HD
ENDBRANCH  21  24
ENDBRANCH   5  21
TORSDOF 6
ENDMDL
MODEL 7
REMARK VINA RESULT:    -7.133      1.831      2.603
REMARK INTER + INTRA:         -10.505
REMARK INTER:                  -9.875
REMARK INTRA:                  -0.630
REMARK UNBOUND:                -1.078
REMARK  6 active torsions:
REMARK  status: ('A' for Active; 'I' for Inactive)
REMARK    1  A    between atoms: S_2  and  C_10 
REMARK    2  A    between atoms: S_2  and  C_4 
REMARK    3  A    between atoms: C_12  and  C_13 
REMARK    4  A    between atoms: C_13  and  O_14 
REMARK    5  A    between atoms: C_18  and  S_21 
REMARK    6  A    between atoms: S_21  and  N_24 
ROOT
HETATM    1  C   UNL     1      27.034   6.491   9.737  1.00  0.00     0.082 C 
HETATM    2  C   UNL     1      27.084   5.637   8.644  1.00  0.00     0.050 C 
HETATM    3  C   UNL     1      26.040   6.457  10.732  1.00  0.00     0.062 C 
HETATM    4  C   UNL     1      25.183   5.339  10.675  1.00  0.00     0.046 C 
HETATM    5  C   UNL     1      25.075   4.440   9.577  1.00  0.00     0.102 C 
HETATM    6  C   UNL     1      26.084   4.630   8.611  1.00  0.00     0.058 C 
HETATM    7 CL   UNL     1      26.185   3.607   7.211  1.00  0.00    -0.083 Cl
ENDROOT
BRANCH   1   8
HETATM    8  S   UNL     1      28.378   7.670   9.843  1.00  0.00     0.207 S 
HETATM    9  O   UNL     1      29.349   7.239   8.814  1.00  0.00    -0.217 OA
HETATM   10  O   UNL     1      27.804   9.009   9.693  1.00  0.00    -0.217 OA
BRANCH   8  11
HETATM   11  C   UNL     1      29.287   7.611  11.303  1.00  0.00     0.064 A 
HETATM   12  C   UNL     1      30.467   6.920  11.217  1.00  0.00     0.024 A 
HETATM   13  C   UNL     1      31.238   6.836  12.407  1.00  0.00     0.002 A 
HETATM   14  C   UNL     1      30.938   7.506  13.558  1.00  0.00     0.000 A 
HETATM   15  C   UNL     1      29.750   8.219  13.654  1.00  0.00     0.002 A 
HETATM   16  C   UNL     1      28.936   8.249  12.491  1.00  0.00     0.024 A 
ENDBRANCH   8  11
ENDBRANCH   1   8
BRANCH   3  17
HETATM   17  C   UNL     1      25.753   7.426  11.840  1.00  0.00     0.294 C 
HETATM   18  O   UNL     1      25.501   8.557  11.806  1.00  0.00    -0.259 OA
BRANCH  17  19
HETATM   19  O   UNL     1      26.087   6.876  13.024  1.00  0.00    -0.322 OA
HETATM   20  C   UNL     1      25.295   6.924  14.152  1.00  0.00     0.213 C 
ENDBRANCH  17  19
ENDBRANCH   3  17
BRANCH   5  21
HETATM   21  S   UNL     1      24.142   2.973   9.702  1.00  0.00     0.258 S 
HETATM   22  O   UNL     1      23.233   2.940  10.943  1.00  0.00    -0.201 OA
HETATM   23  O   UNL     1      23.137   2.798   8.551  1.00  0.00    -0.201 OA
BRANCH  21  24
HETATM   24  N   UNL     1      25.036   1.451   9.755  1.00  0.00    -0.324 N 
ATOM     25  HN2 UNL     1      25.955   1.375   9.318  1.00  0.00     0.169 HD
ATOM     26  HN1 UNL     1      24.595   0.668  10.237  1.00  0.00     0.169 HD
ENDBRANCH  21  24
ENDBRANCH   5  21
TORSDOF 6
ENDMDL
MODEL 8
REMARK VINA RESULT:    -6.822      3.490      6.257
REMARK INTER + INTRA:         -10.094
REMARK INTER:                 -10.032
REMARK INTRA:                  -0.062
REMARK UNBOUND:                -1.078
REMARK  6 active torsions:
REMARK  status: ('A' for Active; 'I' for Inactive)
REMARK    1  A    between atoms: S_2  and  C_10 
REMARK    2  A    between atoms: S_2  and  C_4 
REMARK    3  A    between atoms: C_12  and  C_13 
REMARK    4  A    between atoms: C_13  and  O_14 
REMARK    5  A    between atoms: C_18  and  S_21 
REMARK    6  A    between atoms: S_21  and  N_24 
ROOT
HETATM    1  C   UNL     1      26.505   7.132  11.256  1.00  0.00     0.082 C 
HETATM    2  C   UNL     1      27.031   8.312  10.749  1.00  0.00     0.050 C 
HETATM    3  C   UNL     1      25.619   7.055  12.345  1.00  0.00     0.062 C 
HETATM    4  C   UNL     1      25.108   8.294  12.781  1.00  0.00     0.046 C 
HETATM    5  C   UNL     1      25.614   9.571  12.406  1.00  0.00     0.102 C 
HETATM    6  C   UNL     1      26.554   9.502  11.357  1.00  0.00     0.058 C 
HETATM    7 CL   UNL     1      27.262  10.943  10.696  1.00  0.00    -0.083 Cl
ENDROOT
BRANCH   1   8
HETATM    8  S   UNL     1      27.006   5.644  10.393  1.00  0.00     0.207 S 
HETATM    9  O   UNL     1      27.806   6.118   9.244  1.00  0.00    -0.217 OA
HETATM   10  O   UNL     1      27.685   4.779  11.361  1.00  0.00    -0.217 OA
BRANCH   8  11
HETATM   11  C   UNL     1      25.726   4.761   9.657  1.00  0.00     0.064 A 
HETATM   12  C   UNL     1      26.079   4.076   8.524  1.00  0.00     0.024 A 
HETATM   13  C   UNL     1      25.045   3.347   7.878  1.00  0.00     0.002 A 
HETATM   14  C   UNL     1      23.790   3.189   8.391  1.00  0.00     0.000 A 
HETATM   15  C   UNL     1      23.422   3.870   9.544  1.00  0.00     0.002 A 
HETATM   16  C   UNL     1      24.430   4.660  10.159  1.00  0.00     0.024 A 
ENDBRANCH   8  11
ENDBRANCH   1   8
BRANCH   3  17
HETATM   17  C   UNL     1      25.136   5.861  13.113  1.00  0.00     0.294 C 
HETATM   18  O   UNL     1      24.114   5.315  13.094  1.00  0.00    -0.259 OA
BRANCH  17  19
HETATM   19  O   UNL     1      25.992   5.589  14.119  1.00  0.00    -0.322 OA
HETATM   20  C   UNL     1      25.604   5.318  15.415  1.00  0.00     0.213 C 
ENDBRANCH  17  19
ENDBRANCH   3  17
BRANCH   5  21
HETATM   21  S   UNL     1      24.772  11.037  12.835  1.00  0.00     0.258 S 
HETATM   22  O   UNL     1      25.532  11.888  13.867  1.00  0.00    -0.201 OA
HETATM   23  O   UNL     1      24.615  12.008  11.654  1.00  0.00    -0.201 OA
BRANCH  21  24
HETATM   24  N   UNL     1      23.146  10.865  13.500  1.00  0.00    -0.324 N 
ATOM     25  HN2 UNL     1      22.592  10.031  13.306  1.00  0.00     0.169 HD
ATOM     26  HN1 UNL     1      22.796  11.630  14.077  1.00  0.00     0.169 HD
ENDBRANCH  21  24
ENDBRANCH   5  21
TORSDOF 6
ENDMDL
MODEL 9
REMARK VINA RESULT:    -6.810      4.245      6.426
REMARK INTER + INTRA:         -10.077
REMARK INTER:                  -9.411
REMARK INTRA:                  -0.667
REMARK UNBOUND:                -1.078
REMARK  6 active torsions:
REMARK  status: ('A' for Active; 'I' for Inactive)
REMARK    1  A    between atoms: S_2  and  C_10 
REMARK    2  A    between atoms: S_2  and  C_4 
REMARK    3  A    between atoms: C_12  and  C_13 
REMARK    4  A    between atoms: C_13  and  O_14 
REMARK    5  A    between atoms: C_18  and  S_21 
REMARK    6  A    between atoms: S_21  and  N_24 
ROOT
HETATM    1  C   UNL     1      25.329   8.270  12.724  1.00  0.00     0.082 C 
HETATM    2  C   UNL     1      25.815   9.312  11.948  1.00  0.00     0.050 C 
HETATM    3  C   UNL     1      24.534   8.432  13.873  1.00  0.00     0.062 C 
HETATM    4  C   UNL     1      24.064   9.743  14.087  1.00  0.00     0.046 C 
HETATM    5  C   UNL     1      24.542  10.908  13.422  1.00  0.00     0.102 C 
HETATM    6  C   UNL     1      25.393  10.610  12.338  1.00  0.00     0.058 C 
HETATM    7 CL   UNL     1      26.049  11.874  11.344  1.00  0.00    -0.083 Cl
ENDROOT
BRANCH   1   8
HETATM    8  S   UNL     1      25.754   6.629  12.145  1.00  0.00     0.207 S 
HETATM    9  O   UNL     1      26.327   5.943  13.322  1.00  0.00    -0.217 OA
HETATM   10  O   UNL     1      24.549   6.041  11.556  1.00  0.00    -0.217 OA
BRANCH   8  11
HETATM   11  C   UNL     1      27.026   6.570  10.987  1.00  0.00     0.064 A 
HETATM   12  C   UNL     1      26.627   6.276   9.710  1.00  0.00     0.024 A 
HETATM   13  C   UNL     1      27.651   6.204   8.728  1.00  0.00     0.002 A 
HETATM   14  C   UNL     1      28.954   6.538   8.961  1.00  0.00     0.000 A 
HETATM   15  C   UNL     1      29.370   6.847  10.249  1.00  0.00     0.002 A 
HETATM   16  C   UNL     1      28.365   6.852  11.253  1.00  0.00     0.024 A 
ENDBRANCH   8  11
ENDBRANCH   1   8
BRANCH   3  17
HETATM   17  C   UNL     1      24.112   7.427  14.903  1.00  0.00     0.294 C 
HETATM   18  O   UNL     1      23.119   6.843  15.023  1.00  0.00    -0.259 OA
BRANCH  17  19
HETATM   19  O   UNL     1      24.981   7.439  15.934  1.00  0.00    -0.322 OA
HETATM   20  C   UNL     1      25.181   6.377  16.791  1.00  0.00     0.213 C 
ENDBRANCH  17  19
ENDBRANCH   3  17
BRANCH   5  21
HETATM   21  S   UNL     1      23.742  12.446  13.609  1.00  0.00     0.258 S 
HETATM   22  O   UNL     1      22.979  12.570  14.939  1.00  0.00    -0.201 OA
HETATM   23  O   UNL     1      24.721  13.630  13.677  1.00  0.00    -0.201 OA
BRANCH  21  24
HETATM   24  N   UNL     1      22.569  12.899  12.370  1.00  0.00    -0.324 N 
ATOM     25  HN2 UNL     1      21.603  12.576  12.428  1.00  0.00     0.169 HD
ATOM     26  HN1 UNL     1      22.902  13.489  11.608  1.00  0.00     0.169 HD
ENDBRANCH  21  24
ENDBRANCH   5  21
TORSDOF 6
ENDMDL
MODEL 10
REMARK VINA RESULT:    -6.741      3.415      5.795
REMARK INTER + INTRA:          -9.986
REMARK INTER:                 -10.408
REMARK INTRA:                   0.422
REMARK UNBOUND:                -1.078
REMARK  6 active torsions:
REMARK  status: ('A' for Active; 'I' for Inactive)
REMARK    1  A    between atoms: S_2  and  C_10 
REMARK    2  A    between atoms: S_2  and  C_4 
REMARK    3  A    between atoms: C_12  and  C_13 
REMARK    4  A    between atoms: C_13  and  O_14 
REMARK    5  A    between atoms: C_18  and  S_21 
REMARK    6  A    between atoms: S_21  and  N_24 
ROOT
HETATM    1  C   UNL     1      26.143   6.480  11.965  1.00  0.00     0.082 C 
HETATM    2  C   UNL     1      25.321   5.462  12.427  1.00  0.00     0.050 C 
HETATM    3  C   UNL     1      26.288   7.734  12.586  1.00  0.00     0.062 C 
HETATM    4  C   UNL     1      25.697   7.834  13.862  1.00  0.00     0.046 C 
HETATM    5  C   UNL     1      24.772   6.905  14.415  1.00  0.00     0.102 C 
HETATM    6  C   UNL     1      24.659   5.723  13.655  1.00  0.00     0.058 C 
HETATM    7 CL   UNL     1      23.630   4.423  14.171  1.00  0.00    -0.083 Cl
ENDROOT
BRANCH   1   8
HETATM    8  S   UNL     1      27.079   6.090  10.488  1.00  0.00     0.207 S 
HETATM    9  O   UNL     1      27.140   7.356   9.727  1.00  0.00    -0.217 OA
HETATM   10  O   UNL     1      28.356   5.511  10.914  1.00  0.00    -0.217 OA
BRANCH   8  11
HETATM   11  C   UNL     1      26.308   5.003   9.400  1.00  0.00     0.064 A 
HETATM   12  C   UNL     1      26.924   4.874   8.184  1.00  0.00     0.024 A 
HETATM   13  C   UNL     1      26.309   3.997   7.252  1.00  0.00     0.002 A 
HETATM   14  C   UNL     1      25.244   3.196   7.550  1.00  0.00     0.000 A 
HETATM   15  C   UNL     1      24.616   3.309   8.783  1.00  0.00     0.002 A 
HETATM   16  C   UNL     1      25.182   4.237   9.697  1.00  0.00     0.024 A 
ENDBRANCH   8  11
ENDBRANCH   1   8
BRANCH   3  17
HETATM   17  C   UNL     1      26.971   8.977  12.100  1.00  0.00     0.294 C 
HETATM   18  O   UNL     1      28.048   9.365  12.283  1.00  0.00    -0.259 OA
BRANCH  17  19
HETATM   19  O   UNL     1      26.061   9.824  11.580  1.00  0.00    -0.322 OA
HETATM   20  C   UNL     1      26.185  11.198  11.592  1.00  0.00     0.213 C 
ENDBRANCH  17  19
ENDBRANCH   3  17
BRANCH   5  21
HETATM   21  S   UNL     1      24.271   7.015  16.082  1.00  0.00     0.258 S 
HETATM   22  O   UNL     1      25.385   6.634  17.073  1.00  0.00    -0.201 OA
HETATM   23  O   UNL     1      23.920   8.449  16.512  1.00  0.00    -0.201 OA
BRANCH  21  24
HETATM   24  N   UNL     1      22.879   6.044  16.570  1.00  0.00    -0.324 N 
ATOM     25  HN2 UNL     1      22.108   5.882  15.923  1.00  0.00     0.169 HD
ATOM     26  HN1 UNL     1      22.888   5.660  17.515  1.00  0.00     0.169 HD
ENDBRANCH  21  24
ENDBRANCH   5  21
TORSDOF 6
ENDMDL
MODEL 11
REMARK VINA RESULT:    -6.737      1.843      3.171
REMARK INTER + INTRA:          -9.981
REMARK INTER:                  -9.063
REMARK INTRA:                  -0.918
REMARK UNBOUND:                -1.078
REMARK  6 active torsions:
REMARK  status: ('A' for Active; 'I' for Inactive)
REMARK    1  A    between atoms: S_2  and  C_10 
REMARK    2  A    between atoms: S_2  and  C_4 
REMARK    3  A    between atoms: C_12  and  C_13 
REMARK    4  A    between atoms: C_13  and  O_14 
REMARK    5  A    between atoms: C_18  and  S_21 
REMARK    6  A    between atoms: S_21  and  N_24 
ROOT
HETATM    1  C   UNL     1      26.341   6.374  11.597  1.00  0.00     0.082 C 
HETATM    2  C   UNL     1      25.192   5.808  12.130  1.00  0.00     0.050 C 
HETATM    3  C   UNL     1      27.038   5.868  10.485  1.00  0.00     0.062 C 
HETATM    4  C   UNL     1      26.372   4.842   9.785  1.00  0.00     0.046 C 
HETATM    5  C   UNL     1      25.239   4.123  10.260  1.00  0.00     0.102 C 
HETATM    6  C   UNL     1      24.680   4.687  11.425  1.00  0.00     0.058 C 
HETATM    7 CL   UNL     1      23.255   4.010  12.151  1.00  0.00    -0.083 Cl
ENDROOT
BRANCH   1   8
HETATM    8  S   UNL     1      26.901   7.868  12.410  1.00  0.00     0.207 S 
HETATM    9  O   UNL     1      25.720   8.372  13.143  1.00  0.00    -0.217 OA
HETATM   10  O   UNL     1      28.079   7.522  13.209  1.00  0.00    -0.217 OA
BRANCH   8  11
HETATM   11  C   UNL     1      27.303   9.166  11.355  1.00  0.00     0.064 A 
HETATM   12  C   UNL     1      28.568   9.667  11.516  1.00  0.00     0.024 A 
HETATM   13  C   UNL     1      28.932  10.750  10.673  1.00  0.00     0.002 A 
HETATM   14  C   UNL     1      28.157  11.211   9.648  1.00  0.00     0.000 A 
HETATM   15  C   UNL     1      26.876  10.705   9.467  1.00  0.00     0.002 A 
HETATM   16  C   UNL     1      26.475   9.669  10.352  1.00  0.00     0.024 A 
ENDBRANCH   8  11
ENDBRANCH   1   8
BRANCH   3  17
HETATM   17  C   UNL     1      28.378   6.251   9.932  1.00  0.00     0.294 C 
HETATM   18  O   UNL     1      29.425   6.256  10.429  1.00  0.00    -0.259 OA
BRANCH  17  19
HETATM   19  O   UNL     1      28.221   6.893   8.757  1.00  0.00    -0.322 OA
HETATM   20  C   UNL     1      29.146   7.762   8.218  1.00  0.00     0.213 C 
ENDBRANCH  17  19
ENDBRANCH   3  17
BRANCH   5  21
HETATM   21  S   UNL     1      24.367   3.025   9.223  1.00  0.00     0.258 S 
HETATM   22  O   UNL     1      24.593   1.547   9.585  1.00  0.00    -0.201 OA
HETATM   23  O   UNL     1      22.841   3.167   9.343  1.00  0.00    -0.201 OA
BRANCH  21  24
HETATM   24  N   UNL     1      24.696   3.122   7.491  1.00  0.00    -0.324 N 
ATOM     25  HN2 UNL     1      24.371   3.921   6.946  1.00  0.00     0.169 HD
ATOM     26  HN1 UNL     1      25.218   2.353   7.072  1.00  0.00     0.169 HD
ENDBRANCH  21  24
ENDBRANCH   5  21
TORSDOF 6
ENDMDL
MODEL 12
REMARK VINA RESULT:    -6.727      2.224      2.946
REMARK INTER + INTRA:          -9.968
REMARK INTER:                  -9.232
REMARK INTRA:                  -0.736
REMARK UNBOUND:                -1.078
REMARK  6 active torsions:
REMARK  status: ('A' for Active; 'I' for Inactive)
REMARK    1  A    between atoms: S_2  and  C_10 
REMARK    2  A    between atoms: S_2  and  C_4 
REMARK    3  A    between atoms: C_12  and  C_13 
REMARK    4  A    between atoms: C_13  and  O_14 
REMARK    5  A    between atoms: C_18  and  S_21 
REMARK    6  A    between atoms: S_21  and  N_24 
ROOT
HETATM    1  C   UNL     1      27.475   6.669   9.470  1.00  0.00     0.082 C 
HETATM    2  C   UNL     1      27.139   5.582   8.675  1.00  0.00     0.050 C 
HETATM    3  C   UNL     1      26.683   7.163  10.522  1.00  0.00     0.062 C 
HETATM    4  C   UNL     1      25.593   6.343  10.878  1.00  0.00     0.046 C 
HETATM    5  C   UNL     1      25.095   5.255  10.107  1.00  0.00     0.102 C 
HETATM    6  C   UNL     1      25.942   4.910   9.034  1.00  0.00     0.058 C 
HETATM    7 CL   UNL     1      25.564   3.574   7.992  1.00  0.00    -0.083 Cl
ENDROOT
BRANCH   1   8
HETATM    8  S   UNL     1      29.054   7.427   9.096  1.00  0.00     0.207 S 
HETATM    9  O   UNL     1      29.817   6.387   8.373  1.00  0.00    -0.217 OA
HETATM   10  O   UNL     1      28.787   8.674   8.375  1.00  0.00    -0.217 OA
BRANCH   8  11
HETATM   11  C   UNL     1      30.040   7.772  10.463  1.00  0.00     0.064 A 
HETATM   12  C   UNL     1      30.519   9.054  10.517  1.00  0.00     0.024 A 
HETATM   13  C   UNL     1      31.350   9.373  11.623  1.00  0.00     0.002 A 
HETATM   14  C   UNL     1      31.574   8.531  12.674  1.00  0.00     0.000 A 
HETATM   15  C   UNL     1      31.086   7.232  12.637  1.00  0.00     0.002 A 
HETATM   16  C   UNL     1      30.313   6.880  11.499  1.00  0.00     0.024 A 
ENDBRANCH   8  11
ENDBRANCH   1   8
BRANCH   3  17
HETATM   17  C   UNL     1      26.819   8.425  11.321  1.00  0.00     0.294 C 
HETATM   18  O   UNL     1      27.038   8.584  12.448  1.00  0.00    -0.259 OA
BRANCH  17  19
HETATM   19  O   UNL     1      26.376   9.472  10.598  1.00  0.00    -0.322 OA
HETATM   20  C   UNL     1      26.676  10.789  10.876  1.00  0.00     0.213 C 
ENDBRANCH  17  19
ENDBRANCH   3  17
BRANCH   5  21
HETATM   21  S   UNL     1      23.881   4.179  10.745  1.00  0.00     0.258 S 
HETATM   22  O   UNL     1      22.511   4.345  10.065  1.00  0.00    -0.201 OA
HETATM   23  O   UNL     1      24.199   2.695  10.494  1.00  0.00    -0.201 OA
BRANCH  21  24
HETATM   24  N   UNL     1      23.542   4.282  12.475  1.00  0.00    -0.324 N 
ATOM     25  HN2 UNL     1      23.749   3.496  13.091  1.00  0.00     0.169 HD
ATOM     26  HN1 UNL     1      23.137   5.152  12.818  1.00  0.00     0.169 HD
ENDBRANCH  21  24
ENDBRANCH   5  21
TORSDOF 6
ENDMDL
MODEL 13
REMARK VINA RESULT:    -6.698      3.576      6.417
REMARK INTER + INTRA:          -9.930
REMARK INTER:                  -9.734
REMARK INTRA:                  -0.196
REMARK UNBOUND:                -1.078
REMARK  6 active torsions:
REMARK  status: ('A' for Active; 'I' for Inactive)
REMARK    1  A    between atoms: S_2  and  C_10 
REMARK    2  A    between atoms: S_2  and  C_4 
REMARK    3  A    between atoms: C_12  and  C_13 
REMARK    4  A    between atoms: C_13  and  O_14 
REMARK    5  A    between atoms: C_18  and  S_21 
REMARK    6  A    between atoms: S_21  and  N_24 
ROOT
HETATM    1  C   UNL     1      27.154   6.642  11.535  1.00  0.00     0.082 C 
HETATM    2  C   UNL     1      28.104   6.281  10.591  1.00  0.00     0.050 C 
HETATM    3  C   UNL     1      27.381   7.543  12.592  1.00  0.00     0.062 C 
HETATM    4  C   UNL     1      28.601   8.245  12.520  1.00  0.00     0.046 C 
HETATM    5  C   UNL     1      29.687   7.922  11.659  1.00  0.00     0.102 C 
HETATM    6  C   UNL     1      29.352   6.949  10.695  1.00  0.00     0.058 C 
HETATM    7 CL   UNL     1      30.505   6.441   9.500  1.00  0.00    -0.083 Cl
ENDROOT
BRANCH   1   8
HETATM    8  S   UNL     1      25.540   5.898  11.314  1.00  0.00     0.207 S 
HETATM    9  O   UNL     1      25.385   4.971  12.455  1.00  0.00    -0.217 OA
HETATM   10  O   UNL     1      24.563   6.985  11.205  1.00  0.00    -0.217 OA
BRANCH   8  11
HETATM   11  C   UNL     1      25.391   4.873   9.940  1.00  0.00     0.064 A 
HETATM   12  C   UNL     1      24.238   4.134   9.897  1.00  0.00     0.024 A 
HETATM   13  C   UNL     1      24.085   3.264   8.785  1.00  0.00     0.002 A 
HETATM   14  C   UNL     1      24.940   3.232   7.721  1.00  0.00     0.000 A 
HETATM   15  C   UNL     1      26.107   3.983   7.747  1.00  0.00     0.002 A 
HETATM   16  C   UNL     1      26.304   4.804   8.890  1.00  0.00     0.024 A 
ENDBRANCH   8  11
ENDBRANCH   1   8
BRANCH   3  17
HETATM   17  C   UNL     1      26.527   7.868  13.782  1.00  0.00     0.294 C 
HETATM   18  O   UNL     1      25.921   8.822  14.036  1.00  0.00    -0.259 OA
BRANCH  17  19
HETATM   19  O   UNL     1      26.739   6.961  14.756  1.00  0.00    -0.322 OA
HETATM   20  C   UNL     1      25.757   6.486  15.600  1.00  0.00     0.213 C 
ENDBRANCH  17  19
ENDBRANCH   3  17
BRANCH   5  21
HETATM   21  S   UNL     1      31.060   8.985  11.500  1.00  0.00     0.258 S 
HETATM   22  O   UNL     1      31.108   9.709  10.143  1.00  0.00    -0.201 OA
HETATM   23  O   UNL     1      31.035  10.154  12.499  1.00  0.00    -0.201 OA
BRANCH  21  24
HETATM   24  N   UNL     1      32.661   8.265  11.686  1.00  0.00    -0.324 N 
ATOM     25  HN2 UNL     1      33.058   8.116  12.614  1.00  0.00     0.169 HD
ATOM     26  HN1 UNL     1      33.158   8.010  10.833  1.00  0.00     0.169 HD
ENDBRANCH  21  24
ENDBRANCH   5  21
TORSDOF 6
ENDMDL
MODEL 14
REMARK VINA RESULT:    -6.618      3.868      6.492
REMARK INTER + INTRA:          -9.824
REMARK INTER:                 -10.027
REMARK INTRA:                   0.202
REMARK UNBOUND:                -1.078
REMARK  6 active torsions:
REMARK  status: ('A' for Active; 'I' for Inactive)
REMARK    1  A    between atoms: S_2  and  C_10 
REMARK    2  A    between atoms: S_2  and  C_4 
REMARK    3  A    between atoms: C_12  and  C_13 
REMARK    4  A    between atoms: C_13  and  O_14 
REMARK    5  A    between atoms: C_18  and  S_21 
REMARK    6  A    between atoms: S_21  and  N_24 
ROOT
HETATM    1  C   UNL     1      26.490   7.536  11.163  1.00  0.00     0.082 C 
HETATM    2  C   UNL     1      25.550   7.121  12.096  1.00  0.00     0.050 C 
HETATM    3  C   UNL     1      26.842   8.877  10.925  1.00  0.00     0.062 C 
HETATM    4  C   UNL     1      26.327   9.799  11.859  1.00  0.00     0.046 C 
HETATM    5  C   UNL     1      25.301   9.524  12.807  1.00  0.00     0.102 C 
HETATM    6  C   UNL     1      24.986   8.152  12.892  1.00  0.00     0.058 C 
HETATM    7 CL   UNL     1      23.803   7.576  14.025  1.00  0.00    -0.083 Cl
ENDROOT
BRANCH   1   8
HETATM    8  S   UNL     1      27.297   6.217  10.258  1.00  0.00     0.207 S 
HETATM    9  O   UNL     1      27.938   6.881   9.103  1.00  0.00    -0.217 OA
HETATM   10  O   UNL     1      28.180   5.514  11.193  1.00  0.00    -0.217 OA
BRANCH   8  11
HETATM   11  C   UNL     1      26.235   5.077   9.529  1.00  0.00     0.064 A 
HETATM   12  C   UNL     1      26.618   4.649   8.285  1.00  0.00     0.024 A 
HETATM   13  C   UNL     1      25.758   3.719   7.643  1.00  0.00     0.002 A 
HETATM   14  C   UNL     1      24.676   3.143   8.244  1.00  0.00     0.000 A 
HETATM   15  C   UNL     1      24.283   3.559   9.509  1.00  0.00     0.002 A 
HETATM   16  C   UNL     1      25.096   4.544  10.131  1.00  0.00     0.024 A 
ENDBRANCH   8  11
ENDBRANCH   1   8
BRANCH   3  17
HETATM   17  C   UNL     1      27.677   9.475   9.833  1.00  0.00     0.294 C 
HETATM   18  O   UNL     1      28.814   9.697   9.789  1.00  0.00    -0.259 OA
BRANCH  17  19
HETATM   19  O   UNL     1      26.878  10.024   8.896  1.00  0.00    -0.322 OA
HETATM   20  C   UNL     1      26.872  11.364   8.570  1.00  0.00     0.213 C 
ENDBRANCH  17  19
ENDBRANCH   3  17
BRANCH   5  21
HETATM   21  S   UNL     1      24.893  10.673  14.053  1.00  0.00     0.258 S 
HETATM   22  O   UNL     1      23.384  10.961  14.137  1.00  0.00    -0.201 OA
HETATM   23  O   UNL     1      25.213  10.165  15.469  1.00  0.00    -0.201 OA
BRANCH  21  24
HETATM   24  N   UNL     1      25.653  12.264  13.961  1.00  0.00    -0.324 N 
ATOM     25  HN2 UNL     1      25.864  12.787  14.810  1.00  0.00     0.169 HD
ATOM     26  HN1 UNL     1      25.865  12.625  13.031  1.00  0.00     0.169 HD
ENDBRANCH  21  24
ENDBRANCH   5  21
TORSDOF 6
ENDMDL
MODEL 15
REMARK VINA RESULT:    -6.601      3.881      6.456
REMARK INTER + INTRA:          -9.802
REMARK INTER:                  -8.943
REMARK INTRA:                  -0.860
REMARK UNBOUND:                -1.078
REMARK  6 active torsions:
REMARK  status: ('A' for Active; 'I' for Inactive)
REMARK    1  A    between atoms: S_2  and  C_10 
REMARK    2  A    between atoms: S_2  and  C_4 
REMARK    3  A    between atoms: C_12  and  C_13 
REMARK    4  A    between atoms: C_13  and  O_14 
REMARK    5  A    between atoms: C_18  and  S_21 
REMARK    6  A    between atoms: S_21  and  N_24 
ROOT
HETATM    1  C   UNL     1      26.982   7.583  12.268  1.00  0.00     0.082 C 
HETATM    2  C   UNL     1      27.717   7.006  11.243  1.00  0.00     0.050 C 
HETATM    3  C   UNL     1      27.510   8.454  13.238  1.00  0.00     0.062 C 
HETATM    4  C   UNL     1      28.826   8.893  12.986  1.00  0.00     0.046 C 
HETATM    5  C   UNL     1      29.712   8.328  12.025  1.00  0.00     0.102 C 
HETATM    6  C   UNL     1      29.075   7.411  11.164  1.00  0.00     0.058 C 
HETATM    7 CL   UNL     1      29.948   6.640   9.876  1.00  0.00    -0.083 Cl
ENDROOT
BRANCH   1   8
HETATM    8  S   UNL     1      25.238   7.173  12.278  1.00  0.00     0.207 S 
HETATM    9  O   UNL     1      24.539   8.471  12.161  1.00  0.00    -0.217 OA
HETATM   10  O   UNL     1      25.007   6.197  11.210  1.00  0.00    -0.217 OA
BRANCH   8  11
HETATM   11  C   UNL     1      24.647   6.530  13.760  1.00  0.00     0.064 A 
HETATM   12  C   UNL     1      23.663   7.272  14.357  1.00  0.00     0.024 A 
HETATM   13  C   UNL     1      23.160   6.781  15.591  1.00  0.00     0.002 A 
HETATM   14  C   UNL     1      23.502   5.572  16.125  1.00  0.00     0.000 A 
HETATM   15  C   UNL     1      24.492   4.805  15.525  1.00  0.00     0.002 A 
HETATM   16  C   UNL     1      25.053   5.322  14.327  1.00  0.00     0.024 A 
ENDBRANCH   8  11
ENDBRANCH   1   8
BRANCH   3  17
HETATM   17  C   UNL     1      26.892   8.985  14.497  1.00  0.00     0.294 C 
HETATM   18  O   UNL     1      26.692   8.467  15.515  1.00  0.00    -0.259 OA
BRANCH  17  19
HETATM   19  O   UNL     1      26.296  10.168  14.249  1.00  0.00    -0.322 OA
HETATM   20  C   UNL     1      25.167  10.619  14.899  1.00  0.00     0.213 C 
ENDBRANCH  17  19
ENDBRANCH   3  17
BRANCH   5  21
HETATM   21  S   UNL     1      31.236   9.086  11.649  1.00  0.00     0.258 S 
HETATM   22  O   UNL     1      31.258   9.736  10.254  1.00  0.00    -0.201 OA
HETATM   23  O   UNL     1      31.565  10.270  12.572  1.00  0.00    -0.201 OA
BRANCH  21  24
HETATM   24  N   UNL     1      32.676   8.064  11.694  1.00  0.00    -0.324 N 
ATOM     25  HN2 UNL     1      33.607   8.481  11.701  1.00  0.00     0.169 HD
ATOM     26  HN1 UNL     1      32.529   7.055  11.713  1.00  0.00     0.169 HD
ENDBRANCH  21  24
ENDBRANCH   5  21
TORSDOF 6
ENDMDL
MODEL 16
REMARK VINA RESULT:    -6.593      2.362      3.676
REMARK INTER + INTRA:          -9.791
REMARK INTER:                  -9.395
REMARK INTRA:                  -0.396
REMARK UNBOUND:                -1.078
REMARK  6 active torsions:
REMARK  status: ('A' for Active; 'I' for Inactive)
REMARK    1  A    between atoms: S_2  and  C_10 
REMARK    2  A    between atoms: S_2  and  C_4 
REMARK    3  A    between atoms: C_12  and  C_13 
REMARK    4  A    between atoms: C_13  and  O_14 
REMARK    5  A    between atoms: C_18  and  S_21 
REMARK    6  A    between atoms: S_21  and  N_24 
ROOT
HETATM    1  C   UNL     1      26.342   6.393  11.606  1.00  0.00     0.082 C 
HETATM    2  C   UNL     1      25.181   5.830  12.118  1.00  0.00     0.050 C 
HETATM    3  C   UNL     1      27.060   5.882  10.510  1.00  0.00     0.062 C 
HETATM    4  C   UNL     1      26.406   4.855   9.799  1.00  0.00     0.046 C 
HETATM    5  C   UNL     1      25.263   4.140  10.254  1.00  0.00     0.102 C 
HETATM    6  C   UNL     1      24.682   4.708  11.407  1.00  0.00     0.058 C 
HETATM    7 CL   UNL     1      23.242   4.036  12.106  1.00  0.00    -0.083 Cl
ENDROOT
BRANCH   1   8
HETATM    8  S   UNL     1      26.889   7.889  12.426  1.00  0.00     0.207 S 
HETATM    9  O   UNL     1      27.966   7.453  13.340  1.00  0.00    -0.217 OA
HETATM   10  O   UNL     1      27.250   8.856  11.387  1.00  0.00    -0.217 OA
BRANCH   8  11
HETATM   11  C   UNL     1      25.733   8.607  13.480  1.00  0.00     0.064 A 
HETATM   12  C   UNL     1      25.242   9.814  13.057  1.00  0.00     0.024 A 
HETATM   13  C   UNL     1      24.297  10.446  13.908  1.00  0.00     0.002 A 
HETATM   14  C   UNL     1      23.768   9.863  15.023  1.00  0.00     0.000 A 
HETATM   15  C   UNL     1      24.250   8.635  15.458  1.00  0.00     0.002 A 
HETATM   16  C   UNL     1      25.248   8.027  14.651  1.00  0.00     0.024 A 
ENDBRANCH   8  11
ENDBRANCH   1   8
BRANCH   3  17
HETATM   17  C   UNL     1      28.412   6.261   9.982  1.00  0.00     0.294 C 
HETATM   18  O   UNL     1      29.447   6.281  10.504  1.00  0.00    -0.259 OA
BRANCH  17  19
HETATM   19  O   UNL     1      28.280   6.881   8.792  1.00  0.00    -0.322 OA
HETATM   20  C   UNL     1      29.209   7.754   8.266  1.00  0.00     0.213 C 
ENDBRANCH  17  19
ENDBRANCH   3  17
BRANCH   5  21
HETATM   21  S   UNL     1      24.410   3.041   9.203  1.00  0.00     0.258 S 
HETATM   22  O   UNL     1      24.635   1.563   9.566  1.00  0.00    -0.201 OA
HETATM   23  O   UNL     1      22.881   3.177   9.301  1.00  0.00    -0.201 OA
BRANCH  21  24
HETATM   24  N   UNL     1      24.763   3.142   7.476  1.00  0.00    -0.324 N 
ATOM     25  HN2 UNL     1      25.315   2.417   7.017  1.00  0.00     0.169 HD
ATOM     26  HN1 UNL     1      24.393   3.947   6.972  1.00  0.00     0.169 HD
ENDBRANCH  21  24
ENDBRANCH   5  21
TORSDOF 6
ENDMDL
MODEL 17
REMARK VINA RESULT:    -6.454      3.462      6.362
REMARK INTER + INTRA:          -9.608
REMARK INTER:                  -9.476
REMARK INTRA:                  -0.132
REMARK UNBOUND:                -1.078
REMARK  6 active torsions:
REMARK  status: ('A' for Active; 'I' for Inactive)
REMARK    1  A    between atoms: S_2  and  C_10 
REMARK    2  A    between atoms: S_2  and  C_4 
REMARK    3  A    between atoms: C_12  and  C_13 
REMARK    4  A    between atoms: C_13  and  O_14 
REMARK    5  A    between atoms: C_18  and  S_21 
REMARK    6  A    between atoms: S_21  and  N_24 
ROOT
HETATM    1  C   UNL     1      26.174   6.987  11.669  1.00  0.00     0.082 C 
HETATM    2  C   UNL     1      26.681   7.489  10.479  1.00  0.00     0.050 C 
HETATM    3  C   UNL     1      26.128   7.699  12.881  1.00  0.00     0.062 C 
HETATM    4  C   UNL     1      26.441   9.070  12.775  1.00  0.00     0.046 C 
HETATM    5  C   UNL     1      27.043   9.691  11.645  1.00  0.00     0.102 C 
HETATM    6  C   UNL     1      27.101   8.844  10.519  1.00  0.00     0.058 C 
HETATM    7 CL   UNL     1      27.744   9.410   9.008  1.00  0.00    -0.083 Cl
ENDROOT
BRANCH   1   8
HETATM    8  S   UNL     1      25.520   5.322  11.575  1.00  0.00     0.207 S 
HETATM    9  O   UNL     1      26.516   4.479  12.271  1.00  0.00    -0.217 OA
HETATM   10  O   UNL     1      24.166   5.346  12.133  1.00  0.00    -0.217 OA
BRANCH   8  11
HETATM   11  C   UNL     1      25.460   4.650   9.992  1.00  0.00     0.064 A 
HETATM   12  C   UNL     1      26.562   4.903   9.218  1.00  0.00     0.024 A 
HETATM   13  C   UNL     1      26.543   4.379   7.899  1.00  0.00     0.002 A 
HETATM   14  C   UNL     1      25.572   3.543   7.426  1.00  0.00     0.000 A 
HETATM   15  C   UNL     1      24.455   3.270   8.204  1.00  0.00     0.002 A 
HETATM   16  C   UNL     1      24.431   3.850   9.500  1.00  0.00     0.024 A 
ENDBRANCH   8  11
ENDBRANCH   1   8
BRANCH   3  17
HETATM   17  C   UNL     1      25.799   7.226  14.266  1.00  0.00     0.294 C 
HETATM   18  O   UNL     1      26.341   6.462  14.950  1.00  0.00    -0.259 OA
BRANCH  17  19
HETATM   19  O   UNL     1      24.551   7.614  14.596  1.00  0.00    -0.322 OA
HETATM   20  C   UNL     1      23.921   7.275  15.775  1.00  0.00     0.213 C 
ENDBRANCH  17  19
ENDBRANCH   3  17
BRANCH   5  21
HETATM   21  S   UNL     1      27.187  11.425  11.539  1.00  0.00     0.258 S 
HETATM   22  O   UNL     1      26.675  12.150  12.796  1.00  0.00    -0.201 OA
HETATM   23  O   UNL     1      28.646  11.904  11.451  1.00  0.00    -0.201 OA
BRANCH  21  24
HETATM   24  N   UNL     1      26.368  12.221  10.193  1.00  0.00    -0.324 N 
ATOM     25  HN2 UNL     1      25.824  13.070  10.346  1.00  0.00     0.169 HD
ATOM     26  HN1 UNL     1      26.465  11.794   9.272  1.00  0.00     0.169 HD
ENDBRANCH  21  24
ENDBRANCH   5  21
TORSDOF 6
ENDMDL
MODEL 18
REMARK VINA RESULT:    -6.323      3.961      7.023
REMARK INTER + INTRA:          -9.434
REMARK INTER:                  -8.827
REMARK INTRA:                  -0.608
REMARK UNBOUND:                -1.078
REMARK  6 active torsions:
REMARK  status: ('A' for Active; 'I' for Inactive)
REMARK    1  A    between atoms: S_2  and  C_10 
REMARK    2  A    between atoms: S_2  and  C_4 
REMARK    3  A    between atoms: C_12  and  C_13 
REMARK    4  A    between atoms: C_13  and  O_14 
REMARK    5  A    between atoms: C_18  and  S_21 
REMARK    6  A    between atoms: S_21  and  N_24 
ROOT
HETATM    1  C   UNL     1      28.113   8.115  10.654  1.00  0.00     0.082 C 
HETATM    2  C   UNL     1      27.242   8.646   9.714  1.00  0.00     0.050 C 
HETATM    3  C   UNL     1      29.248   8.777  11.155  1.00  0.00     0.062 C 
HETATM    4  C   UNL     1      29.345  10.138  10.799  1.00  0.00     0.046 C 
HETATM    5  C   UNL     1      28.572  10.782   9.792  1.00  0.00     0.102 C 
HETATM    6  C   UNL     1      27.514   9.981   9.316  1.00  0.00     0.058 C 
HETATM    7 CL   UNL     1      26.404  10.583   8.124  1.00  0.00    -0.083 Cl
ENDROOT
BRANCH   1   8
HETATM    8  S   UNL     1      27.683   6.482  11.253  1.00  0.00     0.207 S 
HETATM    9  O   UNL     1      28.945   5.713  11.207  1.00  0.00    -0.217 OA
HETATM   10  O   UNL     1      27.052   6.643  12.565  1.00  0.00    -0.217 OA
BRANCH   8  11
HETATM   11  C   UNL     1      26.628   5.585  10.232  1.00  0.00     0.064 A 
HETATM   12  C   UNL     1      27.182   5.180   9.046  1.00  0.00     0.024 A 
HETATM   13  C   UNL     1      26.337   4.450   8.169  1.00  0.00     0.002 A 
HETATM   14  C   UNL     1      25.081   4.027   8.499  1.00  0.00     0.000 A 
HETATM   15  C   UNL     1      24.511   4.421   9.702  1.00  0.00     0.002 A 
HETATM   16  C   UNL     1      25.324   5.213  10.556  1.00  0.00     0.024 A 
ENDBRANCH   8  11
ENDBRANCH   1   8
BRANCH   3  17
HETATM   17  C   UNL     1      30.369   8.260  12.007  1.00  0.00     0.294 C 
HETATM   18  O   UNL     1      30.422   8.068  13.149  1.00  0.00    -0.259 OA
BRANCH  17  19
HETATM   19  O   UNL     1      31.518   8.268  11.302  1.00  0.00    -0.322 OA
HETATM   20  C   UNL     1      32.685   8.868  11.729  1.00  0.00     0.213 C 
ENDBRANCH  17  19
ENDBRANCH   3  17
BRANCH   5  21
HETATM   21  S   UNL     1      28.624  12.512   9.583  1.00  0.00     0.258 S 
HETATM   22  O   UNL     1      27.364  13.220  10.111  1.00  0.00    -0.201 OA
HETATM   23  O   UNL     1      29.746  13.183  10.393  1.00  0.00    -0.201 OA
BRANCH  21  24
HETATM   24  N   UNL     1      28.828  13.119   7.938  1.00  0.00    -0.324 N 
ATOM     25  HN2 UNL     1      28.168  12.861   7.205  1.00  0.00     0.169 HD
ATOM     26  HN1 UNL     1      29.626  13.730   7.763  1.00  0.00     0.169 HD
ENDBRANCH  21  24
ENDBRANCH   5  21
TORSDOF 6
ENDMDL
MODEL 19
REMARK VINA RESULT:    -6.233      4.183      6.951
REMARK INTER + INTRA:          -9.315
REMARK INTER:                  -8.401
REMARK INTRA:                  -0.914
REMARK UNBOUND:                -1.078
REMARK  6 active torsions:
REMARK  status: ('A' for Active; 'I' for Inactive)
REMARK    1  A    between atoms: S_2  and  C_10 
REMARK    2  A    between atoms: S_2  and  C_4 
REMARK    3  A    between atoms: C_12  and  C_13 
REMARK    4  A    between atoms: C_13  and  O_14 
REMARK    5  A    between atoms: C_18  and  S_21 
REMARK    6  A    between atoms: S_21  and  N_24 
ROOT
HETATM    1  C   UNL     1      27.135   8.555  12.348  1.00  0.00     0.082 C 
HETATM    2  C   UNL     1      27.704   9.773  12.693  1.00  0.00     0.050 C 
HETATM    3  C   UNL     1      27.802   7.529  11.654  1.00  0.00     0.062 C 
HETATM    4  C   UNL     1      29.191   7.721  11.505  1.00  0.00     0.046 C 
HETATM    5  C   UNL     1      29.882   8.943  11.740  1.00  0.00     0.102 C 
HETATM    6  C   UNL     1      29.078   9.917  12.368  1.00  0.00     0.058 C 
HETATM    7 CL   UNL     1      29.729  11.466  12.805  1.00  0.00    -0.083 Cl
ENDROOT
BRANCH   1   8
HETATM    8  S   UNL     1      25.440   8.329  12.883  1.00  0.00     0.207 S 
HETATM    9  O   UNL     1      25.161   9.480  13.768  1.00  0.00    -0.217 OA
HETATM   10  O   UNL     1      24.611   8.199  11.682  1.00  0.00    -0.217 OA
BRANCH   8  11
HETATM   11  C   UNL     1      25.171   6.966  13.898  1.00  0.00     0.064 A 
HETATM   12  C   UNL     1      25.736   7.056  15.143  1.00  0.00     0.024 A 
HETATM   13  C   UNL     1      25.549   5.943  16.004  1.00  0.00     0.002 A 
HETATM   14  C   UNL     1      24.743   4.881  15.712  1.00  0.00     0.000 A 
HETATM   15  C   UNL     1      24.157   4.781  14.457  1.00  0.00     0.002 A 
HETATM   16  C   UNL     1      24.396   5.857  13.561  1.00  0.00     0.024 A 
ENDBRANCH   8  11
ENDBRANCH   1   8
BRANCH   3  17
HETATM   17  C   UNL     1      27.265   6.266  11.050  1.00  0.00     0.294 C 
HETATM   18  O   UNL     1      27.281   5.176  11.443  1.00  0.00    -0.259 OA
BRANCH  17  19
HETATM   19  O   UNL     1      26.944   6.480   9.758  1.00  0.00    -0.322 OA
HETATM   20  C   UNL     1      27.098   5.544   8.756  1.00  0.00     0.213 C 
ENDBRANCH  17  19
ENDBRANCH   3  17
BRANCH   5  21
HETATM   21  S   UNL     1      31.624   9.010  11.731  1.00  0.00     0.258 S 
HETATM   22  O   UNL     1      32.277   7.667  11.358  1.00  0.00    -0.201 OA
HETATM   23  O   UNL     1      32.186   9.961  10.661  1.00  0.00    -0.201 OA
BRANCH  21  24
HETATM   24  N   UNL     1      32.419   9.497  13.231  1.00  0.00    -0.324 N 
ATOM     25  HN2 UNL     1      33.361   9.886  13.216  1.00  0.00     0.169 HD
ATOM     26  HN1 UNL     1      31.895   9.371  14.097  1.00  0.00     0.169 HD
ENDBRANCH  21  24
ENDBRANCH   5  21
TORSDOF 6
ENDMDL
MODEL 20
REMARK VINA RESULT:    -6.185      2.547      3.854
REMARK INTER + INTRA:          -9.252
REMARK INTER:                  -8.493
REMARK INTRA:                  -0.759
REMARK UNBOUND:                -1.078
REMARK  6 active torsions:
REMARK  status: ('A' for Active; 'I' for Inactive)
REMARK    1  A    between atoms: S_2  and  C_10 
REMARK    2  A    between atoms: S_2  and  C_4 
REMARK    3  A    between atoms: C_12  and  C_13 
REMARK    4  A    between atoms: C_13  and  O_14 
REMARK    5  A    between atoms: C_18  and  S_21 
REMARK    6  A    between atoms: S_21  and  N_24 
ROOT
HETATM    1  C   UNL     1      26.986   7.029  11.627  1.00  0.00     0.082 C 
HETATM    2  C   UNL     1      25.990   6.519  12.447  1.00  0.00     0.050 C 
HETATM    3  C   UNL     1      27.311   6.522  10.356  1.00  0.00     0.062 C 
HETATM    4  C   UNL     1      26.406   5.567   9.850  1.00  0.00     0.046 C 
HETATM    5  C   UNL     1      25.399   4.905  10.607  1.00  0.00     0.102 C 
HETATM    6  C   UNL     1      25.226   5.460  11.892  1.00  0.00     0.058 C 
HETATM    7 CL   UNL     1      24.011   4.849  12.972  1.00  0.00    -0.083 Cl
ENDROOT
BRANCH   1   8
HETATM    8  S   UNL     1      27.854   8.454  12.279  1.00  0.00     0.207 S 
HETATM    9  O   UNL     1      27.502   9.566  11.372  1.00  0.00    -0.217 OA
HETATM   10  O   UNL     1      27.471   8.599  13.686  1.00  0.00    -0.217 OA
BRANCH   8  11
HETATM   11  C   UNL     1      29.569   8.375  12.172  1.00  0.00     0.064 A 
HETATM   12  C   UNL     1      30.152   9.418  11.502  1.00  0.00     0.024 A 
HETATM   13  C   UNL     1      31.566   9.381  11.379  1.00  0.00     0.002 A 
HETATM   14  C   UNL     1      32.359   8.457  11.996  1.00  0.00     0.000 A 
HETATM   15  C   UNL     1      31.783   7.400  12.687  1.00  0.00     0.002 A 
HETATM   16  C   UNL     1      30.364   7.389  12.755  1.00  0.00     0.024 A 
ENDBRANCH   8  11
ENDBRANCH   1   8
BRANCH   3  17
HETATM   17  C   UNL     1      28.471   6.838   9.460  1.00  0.00     0.294 C 
HETATM   18  O   UNL     1      29.575   6.485   9.501  1.00  0.00    -0.259 OA
BRANCH  17  19
HETATM   19  O   UNL     1      28.157   7.873   8.655  1.00  0.00    -0.322 OA
HETATM   20  C   UNL     1      29.044   8.861   8.281  1.00  0.00     0.213 C 
ENDBRANCH  17  19
ENDBRANCH   3  17
BRANCH   5  21
HETATM   21  S   UNL     1      24.199   3.905   9.833  1.00  0.00     0.258 S 
HETATM   22  O   UNL     1      23.952   2.578  10.573  1.00  0.00    -0.201 OA
HETATM   23  O   UNL     1      22.800   4.543   9.820  1.00  0.00    -0.201 OA
BRANCH  21  24
HETATM   24  N   UNL     1      24.500   3.439   8.157  1.00  0.00    -0.324 N 
ATOM     25  HN2 UNL     1      23.848   2.829   7.664  1.00  0.00     0.169 HD
ATOM     26  HN1 UNL     1      25.344   3.805   7.717  1.00  0.00     0.169 HD
ENDBRANCH  21  24
ENDBRANCH   5  21
TORSDOF 6
ENDMDL
