MODEL 1
REMARK VINA RESULT:   -12.761      0.000      0.000
REMARK INTER + INTRA:         -17.765
REMARK INTER:                 -17.237
REMARK INTRA:                  -0.528
REMARK UNBOUND:                -0.528
REMARK  6 active torsions:
REMARK  status: ('A' for Active; 'I' for Inactive)
REMARK    1  A    between atoms: C_2  and  C_4 
REMARK       I    between atoms: C_2  and  N_16 
REMARK    2  A    between atoms: C_7  and  C_8 
REMARK    3  A    between atoms: C_8  and  O_27 
REMARK    4  A    between atoms: C_9  and  O_27 
REMARK    5  A    between atoms: N_16  and  C_18 
REMARK    6  A    between atoms: C_19  and  C_21 
ROOT
HETATM    1  C   UNL     1     -24.162   0.318  -1.355  1.00  0.00     0.034 A 
HETATM    2  C   UNL     1     -24.437  -1.995  -0.950  1.00  0.00     0.035 A 
HETATM    3  C   UNL     1     -23.077  -2.166  -0.794  1.00  0.00     0.033 A 
HETATM    4  C   UNL     1     -22.250  -1.064  -0.910  1.00  0.00    -0.032 A 
HETATM    5  C   UNL     1     -25.023  -0.778  -1.213  1.00  0.00     0.041 A 
HETATM    6  C   UNL     1     -22.794   0.170  -1.192  1.00  0.00     0.026 A 
HETATM    7 CL   UNL     1     -25.429  -3.405  -0.829  1.00  0.00    -0.084 Cl
ENDROOT
BRANCH   1   8
HETATM    8  C   UNL     1     -24.632   1.667  -1.802  1.00  0.00     0.252 C 
HETATM    9  N   UNL     1     -25.965   1.975  -1.691  1.00  0.00    -0.352 N 
ATOM     10  HN  UNL     1     -26.625   1.312  -1.284  1.00  0.00     0.163 HD
HETATM   11  O   UNL     1     -23.848   2.496  -2.274  1.00  0.00    -0.268 OA
BRANCH   9  12
HETATM   12  C   UNL     1     -26.405   3.257  -2.163  1.00  0.00     0.094 A 
HETATM   13  C   UNL     1     -27.892   3.576  -2.324  1.00  0.00     0.037 A 
HETATM   14  C   UNL     1     -27.063   3.237  -3.555  1.00  0.00     0.043 A 
BRANCH  14  15
HETATM   15  C   UNL     1     -26.690   4.281  -4.519  1.00  0.00    -0.052 A 
HETATM   16  C   UNL     1     -27.431   5.447  -4.550  1.00  0.00     0.007 A 
HETATM   17  C   UNL     1     -27.130   6.450  -5.458  1.00  0.00     0.001 A 
HETATM   18  C   UNL     1     -26.079   6.280  -6.350  1.00  0.00     0.000 A 
HETATM   19  C   UNL     1     -25.333   5.100  -6.316  1.00  0.00     0.001 A 
HETATM   20  C   UNL     1     -25.631   4.103  -5.398  1.00  0.00     0.007 A 
ENDBRANCH  14  15
ENDBRANCH   9  12
ENDBRANCH   1   8
BRANCH   4  21
HETATM   21  C   UNL     1     -20.772  -1.233  -0.706  1.00  0.00     0.214 C 
BRANCH  21  22
HETATM   22  O   UNL     1     -20.418  -2.228  -1.653  1.00  0.00    -0.345 OA
BRANCH  22  23
HETATM   23  C   UNL     1     -19.082  -2.404  -1.924  1.00  0.00     0.085 A 
HETATM   24  C   UNL     1     -18.162  -1.833  -1.046  1.00  0.00     0.053 A 
HETATM   25  C   UNL     1     -16.817  -2.046  -1.352  1.00  0.00     0.012 A 
HETATM   26  C   UNL     1     -15.561  -1.692  -0.748  1.00  0.00     0.032 A 
HETATM   27  C   UNL     1     -16.506  -2.820  -2.521  1.00  0.00     0.115 A 
HETATM   28  C   UNL     1     -14.554  -2.243  -1.528  1.00  0.00     0.090 A 
HETATM   29  N   UNL     1     -15.124  -2.932  -2.615  1.00  0.00    -0.352 N 
ATOM     30  HN  UNL     1     -14.612  -3.428  -3.344  1.00  0.00     0.166 HD
HETATM   31  N   UNL     1     -17.409  -3.365  -3.388  1.00  0.00    -0.349 N 
HETATM   32  C   UNL     1     -18.662  -3.139  -3.066  1.00  0.00     0.126 A 
ATOM     33  HN  UNL     1     -17.134  -3.900  -4.212  1.00  0.00     0.167 HD
ENDBRANCH  22  23
ENDBRANCH  21  22
ENDBRANCH   4  21
TORSDOF 6
ENDMDL
MODEL 2
REMARK VINA RESULT:   -10.995      5.354      8.864
REMARK INTER + INTRA:         -15.379
REMARK INTER:                 -14.891
REMARK INTRA:                  -0.489
REMARK UNBOUND:                -0.528
REMARK  6 active torsions:
REMARK  status: ('A' for Active; 'I' for Inactive)
REMARK    1  A    between atoms: C_2  and  C_4 
REMARK       I    between atoms: C_2  and  N_16 
REMARK    2  A    between atoms: C_7  and  C_8 
REMARK    3  A    between atoms: C_8  and  O_27 
REMARK    4  A    between atoms: C_9  and  O_27 
REMARK    5  A    between atoms: N_16  and  C_18 
REMARK    6  A    between atoms: C_19  and  C_21 
ROOT
HETATM    1  C   UNL     1     -16.360  -2.055  -1.463  1.00  0.00     0.034 A 
HETATM    2  C   UNL     1     -14.119  -2.784  -1.272  1.00  0.00     0.035 A 
HETATM    3  C   UNL     1     -13.763  -1.629  -0.606  1.00  0.00     0.033 A 
HETATM    4  C   UNL     1     -14.735  -0.679  -0.356  1.00  0.00    -0.032 A 
HETATM    5  C   UNL     1     -15.400  -3.047  -1.702  1.00  0.00     0.041 A 
HETATM    6  C   UNL     1     -16.026  -0.894  -0.787  1.00  0.00     0.026 A 
HETATM    7 CL   UNL     1     -12.865  -3.930  -1.591  1.00  0.00    -0.084 Cl
ENDROOT
BRANCH   1   8
HETATM    8  C   UNL     1     -17.750  -2.123  -2.013  1.00  0.00     0.252 C 
HETATM    9  N   UNL     1     -18.714  -1.300  -1.486  1.00  0.00    -0.352 N 
ATOM     10  HN  UNL     1     -18.486  -0.629  -0.752  1.00  0.00     0.163 HD
HETATM   11  O   UNL     1     -18.045  -2.910  -2.920  1.00  0.00    -0.268 OA
BRANCH   9  12
HETATM   12  C   UNL     1     -20.051  -1.409  -1.996  1.00  0.00     0.094 A 
HETATM   13  C   UNL     1     -20.871  -0.166  -2.346  1.00  0.00     0.037 A 
HETATM   14  C   UNL     1     -21.147  -0.900  -1.041  1.00  0.00     0.043 A 
BRANCH  14  15
HETATM   15  C   UNL     1     -22.361  -1.710  -0.878  1.00  0.00    -0.052 A 
HETATM   16  C   UNL     1     -23.589  -1.098  -1.040  1.00  0.00     0.007 A 
HETATM   17  C   UNL     1     -24.762  -1.817  -0.873  1.00  0.00     0.001 A 
HETATM   18  C   UNL     1     -24.705  -3.162  -0.532  1.00  0.00     0.000 A 
HETATM   19  C   UNL     1     -23.461  -3.777  -0.368  1.00  0.00     0.001 A 
HETATM   20  C   UNL     1     -22.290  -3.056  -0.548  1.00  0.00     0.007 A 
ENDBRANCH  14  15
ENDBRANCH   9  12
ENDBRANCH   1   8
BRANCH   4  21
HETATM   21  C   UNL     1     -14.366   0.566   0.399  1.00  0.00     0.214 C 
BRANCH  21  22
HETATM   22  O   UNL     1     -12.979   0.401   0.652  1.00  0.00    -0.345 OA
BRANCH  22  23
HETATM   23  C   UNL     1     -12.562   0.441   1.961  1.00  0.00     0.085 A 
HETATM   24  C   UNL     1     -12.556   1.678   2.603  1.00  0.00     0.053 A 
HETATM   25  C   UNL     1     -12.137   1.671   3.934  1.00  0.00     0.012 A 
HETATM   26  C   UNL     1     -11.997   2.658   4.970  1.00  0.00     0.032 A 
HETATM   27  C   UNL     1     -11.756   0.413   4.513  1.00  0.00     0.115 A 
HETATM   28  C   UNL     1     -11.559   2.005   6.113  1.00  0.00     0.090 A 
HETATM   29  N   UNL     1     -11.407   0.632   5.841  1.00  0.00    -0.352 N 
ATOM     30  HN  UNL     1     -11.096  -0.078   6.503  1.00  0.00     0.166 HD
HETATM   31  N   UNL     1     -11.747  -0.795   3.879  1.00  0.00    -0.349 N 
HETATM   32  C   UNL     1     -12.146  -0.745   2.628  1.00  0.00     0.126 A 
ATOM     33  HN  UNL     1     -11.457  -1.660   4.335  1.00  0.00     0.167 HD
ENDBRANCH  22  23
ENDBRANCH  21  22
ENDBRANCH   4  21
TORSDOF 6
ENDMDL
MODEL 3
REMARK VINA RESULT:   -10.873      1.607     10.182
REMARK INTER + INTRA:         -15.215
REMARK INTER:                 -14.625
REMARK INTRA:                  -0.589
REMARK UNBOUND:                -0.528
REMARK  6 active torsions:
REMARK  status: ('A' for Active; 'I' for Inactive)
REMARK    1  A    between atoms: C_2  and  C_4 
REMARK       I    between atoms: C_2  and  N_16 
REMARK    2  A    between atoms: C_7  and  C_8 
REMARK    3  A    between atoms: C_8  and  O_27 
REMARK    4  A    between atoms: C_9  and  O_27 
REMARK    5  A    between atoms: N_16  and  C_18 
REMARK    6  A    between atoms: C_19  and  C_21 
ROOT
HETATM    1  C   UNL     1     -22.340  -1.022  -1.715  1.00  0.00     0.034 A 
HETATM    2  C   UNL     1     -24.315  -1.987  -0.842  1.00  0.00     0.035 A 
HETATM    3  C   UNL     1     -24.908  -0.747  -0.717  1.00  0.00     0.033 A 
HETATM    4  C   UNL     1     -24.200   0.372  -1.114  1.00  0.00    -0.032 A 
HETATM    5  C   UNL     1     -23.048  -2.175  -1.348  1.00  0.00     0.041 A 
HETATM    6  C   UNL     1     -22.921   0.230  -1.607  1.00  0.00     0.026 A 
HETATM    7 CL   UNL     1     -25.224  -3.355  -0.304  1.00  0.00    -0.084 Cl
ENDROOT
BRANCH   1   8
HETATM    8  C   UNL     1     -20.901  -1.051  -2.124  1.00  0.00     0.252 C 
HETATM    9  N   UNL     1     -20.377  -2.216  -2.628  1.00  0.00    -0.352 N 
ATOM     10  HN  UNL     1     -20.961  -3.044  -2.751  1.00  0.00     0.163 HD
HETATM   11  O   UNL     1     -20.180  -0.055  -2.008  1.00  0.00    -0.268 OA
BRANCH   9  12
HETATM   12  C   UNL     1     -18.985  -2.238  -2.975  1.00  0.00     0.094 A 
HETATM   13  C   UNL     1     -18.322  -3.505  -3.517  1.00  0.00     0.037 A 
HETATM   14  C   UNL     1     -18.108  -3.114  -2.061  1.00  0.00     0.043 A 
BRANCH  14  15
HETATM   15  C   UNL     1     -16.817  -2.578  -1.610  1.00  0.00    -0.052 A 
HETATM   16  C   UNL     1     -15.659  -3.105  -2.148  1.00  0.00     0.007 A 
HETATM   17  C   UNL     1     -14.418  -2.646  -1.736  1.00  0.00     0.001 A 
HETATM   18  C   UNL     1     -14.336  -1.654  -0.767  1.00  0.00     0.000 A 
HETATM   19  C   UNL     1     -15.509  -1.125  -0.225  1.00  0.00     0.001 A 
HETATM   20  C   UNL     1     -16.749  -1.579  -0.649  1.00  0.00     0.007 A 
ENDBRANCH  14  15
ENDBRANCH   9  12
ENDBRANCH   1   8
BRANCH   4  21
HETATM   21  C   UNL     1     -24.849   1.722  -1.016  1.00  0.00     0.214 C 
BRANCH  21  22
HETATM   22  O   UNL     1     -25.944   1.630  -1.913  1.00  0.00    -0.345 OA
BRANCH  22  23
HETATM   23  C   UNL     1     -26.316   2.770  -2.584  1.00  0.00     0.085 A 
HETATM   24  C   UNL     1     -25.623   3.093  -3.749  1.00  0.00     0.053 A 
HETATM   25  C   UNL     1     -26.041   4.251  -4.405  1.00  0.00     0.012 A 
HETATM   26  C   UNL     1     -25.662   4.941  -5.608  1.00  0.00     0.032 A 
HETATM   27  C   UNL     1     -27.128   4.994  -3.832  1.00  0.00     0.115 A 
HETATM   28  C   UNL     1     -26.499   6.040  -5.741  1.00  0.00     0.090 A 
HETATM   29  N   UNL     1     -27.396   6.081  -4.657  1.00  0.00    -0.352 N 
ATOM     30  HN  UNL     1     -28.118   6.784  -4.504  1.00  0.00     0.166 HD
HETATM   31  N   UNL     1     -27.796   4.685  -2.682  1.00  0.00    -0.349 N 
HETATM   32  C   UNL     1     -27.371   3.590  -2.095  1.00  0.00     0.126 A 
ATOM     33  HN  UNL     1     -28.558   5.254  -2.313  1.00  0.00     0.167 HD
ENDBRANCH  22  23
ENDBRANCH  21  22
ENDBRANCH   4  21
TORSDOF 6
ENDMDL
MODEL 4
REMARK VINA RESULT:   -10.547      1.824     10.332
REMARK INTER + INTRA:         -14.774
REMARK INTER:                 -14.424
REMARK INTRA:                  -0.351
REMARK UNBOUND:                -0.528
REMARK  6 active torsions:
REMARK  status: ('A' for Active; 'I' for Inactive)
REMARK    1  A    between atoms: C_2  and  C_4 
REMARK       I    between atoms: C_2  and  N_16 
REMARK    2  A    between atoms: C_7  and  C_8 
REMARK    3  A    between atoms: C_8  and  O_27 
REMARK    4  A    between atoms: C_9  and  O_27 
REMARK    5  A    between atoms: N_16  and  C_18 
REMARK    6  A    between atoms: C_19  and  C_21 
ROOT
HETATM    1  C   UNL     1     -22.096  -1.191  -1.642  1.00  0.00     0.034 A 
HETATM    2  C   UNL     1     -24.159  -2.056  -0.875  1.00  0.00     0.035 A 
HETATM    3  C   UNL     1     -24.700  -0.789  -0.793  1.00  0.00     0.033 A 
HETATM    4  C   UNL     1     -23.920   0.292  -1.158  1.00  0.00    -0.032 A 
HETATM    5  C   UNL     1     -22.876  -2.306  -1.307  1.00  0.00     0.041 A 
HETATM    6  C   UNL     1     -22.624   0.088  -1.577  1.00  0.00     0.026 A 
HETATM    7 CL   UNL     1     -25.158  -3.375  -0.378  1.00  0.00    -0.084 Cl
ENDROOT
BRANCH   1   8
HETATM    8  C   UNL     1     -20.639  -1.290  -1.969  1.00  0.00     0.252 C 
HETATM    9  N   UNL     1     -20.196  -2.357  -2.712  1.00  0.00    -0.352 N 
ATOM     10  HN  UNL     1     -20.848  -3.058  -3.063  1.00  0.00     0.163 HD
HETATM   11  O   UNL     1     -19.833  -0.439  -1.577  1.00  0.00    -0.268 OA
BRANCH   9  12
HETATM   12  C   UNL     1     -18.790  -2.457  -2.980  1.00  0.00     0.094 A 
HETATM   13  C   UNL     1     -18.126  -3.811  -3.238  1.00  0.00     0.037 A 
HETATM   14  C   UNL     1     -17.973  -3.151  -1.874  1.00  0.00     0.043 A 
BRANCH  14  15
HETATM   15  C   UNL     1     -16.695  -2.552  -1.469  1.00  0.00    -0.052 A 
HETATM   16  C   UNL     1     -15.530  -3.035  -2.035  1.00  0.00     0.007 A 
HETATM   17  C   UNL     1     -14.299  -2.515  -1.666  1.00  0.00     0.001 A 
HETATM   18  C   UNL     1     -14.233  -1.506  -0.715  1.00  0.00     0.000 A 
HETATM   19  C   UNL     1     -15.412  -1.021  -0.144  1.00  0.00     0.001 A 
HETATM   20  C   UNL     1     -16.643  -1.536  -0.525  1.00  0.00     0.007 A 
ENDBRANCH  14  15
ENDBRANCH   9  12
ENDBRANCH   1   8
BRANCH   4  21
HETATM   21  C   UNL     1     -24.511   1.672  -1.108  1.00  0.00     0.214 C 
BRANCH  21  22
HETATM   22  O   UNL     1     -25.622   1.589  -1.986  1.00  0.00    -0.345 OA
BRANCH  22  23
HETATM   23  C   UNL     1     -26.087   2.759  -2.537  1.00  0.00     0.085 A 
HETATM   24  C   UNL     1     -26.966   3.530  -1.777  1.00  0.00     0.053 A 
HETATM   25  C   UNL     1     -27.403   4.716  -2.369  1.00  0.00     0.012 A 
HETATM   26  C   UNL     1     -28.256   5.804  -1.974  1.00  0.00     0.032 A 
HETATM   27  C   UNL     1     -26.919   5.031  -3.683  1.00  0.00     0.115 A 
HETATM   28  C   UNL     1     -28.265   6.725  -3.012  1.00  0.00     0.090 A 
HETATM   29  N   UNL     1     -27.451   6.258  -4.062  1.00  0.00    -0.352 N 
ATOM     30  HN  UNL     1     -27.282   6.736  -4.946  1.00  0.00     0.166 HD
HETATM   31  N   UNL     1     -26.070   4.267  -4.432  1.00  0.00    -0.349 N 
HETATM   32  C   UNL     1     -25.685   3.160  -3.841  1.00  0.00     0.126 A 
ATOM     33  HN  UNL     1     -25.764   4.533  -5.368  1.00  0.00     0.167 HD
ENDBRANCH  22  23
ENDBRANCH  21  22
ENDBRANCH   4  21
TORSDOF 6
ENDMDL
MODEL 5
REMARK VINA RESULT:   -10.163      5.877     12.444
REMARK INTER + INTRA:         -14.255
REMARK INTER:                 -14.100
REMARK INTRA:                  -0.155
REMARK UNBOUND:                -0.528
REMARK  6 active torsions:
REMARK  status: ('A' for Active; 'I' for Inactive)
REMARK    1  A    between atoms: C_2  and  C_4 
REMARK       I    between atoms: C_2  and  N_16 
REMARK    2  A    between atoms: C_7  and  C_8 
REMARK    3  A    between atoms: C_8  and  O_27 
REMARK    4  A    between atoms: C_9  and  O_27 
REMARK    5  A    between atoms: N_16  and  C_18 
REMARK    6  A    between atoms: C_19  and  C_21 
ROOT
HETATM    1  C   UNL     1     -13.219  -1.175   0.092  1.00  0.00     0.034 A 
HETATM    2  C   UNL     1     -12.448  -3.301  -0.599  1.00  0.00     0.035 A 
HETATM    3  C   UNL     1     -13.449  -3.396  -1.545  1.00  0.00     0.033 A 
HETATM    4  C   UNL     1     -14.341  -2.348  -1.677  1.00  0.00    -0.032 A 
HETATM    5  C   UNL     1     -12.284  -2.210   0.225  1.00  0.00     0.041 A 
HETATM    6  C   UNL     1     -14.224  -1.246  -0.858  1.00  0.00     0.026 A 
HETATM    7 CL   UNL     1     -11.375  -4.647  -0.447  1.00  0.00    -0.084 Cl
ENDROOT
BRANCH   1   8
HETATM    8  C   UNL     1     -13.270  -0.004   1.023  1.00  0.00     0.252 C 
HETATM    9  N   UNL     1     -12.508  -0.030   2.165  1.00  0.00    -0.352 N 
ATOM     10  HN  UNL     1     -11.892  -0.818   2.366  1.00  0.00     0.163 HD
HETATM   11  O   UNL     1     -13.989   0.973   0.788  1.00  0.00    -0.268 OA
BRANCH   9  12
HETATM   12  C   UNL     1     -12.602   1.082   3.067  1.00  0.00     0.094 A 
HETATM   13  C   UNL     1     -12.106   2.472   2.667  1.00  0.00     0.037 A 
HETATM   14  C   UNL     1     -11.250   1.608   3.582  1.00  0.00     0.043 A 
BRANCH  14  15
HETATM   15  C   UNL     1     -11.122   1.925   5.010  1.00  0.00    -0.052 A 
HETATM   16  C   UNL     1     -12.168   2.571   5.640  1.00  0.00     0.007 A 
HETATM   17  C   UNL     1     -12.082   2.911   6.981  1.00  0.00     0.001 A 
HETATM   18  C   UNL     1     -10.933   2.606   7.698  1.00  0.00     0.000 A 
HETATM   19  C   UNL     1      -9.877   1.952   7.058  1.00  0.00     0.001 A 
HETATM   20  C   UNL     1      -9.972   1.604   5.718  1.00  0.00     0.007 A 
ENDBRANCH  14  15
ENDBRANCH   9  12
ENDBRANCH   1   8
BRANCH   4  21
HETATM   21  C   UNL     1     -15.411  -2.425  -2.727  1.00  0.00     0.214 C 
BRANCH  21  22
HETATM   22  O   UNL     1     -16.405  -3.243  -2.128  1.00  0.00    -0.345 OA
BRANCH  22  23
HETATM   23  C   UNL     1     -17.716  -2.856  -2.267  1.00  0.00     0.085 A 
HETATM   24  C   UNL     1     -18.286  -2.111  -1.236  1.00  0.00     0.053 A 
HETATM   25  C   UNL     1     -19.615  -1.729  -1.424  1.00  0.00     0.012 A 
HETATM   26  C   UNL     1     -20.575  -0.960  -0.679  1.00  0.00     0.032 A 
HETATM   27  C   UNL     1     -20.266  -2.130  -2.639  1.00  0.00     0.115 A 
HETATM   28  C   UNL     1     -21.739  -0.905  -1.432  1.00  0.00     0.090 A 
HETATM   29  N   UNL     1     -21.559  -1.621  -2.630  1.00  0.00    -0.352 N 
ATOM     30  HN  UNL     1     -22.256  -1.744  -3.364  1.00  0.00     0.166 HD
HETATM   31  N   UNL     1     -19.711  -2.874  -3.641  1.00  0.00    -0.349 N 
HETATM   32  C   UNL     1     -18.461  -3.215  -3.424  1.00  0.00     0.126 A 
ATOM     33  HN  UNL     1     -20.222  -3.141  -4.482  1.00  0.00     0.167 HD
ENDBRANCH  22  23
ENDBRANCH  21  22
ENDBRANCH   4  21
TORSDOF 6
ENDMDL
MODEL 6
REMARK VINA RESULT:    -9.838      4.696      7.511
REMARK INTER + INTRA:         -13.816
REMARK INTER:                 -13.332
REMARK INTRA:                  -0.484
REMARK UNBOUND:                -0.528
REMARK  6 active torsions:
REMARK  status: ('A' for Active; 'I' for Inactive)
REMARK    1  A    between atoms: C_2  and  C_4 
REMARK       I    between atoms: C_2  and  N_16 
REMARK    2  A    between atoms: C_7  and  C_8 
REMARK    3  A    between atoms: C_8  and  O_27 
REMARK    4  A    between atoms: C_9  and  O_27 
REMARK    5  A    between atoms: N_16  and  C_18 
REMARK    6  A    between atoms: C_19  and  C_21 
ROOT
HETATM    1  C   UNL     1     -27.641   5.259  -2.463  1.00  0.00     0.034 A 
HETATM    2  C   UNL     1     -26.374   4.878  -4.423  1.00  0.00     0.035 A 
HETATM    3  C   UNL     1     -26.043   3.605  -4.004  1.00  0.00     0.033 A 
HETATM    4  C   UNL     1     -26.537   3.153  -2.795  1.00  0.00    -0.032 A 
HETATM    5  C   UNL     1     -27.178   5.729  -3.699  1.00  0.00     0.041 A 
HETATM    6  C   UNL     1     -27.329   3.981  -2.030  1.00  0.00     0.026 A 
HETATM    7 CL   UNL     1     -25.709   5.412  -5.926  1.00  0.00    -0.084 Cl
ENDROOT
BRANCH   1   8
HETATM    8  C   UNL     1     -28.384   6.123  -1.494  1.00  0.00     0.252 C 
HETATM    9  N   UNL     1     -27.839   6.352  -0.254  1.00  0.00    -0.352 N 
ATOM     10  HN  UNL     1     -26.928   5.967  -0.003  1.00  0.00     0.163 HD
HETATM   11  O   UNL     1     -29.477   6.622  -1.784  1.00  0.00    -0.268 OA
BRANCH   9  12
HETATM   12  C   UNL     1     -28.585   7.148   0.677  1.00  0.00     0.094 A 
HETATM   13  C   UNL     1     -27.892   7.896   1.816  1.00  0.00     0.037 A 
HETATM   14  C   UNL     1     -28.620   6.593   2.114  1.00  0.00     0.043 A 
BRANCH  14  15
HETATM   15  C   UNL     1     -29.900   6.596   2.833  1.00  0.00    -0.052 A 
HETATM   16  C   UNL     1     -30.946   5.852   2.323  1.00  0.00     0.007 A 
HETATM   17  C   UNL     1     -32.180   5.843   2.955  1.00  0.00     0.001 A 
HETATM   18  C   UNL     1     -32.370   6.595   4.107  1.00  0.00     0.000 A 
HETATM   19  C   UNL     1     -31.310   7.347   4.620  1.00  0.00     0.001 A 
HETATM   20  C   UNL     1     -30.074   7.343   3.990  1.00  0.00     0.007 A 
ENDBRANCH  14  15
ENDBRANCH   9  12
ENDBRANCH   1   8
BRANCH   4  21
HETATM   21  C   UNL     1     -26.213   1.757  -2.347  1.00  0.00     0.214 C 
BRANCH  21  22
HETATM   22  O   UNL     1     -25.043   1.924  -1.561  1.00  0.00    -0.345 OA
BRANCH  22  23
HETATM   23  C   UNL     1     -24.217   0.837  -1.409  1.00  0.00     0.085 A 
HETATM   24  C   UNL     1     -22.884   0.974  -1.794  1.00  0.00     0.053 A 
HETATM   25  C   UNL     1     -22.079  -0.150  -1.611  1.00  0.00     0.012 A 
HETATM   26  C   UNL     1     -20.691  -0.462  -1.826  1.00  0.00     0.032 A 
HETATM   27  C   UNL     1     -22.682  -1.328  -1.054  1.00  0.00     0.115 A 
HETATM   28  C   UNL     1     -20.488  -1.768  -1.402  1.00  0.00     0.090 A 
HETATM   29  N   UNL     1     -21.700  -2.305  -0.931  1.00  0.00    -0.352 N 
ATOM     30  HN  UNL     1     -21.836  -3.246  -0.564  1.00  0.00     0.166 HD
HETATM   31  N   UNL     1     -23.991  -1.466  -0.691  1.00  0.00    -0.349 N 
HETATM   32  C   UNL     1     -24.715  -0.387  -0.881  1.00  0.00     0.126 A 
ATOM     33  HN  UNL     1     -24.372  -2.331  -0.307  1.00  0.00     0.167 HD
ENDBRANCH  22  23
ENDBRANCH  21  22
ENDBRANCH   4  21
TORSDOF 6
ENDMDL
MODEL 7
REMARK VINA RESULT:    -9.781      1.718      2.537
REMARK INTER + INTRA:         -13.740
REMARK INTER:                 -15.119
REMARK INTRA:                   1.379
REMARK UNBOUND:                -0.528
REMARK  6 active torsions:
REMARK  status: ('A' for Active; 'I' for Inactive)
REMARK    1  A    between atoms: C_2  and  C_4 
REMARK       I    between atoms: C_2  and  N_16 
REMARK    2  A    between atoms: C_7  and  C_8 
REMARK    3  A    between atoms: C_8  and  O_27 
REMARK    4  A    between atoms: C_9  and  O_27 
REMARK    5  A    between atoms: N_16  and  C_18 
REMARK    6  A    between atoms: C_19  and  C_21 
ROOT
HETATM    1  C   UNL     1     -24.737   0.691  -1.575  1.00  0.00     0.034 A 
HETATM    2  C   UNL     1     -24.770  -1.565  -0.870  1.00  0.00     0.035 A 
HETATM    3  C   UNL     1     -23.391  -1.623  -0.870  1.00  0.00     0.033 A 
HETATM    4  C   UNL     1     -22.679  -0.491  -1.218  1.00  0.00    -0.032 A 
HETATM    5  C   UNL     1     -25.482  -0.433  -1.197  1.00  0.00     0.041 A 
HETATM    6  C   UNL     1     -23.352   0.658  -1.572  1.00  0.00     0.026 A 
HETATM    7 CL   UNL     1     -25.621  -3.013  -0.459  1.00  0.00    -0.084 Cl
ENDROOT
BRANCH   1   8
HETATM    8  C   UNL     1     -25.367   1.938  -2.113  1.00  0.00     0.252 C 
HETATM    9  N   UNL     1     -26.711   2.140  -1.917  1.00  0.00    -0.352 N 
ATOM     10  HN  UNL     1     -27.271   1.470  -1.389  1.00  0.00     0.163 HD
HETATM   11  O   UNL     1     -24.705   2.776  -2.733  1.00  0.00    -0.268 OA
BRANCH   9  12
HETATM   12  C   UNL     1     -27.306   3.320  -2.477  1.00  0.00     0.094 A 
HETATM   13  C   UNL     1     -26.482   4.311  -3.299  1.00  0.00     0.037 A 
HETATM   14  C   UNL     1     -26.821   4.642  -1.853  1.00  0.00     0.043 A 
BRANCH  14  15
HETATM   15  C   UNL     1     -27.819   5.670  -1.532  1.00  0.00    -0.052 A 
HETATM   16  C   UNL     1     -28.213   5.822  -0.217  1.00  0.00     0.007 A 
HETATM   17  C   UNL     1     -29.169   6.764   0.129  1.00  0.00     0.001 A 
HETATM   18  C   UNL     1     -29.743   7.558  -0.856  1.00  0.00     0.000 A 
HETATM   19  C   UNL     1     -29.343   7.401  -2.185  1.00  0.00     0.001 A 
HETATM   20  C   UNL     1     -28.377   6.465  -2.524  1.00  0.00     0.007 A 
ENDBRANCH  14  15
ENDBRANCH   9  12
ENDBRANCH   1   8
BRANCH   4  21
HETATM   21  C   UNL     1     -21.178  -0.532  -1.187  1.00  0.00     0.214 C 
BRANCH  21  22
HETATM   22  O   UNL     1     -20.878  -1.900  -1.416  1.00  0.00    -0.345 OA
BRANCH  22  23
HETATM   23  C   UNL     1     -19.620  -2.209  -1.874  1.00  0.00     0.085 A 
HETATM   24  C   UNL     1     -18.530  -1.714  -1.160  1.00  0.00     0.053 A 
HETATM   25  C   UNL     1     -17.271  -2.062  -1.653  1.00  0.00     0.012 A 
HETATM   26  C   UNL     1     -15.912  -1.819  -1.253  1.00  0.00     0.032 A 
HETATM   27  C   UNL     1     -17.212  -2.883  -2.829  1.00  0.00     0.115 A 
HETATM   28  C   UNL     1     -15.088  -2.480  -2.154  1.00  0.00     0.090 A 
HETATM   29  N   UNL     1     -15.876  -3.130  -3.122  1.00  0.00    -0.352 N 
ATOM     30  HN  UNL     1     -15.527  -3.686  -3.902  1.00  0.00     0.166 HD
HETATM   31  N   UNL     1     -18.281  -3.354  -3.536  1.00  0.00    -0.349 N 
HETATM   32  C   UNL     1     -19.446  -3.002  -3.041  1.00  0.00     0.126 A 
ATOM     33  HN  UNL     1     -18.183  -3.928  -4.374  1.00  0.00     0.167 HD
ENDBRANCH  22  23
ENDBRANCH  21  22
ENDBRANCH   4  21
TORSDOF 6
ENDMDL
