REMARK  1 active torsions:
REMARK  status: ('A' for Active; 'I' for Inactive)
REMARK    1  A    between atoms: C_4  and  N_12 
ROOT
HETATM    1  C   UNL     1     -14.115   9.272  21.949  1.00  0.00     0.031 A 
HETATM    2  C   UNL     1     -15.388   8.716  22.185  1.00  0.00     0.003 A 
HETATM    3  C   UNL     1     -16.079   8.981  23.364  1.00  0.00     0.011 A 
HETATM    4  C   UNL     1     -13.485  10.106  22.878  1.00  0.00     0.055 A 
HETATM    5  C   UNL     1     -14.210  10.344  24.045  1.00  0.00     0.069 A 
HETATM    6  C   UNL     1     -15.474   9.803  24.293  1.00  0.00    -0.012 A 
HETATM    7  C   UNL     1     -15.970  10.260  25.645  1.00  0.00     0.063 A 
HETATM    8  C   UNL     1     -14.799  11.145  26.123  1.00  0.00     0.234 A 
HETATM    9  C   UNL     1     -17.250  11.090  25.541  1.00  0.00     0.030 C 
HETATM   10  C   UNL     1     -16.138   9.087  26.607  1.00  0.00     0.030 C 
HETATM   11  N   UNL     1     -13.833  11.130  25.131  1.00  0.00    -0.324 N 
ATOM     12  HN  UNL     1     -12.949  11.635  25.189  1.00  0.00     0.169 HD
HETATM   13  O   UNL     1     -14.711  11.754  27.175  1.00  0.00    -0.272 OA
ENDROOT
BRANCH   4  14
HETATM   14  N   UNL     1     -12.241  10.661  22.681  1.00  0.00    -0.392 N 
HETATM   15  C   UNL     1     -11.412  10.446  21.521  1.00  0.00     0.146 C 
ATOM     16  HN  UNL     1     -11.877  11.272  23.412  1.00  0.00     0.159 HD
ENDBRANCH   4  14
TORSDOF 1
