MODEL 1
REMARK VINA RESULT:    -5.668      0.000      0.000
REMARK INTER + INTRA:          -6.553
REMARK INTER:                  -6.496
REMARK INTRA:                  -0.056
REMARK UNBOUND:                -0.056
REMARK  4 active torsions:
REMARK  status: ('A' for Active; 'I' for Inactive)
REMARK    1  A    between atoms: O_2  and  C_3 
REMARK    2  A    between atoms: C_4  and  O_13 
REMARK    3  A    between atoms: C_5  and  O_11 
REMARK    4  A    between atoms: C_6  and  O_9 
ROOT
HETATM    1  C   UNL     1      27.102  -8.544  43.057  1.00  0.00     0.290 C 
HETATM    2  C   UNL     1      26.963  -7.053  43.479  1.00  0.00     0.204 C 
HETATM    3  C   UNL     1      25.801  -6.305  42.892  1.00  0.00     0.182 C 
HETATM    4  C   UNL     1      25.926  -6.449  41.370  1.00  0.00     0.173 C 
HETATM    5  C   UNL     1      25.833  -7.954  41.039  1.00  0.00     0.205 C 
HETATM    6  O   UNL     1      27.034  -8.594  41.588  1.00  0.00    -0.356 OA
ENDROOT
BRANCH   1   7
HETATM    7  O   UNL     1      28.467  -8.882  43.417  1.00  0.00    -0.363 OA
HETATM    8  C   UNL     1      29.269  -9.388  42.331  1.00  0.00     0.204 C 
ENDBRANCH   1   7
BRANCH   2   9
HETATM    9  O   UNL     1      26.820  -6.951  44.954  1.00  0.00    -0.388 OA
ATOM     10  HO  UNL     1      26.872  -6.042  45.225  1.00  0.00     0.210 HD
ENDBRANCH   2   9
BRANCH   3  11
HETATM   11  O   UNL     1      26.010  -4.892  43.125  1.00  0.00    -0.390 OA
ATOM     12  HO  UNL     1      25.223  -4.617  43.581  1.00  0.00     0.210 HD
ENDBRANCH   3  11
BRANCH   4  13
HETATM   13  O   UNL     1      24.816  -5.794  40.796  1.00  0.00    -0.391 OA
ATOM     14  HO  UNL     1      24.662  -4.987  41.273  1.00  0.00     0.210 HD
ENDBRANCH   4  13
TORSDOF 4
ENDMDL
MODEL 2
REMARK VINA RESULT:    -5.497      2.859      4.556
REMARK INTER + INTRA:          -6.356
REMARK INTER:                  -6.276
REMARK INTRA:                  -0.080
REMARK UNBOUND:                -0.056
REMARK  4 active torsions:
REMARK  status: ('A' for Active; 'I' for Inactive)
REMARK    1  A    between atoms: O_2  and  C_3 
REMARK    2  A    between atoms: C_4  and  O_13 
REMARK    3  A    between atoms: C_5  and  O_11 
REMARK    4  A    between atoms: C_6  and  O_9 
ROOT
HETATM    1  C   UNL     1      29.864  -9.621  41.437  1.00  0.00     0.290 C 
HETATM    2  C   UNL     1      28.387  -9.342  41.840  1.00  0.00     0.204 C 
HETATM    3  C   UNL     1      28.130  -9.129  43.304  1.00  0.00     0.182 C 
HETATM    4  C   UNL     1      28.683 -10.369  44.019  1.00  0.00     0.173 C 
HETATM    5  C   UNL     1      30.198 -10.430  43.731  1.00  0.00     0.205 C 
HETATM    6  O   UNL     1      30.358 -10.707  42.298  1.00  0.00    -0.356 OA
ENDROOT
BRANCH   1   7
HETATM    7  O   UNL     1      29.761 -10.174  40.098  1.00  0.00    -0.363 OA
HETATM    8  C   UNL     1      29.738 -11.615  40.041  1.00  0.00     0.204 C 
ENDBRANCH   1   7
BRANCH   2   9
HETATM    9  O   UNL     1      27.892  -8.124  41.150  1.00  0.00    -0.388 OA
ATOM     10  HO  UNL     1      27.929  -8.245  40.208  1.00  0.00     0.210 HD
ENDBRANCH   2   9
BRANCH   3  11
HETATM   11  O   UNL     1      26.703  -9.207  43.527  1.00  0.00    -0.390 OA
ATOM     12  HO  UNL     1      26.580 -10.063  43.920  1.00  0.00     0.210 HD
ENDBRANCH   3  11
BRANCH   4  13
HETATM   13  O   UNL     1      28.496 -10.170  45.403  1.00  0.00    -0.391 OA
ATOM     14  HO  UNL     1      28.174  -9.288  45.541  1.00  0.00     0.210 HD
ENDBRANCH   4  13
TORSDOF 4
ENDMDL
MODEL 3
REMARK VINA RESULT:    -5.357      1.277      2.103
REMARK INTER + INTRA:          -6.196
REMARK INTER:                  -6.156
REMARK INTRA:                  -0.040
REMARK UNBOUND:                -0.056
REMARK  4 active torsions:
REMARK  status: ('A' for Active; 'I' for Inactive)
REMARK    1  A    between atoms: O_2  and  C_3 
REMARK    2  A    between atoms: C_4  and  O_13 
REMARK    3  A    between atoms: C_5  and  O_11 
REMARK    4  A    between atoms: C_6  and  O_9 
ROOT
HETATM    1  C   UNL     1      27.794  -8.750  41.769  1.00  0.00     0.290 C 
HETATM    2  C   UNL     1      27.908  -8.359  43.271  1.00  0.00     0.204 C 
HETATM    3  C   UNL     1      26.727  -7.640  43.858  1.00  0.00     0.182 C 
HETATM    4  C   UNL     1      26.493  -6.409  42.973  1.00  0.00     0.173 C 
HETATM    5  C   UNL     1      26.174  -6.918  41.551  1.00  0.00     0.205 C 
HETATM    6  O   UNL     1      27.394  -7.543  41.028  1.00  0.00    -0.356 OA
ENDROOT
BRANCH   1   7
HETATM    7  O   UNL     1      29.162  -9.037  41.379  1.00  0.00    -0.363 OA
HETATM    8  C   UNL     1      29.401 -10.400  40.975  1.00  0.00     0.204 C 
ENDBRANCH   1   7
BRANCH   2   9
HETATM    9  O   UNL     1      28.109  -9.574  44.100  1.00  0.00    -0.388 OA
ATOM     10  HO  UNL     1      27.437 -10.217  43.905  1.00  0.00     0.210 HD
ENDBRANCH   2   9
BRANCH   3  11
HETATM   11  O   UNL     1      27.128  -7.081  45.131  1.00  0.00    -0.390 OA
ATOM     12  HO  UNL     1      26.359  -6.608  45.425  1.00  0.00     0.210 HD
ENDBRANCH   3  11
BRANCH   4  13
HETATM   13  O   UNL     1      25.357  -5.742  43.477  1.00  0.00    -0.391 OA
ATOM     14  HO  UNL     1      25.544  -5.453  44.362  1.00  0.00     0.210 HD
ENDBRANCH   4  13
TORSDOF 4
ENDMDL
MODEL 4
REMARK VINA RESULT:    -5.063      3.030      4.341
REMARK INTER + INTRA:          -5.859
REMARK INTER:                  -5.824
REMARK INTRA:                  -0.035
REMARK UNBOUND:                -0.056
REMARK  4 active torsions:
REMARK  status: ('A' for Active; 'I' for Inactive)
REMARK    1  A    between atoms: O_2  and  C_3 
REMARK    2  A    between atoms: C_4  and  O_13 
REMARK    3  A    between atoms: C_5  and  O_11 
REMARK    4  A    between atoms: C_6  and  O_9 
ROOT
HETATM    1  C   UNL     1      28.631 -10.900  43.898  1.00  0.00     0.290 C 
HETATM    2  C   UNL     1      28.137  -9.594  43.212  1.00  0.00     0.204 C 
HETATM    3  C   UNL     1      28.369  -9.497  41.731  1.00  0.00     0.182 C 
HETATM    4  C   UNL     1      29.874  -9.707  41.521  1.00  0.00     0.173 C 
HETATM    5  C   UNL     1      30.219 -11.120  42.038  1.00  0.00     0.205 C 
HETATM    6  O   UNL     1      30.030 -11.108  43.493  1.00  0.00    -0.356 OA
ENDROOT
BRANCH   1   7
HETATM    7  O   UNL     1      28.658 -10.563  45.310  1.00  0.00    -0.363 OA
HETATM    8  C   UNL     1      28.789 -11.693  46.197  1.00  0.00     0.204 C 
ENDBRANCH   1   7
BRANCH   2   9
HETATM    9  O   UNL     1      26.674  -9.434  43.414  1.00  0.00    -0.388 OA
ATOM     10  HO  UNL     1      26.443  -8.513  43.408  1.00  0.00     0.210 HD
ENDBRANCH   2   9
BRANCH   3  11
HETATM   11  O   UNL     1      28.151  -8.123  41.331  1.00  0.00    -0.390 OA
ATOM     12  HO  UNL     1      27.439  -8.178  40.705  1.00  0.00     0.210 HD
ENDBRANCH   3  11
BRANCH   4  13
HETATM   13  O   UNL     1      30.111  -9.667  40.130  1.00  0.00    -0.391 OA
ATOM     14  HO  UNL     1      30.777  -9.013  39.956  1.00  0.00     0.210 HD
ENDBRANCH   4  13
TORSDOF 4
ENDMDL
MODEL 5
REMARK VINA RESULT:    -4.909      2.483      4.257
REMARK INTER + INTRA:          -5.683
REMARK INTER:                  -5.629
REMARK INTRA:                  -0.054
REMARK UNBOUND:                -0.056
REMARK  4 active torsions:
REMARK  status: ('A' for Active; 'I' for Inactive)
REMARK    1  A    between atoms: O_2  and  C_3 
REMARK    2  A    between atoms: C_4  and  O_13 
REMARK    3  A    between atoms: C_5  and  O_11 
REMARK    4  A    between atoms: C_6  and  O_9 
ROOT
HETATM    1  C   UNL     1      28.523 -10.442  44.164  1.00  0.00     0.290 C 
HETATM    2  C   UNL     1      29.030 -10.773  42.730  1.00  0.00     0.204 C 
HETATM    3  C   UNL     1      29.133  -9.614  41.781  1.00  0.00     0.182 C 
HETATM    4  C   UNL     1      27.743  -8.965  41.749  1.00  0.00     0.173 C 
HETATM    5  C   UNL     1      27.430  -8.475  43.179  1.00  0.00     0.205 C 
HETATM    6  O   UNL     1      27.280  -9.667  44.023  1.00  0.00    -0.356 OA
ENDROOT
BRANCH   1   7
HETATM    7  O   UNL     1      28.143 -11.733  44.706  1.00  0.00    -0.363 OA
HETATM    8  C   UNL     1      28.788 -12.079  45.948  1.00  0.00     0.204 C 
ENDBRANCH   1   7
BRANCH   2   9
HETATM    9  O   UNL     1      30.385 -11.377  42.796  1.00  0.00    -0.388 OA
ATOM     10  HO  UNL     1      31.042 -10.696  42.884  1.00  0.00     0.210 HD
ENDBRANCH   2   9
BRANCH   3  11
HETATM   11  O   UNL     1      29.300 -10.141  40.443  1.00  0.00    -0.390 OA
ATOM     12  HO  UNL     1      30.181 -10.496  40.447  1.00  0.00     0.210 HD
ENDBRANCH   3  11
BRANCH   4  13
HETATM   13  O   UNL     1      27.826  -7.842  40.899  1.00  0.00    -0.391 OA
ATOM     14  HO  UNL     1      28.266  -8.102  40.097  1.00  0.00     0.210 HD
ENDBRANCH   4  13
TORSDOF 4
ENDMDL
MODEL 6
REMARK VINA RESULT:    -4.834      3.926      4.840
REMARK INTER + INTRA:          -5.596
REMARK INTER:                  -5.476
REMARK INTRA:                  -0.120
REMARK UNBOUND:                -0.056
REMARK  4 active torsions:
REMARK  status: ('A' for Active; 'I' for Inactive)
REMARK    1  A    between atoms: O_2  and  C_3 
REMARK    2  A    between atoms: C_4  and  O_13 
REMARK    3  A    between atoms: C_5  and  O_11 
REMARK    4  A    between atoms: C_6  and  O_9 
ROOT
HETATM    1  C   UNL     1      28.671 -11.993  43.510  1.00  0.00     0.290 C 
HETATM    2  C   UNL     1      29.138 -10.517  43.667  1.00  0.00     0.204 C 
HETATM    3  C   UNL     1      29.202  -9.706  42.405  1.00  0.00     0.182 C 
HETATM    4  C   UNL     1      30.111 -10.483  41.444  1.00  0.00     0.173 C 
HETATM    5  C   UNL     1      29.444 -11.851  41.183  1.00  0.00     0.205 C 
HETATM    6  O   UNL     1      29.484 -12.601  42.444  1.00  0.00    -0.356 OA
ENDROOT
BRANCH   1   7
HETATM    7  O   UNL     1      29.084 -12.624  44.750  1.00  0.00    -0.363 OA
HETATM    8  C   UNL     1      30.492 -12.513  45.044  1.00  0.00     0.204 C 
ENDBRANCH   1   7
BRANCH   2   9
HETATM    9  O   UNL     1      28.224  -9.789  44.583  1.00  0.00    -0.388 OA
ATOM     10  HO  UNL     1      27.612  -9.262  44.082  1.00  0.00     0.210 HD
ENDBRANCH   2   9
BRANCH   3  11
HETATM   11  O   UNL     1      29.946  -8.496  42.685  1.00  0.00    -0.390 OA
ATOM     12  HO  UNL     1      29.632  -7.880  42.034  1.00  0.00     0.210 HD
ENDBRANCH   3  11
BRANCH   4  13
HETATM   13  O   UNL     1      30.148  -9.763  40.231  1.00  0.00    -0.391 OA
ATOM     14  HO  UNL     1      29.264  -9.696  39.891  1.00  0.00     0.210 HD
ENDBRANCH   4  13
TORSDOF 4
ENDMDL
MODEL 7
REMARK VINA RESULT:    -4.830      2.570      4.186
REMARK INTER + INTRA:          -5.592
REMARK INTER:                  -5.544
REMARK INTRA:                  -0.048
REMARK UNBOUND:                -0.056
REMARK  4 active torsions:
REMARK  status: ('A' for Active; 'I' for Inactive)
REMARK    1  A    between atoms: O_2  and  C_3 
REMARK    2  A    between atoms: C_4  and  O_13 
REMARK    3  A    between atoms: C_5  and  O_11 
REMARK    4  A    between atoms: C_6  and  O_9 
ROOT
HETATM    1  C   UNL     1      29.309 -10.244  41.336  1.00  0.00     0.290 C 
HETATM    2  C   UNL     1      29.407 -10.513  42.865  1.00  0.00     0.204 C 
HETATM    3  C   UNL     1      28.174 -10.215  43.670  1.00  0.00     0.182 C 
HETATM    4  C   UNL     1      27.818  -8.751  43.378  1.00  0.00     0.173 C 
HETATM    5  C   UNL     1      27.527  -8.640  41.866  1.00  0.00     0.205 C 
HETATM    6  O   UNL     1      28.792  -8.878  41.161  1.00  0.00    -0.356 OA
ENDROOT
BRANCH   1   7
HETATM    7  O   UNL     1      30.693 -10.219  40.897  1.00  0.00    -0.363 OA
HETATM    8  C   UNL     1      31.033 -11.221  39.917  1.00  0.00     0.204 C 
ENDBRANCH   1   7
BRANCH   2   9
HETATM    9  O   UNL     1      29.729 -11.941  43.112  1.00  0.00    -0.388 OA
ATOM     10  HO  UNL     1      29.733 -12.118  44.046  1.00  0.00     0.210 HD
ENDBRANCH   2   9
BRANCH   3  11
HETATM   11  O   UNL     1      28.540 -10.211  45.070  1.00  0.00    -0.390 OA
ATOM     12  HO  UNL     1      27.910 -10.796  45.472  1.00  0.00     0.210 HD
ENDBRANCH   3  11
BRANCH   4  13
HETATM   13  O   UNL     1      26.633  -8.461  44.086  1.00  0.00    -0.391 OA
ATOM     14  HO  UNL     1      26.861  -8.261  44.987  1.00  0.00     0.210 HD
ENDBRANCH   4  13
TORSDOF 4
ENDMDL
MODEL 8
REMARK VINA RESULT:    -4.796      3.074      4.862
REMARK INTER + INTRA:          -5.553
REMARK INTER:                  -5.514
REMARK INTRA:                  -0.039
REMARK UNBOUND:                -0.056
REMARK  4 active torsions:
REMARK  status: ('A' for Active; 'I' for Inactive)
REMARK    1  A    between atoms: O_2  and  C_3 
REMARK    2  A    between atoms: C_4  and  O_13 
REMARK    3  A    between atoms: C_5  and  O_11 
REMARK    4  A    between atoms: C_6  and  O_9 
ROOT
HETATM    1  C   UNL     1      29.771 -11.714  41.629  1.00  0.00     0.290 C 
HETATM    2  C   UNL     1      29.206 -10.382  41.057  1.00  0.00     0.204 C 
HETATM    3  C   UNL     1      28.877  -9.317  42.063  1.00  0.00     0.182 C 
HETATM    4  C   UNL     1      27.903  -9.959  43.060  1.00  0.00     0.173 C 
HETATM    5  C   UNL     1      28.639 -11.138  43.731  1.00  0.00     0.205 C 
HETATM    6  O   UNL     1      28.860 -12.156  42.697  1.00  0.00    -0.356 OA
ENDROOT
BRANCH   1   7
HETATM    7  O   UNL     1      29.611 -12.658  40.537  1.00  0.00    -0.363 OA
HETATM    8  C   UNL     1      29.780 -14.041  40.907  1.00  0.00     0.204 C 
ENDBRANCH   1   7
BRANCH   2   9
HETATM    9  O   UNL     1      30.182  -9.777  40.116  1.00  0.00    -0.388 OA
ATOM     10  HO  UNL     1      29.879  -8.920  39.838  1.00  0.00     0.210 HD
ENDBRANCH   2   9
BRANCH   3  11
HETATM   11  O   UNL     1      28.081  -8.304  41.403  1.00  0.00    -0.390 OA
ATOM     12  HO  UNL     1      28.481  -8.223  40.546  1.00  0.00     0.210 HD
ENDBRANCH   3  11
BRANCH   4  13
HETATM   13  O   UNL     1      27.615  -8.990  44.045  1.00  0.00    -0.391 OA
ATOM     14  HO  UNL     1      26.960  -8.394  43.701  1.00  0.00     0.210 HD
ENDBRANCH   4  13
TORSDOF 4
ENDMDL
MODEL 9
REMARK VINA RESULT:    -4.703      1.878      4.583
REMARK INTER + INTRA:          -5.446
REMARK INTER:                  -5.434
REMARK INTRA:                  -0.012
REMARK UNBOUND:                -0.056
REMARK  4 active torsions:
REMARK  status: ('A' for Active; 'I' for Inactive)
REMARK    1  A    between atoms: O_2  and  C_3 
REMARK    2  A    between atoms: C_4  and  O_13 
REMARK    3  A    between atoms: C_5  and  O_11 
REMARK    4  A    between atoms: C_6  and  O_9 
ROOT
HETATM    1  C   UNL     1      27.766  -8.467  41.995  1.00  0.00     0.290 C 
HETATM    2  C   UNL     1      27.477  -9.408  43.200  1.00  0.00     0.204 C 
HETATM    3  C   UNL     1      28.633 -10.236  43.685  1.00  0.00     0.182 C 
HETATM    4  C   UNL     1      29.135 -11.021  42.466  1.00  0.00     0.173 C 
HETATM    5  C   UNL     1      29.601  -9.992  41.414  1.00  0.00     0.205 C 
HETATM    6  O   UNL     1      28.407  -9.277  40.947  1.00  0.00    -0.356 OA
ENDROOT
BRANCH   1   7
HETATM    7  O   UNL     1      26.446  -8.122  41.498  1.00  0.00    -0.363 OA
HETATM    8  C   UNL     1      26.068  -6.745  41.697  1.00  0.00     0.204 C 
ENDBRANCH   1   7
BRANCH   2   9
HETATM    9  O   UNL     1      27.017  -8.614  44.368  1.00  0.00    -0.388 OA
ATOM     10  HO  UNL     1      27.270  -7.704  44.263  1.00  0.00     0.210 HD
ENDBRANCH   2   9
BRANCH   3  11
HETATM   11  O   UNL     1      28.115 -11.259  44.568  1.00  0.00    -0.390 OA
ATOM     12  HO  UNL     1      27.534 -10.785  45.150  1.00  0.00     0.210 HD
ENDBRANCH   3  11
BRANCH   4  13
HETATM   13  O   UNL     1      30.254 -11.772  42.886  1.00  0.00    -0.391 OA
ATOM     14  HO  UNL     1      30.046 -12.186  43.715  1.00  0.00     0.210 HD
ENDBRANCH   4  13
TORSDOF 4
ENDMDL
MODEL 10
REMARK VINA RESULT:    -4.657      3.313      5.250
REMARK INTER + INTRA:          -5.394
REMARK INTER:                  -5.342
REMARK INTRA:                  -0.051
REMARK UNBOUND:                -0.056
REMARK  4 active torsions:
REMARK  status: ('A' for Active; 'I' for Inactive)
REMARK    1  A    between atoms: O_2  and  C_3 
REMARK    2  A    between atoms: C_4  and  O_13 
REMARK    3  A    between atoms: C_5  and  O_11 
REMARK    4  A    between atoms: C_6  and  O_9 
ROOT
HETATM    1  C   UNL     1      29.781 -12.021  41.484  1.00  0.00     0.290 C 
HETATM    2  C   UNL     1      29.884 -10.699  40.670  1.00  0.00     0.204 C 
HETATM    3  C   UNL     1      29.904  -9.429  41.471  1.00  0.00     0.182 C 
HETATM    4  C   UNL     1      28.643  -9.455  42.343  1.00  0.00     0.173 C 
HETATM    5  C   UNL     1      28.746 -10.687  43.267  1.00  0.00     0.205 C 
HETATM    6  O   UNL     1      28.650 -11.878  42.415  1.00  0.00    -0.356 OA
ENDROOT
BRANCH   1   7
HETATM    7  O   UNL     1      29.379 -13.008  40.498  1.00  0.00    -0.363 OA
HETATM    8  C   UNL     1      30.119 -14.244  40.546  1.00  0.00     0.204 C 
ENDBRANCH   1   7
BRANCH   2   9
HETATM    9  O   UNL     1      31.126 -10.697  39.856  1.00  0.00    -0.388 OA
ATOM     10  HO  UNL     1      30.947 -10.354  38.989  1.00  0.00     0.210 HD
ENDBRANCH   2   9
BRANCH   3  11
HETATM   11  O   UNL     1      29.678  -8.322  40.566  1.00  0.00    -0.390 OA
ATOM     12  HO  UNL     1      28.787  -8.453  40.265  1.00  0.00     0.210 HD
ENDBRANCH   3  11
BRANCH   4  13
HETATM   13  O   UNL     1      28.664  -8.292  43.142  1.00  0.00    -0.391 OA
ATOM     14  HO  UNL     1      29.184  -8.466  43.917  1.00  0.00     0.210 HD
ENDBRANCH   4  13
TORSDOF 4
ENDMDL
MODEL 11
REMARK VINA RESULT:    -4.542      4.000      5.281
REMARK INTER + INTRA:          -5.262
REMARK INTER:                  -5.209
REMARK INTRA:                  -0.053
REMARK UNBOUND:                -0.056
REMARK  4 active torsions:
REMARK  status: ('A' for Active; 'I' for Inactive)
REMARK    1  A    between atoms: O_2  and  C_3 
REMARK    2  A    between atoms: C_4  and  O_13 
REMARK    3  A    between atoms: C_5  and  O_11 
REMARK    4  A    between atoms: C_6  and  O_9 
ROOT
HETATM    1  C   UNL     1      30.261 -10.967  41.982  1.00  0.00     0.290 C 
HETATM    2  C   UNL     1      29.310  -9.981  42.718  1.00  0.00     0.204 C 
HETATM    3  C   UNL     1      28.962 -10.332  44.137  1.00  0.00     0.182 C 
HETATM    4  C   UNL     1      28.378 -11.750  44.094  1.00  0.00     0.173 C 
HETATM    5  C   UNL     1      29.479 -12.686  43.551  1.00  0.00     0.205 C 
HETATM    6  O   UNL     1      29.708 -12.321  42.149  1.00  0.00    -0.356 OA
ENDROOT
BRANCH   1   7
HETATM    7  O   UNL     1      30.099 -10.627  40.580  1.00  0.00    -0.363 OA
HETATM    8  C   UNL     1      29.829 -11.749  39.715  1.00  0.00     0.204 C 
ENDBRANCH   1   7
BRANCH   2   9
HETATM    9  O   UNL     1      29.915  -8.626  42.763  1.00  0.00    -0.388 OA
ATOM     10  HO  UNL     1      29.850  -8.268  43.641  1.00  0.00     0.210 HD
ENDBRANCH   2   9
BRANCH   3  11
HETATM   11  O   UNL     1      27.844  -9.508  44.543  1.00  0.00    -0.390 OA
ATOM     12  HO  UNL     1      27.351 -10.067  45.132  1.00  0.00     0.210 HD
ENDBRANCH   3  11
BRANCH   4  13
HETATM   13  O   UNL     1      28.087 -12.122  45.424  1.00  0.00    -0.391 OA
ATOM     14  HO  UNL     1      27.380 -12.756  45.413  1.00  0.00     0.210 HD
ENDBRANCH   4  13
TORSDOF 4
ENDMDL
MODEL 12
REMARK VINA RESULT:    -4.446      3.429      4.767
REMARK INTER + INTRA:          -5.152
REMARK INTER:                  -5.099
REMARK INTRA:                  -0.053
REMARK UNBOUND:                -0.056
REMARK  4 active torsions:
REMARK  status: ('A' for Active; 'I' for Inactive)
REMARK    1  A    between atoms: O_2  and  C_3 
REMARK    2  A    between atoms: C_4  and  O_13 
REMARK    3  A    between atoms: C_5  and  O_11 
REMARK    4  A    between atoms: C_6  and  O_9 
ROOT
HETATM    1  C   UNL     1      30.031 -11.788  43.410  1.00  0.00     0.290 C 
HETATM    2  C   UNL     1      29.360 -10.428  43.758  1.00  0.00     0.204 C 
HETATM    3  C   UNL     1      28.920  -9.590  42.592  1.00  0.00     0.182 C 
HETATM    4  C   UNL     1      30.164  -9.395  41.714  1.00  0.00     0.173 C 
HETATM    5  C   UNL     1      30.620 -10.792  41.244  1.00  0.00     0.205 C 
HETATM    6  O   UNL     1      31.094 -11.516  42.429  1.00  0.00    -0.356 OA
ENDROOT
BRANCH   1   7
HETATM    7  O   UNL     1      30.697 -12.173  44.640  1.00  0.00    -0.363 OA
HETATM    8  C   UNL     1      30.292 -13.452  45.170  1.00  0.00     0.204 C 
ENDBRANCH   1   7
BRANCH   2   9
HETATM    9  O   UNL     1      28.149 -10.655  44.586  1.00  0.00    -0.388 OA
ATOM     10  HO  UNL     1      27.483 -11.101  44.075  1.00  0.00     0.210 HD
ENDBRANCH   2   9
BRANCH   3  11
HETATM   11  O   UNL     1      28.627  -8.259  43.079  1.00  0.00    -0.390 OA
ATOM     12  HO  UNL     1      28.303  -7.802  42.313  1.00  0.00     0.210 HD
ENDBRANCH   3  11
BRANCH   4  13
HETATM   13  O   UNL     1      29.764  -8.648  40.585  1.00  0.00    -0.391 OA
ATOM     14  HO  UNL     1      30.533  -8.240  40.205  1.00  0.00     0.210 HD
ENDBRANCH   4  13
TORSDOF 4
ENDMDL
MODEL 13
REMARK VINA RESULT:    -4.423      1.483      2.774
REMARK INTER + INTRA:          -5.126
REMARK INTER:                  -5.072
REMARK INTRA:                  -0.054
REMARK UNBOUND:                -0.056
REMARK  4 active torsions:
REMARK  status: ('A' for Active; 'I' for Inactive)
REMARK    1  A    between atoms: O_2  and  C_3 
REMARK    2  A    between atoms: C_4  and  O_13 
REMARK    3  A    between atoms: C_5  and  O_11 
REMARK    4  A    between atoms: C_6  and  O_9 
ROOT
HETATM    1  C   UNL     1      27.992  -8.910  43.620  1.00  0.00     0.290 C 
HETATM    2  C   UNL     1      27.395  -8.981  42.185  1.00  0.00     0.204 C 
HETATM    3  C   UNL     1      27.027  -7.668  41.556  1.00  0.00     0.182 C 
HETATM    4  C   UNL     1      26.063  -6.983  42.533  1.00  0.00     0.173 C 
HETATM    5  C   UNL     1      26.826  -6.762  43.856  1.00  0.00     0.205 C 
HETATM    6  O   UNL     1      27.086  -8.086  44.435  1.00  0.00    -0.356 OA
ENDROOT
BRANCH   1   7
HETATM    7  O   UNL     1      27.869 -10.269  44.117  1.00  0.00    -0.363 OA
HETATM    8  C   UNL     1      29.099 -10.849  44.597  1.00  0.00     0.204 C 
ENDBRANCH   1   7
BRANCH   2   9
HETATM    9  O   UNL     1      28.362  -9.628  41.262  1.00  0.00    -0.388 OA
ATOM     10  HO  UNL     1      29.214  -9.696  41.678  1.00  0.00     0.210 HD
ENDBRANCH   2   9
BRANCH   3  11
HETATM   11  O   UNL     1      26.209  -7.939  40.394  1.00  0.00    -0.390 OA
ATOM     12  HO  UNL     1      26.003  -7.077  40.054  1.00  0.00     0.210 HD
ENDBRANCH   3  11
BRANCH   4  13
HETATM   13  O   UNL     1      25.740  -5.723  41.985  1.00  0.00    -0.391 OA
ATOM     14  HO  UNL     1      26.449  -5.120  42.174  1.00  0.00     0.210 HD
ENDBRANCH   4  13
TORSDOF 4
ENDMDL
MODEL 14
REMARK VINA RESULT:    -4.400      1.921      4.671
REMARK INTER + INTRA:          -5.099
REMARK INTER:                  -5.197
REMARK INTRA:                   0.098
REMARK UNBOUND:                -0.056
REMARK  4 active torsions:
REMARK  status: ('A' for Active; 'I' for Inactive)
REMARK    1  A    between atoms: O_2  and  C_3 
REMARK    2  A    between atoms: C_4  and  O_13 
REMARK    3  A    between atoms: C_5  and  O_11 
REMARK    4  A    between atoms: C_6  and  O_9 
ROOT
HETATM    1  C   UNL     1      27.299  -8.673  43.172  1.00  0.00     0.290 C 
HETATM    2  C   UNL     1      28.300  -8.639  41.981  1.00  0.00     0.204 C 
HETATM    3  C   UNL     1      28.691  -9.971  41.408  1.00  0.00     0.182 C 
HETATM    4  C   UNL     1      29.240 -10.795  42.580  1.00  0.00     0.173 C 
HETATM    5  C   UNL     1      28.099 -10.954  43.608  1.00  0.00     0.205 C 
HETATM    6  O   UNL     1      27.827  -9.623  44.164  1.00  0.00    -0.356 OA
ENDROOT
BRANCH   1   7
HETATM    7  O   UNL     1      27.418  -7.353  43.765  1.00  0.00    -0.363 OA
HETATM    8  C   UNL     1      26.382  -6.425  43.383  1.00  0.00     0.204 C 
ENDBRANCH   1   7
BRANCH   2   9
HETATM    9  O   UNL     1      27.727  -7.856  40.857  1.00  0.00    -0.388 OA
ATOM     10  HO  UNL     1      28.415  -7.603  40.252  1.00  0.00     0.210 HD
ENDBRANCH   2   9
BRANCH   3  11
HETATM   11  O   UNL     1      29.842  -9.774  40.553  1.00  0.00    -0.390 OA
ATOM     12  HO  UNL     1      29.799  -8.853  40.323  1.00  0.00     0.210 HD
ENDBRANCH   3  11
BRANCH   4  13
HETATM   13  O   UNL     1      29.571 -12.070  42.076  1.00  0.00    -0.391 OA
ATOM     14  HO  UNL     1      30.492 -12.075  41.845  1.00  0.00     0.210 HD
ENDBRANCH   4  13
TORSDOF 4
ENDMDL
MODEL 15
REMARK VINA RESULT:    -4.269      3.199      5.756
REMARK INTER + INTRA:          -4.949
REMARK INTER:                  -4.887
REMARK INTRA:                  -0.062
REMARK UNBOUND:                -0.056
REMARK  4 active torsions:
REMARK  status: ('A' for Active; 'I' for Inactive)
REMARK    1  A    between atoms: O_2  and  C_3 
REMARK    2  A    between atoms: C_4  and  O_13 
REMARK    3  A    between atoms: C_5  and  O_11 
REMARK    4  A    between atoms: C_6  and  O_9 
ROOT
HETATM    1  C   UNL     1      29.870  -9.658  41.224  1.00  0.00     0.290 C 
HETATM    2  C   UNL     1      29.563 -10.442  42.532  1.00  0.00     0.204 C 
HETATM    3  C   UNL     1      30.029 -11.870  42.572  1.00  0.00     0.182 C 
HETATM    4  C   UNL     1      29.409 -12.555  41.347  1.00  0.00     0.173 C 
HETATM    5  C   UNL     1      29.950 -11.837  40.093  1.00  0.00     0.205 C 
HETATM    6  O   UNL     1      29.396 -10.477  40.097  1.00  0.00    -0.356 OA
ENDROOT
BRANCH   1   7
HETATM    7  O   UNL     1      28.989  -8.506  41.293  1.00  0.00    -0.363 OA
HETATM    8  C   UNL     1      27.649  -8.798  41.738  1.00  0.00     0.204 C 
ENDBRANCH   1   7
BRANCH   2   9
HETATM    9  O   UNL     1      30.198  -9.766  43.692  1.00  0.00    -0.388 OA
ATOM     10  HO  UNL     1      29.532  -9.480  44.307  1.00  0.00     0.210 HD
ENDBRANCH   2   9
BRANCH   3  11
HETATM   11  O   UNL     1      29.389 -12.521  43.695  1.00  0.00    -0.390 OA
ATOM     12  HO  UNL     1      30.060 -12.528  44.367  1.00  0.00     0.210 HD
ENDBRANCH   3  11
BRANCH   4  13
HETATM   13  O   UNL     1      29.871 -13.888  41.336  1.00  0.00    -0.391 OA
ATOM     14  HO  UNL     1      30.602 -13.960  41.939  1.00  0.00     0.210 HD
ENDBRANCH   4  13
TORSDOF 4
ENDMDL
MODEL 16
REMARK VINA RESULT:    -4.241      2.314      5.336
REMARK INTER + INTRA:          -4.917
REMARK INTER:                  -4.863
REMARK INTRA:                  -0.054
REMARK UNBOUND:                -0.056
REMARK  4 active torsions:
REMARK  status: ('A' for Active; 'I' for Inactive)
REMARK    1  A    between atoms: O_2  and  C_3 
REMARK    2  A    between atoms: C_4  and  O_13 
REMARK    3  A    between atoms: C_5  and  O_11 
REMARK    4  A    between atoms: C_6  and  O_9 
ROOT
HETATM    1  C   UNL     1      27.845  -9.266  42.682  1.00  0.00     0.290 C 
HETATM    2  C   UNL     1      29.298  -9.359  42.133  1.00  0.00     0.204 C 
HETATM    3  C   UNL     1      29.851 -10.744  41.958  1.00  0.00     0.182 C 
HETATM    4  C   UNL     1      29.721 -11.431  43.323  1.00  0.00     0.173 C 
HETATM    5  C   UNL     1      28.219 -11.481  43.674  1.00  0.00     0.205 C 
HETATM    6  O   UNL     1      27.777 -10.099  43.893  1.00  0.00    -0.356 OA
ENDROOT
BRANCH   1   7
HETATM    7  O   UNL     1      27.727  -7.888  43.124  1.00  0.00    -0.363 OA
HETATM    8  C   UNL     1      26.596  -7.176  42.582  1.00  0.00     0.204 C 
ENDBRANCH   1   7
BRANCH   2   9
HETATM    9  O   UNL     1      29.383  -8.706  40.802  1.00  0.00    -0.388 OA
ATOM     10  HO  UNL     1      28.885  -7.896  40.804  1.00  0.00     0.210 HD
ENDBRANCH   2   9
BRANCH   3  11
HETATM   11  O   UNL     1      31.281 -10.636  41.758  1.00  0.00    -0.390 OA
ATOM     12  HO  UNL     1      31.366 -10.405  40.841  1.00  0.00     0.210 HD
ENDBRANCH   3  11
BRANCH   4  13
HETATM   13  O   UNL     1      30.191 -12.753  43.172  1.00  0.00    -0.391 OA
ATOM     14  HO  UNL     1      29.567 -13.238  42.646  1.00  0.00     0.210 HD
ENDBRANCH   4  13
TORSDOF 4
ENDMDL
MODEL 17
REMARK VINA RESULT:    -4.163      2.966      5.352
REMARK INTER + INTRA:          -4.827
REMARK INTER:                  -4.761
REMARK INTRA:                  -0.066
REMARK UNBOUND:                -0.056
REMARK  4 active torsions:
REMARK  status: ('A' for Active; 'I' for Inactive)
REMARK    1  A    between atoms: O_2  and  C_3 
REMARK    2  A    between atoms: C_4  and  O_13 
REMARK    3  A    between atoms: C_5  and  O_11 
REMARK    4  A    between atoms: C_6  and  O_9 
ROOT
HETATM    1  C   UNL     1      28.913  -9.894  43.273  1.00  0.00     0.290 C 
HETATM    2  C   UNL     1      28.773 -11.258  42.538  1.00  0.00     0.204 C 
HETATM    3  C   UNL     1      29.844 -11.584  41.537  1.00  0.00     0.182 C 
HETATM    4  C   UNL     1      29.872 -10.412  40.547  1.00  0.00     0.173 C 
HETATM    5  C   UNL     1      30.235  -9.142  41.345  1.00  0.00     0.205 C 
HETATM    6  O   UNL     1      29.112  -8.859  42.246  1.00  0.00    -0.356 OA
ENDROOT
BRANCH   1   7
HETATM    7  O   UNL     1      27.596  -9.665  43.837  1.00  0.00    -0.363 OA
HETATM    8  C   UNL     1      26.833  -8.628  43.186  1.00  0.00     0.204 C 
ENDBRANCH   1   7
BRANCH   2   9
HETATM    9  O   UNL     1      28.773 -12.370  43.523  1.00  0.00    -0.388 OA
ATOM     10  HO  UNL     1      28.022 -12.295  44.100  1.00  0.00     0.210 HD
ENDBRANCH   2   9
BRANCH   3  11
HETATM   11  O   UNL     1      29.390 -12.702  40.739  1.00  0.00    -0.390 OA
ATOM     12  HO  UNL     1      28.979 -13.281  41.370  1.00  0.00     0.210 HD
ENDBRANCH   3  11
BRANCH   4  13
HETATM   13  O   UNL     1      30.906 -10.672  39.622  1.00  0.00    -0.391 OA
ATOM     14  HO  UNL     1      31.009 -11.613  39.541  1.00  0.00     0.210 HD
ENDBRANCH   4  13
TORSDOF 4
ENDMDL
MODEL 18
REMARK VINA RESULT:    -4.079      3.735      5.663
REMARK INTER + INTRA:          -4.731
REMARK INTER:                  -4.683
REMARK INTRA:                  -0.048
REMARK UNBOUND:                -0.056
REMARK  4 active torsions:
REMARK  status: ('A' for Active; 'I' for Inactive)
REMARK    1  A    between atoms: O_2  and  C_3 
REMARK    2  A    between atoms: C_4  and  O_13 
REMARK    3  A    between atoms: C_5  and  O_11 
REMARK    4  A    between atoms: C_6  and  O_9 
ROOT
HETATM    1  C   UNL     1      30.994 -11.380  43.318  1.00  0.00     0.290 C 
HETATM    2  C   UNL     1      31.108 -11.225  41.774  1.00  0.00     0.204 C 
HETATM    3  C   UNL     1      30.569  -9.948  41.196  1.00  0.00     0.182 C 
HETATM    4  C   UNL     1      29.111  -9.850  41.664  1.00  0.00     0.173 C 
HETATM    5  C   UNL     1      29.125  -9.791  43.207  1.00  0.00     0.205 C 
HETATM    6  O   UNL     1      29.599 -11.094  43.688  1.00  0.00    -0.356 OA
ENDROOT
BRANCH   1   7
HETATM    7  O   UNL     1      31.195 -12.800  43.542  1.00  0.00    -0.363 OA
HETATM    8  C   UNL     1      32.010 -13.120  44.689  1.00  0.00     0.204 C 
ENDBRANCH   1   7
BRANCH   2   9
HETATM    9  O   UNL     1      32.532 -11.300  41.359  1.00  0.00    -0.388 OA
ATOM     10  HO  UNL     1      33.000 -10.528  41.655  1.00  0.00     0.210 HD
ENDBRANCH   2   9
BRANCH   3  11
HETATM   11  O   UNL     1      30.463 -10.113  39.762  1.00  0.00    -0.390 OA
ATOM     12  HO  UNL     1      31.353 -10.001  39.453  1.00  0.00     0.210 HD
ENDBRANCH   3  11
BRANCH   4  13
HETATM   13  O   UNL     1      28.596  -8.633  41.172  1.00  0.00    -0.391 OA
ATOM     14  HO  UNL     1      27.688  -8.557  41.442  1.00  0.00     0.210 HD
ENDBRANCH   4  13
TORSDOF 4
ENDMDL
MODEL 19
REMARK VINA RESULT:    -4.071      4.260      5.732
REMARK INTER + INTRA:          -4.722
REMARK INTER:                  -4.695
REMARK INTRA:                  -0.027
REMARK UNBOUND:                -0.056
REMARK  4 active torsions:
REMARK  status: ('A' for Active; 'I' for Inactive)
REMARK    1  A    between atoms: O_2  and  C_3 
REMARK    2  A    between atoms: C_4  and  O_13 
REMARK    3  A    between atoms: C_5  and  O_11 
REMARK    4  A    between atoms: C_6  and  O_9 
ROOT
HETATM    1  C   UNL     1      29.526 -10.907  43.847  1.00  0.00     0.290 C 
HETATM    2  C   UNL     1      29.395 -11.984  42.732  1.00  0.00     0.204 C 
HETATM    3  C   UNL     1      30.149 -11.715  41.461  1.00  0.00     0.182 C 
HETATM    4  C   UNL     1      29.681 -10.339  40.971  1.00  0.00     0.173 C 
HETATM    5  C   UNL     1      30.056  -9.310  42.059  1.00  0.00     0.205 C 
HETATM    6  O   UNL     1      29.229  -9.602  43.236  1.00  0.00    -0.356 OA
ENDROOT
BRANCH   1   7
HETATM    7  O   UNL     1      28.424 -11.200  44.746  1.00  0.00    -0.363 OA
HETATM    8  C   UNL     1      28.819 -11.656  46.055  1.00  0.00     0.204 C 
ENDBRANCH   1   7
BRANCH   2   9
HETATM    9  O   UNL     1      29.879 -13.296  43.232  1.00  0.00    -0.388 OA
ATOM     10  HO  UNL     1      29.646 -13.984  42.619  1.00  0.00     0.210 HD
ENDBRANCH   2   9
BRANCH   3  11
HETATM   11  O   UNL     1      29.664 -12.628  40.448  1.00  0.00    -0.390 OA
ATOM     12  HO  UNL     1      29.522 -12.073  39.691  1.00  0.00     0.210 HD
ENDBRANCH   3  11
BRANCH   4  13
HETATM   13  O   UNL     1      30.412 -10.042  39.801  1.00  0.00    -0.391 OA
ATOM     14  HO  UNL     1      29.799  -9.839  39.104  1.00  0.00     0.210 HD
ENDBRANCH   4  13
TORSDOF 4
ENDMDL
MODEL 20
REMARK VINA RESULT:    -3.765      5.352      7.107
REMARK INTER + INTRA:          -4.371
REMARK INTER:                  -4.257
REMARK INTRA:                  -0.114
REMARK UNBOUND:                -0.056
REMARK  4 active torsions:
REMARK  status: ('A' for Active; 'I' for Inactive)
REMARK    1  A    between atoms: O_2  and  C_3 
REMARK    2  A    between atoms: C_4  and  O_13 
REMARK    3  A    between atoms: C_5  and  O_11 
REMARK    4  A    between atoms: C_6  and  O_9 
ROOT
HETATM    1  C   UNL     1      29.617 -11.681  41.545  1.00  0.00     0.290 C 
HETATM    2  C   UNL     1      30.602 -11.055  40.516  1.00  0.00     0.204 C 
HETATM    3  C   UNL     1      30.808 -11.828  39.244  1.00  0.00     0.182 C 
HETATM    4  C   UNL     1      31.254 -13.234  39.667  1.00  0.00     0.173 C 
HETATM    5  C   UNL     1      30.112 -13.849  40.503  1.00  0.00     0.205 C 
HETATM    6  O   UNL     1      30.024 -13.080  41.750  1.00  0.00    -0.356 OA
ENDROOT
BRANCH   1   7
HETATM    7  O   UNL     1      29.915 -10.981  42.782  1.00  0.00    -0.363 OA
HETATM    8  C   UNL     1      31.201 -11.293  43.356  1.00  0.00     0.204 C 
ENDBRANCH   1   7
BRANCH   2   9
HETATM    9  O   UNL     1      30.128  -9.708  40.111  1.00  0.00    -0.388 OA
ATOM     10  HO  UNL     1      30.818  -9.067  40.240  1.00  0.00     0.210 HD
ENDBRANCH   2   9
BRANCH   3  11
HETATM   11  O   UNL     1      31.967 -11.284  38.569  1.00  0.00    -0.390 OA
ATOM     12  HO  UNL     1      32.349 -10.697  39.211  1.00  0.00     0.210 HD
ENDBRANCH   3  11
BRANCH   4  13
HETATM   13  O   UNL     1      31.408 -13.994  38.488  1.00  0.00    -0.391 OA
ATOM     14  HO  UNL     1      31.643 -14.882  38.730  1.00  0.00     0.210 HD
ENDBRANCH   4  13
TORSDOF 4
ENDMDL
