MODEL 1
REMARK VINA RESULT:    -7.659      0.000      0.000
REMARK INTER + INTRA:         -10.363
REMARK INTER:                  -9.898
REMARK INTRA:                  -0.465
REMARK UNBOUND:                -0.465
REMARK  7 active torsions:
REMARK  status: ('A' for Active; 'I' for Inactive)
REMARK    1  A    between atoms: C_1  and  O_7 
REMARK    2  A    between atoms: C_2  and  N_9 
REMARK    3  A    between atoms: C_3  and  O_13 
REMARK    4  A    between atoms: C_4  and  O_15 
REMARK    5  A    between atoms: C_5  and  C_6 
REMARK    6  A    between atoms: C_6  and  O_18 
REMARK    7  A    between atoms: O_18  and  P_19 
ROOT
HETATM    1  C   UNL     1       3.378   6.381 -36.393  1.00  0.00     0.290 C 
HETATM    2  C   UNL     1       4.496   6.351 -35.363  1.00  0.00     0.269 C 
HETATM    3  C   UNL     1       5.582   5.415 -35.779  1.00  0.00     0.184 C 
HETATM    4  C   UNL     1       5.033   4.070 -36.132  1.00  0.00     0.180 C 
HETATM    5  C   UNL     1       3.918   4.200 -37.182  1.00  0.00     0.180 C 
HETATM    6  O   UNL     1       2.835   5.001 -36.623  1.00  0.00    -0.349 OA
ENDROOT
BRANCH   5   7
HETATM    7  C   UNL     1       3.380   2.861 -37.604  1.00  0.00     0.217 C 
BRANCH   7   8
HETATM    8  O   UNL     1       3.382   1.997 -36.508  1.00  0.00    -0.280 OA
BRANCH   8   9
HETATM    9  P   UNL     1       3.159   0.415 -36.906  1.00  0.00     0.422 P 
HETATM   10  O   UNL     1       3.475  -0.389 -35.618  1.00  0.00    -0.617 OA
HETATM   11  O   UNL     1       1.707   0.205 -37.366  1.00  0.00    -0.617 OA
HETATM   12  O   UNL     1       4.101   0.039 -38.071  1.00  0.00    -0.617 OA
ENDBRANCH   8   9
ENDBRANCH   7   8
ENDBRANCH   5   7
BRANCH   4  13
HETATM   13  O   UNL     1       6.064   3.228 -36.647  1.00  0.00    -0.390 OA
ATOM     14  HO  UNL     1       6.842   3.323 -36.110  1.00  0.00     0.210 HD
ENDBRANCH   4  13
BRANCH   1  15
HETATM   15  O   UNL     1       3.861   6.823 -37.572  1.00  0.00    -0.369 OA
ATOM     16  HO  UNL     1       3.173   7.329 -37.988  1.00  0.00     0.212 HD
ENDBRANCH   1  15
BRANCH   3  17
HETATM   17  O   UNL     1       6.532   5.266 -34.680  1.00  0.00    -0.391 OA
ATOM     18  HO  UNL     1       6.634   4.342 -34.483  1.00  0.00     0.210 HD
ENDBRANCH   3  17
BRANCH   2  19
HETATM   19  N   UNL     1       5.029   7.715 -35.226  1.00  0.00    -0.068 N 
ATOM     20  HN3 UNL     1       4.291   8.418 -35.259  1.00  0.00     0.275 HD
ATOM     21  HN2 UNL     1       5.368   7.899 -34.282  1.00  0.00     0.275 HD
ATOM     22  HN1 UNL     1       5.747   7.883 -35.929  1.00  0.00     0.275 HD
ENDBRANCH   2  19
TORSDOF 7
ENDMDL
MODEL 2
REMARK VINA RESULT:    -6.732      1.386      2.487
REMARK INTER + INTRA:          -9.165
REMARK INTER:                  -8.685
REMARK INTRA:                  -0.480
REMARK UNBOUND:                -0.465
REMARK  7 active torsions:
REMARK  status: ('A' for Active; 'I' for Inactive)
REMARK    1  A    between atoms: C_1  and  O_7 
REMARK    2  A    between atoms: C_2  and  N_9 
REMARK    3  A    between atoms: C_3  and  O_13 
REMARK    4  A    between atoms: C_4  and  O_15 
REMARK    5  A    between atoms: C_5  and  C_6 
REMARK    6  A    between atoms: C_6  and  O_18 
REMARK    7  A    between atoms: O_18  and  P_19 
ROOT
HETATM    1  C   UNL     1       5.380   4.805 -34.951  1.00  0.00     0.290 C 
HETATM    2  C   UNL     1       5.218   5.710 -36.162  1.00  0.00     0.269 C 
HETATM    3  C   UNL     1       4.140   5.207 -37.065  1.00  0.00     0.184 C 
HETATM    4  C   UNL     1       4.340   3.763 -37.398  1.00  0.00     0.180 C 
HETATM    5  C   UNL     1       4.486   2.928 -36.115  1.00  0.00     0.180 C 
HETATM    6  O   UNL     1       5.658   3.393 -35.380  1.00  0.00    -0.349 OA
ENDROOT
BRANCH   5   7
HETATM    7  C   UNL     1       4.634   1.461 -36.409  1.00  0.00     0.217 C 
BRANCH   7   8
HETATM    8  O   UNL     1       3.697   0.745 -35.663  1.00  0.00    -0.280 OA
BRANCH   8   9
HETATM    9  P   UNL     1       2.778  -0.285 -36.560  1.00  0.00     0.422 P 
HETATM   10  O   UNL     1       3.784  -1.173 -37.339  1.00  0.00    -0.617 OA
HETATM   11  O   UNL     1       1.887  -1.120 -35.625  1.00  0.00    -0.617 OA
HETATM   12  O   UNL     1       1.867   0.528 -37.507  1.00  0.00    -0.617 OA
ENDBRANCH   8   9
ENDBRANCH   7   8
ENDBRANCH   5   7
BRANCH   4  13
HETATM   13  O   UNL     1       3.239   3.266 -38.156  1.00  0.00    -0.390 OA
ATOM     14  HO  UNL     1       2.436   3.659 -37.833  1.00  0.00     0.210 HD
ENDBRANCH   4  13
BRANCH   1  15
HETATM   15  O   UNL     1       4.233   4.789 -34.242  1.00  0.00    -0.369 OA
ATOM     16  HO  UNL     1       4.217   5.579 -33.713  1.00  0.00     0.212 HD
ENDBRANCH   1  15
BRANCH   3  17
HETATM   17  O   UNL     1       4.151   5.984 -38.301  1.00  0.00    -0.391 OA
ATOM     18  HO  UNL     1       3.827   6.858 -38.120  1.00  0.00     0.210 HD
ENDBRANCH   3  17
BRANCH   2  19
HETATM   19  N   UNL     1       4.887   7.060 -35.683  1.00  0.00    -0.068 N 
ATOM     20  HN3 UNL     1       5.689   7.688 -35.725  1.00  0.00     0.275 HD
ATOM     21  HN2 UNL     1       4.275   7.556 -36.331  1.00  0.00     0.275 HD
ATOM     22  HN1 UNL     1       4.490   7.011 -34.745  1.00  0.00     0.275 HD
ENDBRANCH   2  19
TORSDOF 7
ENDMDL
MODEL 3
REMARK VINA RESULT:    -6.546      3.430      5.834
REMARK INTER + INTRA:          -8.925
REMARK INTER:                  -8.391
REMARK INTRA:                  -0.534
REMARK UNBOUND:                -0.465
REMARK  7 active torsions:
REMARK  status: ('A' for Active; 'I' for Inactive)
REMARK    1  A    between atoms: C_1  and  O_7 
REMARK    2  A    between atoms: C_2  and  N_9 
REMARK    3  A    between atoms: C_3  and  O_13 
REMARK    4  A    between atoms: C_4  and  O_15 
REMARK    5  A    between atoms: C_5  and  C_6 
REMARK    6  A    between atoms: C_6  and  O_18 
REMARK    7  A    between atoms: O_18  and  P_19 
ROOT
HETATM    1  C   UNL     1       5.007  -0.062 -35.509  1.00  0.00     0.290 C 
HETATM    2  C   UNL     1       3.612  -0.423 -35.996  1.00  0.00     0.269 C 
HETATM    3  C   UNL     1       3.181   0.481 -37.103  1.00  0.00     0.184 C 
HETATM    4  C   UNL     1       3.349   1.918 -36.725  1.00  0.00     0.180 C 
HETATM    5  C   UNL     1       4.787   2.189 -36.255  1.00  0.00     0.180 C 
HETATM    6  O   UNL     1       5.059   1.374 -35.076  1.00  0.00    -0.349 OA
ENDROOT
BRANCH   5   7
HETATM    7  C   UNL     1       5.009   3.638 -35.920  1.00  0.00     0.217 C 
BRANCH   7   8
HETATM    8  O   UNL     1       3.792   4.220 -35.561  1.00  0.00    -0.280 OA
BRANCH   8   9
HETATM    9  P   UNL     1       3.576   5.737 -36.163  1.00  0.00     0.422 P 
HETATM   10  O   UNL     1       2.052   6.011 -36.067  1.00  0.00    -0.617 OA
HETATM   11  O   UNL     1       4.389   6.738 -35.326  1.00  0.00    -0.617 OA
HETATM   12  O   UNL     1       4.085   5.790 -37.620  1.00  0.00    -0.617 OA
ENDBRANCH   8   9
ENDBRANCH   7   8
ENDBRANCH   5   7
BRANCH   4  13
HETATM   13  O   UNL     1       3.052   2.765 -37.835  1.00  0.00    -0.390 OA
ATOM     14  HO  UNL     1       3.522   2.453 -38.600  1.00  0.00     0.210 HD
ENDBRANCH   4  13
BRANCH   1  15
HETATM   15  O   UNL     1       5.890  -0.209 -36.518  1.00  0.00    -0.369 OA
ATOM     16  HO  UNL     1       5.940   0.624 -36.973  1.00  0.00     0.212 HD
ENDBRANCH   1  15
BRANCH   3  17
HETATM   17  O   UNL     1       1.774   0.231 -37.404  1.00  0.00    -0.391 OA
ATOM     18  HO  UNL     1       1.236   0.707 -36.782  1.00  0.00     0.210 HD
ENDBRANCH   3  17
BRANCH   2  19
HETATM   19  N   UNL     1       3.638  -1.818 -36.463  1.00  0.00    -0.068 N 
ATOM     20  HN3 UNL     1       4.590  -2.156 -36.604  1.00  0.00     0.275 HD
ATOM     21  HN2 UNL     1       3.354  -2.471 -35.733  1.00  0.00     0.275 HD
ATOM     22  HN1 UNL     1       3.071  -1.916 -37.305  1.00  0.00     0.275 HD
ENDBRANCH   2  19
TORSDOF 7
ENDMDL
MODEL 4
REMARK VINA RESULT:    -6.290      2.902      4.561
REMARK INTER + INTRA:          -8.594
REMARK INTER:                  -7.934
REMARK INTRA:                  -0.660
REMARK UNBOUND:                -0.465
REMARK  7 active torsions:
REMARK  status: ('A' for Active; 'I' for Inactive)
REMARK    1  A    between atoms: C_1  and  O_7 
REMARK    2  A    between atoms: C_2  and  N_9 
REMARK    3  A    between atoms: C_3  and  O_13 
REMARK    4  A    between atoms: C_4  and  O_15 
REMARK    5  A    between atoms: C_5  and  C_6 
REMARK    6  A    between atoms: C_6  and  O_18 
REMARK    7  A    between atoms: O_18  and  P_19 
ROOT
HETATM    1  C   UNL     1       5.294   2.437 -36.303  1.00  0.00     0.290 C 
HETATM    2  C   UNL     1       4.460   2.873 -37.497  1.00  0.00     0.269 C 
HETATM    3  C   UNL     1       3.125   2.206 -37.489  1.00  0.00     0.184 C 
HETATM    4  C   UNL     1       3.260   0.724 -37.341  1.00  0.00     0.180 C 
HETATM    5  C   UNL     1       4.110   0.379 -36.107  1.00  0.00     0.180 C 
HETATM    6  O   UNL     1       5.444   0.943 -36.281  1.00  0.00    -0.349 OA
ENDROOT
BRANCH   5   7
HETATM    7  C   UNL     1       4.221  -1.105 -35.893  1.00  0.00     0.217 C 
BRANCH   7   8
HETATM    8  O   UNL     1       3.100  -1.555 -35.194  1.00  0.00    -0.280 OA
BRANCH   8   9
HETATM    9  P   UNL     1       2.613  -3.069 -35.619  1.00  0.00     0.422 P 
HETATM   10  O   UNL     1       2.081  -2.944 -37.071  1.00  0.00    -0.617 OA
HETATM   11  O   UNL     1       3.808  -4.033 -35.532  1.00  0.00    -0.617 OA
HETATM   12  O   UNL     1       1.521  -3.553 -34.640  1.00  0.00    -0.617 OA
ENDBRANCH   8   9
ENDBRANCH   7   8
ENDBRANCH   5   7
BRANCH   4  13
HETATM   13  O   UNL     1       1.976   0.114 -37.208  1.00  0.00    -0.390 OA
ATOM     14  HO  UNL     1       1.379   0.731 -36.801  1.00  0.00     0.210 HD
ENDBRANCH   4  13
BRANCH   1  15
HETATM   15  O   UNL     1       4.671   2.793 -35.161  1.00  0.00    -0.369 OA
ATOM     16  HO  UNL     1       5.159   3.519 -34.788  1.00  0.00     0.212 HD
ENDBRANCH   1  15
BRANCH   3  17
HETATM   17  O   UNL     1       2.438   2.495 -38.745  1.00  0.00    -0.391 OA
ATOM     18  HO  UNL     1       1.636   2.968 -38.556  1.00  0.00     0.210 HD
ENDBRANCH   3  17
BRANCH   2  19
HETATM   19  N   UNL     1       4.296   4.333 -37.431  1.00  0.00    -0.068 N 
ATOM     20  HN3 UNL     1       4.164   4.660 -36.474  1.00  0.00     0.275 HD
ATOM     21  HN2 UNL     1       5.166   4.824 -37.638  1.00  0.00     0.275 HD
ATOM     22  HN1 UNL     1       3.536   4.628 -38.043  1.00  0.00     0.275 HD
ENDBRANCH   2  19
TORSDOF 7
ENDMDL
MODEL 5
REMARK VINA RESULT:    -5.887      1.692      2.742
REMARK INTER + INTRA:          -8.073
REMARK INTER:                  -7.429
REMARK INTRA:                  -0.645
REMARK UNBOUND:                -0.465
REMARK  7 active torsions:
REMARK  status: ('A' for Active; 'I' for Inactive)
REMARK    1  A    between atoms: C_1  and  O_7 
REMARK    2  A    between atoms: C_2  and  N_9 
REMARK    3  A    between atoms: C_3  and  O_13 
REMARK    4  A    between atoms: C_4  and  O_15 
REMARK    5  A    between atoms: C_5  and  C_6 
REMARK    6  A    between atoms: C_6  and  O_18 
REMARK    7  A    between atoms: O_18  and  P_19 
ROOT
HETATM    1  C   UNL     1       5.303   4.878 -34.873  1.00  0.00     0.290 C 
HETATM    2  C   UNL     1       5.217   5.767 -36.104  1.00  0.00     0.269 C 
HETATM    3  C   UNL     1       4.135   5.306 -37.023  1.00  0.00     0.184 C 
HETATM    4  C   UNL     1       4.265   3.847 -37.325  1.00  0.00     0.180 C 
HETATM    5  C   UNL     1       4.336   3.030 -36.024  1.00  0.00     0.180 C 
HETATM    6  O   UNL     1       5.514   3.446 -35.270  1.00  0.00    -0.349 OA
ENDROOT
BRANCH   5   7
HETATM    7  C   UNL     1       4.411   1.552 -36.288  1.00  0.00     0.217 C 
BRANCH   7   8
HETATM    8  O   UNL     1       5.402   1.303 -37.240  1.00  0.00    -0.280 OA
BRANCH   8   9
HETATM    9  P   UNL     1       4.958   0.216 -38.394  1.00  0.00     0.422 P 
HETATM   10  O   UNL     1       6.275  -0.206 -39.098  1.00  0.00    -0.617 OA
HETATM   11  O   UNL     1       4.259  -0.979 -37.727  1.00  0.00    -0.617 OA
HETATM   12  O   UNL     1       3.964   0.881 -39.373  1.00  0.00    -0.617 OA
ENDBRANCH   8   9
ENDBRANCH   7   8
ENDBRANCH   5   7
BRANCH   4  13
HETATM   13  O   UNL     1       3.156   3.395 -38.100  1.00  0.00    -0.390 OA
ATOM     14  HO  UNL     1       2.641   4.145 -38.374  1.00  0.00     0.210 HD
ENDBRANCH   4  13
BRANCH   1  15
HETATM   15  O   UNL     1       4.141   4.937 -34.191  1.00  0.00    -0.369 OA
ATOM     16  HO  UNL     1       4.085   5.803 -33.803  1.00  0.00     0.212 HD
ENDBRANCH   1  15
BRANCH   3  17
HETATM   17  O   UNL     1       4.216   6.057 -38.272  1.00  0.00    -0.391 OA
ATOM     18  HO  UNL     1       3.564   6.748 -38.260  1.00  0.00     0.210 HD
ENDBRANCH   3  17
BRANCH   2  19
HETATM   19  N   UNL     1       4.948   7.142 -35.656  1.00  0.00    -0.068 N 
ATOM     20  HN3 UNL     1       4.600   7.171 -34.698  1.00  0.00     0.275 HD
ATOM     21  HN2 UNL     1       5.808   7.674 -35.519  1.00  0.00     0.275 HD
ATOM     22  HN1 UNL     1       4.314   7.605 -36.307  1.00  0.00     0.275 HD
ENDBRANCH   2  19
TORSDOF 7
ENDMDL
MODEL 6
REMARK VINA RESULT:    -5.874      3.472      5.819
REMARK INTER + INTRA:          -8.057
REMARK INTER:                  -7.651
REMARK INTRA:                  -0.406
REMARK UNBOUND:                -0.465
REMARK  7 active torsions:
REMARK  status: ('A' for Active; 'I' for Inactive)
REMARK    1  A    between atoms: C_1  and  O_7 
REMARK    2  A    between atoms: C_2  and  N_9 
REMARK    3  A    between atoms: C_3  and  O_13 
REMARK    4  A    between atoms: C_4  and  O_15 
REMARK    5  A    between atoms: C_5  and  C_6 
REMARK    6  A    between atoms: C_6  and  O_18 
REMARK    7  A    between atoms: O_18  and  P_19 
ROOT
HETATM    1  C   UNL     1       3.108  -0.303 -36.565  1.00  0.00     0.290 C 
HETATM    2  C   UNL     1       4.120  -0.849 -37.561  1.00  0.00     0.269 C 
HETATM    3  C   UNL     1       5.291   0.067 -37.690  1.00  0.00     0.184 C 
HETATM    4  C   UNL     1       4.855   1.471 -37.961  1.00  0.00     0.180 C 
HETATM    5  C   UNL     1       3.843   1.937 -36.902  1.00  0.00     0.180 C 
HETATM    6  O   UNL     1       2.667   1.075 -36.962  1.00  0.00    -0.349 OA
ENDROOT
BRANCH   5   7
HETATM    7  C   UNL     1       3.423   3.366 -37.110  1.00  0.00     0.217 C 
BRANCH   7   8
HETATM    8  O   UNL     1       4.285   4.207 -36.406  1.00  0.00    -0.280 OA
BRANCH   8   9
HETATM    9  P   UNL     1       3.882   5.801 -36.496  1.00  0.00     0.422 P 
HETATM   10  O   UNL     1       2.386   5.877 -36.090  1.00  0.00    -0.617 OA
HETATM   11  O   UNL     1       4.774   6.608 -35.539  1.00  0.00    -0.617 OA
HETATM   12  O   UNL     1       4.119   6.312 -37.934  1.00  0.00    -0.617 OA
ENDBRANCH   8   9
ENDBRANCH   7   8
ENDBRANCH   5   7
BRANCH   4  13
HETATM   13  O   UNL     1       5.976   2.354 -37.957  1.00  0.00    -0.390 OA
ATOM     14  HO  UNL     1       5.740   3.156 -37.503  1.00  0.00     0.210 HD
ENDBRANCH   4  13
BRANCH   1  15
HETATM   15  O   UNL     1       3.681  -0.206 -35.347  1.00  0.00    -0.369 OA
ATOM     16  HO  UNL     1       3.162   0.408 -34.840  1.00  0.00     0.212 HD
ENDBRANCH   1  15
BRANCH   3  17
HETATM   17  O   UNL     1       6.135  -0.388 -38.791  1.00  0.00    -0.391 OA
ATOM     18  HO  UNL     1       7.047  -0.280 -38.547  1.00  0.00     0.210 HD
ENDBRANCH   3  17
BRANCH   2  19
HETATM   19  N   UNL     1       4.560  -2.170 -37.088  1.00  0.00    -0.068 N 
ATOM     20  HN3 UNL     1       4.349  -2.906 -37.761  1.00  0.00     0.275 HD
ATOM     21  HN2 UNL     1       5.577  -2.256 -37.088  1.00  0.00     0.275 HD
ATOM     22  HN1 UNL     1       4.160  -2.365 -36.171  1.00  0.00     0.275 HD
ENDBRANCH   2  19
TORSDOF 7
ENDMDL
MODEL 7
REMARK VINA RESULT:    -5.858      3.709      6.551
REMARK INTER + INTRA:          -8.036
REMARK INTER:                  -7.698
REMARK INTRA:                  -0.338
REMARK UNBOUND:                -0.465
REMARK  7 active torsions:
REMARK  status: ('A' for Active; 'I' for Inactive)
REMARK    1  A    between atoms: C_1  and  O_7 
REMARK    2  A    between atoms: C_2  and  N_9 
REMARK    3  A    between atoms: C_3  and  O_13 
REMARK    4  A    between atoms: C_4  and  O_15 
REMARK    5  A    between atoms: C_5  and  C_6 
REMARK    6  A    between atoms: C_6  and  O_18 
REMARK    7  A    between atoms: O_18  and  P_19 
ROOT
HETATM    1  C   UNL     1       5.443   3.495 -35.451  1.00  0.00     0.290 C 
HETATM    2  C   UNL     1       4.015   3.718 -35.925  1.00  0.00     0.269 C 
HETATM    3  C   UNL     1       3.873   5.047 -36.589  1.00  0.00     0.184 C 
HETATM    4  C   UNL     1       4.415   6.144 -35.729  1.00  0.00     0.180 C 
HETATM    5  C   UNL     1       5.861   5.835 -35.307  1.00  0.00     0.180 C 
HETATM    6  O   UNL     1       5.872   4.600 -34.530  1.00  0.00    -0.349 OA
ENDROOT
BRANCH   5   7
HETATM    7  C   UNL     1       6.458   6.944 -34.486  1.00  0.00     0.217 C 
BRANCH   7   8
HETATM    8  O   UNL     1       6.609   8.079 -35.283  1.00  0.00    -0.280 OA
BRANCH   8   9
HETATM    9  P   UNL     1       6.270   9.490 -34.505  1.00  0.00     0.422 P 
HETATM   10  O   UNL     1       4.902   9.265 -33.809  1.00  0.00    -0.617 OA
HETATM   11  O   UNL     1       7.383   9.792 -33.490  1.00  0.00    -0.617 OA
HETATM   12  O   UNL     1       6.216  10.644 -35.531  1.00  0.00    -0.617 OA
ENDBRANCH   8   9
ENDBRANCH   7   8
ENDBRANCH   5   7
BRANCH   4  13
HETATM   13  O   UNL     1       4.388   7.388 -36.428  1.00  0.00    -0.390 OA
ATOM     14  HO  UNL     1       3.975   7.261 -37.274  1.00  0.00     0.210 HD
ENDBRANCH   4  13
BRANCH   1  15
HETATM   15  O   UNL     1       6.278   3.508 -36.510  1.00  0.00    -0.369 OA
ATOM     16  HO  UNL     1       5.741   3.555 -37.292  1.00  0.00     0.212 HD
ENDBRANCH   1  15
BRANCH   3  17
HETATM   17  O   UNL     1       2.460   5.303 -36.849  1.00  0.00    -0.391 OA
ATOM     18  HO  UNL     1       2.186   6.064 -36.350  1.00  0.00     0.210 HD
ENDBRANCH   3  17
BRANCH   2  19
HETATM   19  N   UNL     1       3.674   2.642 -36.868  1.00  0.00    -0.068 N 
ATOM     20  HN3 UNL     1       2.667   2.566 -37.013  1.00  0.00     0.275 HD
ATOM     21  HN2 UNL     1       3.945   2.873 -37.825  1.00  0.00     0.275 HD
ATOM     22  HN1 UNL     1       4.082   1.761 -36.558  1.00  0.00     0.275 HD
ENDBRANCH   2  19
TORSDOF 7
ENDMDL
MODEL 8
REMARK VINA RESULT:    -5.797      1.440      2.813
REMARK INTER + INTRA:          -7.957
REMARK INTER:                  -7.278
REMARK INTRA:                  -0.678
REMARK UNBOUND:                -0.465
REMARK  7 active torsions:
REMARK  status: ('A' for Active; 'I' for Inactive)
REMARK    1  A    between atoms: C_1  and  O_7 
REMARK    2  A    between atoms: C_2  and  N_9 
REMARK    3  A    between atoms: C_3  and  O_13 
REMARK    4  A    between atoms: C_4  and  O_15 
REMARK    5  A    between atoms: C_5  and  C_6 
REMARK    6  A    between atoms: C_6  and  O_18 
REMARK    7  A    between atoms: O_18  and  P_19 
ROOT
HETATM    1  C   UNL     1       5.895   5.506 -35.025  1.00  0.00     0.290 C 
HETATM    2  C   UNL     1       5.236   6.458 -36.011  1.00  0.00     0.269 C 
HETATM    3  C   UNL     1       3.934   5.910 -36.494  1.00  0.00     0.184 C 
HETATM    4  C   UNL     1       4.087   4.510 -36.997  1.00  0.00     0.180 C 
HETATM    5  C   UNL     1       4.754   3.623 -35.933  1.00  0.00     0.180 C 
HETATM    6  O   UNL     1       6.082   4.152 -35.643  1.00  0.00    -0.349 OA
ENDROOT
BRANCH   5   7
HETATM    7  C   UNL     1       4.874   2.194 -36.382  1.00  0.00     0.217 C 
BRANCH   7   8
HETATM    8  O   UNL     1       5.214   2.163 -37.736  1.00  0.00    -0.280 OA
BRANCH   8   9
HETATM    9  P   UNL     1       4.457   0.973 -38.585  1.00  0.00     0.422 P 
HETATM   10  O   UNL     1       5.319   0.753 -39.856  1.00  0.00    -0.617 OA
HETATM   11  O   UNL     1       4.378  -0.298 -37.724  1.00  0.00    -0.617 OA
HETATM   12  O   UNL     1       3.019   1.421 -38.930  1.00  0.00    -0.617 OA
ENDBRANCH   8   9
ENDBRANCH   7   8
ENDBRANCH   5   7
BRANCH   4  13
HETATM   13  O   UNL     1       2.817   3.957 -37.337  1.00  0.00    -0.390 OA
ATOM     14  HO  UNL     1       2.828   3.022 -37.166  1.00  0.00     0.210 HD
ENDBRANCH   4  13
BRANCH   1  15
HETATM   15  O   UNL     1       5.099   5.349 -33.948  1.00  0.00    -0.369 OA
ATOM     16  HO  UNL     1       5.470   4.650 -33.421  1.00  0.00     0.212 HD
ENDBRANCH   1  15
BRANCH   3  17
HETATM   17  O   UNL     1       3.434   6.751 -37.578  1.00  0.00    -0.391 OA
ATOM     18  HO  UNL     1       2.492   6.646 -37.641  1.00  0.00     0.210 HD
ENDBRANCH   3  17
BRANCH   2  19
HETATM   19  N   UNL     1       5.022   7.744 -35.332  1.00  0.00    -0.068 N 
ATOM     20  HN3 UNL     1       5.070   8.531 -35.979  1.00  0.00     0.275 HD
ATOM     21  HN2 UNL     1       4.054   7.860 -35.029  1.00  0.00     0.275 HD
ATOM     22  HN1 UNL     1       5.678   7.846 -34.558  1.00  0.00     0.275 HD
ENDBRANCH   2  19
TORSDOF 7
ENDMDL
MODEL 9
REMARK VINA RESULT:    -5.651      5.430      7.806
REMARK INTER + INTRA:          -7.768
REMARK INTER:                  -7.117
REMARK INTRA:                  -0.651
REMARK UNBOUND:                -0.465
REMARK  7 active torsions:
REMARK  status: ('A' for Active; 'I' for Inactive)
REMARK    1  A    between atoms: C_1  and  O_7 
REMARK    2  A    between atoms: C_2  and  N_9 
REMARK    3  A    between atoms: C_3  and  O_13 
REMARK    4  A    between atoms: C_4  and  O_15 
REMARK    5  A    between atoms: C_5  and  C_6 
REMARK    6  A    between atoms: C_6  and  O_18 
REMARK    7  A    between atoms: O_18  and  P_19 
ROOT
HETATM    1  C   UNL     1       3.605  -4.424 -36.626  1.00  0.00     0.290 C 
HETATM    2  C   UNL     1       2.768  -4.390 -35.357  1.00  0.00     0.269 C 
HETATM    3  C   UNL     1       1.882  -3.188 -35.333  1.00  0.00     0.184 C 
HETATM    4  C   UNL     1       2.658  -1.937 -35.593  1.00  0.00     0.180 C 
HETATM    5  C   UNL     1       3.464  -2.061 -36.896  1.00  0.00     0.180 C 
HETATM    6  O   UNL     1       4.410  -3.164 -36.762  1.00  0.00    -0.349 OA
ENDROOT
BRANCH   5   7
HETATM    7  C   UNL     1       4.214  -0.799 -37.220  1.00  0.00     0.217 C 
BRANCH   7   8
HETATM    8  O   UNL     1       3.402   0.035 -37.990  1.00  0.00    -0.280 OA
BRANCH   8   9
HETATM    9  P   UNL     1       3.551   1.633 -37.623  1.00  0.00     0.422 P 
HETATM   10  O   UNL     1       4.986   2.030 -38.057  1.00  0.00    -0.617 OA
HETATM   11  O   UNL     1       2.483   2.433 -38.385  1.00  0.00    -0.617 OA
HETATM   12  O   UNL     1       3.326   1.836 -36.108  1.00  0.00    -0.617 OA
ENDBRANCH   8   9
ENDBRANCH   7   8
ENDBRANCH   5   7
BRANCH   4  13
HETATM   13  O   UNL     1       1.781  -0.815 -35.692  1.00  0.00    -0.390 OA
ATOM     14  HO  UNL     1       2.264  -0.023 -35.485  1.00  0.00     0.210 HD
ENDBRANCH   4  13
BRANCH   1  15
HETATM   15  O   UNL     1       2.794  -4.499 -37.701  1.00  0.00    -0.369 OA
ATOM     16  HO  UNL     1       1.972  -4.087 -37.463  1.00  0.00     0.212 HD
ENDBRANCH   1  15
BRANCH   3  17
HETATM   17  O   UNL     1       1.248  -3.089 -34.022  1.00  0.00    -0.391 OA
ATOM     18  HO  UNL     1       0.383  -3.480 -34.066  1.00  0.00     0.210 HD
ENDBRANCH   3  17
BRANCH   2  19
HETATM   19  N   UNL     1       1.959  -5.616 -35.310  1.00  0.00    -0.068 N 
ATOM     20  HN3 UNL     1       1.796  -5.931 -34.354  1.00  0.00     0.275 HD
ATOM     21  HN2 UNL     1       0.989  -5.444 -35.578  1.00  0.00     0.275 HD
ATOM     22  HN1 UNL     1       2.389  -6.342 -35.883  1.00  0.00     0.275 HD
ENDBRANCH   2  19
TORSDOF 7
ENDMDL
MODEL 10
REMARK VINA RESULT:    -5.617      3.041      4.750
REMARK INTER + INTRA:          -7.724
REMARK INTER:                  -7.517
REMARK INTRA:                  -0.207
REMARK UNBOUND:                -0.465
REMARK  7 active torsions:
REMARK  status: ('A' for Active; 'I' for Inactive)
REMARK    1  A    between atoms: C_1  and  O_7 
REMARK    2  A    between atoms: C_2  and  N_9 
REMARK    3  A    between atoms: C_3  and  O_13 
REMARK    4  A    between atoms: C_4  and  O_15 
REMARK    5  A    between atoms: C_5  and  C_6 
REMARK    6  A    between atoms: C_6  and  O_18 
REMARK    7  A    between atoms: O_18  and  P_19 
ROOT
HETATM    1  C   UNL     1       5.332   2.332 -36.433  1.00  0.00     0.290 C 
HETATM    2  C   UNL     1       4.425   2.793 -37.562  1.00  0.00     0.269 C 
HETATM    3  C   UNL     1       3.094   2.119 -37.490  1.00  0.00     0.184 C 
HETATM    4  C   UNL     1       3.243   0.635 -37.387  1.00  0.00     0.180 C 
HETATM    5  C   UNL     1       4.168   0.264 -36.216  1.00  0.00     0.180 C 
HETATM    6  O   UNL     1       5.488   0.839 -36.458  1.00  0.00    -0.349 OA
ENDROOT
BRANCH   5   7
HETATM    7  C   UNL     1       4.297  -1.224 -36.047  1.00  0.00     0.217 C 
BRANCH   7   8
HETATM    8  O   UNL     1       4.629  -1.510 -34.722  1.00  0.00    -0.280 OA
BRANCH   8   9
HETATM    9  P   UNL     1       6.205  -1.932 -34.506  1.00  0.00     0.422 P 
HETATM   10  O   UNL     1       6.816  -0.823 -33.609  1.00  0.00    -0.617 OA
HETATM   11  O   UNL     1       6.276  -3.312 -33.832  1.00  0.00    -0.617 OA
HETATM   12  O   UNL     1       6.908  -2.021 -35.879  1.00  0.00    -0.617 OA
ENDBRANCH   8   9
ENDBRANCH   7   8
ENDBRANCH   5   7
BRANCH   4  13
HETATM   13  O   UNL     1       1.972   0.016 -37.192  1.00  0.00    -0.390 OA
ATOM     14  HO  UNL     1       1.862  -0.184 -36.269  1.00  0.00     0.210 HD
ENDBRANCH   4  13
BRANCH   1  15
HETATM   15  O   UNL     1       4.779   2.657 -35.247  1.00  0.00    -0.369 OA
ATOM     16  HO  UNL     1       4.249   1.918 -34.970  1.00  0.00     0.212 HD
ENDBRANCH   1  15
BRANCH   3  17
HETATM   17  O   UNL     1       2.331   2.437 -38.694  1.00  0.00    -0.391 OA
ATOM     18  HO  UNL     1       2.171   1.635 -39.178  1.00  0.00     0.210 HD
ENDBRANCH   3  17
BRANCH   2  19
HETATM   19  N   UNL     1       4.260   4.250 -37.450  1.00  0.00    -0.068 N 
ATOM     20  HN3 UNL     1       3.414   4.576 -37.916  1.00  0.00     0.275 HD
ATOM     21  HN2 UNL     1       4.026   4.536 -36.499  1.00  0.00     0.275 HD
ATOM     22  HN1 UNL     1       5.093   4.725 -37.796  1.00  0.00     0.275 HD
ENDBRANCH   2  19
TORSDOF 7
ENDMDL
MODEL 11
REMARK VINA RESULT:    -5.588      4.832      6.972
REMARK INTER + INTRA:          -7.686
REMARK INTER:                  -7.410
REMARK INTRA:                  -0.277
REMARK UNBOUND:                -0.465
REMARK  7 active torsions:
REMARK  status: ('A' for Active; 'I' for Inactive)
REMARK    1  A    between atoms: C_1  and  O_7 
REMARK    2  A    between atoms: C_2  and  N_9 
REMARK    3  A    between atoms: C_3  and  O_13 
REMARK    4  A    between atoms: C_4  and  O_15 
REMARK    5  A    between atoms: C_5  and  C_6 
REMARK    6  A    between atoms: C_6  and  O_18 
REMARK    7  A    between atoms: O_18  and  P_19 
ROOT
HETATM    1  C   UNL     1       1.984  -1.971 -35.086  1.00  0.00     0.290 C 
HETATM    2  C   UNL     1       2.470  -3.179 -35.871  1.00  0.00     0.269 C 
HETATM    3  C   UNL     1       3.961  -3.239 -35.892  1.00  0.00     0.184 C 
HETATM    4  C   UNL     1       4.550  -1.938 -36.337  1.00  0.00     0.180 C 
HETATM    5  C   UNL     1       4.008  -0.780 -35.484  1.00  0.00     0.180 C 
HETATM    6  O   UNL     1       2.561  -0.706 -35.653  1.00  0.00    -0.349 OA
ENDROOT
BRANCH   5   7
HETATM    7  C   UNL     1       4.621   0.539 -35.866  1.00  0.00     0.217 C 
BRANCH   7   8
HETATM    8  O   UNL     1       3.606   1.465 -36.111  1.00  0.00    -0.280 OA
BRANCH   8   9
HETATM    9  P   UNL     1       3.755   2.251 -37.550  1.00  0.00     0.422 P 
HETATM   10  O   UNL     1       3.706   3.763 -37.208  1.00  0.00    -0.617 OA
HETATM   11  O   UNL     1       5.087   1.859 -38.210  1.00  0.00    -0.617 OA
HETATM   12  O   UNL     1       2.601   1.830 -38.488  1.00  0.00    -0.617 OA
ENDBRANCH   8   9
ENDBRANCH   7   8
ENDBRANCH   5   7
BRANCH   4  13
HETATM   13  O   UNL     1       5.973  -1.970 -36.232  1.00  0.00    -0.390 OA
ATOM     14  HO  UNL     1       6.218  -2.500 -35.482  1.00  0.00     0.210 HD
ENDBRANCH   4  13
BRANCH   1  15
HETATM   15  O   UNL     1       2.403  -2.064 -33.807  1.00  0.00    -0.369 OA
ATOM     16  HO  UNL     1       1.861  -2.716 -33.379  1.00  0.00     0.212 HD
ENDBRANCH   1  15
BRANCH   3  17
HETATM   17  O   UNL     1       4.384  -4.290 -36.813  1.00  0.00    -0.391 OA
ATOM     18  HO  UNL     1       4.633  -3.894 -37.640  1.00  0.00     0.210 HD
ENDBRANCH   3  17
BRANCH   2  19
HETATM   19  N   UNL     1       1.924  -4.387 -35.233  1.00  0.00    -0.068 N 
ATOM     20  HN3 UNL     1       1.236  -4.853 -35.824  1.00  0.00     0.275 HD
ATOM     21  HN2 UNL     1       2.613  -5.138 -35.187  1.00  0.00     0.275 HD
ATOM     22  HN1 UNL     1       1.546  -4.159 -34.315  1.00  0.00     0.275 HD
ENDBRANCH   2  19
TORSDOF 7
ENDMDL
MODEL 12
REMARK VINA RESULT:    -5.586      3.778      5.178
REMARK INTER + INTRA:          -7.684
REMARK INTER:                  -7.080
REMARK INTRA:                  -0.604
REMARK UNBOUND:                -0.465
REMARK  7 active torsions:
REMARK  status: ('A' for Active; 'I' for Inactive)
REMARK    1  A    between atoms: C_1  and  O_7 
REMARK    2  A    between atoms: C_2  and  N_9 
REMARK    3  A    between atoms: C_3  and  O_13 
REMARK    4  A    between atoms: C_4  and  O_15 
REMARK    5  A    between atoms: C_5  and  C_6 
REMARK    6  A    between atoms: C_6  and  O_18 
REMARK    7  A    between atoms: O_18  and  P_19 
ROOT
HETATM    1  C   UNL     1       4.864   1.453 -35.652  1.00  0.00     0.290 C 
HETATM    2  C   UNL     1       5.535   1.639 -37.004  1.00  0.00     0.269 C 
HETATM    3  C   UNL     1       5.100   0.584 -37.967  1.00  0.00     0.184 C 
HETATM    4  C   UNL     1       5.261  -0.783 -37.383  1.00  0.00     0.180 C 
HETATM    5  C   UNL     1       4.546  -0.878 -36.025  1.00  0.00     0.180 C 
HETATM    6  O   UNL     1       5.147   0.083 -35.107  1.00  0.00    -0.349 OA
ENDROOT
BRANCH   5   7
HETATM    7  C   UNL     1       4.638  -2.257 -35.432  1.00  0.00     0.217 C 
BRANCH   7   8
HETATM    8  O   UNL     1       3.353  -2.733 -35.168  1.00  0.00    -0.280 OA
BRANCH   8   9
HETATM    9  P   UNL     1       2.763  -3.739 -36.330  1.00  0.00     0.422 P 
HETATM   10  O   UNL     1       3.996  -4.492 -36.896  1.00  0.00    -0.617 OA
HETATM   11  O   UNL     1       1.745  -4.703 -35.701  1.00  0.00    -0.617 OA
HETATM   12  O   UNL     1       2.044  -2.906 -37.415  1.00  0.00    -0.617 OA
ENDBRANCH   8   9
ENDBRANCH   7   8
ENDBRANCH   5   7
BRANCH   4  13
HETATM   13  O   UNL     1       4.725  -1.770 -38.263  1.00  0.00    -0.390 OA
ATOM     14  HO  UNL     1       4.040  -2.251 -37.812  1.00  0.00     0.210 HD
ENDBRANCH   4  13
BRANCH   1  15
HETATM   15  O   UNL     1       3.527   1.560 -35.792  1.00  0.00    -0.369 OA
ATOM     16  HO  UNL     1       3.365   2.113 -36.547  1.00  0.00     0.212 HD
ENDBRANCH   1  15
BRANCH   3  17
HETATM   17  O   UNL     1       5.909   0.680 -39.178  1.00  0.00    -0.391 OA
ATOM     18  HO  UNL     1       5.700  -0.052 -39.748  1.00  0.00     0.210 HD
ENDBRANCH   3  17
BRANCH   2  19
HETATM   19  N   UNL     1       5.172   2.970 -37.515  1.00  0.00    -0.068 N 
ATOM     20  HN3 UNL     1       5.706   3.218 -38.347  1.00  0.00     0.275 HD
ATOM     21  HN2 UNL     1       4.239   2.979 -37.927  1.00  0.00     0.275 HD
ATOM     22  HN1 UNL     1       5.270   3.667 -36.777  1.00  0.00     0.275 HD
ENDBRANCH   2  19
TORSDOF 7
ENDMDL
MODEL 13
REMARK VINA RESULT:    -5.579      5.045      6.500
REMARK INTER + INTRA:          -7.675
REMARK INTER:                  -7.041
REMARK INTRA:                  -0.634
REMARK UNBOUND:                -0.465
REMARK  7 active torsions:
REMARK  status: ('A' for Active; 'I' for Inactive)
REMARK    1  A    between atoms: C_1  and  O_7 
REMARK    2  A    between atoms: C_2  and  N_9 
REMARK    3  A    between atoms: C_3  and  O_13 
REMARK    4  A    between atoms: C_4  and  O_15 
REMARK    5  A    between atoms: C_5  and  C_6 
REMARK    6  A    between atoms: C_6  and  O_18 
REMARK    7  A    between atoms: O_18  and  P_19 
ROOT
HETATM    1  C   UNL     1       7.193  -2.044 -33.679  1.00  0.00     0.290 C 
HETATM    2  C   UNL     1       8.292  -2.146 -34.725  1.00  0.00     0.269 C 
HETATM    3  C   UNL     1       8.125  -1.102 -35.780  1.00  0.00     0.184 C 
HETATM    4  C   UNL     1       6.738  -1.112 -36.339  1.00  0.00     0.180 C 
HETATM    5  C   UNL     1       5.699  -0.998 -35.211  1.00  0.00     0.180 C 
HETATM    6  O   UNL     1       5.840  -2.146 -34.321  1.00  0.00    -0.349 OA
ENDROOT
BRANCH   5   7
HETATM    7  C   UNL     1       4.293  -0.949 -35.740  1.00  0.00     0.217 C 
BRANCH   7   8
HETATM    8  O   UNL     1       3.859   0.377 -35.775  1.00  0.00    -0.280 OA
BRANCH   8   9
HETATM    9  P   UNL     1       3.120   0.800 -37.184  1.00  0.00     0.422 P 
HETATM   10  O   UNL     1       2.992   2.345 -37.142  1.00  0.00    -0.617 OA
HETATM   11  O   UNL     1       3.978   0.331 -38.370  1.00  0.00    -0.617 OA
HETATM   12  O   UNL     1       1.742   0.106 -37.271  1.00  0.00    -0.617 OA
ENDBRANCH   8   9
ENDBRANCH   7   8
ENDBRANCH   5   7
BRANCH   4  13
HETATM   13  O   UNL     1       6.557  -0.031 -37.252  1.00  0.00    -0.390 OA
ATOM     14  HO  UNL     1       7.233  -0.070 -37.919  1.00  0.00     0.210 HD
ENDBRANCH   4  13
BRANCH   1  15
HETATM   15  O   UNL     1       7.258  -0.842 -33.070  1.00  0.00    -0.369 OA
ATOM     16  HO  UNL     1       8.116  -0.776 -32.666  1.00  0.00     0.212 HD
ENDBRANCH   1  15
BRANCH   3  17
HETATM   17  O   UNL     1       9.073  -1.357 -36.860  1.00  0.00    -0.391 OA
ATOM     18  HO  UNL     1       8.996  -0.667 -37.508  1.00  0.00     0.210 HD
ENDBRANCH   3  17
BRANCH   2  19
HETATM   19  N   UNL     1       9.586  -1.977 -34.047  1.00  0.00    -0.068 N 
ATOM     20  HN3 UNL     1       9.903  -2.842 -33.610  1.00  0.00     0.275 HD
ATOM     21  HN2 UNL     1      10.351  -1.856 -34.711  1.00  0.00     0.275 HD
ATOM     22  HN1 UNL     1       9.534  -1.209 -33.379  1.00  0.00     0.275 HD
ENDBRANCH   2  19
TORSDOF 7
ENDMDL
MODEL 14
REMARK VINA RESULT:    -5.536      3.746      5.616
REMARK INTER + INTRA:          -7.619
REMARK INTER:                  -7.319
REMARK INTRA:                  -0.300
REMARK UNBOUND:                -0.465
REMARK  7 active torsions:
REMARK  status: ('A' for Active; 'I' for Inactive)
REMARK    1  A    between atoms: C_1  and  O_7 
REMARK    2  A    between atoms: C_2  and  N_9 
REMARK    3  A    between atoms: C_3  and  O_13 
REMARK    4  A    between atoms: C_4  and  O_15 
REMARK    5  A    between atoms: C_5  and  C_6 
REMARK    6  A    between atoms: C_6  and  O_18 
REMARK    7  A    between atoms: O_18  and  P_19 
ROOT
HETATM    1  C   UNL     1       5.244   1.692 -38.002  1.00  0.00     0.290 C 
HETATM    2  C   UNL     1       3.743   1.477 -38.115  1.00  0.00     0.269 C 
HETATM    3  C   UNL     1       3.209   0.785 -36.905  1.00  0.00     0.184 C 
HETATM    4  C   UNL     1       3.988  -0.455 -36.600  1.00  0.00     0.180 C 
HETATM    5  C   UNL     1       5.489  -0.138 -36.497  1.00  0.00     0.180 C 
HETATM    6  O   UNL     1       5.949   0.386 -37.779  1.00  0.00    -0.349 OA
ENDROOT
BRANCH   5   7
HETATM    7  C   UNL     1       6.299  -1.352 -36.136  1.00  0.00     0.217 C 
BRANCH   7   8
HETATM    8  O   UNL     1       7.406  -0.960 -35.381  1.00  0.00    -0.280 OA
BRANCH   8   9
HETATM    9  P   UNL     1       7.294  -1.348 -33.785  1.00  0.00     0.422 P 
HETATM   10  O   UNL     1       6.789  -2.814 -33.745  1.00  0.00    -0.617 OA
HETATM   11  O   UNL     1       8.675  -1.202 -33.127  1.00  0.00    -0.617 OA
HETATM   12  O   UNL     1       6.315  -0.378 -33.087  1.00  0.00    -0.617 OA
ENDBRANCH   8   9
ENDBRANCH   7   8
ENDBRANCH   5   7
BRANCH   4  13
HETATM   13  O   UNL     1       3.548  -1.035 -35.373  1.00  0.00    -0.390 OA
ATOM     14  HO  UNL     1       2.600  -0.978 -35.324  1.00  0.00     0.210 HD
ENDBRANCH   4  13
BRANCH   1  15
HETATM   15  O   UNL     1       5.509   2.477 -36.938  1.00  0.00    -0.369 OA
ATOM     16  HO  UNL     1       6.453   2.579 -36.890  1.00  0.00     0.212 HD
ENDBRANCH   1  15
BRANCH   3  17
HETATM   17  O   UNL     1       1.814   0.423 -37.138  1.00  0.00    -0.391 OA
ATOM     18  HO  UNL     1       1.309   0.622 -36.358  1.00  0.00     0.210 HD
ENDBRANCH   3  17
BRANCH   2  19
HETATM   19  N   UNL     1       3.103   2.792 -38.269  1.00  0.00    -0.068 N 
ATOM     20  HN3 UNL     1       3.367   3.435 -37.523  1.00  0.00     0.275 HD
ATOM     21  HN2 UNL     1       3.487   3.313 -39.058  1.00  0.00     0.275 HD
ATOM     22  HN1 UNL     1       2.092   2.683 -38.340  1.00  0.00     0.275 HD
ENDBRANCH   2  19
TORSDOF 7
ENDMDL
MODEL 15
REMARK VINA RESULT:    -5.518      2.999      4.591
REMARK INTER + INTRA:          -7.597
REMARK INTER:                  -7.154
REMARK INTRA:                  -0.442
REMARK UNBOUND:                -0.465
REMARK  7 active torsions:
REMARK  status: ('A' for Active; 'I' for Inactive)
REMARK    1  A    between atoms: C_1  and  O_7 
REMARK    2  A    between atoms: C_2  and  N_9 
REMARK    3  A    between atoms: C_3  and  O_13 
REMARK    4  A    between atoms: C_4  and  O_15 
REMARK    5  A    between atoms: C_5  and  C_6 
REMARK    6  A    between atoms: C_6  and  O_18 
REMARK    7  A    between atoms: O_18  and  P_19 
ROOT
HETATM    1  C   UNL     1       5.294   2.320 -36.356  1.00  0.00     0.290 C 
HETATM    2  C   UNL     1       4.450   2.748 -37.547  1.00  0.00     0.269 C 
HETATM    3  C   UNL     1       3.104   2.103 -37.507  1.00  0.00     0.184 C 
HETATM    4  C   UNL     1       3.217   0.622 -37.331  1.00  0.00     0.180 C 
HETATM    5  C   UNL     1       4.079   0.288 -36.103  1.00  0.00     0.180 C 
HETATM    6  O   UNL     1       5.420   0.825 -36.307  1.00  0.00    -0.349 OA
ENDROOT
BRANCH   5   7
HETATM    7  C   UNL     1       4.168  -1.194 -35.862  1.00  0.00     0.217 C 
BRANCH   7   8
HETATM    8  O   UNL     1       5.214  -1.722 -36.620  1.00  0.00    -0.280 OA
BRANCH   8   9
HETATM    9  P   UNL     1       4.723  -2.765 -37.795  1.00  0.00     0.422 P 
HETATM   10  O   UNL     1       5.157  -2.119 -39.137  1.00  0.00    -0.617 OA
HETATM   11  O   UNL     1       5.394  -4.131 -37.578  1.00  0.00    -0.617 OA
HETATM   12  O   UNL     1       3.191  -2.953 -37.710  1.00  0.00    -0.617 OA
ENDBRANCH   8   9
ENDBRANCH   7   8
ENDBRANCH   5   7
BRANCH   4  13
HETATM   13  O   UNL     1       1.925   0.037 -37.169  1.00  0.00    -0.390 OA
ATOM     14  HO  UNL     1       1.768  -0.119 -36.245  1.00  0.00     0.210 HD
ENDBRANCH   4  13
BRANCH   1  15
HETATM   15  O   UNL     1       4.694   2.710 -35.213  1.00  0.00    -0.369 OA
ATOM     16  HO  UNL     1       3.832   3.036 -35.444  1.00  0.00     0.212 HD
ENDBRANCH   1  15
BRANCH   3  17
HETATM   17  O   UNL     1       2.405   2.380 -38.758  1.00  0.00    -0.391 OA
ATOM     18  HO  UNL     1       2.250   1.561 -39.214  1.00  0.00     0.210 HD
ENDBRANCH   3  17
BRANCH   2  19
HETATM   19  N   UNL     1       4.311   4.211 -37.507  1.00  0.00    -0.068 N 
ATOM     20  HN3 UNL     1       3.495   4.532 -38.026  1.00  0.00     0.275 HD
ATOM     21  HN2 UNL     1       4.039   4.544 -36.581  1.00  0.00     0.275 HD
ATOM     22  HN1 UNL     1       5.170   4.654 -37.834  1.00  0.00     0.275 HD
ENDBRANCH   2  19
TORSDOF 7
ENDMDL
MODEL 16
REMARK VINA RESULT:    -5.512      3.500      5.254
REMARK INTER + INTRA:          -7.588
REMARK INTER:                  -6.922
REMARK INTRA:                  -0.666
REMARK UNBOUND:                -0.465
REMARK  7 active torsions:
REMARK  status: ('A' for Active; 'I' for Inactive)
REMARK    1  A    between atoms: C_1  and  O_7 
REMARK    2  A    between atoms: C_2  and  N_9 
REMARK    3  A    between atoms: C_3  and  O_13 
REMARK    4  A    between atoms: C_4  and  O_15 
REMARK    5  A    between atoms: C_5  and  C_6 
REMARK    6  A    between atoms: C_6  and  O_18 
REMARK    7  A    between atoms: O_18  and  P_19 
ROOT
HETATM    1  C   UNL     1       5.160   2.250 -36.953  1.00  0.00     0.290 C 
HETATM    2  C   UNL     1       3.874   1.814 -37.637  1.00  0.00     0.269 C 
HETATM    3  C   UNL     1       3.071   0.922 -36.749  1.00  0.00     0.184 C 
HETATM    4  C   UNL     1       3.900  -0.204 -36.218  1.00  0.00     0.180 C 
HETATM    5  C   UNL     1       5.171   0.333 -35.539  1.00  0.00     0.180 C 
HETATM    6  O   UNL     1       5.964   1.056 -36.528  1.00  0.00    -0.349 OA
ENDROOT
BRANCH   5   7
HETATM    7  C   UNL     1       6.002  -0.769 -34.944  1.00  0.00     0.217 C 
BRANCH   7   8
HETATM    8  O   UNL     1       6.153  -1.791 -35.882  1.00  0.00    -0.280 OA
BRANCH   8   9
HETATM    9  P   UNL     1       6.023  -3.304 -35.244  1.00  0.00     0.422 P 
HETATM   10  O   UNL     1       4.514  -3.655 -35.305  1.00  0.00    -0.617 OA
HETATM   11  O   UNL     1       6.870  -4.282 -36.075  1.00  0.00    -0.617 OA
HETATM   12  O   UNL     1       6.561  -3.300 -33.796  1.00  0.00    -0.617 OA
ENDBRANCH   8   9
ENDBRANCH   7   8
ENDBRANCH   5   7
BRANCH   4  13
HETATM   13  O   UNL     1       3.156  -0.972 -35.274  1.00  0.00    -0.390 OA
ATOM     14  HO  UNL     1       3.249  -1.895 -35.481  1.00  0.00     0.210 HD
ENDBRANCH   4  13
BRANCH   1  15
HETATM   15  O   UNL     1       4.864   2.951 -35.839  1.00  0.00    -0.369 OA
ATOM     16  HO  UNL     1       4.122   2.525 -35.427  1.00  0.00     0.212 HD
ENDBRANCH   1  15
BRANCH   3  17
HETATM   17  O   UNL     1       1.953   0.371 -37.509  1.00  0.00    -0.391 OA
ATOM     18  HO  UNL     1       1.644   1.027 -38.123  1.00  0.00     0.210 HD
ENDBRANCH   3  17
BRANCH   2  19
HETATM   19  N   UNL     1       3.103   3.020 -37.973  1.00  0.00    -0.068 N 
ATOM     20  HN3 UNL     1       2.764   3.001 -38.935  1.00  0.00     0.275 HD
ATOM     21  HN2 UNL     1       2.201   3.041 -37.498  1.00  0.00     0.275 HD
ATOM     22  HN1 UNL     1       3.656   3.855 -37.780  1.00  0.00     0.275 HD
ENDBRANCH   2  19
TORSDOF 7
ENDMDL
MODEL 17
REMARK VINA RESULT:    -5.435      2.945      4.208
REMARK INTER + INTRA:          -7.490
REMARK INTER:                  -7.219
REMARK INTRA:                  -0.271
REMARK UNBOUND:                -0.465
REMARK  7 active torsions:
REMARK  status: ('A' for Active; 'I' for Inactive)
REMARK    1  A    between atoms: C_1  and  O_7 
REMARK    2  A    between atoms: C_2  and  N_9 
REMARK    3  A    between atoms: C_3  and  O_13 
REMARK    4  A    between atoms: C_4  and  O_15 
REMARK    5  A    between atoms: C_5  and  C_6 
REMARK    6  A    between atoms: C_6  and  O_18 
REMARK    7  A    between atoms: O_18  and  P_19 
ROOT
HETATM    1  C   UNL     1       3.024   1.833 -37.159  1.00  0.00     0.290 C 
HETATM    2  C   UNL     1       4.126   2.850 -36.905  1.00  0.00     0.269 C 
HETATM    3  C   UNL     1       5.471   2.204 -36.946  1.00  0.00     0.184 C 
HETATM    4  C   UNL     1       5.523   1.004 -36.055  1.00  0.00     0.180 C 
HETATM    5  C   UNL     1       4.380   0.032 -36.389  1.00  0.00     0.180 C 
HETATM    6  O   UNL     1       3.106   0.708 -36.168  1.00  0.00    -0.349 OA
ENDROOT
BRANCH   5   7
HETATM    7  C   UNL     1       4.434  -1.214 -35.550  1.00  0.00     0.217 C 
BRANCH   7   8
HETATM    8  O   UNL     1       3.141  -1.561 -35.156  1.00  0.00    -0.280 OA
BRANCH   8   9
HETATM    9  P   UNL     1       2.677  -3.065 -35.639  1.00  0.00     0.422 P 
HETATM   10  O   UNL     1       2.124  -2.890 -37.078  1.00  0.00    -0.617 OA
HETATM   11  O   UNL     1       3.891  -4.008 -35.606  1.00  0.00    -0.617 OA
HETATM   12  O   UNL     1       1.607  -3.611 -34.668  1.00  0.00    -0.617 OA
ENDBRANCH   8   9
ENDBRANCH   7   8
ENDBRANCH   5   7
BRANCH   4  13
HETATM   13  O   UNL     1       6.771   0.326 -36.201  1.00  0.00    -0.390 OA
ATOM     14  HO  UNL     1       6.608  -0.574 -36.458  1.00  0.00     0.210 HD
ENDBRANCH   4  13
BRANCH   1  15
HETATM   15  O   UNL     1       3.178   1.298 -38.387  1.00  0.00    -0.369 OA
ATOM     16  HO  UNL     1       2.578   0.563 -38.451  1.00  0.00     0.212 HD
ENDBRANCH   1  15
BRANCH   3  17
HETATM   17  O   UNL     1       6.477   3.166 -36.505  1.00  0.00    -0.391 OA
ATOM     18  HO  UNL     1       6.937   3.502 -37.266  1.00  0.00     0.210 HD
ENDBRANCH   3  17
BRANCH   2  19
HETATM   19  N   UNL     1       4.034   3.891 -37.940  1.00  0.00    -0.068 N 
ATOM     20  HN3 UNL     1       4.598   3.667 -38.759  1.00  0.00     0.275 HD
ATOM     21  HN2 UNL     1       3.118   3.903 -38.389  1.00  0.00     0.275 HD
ATOM     22  HN1 UNL     1       4.277   4.800 -37.545  1.00  0.00     0.275 HD
ENDBRANCH   2  19
TORSDOF 7
ENDMDL
MODEL 18
REMARK VINA RESULT:    -5.295      4.932      6.749
REMARK INTER + INTRA:          -7.309
REMARK INTER:                  -6.848
REMARK INTRA:                  -0.460
REMARK UNBOUND:                -0.465
REMARK  7 active torsions:
REMARK  status: ('A' for Active; 'I' for Inactive)
REMARK    1  A    between atoms: C_1  and  O_7 
REMARK    2  A    between atoms: C_2  and  N_9 
REMARK    3  A    between atoms: C_3  and  O_13 
REMARK    4  A    between atoms: C_4  and  O_15 
REMARK    5  A    between atoms: C_5  and  C_6 
REMARK    6  A    between atoms: C_6  and  O_18 
REMARK    7  A    between atoms: O_18  and  P_19 
ROOT
HETATM    1  C   UNL     1       7.052  -1.111 -34.398  1.00  0.00     0.290 C 
HETATM    2  C   UNL     1       6.378  -2.454 -34.164  1.00  0.00     0.269 C 
HETATM    3  C   UNL     1       6.056  -3.124 -35.459  1.00  0.00     0.184 C 
HETATM    4  C   UNL     1       5.306  -2.208 -36.372  1.00  0.00     0.180 C 
HETATM    5  C   UNL     1       6.066  -0.884 -36.554  1.00  0.00     0.180 C 
HETATM    6  O   UNL     1       6.191  -0.230 -35.255  1.00  0.00    -0.349 OA
ENDROOT
BRANCH   5   7
HETATM    7  C   UNL     1       5.368   0.042 -37.511  1.00  0.00     0.217 C 
BRANCH   7   8
HETATM    8  O   UNL     1       4.039  -0.360 -37.656  1.00  0.00    -0.280 OA
BRANCH   8   9
HETATM    9  P   UNL     1       2.944   0.799 -37.245  1.00  0.00     0.422 P 
HETATM   10  O   UNL     1       3.530   1.502 -35.993  1.00  0.00    -0.617 OA
HETATM   11  O   UNL     1       2.771   1.776 -38.419  1.00  0.00    -0.617 OA
HETATM   12  O   UNL     1       1.579   0.137 -36.954  1.00  0.00    -0.617 OA
ENDBRANCH   8   9
ENDBRANCH   7   8
ENDBRANCH   5   7
BRANCH   4  13
HETATM   13  O   UNL     1       5.117  -2.817 -37.648  1.00  0.00    -0.390 OA
ATOM     14  HO  UNL     1       5.751  -2.461 -38.260  1.00  0.00     0.210 HD
ENDBRANCH   4  13
BRANCH   1  15
HETATM   15  O   UNL     1       8.215  -1.298 -35.055  1.00  0.00    -0.369 OA
ATOM     16  HO  UNL     1       8.029  -1.849 -35.806  1.00  0.00     0.212 HD
ENDBRANCH   1  15
BRANCH   3  17
HETATM   17  O   UNL     1       5.239  -4.305 -35.196  1.00  0.00    -0.391 OA
ATOM     18  HO  UNL     1       5.326  -4.543 -34.280  1.00  0.00     0.210 HD
ENDBRANCH   3  17
BRANCH   2  19
HETATM   19  N   UNL     1       7.291  -3.292 -33.373  1.00  0.00    -0.068 N 
ATOM     20  HN3 UNL     1       7.718  -4.028 -33.936  1.00  0.00     0.275 HD
ATOM     21  HN2 UNL     1       8.140  -2.791 -33.113  1.00  0.00     0.275 HD
ATOM     22  HN1 UNL     1       6.805  -3.669 -32.560  1.00  0.00     0.275 HD
ENDBRANCH   2  19
TORSDOF 7
ENDMDL
MODEL 19
REMARK VINA RESULT:    -5.293      4.000      5.679
REMARK INTER + INTRA:          -7.306
REMARK INTER:                  -7.047
REMARK INTRA:                  -0.259
REMARK UNBOUND:                -0.465
REMARK  7 active torsions:
REMARK  status: ('A' for Active; 'I' for Inactive)
REMARK    1  A    between atoms: C_1  and  O_7 
REMARK    2  A    between atoms: C_2  and  N_9 
REMARK    3  A    between atoms: C_3  and  O_13 
REMARK    4  A    between atoms: C_4  and  O_15 
REMARK    5  A    between atoms: C_5  and  C_6 
REMARK    6  A    between atoms: C_6  and  O_18 
REMARK    7  A    between atoms: O_18  and  P_19 
ROOT
HETATM    1  C   UNL     1       5.284   1.913 -36.947  1.00  0.00     0.290 C 
HETATM    2  C   UNL     1       3.960   1.570 -37.612  1.00  0.00     0.269 C 
HETATM    3  C   UNL     1       3.092   0.773 -36.695  1.00  0.00     0.184 C 
HETATM    4  C   UNL     1       3.827  -0.407 -36.142  1.00  0.00     0.180 C 
HETATM    5  C   UNL     1       5.145   0.036 -35.486  1.00  0.00     0.180 C 
HETATM    6  O   UNL     1       5.987   0.664 -36.498  1.00  0.00    -0.349 OA
ENDROOT
BRANCH   5   7
HETATM    7  C   UNL     1       5.885  -1.117 -34.869  1.00  0.00     0.217 C 
BRANCH   7   8
HETATM    8  O   UNL     1       7.032  -1.383 -35.618  1.00  0.00    -0.280 OA
BRANCH   8   9
HETATM    9  P   UNL     1       8.391  -1.575 -34.709  1.00  0.00     0.422 P 
HETATM   10  O   UNL     1       8.004  -1.122 -33.277  1.00  0.00    -0.617 OA
HETATM   11  O   UNL     1       8.823  -3.051 -34.742  1.00  0.00    -0.617 OA
HETATM   12  O   UNL     1       9.532  -0.718 -35.301  1.00  0.00    -0.617 OA
ENDBRANCH   8   9
ENDBRANCH   7   8
ENDBRANCH   5   7
BRANCH   4  13
HETATM   13  O   UNL     1       3.028  -1.086 -35.174  1.00  0.00    -0.390 OA
ATOM     14  HO  UNL     1       3.490  -1.862 -34.878  1.00  0.00     0.210 HD
ENDBRANCH   4  13
BRANCH   1  15
HETATM   15  O   UNL     1       5.059   2.663 -35.850  1.00  0.00    -0.369 OA
ATOM     16  HO  UNL     1       4.175   3.004 -35.917  1.00  0.00     0.212 HD
ENDBRANCH   1  15
BRANCH   3  17
HETATM   17  O   UNL     1       1.925   0.300 -37.434  1.00  0.00    -0.391 OA
ATOM     18  HO  UNL     1       2.207  -0.035 -38.277  1.00  0.00     0.210 HD
ENDBRANCH   3  17
BRANCH   2  19
HETATM   19  N   UNL     1       3.291   2.830 -37.973  1.00  0.00    -0.068 N 
ATOM     20  HN3 UNL     1       2.441   2.669 -38.513  1.00  0.00     0.275 HD
ATOM     21  HN2 UNL     1       2.870   3.284 -37.162  1.00  0.00     0.275 HD
ATOM     22  HN1 UNL     1       3.942   3.445 -38.459  1.00  0.00     0.275 HD
ENDBRANCH   2  19
TORSDOF 7
ENDMDL
MODEL 20
REMARK VINA RESULT:    -5.260      3.350      4.600
REMARK INTER + INTRA:          -7.264
REMARK INTER:                  -6.706
REMARK INTRA:                  -0.557
REMARK UNBOUND:                -0.465
REMARK  7 active torsions:
REMARK  status: ('A' for Active; 'I' for Inactive)
REMARK    1  A    between atoms: C_1  and  O_7 
REMARK    2  A    between atoms: C_2  and  N_9 
REMARK    3  A    between atoms: C_3  and  O_13 
REMARK    4  A    between atoms: C_4  and  O_15 
REMARK    5  A    between atoms: C_5  and  C_6 
REMARK    6  A    between atoms: C_6  and  O_18 
REMARK    7  A    between atoms: O_18  and  P_19 
ROOT
HETATM    1  C   UNL     1       2.969   1.596 -38.000  1.00  0.00     0.290 C 
HETATM    2  C   UNL     1       3.844   2.290 -36.967  1.00  0.00     0.269 C 
HETATM    3  C   UNL     1       4.712   1.307 -36.254  1.00  0.00     0.184 C 
HETATM    4  C   UNL     1       3.911   0.166 -35.715  1.00  0.00     0.180 C 
HETATM    5  C   UNL     1       3.067  -0.476 -36.828  1.00  0.00     0.180 C 
HETATM    6  O   UNL     1       2.142   0.522 -37.354  1.00  0.00    -0.349 OA
ENDROOT
BRANCH   5   7
HETATM    7  C   UNL     1       2.289  -1.664 -36.335  1.00  0.00     0.217 C 
BRANCH   7   8
HETATM    8  O   UNL     1       2.326  -2.672 -37.299  1.00  0.00    -0.280 OA
BRANCH   8   9
HETATM    9  P   UNL     1       3.430  -3.852 -36.988  1.00  0.00     0.422 P 
HETATM   10  O   UNL     1       3.801  -3.693 -35.490  1.00  0.00    -0.617 OA
HETATM   11  O   UNL     1       2.804  -5.226 -37.278  1.00  0.00    -0.617 OA
HETATM   12  O   UNL     1       4.655  -3.668 -37.912  1.00  0.00    -0.617 OA
ENDBRANCH   8   9
ENDBRANCH   7   8
ENDBRANCH   5   7
BRANCH   4  13
HETATM   13  O   UNL     1       4.768  -0.824 -35.148  1.00  0.00    -0.390 OA
ATOM     14  HO  UNL     1       5.630  -0.753 -35.541  1.00  0.00     0.210 HD
ENDBRANCH   4  13
BRANCH   1  15
HETATM   15  O   UNL     1       3.748   1.000 -38.925  1.00  0.00    -0.369 OA
ATOM     16  HO  UNL     1       3.487   1.338 -39.774  1.00  0.00     0.212 HD
ENDBRANCH   1  15
BRANCH   3  17
HETATM   17  O   UNL     1       5.385   1.979 -35.146  1.00  0.00    -0.391 OA
ATOM     18  HO  UNL     1       5.719   1.324 -34.545  1.00  0.00     0.210 HD
ENDBRANCH   3  17
BRANCH   2  19
HETATM   19  N   UNL     1       4.673   3.284 -37.665  1.00  0.00    -0.068 N 
ATOM     20  HN3 UNL     1       4.260   3.570 -38.553  1.00  0.00     0.275 HD
ATOM     21  HN2 UNL     1       4.659   4.190 -37.196  1.00  0.00     0.275 HD
ATOM     22  HN1 UNL     1       5.622   2.930 -37.782  1.00  0.00     0.275 HD
ENDBRANCH   2  19
TORSDOF 7
ENDMDL
