REMARK  12 active torsions:
REMARK  status: ('A' for Active; 'I' for Inactive)
REMARK    1  A    between atoms: N_2  and  C_19 
REMARK    2  A    between atoms: C_19  and  C_20 
REMARK    3  A    between atoms: C_20  and  O_21 
REMARK    4  A    between atoms: C_20  and  C_22 
REMARK    5  A    between atoms: C_22  and  O_23 
REMARK    6  A    between atoms: C_22  and  C_24 
REMARK    7  A    between atoms: C_24  and  O_25 
REMARK    8  A    between atoms: C_24  and  C_26 
REMARK    9  A    between atoms: C_26  and  O_27 
REMARK   10  A    between atoms: O_27  and  P_28 
REMARK   11  A    between atoms: P_28  and  O_29 
REMARK   12  A    between atoms: P_28  and  O_31 
ROOT
HETATM    1  C   UNL     1      -1.138   0.220   0.820  1.00  0.00     0.063 A 
HETATM    2  N   UNL     1      -0.342  -0.683   1.652  1.00  0.00    -0.327 N 
HETATM    3  C   UNL     1       0.570  -0.118   2.645  1.00  0.00     0.145 A 
HETATM    4  N   UNL     1       1.435  -0.899   3.369  1.00  0.00    -0.292 N 
HETATM    5  C   UNL     1       2.264  -0.363   4.306  1.00  0.00     0.328 A 
HETATM    6  O   UNL     1       3.044  -1.111   4.957  1.00  0.00    -0.247 OA
HETATM    7  N   UNL     1       2.260   0.974   4.540  1.00  0.00    -0.273 N 
HETATM    8  C   UNL     1       1.448   1.800   3.834  1.00  0.00     0.280 A 
HETATM    9  O   UNL     1       1.478   3.041   4.057  1.00  0.00    -0.265 OA
HETATM   10  C   UNL     1       0.588   1.272   2.860  1.00  0.00     0.146 A 
HETATM   11  N   UNL     1      -0.242   2.133   2.076  1.00  0.00    -0.347 N 
HETATM   12  C   UNL     1      -1.065   1.610   1.032  1.00  0.00     0.060 A 
HETATM   13  C   UNL     1      -1.798   2.495   0.231  1.00  0.00     0.039 A 
HETATM   14  C   UNL     1      -2.619   2.023  -0.800  1.00  0.00    -0.054 A 
HETATM   15  C   UNL     1      -3.379   3.007  -1.651  1.00  0.00     0.049 C 
HETATM   16  C   UNL     1      -2.718   0.634  -1.021  1.00  0.00    -0.054 A 
HETATM   17  C   UNL     1      -3.586   0.081  -2.123  1.00  0.00     0.049 C 
HETATM   18  C   UNL     1      -1.997  -0.251  -0.202  1.00  0.00     0.039 A 
HETATM   19  H   UNL     1       1.518  -1.923   3.212  1.00  0.00     0.172 HD
HETATM   20  H   UNL     1       2.901   1.373   5.264  1.00  0.00     0.173 HD
HETATM   21  H   UNL     1      -0.226   3.165   2.243  1.00  0.00     0.166 HD
ENDROOT
BRANCH   2  22
HETATM   22  C   UNL     1      -0.519  -2.148   1.524  1.00  0.00     0.165 C 
BRANCH  22  23
HETATM   23  C   UNL     1       0.206  -2.729   0.284  1.00  0.00     0.167 C 
BRANCH  23  24
HETATM   24  O   UNL     1      -0.232  -4.050   0.087  1.00  0.00    -0.391 OA
HETATM   25  H   UNL     1      -1.115  -3.998  -0.364  1.00  0.00     0.210 HD
ENDBRANCH  23  24
BRANCH  23  26
HETATM   26  C   UNL     1       1.749  -2.715   0.403  1.00  0.00     0.179 C 
BRANCH  26  27
HETATM   27  O   UNL     1       2.200  -1.385   0.478  1.00  0.00    -0.390 OA
HETATM   28  H   UNL     1       3.027  -1.385   1.027  1.00  0.00     0.210 HD
ENDBRANCH  26  27
BRANCH  26  29
HETATM   29  C   UNL     1       2.452  -3.438  -0.784  1.00  0.00     0.173 C 
BRANCH  29  30
HETATM   30  O   UNL     1       3.837  -3.514  -0.547  1.00  0.00    -0.391 OA
HETATM   31  H   UNL     1       4.216  -2.604  -0.660  1.00  0.00     0.210 HD
ENDBRANCH  29  30
BRANCH  29  32
HETATM   32  C   UNL     1       2.176  -2.787  -2.158  1.00  0.00     0.214 C 
BRANCH  32  33
HETATM   33  O   UNL     1       0.903  -3.180  -2.622  1.00  0.00    -0.294 OA
BRANCH  33  34
HETATM   34  P   UNL     1       0.385  -2.084  -3.822  1.00  0.00     0.390 P 
HETATM   35  O   UNL     1       1.433  -1.958  -4.906  1.00  0.00    -0.632 OA
BRANCH  34  36
HETATM   36  O   UNL     1       0.103  -0.568  -3.123  1.00  0.00    -0.307 OA
HETATM   37  H   UNL     1      -0.319  -0.032  -3.842  1.00  0.00     0.222 HD
ENDBRANCH  34  36
BRANCH  34  38
HETATM   38  O   UNL     1      -1.055  -2.653  -4.503  1.00  0.00    -0.307 OA
HETATM   39  H   UNL     1      -0.860  -3.589  -4.761  1.00  0.00     0.222 HD
ENDBRANCH  34  38
ENDBRANCH  33  34
ENDBRANCH  32  33
ENDBRANCH  29  32
ENDBRANCH  26  29
ENDBRANCH  23  26
ENDBRANCH  22  23
ENDBRANCH   2  22
TORSDOF 12
