REMARK  10 active torsions:
REMARK  status: ('A' for Active; 'I' for Inactive)
REMARK    1  A    between atoms: N_2  and  C_22 
REMARK    2  A    between atoms: C_22  and  C_23 
REMARK    3  A    between atoms: C_23  and  O_24 
REMARK    4  A    between atoms: C_23  and  C_26 
REMARK    5  A    between atoms: C_26  and  O_27 
REMARK    6  A    between atoms: C_26  and  C_29 
REMARK    7  A    between atoms: C_29  and  C_32 
REMARK    8  A    between atoms: C_29  and  O_30 
REMARK    9  A    between atoms: C_32  and  O_33 
REMARK   10  A    between atoms: O_33  and  P_34 
ROOT
HETATM    1  C   UNL     1      28.058  11.781  37.873  1.00  0.00     0.063 A 
HETATM    2  N   UNL     1      26.688  12.035  37.598  1.00  0.00    -0.327 N 
HETATM    3  C   UNL     1      26.344  12.984  36.650  1.00  0.00     0.145 A 
HETATM    4  N   UNL     1      25.039  13.122  36.272  1.00  0.00    -0.292 N 
ATOM      5  HN  UNL     1      24.326  12.570  36.749  1.00  0.00     0.172 HD
HETATM    6  C   UNL     1      24.658  13.974  35.278  1.00  0.00     0.328 A 
HETATM    7  O   UNL     1      23.481  14.065  34.960  1.00  0.00    -0.247 OA
HETATM    8  N   UNL     1      25.657  14.684  34.661  1.00  0.00    -0.273 N 
ATOM      9  HN  UNL     1      25.386  15.311  33.904  1.00  0.00     0.173 HD
HETATM   10  C   UNL     1      27.003  14.619  34.982  1.00  0.00     0.280 A 
HETATM   11  O   UNL     1      27.814  15.315  34.360  1.00  0.00    -0.265 OA
HETATM   12  C   UNL     1      27.358  13.732  36.003  1.00  0.00     0.146 A 
HETATM   13  N   UNL     1      28.645  13.620  36.431  1.00  0.00    -0.347 N 
ATOM     14  HN  UNL     1      29.336  14.301  36.116  1.00  0.00     0.166 HD
HETATM   15  C   UNL     1      29.037  12.605  37.283  1.00  0.00     0.060 A 
HETATM   16  C   UNL     1      30.376  12.379  37.537  1.00  0.00     0.039 A 
HETATM   17  C   UNL     1      30.780  11.330  38.318  1.00  0.00    -0.054 A 
HETATM   18  C   UNL     1      32.245  11.076  38.546  1.00  0.00     0.049 C 
HETATM   19  C   UNL     1      29.794  10.465  38.895  1.00  0.00    -0.054 A 
HETATM   20  C   UNL     1      30.224   9.304  39.749  1.00  0.00     0.049 C 
HETATM   21  C   UNL     1      28.461  10.704  38.662  1.00  0.00     0.039 A 
ENDROOT
BRANCH   2  22
HETATM   22  C   UNL     1      25.640  11.138  38.166  1.00  0.00     0.165 C 
BRANCH  22  23
HETATM   23  C   UNL     1      25.412   9.883  37.314  1.00  0.00     0.167 C 
BRANCH  23  24
HETATM   24  O   UNL     1      24.653  10.199  36.142  1.00  0.00    -0.391 OA
ATOM     25  HO  UNL     1      25.123  10.889  35.689  1.00  0.00     0.210 HD
ENDBRANCH  23  24
BRANCH  23  26
HETATM   26  C   UNL     1      24.653   8.769  38.045  1.00  0.00     0.179 C 
BRANCH  26  27
HETATM   27  O   UNL     1      23.406   9.298  38.544  1.00  0.00    -0.390 OA
ATOM     28  HO  UNL     1      22.936   8.608  38.997  1.00  0.00     0.210 HD
ENDBRANCH  26  27
BRANCH  26  29
HETATM   29  C   UNL     1      25.416   8.078  39.181  1.00  0.00     0.173 C 
BRANCH  29  30
HETATM   30  C   UNL     1      24.775   6.757  39.543  1.00  0.00     0.217 C 
BRANCH  30  31
HETATM   31  O   UNL     1      25.364   6.197  40.741  1.00  0.00    -0.280 OA
BRANCH  31  32
HETATM   32  P   UNL     1      26.514   5.042  40.649  1.00  0.00     0.422 P 
HETATM   33  O   UNL     1      26.596   4.496  42.046  1.00  0.00    -0.617 OA
HETATM   34  O   UNL     1      27.801   5.701  40.225  1.00  0.00    -0.617 OA
HETATM   35  O   UNL     1      26.095   3.984  39.640  1.00  0.00    -0.617 OA
ENDBRANCH  31  32
ENDBRANCH  30  31
ENDBRANCH  29  30
BRANCH  29  36
HETATM   36  O   UNL     1      26.779   7.847  38.803  1.00  0.00    -0.391 OA
ATOM     37  HO  UNL     1      27.252   7.419  39.507  1.00  0.00     0.210 HD
ENDBRANCH  29  36
ENDBRANCH  26  29
ENDBRANCH  23  26
ENDBRANCH  22  23
ENDBRANCH   2  22
TORSDOF 10
