MODEL 1
REMARK VINA RESULT:    -6.429      0.000      0.000
REMARK INTER + INTRA:         -10.581
REMARK INTER:                  -9.435
REMARK INTRA:                  -1.146
REMARK UNBOUND:                -1.146
REMARK  9 active torsions:
REMARK  status: ('A' for Active; 'I' for Inactive)
REMARK    1  A    between atoms: C_1  and  O_14 
REMARK    2  A    between atoms: C_2  and  O_16 
REMARK    3  A    between atoms: C_3  and  O_16 
REMARK    4  A    between atoms: C_3  and  C_5 
REMARK    5  A    between atoms: C_6  and  N_12 
REMARK       I    between atoms: C_7  and  N_12 
REMARK    6  A    between atoms: C_9  and  O_20 
REMARK    7  A    between atoms: C_10  and  C_11 
REMARK    8  A    between atoms: C_11  and  O_23 
REMARK    9  A    between atoms: O_23  and  P_27 
ROOT
HETATM    1  C   UNL     1       1.692 -11.486 -11.617  1.00  0.00     0.180 C 
HETATM    2  C   UNL     1       2.964 -10.752 -11.858  1.00  0.00     0.181 C 
HETATM    3  C   UNL     1       4.126 -11.680 -11.955  1.00  0.00     0.171 C 
HETATM    4  C   UNL     1       4.254 -12.538 -10.719  1.00  0.00     0.282 C 
HETATM    5  C   UNL     1       1.863 -12.365 -10.391  1.00  0.00     0.180 C 
HETATM    6  O   UNL     1       2.990 -13.279 -10.579  1.00  0.00    -0.349 OA
ENDROOT
BRANCH   2   7
HETATM    7  O   UNL     1       2.840 -10.012 -13.117  1.00  0.00    -0.365 OA
BRANCH   7   8
HETATM    8  C   UNL     1       1.960 -10.619 -14.044  1.00  0.00     0.218 C 
HETATM    9  C   UNL     1       2.799 -11.155 -15.238  1.00  0.00     0.051 C 
BRANCH   8  10
HETATM   10  C   UNL     1       0.955  -9.563 -14.459  1.00  0.00     0.202 C 
HETATM   11  O   UNL     1       1.304  -8.642 -15.244  1.00  0.00    -0.646 OA
HETATM   12  O   UNL     1      -0.210  -9.606 -14.021  1.00  0.00    -0.646 OA
ENDBRANCH   8  10
ENDBRANCH   7   8
ENDBRANCH   2   7
BRANCH   1  13
HETATM   13  O   UNL     1       0.633 -10.545 -11.365  1.00  0.00    -0.390 OA
ATOM     14  HO  UNL     1       0.543  -9.978 -12.122  1.00  0.00     0.210 HD
ENDBRANCH   1  13
BRANCH   3  15
HETATM   15  N   UNL     1       5.386 -10.911 -12.088  1.00  0.00    -0.349 N 
HETATM   16  C   UNL     1       6.266 -11.137 -13.221  1.00  0.00     0.214 C 
HETATM   17  C   UNL     1       7.565 -10.298 -13.292  1.00  0.00     0.117 C 
HETATM   18  O   UNL     1       5.991 -11.929 -14.051  1.00  0.00    -0.274 OA
ATOM     19  HN  UNL     1       5.637 -10.220 -11.380  1.00  0.00     0.163 HD
ENDBRANCH   3  15
BRANCH   5  20
HETATM   20  C   UNL     1       0.645 -13.222 -10.173  1.00  0.00     0.217 C 
BRANCH  20  21
HETATM   21  O   UNL     1       0.265 -13.763 -11.421  1.00  0.00    -0.280 OA
BRANCH  21  22
HETATM   22  P   UNL     1      -1.328 -13.613 -11.852  1.00  0.00     0.422 P 
HETATM   23  O   UNL     1      -2.106 -13.251 -10.596  1.00  0.00    -0.617 OA
HETATM   24  O   UNL     1      -1.766 -14.939 -12.399  1.00  0.00    -0.617 OA
HETATM   25  O   UNL     1      -1.339 -12.508 -12.888  1.00  0.00    -0.617 OA
ENDBRANCH  21  22
ENDBRANCH  20  21
ENDBRANCH   5  20
BRANCH   4  26
HETATM   26  O   UNL     1       5.227 -13.495 -10.864  1.00  0.00    -0.369 OA
ATOM     27  HO  UNL     1       5.581 -13.369 -11.737  1.00  0.00     0.212 HD
ENDBRANCH   4  26
TORSDOF 9
ENDMDL
MODEL 2
REMARK VINA RESULT:    -6.247      4.610      6.692
REMARK INTER + INTRA:         -10.314
REMARK INTER:                  -9.259
REMARK INTRA:                  -1.055
REMARK UNBOUND:                -1.146
REMARK  9 active torsions:
REMARK  status: ('A' for Active; 'I' for Inactive)
REMARK    1  A    between atoms: C_1  and  O_14 
REMARK    2  A    between atoms: C_2  and  O_16 
REMARK    3  A    between atoms: C_3  and  O_16 
REMARK    4  A    between atoms: C_3  and  C_5 
REMARK    5  A    between atoms: C_6  and  N_12 
REMARK       I    between atoms: C_7  and  N_12 
REMARK    6  A    between atoms: C_9  and  O_20 
REMARK    7  A    between atoms: C_10  and  C_11 
REMARK    8  A    between atoms: C_11  and  O_23 
REMARK    9  A    between atoms: O_23  and  P_27 
ROOT
HETATM    1  C   UNL     1       3.140 -12.885 -16.328  1.00  0.00     0.180 C 
HETATM    2  C   UNL     1       2.029 -12.717 -15.352  1.00  0.00     0.181 C 
HETATM    3  C   UNL     1       1.738 -13.986 -14.626  1.00  0.00     0.171 C 
HETATM    4  C   UNL     1       1.418 -15.110 -15.581  1.00  0.00     0.282 C 
HETATM    5  C   UNL     1       2.807 -14.044 -17.251  1.00  0.00     0.180 C 
HETATM    6  O   UNL     1       2.581 -15.261 -16.470  1.00  0.00    -0.349 OA
ENDROOT
BRANCH   2   7
HETATM    7  O   UNL     1       2.417 -11.691 -14.381  1.00  0.00    -0.365 OA
BRANCH   7   8
HETATM    8  C   UNL     1       1.808 -10.435 -14.612  1.00  0.00     0.218 C 
HETATM    9  C   UNL     1       2.818  -9.320 -14.223  1.00  0.00     0.051 C 
BRANCH   8  10
HETATM   10  C   UNL     1       0.540 -10.397 -13.781  1.00  0.00     0.202 C 
HETATM   11  O   UNL     1      -0.581 -10.481 -14.348  1.00  0.00    -0.646 OA
HETATM   12  O   UNL     1       0.610 -10.279 -12.544  1.00  0.00    -0.646 OA
ENDBRANCH   8  10
ENDBRANCH   7   8
ENDBRANCH   2   7
BRANCH   1  13
HETATM   13  O   UNL     1       3.272 -11.690 -17.119  1.00  0.00    -0.390 OA
ATOM     14  HO  UNL     1       3.104 -11.907 -18.029  1.00  0.00     0.210 HD
ENDBRANCH   1  13
BRANCH   3  15
HETATM   15  N   UNL     1       0.560 -13.811 -13.743  1.00  0.00    -0.349 N 
HETATM   16  C   UNL     1       0.728 -13.741 -12.302  1.00  0.00     0.214 C 
HETATM   17  C   UNL     1      -0.547 -13.559 -11.445  1.00  0.00     0.117 C 
HETATM   18  O   UNL     1       1.800 -13.817 -11.815  1.00  0.00    -0.274 OA
ATOM     19  HN  UNL     1      -0.373 -13.741 -14.149  1.00  0.00     0.163 HD
ENDBRANCH   3  15
BRANCH   5  20
HETATM   20  C   UNL     1       3.954 -14.335 -18.180  1.00  0.00     0.217 C 
BRANCH  20  21
HETATM   21  O   UNL     1       3.947 -13.357 -19.199  1.00  0.00    -0.280 OA
BRANCH  21  22
HETATM   22  P   UNL     1       3.748 -13.892 -20.755  1.00  0.00     0.422 P 
HETATM   23  O   UNL     1       2.445 -14.674 -20.802  1.00  0.00    -0.617 OA
HETATM   24  O   UNL     1       4.921 -14.770 -21.076  1.00  0.00    -0.617 OA
HETATM   25  O   UNL     1       3.705 -12.628 -21.589  1.00  0.00    -0.617 OA
ENDBRANCH  21  22
ENDBRANCH  20  21
ENDBRANCH   5  20
BRANCH   4  26
HETATM   26  O   UNL     1       1.297 -16.312 -14.928  1.00  0.00    -0.369 OA
ATOM     27  HO  UNL     1       1.290 -16.099 -14.002  1.00  0.00     0.212 HD
ENDBRANCH   4  26
TORSDOF 9
ENDMDL
MODEL 3
REMARK VINA RESULT:    -6.156      3.344      6.138
REMARK INTER + INTRA:         -10.182
REMARK INTER:                  -8.993
REMARK INTRA:                  -1.189
REMARK UNBOUND:                -1.146
REMARK  9 active torsions:
REMARK  status: ('A' for Active; 'I' for Inactive)
REMARK    1  A    between atoms: C_1  and  O_14 
REMARK    2  A    between atoms: C_2  and  O_16 
REMARK    3  A    between atoms: C_3  and  O_16 
REMARK    4  A    between atoms: C_3  and  C_5 
REMARK    5  A    between atoms: C_6  and  N_12 
REMARK       I    between atoms: C_7  and  N_12 
REMARK    6  A    between atoms: C_9  and  O_20 
REMARK    7  A    between atoms: C_10  and  C_11 
REMARK    8  A    between atoms: C_11  and  O_23 
REMARK    9  A    between atoms: O_23  and  P_27 
ROOT
HETATM    1  C   UNL     1       1.952 -10.931 -13.282  1.00  0.00     0.180 C 
HETATM    2  C   UNL     1       1.353 -12.208 -13.757  1.00  0.00     0.181 C 
HETATM    3  C   UNL     1       2.207 -12.867 -14.785  1.00  0.00     0.171 C 
HETATM    4  C   UNL     1       2.467 -11.953 -15.959  1.00  0.00     0.282 C 
HETATM    5  C   UNL     1       2.234 -10.048 -14.484  1.00  0.00     0.180 C 
HETATM    6  O   UNL     1       3.113 -10.744 -15.425  1.00  0.00    -0.349 OA
ENDROOT
BRANCH   2   7
HETATM    7  O   UNL     1       1.211 -13.107 -12.609  1.00  0.00    -0.365 OA
BRANCH   7   8
HETATM    8  C   UNL     1      -0.099 -13.139 -12.075  1.00  0.00     0.218 C 
HETATM    9  C   UNL     1      -0.001 -13.030 -10.528  1.00  0.00     0.051 C 
BRANCH   8  10
HETATM   10  C   UNL     1      -0.733 -14.438 -12.534  1.00  0.00     0.202 C 
HETATM   11  O   UNL     1      -0.060 -15.256 -13.215  1.00  0.00    -0.646 OA
HETATM   12  O   UNL     1      -1.916 -14.690 -12.241  1.00  0.00    -0.646 OA
ENDBRANCH   8  10
ENDBRANCH   7   8
ENDBRANCH   2   7
BRANCH   1  13
HETATM   13  O   UNL     1       1.019 -10.252 -12.421  1.00  0.00    -0.390 OA
ATOM     14  HO  UNL     1       1.320  -9.360 -12.289  1.00  0.00     0.210 HD
ENDBRANCH   1  13
BRANCH   3  15
HETATM   15  N   UNL     1       1.532 -14.077 -15.312  1.00  0.00    -0.349 N 
HETATM   16  C   UNL     1       2.301 -15.271 -15.616  1.00  0.00     0.214 C 
HETATM   17  C   UNL     1       1.528 -16.495 -16.163  1.00  0.00     0.117 C 
HETATM   18  O   UNL     1       3.468 -15.298 -15.445  1.00  0.00    -0.274 OA
ATOM     19  HN  UNL     1       0.523 -14.071 -15.463  1.00  0.00     0.163 HD
ENDBRANCH   3  15
BRANCH   5  20
HETATM   20  C   UNL     1       2.952  -8.793 -14.071  1.00  0.00     0.217 C 
BRANCH  20  21
HETATM   21  O   UNL     1       3.637  -9.060 -12.865  1.00  0.00    -0.280 OA
BRANCH  21  22
HETATM   22  P   UNL     1       4.960  -8.121 -12.527  1.00  0.00     0.422 P 
HETATM   23  O   UNL     1       4.921  -6.927 -13.469  1.00  0.00    -0.617 OA
HETATM   24  O   UNL     1       6.176  -8.964 -12.768  1.00  0.00    -0.617 OA
HETATM   25  O   UNL     1       4.787  -7.729 -11.075  1.00  0.00    -0.617 OA
ENDBRANCH  21  22
ENDBRANCH  20  21
ENDBRANCH   5  20
BRANCH   4  26
HETATM   26  O   UNL     1       3.371 -12.497 -16.836  1.00  0.00    -0.369 OA
ATOM     27  HO  UNL     1       3.075 -12.238 -17.700  1.00  0.00     0.212 HD
ENDBRANCH   4  26
TORSDOF 9
ENDMDL
MODEL 4
REMARK VINA RESULT:    -6.106      3.100      6.630
REMARK INTER + INTRA:         -10.108
REMARK INTER:                  -8.844
REMARK INTRA:                  -1.265
REMARK UNBOUND:                -1.146
REMARK  9 active torsions:
REMARK  status: ('A' for Active; 'I' for Inactive)
REMARK    1  A    between atoms: C_1  and  O_14 
REMARK    2  A    between atoms: C_2  and  O_16 
REMARK    3  A    between atoms: C_3  and  O_16 
REMARK    4  A    between atoms: C_3  and  C_5 
REMARK    5  A    between atoms: C_6  and  N_12 
REMARK       I    between atoms: C_7  and  N_12 
REMARK    6  A    between atoms: C_9  and  O_20 
REMARK    7  A    between atoms: C_10  and  C_11 
REMARK    8  A    between atoms: C_11  and  O_23 
REMARK    9  A    between atoms: O_23  and  P_27 
ROOT
HETATM    1  C   UNL     1       2.882 -12.466 -13.740  1.00  0.00     0.180 C 
HETATM    2  C   UNL     1       2.038 -12.399 -12.516  1.00  0.00     0.181 C 
HETATM    3  C   UNL     1       0.585 -12.464 -12.845  1.00  0.00     0.171 C 
HETATM    4  C   UNL     1       0.185 -11.371 -13.806  1.00  0.00     0.282 C 
HETATM    5  C   UNL     1       2.434 -11.379 -14.701  1.00  0.00     0.180 C 
HETATM    6  O   UNL     1       1.013 -11.536 -15.011  1.00  0.00    -0.349 OA
ENDROOT
BRANCH   2   7
HETATM    7  O   UNL     1       2.382 -13.533 -11.654  1.00  0.00    -0.365 OA
BRANCH   7   8
HETATM    8  C   UNL     1       3.172 -13.174 -10.537  1.00  0.00     0.218 C 
HETATM    9  C   UNL     1       4.422 -14.097 -10.502  1.00  0.00     0.051 C 
BRANCH   8  10
HETATM   10  C   UNL     1       2.297 -13.322  -9.308  1.00  0.00     0.202 C 
HETATM   11  O   UNL     1       2.549 -14.224  -8.466  1.00  0.00    -0.646 OA
HETATM   12  O   UNL     1       1.331 -12.556  -9.135  1.00  0.00    -0.646 OA
ENDBRANCH   8  10
ENDBRANCH   7   8
ENDBRANCH   2   7
BRANCH   1  13
HETATM   13  O   UNL     1       4.258 -12.231 -13.389  1.00  0.00    -0.390 OA
ATOM     14  HO  UNL     1       4.286 -11.656 -12.633  1.00  0.00     0.210 HD
ENDBRANCH   1  13
BRANCH   3  15
HETATM   15  N   UNL     1      -0.226 -12.288 -11.617  1.00  0.00    -0.349 N 
HETATM   16  C   UNL     1      -1.385 -13.129 -11.378  1.00  0.00     0.214 C 
HETATM   17  C   UNL     1      -2.184 -12.886 -10.075  1.00  0.00     0.117 C 
HETATM   18  O   UNL     1      -1.696 -13.964 -12.151  1.00  0.00    -0.274 OA
ATOM     19  HN  UNL     1       0.031 -11.572 -10.937  1.00  0.00     0.163 HD
ENDBRANCH   3  15
BRANCH   5  20
HETATM   20  C   UNL     1       3.175 -11.480 -16.006  1.00  0.00     0.217 C 
BRANCH  20  21
HETATM   21  O   UNL     1       3.254 -12.845 -16.358  1.00  0.00    -0.280 OA
BRANCH  21  22
HETATM   22  P   UNL     1       4.424 -13.275 -17.450  1.00  0.00     0.422 P 
HETATM   23  O   UNL     1       3.867 -13.004 -18.840  1.00  0.00    -0.617 OA
HETATM   24  O   UNL     1       4.701 -14.735 -17.251  1.00  0.00    -0.617 OA
HETATM   25  O   UNL     1       5.606 -12.392 -17.109  1.00  0.00    -0.617 OA
ENDBRANCH  21  22
ENDBRANCH  20  21
ENDBRANCH   5  20
BRANCH   4  26
HETATM   26  O   UNL     1      -1.113 -11.516 -14.228  1.00  0.00    -0.369 OA
ATOM     27  HO  UNL     1      -1.621 -10.909 -13.703  1.00  0.00     0.212 HD
ENDBRANCH   4  26
TORSDOF 9
ENDMDL
MODEL 5
REMARK VINA RESULT:    -6.070      2.461      4.692
REMARK INTER + INTRA:         -10.054
REMARK INTER:                  -8.563
REMARK INTRA:                  -1.491
REMARK UNBOUND:                -1.146
REMARK  9 active torsions:
REMARK  status: ('A' for Active; 'I' for Inactive)
REMARK    1  A    between atoms: C_1  and  O_14 
REMARK    2  A    between atoms: C_2  and  O_16 
REMARK    3  A    between atoms: C_3  and  O_16 
REMARK    4  A    between atoms: C_3  and  C_5 
REMARK    5  A    between atoms: C_6  and  N_12 
REMARK       I    between atoms: C_7  and  N_12 
REMARK    6  A    between atoms: C_9  and  O_20 
REMARK    7  A    between atoms: C_10  and  C_11 
REMARK    8  A    between atoms: C_11  and  O_23 
REMARK    9  A    between atoms: O_23  and  P_27 
ROOT
HETATM    1  C   UNL     1       1.941 -10.881 -12.973  1.00  0.00     0.180 C 
HETATM    2  C   UNL     1       2.990  -9.899 -13.360  1.00  0.00     0.181 C 
HETATM    3  C   UNL     1       2.405  -8.711 -14.046  1.00  0.00     0.171 C 
HETATM    4  C   UNL     1       1.603  -9.112 -15.261  1.00  0.00     0.282 C 
HETATM    5  C   UNL     1       1.130 -11.238 -14.206  1.00  0.00     0.180 C 
HETATM    6  O   UNL     1       0.552 -10.031 -14.796  1.00  0.00    -0.349 OA
ENDROOT
BRANCH   2   7
HETATM    7  O   UNL     1       3.679  -9.455 -12.145  1.00  0.00    -0.365 OA
BRANCH   7   8
HETATM    8  C   UNL     1       5.051  -9.799 -12.116  1.00  0.00     0.218 C 
HETATM    9  C   UNL     1       5.338 -10.558 -10.791  1.00  0.00     0.051 C 
BRANCH   8  10
HETATM   10  C   UNL     1       5.835  -8.508 -12.237  1.00  0.00     0.202 C 
HETATM   11  O   UNL     1       5.301  -7.418 -11.902  1.00  0.00    -0.646 OA
HETATM   12  O   UNL     1       7.002  -8.527 -12.670  1.00  0.00    -0.646 OA
ENDBRANCH   8  10
ENDBRANCH   7   8
ENDBRANCH   2   7
BRANCH   1  13
HETATM   13  O   UNL     1       2.564 -12.077 -12.470  1.00  0.00    -0.390 OA
ATOM     14  HO  UNL     1       1.899 -12.615 -12.055  1.00  0.00     0.210 HD
ENDBRANCH   1  13
BRANCH   3  15
HETATM   15  N   UNL     1       3.484  -7.807 -14.511  1.00  0.00    -0.349 N 
HETATM   16  C   UNL     1       3.280  -6.369 -14.519  1.00  0.00     0.214 C 
HETATM   17  C   UNL     1       4.450  -5.487 -15.019  1.00  0.00     0.117 C 
HETATM   18  O   UNL     1       2.261  -5.900 -14.153  1.00  0.00    -0.274 OA
ATOM     19  HN  UNL     1       4.372  -8.196 -14.828  1.00  0.00     0.163 HD
ENDBRANCH   3  15
BRANCH   5  20
HETATM   20  C   UNL     1      -0.022 -12.137 -13.847  1.00  0.00     0.217 C 
BRANCH  20  21
HETATM   21  O   UNL     1      -0.421 -11.828 -12.528  1.00  0.00    -0.280 OA
BRANCH  21  22
HETATM   22  P   UNL     1      -0.960 -13.083 -11.590  1.00  0.00     0.422 P 
HETATM   23  O   UNL     1      -1.559 -14.123 -12.525  1.00  0.00    -0.617 OA
HETATM   24  O   UNL     1      -1.997 -12.527 -10.660  1.00  0.00    -0.617 OA
HETATM   25  O   UNL     1       0.277 -13.581 -10.873  1.00  0.00    -0.617 OA
ENDBRANCH  21  22
ENDBRANCH  20  21
ENDBRANCH   5  20
BRANCH   4  26
HETATM   26  O   UNL     1       0.941  -8.042 -15.808  1.00  0.00    -0.369 OA
ATOM     27  HO  UNL     1       1.300  -7.274 -15.380  1.00  0.00     0.212 HD
ENDBRANCH   4  26
TORSDOF 9
ENDMDL
MODEL 6
REMARK VINA RESULT:    -5.886      4.143      5.795
REMARK INTER + INTRA:          -9.785
REMARK INTER:                  -8.398
REMARK INTRA:                  -1.387
REMARK UNBOUND:                -1.146
REMARK  9 active torsions:
REMARK  status: ('A' for Active; 'I' for Inactive)
REMARK    1  A    between atoms: C_1  and  O_14 
REMARK    2  A    between atoms: C_2  and  O_16 
REMARK    3  A    between atoms: C_3  and  O_16 
REMARK    4  A    between atoms: C_3  and  C_5 
REMARK    5  A    between atoms: C_6  and  N_12 
REMARK       I    between atoms: C_7  and  N_12 
REMARK    6  A    between atoms: C_9  and  O_20 
REMARK    7  A    between atoms: C_10  and  C_11 
REMARK    8  A    between atoms: C_11  and  O_23 
REMARK    9  A    between atoms: O_23  and  P_27 
ROOT
HETATM    1  C   UNL     1       1.761 -14.345 -14.046  1.00  0.00     0.180 C 
HETATM    2  C   UNL     1       2.256 -14.980 -15.297  1.00  0.00     0.181 C 
HETATM    3  C   UNL     1       3.093 -14.041 -16.097  1.00  0.00     0.171 C 
HETATM    4  C   UNL     1       2.342 -12.773 -16.426  1.00  0.00     0.282 C 
HETATM    5  C   UNL     1       1.043 -13.057 -14.404  1.00  0.00     0.180 C 
HETATM    6  O   UNL     1       1.939 -12.169 -15.145  1.00  0.00    -0.349 OA
ENDROOT
BRANCH   2   7
HETATM    7  O   UNL     1       3.065 -16.147 -14.935  1.00  0.00    -0.365 OA
BRANCH   7   8
HETATM    8  C   UNL     1       2.530 -17.371 -15.400  1.00  0.00     0.218 C 
HETATM    9  C   UNL     1       1.265 -17.063 -16.248  1.00  0.00     0.051 C 
BRANCH   8  10
HETATM   10  C   UNL     1       2.227 -18.216 -14.178  1.00  0.00     0.202 C 
HETATM   11  O   UNL     1       1.769 -19.380 -14.321  1.00  0.00    -0.646 OA
HETATM   12  O   UNL     1       2.428 -17.757 -13.039  1.00  0.00    -0.646 OA
ENDBRANCH   8  10
ENDBRANCH   7   8
ENDBRANCH   2   7
BRANCH   1  13
HETATM   13  O   UNL     1       0.828 -15.227 -13.395  1.00  0.00    -0.390 OA
ATOM     14  HO  UNL     1       1.067 -15.300 -12.478  1.00  0.00     0.210 HD
ENDBRANCH   1  13
BRANCH   3  15
HETATM   15  N   UNL     1       3.479 -14.668 -17.383  1.00  0.00    -0.349 N 
HETATM   16  C   UNL     1       4.806 -14.452 -17.933  1.00  0.00     0.214 C 
HETATM   17  C   UNL     1       5.138 -15.138 -19.280  1.00  0.00     0.117 C 
HETATM   18  O   UNL     1       5.594 -13.782 -17.366  1.00  0.00    -0.274 OA
ATOM     19  HN  UNL     1       2.811 -15.253 -17.884  1.00  0.00     0.163 HD
ENDBRANCH   3  15
BRANCH   5  20
HETATM   20  C   UNL     1       0.627 -12.313 -13.165  1.00  0.00     0.217 C 
BRANCH  20  21
HETATM   21  O   UNL     1      -0.759 -12.513 -12.981  1.00  0.00    -0.280 OA
BRANCH  21  22
HETATM   22  P   UNL     1      -1.222 -13.436 -11.685  1.00  0.00     0.422 P 
HETATM   23  O   UNL     1      -1.800 -14.731 -12.235  1.00  0.00    -0.617 OA
HETATM   24  O   UNL     1      -2.257 -12.655 -10.931  1.00  0.00    -0.617 OA
HETATM   25  O   UNL     1       0.053 -13.650 -10.896  1.00  0.00    -0.617 OA
ENDBRANCH  21  22
ENDBRANCH  20  21
ENDBRANCH   5  20
BRANCH   4  26
HETATM   26  O   UNL     1       3.153 -11.845 -17.031  1.00  0.00    -0.369 OA
ATOM     27  HO  UNL     1       2.874 -11.003 -16.691  1.00  0.00     0.212 HD
ENDBRANCH   4  26
TORSDOF 9
ENDMDL
MODEL 7
REMARK VINA RESULT:    -5.874      2.626      4.257
REMARK INTER + INTRA:          -9.767
REMARK INTER:                  -8.570
REMARK INTRA:                  -1.197
REMARK UNBOUND:                -1.146
REMARK  9 active torsions:
REMARK  status: ('A' for Active; 'I' for Inactive)
REMARK    1  A    between atoms: C_1  and  O_14 
REMARK    2  A    between atoms: C_2  and  O_16 
REMARK    3  A    between atoms: C_3  and  O_16 
REMARK    4  A    between atoms: C_3  and  C_5 
REMARK    5  A    between atoms: C_6  and  N_12 
REMARK       I    between atoms: C_7  and  N_12 
REMARK    6  A    between atoms: C_9  and  O_20 
REMARK    7  A    between atoms: C_10  and  C_11 
REMARK    8  A    between atoms: C_11  and  O_23 
REMARK    9  A    between atoms: O_23  and  P_27 
ROOT
HETATM    1  C   UNL     1       1.842 -11.765 -11.907  1.00  0.00     0.180 C 
HETATM    2  C   UNL     1       1.757 -11.798 -13.393  1.00  0.00     0.181 C 
HETATM    3  C   UNL     1       2.922 -12.507 -13.995  1.00  0.00     0.171 C 
HETATM    4  C   UNL     1       4.230 -11.886 -13.568  1.00  0.00     0.282 C 
HETATM    5  C   UNL     1       3.180 -11.169 -11.509  1.00  0.00     0.180 C 
HETATM    6  O   UNL     1       4.272 -11.944 -12.098  1.00  0.00    -0.349 OA
ENDROOT
BRANCH   2   7
HETATM    7  O   UNL     1       0.526 -12.498 -13.770  1.00  0.00    -0.365 OA
BRANCH   7   8
HETATM    8  C   UNL     1       0.341 -13.723 -13.088  1.00  0.00     0.218 C 
HETATM    9  C   UNL     1       0.568 -14.885 -14.096  1.00  0.00     0.051 C 
BRANCH   8  10
HETATM   10  C   UNL     1      -1.063 -13.706 -12.517  1.00  0.00     0.202 C 
HETATM   11  O   UNL     1      -1.555 -12.624 -12.100  1.00  0.00    -0.646 OA
HETATM   12  O   UNL     1      -1.724 -14.759 -12.459  1.00  0.00    -0.646 OA
ENDBRANCH   8  10
ENDBRANCH   7   8
ENDBRANCH   2   7
BRANCH   1  13
HETATM   13  O   UNL     1       0.792 -10.931 -11.383  1.00  0.00    -0.390 OA
ATOM     14  HO  UNL     1       1.186 -10.218 -10.893  1.00  0.00     0.210 HD
ENDBRANCH   1  13
BRANCH   3  15
HETATM   15  N   UNL     1       2.860 -12.428 -15.474  1.00  0.00    -0.349 N 
HETATM   16  C   UNL     1       3.255 -13.567 -16.285  1.00  0.00     0.214 C 
HETATM   17  C   UNL     1       3.165 -13.410 -17.822  1.00  0.00     0.117 C 
HETATM   18  O   UNL     1       3.626 -14.567 -15.782  1.00  0.00    -0.274 OA
ATOM     19  HN  UNL     1       2.539 -11.571 -15.924  1.00  0.00     0.163 HD
ENDBRANCH   3  15
BRANCH   5  20
HETATM   20  C   UNL     1       3.368 -11.224 -10.017  1.00  0.00     0.217 C 
BRANCH  20  21
HETATM   21  O   UNL     1       3.412 -12.583  -9.634  1.00  0.00    -0.280 OA
BRANCH  21  22
HETATM   22  P   UNL     1       2.325 -13.076  -8.485  1.00  0.00     0.422 P 
HETATM   23  O   UNL     1       2.728 -14.478  -8.052  1.00  0.00    -0.617 OA
HETATM   24  O   UNL     1       0.970 -13.075  -9.127  1.00  0.00    -0.617 OA
HETATM   25  O   UNL     1       2.457 -12.057  -7.373  1.00  0.00    -0.617 OA
ENDBRANCH  21  22
ENDBRANCH  20  21
ENDBRANCH   5  20
BRANCH   4  26
HETATM   26  O   UNL     1       5.305 -12.623 -13.997  1.00  0.00    -0.369 OA
ATOM     27  HO  UNL     1       5.317 -13.399 -13.449  1.00  0.00     0.212 HD
ENDBRANCH   4  26
TORSDOF 9
ENDMDL
MODEL 8
REMARK VINA RESULT:    -5.755      2.496      5.262
REMARK INTER + INTRA:          -9.592
REMARK INTER:                  -8.332
REMARK INTRA:                  -1.260
REMARK UNBOUND:                -1.146
REMARK  9 active torsions:
REMARK  status: ('A' for Active; 'I' for Inactive)
REMARK    1  A    between atoms: C_1  and  O_14 
REMARK    2  A    between atoms: C_2  and  O_16 
REMARK    3  A    between atoms: C_3  and  O_16 
REMARK    4  A    between atoms: C_3  and  C_5 
REMARK    5  A    between atoms: C_6  and  N_12 
REMARK       I    between atoms: C_7  and  N_12 
REMARK    6  A    between atoms: C_9  and  O_20 
REMARK    7  A    between atoms: C_10  and  C_11 
REMARK    8  A    between atoms: C_11  and  O_23 
REMARK    9  A    between atoms: O_23  and  P_27 
ROOT
HETATM    1  C   UNL     1       2.170 -12.080 -12.207  1.00  0.00     0.180 C 
HETATM    2  C   UNL     1       2.276 -13.145 -11.173  1.00  0.00     0.181 C 
HETATM    3  C   UNL     1       2.594 -12.579  -9.830  1.00  0.00     0.171 C 
HETATM    4  C   UNL     1       3.864 -11.762  -9.860  1.00  0.00     0.282 C 
HETATM    5  C   UNL     1       3.444 -11.254 -12.189  1.00  0.00     0.180 C 
HETATM    6  O   UNL     1       3.664 -10.696 -10.854  1.00  0.00    -0.349 OA
ENDROOT
BRANCH   2   7
HETATM    7  O   UNL     1       0.994 -13.849 -11.100  1.00  0.00    -0.365 OA
BRANCH   7   8
HETATM    8  C   UNL     1      -0.125 -12.984 -11.064  1.00  0.00     0.218 C 
HETATM    9  C   UNL     1      -0.826 -13.144  -9.686  1.00  0.00     0.051 C 
BRANCH   8  10
HETATM   10  C   UNL     1      -1.020 -13.367 -12.227  1.00  0.00     0.202 C 
HETATM   11  O   UNL     1      -1.615 -14.477 -12.218  1.00  0.00    -0.646 OA
HETATM   12  O   UNL     1      -1.161 -12.587 -13.186  1.00  0.00    -0.646 OA
ENDBRANCH   8  10
ENDBRANCH   7   8
ENDBRANCH   2   7
BRANCH   1  13
HETATM   13  O   UNL     1       2.030 -12.682 -13.506  1.00  0.00    -0.390 OA
ATOM     14  HO  UNL     1       1.153 -13.042 -13.582  1.00  0.00     0.210 HD
ENDBRANCH   1  13
BRANCH   3  15
HETATM   15  N   UNL     1       2.799 -13.672  -8.850  1.00  0.00    -0.349 N 
HETATM   16  C   UNL     1       2.406 -13.493  -7.463  1.00  0.00     0.214 C 
HETATM   17  C   UNL     1       2.651 -14.677  -6.497  1.00  0.00     0.117 C 
HETATM   18  O   UNL     1       1.917 -12.484  -7.098  1.00  0.00    -0.274 OA
ATOM     19  HN  UNL     1       3.217 -14.552  -9.150  1.00  0.00     0.163 HD
ENDBRANCH   3  15
BRANCH   5  20
HETATM   20  C   UNL     1       3.339 -10.088 -13.133  1.00  0.00     0.217 C 
BRANCH  20  21
HETATM   21  O   UNL     1       2.025  -9.576 -13.049  1.00  0.00    -0.280 OA
BRANCH  21  22
HETATM   22  P   UNL     1       1.199  -9.385 -14.473  1.00  0.00     0.422 P 
HETATM   23  O   UNL     1       1.753 -10.404 -15.458  1.00  0.00    -0.617 OA
HETATM   24  O   UNL     1       1.447  -7.983 -14.945  1.00  0.00    -0.617 OA
HETATM   25  O   UNL     1      -0.248  -9.644 -14.111  1.00  0.00    -0.617 OA
ENDBRANCH  21  22
ENDBRANCH  20  21
ENDBRANCH   5  20
BRANCH   4  26
HETATM   26  O   UNL     1       4.081 -11.118  -8.668  1.00  0.00    -0.369 OA
ATOM     27  HO  UNL     1       3.502 -11.537  -8.042  1.00  0.00     0.212 HD
ENDBRANCH   4  26
TORSDOF 9
ENDMDL
MODEL 9
REMARK VINA RESULT:    -5.707      4.556      5.926
REMARK INTER + INTRA:          -9.522
REMARK INTER:                  -8.192
REMARK INTRA:                  -1.330
REMARK UNBOUND:                -1.146
REMARK  9 active torsions:
REMARK  status: ('A' for Active; 'I' for Inactive)
REMARK    1  A    between atoms: C_1  and  O_14 
REMARK    2  A    between atoms: C_2  and  O_16 
REMARK    3  A    between atoms: C_3  and  O_16 
REMARK    4  A    between atoms: C_3  and  C_5 
REMARK    5  A    between atoms: C_6  and  N_12 
REMARK       I    between atoms: C_7  and  N_12 
REMARK    6  A    between atoms: C_9  and  O_20 
REMARK    7  A    between atoms: C_10  and  C_11 
REMARK    8  A    between atoms: C_11  and  O_23 
REMARK    9  A    between atoms: O_23  and  P_27 
ROOT
HETATM    1  C   UNL     1       1.513 -14.428 -14.492  1.00  0.00     0.180 C 
HETATM    2  C   UNL     1       1.952 -14.986 -15.800  1.00  0.00     0.181 C 
HETATM    3  C   UNL     1       2.952 -14.103 -16.466  1.00  0.00     0.171 C 
HETATM    4  C   UNL     1       2.418 -12.704 -16.657  1.00  0.00     0.282 C 
HETATM    5  C   UNL     1       1.014 -13.011 -14.709  1.00  0.00     0.180 C 
HETATM    6  O   UNL     1       2.063 -12.196 -15.322  1.00  0.00    -0.349 OA
ENDROOT
BRANCH   2   7
HETATM    7  O   UNL     1       2.558 -16.299 -15.565  1.00  0.00    -0.365 OA
BRANCH   7   8
HETATM    8  C   UNL     1       1.691 -17.380 -15.847  1.00  0.00     0.218 C 
HETATM    9  C   UNL     1       2.179 -18.622 -15.051  1.00  0.00     0.051 C 
BRANCH   8  10
HETATM   10  C   UNL     1       1.723 -17.594 -17.348  1.00  0.00     0.202 C 
HETATM   11  O   UNL     1       2.828 -17.641 -17.949  1.00  0.00    -0.646 OA
HETATM   12  O   UNL     1       0.659 -17.718 -17.982  1.00  0.00    -0.646 OA
ENDBRANCH   8  10
ENDBRANCH   7   8
ENDBRANCH   2   7
BRANCH   1  13
HETATM   13  O   UNL     1       0.432 -15.222 -13.970  1.00  0.00    -0.390 OA
ATOM     14  HO  UNL     1      -0.259 -14.639 -13.675  1.00  0.00     0.210 HD
ENDBRANCH   1  13
BRANCH   3  15
HETATM   15  N   UNL     1       3.286 -14.632 -17.810  1.00  0.00    -0.349 N 
HETATM   16  C   UNL     1       4.645 -14.540 -18.316  1.00  0.00     0.214 C 
HETATM   17  C   UNL     1       4.918 -15.112 -19.728  1.00  0.00     0.117 C 
HETATM   18  O   UNL     1       5.499 -14.049 -17.668  1.00  0.00    -0.274 OA
ATOM     19  HN  UNL     1       2.560 -15.061 -18.383  1.00  0.00     0.163 HD
ENDBRANCH   3  15
BRANCH   5  20
HETATM   20  C   UNL     1       0.671 -12.358 -13.398  1.00  0.00     0.217 C 
BRANCH  20  21
HETATM   21  O   UNL     1      -0.710 -12.546 -13.166  1.00  0.00    -0.280 OA
BRANCH  21  22
HETATM   22  P   UNL     1      -1.136 -13.430 -11.831  1.00  0.00     0.422 P 
HETATM   23  O   UNL     1      -2.069 -12.566 -10.995  1.00  0.00    -0.617 OA
HETATM   24  O   UNL     1       0.127 -13.743 -11.085  1.00  0.00    -0.617 OA
HETATM   25  O   UNL     1      -1.818 -14.660 -12.390  1.00  0.00    -0.617 OA
ENDBRANCH  21  22
ENDBRANCH  20  21
ENDBRANCH   5  20
BRANCH   4  26
HETATM   26  O   UNL     1       3.383 -11.852 -17.130  1.00  0.00    -0.369 OA
ATOM     27  HO  UNL     1       3.298 -11.059 -16.615  1.00  0.00     0.212 HD
ENDBRANCH   4  26
TORSDOF 9
ENDMDL
MODEL 10
REMARK VINA RESULT:    -5.680      3.629      6.814
REMARK INTER + INTRA:          -9.483
REMARK INTER:                  -8.592
REMARK INTRA:                  -0.891
REMARK UNBOUND:                -1.146
REMARK  9 active torsions:
REMARK  status: ('A' for Active; 'I' for Inactive)
REMARK    1  A    between atoms: C_1  and  O_14 
REMARK    2  A    between atoms: C_2  and  O_16 
REMARK    3  A    between atoms: C_3  and  O_16 
REMARK    4  A    between atoms: C_3  and  C_5 
REMARK    5  A    between atoms: C_6  and  N_12 
REMARK       I    between atoms: C_7  and  N_12 
REMARK    6  A    between atoms: C_9  and  O_20 
REMARK    7  A    between atoms: C_10  and  C_11 
REMARK    8  A    between atoms: C_11  and  O_23 
REMARK    9  A    between atoms: O_23  and  P_27 
ROOT
HETATM    1  C   UNL     1       2.752 -12.765 -14.278  1.00  0.00     0.180 C 
HETATM    2  C   UNL     1       1.948 -12.800 -13.026  1.00  0.00     0.181 C 
HETATM    3  C   UNL     1       0.534 -12.392 -13.269  1.00  0.00     0.171 C 
HETATM    4  C   UNL     1       0.453 -11.021 -13.895  1.00  0.00     0.282 C 
HETATM    5  C   UNL     1       2.623 -11.388 -14.903  1.00  0.00     0.180 C 
HETATM    6  O   UNL     1       1.215 -11.079 -15.153  1.00  0.00    -0.349 OA
ENDROOT
BRANCH   2   7
HETATM    7  O   UNL     1       1.965 -14.168 -12.502  1.00  0.00    -0.365 OA
BRANCH   7   8
HETATM    8  C   UNL     1       2.274 -15.143 -13.479  1.00  0.00     0.218 C 
HETATM    9  C   UNL     1       0.953 -15.832 -13.921  1.00  0.00     0.051 C 
BRANCH   8  10
HETATM   10  C   UNL     1       3.258 -16.109 -12.847  1.00  0.00     0.202 C 
HETATM   11  O   UNL     1       3.040 -17.348 -12.902  1.00  0.00    -0.646 OA
HETATM   12  O   UNL     1       4.273 -15.675 -12.272  1.00  0.00    -0.646 OA
ENDBRANCH   8  10
ENDBRANCH   7   8
ENDBRANCH   2   7
BRANCH   1  13
HETATM   13  O   UNL     1       4.137 -13.002 -13.967  1.00  0.00    -0.390 OA
ATOM     14  HO  UNL     1       4.537 -12.178 -13.712  1.00  0.00     0.210 HD
ENDBRANCH   1  13
BRANCH   3  15
HETATM   15  N   UNL     1      -0.209 -12.334 -11.988  1.00  0.00    -0.349 N 
HETATM   16  C   UNL     1      -1.307 -13.250 -11.736  1.00  0.00     0.214 C 
HETATM   17  C   UNL     1      -2.037 -13.130 -10.377  1.00  0.00     0.117 C 
HETATM   18  O   UNL     1      -1.620 -14.053 -12.541  1.00  0.00    -0.274 OA
ATOM     19  HN  UNL     1       0.052 -11.647 -11.280  1.00  0.00     0.163 HD
ENDBRANCH   3  15
BRANCH   5  20
HETATM   20  C   UNL     1       3.319 -11.337 -16.235  1.00  0.00     0.217 C 
BRANCH  20  21
HETATM   21  O   UNL     1       2.951 -12.490 -16.964  1.00  0.00    -0.280 OA
BRANCH  21  22
HETATM   22  P   UNL     1       4.156 -13.280 -17.782  1.00  0.00     0.422 P 
HETATM   23  O   UNL     1       5.469 -12.603 -17.420  1.00  0.00    -0.617 OA
HETATM   24  O   UNL     1       3.861 -13.145 -19.246  1.00  0.00    -0.617 OA
HETATM   25  O   UNL     1       4.077 -14.710 -17.288  1.00  0.00    -0.617 OA
ENDBRANCH  21  22
ENDBRANCH  20  21
ENDBRANCH   5  20
BRANCH   4  26
HETATM   26  O   UNL     1      -0.832 -10.703 -14.258  1.00  0.00    -0.369 OA
ATOM     27  HO  UNL     1      -1.173 -10.171 -13.549  1.00  0.00     0.212 HD
ENDBRANCH   4  26
TORSDOF 9
ENDMDL
MODEL 11
REMARK VINA RESULT:    -5.657      5.283      6.993
REMARK INTER + INTRA:          -9.448
REMARK INTER:                  -8.475
REMARK INTRA:                  -0.973
REMARK UNBOUND:                -1.146
REMARK  9 active torsions:
REMARK  status: ('A' for Active; 'I' for Inactive)
REMARK    1  A    between atoms: C_1  and  O_14 
REMARK    2  A    between atoms: C_2  and  O_16 
REMARK    3  A    between atoms: C_3  and  O_16 
REMARK    4  A    between atoms: C_3  and  C_5 
REMARK    5  A    between atoms: C_6  and  N_12 
REMARK       I    between atoms: C_7  and  N_12 
REMARK    6  A    between atoms: C_9  and  O_20 
REMARK    7  A    between atoms: C_10  and  C_11 
REMARK    8  A    between atoms: C_11  and  O_23 
REMARK    9  A    between atoms: O_23  and  P_27 
ROOT
HETATM    1  C   UNL     1       2.797 -13.119 -17.322  1.00  0.00     0.180 C 
HETATM    2  C   UNL     1       3.091 -14.535 -17.675  1.00  0.00     0.181 C 
HETATM    3  C   UNL     1       2.306 -15.486 -16.838  1.00  0.00     0.171 C 
HETATM    4  C   UNL     1       2.552 -15.261 -15.365  1.00  0.00     0.282 C 
HETATM    5  C   UNL     1       3.019 -12.933 -15.832  1.00  0.00     0.180 C 
HETATM    6  O   UNL     1       2.183 -13.866 -15.077  1.00  0.00    -0.349 OA
ENDROOT
BRANCH   2   7
HETATM    7  O   UNL     1       2.744 -14.742 -19.084  1.00  0.00    -0.365 OA
BRANCH   7   8
HETATM    8  C   UNL     1       3.845 -15.121 -19.887  1.00  0.00     0.218 C 
HETATM    9  C   UNL     1       5.131 -15.060 -19.017  1.00  0.00     0.051 C 
BRANCH   8  10
HETATM   10  C   UNL     1       3.885 -14.166 -21.064  1.00  0.00     0.202 C 
HETATM   11  O   UNL     1       4.280 -14.576 -22.188  1.00  0.00    -0.646 OA
HETATM   12  O   UNL     1       3.532 -12.982 -20.917  1.00  0.00    -0.646 OA
ENDBRANCH   8  10
ENDBRANCH   7   8
ENDBRANCH   2   7
BRANCH   1  13
HETATM   13  O   UNL     1       3.695 -12.248 -18.034  1.00  0.00    -0.390 OA
ATOM     14  HO  UNL     1       4.451 -12.076 -17.485  1.00  0.00     0.210 HD
ENDBRANCH   1  13
BRANCH   3  15
HETATM   15  N   UNL     1       2.702 -16.882 -17.141  1.00  0.00    -0.349 N 
HETATM   16  C   UNL     1       1.696 -17.926 -17.222  1.00  0.00     0.214 C 
HETATM   17  C   UNL     1       2.184 -19.360 -17.542  1.00  0.00     0.117 C 
HETATM   18  O   UNL     1       0.555 -17.681 -17.054  1.00  0.00    -0.274 OA
ATOM     19  HN  UNL     1       3.684 -17.110 -17.292  1.00  0.00     0.163 HD
ENDBRANCH   3  15
BRANCH   5  20
HETATM   20  C   UNL     1       2.618 -11.548 -15.400  1.00  0.00     0.217 C 
BRANCH  20  21
HETATM   21  O   UNL     1       1.867 -11.664 -14.210  1.00  0.00    -0.280 OA
BRANCH  21  22
HETATM   22  P   UNL     1       0.824 -10.426 -13.855  1.00  0.00     0.422 P 
HETATM   23  O   UNL     1       0.603 -10.438 -12.350  1.00  0.00    -0.617 OA
HETATM   24  O   UNL     1      -0.453 -10.695 -14.594  1.00  0.00    -0.617 OA
HETATM   25  O   UNL     1       1.537  -9.179 -14.333  1.00  0.00    -0.617 OA
ENDBRANCH  21  22
ENDBRANCH  20  21
ENDBRANCH   5  20
BRANCH   4  26
HETATM   26  O   UNL     1       1.722 -16.030 -14.588  1.00  0.00    -0.369 OA
ATOM     27  HO  UNL     1       2.297 -16.572 -14.061  1.00  0.00     0.212 HD
ENDBRANCH   4  26
TORSDOF 9
ENDMDL
MODEL 12
REMARK VINA RESULT:    -5.537      1.980      2.263
REMARK INTER + INTRA:          -9.272
REMARK INTER:                  -8.203
REMARK INTRA:                  -1.069
REMARK UNBOUND:                -1.146
REMARK  9 active torsions:
REMARK  status: ('A' for Active; 'I' for Inactive)
REMARK    1  A    between atoms: C_1  and  O_14 
REMARK    2  A    between atoms: C_2  and  O_16 
REMARK    3  A    between atoms: C_3  and  O_16 
REMARK    4  A    between atoms: C_3  and  C_5 
REMARK    5  A    between atoms: C_6  and  N_12 
REMARK       I    between atoms: C_7  and  N_12 
REMARK    6  A    between atoms: C_9  and  O_20 
REMARK    7  A    between atoms: C_10  and  C_11 
REMARK    8  A    between atoms: C_11  and  O_23 
REMARK    9  A    between atoms: O_23  and  P_27 
ROOT
HETATM    1  C   UNL     1       2.258 -11.861 -12.132  1.00  0.00     0.180 C 
HETATM    2  C   UNL     1       3.575 -12.056 -12.796  1.00  0.00     0.181 C 
HETATM    3  C   UNL     1       3.768 -13.469 -13.232  1.00  0.00     0.171 C 
HETATM    4  C   UNL     1       3.627 -14.429 -12.075  1.00  0.00     0.282 C 
HETATM    5  C   UNL     1       2.130 -12.862 -10.998  1.00  0.00     0.180 C 
HETATM    6  O   UNL     1       2.284 -14.224 -11.509  1.00  0.00    -0.349 OA
ENDROOT
BRANCH   2   7
HETATM    7  O   UNL     1       3.635 -11.184 -13.972  1.00  0.00    -0.365 OA
BRANCH   7   8
HETATM    8  C   UNL     1       2.526 -11.327 -14.839  1.00  0.00     0.218 C 
HETATM    9  C   UNL     1       3.047 -11.765 -16.235  1.00  0.00     0.051 C 
BRANCH   8  10
HETATM   10  C   UNL     1       1.812  -9.989 -14.871  1.00  0.00     0.202 C 
HETATM   11  O   UNL     1       2.334  -9.017 -15.479  1.00  0.00    -0.646 OA
HETATM   12  O   UNL     1       0.717  -9.854 -14.295  1.00  0.00    -0.646 OA
ENDBRANCH   8  10
ENDBRANCH   7   8
ENDBRANCH   2   7
BRANCH   1  13
HETATM   13  O   UNL     1       2.187 -10.532 -11.584  1.00  0.00    -0.390 OA
ATOM     14  HO  UNL     1       2.420 -10.570 -10.663  1.00  0.00     0.210 HD
ENDBRANCH   1  13
BRANCH   3  15
HETATM   15  N   UNL     1       5.129 -13.651 -13.790  1.00  0.00    -0.349 N 
HETATM   16  C   UNL     1       5.331 -14.468 -14.974  1.00  0.00     0.214 C 
HETATM   17  C   UNL     1       6.780 -14.614 -15.499  1.00  0.00     0.117 C 
HETATM   18  O   UNL     1       4.420 -14.994 -15.508  1.00  0.00    -0.274 OA
ATOM     19  HN  UNL     1       5.927 -13.201 -13.342  1.00  0.00     0.163 HD
ENDBRANCH   3  15
BRANCH   5  20
HETATM   20  C   UNL     1       0.765 -12.788 -10.370  1.00  0.00     0.217 C 
BRANCH  20  21
HETATM   21  O   UNL     1      -0.005 -13.859 -10.875  1.00  0.00    -0.280 OA
BRANCH  21  22
HETATM   22  P   UNL     1      -1.361 -13.467 -11.744  1.00  0.00     0.422 P 
HETATM   23  O   UNL     1      -0.947 -12.450 -12.796  1.00  0.00    -0.617 OA
HETATM   24  O   UNL     1      -2.350 -12.881 -10.781  1.00  0.00    -0.617 OA
HETATM   25  O   UNL     1      -1.820 -14.780 -12.344  1.00  0.00    -0.617 OA
ENDBRANCH  21  22
ENDBRANCH  20  21
ENDBRANCH   5  20
BRANCH   4  26
HETATM   26  O   UNL     1       3.655 -15.736 -12.494  1.00  0.00    -0.369 OA
ATOM     27  HO  UNL     1       4.001 -15.713 -13.378  1.00  0.00     0.212 HD
ENDBRANCH   4  26
TORSDOF 9
ENDMDL
MODEL 13
REMARK VINA RESULT:    -5.481      3.866      6.557
REMARK INTER + INTRA:          -9.190
REMARK INTER:                  -7.719
REMARK INTRA:                  -1.471
REMARK UNBOUND:                -1.146
REMARK  9 active torsions:
REMARK  status: ('A' for Active; 'I' for Inactive)
REMARK    1  A    between atoms: C_1  and  O_14 
REMARK    2  A    between atoms: C_2  and  O_16 
REMARK    3  A    between atoms: C_3  and  O_16 
REMARK    4  A    between atoms: C_3  and  C_5 
REMARK    5  A    between atoms: C_6  and  N_12 
REMARK       I    between atoms: C_7  and  N_12 
REMARK    6  A    between atoms: C_9  and  O_20 
REMARK    7  A    between atoms: C_10  and  C_11 
REMARK    8  A    between atoms: C_11  and  O_23 
REMARK    9  A    between atoms: O_23  and  P_27 
ROOT
HETATM    1  C   UNL     1       3.349 -12.822 -16.449  1.00  0.00     0.180 C 
HETATM    2  C   UNL     1       2.149 -12.679 -15.581  1.00  0.00     0.181 C 
HETATM    3  C   UNL     1       1.841 -13.945 -14.856  1.00  0.00     0.171 C 
HETATM    4  C   UNL     1       1.651 -15.098 -15.812  1.00  0.00     0.282 C 
HETATM    5  C   UNL     1       3.145 -14.009 -17.373  1.00  0.00     0.180 C 
HETATM    6  O   UNL     1       2.894 -15.219 -16.590  1.00  0.00    -0.349 OA
ENDROOT
BRANCH   2   7
HETATM    7  O   UNL     1       2.409 -11.621 -14.601  1.00  0.00    -0.365 OA
BRANCH   7   8
HETATM    8  C   UNL     1       1.668 -10.440 -14.835  1.00  0.00     0.218 C 
HETATM    9  C   UNL     1       2.591  -9.219 -14.564  1.00  0.00     0.051 C 
BRANCH   8  10
HETATM   10  C   UNL     1       0.463 -10.481 -13.916  1.00  0.00     0.202 C 
HETATM   11  O   UNL     1      -0.669 -10.779 -14.382  1.00  0.00    -0.646 OA
HETATM   12  O   UNL     1       0.594 -10.218 -12.707  1.00  0.00    -0.646 OA
ENDBRANCH   8  10
ENDBRANCH   7   8
ENDBRANCH   2   7
BRANCH   1  13
HETATM   13  O   UNL     1       3.508 -11.636 -17.250  1.00  0.00    -0.390 OA
ATOM     14  HO  UNL     1       4.414 -11.356 -17.202  1.00  0.00     0.210 HD
ENDBRANCH   1  13
BRANCH   3  15
HETATM   15  N   UNL     1       0.582 -13.801 -14.087  1.00  0.00    -0.349 N 
HETATM   16  C   UNL     1       0.602 -13.846 -12.635  1.00  0.00     0.214 C 
HETATM   17  C   UNL     1      -0.751 -13.689 -11.900  1.00  0.00     0.117 C 
HETATM   18  O   UNL     1       1.615 -13.993 -12.049  1.00  0.00    -0.274 OA
ATOM     19  HN  UNL     1      -0.302 -13.669 -14.579  1.00  0.00     0.163 HD
ENDBRANCH   3  15
BRANCH   5  20
HETATM   20  C   UNL     1       4.381 -14.271 -18.189  1.00  0.00     0.217 C 
BRANCH  20  21
HETATM   21  O   UNL     1       5.488 -13.757 -17.480  1.00  0.00    -0.280 OA
BRANCH  21  22
HETATM   22  P   UNL     1       6.573 -14.856 -16.878  1.00  0.00     0.422 P 
HETATM   23  O   UNL     1       7.965 -14.279 -17.086  1.00  0.00    -0.617 OA
HETATM   24  O   UNL     1       6.391 -16.128 -17.651  1.00  0.00    -0.617 OA
HETATM   25  O   UNL     1       6.206 -14.991 -15.415  1.00  0.00    -0.617 OA
ENDBRANCH  21  22
ENDBRANCH  20  21
ENDBRANCH   5  20
BRANCH   4  26
HETATM   26  O   UNL     1       1.516 -16.292 -15.147  1.00  0.00    -0.369 OA
ATOM     27  HO  UNL     1       1.552 -16.963 -15.818  1.00  0.00     0.212 HD
ENDBRANCH   4  26
TORSDOF 9
ENDMDL
MODEL 14
REMARK VINA RESULT:    -5.444      3.826      6.249
REMARK INTER + INTRA:          -9.136
REMARK INTER:                  -8.004
REMARK INTRA:                  -1.132
REMARK UNBOUND:                -1.146
REMARK  9 active torsions:
REMARK  status: ('A' for Active; 'I' for Inactive)
REMARK    1  A    between atoms: C_1  and  O_14 
REMARK    2  A    between atoms: C_2  and  O_16 
REMARK    3  A    between atoms: C_3  and  O_16 
REMARK    4  A    between atoms: C_3  and  C_5 
REMARK    5  A    between atoms: C_6  and  N_12 
REMARK       I    between atoms: C_7  and  N_12 
REMARK    6  A    between atoms: C_9  and  O_20 
REMARK    7  A    between atoms: C_10  and  C_11 
REMARK    8  A    between atoms: C_11  and  O_23 
REMARK    9  A    between atoms: O_23  and  P_27 
ROOT
HETATM    1  C   UNL     1       2.160 -12.160 -14.891  1.00  0.00     0.180 C 
HETATM    2  C   UNL     1       1.008 -11.814 -14.014  1.00  0.00     0.181 C 
HETATM    3  C   UNL     1       0.577 -12.976 -13.186  1.00  0.00     0.171 C 
HETATM    4  C   UNL     1       0.230 -14.169 -14.044  1.00  0.00     0.282 C 
HETATM    5  C   UNL     1       1.795 -13.382 -15.714  1.00  0.00     0.180 C 
HETATM    6  O   UNL     1       1.429 -14.492 -14.834  1.00  0.00    -0.349 OA
ENDROOT
BRANCH   2   7
HETATM    7  O   UNL     1       1.415 -10.722 -13.126  1.00  0.00    -0.365 OA
BRANCH   7   8
HETATM    8  C   UNL     1       2.709 -10.890 -12.580  1.00  0.00     0.218 C 
HETATM    9  C   UNL     1       2.564 -11.220 -11.068  1.00  0.00     0.051 C 
BRANCH   8  10
HETATM   10  C   UNL     1       3.467  -9.601 -12.830  1.00  0.00     0.202 C 
HETATM   11  O   UNL     1       3.309  -8.984 -13.916  1.00  0.00    -0.646 OA
HETATM   12  O   UNL     1       4.245  -9.159 -11.965  1.00  0.00    -0.646 OA
ENDBRANCH   8  10
ENDBRANCH   7   8
ENDBRANCH   2   7
BRANCH   1  13
HETATM   13  O   UNL     1       2.430 -11.066 -15.786  1.00  0.00    -0.390 OA
ATOM     14  HO  UNL     1       3.031 -10.466 -15.359  1.00  0.00     0.210 HD
ENDBRANCH   1  13
BRANCH   3  15
HETATM   15  N   UNL     1      -0.635 -12.628 -12.407  1.00  0.00    -0.349 N 
HETATM   16  C   UNL     1      -0.751 -13.030 -11.017  1.00  0.00     0.214 C 
HETATM   17  C   UNL     1      -2.046 -12.632 -10.267  1.00  0.00     0.117 C 
HETATM   18  O   UNL     1       0.113 -13.633 -10.487  1.00  0.00    -0.274 OA
ATOM     19  HN  UNL     1      -1.390 -12.105 -12.850  1.00  0.00     0.163 HD
ENDBRANCH   3  15
BRANCH   5  20
HETATM   20  C   UNL     1       2.970 -13.848 -16.530  1.00  0.00     0.217 C 
BRANCH  20  21
HETATM   21  O   UNL     1       2.837 -13.311 -17.830  1.00  0.00    -0.280 OA
BRANCH  21  22
HETATM   22  P   UNL     1       3.682 -14.060 -19.044  1.00  0.00     0.422 P 
HETATM   23  O   UNL     1       3.568 -13.183 -20.282  1.00  0.00    -0.617 OA
HETATM   24  O   UNL     1       3.046 -15.399 -19.266  1.00  0.00    -0.617 OA
HETATM   25  O   UNL     1       5.099 -14.153 -18.519  1.00  0.00    -0.617 OA
ENDBRANCH  21  22
ENDBRANCH  20  21
ENDBRANCH   5  20
BRANCH   4  26
HETATM   26  O   UNL     1      -0.022 -15.284 -13.285  1.00  0.00    -0.369 OA
ATOM     27  HO  UNL     1      -0.622 -15.812 -13.799  1.00  0.00     0.212 HD
ENDBRANCH   4  26
TORSDOF 9
ENDMDL
MODEL 15
REMARK VINA RESULT:    -5.398      3.198      5.200
REMARK INTER + INTRA:          -9.068
REMARK INTER:                  -7.800
REMARK INTRA:                  -1.268
REMARK UNBOUND:                -1.146
REMARK  9 active torsions:
REMARK  status: ('A' for Active; 'I' for Inactive)
REMARK    1  A    between atoms: C_1  and  O_14 
REMARK    2  A    between atoms: C_2  and  O_16 
REMARK    3  A    between atoms: C_3  and  O_16 
REMARK    4  A    between atoms: C_3  and  C_5 
REMARK    5  A    between atoms: C_6  and  N_12 
REMARK       I    between atoms: C_7  and  N_12 
REMARK    6  A    between atoms: C_9  and  O_20 
REMARK    7  A    between atoms: C_10  and  C_11 
REMARK    8  A    between atoms: C_11  and  O_23 
REMARK    9  A    between atoms: O_23  and  P_27 
ROOT
HETATM    1  C   UNL     1       2.628 -13.251 -13.190  1.00  0.00     0.180 C 
HETATM    2  C   UNL     1       3.437 -14.150 -14.057  1.00  0.00     0.181 C 
HETATM    3  C   UNL     1       3.523 -13.636 -15.454  1.00  0.00     0.171 C 
HETATM    4  C   UNL     1       2.153 -13.437 -16.056  1.00  0.00     0.282 C 
HETATM    5  C   UNL     1       1.271 -13.041 -13.837  1.00  0.00     0.180 C 
HETATM    6  O   UNL     1       1.435 -12.493 -15.184  1.00  0.00    -0.349 OA
ENDROOT
BRANCH   2   7
HETATM    7  O   UNL     1       4.789 -14.238 -13.499  1.00  0.00    -0.365 OA
BRANCH   7   8
HETATM    8  C   UNL     1       5.155 -15.548 -13.110  1.00  0.00     0.218 C 
HETATM    9  C   UNL     1       3.952 -16.494 -13.377  1.00  0.00     0.051 C 
BRANCH   8  10
HETATM   10  C   UNL     1       5.540 -15.485 -11.645  1.00  0.00     0.202 C 
HETATM   11  O   UNL     1       4.641 -15.424 -10.765  1.00  0.00    -0.646 OA
HETATM   12  O   UNL     1       6.740 -15.490 -11.316  1.00  0.00    -0.646 OA
ENDBRANCH   8  10
ENDBRANCH   7   8
ENDBRANCH   2   7
BRANCH   1  13
HETATM   13  O   UNL     1       2.434 -13.868 -11.904  1.00  0.00    -0.390 OA
ATOM     14  HO  UNL     1       2.221 -14.785 -12.036  1.00  0.00     0.210 HD
ENDBRANCH   1  13
BRANCH   3  15
HETATM   15  N   UNL     1       4.243 -14.607 -16.313  1.00  0.00    -0.349 N 
HETATM   16  C   UNL     1       5.200 -14.140 -17.301  1.00  0.00     0.214 C 
HETATM   17  C   UNL     1       5.912 -15.211 -18.162  1.00  0.00     0.117 C 
HETATM   18  O   UNL     1       5.421 -12.989 -17.431  1.00  0.00    -0.274 OA
ATOM     19  HN  UNL     1       4.065 -15.606 -16.210  1.00  0.00     0.163 HD
ENDBRANCH   3  15
BRANCH   5  20
HETATM   20  C   UNL     1       0.456 -12.042 -13.062  1.00  0.00     0.217 C 
BRANCH  20  21
HETATM   21  O   UNL     1      -0.872 -12.518 -12.999  1.00  0.00    -0.280 OA
BRANCH  21  22
HETATM   22  P   UNL     1      -1.274 -13.461 -11.697  1.00  0.00     0.422 P 
HETATM   23  O   UNL     1      -2.433 -12.780 -10.986  1.00  0.00    -0.617 OA
HETATM   24  O   UNL     1      -0.064 -13.536 -10.814  1.00  0.00    -0.617 OA
HETATM   25  O   UNL     1      -1.656 -14.797 -12.298  1.00  0.00    -0.617 OA
ENDBRANCH  21  22
ENDBRANCH  20  21
ENDBRANCH   5  20
BRANCH   4  26
HETATM   26  O   UNL     1       2.221 -12.825 -17.283  1.00  0.00    -0.369 OA
ATOM     27  HO  UNL     1       1.885 -13.460 -17.903  1.00  0.00     0.212 HD
ENDBRANCH   4  26
TORSDOF 9
ENDMDL
MODEL 16
REMARK VINA RESULT:    -5.353      2.745      6.280
REMARK INTER + INTRA:          -9.002
REMARK INTER:                  -8.241
REMARK INTRA:                  -0.761
REMARK UNBOUND:                -1.146
REMARK  9 active torsions:
REMARK  status: ('A' for Active; 'I' for Inactive)
REMARK    1  A    between atoms: C_1  and  O_14 
REMARK    2  A    between atoms: C_2  and  O_16 
REMARK    3  A    between atoms: C_3  and  O_16 
REMARK    4  A    between atoms: C_3  and  C_5 
REMARK    5  A    between atoms: C_6  and  N_12 
REMARK       I    between atoms: C_7  and  N_12 
REMARK    6  A    between atoms: C_9  and  O_20 
REMARK    7  A    between atoms: C_10  and  C_11 
REMARK    8  A    between atoms: C_11  and  O_23 
REMARK    9  A    between atoms: O_23  and  P_27 
ROOT
HETATM    1  C   UNL     1       2.627 -11.050 -12.496  1.00  0.00     0.180 C 
HETATM    2  C   UNL     1       1.564 -11.103 -11.455  1.00  0.00     0.181 C 
HETATM    3  C   UNL     1       0.436 -11.987 -11.865  1.00  0.00     0.171 C 
HETATM    4  C   UNL     1      -0.157 -11.553 -13.184  1.00  0.00     0.282 C 
HETATM    5  C   UNL     1       1.996 -10.647 -13.816  1.00  0.00     0.180 C 
HETATM    6  O   UNL     1       0.932 -11.585 -14.174  1.00  0.00    -0.349 OA
ENDROOT
BRANCH   2   7
HETATM    7  O   UNL     1       2.153 -11.625 -10.219  1.00  0.00    -0.365 OA
BRANCH   7   8
HETATM    8  C   UNL     1       2.219 -13.037 -10.177  1.00  0.00     0.218 C 
HETATM    9  C   UNL     1       1.678 -13.514  -8.800  1.00  0.00     0.051 C 
BRANCH   8  10
HETATM   10  C   UNL     1       3.668 -13.421 -10.404  1.00  0.00     0.202 C 
HETATM   11  O   UNL     1       4.572 -12.554 -10.270  1.00  0.00    -0.646 OA
HETATM   12  O   UNL     1       3.960 -14.587 -10.724  1.00  0.00    -0.646 OA
ENDBRANCH   8  10
ENDBRANCH   7   8
ENDBRANCH   2   7
BRANCH   1  13
HETATM   13  O   UNL     1       3.608 -10.061 -12.132  1.00  0.00    -0.390 OA
ATOM     14  HO  UNL     1       4.227  -9.970 -12.848  1.00  0.00     0.210 HD
ENDBRANCH   1  13
BRANCH   3  15
HETATM   15  N   UNL     1      -0.649 -11.932 -10.857  1.00  0.00    -0.349 N 
HETATM   16  C   UNL     1      -1.549 -13.060 -10.688  1.00  0.00     0.214 C 
HETATM   17  C   UNL     1      -2.659 -12.930  -9.617  1.00  0.00     0.117 C 
HETATM   18  O   UNL     1      -1.429 -14.032 -11.345  1.00  0.00    -0.274 OA
ATOM     19  HN  UNL     1      -0.765 -11.099 -10.279  1.00  0.00     0.163 HD
ENDBRANCH   3  15
BRANCH   5  20
HETATM   20  C   UNL     1       3.007 -10.696 -14.929  1.00  0.00     0.217 C 
BRANCH  20  21
HETATM   21  O   UNL     1       3.696 -11.925 -14.838  1.00  0.00    -0.280 OA
BRANCH  21  22
HETATM   22  P   UNL     1       3.904 -12.779 -16.243  1.00  0.00     0.422 P 
HETATM   23  O   UNL     1       4.080 -14.241 -15.862  1.00  0.00    -0.617 OA
HETATM   24  O   UNL     1       5.134 -12.240 -16.911  1.00  0.00    -0.617 OA
HETATM   25  O   UNL     1       2.638 -12.525 -17.033  1.00  0.00    -0.617 OA
ENDBRANCH  21  22
ENDBRANCH  20  21
ENDBRANCH   5  20
BRANCH   4  26
HETATM   26  O   UNL     1      -1.093 -12.448 -13.639  1.00  0.00    -0.369 OA
ATOM     27  HO  UNL     1      -1.845 -11.924 -13.888  1.00  0.00     0.212 HD
ENDBRANCH   4  26
TORSDOF 9
ENDMDL
MODEL 17
REMARK VINA RESULT:    -5.329      2.764      3.737
REMARK INTER + INTRA:          -8.968
REMARK INTER:                  -7.918
REMARK INTRA:                  -1.050
REMARK UNBOUND:                -1.146
REMARK  9 active torsions:
REMARK  status: ('A' for Active; 'I' for Inactive)
REMARK    1  A    between atoms: C_1  and  O_14 
REMARK    2  A    between atoms: C_2  and  O_16 
REMARK    3  A    between atoms: C_3  and  O_16 
REMARK    4  A    between atoms: C_3  and  C_5 
REMARK    5  A    between atoms: C_6  and  N_12 
REMARK       I    between atoms: C_7  and  N_12 
REMARK    6  A    between atoms: C_9  and  O_20 
REMARK    7  A    between atoms: C_10  and  C_11 
REMARK    8  A    between atoms: C_11  and  O_23 
REMARK    9  A    between atoms: O_23  and  P_27 
ROOT
HETATM    1  C   UNL     1       1.309 -12.018 -11.663  1.00  0.00     0.180 C 
HETATM    2  C   UNL     1       2.194 -12.000 -12.859  1.00  0.00     0.181 C 
HETATM    3  C   UNL     1       2.716 -13.360 -13.177  1.00  0.00     0.171 C 
HETATM    4  C   UNL     1       3.450 -13.961 -12.003  1.00  0.00     0.282 C 
HETATM    5  C   UNL     1       2.061 -12.659 -10.510  1.00  0.00     0.180 C 
HETATM    6  O   UNL     1       2.500 -14.004 -10.880  1.00  0.00    -0.349 OA
ENDROOT
BRANCH   2   7
HETATM    7  O   UNL     1       1.420 -11.508 -14.001  1.00  0.00    -0.365 OA
BRANCH   7   8
HETATM    8  C   UNL     1       1.930 -10.312 -14.556  1.00  0.00     0.218 C 
HETATM    9  C   UNL     1       3.210  -9.913 -13.771  1.00  0.00     0.051 C 
BRANCH   8  10
HETATM   10  C   UNL     1       0.831  -9.272 -14.457  1.00  0.00     0.202 C 
HETATM   11  O   UNL     1      -0.269  -9.575 -13.924  1.00  0.00    -0.646 OA
HETATM   12  O   UNL     1       1.017  -8.126 -14.905  1.00  0.00    -0.646 OA
ENDBRANCH   8  10
ENDBRANCH   7   8
ENDBRANCH   2   7
BRANCH   1  13
HETATM   13  O   UNL     1       0.968 -10.668 -11.296  1.00  0.00    -0.390 OA
ATOM     14  HO  UNL     1       0.090 -10.481 -11.610  1.00  0.00     0.210 HD
ENDBRANCH   1  13
BRANCH   3  15
HETATM   15  N   UNL     1       3.676 -13.289 -14.305  1.00  0.00    -0.349 N 
HETATM   16  C   UNL     1       3.341 -13.877 -15.590  1.00  0.00     0.214 C 
HETATM   17  C   UNL     1       4.393 -13.764 -16.720  1.00  0.00     0.117 C 
HETATM   18  O   UNL     1       2.304 -14.414 -15.757  1.00  0.00    -0.274 OA
ATOM     19  HN  UNL     1       4.576 -12.825 -14.178  1.00  0.00     0.163 HD
ENDBRANCH   3  15
BRANCH   5  20
HETATM   20  C   UNL     1       1.169 -12.812  -9.308  1.00  0.00     0.217 C 
BRANCH  20  21
HETATM   21  O   UNL     1       1.674 -13.871  -8.523  1.00  0.00    -0.280 OA
BRANCH  21  22
HETATM   22  P   UNL     1       2.664 -13.464  -7.257  1.00  0.00     0.422 P 
HETATM   23  O   UNL     1       2.254 -14.321  -6.068  1.00  0.00    -0.617 OA
HETATM   24  O   UNL     1       2.449 -12.007  -6.976  1.00  0.00    -0.617 OA
HETATM   25  O   UNL     1       4.061 -13.776  -7.751  1.00  0.00    -0.617 OA
ENDBRANCH  21  22
ENDBRANCH  20  21
ENDBRANCH   5  20
BRANCH   4  26
HETATM   26  O   UNL     1       3.802 -15.267 -12.238  1.00  0.00    -0.369 OA
ATOM     27  HO  UNL     1       4.320 -15.530 -11.487  1.00  0.00     0.212 HD
ENDBRANCH   4  26
TORSDOF 9
ENDMDL
MODEL 18
REMARK VINA RESULT:    -5.320      4.396      7.663
REMARK INTER + INTRA:          -8.954
REMARK INTER:                  -7.622
REMARK INTRA:                  -1.332
REMARK UNBOUND:                -1.146
REMARK  9 active torsions:
REMARK  status: ('A' for Active; 'I' for Inactive)
REMARK    1  A    between atoms: C_1  and  O_14 
REMARK    2  A    between atoms: C_2  and  O_16 
REMARK    3  A    between atoms: C_3  and  O_16 
REMARK    4  A    between atoms: C_3  and  C_5 
REMARK    5  A    between atoms: C_6  and  N_12 
REMARK       I    between atoms: C_7  and  N_12 
REMARK    6  A    between atoms: C_9  and  O_20 
REMARK    7  A    between atoms: C_10  and  C_11 
REMARK    8  A    between atoms: C_11  and  O_23 
REMARK    9  A    between atoms: O_23  and  P_27 
ROOT
HETATM    1  C   UNL     1       5.865 -12.615 -16.359  1.00  0.00     0.180 C 
HETATM    2  C   UNL     1       4.394 -12.663 -16.142  1.00  0.00     0.181 C 
HETATM    3  C   UNL     1       3.945 -11.622 -15.174  1.00  0.00     0.171 C 
HETATM    4  C   UNL     1       4.664 -11.748 -13.852  1.00  0.00     0.282 C 
HETATM    5  C   UNL     1       6.559 -12.708 -15.012  1.00  0.00     0.180 C 
HETATM    6  O   UNL     1       6.103 -11.629 -14.134  1.00  0.00    -0.349 OA
ENDROOT
BRANCH   2   7
HETATM    7  O   UNL     1       3.729 -12.435 -17.428  1.00  0.00    -0.365 OA
BRANCH   7   8
HETATM    8  C   UNL     1       2.939 -13.527 -17.857  1.00  0.00     0.218 C 
HETATM    9  C   UNL     1       3.053 -14.661 -16.800  1.00  0.00     0.051 C 
BRANCH   8  10
HETATM   10  C   UNL     1       3.455 -13.941 -19.221  1.00  0.00     0.202 C 
HETATM   11  O   UNL     1       2.796 -13.650 -20.253  1.00  0.00    -0.646 OA
HETATM   12  O   UNL     1       4.526 -14.569 -19.316  1.00  0.00    -0.646 OA
ENDBRANCH   8  10
ENDBRANCH   7   8
ENDBRANCH   2   7
BRANCH   1  13
HETATM   13  O   UNL     1       6.271 -13.736 -17.164  1.00  0.00    -0.390 OA
ATOM     14  HO  UNL     1       7.009 -13.474 -17.703  1.00  0.00     0.210 HD
ENDBRANCH   1  13
BRANCH   3  15
HETATM   15  N   UNL     1       2.496 -11.768 -14.901  1.00  0.00    -0.349 N 
HETATM   16  C   UNL     1       1.647 -10.593 -14.806  1.00  0.00     0.214 C 
HETATM   17  C   UNL     1       0.144 -10.823 -14.518  1.00  0.00     0.117 C 
HETATM   18  O   UNL     1       2.094  -9.511 -14.948  1.00  0.00    -0.274 OA
ATOM     19  HN  UNL     1       2.092 -12.697 -14.778  1.00  0.00     0.163 HD
ENDBRANCH   3  15
BRANCH   5  20
HETATM   20  C   UNL     1       8.047 -12.541 -15.163  1.00  0.00     0.217 C 
BRANCH  20  21
HETATM   21  O   UNL     1       8.294 -11.962 -16.427  1.00  0.00    -0.280 OA
BRANCH  21  22
HETATM   22  P   UNL     1       9.298 -10.645 -16.469  1.00  0.00     0.422 P 
HETATM   23  O   UNL     1       8.955  -9.854 -17.723  1.00  0.00    -0.617 OA
HETATM   24  O   UNL     1      10.705 -11.160 -16.519  1.00  0.00    -0.617 OA
HETATM   25  O   UNL     1       8.986  -9.888 -15.195  1.00  0.00    -0.617 OA
ENDBRANCH  21  22
ENDBRANCH  20  21
ENDBRANCH   5  20
BRANCH   4  26
HETATM   26  O   UNL     1       4.366 -10.705 -13.011  1.00  0.00    -0.369 OA
ATOM     27  HO  UNL     1       4.964 -10.791 -12.278  1.00  0.00     0.212 HD
ENDBRANCH   4  26
TORSDOF 9
ENDMDL
MODEL 19
REMARK VINA RESULT:    -5.243      2.105      3.453
REMARK INTER + INTRA:          -8.841
REMARK INTER:                  -7.466
REMARK INTRA:                  -1.375
REMARK UNBOUND:                -1.146
REMARK  9 active torsions:
REMARK  status: ('A' for Active; 'I' for Inactive)
REMARK    1  A    between atoms: C_1  and  O_14 
REMARK    2  A    between atoms: C_2  and  O_16 
REMARK    3  A    between atoms: C_3  and  O_16 
REMARK    4  A    between atoms: C_3  and  C_5 
REMARK    5  A    between atoms: C_6  and  N_12 
REMARK       I    between atoms: C_7  and  N_12 
REMARK    6  A    between atoms: C_9  and  O_20 
REMARK    7  A    between atoms: C_10  and  C_11 
REMARK    8  A    between atoms: C_11  and  O_23 
REMARK    9  A    between atoms: O_23  and  P_27 
ROOT
HETATM    1  C   UNL     1       1.856 -12.052 -14.065  1.00  0.00     0.180 C 
HETATM    2  C   UNL     1       3.281 -11.920 -14.472  1.00  0.00     0.181 C 
HETATM    3  C   UNL     1       4.192 -11.900 -13.292  1.00  0.00     0.171 C 
HETATM    4  C   UNL     1       3.828 -10.795 -12.330  1.00  0.00     0.282 C 
HETATM    5  C   UNL     1       1.529 -10.951 -13.072  1.00  0.00     0.180 C 
HETATM    6  O   UNL     1       2.432 -11.025 -11.923  1.00  0.00    -0.349 OA
ENDROOT
BRANCH   2   7
HETATM    7  O   UNL     1       3.628 -13.063 -15.321  1.00  0.00    -0.365 OA
BRANCH   7   8
HETATM    8  C   UNL     1       3.795 -12.723 -16.684  1.00  0.00     0.218 C 
HETATM    9  C   UNL     1       2.789 -13.557 -17.525  1.00  0.00     0.051 C 
BRANCH   8  10
HETATM   10  C   UNL     1       5.241 -13.013 -17.040  1.00  0.00     0.202 C 
HETATM   11  O   UNL     1       6.148 -12.232 -16.650  1.00  0.00    -0.646 OA
HETATM   12  O   UNL     1       5.525 -14.018 -17.717  1.00  0.00    -0.646 OA
ENDBRANCH   8  10
ENDBRANCH   7   8
ENDBRANCH   2   7
BRANCH   1  13
HETATM   13  O   UNL     1       1.009 -11.898 -15.218  1.00  0.00    -0.390 OA
ATOM     14  HO  UNL     1       1.370 -12.413 -15.931  1.00  0.00     0.210 HD
ENDBRANCH   1  13
BRANCH   3  15
HETATM   15  N   UNL     1       5.589 -11.660 -13.727  1.00  0.00    -0.349 N 
HETATM   16  C   UNL     1       6.683 -12.388 -13.109  1.00  0.00     0.214 C 
HETATM   17  C   UNL     1       8.114 -12.085 -13.614  1.00  0.00     0.117 C 
HETATM   18  O   UNL     1       6.478 -13.180 -12.259  1.00  0.00    -0.274 OA
ATOM     19  HN  UNL     1       5.782 -10.981 -14.463  1.00  0.00     0.163 HD
ENDBRANCH   3  15
BRANCH   5  20
HETATM   20  C   UNL     1       0.133 -11.111 -12.535  1.00  0.00     0.217 C 
BRANCH  20  21
HETATM   21  O   UNL     1      -0.347 -12.376 -12.941  1.00  0.00    -0.280 OA
BRANCH  21  22
HETATM   22  P   UNL     1      -0.946 -13.370 -11.758  1.00  0.00     0.422 P 
HETATM   23  O   UNL     1      -1.994 -12.579 -10.989  1.00  0.00    -0.617 OA
HETATM   24  O   UNL     1       0.204 -13.751 -10.874  1.00  0.00    -0.617 OA
HETATM   25  O   UNL     1      -1.534 -14.545 -12.510  1.00  0.00    -0.617 OA
ENDBRANCH  21  22
ENDBRANCH  20  21
ENDBRANCH   5  20
BRANCH   4  26
HETATM   26  O   UNL     1       4.564 -10.866 -11.174  1.00  0.00    -0.369 OA
ATOM     27  HO  UNL     1       4.240 -11.629 -10.711  1.00  0.00     0.212 HD
ENDBRANCH   4  26
TORSDOF 9
ENDMDL
MODEL 20
REMARK VINA RESULT:    -5.187      3.314      6.260
REMARK INTER + INTRA:          -8.758
REMARK INTER:                  -7.775
REMARK INTRA:                  -0.983
REMARK UNBOUND:                -1.146
REMARK  9 active torsions:
REMARK  status: ('A' for Active; 'I' for Inactive)
REMARK    1  A    between atoms: C_1  and  O_14 
REMARK    2  A    between atoms: C_2  and  O_16 
REMARK    3  A    between atoms: C_3  and  O_16 
REMARK    4  A    between atoms: C_3  and  C_5 
REMARK    5  A    between atoms: C_6  and  N_12 
REMARK       I    between atoms: C_7  and  N_12 
REMARK    6  A    between atoms: C_9  and  O_20 
REMARK    7  A    between atoms: C_10  and  C_11 
REMARK    8  A    between atoms: C_11  and  O_23 
REMARK    9  A    between atoms: O_23  and  P_27 
ROOT
HETATM    1  C   UNL     1       4.502 -11.170 -13.621  1.00  0.00     0.180 C 
HETATM    2  C   UNL     1       3.627 -12.357 -13.420  1.00  0.00     0.181 C 
HETATM    3  C   UNL     1       2.251 -11.962 -13.002  1.00  0.00     0.171 C 
HETATM    4  C   UNL     1       2.272 -11.121 -11.749  1.00  0.00     0.282 C 
HETATM    5  C   UNL     1       4.475 -10.326 -12.359  1.00  0.00     0.180 C 
HETATM    6  O   UNL     1       3.101  -9.939 -12.040  1.00  0.00    -0.349 OA
ENDROOT
BRANCH   2   7
HETATM    7  O   UNL     1       3.547 -13.093 -14.684  1.00  0.00    -0.365 OA
BRANCH   7   8
HETATM    8  C   UNL     1       3.263 -12.271 -15.799  1.00  0.00     0.218 C 
HETATM    9  C   UNL     1       1.794 -12.529 -16.237  1.00  0.00     0.051 C 
BRANCH   8  10
HETATM   10  C   UNL     1       4.269 -12.623 -16.878  1.00  0.00     0.202 C 
HETATM   11  O   UNL     1       3.892 -13.250 -17.903  1.00  0.00    -0.646 OA
HETATM   12  O   UNL     1       5.462 -12.295 -16.747  1.00  0.00    -0.646 OA
ENDBRANCH   8  10
ENDBRANCH   7   8
ENDBRANCH   2   7
BRANCH   1  13
HETATM   13  O   UNL     1       5.854 -11.603 -13.857  1.00  0.00    -0.390 OA
ATOM     14  HO  UNL     1       6.404 -10.836 -13.971  1.00  0.00     0.210 HD
ENDBRANCH   1  13
BRANCH   3  15
HETATM   15  N   UNL     1       1.440 -13.167 -12.708  1.00  0.00    -0.349 N 
HETATM   16  C   UNL     1       0.010 -13.167 -12.960  1.00  0.00     0.214 C 
HETATM   17  C   UNL     1      -0.772 -14.461 -12.627  1.00  0.00     0.117 C 
HETATM   18  O   UNL     1      -0.525 -12.214 -13.405  1.00  0.00    -0.274 OA
ATOM     19  HN  UNL     1       1.888 -14.000 -12.326  1.00  0.00     0.163 HD
ENDBRANCH   3  15
BRANCH   5  20
HETATM   20  C   UNL     1       5.248  -9.050 -12.552  1.00  0.00     0.217 C 
BRANCH  20  21
HETATM   21  O   UNL     1       4.416  -8.136 -13.236  1.00  0.00    -0.280 OA
BRANCH  21  22
HETATM   22  P   UNL     1       4.807  -6.530 -13.120  1.00  0.00     0.422 P 
HETATM   23  O   UNL     1       4.835  -6.176 -11.641  1.00  0.00    -0.617 OA
HETATM   24  O   UNL     1       3.742  -5.761 -13.843  1.00  0.00    -0.617 OA
HETATM   25  O   UNL     1       6.168  -6.421 -13.775  1.00  0.00    -0.617 OA
ENDBRANCH  21  22
ENDBRANCH  20  21
ENDBRANCH   5  20
BRANCH   4  26
HETATM   26  O   UNL     1       1.027 -10.631 -11.445  1.00  0.00    -0.369 OA
ATOM     27  HO  UNL     1       1.149 -10.081 -10.680  1.00  0.00     0.212 HD
ENDBRANCH   4  26
TORSDOF 9
ENDMDL
