REMARK  2 active torsions:
REMARK  status: ('A' for Active; 'I' for Inactive)
REMARK    1  A    between atoms: P_2  and  C_5 
REMARK    2  A    between atoms: C_5  and  P_6 
ROOT
HETATM    1  C   UNL     1      -3.640   5.510  -6.197  1.00  0.00     0.291 C 
ENDROOT
BRANCH   1   2
HETATM    2  P   UNL     1      -5.160   4.805  -5.504  1.00  0.00     0.272 P 
HETATM    3  O   UNL     1      -4.983   3.309  -5.381  1.00  0.00    -0.639 OA
HETATM    4  O   UNL     1      -6.211   5.175  -6.560  1.00  0.00    -0.639 OA
HETATM    5  O   UNL     1      -5.453   5.464  -4.178  1.00  0.00    -0.639 OA
ENDBRANCH   1   2
BRANCH   1   6
HETATM    6  P   UNL     1      -2.135   5.578  -5.174  1.00  0.00     0.272 P 
HETATM    7  O   UNL     1      -1.183   4.554  -5.696  1.00  0.00    -0.639 OA
HETATM    8  O   UNL     1      -1.626   6.974  -5.402  1.00  0.00    -0.639 OA
HETATM    9  O   UNL     1      -2.481   5.349  -3.744  1.00  0.00    -0.639 OA
ENDBRANCH   1   6
TORSDOF 2
