MODEL 1
REMARK VINA RESULT:    -7.285      0.000      0.000
REMARK INTER + INTRA:          -7.724
REMARK INTER:                  -8.137
REMARK INTRA:                   0.412
REMARK UNBOUND:                 0.412
REMARK  2 active torsions:
REMARK  status: ('A' for Active; 'I' for Inactive)
REMARK    1  A    between atoms: C_8  and  C_10 
REMARK    2  A    between atoms: C_8  and  C_9 
ROOT
HETATM    1  C   UNL     1     -30.180 -12.810  17.091  1.00  0.00     0.106 A 
HETATM    2  C   UNL     1     -28.993 -13.468  16.787  1.00  0.00     0.106 A 
HETATM    3  C   UNL     1     -29.448 -12.121  15.193  1.00  0.00     0.085 A 
HETATM    4  N   UNL     1     -30.426 -11.996  16.077  1.00  0.00    -0.354 N 
ATOM      5  HN  UNL     1     -31.232 -11.377  15.991  1.00  0.00     0.166 HD
HETATM    6  N   UNL     1     -28.577 -13.026  15.610  1.00  0.00    -0.354 N 
ATOM      7  HN  UNL     1     -27.738 -13.328  15.114  1.00  0.00     0.166 HD
ENDROOT
BRANCH   3   8
HETATM    8  C   UNL     1     -29.309 -11.388  13.860  1.00  0.00     0.115 C 
BRANCH   8   9
HETATM    9  C   UNL     1     -30.606 -11.281  13.063  1.00  0.00    -0.051 A 
HETATM   10  C   UNL     1     -31.836 -11.209  13.696  1.00  0.00     0.007 A 
HETATM   11  C   UNL     1     -32.996 -11.145  12.934  1.00  0.00     0.001 A 
HETATM   12  C   UNL     1     -32.914 -11.167  11.552  1.00  0.00     0.000 A 
HETATM   13  C   UNL     1     -31.689 -11.245  10.918  1.00  0.00     0.001 A 
HETATM   14  C   UNL     1     -30.536 -11.306  11.674  1.00  0.00     0.007 A 
ENDBRANCH   8   9
ENDBRANCH   3   8
TORSDOF 2
ENDMDL
MODEL 2
REMARK VINA RESULT:    -7.054      2.080      3.392
REMARK INTER + INTRA:          -7.467
REMARK INTER:                  -7.295
REMARK INTRA:                  -0.172
REMARK UNBOUND:                 0.412
REMARK  2 active torsions:
REMARK  status: ('A' for Active; 'I' for Inactive)
REMARK    1  A    between atoms: C_8  and  C_10 
REMARK    2  A    between atoms: C_8  and  C_9 
ROOT
HETATM    1  C   UNL     1     -28.100 -11.073  19.500  1.00  0.00     0.106 A 
HETATM    2  C   UNL     1     -29.399 -11.428  19.846  1.00  0.00     0.106 A 
HETATM    3  C   UNL     1     -28.882 -12.432  18.033  1.00  0.00     0.085 A 
HETATM    4  N   UNL     1     -27.826 -11.709  18.373  1.00  0.00    -0.354 N 
ATOM      5  HN  UNL     1     -26.950 -11.651  17.853  1.00  0.00     0.166 HD
HETATM    6  N   UNL     1     -29.851 -12.257  18.917  1.00  0.00    -0.354 N 
ATOM      7  HN  UNL     1     -30.777 -12.683  18.887  1.00  0.00     0.166 HD
ENDROOT
BRANCH   3   8
HETATM    8  C   UNL     1     -29.033 -13.324  16.801  1.00  0.00     0.115 C 
BRANCH   8   9
HETATM    9  C   UNL     1     -29.287 -12.565  15.503  1.00  0.00    -0.051 A 
HETATM   10  C   UNL     1     -30.534 -12.035  15.211  1.00  0.00     0.007 A 
HETATM   11  C   UNL     1     -30.732 -11.378  14.003  1.00  0.00     0.001 A 
HETATM   12  C   UNL     1     -29.690 -11.270  13.098  1.00  0.00     0.000 A 
HETATM   13  C   UNL     1     -28.448 -11.803  13.384  1.00  0.00     0.001 A 
HETATM   14  C   UNL     1     -28.248 -12.453  14.585  1.00  0.00     0.007 A 
ENDBRANCH   8   9
ENDBRANCH   3   8
TORSDOF 2
ENDMDL
MODEL 3
REMARK VINA RESULT:    -6.974      2.266      3.766
REMARK INTER + INTRA:          -7.377
REMARK INTER:                  -7.244
REMARK INTRA:                  -0.133
REMARK UNBOUND:                 0.412
REMARK  2 active torsions:
REMARK  status: ('A' for Active; 'I' for Inactive)
REMARK    1  A    between atoms: C_8  and  C_10 
REMARK    2  A    between atoms: C_8  and  C_9 
ROOT
HETATM    1  C   UNL     1     -27.522 -11.287  19.256  1.00  0.00     0.106 A 
HETATM    2  C   UNL     1     -28.013 -12.269  20.111  1.00  0.00     0.106 A 
HETATM    3  C   UNL     1     -28.581 -12.765  18.112  1.00  0.00     0.085 A 
HETATM    4  N   UNL     1     -27.903 -11.631  18.036  1.00  0.00    -0.354 N 
ATOM      5  HN  UNL     1     -27.707 -11.109  17.182  1.00  0.00     0.166 HD
HETATM    6  N   UNL     1     -28.666 -13.155  19.374  1.00  0.00    -0.354 N 
ATOM      7  HN  UNL     1     -29.148 -13.986  19.717  1.00  0.00     0.166 HD
ENDROOT
BRANCH   3   8
HETATM    8  C   UNL     1     -29.224 -13.536  16.960  1.00  0.00     0.115 C 
BRANCH   8   9
HETATM    9  C   UNL     1     -29.243 -12.783  15.634  1.00  0.00    -0.051 A 
HETATM   10  C   UNL     1     -28.171 -12.842  14.757  1.00  0.00     0.007 A 
HETATM   11  C   UNL     1     -28.214 -12.117  13.574  1.00  0.00     0.001 A 
HETATM   12  C   UNL     1     -29.318 -11.332  13.285  1.00  0.00     0.000 A 
HETATM   13  C   UNL     1     -30.386 -11.267  14.160  1.00  0.00     0.001 A 
HETATM   14  C   UNL     1     -30.346 -11.991  15.335  1.00  0.00     0.007 A 
ENDBRANCH   8   9
ENDBRANCH   3   8
TORSDOF 2
ENDMDL
MODEL 4
REMARK VINA RESULT:    -6.967      1.340      2.289
REMARK INTER + INTRA:          -7.369
REMARK INTER:                  -7.476
REMARK INTRA:                   0.106
REMARK UNBOUND:                 0.412
REMARK  2 active torsions:
REMARK  status: ('A' for Active; 'I' for Inactive)
REMARK    1  A    between atoms: C_8  and  C_10 
REMARK    2  A    between atoms: C_8  and  C_9 
ROOT
HETATM    1  C   UNL     1     -29.617 -13.574  18.216  1.00  0.00     0.106 A 
HETATM    2  C   UNL     1     -28.804 -12.526  18.639  1.00  0.00     0.106 A 
HETATM    3  C   UNL     1     -28.684 -12.661  16.510  1.00  0.00     0.085 A 
HETATM    4  N   UNL     1     -29.505 -13.625  16.899  1.00  0.00    -0.354 N 
ATOM      5  HN  UNL     1     -29.973 -14.293  16.286  1.00  0.00     0.166 HD
HETATM    6  N   UNL     1     -28.240 -11.996  17.564  1.00  0.00    -0.354 N 
ATOM      7  HN  UNL     1     -27.583 -11.216  17.551  1.00  0.00     0.166 HD
ENDROOT
BRANCH   3   8
HETATM    8  C   UNL     1     -28.246 -12.341  15.082  1.00  0.00     0.115 C 
BRANCH   8   9
HETATM    9  C   UNL     1     -29.386 -11.940  14.150  1.00  0.00    -0.051 A 
HETATM   10  C   UNL     1     -29.167 -11.711  12.801  1.00  0.00     0.007 A 
HETATM   11  C   UNL     1     -30.226 -11.316  11.993  1.00  0.00     0.001 A 
HETATM   12  C   UNL     1     -31.485 -11.142  12.543  1.00  0.00     0.000 A 
HETATM   13  C   UNL     1     -31.704 -11.364  13.889  1.00  0.00     0.001 A 
HETATM   14  C   UNL     1     -30.654 -11.760  14.692  1.00  0.00     0.007 A 
ENDBRANCH   8   9
ENDBRANCH   3   8
TORSDOF 2
ENDMDL
MODEL 5
REMARK VINA RESULT:    -6.732      1.417      2.019
REMARK INTER + INTRA:          -7.106
REMARK INTER:                  -7.787
REMARK INTRA:                   0.681
REMARK UNBOUND:                 0.412
REMARK  2 active torsions:
REMARK  status: ('A' for Active; 'I' for Inactive)
REMARK    1  A    between atoms: C_8  and  C_10 
REMARK    2  A    between atoms: C_8  and  C_9 
ROOT
HETATM    1  C   UNL     1     -27.754 -12.607  13.412  1.00  0.00     0.106 A 
HETATM    2  C   UNL     1     -27.876 -12.926  14.761  1.00  0.00     0.106 A 
HETATM    3  C   UNL     1     -29.627 -11.864  14.154  1.00  0.00     0.085 A 
HETATM    4  N   UNL     1     -28.852 -11.947  13.084  1.00  0.00    -0.354 N 
ATOM      5  HN  UNL     1     -29.066 -11.566  12.162  1.00  0.00     0.166 HD
HETATM    6  N   UNL     1     -29.035 -12.445  15.185  1.00  0.00    -0.354 N 
ATOM      7  HN  UNL     1     -29.404 -12.511  16.133  1.00  0.00     0.166 HD
ENDROOT
BRANCH   3   8
HETATM    8  C   UNL     1     -30.991 -11.182  14.256  1.00  0.00     0.115 C 
BRANCH   8   9
HETATM    9  C   UNL     1     -31.782 -11.161  12.952  1.00  0.00    -0.051 A 
HETATM   10  C   UNL     1     -33.165 -11.068  12.950  1.00  0.00     0.007 A 
HETATM   11  C   UNL     1     -33.850 -11.083  11.742  1.00  0.00     0.001 A 
HETATM   12  C   UNL     1     -33.150 -11.205  10.554  1.00  0.00     0.000 A 
HETATM   13  C   UNL     1     -31.772 -11.304  10.553  1.00  0.00     0.001 A 
HETATM   14  C   UNL     1     -31.089 -11.285  11.753  1.00  0.00     0.007 A 
ENDBRANCH   8   9
ENDBRANCH   3   8
TORSDOF 2
ENDMDL
MODEL 6
REMARK VINA RESULT:    -6.540      2.254      4.999
REMARK INTER + INTRA:          -6.893
REMARK INTER:                  -7.310
REMARK INTRA:                   0.417
REMARK UNBOUND:                 0.412
REMARK  2 active torsions:
REMARK  status: ('A' for Active; 'I' for Inactive)
REMARK    1  A    between atoms: C_8  and  C_10 
REMARK    2  A    between atoms: C_8  and  C_9 
ROOT
HETATM    1  C   UNL     1     -32.555 -11.356  10.904  1.00  0.00     0.106 A 
HETATM    2  C   UNL     1     -33.684 -11.171  11.697  1.00  0.00     0.106 A 
HETATM    3  C   UNL     1     -31.954 -11.079  12.947  1.00  0.00     0.085 A 
HETATM    4  N   UNL     1     -31.514 -11.299  11.718  1.00  0.00    -0.354 N 
ATOM      5  HN  UNL     1     -30.537 -11.408  11.445  1.00  0.00     0.166 HD
HETATM    6  N   UNL     1     -33.275 -11.013  12.947  1.00  0.00    -0.354 N 
ATOM      7  HN  UNL     1     -33.871 -10.868  13.762  1.00  0.00     0.166 HD
ENDROOT
BRANCH   3   8
HETATM    8  C   UNL     1     -31.116 -10.948  14.219  1.00  0.00     0.115 C 
BRANCH   8   9
HETATM    9  C   UNL     1     -29.819 -11.750  14.201  1.00  0.00    -0.051 A 
HETATM   10  C   UNL     1     -29.028 -11.817  13.065  1.00  0.00     0.007 A 
HETATM   11  C   UNL     1     -27.870 -12.584  13.081  1.00  0.00     0.001 A 
HETATM   12  C   UNL     1     -27.523 -13.285  14.224  1.00  0.00     0.000 A 
HETATM   13  C   UNL     1     -28.313 -13.224  15.356  1.00  0.00     0.001 A 
HETATM   14  C   UNL     1     -29.462 -12.460  15.343  1.00  0.00     0.007 A 
ENDBRANCH   8   9
ENDBRANCH   3   8
TORSDOF 2
ENDMDL
MODEL 7
REMARK VINA RESULT:    -6.482      2.292      4.875
REMARK INTER + INTRA:          -6.828
REMARK INTER:                  -7.343
REMARK INTRA:                   0.516
REMARK UNBOUND:                 0.412
REMARK  2 active torsions:
REMARK  status: ('A' for Active; 'I' for Inactive)
REMARK    1  A    between atoms: C_8  and  C_10 
REMARK    2  A    between atoms: C_8  and  C_9 
ROOT
HETATM    1  C   UNL     1     -32.438 -11.369  10.682  1.00  0.00     0.106 A 
HETATM    2  C   UNL     1     -33.631 -11.211  11.379  1.00  0.00     0.106 A 
HETATM    3  C   UNL     1     -32.014 -11.114  12.772  1.00  0.00     0.085 A 
HETATM    4  N   UNL     1     -31.469 -11.311  11.581  1.00  0.00    -0.354 N 
ATOM      5  HN  UNL     1     -30.471 -11.402  11.390  1.00  0.00     0.166 HD
HETATM    6  N   UNL     1     -33.332 -11.066  12.662  1.00  0.00    -0.354 N 
ATOM      7  HN  UNL     1     -33.996 -10.941  13.426  1.00  0.00     0.166 HD
ENDROOT
BRANCH   3   8
HETATM    8  C   UNL     1     -31.288 -10.991  14.111  1.00  0.00     0.115 C 
BRANCH   8   9
HETATM    9  C   UNL     1     -29.983 -11.777  14.193  1.00  0.00    -0.051 A 
HETATM   10  C   UNL     1     -29.592 -12.403  15.365  1.00  0.00     0.007 A 
HETATM   11  C   UNL     1     -28.381 -13.082  15.408  1.00  0.00     0.001 A 
HETATM   12  C   UNL     1     -27.570 -13.116  14.286  1.00  0.00     0.000 A 
HETATM   13  C   UNL     1     -27.955 -12.487  13.117  1.00  0.00     0.001 A 
HETATM   14  C   UNL     1     -29.160 -11.815  13.073  1.00  0.00     0.007 A 
ENDBRANCH   8   9
ENDBRANCH   3   8
TORSDOF 2
ENDMDL
MODEL 8
REMARK VINA RESULT:    -6.409      7.548      9.121
REMARK INTER + INTRA:          -6.746
REMARK INTER:                  -6.593
REMARK INTRA:                  -0.153
REMARK UNBOUND:                 0.412
REMARK  2 active torsions:
REMARK  status: ('A' for Active; 'I' for Inactive)
REMARK    1  A    between atoms: C_8  and  C_10 
REMARK    2  A    between atoms: C_8  and  C_9 
ROOT
HETATM    1  C   UNL     1     -24.252  -8.815  22.180  1.00  0.00     0.106 A 
HETATM    2  C   UNL     1     -23.117  -9.453  21.691  1.00  0.00     0.106 A 
HETATM    3  C   UNL     1     -24.821 -10.209  20.649  1.00  0.00     0.085 A 
HETATM    4  N   UNL     1     -25.279  -9.317  21.514  1.00  0.00    -0.354 N 
ATOM      5  HN  UNL     1     -26.257  -9.061  21.645  1.00  0.00     0.166 HD
HETATM    6  N   UNL     1     -23.507 -10.309  20.759  1.00  0.00    -0.354 N 
ATOM      7  HN  UNL     1     -22.903 -10.933  20.223  1.00  0.00     0.166 HD
ENDROOT
BRANCH   3   8
HETATM    8  C   UNL     1     -25.640 -11.052  19.672  1.00  0.00     0.115 C 
BRANCH   8   9
HETATM    9  C   UNL     1     -26.328 -12.257  20.305  1.00  0.00    -0.051 A 
HETATM   10  C   UNL     1     -25.699 -13.015  21.279  1.00  0.00     0.007 A 
HETATM   11  C   UNL     1     -26.348 -14.124  21.808  1.00  0.00     0.001 A 
HETATM   12  C   UNL     1     -27.608 -14.469  21.350  1.00  0.00     0.000 A 
HETATM   13  C   UNL     1     -28.235 -13.718  20.374  1.00  0.00     0.001 A 
HETATM   14  C   UNL     1     -27.593 -12.614  19.850  1.00  0.00     0.007 A 
ENDBRANCH   8   9
ENDBRANCH   3   8
TORSDOF 2
ENDMDL
MODEL 9
REMARK VINA RESULT:    -6.390      2.033      3.294
REMARK INTER + INTRA:          -6.725
REMARK INTER:                  -6.599
REMARK INTRA:                  -0.125
REMARK UNBOUND:                 0.412
REMARK  2 active torsions:
REMARK  status: ('A' for Active; 'I' for Inactive)
REMARK    1  A    between atoms: C_8  and  C_10 
REMARK    2  A    between atoms: C_8  and  C_9 
ROOT
HETATM    1  C   UNL     1     -31.894 -14.721  18.405  1.00  0.00     0.106 A 
HETATM    2  C   UNL     1     -31.975 -13.459  18.986  1.00  0.00     0.106 A 
HETATM    3  C   UNL     1     -30.290 -13.495  17.674  1.00  0.00     0.085 A 
HETATM    4  N   UNL     1     -30.837 -14.699  17.611  1.00  0.00    -0.354 N 
ATOM      5  HN  UNL     1     -30.500 -15.478  17.045  1.00  0.00     0.166 HD
HETATM    6  N   UNL     1     -30.967 -12.737  18.520  1.00  0.00    -0.354 N 
ATOM      7  HN  UNL     1     -30.752 -11.771  18.768  1.00  0.00     0.166 HD
ENDROOT
BRANCH   3   8
HETATM    8  C   UNL     1     -29.044 -13.007  16.935  1.00  0.00     0.115 C 
BRANCH   8   9
HETATM    9  C   UNL     1     -29.316 -12.461  15.537  1.00  0.00    -0.051 A 
HETATM   10  C   UNL     1     -30.561 -11.964  15.188  1.00  0.00     0.007 A 
HETATM   11  C   UNL     1     -30.777 -11.505  13.895  1.00  0.00     0.001 A 
HETATM   12  C   UNL     1     -29.753 -11.559  12.964  1.00  0.00     0.000 A 
HETATM   13  C   UNL     1     -28.512 -12.060  13.308  1.00  0.00     0.001 A 
HETATM   14  C   UNL     1     -28.295 -12.513  14.594  1.00  0.00     0.007 A 
ENDBRANCH   8   9
ENDBRANCH   3   8
TORSDOF 2
ENDMDL
MODEL 10
REMARK VINA RESULT:    -6.344      6.971     10.442
REMARK INTER + INTRA:          -6.673
REMARK INTER:                  -6.510
REMARK INTRA:                  -0.163
REMARK UNBOUND:                 0.412
REMARK  2 active torsions:
REMARK  status: ('A' for Active; 'I' for Inactive)
REMARK    1  A    between atoms: C_8  and  C_10 
REMARK    2  A    between atoms: C_8  and  C_9 
ROOT
HETATM    1  C   UNL     1     -28.220 -10.642  20.667  1.00  0.00     0.106 A 
HETATM    2  C   UNL     1     -27.989 -11.527  19.620  1.00  0.00     0.106 A 
HETATM    3  C   UNL     1     -26.104 -10.855  20.368  1.00  0.00     0.085 A 
HETATM    4  N   UNL     1     -27.031 -10.248  21.092  1.00  0.00    -0.354 N 
ATOM      5  HN  UNL     1     -26.857  -9.587  21.850  1.00  0.00     0.166 HD
HETATM    6  N   UNL     1     -26.678 -11.626  19.458  1.00  0.00    -0.354 N 
ATOM      7  HN  UNL     1     -26.198 -12.193  18.759  1.00  0.00     0.166 HD
ENDROOT
BRANCH   3   8
HETATM    8  C   UNL     1     -24.589 -10.702  20.490  1.00  0.00     0.115 C 
BRANCH   8   9
HETATM    9  C   UNL     1     -23.977 -11.434  21.680  1.00  0.00    -0.051 A 
HETATM   10  C   UNL     1     -22.956 -10.868  22.427  1.00  0.00     0.007 A 
HETATM   11  C   UNL     1     -22.405 -11.580  23.484  1.00  0.00     0.001 A 
HETATM   12  C   UNL     1     -22.869 -12.852  23.774  1.00  0.00     0.000 A 
HETATM   13  C   UNL     1     -23.882 -13.421  23.028  1.00  0.00     0.001 A 
HETATM   14  C   UNL     1     -24.434 -12.713  21.980  1.00  0.00     0.007 A 
ENDBRANCH   8   9
ENDBRANCH   3   8
TORSDOF 2
ENDMDL
MODEL 11
REMARK VINA RESULT:    -6.323      6.984     10.445
REMARK INTER + INTRA:          -6.649
REMARK INTER:                  -6.494
REMARK INTRA:                  -0.155
REMARK UNBOUND:                 0.412
REMARK  2 active torsions:
REMARK  status: ('A' for Active; 'I' for Inactive)
REMARK    1  A    between atoms: C_8  and  C_10 
REMARK    2  A    between atoms: C_8  and  C_9 
ROOT
HETATM    1  C   UNL     1     -28.017 -11.705  19.744  1.00  0.00     0.106 A 
HETATM    2  C   UNL     1     -28.177 -10.720  20.714  1.00  0.00     0.106 A 
HETATM    3  C   UNL     1     -26.093 -10.925  20.294  1.00  0.00     0.085 A 
HETATM    4  N   UNL     1     -26.716 -11.802  19.523  1.00  0.00    -0.354 N 
ATOM      5  HN  UNL     1     -26.269 -12.445  18.869  1.00  0.00     0.166 HD
HETATM    6  N   UNL     1     -26.973 -10.271  21.034  1.00  0.00    -0.354 N 
ATOM      7  HN  UNL     1     -26.762  -9.551  21.726  1.00  0.00     0.166 HD
ENDROOT
BRANCH   3   8
HETATM    8  C   UNL     1     -24.587 -10.685  20.389  1.00  0.00     0.115 C 
BRANCH   8   9
HETATM    9  C   UNL     1     -23.906 -11.407  21.547  1.00  0.00    -0.051 A 
HETATM   10  C   UNL     1     -24.352 -12.643  21.986  1.00  0.00     0.007 A 
HETATM   11  C   UNL     1     -23.725 -13.254  23.064  1.00  0.00     0.001 A 
HETATM   12  C   UNL     1     -22.670 -12.619  23.698  1.00  0.00     0.000 A 
HETATM   13  C   UNL     1     -22.227 -11.383  23.266  1.00  0.00     0.001 A 
HETATM   14  C   UNL     1     -22.847 -10.777  22.192  1.00  0.00     0.007 A 
ENDBRANCH   8   9
ENDBRANCH   3   8
TORSDOF 2
ENDMDL
MODEL 12
REMARK VINA RESULT:    -6.308      7.955     11.000
REMARK INTER + INTRA:          -6.633
REMARK INTER:                  -6.457
REMARK INTRA:                  -0.176
REMARK UNBOUND:                 0.412
REMARK  2 active torsions:
REMARK  status: ('A' for Active; 'I' for Inactive)
REMARK    1  A    between atoms: C_8  and  C_10 
REMARK    2  A    between atoms: C_8  and  C_9 
ROOT
HETATM    1  C   UNL     1     -27.558 -11.462  20.840  1.00  0.00     0.106 A 
HETATM    2  C   UNL     1     -26.707 -11.525  19.741  1.00  0.00     0.106 A 
HETATM    3  C   UNL     1     -25.879 -10.162  21.163  1.00  0.00     0.085 A 
HETATM    4  N   UNL     1     -27.012 -10.605  21.686  1.00  0.00    -0.354 N 
ATOM      5  HN  UNL     1     -27.399 -10.330  22.589  1.00  0.00     0.166 HD
HETATM    6  N   UNL     1     -25.691 -10.706  19.972  1.00  0.00    -0.354 N 
ATOM      7  HN  UNL     1     -24.907 -10.528  19.345  1.00  0.00     0.166 HD
ENDROOT
BRANCH   3   8
HETATM    8  C   UNL     1     -24.912  -9.150  21.775  1.00  0.00     0.115 C 
BRANCH   8   9
HETATM    9  C   UNL     1     -23.568  -9.737  22.192  1.00  0.00    -0.051 A 
HETATM   10  C   UNL     1     -23.439 -10.498  23.343  1.00  0.00     0.007 A 
HETATM   11  C   UNL     1     -22.191 -10.988  23.704  1.00  0.00     0.001 A 
HETATM   12  C   UNL     1     -21.085 -10.702  22.920  1.00  0.00     0.000 A 
HETATM   13  C   UNL     1     -21.209  -9.939  21.775  1.00  0.00     0.001 A 
HETATM   14  C   UNL     1     -22.450  -9.455  21.413  1.00  0.00     0.007 A 
ENDBRANCH   8   9
ENDBRANCH   3   8
TORSDOF 2
ENDMDL
MODEL 13
REMARK VINA RESULT:    -6.294      7.313      9.829
REMARK INTER + INTRA:          -6.618
REMARK INTER:                  -6.446
REMARK INTRA:                  -0.172
REMARK UNBOUND:                 0.412
REMARK  2 active torsions:
REMARK  status: ('A' for Active; 'I' for Inactive)
REMARK    1  A    between atoms: C_8  and  C_10 
REMARK    2  A    between atoms: C_8  and  C_9 
ROOT
HETATM    1  C   UNL     1     -29.033 -11.026  21.539  1.00  0.00     0.106 A 
HETATM    2  C   UNL     1     -29.047 -10.069  20.529  1.00  0.00     0.106 A 
HETATM    3  C   UNL     1     -27.208 -11.151  20.413  1.00  0.00     0.085 A 
HETATM    4  N   UNL     1     -27.879 -11.663  21.434  1.00  0.00    -0.354 N 
ATOM      5  HN  UNL     1     -27.559 -12.421  22.037  1.00  0.00     0.166 HD
HETATM    6  N   UNL     1     -27.906 -10.169  19.865  1.00  0.00    -0.354 N 
ATOM      7  HN  UNL     1     -27.616  -9.594  19.073  1.00  0.00     0.166 HD
ENDROOT
BRANCH   3   8
HETATM    8  C   UNL     1     -25.822 -11.561  19.919  1.00  0.00     0.115 C 
BRANCH   8   9
HETATM    9  C   UNL     1     -24.683 -11.194  20.865  1.00  0.00    -0.051 A 
HETATM   10  C   UNL     1     -24.145  -9.917  20.881  1.00  0.00     0.007 A 
HETATM   11  C   UNL     1     -23.087  -9.631  21.735  1.00  0.00     0.001 A 
HETATM   12  C   UNL     1     -22.571 -10.625  22.550  1.00  0.00     0.000 A 
HETATM   13  C   UNL     1     -23.102 -11.901  22.531  1.00  0.00     0.001 A 
HETATM   14  C   UNL     1     -24.156 -12.185  21.686  1.00  0.00     0.007 A 
ENDBRANCH   8   9
ENDBRANCH   3   8
TORSDOF 2
ENDMDL
MODEL 14
REMARK VINA RESULT:    -6.129      6.308      8.899
REMARK INTER + INTRA:          -6.433
REMARK INTER:                  -6.249
REMARK INTRA:                  -0.184
REMARK UNBOUND:                 0.412
REMARK  2 active torsions:
REMARK  status: ('A' for Active; 'I' for Inactive)
REMARK    1  A    between atoms: C_8  and  C_10 
REMARK    2  A    between atoms: C_8  and  C_9 
ROOT
HETATM    1  C   UNL     1     -29.795  -9.817  20.679  1.00  0.00     0.106 A 
HETATM    2  C   UNL     1     -30.278 -10.765  19.783  1.00  0.00     0.106 A 
HETATM    3  C   UNL     1     -28.143 -10.849  19.773  1.00  0.00     0.085 A 
HETATM    4  N   UNL     1     -28.475  -9.900  20.635  1.00  0.00    -0.354 N 
ATOM      5  HN  UNL     1     -27.823  -9.328  21.172  1.00  0.00     0.166 HD
HETATM    6  N   UNL     1     -29.234 -11.373  19.238  1.00  0.00    -0.354 N 
ATOM      7  HN  UNL     1     -29.265 -12.111  18.534  1.00  0.00     0.166 HD
ENDROOT
BRANCH   3   8
HETATM    8  C   UNL     1     -26.733 -11.293  19.386  1.00  0.00     0.115 C 
BRANCH   8   9
HETATM    9  C   UNL     1     -25.984 -12.037  20.487  1.00  0.00    -0.051 A 
HETATM   10  C   UNL     1     -24.714 -11.650  20.883  1.00  0.00     0.007 A 
HETATM   11  C   UNL     1     -24.053 -12.374  21.867  1.00  0.00     0.001 A 
HETATM   12  C   UNL     1     -24.660 -13.482  22.433  1.00  0.00     0.000 A 
HETATM   13  C   UNL     1     -25.924 -13.874  22.035  1.00  0.00     0.001 A 
HETATM   14  C   UNL     1     -26.584 -13.154  21.060  1.00  0.00     0.007 A 
ENDBRANCH   8   9
ENDBRANCH   3   8
TORSDOF 2
ENDMDL
MODEL 15
REMARK VINA RESULT:    -6.126      1.736      5.524
REMARK INTER + INTRA:          -6.430
REMARK INTER:                  -6.330
REMARK INTRA:                  -0.100
REMARK UNBOUND:                 0.412
REMARK  2 active torsions:
REMARK  status: ('A' for Active; 'I' for Inactive)
REMARK    1  A    between atoms: C_8  and  C_10 
REMARK    2  A    between atoms: C_8  and  C_9 
ROOT
HETATM    1  C   UNL     1     -31.056 -10.909  14.290  1.00  0.00     0.106 A 
HETATM    2  C   UNL     1     -30.186 -11.213  13.248  1.00  0.00     0.106 A 
HETATM    3  C   UNL     1     -29.522 -12.232  15.004  1.00  0.00     0.085 A 
HETATM    4  N   UNL     1     -30.604 -11.552  15.353  1.00  0.00    -0.354 N 
ATOM      5  HN  UNL     1     -31.018 -11.528  16.285  1.00  0.00     0.166 HD
HETATM    6  N   UNL     1     -29.251 -12.021  13.726  1.00  0.00    -0.354 N 
ATOM      7  HN  UNL     1     -28.465 -12.409  13.205  1.00  0.00     0.166 HD
ENDROOT
BRANCH   3   8
HETATM    8  C   UNL     1     -28.656 -13.114  15.902  1.00  0.00     0.115 C 
BRANCH   8   9
HETATM    9  C   UNL     1     -29.176 -13.262  17.328  1.00  0.00    -0.051 A 
HETATM   10  C   UNL     1     -28.593 -12.577  18.382  1.00  0.00     0.007 A 
HETATM   11  C   UNL     1     -29.077 -12.764  19.671  1.00  0.00     0.001 A 
HETATM   12  C   UNL     1     -30.125 -13.642  19.894  1.00  0.00     0.000 A 
HETATM   13  C   UNL     1     -30.704 -14.331  18.845  1.00  0.00     0.001 A 
HETATM   14  C   UNL     1     -30.226 -14.143  17.563  1.00  0.00     0.007 A 
ENDBRANCH   8   9
ENDBRANCH   3   8
TORSDOF 2
ENDMDL
MODEL 16
REMARK VINA RESULT:    -6.038      2.991      6.640
REMARK INTER + INTRA:          -6.332
REMARK INTER:                  -6.190
REMARK INTRA:                  -0.142
REMARK UNBOUND:                 0.412
REMARK  2 active torsions:
REMARK  status: ('A' for Active; 'I' for Inactive)
REMARK    1  A    between atoms: C_8  and  C_10 
REMARK    2  A    between atoms: C_8  and  C_9 
ROOT
HETATM    1  C   UNL     1     -27.795 -12.991  14.626  1.00  0.00     0.106 A 
HETATM    2  C   UNL     1     -28.589 -11.862  14.454  1.00  0.00     0.106 A 
HETATM    3  C   UNL     1     -29.236 -12.885  16.215  1.00  0.00     0.085 A 
HETATM    4  N   UNL     1     -28.235 -13.595  15.718  1.00  0.00    -0.354 N 
ATOM      5  HN  UNL     1     -27.865 -14.460  16.111  1.00  0.00     0.166 HD
HETATM    6  N   UNL     1     -29.469 -11.835  15.444  1.00  0.00    -0.354 N 
ATOM      7  HN  UNL     1     -30.195 -11.132  15.587  1.00  0.00     0.166 HD
ENDROOT
BRANCH   3   8
HETATM    8  C   UNL     1     -30.061 -13.198  17.463  1.00  0.00     0.115 C 
BRANCH   8   9
HETATM    9  C   UNL     1     -29.234 -13.397  18.729  1.00  0.00    -0.051 A 
HETATM   10  C   UNL     1     -28.183 -12.550  19.043  1.00  0.00     0.007 A 
HETATM   11  C   UNL     1     -27.434 -12.785  20.189  1.00  0.00     0.001 A 
HETATM   12  C   UNL     1     -27.734 -13.867  20.999  1.00  0.00     0.000 A 
HETATM   13  C   UNL     1     -28.777 -14.717  20.685  1.00  0.00     0.001 A 
HETATM   14  C   UNL     1     -29.524 -14.483  19.548  1.00  0.00     0.007 A 
ENDBRANCH   8   9
ENDBRANCH   3   8
TORSDOF 2
ENDMDL
MODEL 17
REMARK VINA RESULT:    -6.021      3.000      6.597
REMARK INTER + INTRA:          -6.313
REMARK INTER:                  -6.191
REMARK INTRA:                  -0.122
REMARK UNBOUND:                 0.412
REMARK  2 active torsions:
REMARK  status: ('A' for Active; 'I' for Inactive)
REMARK    1  A    between atoms: C_8  and  C_10 
REMARK    2  A    between atoms: C_8  and  C_9 
ROOT
HETATM    1  C   UNL     1     -27.789 -12.995  14.673  1.00  0.00     0.106 A 
HETATM    2  C   UNL     1     -28.603 -11.880  14.499  1.00  0.00     0.106 A 
HETATM    3  C   UNL     1     -29.249 -12.926  16.247  1.00  0.00     0.085 A 
HETATM    4  N   UNL     1     -28.228 -13.613  15.757  1.00  0.00    -0.354 N 
ATOM      5  HN  UNL     1     -27.846 -14.473  16.150  1.00  0.00     0.166 HD
HETATM    6  N   UNL     1     -29.494 -11.876  15.479  1.00  0.00    -0.354 N 
ATOM      7  HN  UNL     1     -30.235 -11.189  15.618  1.00  0.00     0.166 HD
ENDROOT
BRANCH   3   8
HETATM    8  C   UNL     1     -30.081 -13.262  17.484  1.00  0.00     0.115 C 
BRANCH   8   9
HETATM    9  C   UNL     1     -29.258 -13.528  18.741  1.00  0.00    -0.051 A 
HETATM   10  C   UNL     1     -29.554 -14.586  19.585  1.00  0.00     0.007 A 
HETATM   11  C   UNL     1     -28.801 -14.774  20.737  1.00  0.00     0.001 A 
HETATM   12  C   UNL     1     -27.772 -13.898  21.039  1.00  0.00     0.000 A 
HETATM   13  C   UNL     1     -27.479 -12.838  20.201  1.00  0.00     0.001 A 
HETATM   14  C   UNL     1     -28.225 -12.652  19.055  1.00  0.00     0.007 A 
ENDBRANCH   8   9
ENDBRANCH   3   8
TORSDOF 2
ENDMDL
MODEL 18
REMARK VINA RESULT:    -5.757      6.322      7.942
REMARK INTER + INTRA:          -6.018
REMARK INTER:                  -5.967
REMARK INTRA:                  -0.052
REMARK UNBOUND:                 0.412
REMARK  2 active torsions:
REMARK  status: ('A' for Active; 'I' for Inactive)
REMARK    1  A    between atoms: C_8  and  C_10 
REMARK    2  A    between atoms: C_8  and  C_9 
ROOT
HETATM    1  C   UNL     1     -24.849 -10.289  22.139  1.00  0.00     0.106 A 
HETATM    2  C   UNL     1     -23.979 -11.074  21.388  1.00  0.00     0.106 A 
HETATM    3  C   UNL     1     -25.875 -11.030  20.403  1.00  0.00     0.085 A 
HETATM    4  N   UNL     1     -26.007 -10.297  21.498  1.00  0.00    -0.354 N 
ATOM      5  HN  UNL     1     -26.857  -9.819  21.796  1.00  0.00     0.166 HD
HETATM    6  N   UNL     1     -24.647 -11.520  20.335  1.00  0.00    -0.354 N 
ATOM      7  HN  UNL     1     -24.282 -12.130  19.603  1.00  0.00     0.166 HD
ENDROOT
BRANCH   3   8
HETATM    8  C   UNL     1     -26.949 -11.333  19.359  1.00  0.00     0.115 C 
BRANCH   8   9
HETATM    9  C   UNL     1     -27.769 -12.587  19.647  1.00  0.00    -0.051 A 
HETATM   10  C   UNL     1     -28.823 -12.961  18.829  1.00  0.00     0.007 A 
HETATM   11  C   UNL     1     -29.565 -14.092  19.143  1.00  0.00     0.001 A 
HETATM   12  C   UNL     1     -29.256 -14.827  20.275  1.00  0.00     0.000 A 
HETATM   13  C   UNL     1     -28.209 -14.453  21.096  1.00  0.00     0.001 A 
HETATM   14  C   UNL     1     -27.468 -13.331  20.782  1.00  0.00     0.007 A 
ENDBRANCH   8   9
ENDBRANCH   3   8
TORSDOF 2
ENDMDL
MODEL 19
REMARK VINA RESULT:    -5.716      2.236      5.852
REMARK INTER + INTRA:          -5.972
REMARK INTER:                  -5.804
REMARK INTRA:                  -0.168
REMARK UNBOUND:                 0.412
REMARK  2 active torsions:
REMARK  status: ('A' for Active; 'I' for Inactive)
REMARK    1  A    between atoms: C_8  and  C_10 
REMARK    2  A    between atoms: C_8  and  C_9 
ROOT
HETATM    1  C   UNL     1     -30.603 -11.301  14.149  1.00  0.00     0.106 A 
HETATM    2  C   UNL     1     -29.214 -11.245  14.083  1.00  0.00     0.106 A 
HETATM    3  C   UNL     1     -29.765 -12.444  15.763  1.00  0.00     0.085 A 
HETATM    4  N   UNL     1     -30.897 -12.043  15.204  1.00  0.00    -0.354 N 
ATOM      5  HN  UNL     1     -31.836 -12.269  15.531  1.00  0.00     0.166 HD
HETATM    6  N   UNL     1     -28.735 -11.951  15.096  1.00  0.00    -0.354 N 
ATOM      7  HN  UNL     1     -27.749 -12.090  15.322  1.00  0.00     0.166 HD
ENDROOT
BRANCH   3   8
HETATM    8  C   UNL     1     -29.609 -13.312  17.011  1.00  0.00     0.115 C 
BRANCH   8   9
HETATM    9  C   UNL     1     -29.468 -12.525  18.310  1.00  0.00    -0.051 A 
HETATM   10  C   UNL     1     -30.501 -11.736  18.790  1.00  0.00     0.007 A 
HETATM   11  C   UNL     1     -30.321 -11.011  19.961  1.00  0.00     0.001 A 
HETATM   12  C   UNL     1     -29.110 -11.071  20.630  1.00  0.00     0.000 A 
HETATM   13  C   UNL     1     -28.076 -11.852  20.150  1.00  0.00     0.001 A 
HETATM   14  C   UNL     1     -28.255 -12.576  18.989  1.00  0.00     0.007 A 
ENDBRANCH   8   9
ENDBRANCH   3   8
TORSDOF 2
ENDMDL
MODEL 20
REMARK VINA RESULT:    -5.675      7.563      9.620
REMARK INTER + INTRA:          -5.927
REMARK INTER:                  -5.757
REMARK INTRA:                  -0.169
REMARK UNBOUND:                 0.412
REMARK  2 active torsions:
REMARK  status: ('A' for Active; 'I' for Inactive)
REMARK    1  A    between atoms: C_8  and  C_10 
REMARK    2  A    between atoms: C_8  and  C_9 
ROOT
HETATM    1  C   UNL     1     -29.906 -11.842  22.083  1.00  0.00     0.106 A 
HETATM    2  C   UNL     1     -29.645 -10.789  21.212  1.00  0.00     0.106 A 
HETATM    3  C   UNL     1     -28.161 -12.297  20.917  1.00  0.00     0.085 A 
HETATM    4  N   UNL     1     -28.962 -12.744  21.872  1.00  0.00    -0.354 N 
ATOM      5  HN  UNL     1     -28.868 -13.634  22.361  1.00  0.00     0.166 HD
HETATM    6  N   UNL     1     -28.560 -11.100  20.519  1.00  0.00    -0.354 N 
ATOM      7  HN  UNL     1     -28.113 -10.522  19.807  1.00  0.00     0.166 HD
ENDROOT
BRANCH   3   8
HETATM    8  C   UNL     1     -26.926 -12.993  20.347  1.00  0.00     0.115 C 
BRANCH   8   9
HETATM    9  C   UNL     1     -25.657 -12.797  21.171  1.00  0.00    -0.051 A 
HETATM   10  C   UNL     1     -25.323 -13.667  22.196  1.00  0.00     0.007 A 
HETATM   11  C   UNL     1     -24.176 -13.436  22.944  1.00  0.00     0.001 A 
HETATM   12  C   UNL     1     -23.384 -12.334  22.669  1.00  0.00     0.000 A 
HETATM   13  C   UNL     1     -23.718 -11.462  21.650  1.00  0.00     0.001 A 
HETATM   14  C   UNL     1     -24.856 -11.692  20.905  1.00  0.00     0.007 A 
ENDBRANCH   8   9
ENDBRANCH   3   8
TORSDOF 2
ENDMDL
