MODEL 1
REMARK VINA RESULT:   -12.196      0.000      0.000
REMARK INTER + INTRA:         -18.817
REMARK INTER:                 -17.899
REMARK INTRA:                  -0.917
REMARK UNBOUND:                -0.917
REMARK  10 active torsions:
REMARK  status: ('A' for Active; 'I' for Inactive)
REMARK    1  A    between atoms: C_3  and  O_27 
REMARK    2  A    between atoms: C_7  and  O_8 
REMARK    3  A    between atoms: C_11  and  O_17 
REMARK    4  A    between atoms: C_13  and  S_34 
REMARK    5  A    between atoms: C_14  and  S_34 
REMARK    6  A    between atoms: C_19  and  C_24 
REMARK    7  A    between atoms: C_23  and  S_26 
REMARK    8  A    between atoms: C_24  and  N_32 
REMARK    9  A    between atoms: S_26  and  N_32 
REMARK   10  A    between atoms: C_29  and  O_30 
ROOT
HETATM    1  C   UNL     1      82.751 -42.134  66.701  1.00  0.00     0.010 A 
HETATM    2  C   UNL     1      81.722 -43.036  66.914  1.00  0.00     0.024 A 
HETATM    3  C   UNL     1      81.690 -44.236  66.250  1.00  0.00     0.064 A 
HETATM    4  C   UNL     1      82.725 -44.519  65.359  1.00  0.00     0.024 A 
HETATM    5  C   UNL     1      83.759 -43.631  65.139  1.00  0.00     0.010 A 
HETATM    6  C   UNL     1      83.763 -42.420  65.831  1.00  0.00    -0.040 A 
ENDROOT
BRANCH   6   7
HETATM    7  C   UNL     1      84.837 -41.356  65.787  1.00  0.00     0.170 C 
BRANCH   7   8
HETATM    8  N   UNL     1      85.867 -41.452  64.761  1.00  0.00    -0.311 N 
ATOM      9  HN  UNL     1      85.764 -42.145  64.020  1.00  0.00     0.172 HD
BRANCH   8  10
HETATM   10  S   UNL     1      87.192 -40.474  64.760  1.00  0.00     0.259 S 
HETATM   11  O   UNL     1      87.737 -40.462  63.455  1.00  0.00    -0.201 OA
HETATM   12  O   UNL     1      86.717 -39.288  65.368  1.00  0.00    -0.201 OA
BRANCH  10  13
HETATM   13  C   UNL     1      88.248 -41.281  65.772  1.00  0.00     0.082 A 
HETATM   14  C   UNL     1      88.308 -41.012  67.181  1.00  0.00     0.028 A 
HETATM   15  C   UNL     1      89.211 -41.659  68.025  1.00  0.00     0.041 A 
HETATM   16  C   UNL     1      90.062 -42.627  67.464  1.00  0.00     0.098 A 
HETATM   17  C   UNL     1      89.973 -42.898  66.071  1.00  0.00     0.100 A 
HETATM   18  C   UNL     1      89.113 -42.233  65.249  1.00  0.00     0.064 A 
BRANCH  16  19
HETATM   19  O   UNL     1      90.904 -43.255  68.313  1.00  0.00    -0.358 OA
ATOM     20  HO  UNL     1      90.509 -43.679  69.065  1.00  0.00     0.217 HD
ENDBRANCH  16  19
BRANCH  17  21
HETATM   21  O   UNL     1      90.669 -43.945  65.583  1.00  0.00    -0.358 OA
ATOM     22  HO  UNL     1      90.187 -44.724  65.332  1.00  0.00     0.217 HD
ENDBRANCH  17  21
ENDBRANCH  10  13
ENDBRANCH   8  10
ENDBRANCH   7   8
ENDBRANCH   6   7
BRANCH   3  23
HETATM   23  S   UNL     1      80.474 -45.300  66.568  1.00  0.00     0.206 S 
HETATM   24  O   UNL     1      80.995 -46.602  66.530  1.00  0.00    -0.217 OA
HETATM   25  O   UNL     1      79.780 -44.880  67.746  1.00  0.00    -0.217 OA
BRANCH  23  26
HETATM   26  C   UNL     1      79.454 -45.051  65.242  1.00  0.00     0.067 A 
HETATM   27  C   UNL     1      79.461 -45.857  64.072  1.00  0.00     0.027 A 
HETATM   28  C   UNL     1      78.564 -45.668  63.003  1.00  0.00     0.041 A 
HETATM   29  C   UNL     1      77.598 -44.627  63.125  1.00  0.00     0.098 A 
HETATM   30  C   UNL     1      77.599 -43.811  64.299  1.00  0.00     0.100 A 
HETATM   31  C   UNL     1      78.516 -44.014  65.313  1.00  0.00     0.063 A 
BRANCH  29  32
HETATM   32  O   UNL     1      76.703 -44.488  62.122  1.00  0.00    -0.358 OA
ATOM     33  HO  UNL     1      75.812 -44.258  62.360  1.00  0.00     0.217 HD
ENDBRANCH  29  32
BRANCH  30  34
HETATM   34  O   UNL     1      76.614 -42.861  64.371  1.00  0.00    -0.358 OA
ATOM     35  HO  UNL     1      76.430 -42.518  65.237  1.00  0.00     0.217 HD
ENDBRANCH  30  34
ENDBRANCH  23  26
ENDBRANCH   3  23
TORSDOF 10
ENDMDL
MODEL 2
REMARK VINA RESULT:   -12.126      1.311     10.167
REMARK INTER + INTRA:         -18.714
REMARK INTER:                 -17.843
REMARK INTRA:                  -0.871
REMARK UNBOUND:                -0.917
REMARK  10 active torsions:
REMARK  status: ('A' for Active; 'I' for Inactive)
REMARK    1  A    between atoms: C_3  and  O_27 
REMARK    2  A    between atoms: C_7  and  O_8 
REMARK    3  A    between atoms: C_11  and  O_17 
REMARK    4  A    between atoms: C_13  and  S_34 
REMARK    5  A    between atoms: C_14  and  S_34 
REMARK    6  A    between atoms: C_19  and  C_24 
REMARK    7  A    between atoms: C_23  and  S_26 
REMARK    8  A    between atoms: C_24  and  N_32 
REMARK    9  A    between atoms: S_26  and  N_32 
REMARK   10  A    between atoms: C_29  and  O_30 
ROOT
HETATM    1  C   UNL     1      84.390 -43.585  64.779  1.00  0.00     0.010 A 
HETATM    2  C   UNL     1      85.463 -42.755  64.502  1.00  0.00     0.024 A 
HETATM    3  C   UNL     1      85.558 -41.513  65.079  1.00  0.00     0.064 A 
HETATM    4  C   UNL     1      84.544 -41.116  65.950  1.00  0.00     0.024 A 
HETATM    5  C   UNL     1      83.470 -41.935  66.238  1.00  0.00     0.010 A 
HETATM    6  C   UNL     1      83.404 -43.192  65.638  1.00  0.00    -0.040 A 
ENDROOT
BRANCH   6   7
HETATM    7  C   UNL     1      82.358 -44.257  65.880  1.00  0.00     0.170 C 
BRANCH   7   8
HETATM    8  N   UNL     1      81.038 -43.841  66.336  1.00  0.00    -0.311 N 
ATOM      9  HN  UNL     1      80.857 -42.849  66.489  1.00  0.00     0.172 HD
BRANCH   8  10
HETATM   10  S   UNL     1      79.829 -44.925  66.613  1.00  0.00     0.259 S 
HETATM   11  O   UNL     1      80.398 -46.218  66.692  1.00  0.00    -0.201 OA
HETATM   12  O   UNL     1      79.135 -44.360  67.709  1.00  0.00    -0.201 OA
BRANCH  10  13
HETATM   13  C   UNL     1      78.918 -44.827  65.216  1.00  0.00     0.082 A 
HETATM   14  C   UNL     1      78.034 -43.727  64.959  1.00  0.00     0.028 A 
HETATM   15  C   UNL     1      77.246 -43.656  63.810  1.00  0.00     0.041 A 
HETATM   16  C   UNL     1      77.358 -44.694  62.868  1.00  0.00     0.098 A 
HETATM   17  C   UNL     1      78.257 -45.765  63.128  1.00  0.00     0.100 A 
HETATM   18  C   UNL     1      78.994 -45.842  64.271  1.00  0.00     0.064 A 
BRANCH  16  19
HETATM   19  O   UNL     1      76.603 -44.581  61.754  1.00  0.00    -0.358 OA
ATOM     20  HO  UNL     1      75.739 -44.975  61.785  1.00  0.00     0.217 HD
ENDBRANCH  16  19
BRANCH  17  21
HETATM   21  O   UNL     1      78.481 -46.658  62.142  1.00  0.00    -0.358 OA
ATOM     22  HO  UNL     1      79.227 -46.516  61.572  1.00  0.00     0.217 HD
ENDBRANCH  17  21
ENDBRANCH  10  13
ENDBRANCH   8  10
ENDBRANCH   7   8
ENDBRANCH   6   7
BRANCH   3  23
HETATM   23  S   UNL     1      86.874 -40.576  64.759  1.00  0.00     0.206 S 
HETATM   24  O   UNL     1      87.244 -40.763  63.419  1.00  0.00    -0.217 OA
HETATM   25  O   UNL     1      86.622 -39.244  65.216  1.00  0.00    -0.217 OA
BRANCH  23  26
HETATM   26  C   UNL     1      88.035 -41.267  65.777  1.00  0.00     0.067 A 
HETATM   27  C   UNL     1      88.129 -41.002  67.169  1.00  0.00     0.027 A 
HETATM   28  C   UNL     1      89.067 -41.632  68.010  1.00  0.00     0.041 A 
HETATM   29  C   UNL     1      89.943 -42.592  67.423  1.00  0.00     0.098 A 
HETATM   30  C   UNL     1      89.853 -42.849  66.020  1.00  0.00     0.100 A 
HETATM   31  C   UNL     1      88.935 -42.188  65.226  1.00  0.00     0.063 A 
BRANCH  29  32
HETATM   32  O   UNL     1      90.802 -43.235  68.245  1.00  0.00    -0.358 OA
ATOM     33  HO  UNL     1      91.664 -43.439  67.903  1.00  0.00     0.217 HD
ENDBRANCH  29  32
BRANCH  30  34
HETATM   34  O   UNL     1      90.693 -43.816  65.532  1.00  0.00    -0.358 OA
ATOM     35  HO  UNL     1      91.150 -44.335  66.182  1.00  0.00     0.217 HD
ENDBRANCH  30  34
ENDBRANCH  23  26
ENDBRANCH   3  23
TORSDOF 10
ENDMDL
MODEL 3
REMARK VINA RESULT:   -12.121      3.650      5.318
REMARK INTER + INTRA:         -18.707
REMARK INTER:                 -17.724
REMARK INTRA:                  -0.983
REMARK UNBOUND:                -0.917
REMARK  10 active torsions:
REMARK  status: ('A' for Active; 'I' for Inactive)
REMARK    1  A    between atoms: C_3  and  O_27 
REMARK    2  A    between atoms: C_7  and  O_8 
REMARK    3  A    between atoms: C_11  and  O_17 
REMARK    4  A    between atoms: C_13  and  S_34 
REMARK    5  A    between atoms: C_14  and  S_34 
REMARK    6  A    between atoms: C_19  and  C_24 
REMARK    7  A    between atoms: C_23  and  S_26 
REMARK    8  A    between atoms: C_24  and  N_32 
REMARK    9  A    between atoms: S_26  and  N_32 
REMARK   10  A    between atoms: C_29  and  O_30 
ROOT
HETATM    1  C   UNL     1      82.948 -45.851  64.467  1.00  0.00     0.010 A 
HETATM    2  C   UNL     1      81.721 -46.218  64.996  1.00  0.00     0.024 A 
HETATM    3  C   UNL     1      81.050 -45.387  65.858  1.00  0.00     0.064 A 
HETATM    4  C   UNL     1      81.640 -44.166  66.183  1.00  0.00     0.024 A 
HETATM    5  C   UNL     1      82.860 -43.785  65.660  1.00  0.00     0.010 A 
HETATM    6  C   UNL     1      83.516 -44.650  64.785  1.00  0.00    -0.040 A 
ENDROOT
BRANCH   6   7
HETATM    7  C   UNL     1      84.813 -44.387  64.053  1.00  0.00     0.170 C 
BRANCH   7   8
HETATM    8  N   UNL     1      85.405 -45.470  63.280  1.00  0.00    -0.311 N 
ATOM      9  HN  UNL     1      84.945 -46.380  63.270  1.00  0.00     0.172 HD
BRANCH   8  10
HETATM   10  S   UNL     1      86.796 -45.270  62.421  1.00  0.00     0.259 S 
HETATM   11  O   UNL     1      87.689 -44.489  63.193  1.00  0.00    -0.201 OA
HETATM   12  O   UNL     1      87.125 -46.588  62.028  1.00  0.00    -0.201 OA
BRANCH  10  13
HETATM   13  C   UNL     1      86.293 -44.364  61.109  1.00  0.00     0.082 A 
HETATM   14  C   UNL     1      85.499 -44.927  60.056  1.00  0.00     0.028 A 
HETATM   15  C   UNL     1      85.104 -44.185  58.942  1.00  0.00     0.041 A 
HETATM   16  C   UNL     1      85.483 -42.833  58.883  1.00  0.00     0.098 A 
HETATM   17  C   UNL     1      86.251 -42.285  59.947  1.00  0.00     0.100 A 
HETATM   18  C   UNL     1      86.662 -43.029  61.012  1.00  0.00     0.064 A 
BRANCH  16  19
HETATM   19  O   UNL     1      85.061 -42.135  57.805  1.00  0.00    -0.358 OA
ATOM     20  HO  UNL     1      84.176 -42.309  57.508  1.00  0.00     0.217 HD
ENDBRANCH  16  19
BRANCH  17  21
HETATM   21  O   UNL     1      86.456 -40.952  59.960  1.00  0.00    -0.358 OA
ATOM     22  HO  UNL     1      86.084 -40.436  59.255  1.00  0.00     0.217 HD
ENDBRANCH  17  21
ENDBRANCH  10  13
ENDBRANCH   8  10
ENDBRANCH   7   8
ENDBRANCH   6   7
BRANCH   3  23
HETATM   23  S   UNL     1      79.574 -45.841  66.427  1.00  0.00     0.206 S 
HETATM   24  O   UNL     1      79.680 -47.127  66.978  1.00  0.00    -0.217 OA
HETATM   25  O   UNL     1      79.044 -44.793  67.245  1.00  0.00    -0.217 OA
BRANCH  23  26
HETATM   26  C   UNL     1      78.667 -45.901  65.001  1.00  0.00     0.067 A 
HETATM   27  C   UNL     1      78.293 -44.755  64.249  1.00  0.00     0.027 A 
HETATM   28  C   UNL     1      77.586 -44.830  63.033  1.00  0.00     0.041 A 
HETATM   29  C   UNL     1      77.255 -46.126  62.538  1.00  0.00     0.098 A 
HETATM   30  C   UNL     1      77.624 -47.277  63.302  1.00  0.00     0.100 A 
HETATM   31  C   UNL     1      78.293 -47.156  64.505  1.00  0.00     0.063 A 
BRANCH  29  32
HETATM   32  O   UNL     1      76.628 -46.195  61.343  1.00  0.00    -0.358 OA
ATOM     33  HO  UNL     1      76.526 -45.386  60.855  1.00  0.00     0.217 HD
ENDBRANCH  29  32
BRANCH  30  34
HETATM   34  O   UNL     1      77.315 -48.490  62.745  1.00  0.00    -0.358 OA
ATOM     35  HO  UNL     1      77.001 -49.155  63.347  1.00  0.00     0.217 HD
ENDBRANCH  30  34
ENDBRANCH  23  26
ENDBRANCH   3  23
TORSDOF 10
ENDMDL
MODEL 4
REMARK VINA RESULT:   -12.109      0.898      1.661
REMARK INTER + INTRA:         -18.689
REMARK INTER:                 -17.771
REMARK INTRA:                  -0.919
REMARK UNBOUND:                -0.917
REMARK  10 active torsions:
REMARK  status: ('A' for Active; 'I' for Inactive)
REMARK    1  A    between atoms: C_3  and  O_27 
REMARK    2  A    between atoms: C_7  and  O_8 
REMARK    3  A    between atoms: C_11  and  O_17 
REMARK    4  A    between atoms: C_13  and  S_34 
REMARK    5  A    between atoms: C_14  and  S_34 
REMARK    6  A    between atoms: C_19  and  C_24 
REMARK    7  A    between atoms: C_23  and  S_26 
REMARK    8  A    between atoms: C_24  and  N_32 
REMARK    9  A    between atoms: S_26  and  N_32 
REMARK   10  A    between atoms: C_29  and  O_30 
ROOT
HETATM    1  C   UNL     1      83.226 -44.475  65.107  1.00  0.00     0.010 A 
HETATM    2  C   UNL     1      82.080 -45.141  65.509  1.00  0.00     0.024 A 
HETATM    3  C   UNL     1      81.209 -44.566  66.400  1.00  0.00     0.064 A 
HETATM    4  C   UNL     1      81.512 -43.294  66.884  1.00  0.00     0.024 A 
HETATM    5  C   UNL     1      82.650 -42.617  66.489  1.00  0.00     0.010 A 
HETATM    6  C   UNL     1      83.514 -43.228  65.581  1.00  0.00    -0.040 A 
ENDROOT
BRANCH   6   7
HETATM    7  C   UNL     1      84.760 -42.626  64.973  1.00  0.00     0.170 C 
BRANCH   7   8
HETATM    8  N   UNL     1      85.312 -41.419  65.573  1.00  0.00    -0.311 N 
ATOM      9  HN  UNL     1      84.858 -41.025  66.397  1.00  0.00     0.172 HD
BRANCH   8  10
HETATM   10  S   UNL     1      86.646 -40.671  64.962  1.00  0.00     0.259 S 
HETATM   11  O   UNL     1      86.750 -40.995  63.589  1.00  0.00    -0.201 OA
HETATM   12  O   UNL     1      86.491 -39.332  65.392  1.00  0.00    -0.201 OA
BRANCH  10  13
HETATM   13  C   UNL     1      87.896 -41.418  65.782  1.00  0.00     0.082 A 
HETATM   14  C   UNL     1      88.196 -41.116  67.153  1.00  0.00     0.028 A 
HETATM   15  C   UNL     1      89.259 -41.712  67.832  1.00  0.00     0.041 A 
HETATM   16  C   UNL     1      90.033 -42.661  67.143  1.00  0.00     0.098 A 
HETATM   17  C   UNL     1      89.708 -42.965  65.792  1.00  0.00     0.100 A 
HETATM   18  C   UNL     1      88.691 -42.349  65.127  1.00  0.00     0.064 A 
BRANCH  16  19
HETATM   19  O   UNL     1      91.037 -43.240  67.838  1.00  0.00    -0.358 OA
ATOM     20  HO  UNL     1      91.752 -42.673  68.100  1.00  0.00     0.217 HD
ENDBRANCH  16  19
BRANCH  17  21
HETATM   21  O   UNL     1      90.347 -43.997  65.204  1.00  0.00    -0.358 OA
ATOM     22  HO  UNL     1      90.202 -44.142  64.277  1.00  0.00     0.217 HD
ENDBRANCH  17  21
ENDBRANCH  10  13
ENDBRANCH   8  10
ENDBRANCH   7   8
ENDBRANCH   6   7
BRANCH   3  23
HETATM   23  S   UNL     1      79.835 -45.372  66.815  1.00  0.00     0.206 S 
HETATM   24  O   UNL     1      80.152 -46.721  67.028  1.00  0.00    -0.217 OA
HETATM   25  O   UNL     1      79.171 -44.656  67.862  1.00  0.00    -0.217 OA
BRANCH  23  26
HETATM   26  C   UNL     1      78.912 -45.214  65.407  1.00  0.00     0.067 A 
HETATM   27  C   UNL     1      78.307 -43.999  64.985  1.00  0.00     0.027 A 
HETATM   28  C   UNL     1      77.591 -43.875  63.779  1.00  0.00     0.041 A 
HETATM   29  C   UNL     1      77.494 -45.027  62.945  1.00  0.00     0.098 A 
HETATM   30  C   UNL     1      78.095 -46.251  63.376  1.00  0.00     0.100 A 
HETATM   31  C   UNL     1      78.766 -46.335  64.580  1.00  0.00     0.063 A 
BRANCH  29  32
HETATM   32  O   UNL     1      76.855 -44.887  61.762  1.00  0.00    -0.358 OA
ATOM     33  HO  UNL     1      76.990 -44.076  61.285  1.00  0.00     0.217 HD
ENDBRANCH  29  32
BRANCH  30  34
HETATM   34  O   UNL     1      78.003 -47.304  62.504  1.00  0.00    -0.358 OA
ATOM     35  HO  UNL     1      78.360 -48.129  62.811  1.00  0.00     0.217 HD
ENDBRANCH  30  34
ENDBRANCH  23  26
ENDBRANCH   3  23
TORSDOF 10
ENDMDL
MODEL 5
REMARK VINA RESULT:   -12.000      1.414     10.131
REMARK INTER + INTRA:         -18.530
REMARK INTER:                 -17.660
REMARK INTRA:                  -0.870
REMARK UNBOUND:                -0.917
REMARK  10 active torsions:
REMARK  status: ('A' for Active; 'I' for Inactive)
REMARK    1  A    between atoms: C_3  and  O_27 
REMARK    2  A    between atoms: C_7  and  O_8 
REMARK    3  A    between atoms: C_11  and  O_17 
REMARK    4  A    between atoms: C_13  and  S_34 
REMARK    5  A    between atoms: C_14  and  S_34 
REMARK    6  A    between atoms: C_19  and  C_24 
REMARK    7  A    between atoms: C_23  and  S_26 
REMARK    8  A    between atoms: C_24  and  N_32 
REMARK    9  A    between atoms: S_26  and  N_32 
REMARK   10  A    between atoms: C_29  and  O_30 
ROOT
HETATM    1  C   UNL     1      84.326 -43.647  64.779  1.00  0.00     0.010 A 
HETATM    2  C   UNL     1      85.413 -42.834  64.504  1.00  0.00     0.024 A 
HETATM    3  C   UNL     1      85.532 -41.597  65.087  1.00  0.00     0.064 A 
HETATM    4  C   UNL     1      84.528 -41.188  65.963  1.00  0.00     0.024 A 
HETATM    5  C   UNL     1      83.440 -41.989  66.249  1.00  0.00     0.010 A 
HETATM    6  C   UNL     1      83.350 -43.241  65.642  1.00  0.00    -0.040 A 
ENDROOT
BRANCH   6   7
HETATM    7  C   UNL     1      82.285 -44.288  65.881  1.00  0.00     0.170 C 
BRANCH   7   8
HETATM    8  N   UNL     1      80.974 -43.852  66.342  1.00  0.00    -0.311 N 
ATOM      9  HN  UNL     1      80.810 -42.858  66.497  1.00  0.00     0.172 HD
BRANCH   8  10
HETATM   10  S   UNL     1      79.748 -44.916  66.621  1.00  0.00     0.259 S 
HETATM   11  O   UNL     1      80.300 -46.214  66.733  1.00  0.00    -0.201 OA
HETATM   12  O   UNL     1      79.043 -44.322  67.694  1.00  0.00    -0.201 OA
BRANCH  10  13
HETATM   13  C   UNL     1      78.860 -44.835  65.207  1.00  0.00     0.082 A 
HETATM   14  C   UNL     1      77.977 -43.740  64.925  1.00  0.00     0.028 A 
HETATM   15  C   UNL     1      77.208 -43.684  63.761  1.00  0.00     0.041 A 
HETATM   16  C   UNL     1      77.340 -44.730  62.832  1.00  0.00     0.098 A 
HETATM   17  C   UNL     1      78.238 -45.796  63.117  1.00  0.00     0.100 A 
HETATM   18  C   UNL     1      78.955 -45.859  64.274  1.00  0.00     0.064 A 
BRANCH  16  19
HETATM   19  O   UNL     1      76.604 -44.631  61.704  1.00  0.00    -0.358 OA
ATOM     20  HO  UNL     1      75.661 -44.603  61.815  1.00  0.00     0.217 HD
ENDBRANCH  16  19
BRANCH  17  21
HETATM   21  O   UNL     1      78.482 -46.697  62.144  1.00  0.00    -0.358 OA
ATOM     22  HO  UNL     1      79.009 -47.456  62.360  1.00  0.00     0.217 HD
ENDBRANCH  17  21
ENDBRANCH  10  13
ENDBRANCH   8  10
ENDBRANCH   7   8
ENDBRANCH   6   7
BRANCH   3  23
HETATM   23  S   UNL     1      86.863 -40.682  64.769  1.00  0.00     0.206 S 
HETATM   24  O   UNL     1      87.153 -40.771  63.400  1.00  0.00    -0.217 OA
HETATM   25  O   UNL     1      86.687 -39.384  65.344  1.00  0.00    -0.217 OA
BRANCH  23  26
HETATM   26  C   UNL     1      88.050 -41.493  65.661  1.00  0.00     0.067 A 
HETATM   27  C   UNL     1      88.932 -42.463  65.112  1.00  0.00     0.027 A 
HETATM   28  C   UNL     1      89.951 -43.085  65.858  1.00  0.00     0.041 A 
HETATM   29  C   UNL     1      90.104 -42.697  67.222  1.00  0.00     0.098 A 
HETATM   30  C   UNL     1      89.209 -41.729  67.774  1.00  0.00     0.100 A 
HETATM   31  C   UNL     1      88.204 -41.163  67.013  1.00  0.00     0.063 A 
BRANCH  29  32
HETATM   32  O   UNL     1      91.120 -43.254  67.917  1.00  0.00    -0.358 OA
ATOM     33  HO  UNL     1      91.102 -43.169  68.863  1.00  0.00     0.217 HD
ENDBRANCH  29  32
BRANCH  30  34
HETATM   34  O   UNL     1      89.443 -41.370  69.076  1.00  0.00    -0.358 OA
ATOM     35  HO  UNL     1      89.954 -40.580  69.204  1.00  0.00     0.217 HD
ENDBRANCH  30  34
ENDBRANCH  23  26
ENDBRANCH   3  23
TORSDOF 10
ENDMDL
MODEL 6
REMARK VINA RESULT:   -11.943      3.898      9.528
REMARK INTER + INTRA:         -18.446
REMARK INTER:                 -17.492
REMARK INTRA:                  -0.954
REMARK UNBOUND:                -0.917
REMARK  10 active torsions:
REMARK  status: ('A' for Active; 'I' for Inactive)
REMARK    1  A    between atoms: C_3  and  O_27 
REMARK    2  A    between atoms: C_7  and  O_8 
REMARK    3  A    between atoms: C_11  and  O_17 
REMARK    4  A    between atoms: C_13  and  S_34 
REMARK    5  A    between atoms: C_14  and  S_34 
REMARK    6  A    between atoms: C_19  and  C_24 
REMARK    7  A    between atoms: C_23  and  S_26 
REMARK    8  A    between atoms: C_24  and  N_32 
REMARK    9  A    between atoms: S_26  and  N_32 
REMARK   10  A    between atoms: C_29  and  O_30 
ROOT
HETATM    1  C   UNL     1      83.100 -46.029  64.294  1.00  0.00     0.010 A 
HETATM    2  C   UNL     1      84.192 -46.212  63.461  1.00  0.00     0.024 A 
HETATM    3  C   UNL     1      85.151 -45.238  63.335  1.00  0.00     0.064 A 
HETATM    4  C   UNL     1      84.993 -44.065  64.072  1.00  0.00     0.024 A 
HETATM    5  C   UNL     1      83.913 -43.871  64.910  1.00  0.00     0.010 A 
HETATM    6  C   UNL     1      82.956 -44.880  65.017  1.00  0.00    -0.040 A 
ENDROOT
BRANCH   6   7
HETATM    7  C   UNL     1      81.750 -44.891  65.929  1.00  0.00     0.170 C 
BRANCH   7   8
HETATM    8  N   UNL     1      80.989 -46.126  66.058  1.00  0.00    -0.311 N 
ATOM      9  HN  UNL     1      81.456 -47.015  65.883  1.00  0.00     0.172 HD
BRANCH   8  10
HETATM   10  S   UNL     1      79.396 -46.130  66.476  1.00  0.00     0.259 S 
HETATM   11  O   UNL     1      79.111 -47.347  67.138  1.00  0.00    -0.201 OA
HETATM   12  O   UNL     1      79.230 -44.883  67.125  1.00  0.00    -0.201 OA
BRANCH  10  13
HETATM   13  C   UNL     1      78.624 -46.136  64.994  1.00  0.00     0.082 A 
HETATM   14  C   UNL     1      78.392 -44.930  64.251  1.00  0.00     0.028 A 
HETATM   15  C   UNL     1      77.718 -44.925  63.029  1.00  0.00     0.041 A 
HETATM   16  C   UNL     1      77.287 -46.158  62.509  1.00  0.00     0.098 A 
HETATM   17  C   UNL     1      77.547 -47.346  63.247  1.00  0.00     0.100 A 
HETATM   18  C   UNL     1      78.172 -47.334  64.457  1.00  0.00     0.064 A 
BRANCH  16  19
HETATM   19  O   UNL     1      76.664 -46.122  61.311  1.00  0.00    -0.358 OA
ATOM     20  HO  UNL     1      76.389 -45.267  61.002  1.00  0.00     0.217 HD
ENDBRANCH  16  19
BRANCH  17  21
HETATM   21  O   UNL     1      77.283 -48.529  62.656  1.00  0.00    -0.358 OA
ATOM     22  HO  UNL     1      78.005 -48.998  62.253  1.00  0.00     0.217 HD
ENDBRANCH  17  21
ENDBRANCH  10  13
ENDBRANCH   8  10
ENDBRANCH   7   8
ENDBRANCH   6   7
BRANCH   3  23
HETATM   23  S   UNL     1      86.456 -45.514  62.370  1.00  0.00     0.206 S 
HETATM   24  O   UNL     1      87.597 -44.996  62.999  1.00  0.00    -0.217 OA
HETATM   25  O   UNL     1      86.463 -46.889  61.974  1.00  0.00    -0.217 OA
BRANCH  23  26
HETATM   26  C   UNL     1      86.075 -44.581  61.013  1.00  0.00     0.067 A 
HETATM   27  C   UNL     1      85.280 -45.043  59.929  1.00  0.00     0.027 A 
HETATM   28  C   UNL     1      84.926 -44.230  58.834  1.00  0.00     0.041 A 
HETATM   29  C   UNL     1      85.379 -42.878  58.839  1.00  0.00     0.098 A 
HETATM   30  C   UNL     1      86.186 -42.419  59.926  1.00  0.00     0.100 A 
HETATM   31  C   UNL     1      86.533 -43.258  60.967  1.00  0.00     0.063 A 
BRANCH  29  32
HETATM   32  O   UNL     1      84.988 -42.088  57.815  1.00  0.00    -0.358 OA
ATOM     33  HO  UNL     1      84.638 -41.232  58.032  1.00  0.00     0.217 HD
ENDBRANCH  29  32
BRANCH  30  34
HETATM   34  O   UNL     1      86.547 -41.098  59.888  1.00  0.00    -0.358 OA
ATOM     35  HO  UNL     1      86.319 -40.627  59.096  1.00  0.00     0.217 HD
ENDBRANCH  30  34
ENDBRANCH  23  26
ENDBRANCH   3  23
TORSDOF 10
ENDMDL
MODEL 7
REMARK VINA RESULT:   -11.929      3.610      9.559
REMARK INTER + INTRA:         -18.425
REMARK INTER:                 -17.433
REMARK INTRA:                  -0.992
REMARK UNBOUND:                -0.917
REMARK  10 active torsions:
REMARK  status: ('A' for Active; 'I' for Inactive)
REMARK    1  A    between atoms: C_3  and  O_27 
REMARK    2  A    between atoms: C_7  and  O_8 
REMARK    3  A    between atoms: C_11  and  O_17 
REMARK    4  A    between atoms: C_13  and  S_34 
REMARK    5  A    between atoms: C_14  and  S_34 
REMARK    6  A    between atoms: C_19  and  C_24 
REMARK    7  A    between atoms: C_23  and  S_26 
REMARK    8  A    between atoms: C_24  and  N_32 
REMARK    9  A    between atoms: S_26  and  N_32 
REMARK   10  A    between atoms: C_29  and  O_30 
ROOT
HETATM    1  C   UNL     1      85.756 -43.991  63.679  1.00  0.00     0.010 A 
HETATM    2  C   UNL     1      86.690 -42.968  63.695  1.00  0.00     0.024 A 
HETATM    3  C   UNL     1      86.481 -41.836  64.442  1.00  0.00     0.064 A 
HETATM    4  C   UNL     1      85.304 -41.750  65.184  1.00  0.00     0.024 A 
HETATM    5  C   UNL     1      84.365 -42.763  65.181  1.00  0.00     0.010 A 
HETATM    6  C   UNL     1      84.608 -43.901  64.413  1.00  0.00    -0.040 A 
ENDROOT
BRANCH   6   7
HETATM    7  C   UNL     1      83.747 -45.142  64.336  1.00  0.00     0.170 C 
BRANCH   7   8
HETATM    8  N   UNL     1      83.976 -46.079  63.245  1.00  0.00    -0.311 N 
ATOM      9  HN  UNL     1      84.690 -45.863  62.549  1.00  0.00     0.172 HD
BRANCH   8  10
HETATM   10  S   UNL     1      83.119 -47.478  63.100  1.00  0.00     0.259 S 
HETATM   11  O   UNL     1      81.748 -47.182  63.280  1.00  0.00    -0.201 OA
HETATM   12  O   UNL     1      83.600 -48.027  61.888  1.00  0.00    -0.201 OA
BRANCH  10  13
HETATM   13  C   UNL     1      83.648 -48.372  64.410  1.00  0.00     0.082 A 
HETATM   14  C   UNL     1      84.955 -48.962  64.451  1.00  0.00     0.028 A 
HETATM   15  C   UNL     1      85.389 -49.738  65.526  1.00  0.00     0.041 A 
HETATM   16  C   UNL     1      84.513 -49.910  66.611  1.00  0.00     0.098 A 
HETATM   17  C   UNL     1      83.230 -49.298  66.565  1.00  0.00     0.100 A 
HETATM   18  C   UNL     1      82.802 -48.575  65.492  1.00  0.00     0.064 A 
BRANCH  16  19
HETATM   19  O   UNL     1      84.974 -50.642  67.649  1.00  0.00    -0.358 OA
ATOM     20  HO  UNL     1      85.912 -50.793  67.677  1.00  0.00     0.217 HD
ENDBRANCH  16  19
BRANCH  17  21
HETATM   21  O   UNL     1      82.472 -49.328  67.680  1.00  0.00    -0.358 OA
ATOM     22  HO  UNL     1      81.820 -50.014  67.759  1.00  0.00     0.217 HD
ENDBRANCH  17  21
ENDBRANCH  10  13
ENDBRANCH   8  10
ENDBRANCH   7   8
ENDBRANCH   6   7
BRANCH   3  23
HETATM   23  S   UNL     1      87.638 -40.666  64.470  1.00  0.00     0.206 S 
HETATM   24  O   UNL     1      87.915 -40.276  63.151  1.00  0.00    -0.217 OA
HETATM   25  O   UNL     1      87.261 -39.656  65.411  1.00  0.00    -0.217 OA
BRANCH  23  26
HETATM   26  C   UNL     1      88.957 -41.510  65.108  1.00  0.00     0.067 A 
HETATM   27  C   UNL     1      89.021 -41.993  66.443  1.00  0.00     0.027 A 
HETATM   28  C   UNL     1      90.104 -42.744  66.938  1.00  0.00     0.041 A 
HETATM   29  C   UNL     1      91.170 -43.041  66.039  1.00  0.00     0.098 A 
HETATM   30  C   UNL     1      91.108 -42.546  64.699  1.00  0.00     0.100 A 
HETATM   31  C   UNL     1      90.038 -41.789  64.262  1.00  0.00     0.063 A 
BRANCH  29  32
HETATM   32  O   UNL     1      92.179 -43.810  66.503  1.00  0.00    -0.358 OA
ATOM     33  HO  UNL     1      91.955 -44.510  67.106  1.00  0.00     0.217 HD
ENDBRANCH  29  32
BRANCH  30  34
HETATM   34  O   UNL     1      92.143 -42.908  63.878  1.00  0.00    -0.358 OA
ATOM     35  HO  UNL     1      92.001 -42.777  62.948  1.00  0.00     0.217 HD
ENDBRANCH  30  34
ENDBRANCH  23  26
ENDBRANCH   3  23
TORSDOF 10
ENDMDL
MODEL 8
REMARK VINA RESULT:   -11.682      2.211      9.156
REMARK INTER + INTRA:         -18.062
REMARK INTER:                 -16.860
REMARK INTRA:                  -1.203
REMARK UNBOUND:                -0.917
REMARK  10 active torsions:
REMARK  status: ('A' for Active; 'I' for Inactive)
REMARK    1  A    between atoms: C_3  and  O_27 
REMARK    2  A    between atoms: C_7  and  O_8 
REMARK    3  A    between atoms: C_11  and  O_17 
REMARK    4  A    between atoms: C_13  and  S_34 
REMARK    5  A    between atoms: C_14  and  S_34 
REMARK    6  A    between atoms: C_19  and  C_24 
REMARK    7  A    between atoms: C_23  and  S_26 
REMARK    8  A    between atoms: C_24  and  N_32 
REMARK    9  A    between atoms: S_26  and  N_32 
REMARK   10  A    between atoms: C_29  and  O_30 
ROOT
HETATM    1  C   UNL     1      83.480 -41.748  66.580  1.00  0.00     0.010 A 
HETATM    2  C   UNL     1      84.620 -41.121  66.103  1.00  0.00     0.024 A 
HETATM    3  C   UNL     1      85.400 -41.717  65.144  1.00  0.00     0.064 A 
HETATM    4  C   UNL     1      85.009 -42.967  64.665  1.00  0.00     0.024 A 
HETATM    5  C   UNL     1      83.873 -43.601  65.129  1.00  0.00     0.010 A 
HETATM    6  C   UNL     1      83.101 -42.969  66.103  1.00  0.00    -0.040 A 
ENDROOT
BRANCH   6   7
HETATM    7  C   UNL     1      81.792 -43.460  66.680  1.00  0.00     0.170 C 
BRANCH   7   8
HETATM    8  N   UNL     1      80.718 -43.812  65.762  1.00  0.00    -0.311 N 
ATOM      9  HN  UNL     1      80.491 -43.175  64.998  1.00  0.00     0.172 HD
BRANCH   8  10
HETATM   10  S   UNL     1      79.857 -45.208  65.918  1.00  0.00     0.259 S 
HETATM   11  O   UNL     1      79.415 -45.312  67.258  1.00  0.00    -0.201 OA
HETATM   12  O   UNL     1      78.939 -45.142  64.844  1.00  0.00    -0.201 OA
BRANCH  10  13
HETATM   13  C   UNL     1      81.011 -46.385  65.644  1.00  0.00     0.082 A 
HETATM   14  C   UNL     1      81.818 -46.399  64.458  1.00  0.00     0.028 A 
HETATM   15  C   UNL     1      82.759 -47.399  64.208  1.00  0.00     0.041 A 
HETATM   16  C   UNL     1      82.930 -48.401  65.179  1.00  0.00     0.098 A 
HETATM   17  C   UNL     1      82.139 -48.358  66.360  1.00  0.00     0.100 A 
HETATM   18  C   UNL     1      81.196 -47.398  66.575  1.00  0.00     0.064 A 
BRANCH  16  19
HETATM   19  O   UNL     1      83.869 -49.337  64.920  1.00  0.00    -0.358 OA
ATOM     20  HO  UNL     1      83.935 -49.634  64.020  1.00  0.00     0.217 HD
ENDBRANCH  16  19
BRANCH  17  21
HETATM   21  O   UNL     1      82.436 -49.221  67.353  1.00  0.00    -0.358 OA
ATOM     22  HO  UNL     1      83.350 -49.432  67.504  1.00  0.00     0.217 HD
ENDBRANCH  17  21
ENDBRANCH  10  13
ENDBRANCH   8  10
ENDBRANCH   7   8
ENDBRANCH   6   7
BRANCH   3  23
HETATM   23  S   UNL     1      86.720 -40.918  64.570  1.00  0.00     0.206 S 
HETATM   24  O   UNL     1      86.975 -41.352  63.261  1.00  0.00    -0.217 OA
HETATM   25  O   UNL     1      86.557 -39.516  64.801  1.00  0.00    -0.217 OA
BRANCH  23  26
HETATM   26  C   UNL     1      87.932 -41.481  65.607  1.00  0.00     0.067 A 
HETATM   27  C   UNL     1      88.097 -41.042  66.948  1.00  0.00     0.027 A 
HETATM   28  C   UNL     1      89.077 -41.565  67.814  1.00  0.00     0.041 A 
HETATM   29  C   UNL     1      89.922 -42.598  67.310  1.00  0.00     0.098 A 
HETATM   30  C   UNL     1      89.760 -43.031  65.957  1.00  0.00     0.100 A 
HETATM   31  C   UNL     1      88.803 -42.471  65.134  1.00  0.00     0.063 A 
BRANCH  29  32
HETATM   32  O   UNL     1      90.822 -43.136  68.162  1.00  0.00    -0.358 OA
ATOM     33  HO  UNL     1      91.209 -43.970  67.920  1.00  0.00     0.217 HD
ENDBRANCH  29  32
BRANCH  30  34
HETATM   34  O   UNL     1      90.574 -44.057  65.555  1.00  0.00    -0.358 OA
ATOM     35  HO  UNL     1      91.478 -43.825  65.376  1.00  0.00     0.217 HD
ENDBRANCH  30  34
ENDBRANCH  23  26
ENDBRANCH   3  23
TORSDOF 10
ENDMDL
MODEL 9
REMARK VINA RESULT:   -11.658      3.379      9.198
REMARK INTER + INTRA:         -18.027
REMARK INTER:                 -17.557
REMARK INTRA:                  -0.470
REMARK UNBOUND:                -0.917
REMARK  10 active torsions:
REMARK  status: ('A' for Active; 'I' for Inactive)
REMARK    1  A    between atoms: C_3  and  O_27 
REMARK    2  A    between atoms: C_7  and  O_8 
REMARK    3  A    between atoms: C_11  and  O_17 
REMARK    4  A    between atoms: C_13  and  S_34 
REMARK    5  A    between atoms: C_14  and  S_34 
REMARK    6  A    between atoms: C_19  and  C_24 
REMARK    7  A    between atoms: C_23  and  S_26 
REMARK    8  A    between atoms: C_24  and  N_32 
REMARK    9  A    between atoms: S_26  and  N_32 
REMARK   10  A    between atoms: C_29  and  O_30 
ROOT
HETATM    1  C   UNL     1      83.572 -43.898  65.162  1.00  0.00     0.010 A 
HETATM    2  C   UNL     1      84.738 -43.872  64.414  1.00  0.00     0.024 A 
HETATM    3  C   UNL     1      85.557 -42.771  64.427  1.00  0.00     0.064 A 
HETATM    4  C   UNL     1      85.180 -41.684  65.215  1.00  0.00     0.024 A 
HETATM    5  C   UNL     1      84.023 -41.697  65.968  1.00  0.00     0.010 A 
HETATM    6  C   UNL     1      83.213 -42.832  65.936  1.00  0.00    -0.040 A 
ENDROOT
BRANCH   6   7
HETATM    7  C   UNL     1      81.955 -43.070  66.741  1.00  0.00     0.170 C 
BRANCH   7   8
HETATM    8  N   UNL     1      81.097 -44.188  66.373  1.00  0.00    -0.311 N 
ATOM      9  HN  UNL     1      81.518 -45.017  65.952  1.00  0.00     0.172 HD
BRANCH   8  10
HETATM   10  S   UNL     1      79.469 -44.156  66.616  1.00  0.00     0.259 S 
HETATM   11  O   UNL     1      79.198 -44.692  67.897  1.00  0.00    -0.201 OA
HETATM   12  O   UNL     1      79.120 -42.824  66.288  1.00  0.00    -0.201 OA
BRANCH  10  13
HETATM   13  C   UNL     1      78.901 -45.222  65.461  1.00  0.00     0.082 A 
HETATM   14  C   UNL     1      78.364 -44.772  64.209  1.00  0.00     0.028 A 
HETATM   15  C   UNL     1      77.857 -45.656  63.254  1.00  0.00     0.041 A 
HETATM   16  C   UNL     1      77.913 -47.032  63.535  1.00  0.00     0.098 A 
HETATM   17  C   UNL     1      78.470 -47.461  64.771  1.00  0.00     0.100 A 
HETATM   18  C   UNL     1      78.927 -46.587  65.711  1.00  0.00     0.064 A 
BRANCH  16  19
HETATM   19  O   UNL     1      77.441 -47.861  62.579  1.00  0.00    -0.358 OA
ATOM     20  HO  UNL     1      76.816 -48.519  62.859  1.00  0.00     0.217 HD
ENDBRANCH  16  19
BRANCH  17  21
HETATM   21  O   UNL     1      78.674 -48.783  64.949  1.00  0.00    -0.358 OA
ATOM     22  HO  UNL     1      78.821 -49.096  65.833  1.00  0.00     0.217 HD
ENDBRANCH  17  21
ENDBRANCH  10  13
ENDBRANCH   8  10
ENDBRANCH   7   8
ENDBRANCH   6   7
BRANCH   3  23
HETATM   23  S   UNL     1      86.956 -42.799  63.561  1.00  0.00     0.206 S 
HETATM   24  O   UNL     1      87.017 -41.644  62.767  1.00  0.00    -0.217 OA
HETATM   25  O   UNL     1      88.048 -43.076  64.443  1.00  0.00    -0.217 OA
BRANCH  23  26
HETATM   26  C   UNL     1      86.719 -44.157  62.581  1.00  0.00     0.067 A 
HETATM   27  C   UNL     1      86.132 -44.110  61.287  1.00  0.00     0.027 A 
HETATM   28  C   UNL     1      85.996 -45.244  60.463  1.00  0.00     0.041 A 
HETATM   29  C   UNL     1      86.492 -46.486  60.958  1.00  0.00     0.098 A 
HETATM   30  C   UNL     1      87.073 -46.532  62.264  1.00  0.00     0.100 A 
HETATM   31  C   UNL     1      87.162 -45.400  63.050  1.00  0.00     0.063 A 
BRANCH  29  32
HETATM   32  O   UNL     1      86.411 -47.559  60.141  1.00  0.00    -0.358 OA
ATOM     33  HO  UNL     1      86.992 -48.290  60.319  1.00  0.00     0.217 HD
ENDBRANCH  29  32
BRANCH  30  34
HETATM   34  O   UNL     1      87.570 -47.747  62.657  1.00  0.00    -0.358 OA
ATOM     35  HO  UNL     1      88.229 -47.725  63.341  1.00  0.00     0.217 HD
ENDBRANCH  30  34
ENDBRANCH  23  26
ENDBRANCH   3  23
TORSDOF 10
ENDMDL
MODEL 10
REMARK VINA RESULT:   -11.638      2.830      4.212
REMARK INTER + INTRA:         -17.998
REMARK INTER:                 -17.538
REMARK INTRA:                  -0.460
REMARK UNBOUND:                -0.917
REMARK  10 active torsions:
REMARK  status: ('A' for Active; 'I' for Inactive)
REMARK    1  A    between atoms: C_3  and  O_27 
REMARK    2  A    between atoms: C_7  and  O_8 
REMARK    3  A    between atoms: C_11  and  O_17 
REMARK    4  A    between atoms: C_13  and  S_34 
REMARK    5  A    between atoms: C_14  and  S_34 
REMARK    6  A    between atoms: C_19  and  C_24 
REMARK    7  A    between atoms: C_23  and  S_26 
REMARK    8  A    between atoms: C_24  and  N_32 
REMARK    9  A    between atoms: S_26  and  N_32 
REMARK   10  A    between atoms: C_29  and  O_30 
ROOT
HETATM    1  C   UNL     1      83.968 -43.559  65.047  1.00  0.00     0.010 A 
HETATM    2  C   UNL     1      83.313 -44.758  64.819  1.00  0.00     0.024 A 
HETATM    3  C   UNL     1      82.144 -45.056  65.473  1.00  0.00     0.064 A 
HETATM    4  C   UNL     1      81.637 -44.116  66.369  1.00  0.00     0.024 A 
HETATM    5  C   UNL     1      82.277 -42.915  66.604  1.00  0.00     0.010 A 
HETATM    6  C   UNL     1      83.462 -42.641  65.922  1.00  0.00    -0.040 A 
ENDROOT
BRANCH   6   7
HETATM    7  C   UNL     1      84.266 -41.362  65.983  1.00  0.00     0.170 C 
BRANCH   7   8
HETATM    8  N   UNL     1      85.619 -41.367  65.442  1.00  0.00    -0.311 N 
ATOM      9  HN  UNL     1      85.838 -41.988  64.663  1.00  0.00     0.172 HD
BRANCH   8  10
HETATM   10  S   UNL     1      86.806 -40.400  66.049  1.00  0.00     0.259 S 
HETATM   11  O   UNL     1      86.753 -39.154  65.381  1.00  0.00    -0.201 OA
HETATM   12  O   UNL     1      86.612 -40.492  67.448  1.00  0.00    -0.201 OA
BRANCH  10  13
HETATM   13  C   UNL     1      88.202 -41.194  65.588  1.00  0.00     0.082 A 
HETATM   14  C   UNL     1      88.905 -42.075  66.476  1.00  0.00     0.028 A 
HETATM   15  C   UNL     1      90.090 -42.714  66.108  1.00  0.00     0.041 A 
HETATM   16  C   UNL     1      90.578 -42.500  64.808  1.00  0.00     0.098 A 
HETATM   17  C   UNL     1      89.856 -41.643  63.933  1.00  0.00     0.100 A 
HETATM   18  C   UNL     1      88.721 -40.994  64.316  1.00  0.00     0.064 A 
BRANCH  16  19
HETATM   19  O   UNL     1      91.711 -43.156  64.474  1.00  0.00    -0.358 OA
ATOM     20  HO  UNL     1      91.777 -44.059  64.759  1.00  0.00     0.217 HD
ENDBRANCH  16  19
BRANCH  17  21
HETATM   21  O   UNL     1      90.240 -41.585  62.642  1.00  0.00    -0.358 OA
ATOM     22  HO  UNL     1      89.638 -41.206  62.013  1.00  0.00     0.217 HD
ENDBRANCH  17  21
ENDBRANCH  10  13
ENDBRANCH   8  10
ENDBRANCH   7   8
ENDBRANCH   6   7
BRANCH   3  23
HETATM   23  S   UNL     1      81.373 -46.472  65.138  1.00  0.00     0.206 S 
HETATM   24  O   UNL     1      81.117 -47.140  66.344  1.00  0.00    -0.217 OA
HETATM   25  O   UNL     1      80.274 -46.211  64.259  1.00  0.00    -0.217 OA
BRANCH  23  26
HETATM   26  C   UNL     1      82.558 -47.302  64.263  1.00  0.00     0.067 A 
HETATM   27  C   UNL     1      83.513 -48.175  64.849  1.00  0.00     0.027 A 
HETATM   28  C   UNL     1      84.456 -48.902  64.096  1.00  0.00     0.041 A 
HETATM   29  C   UNL     1      84.423 -48.758  62.678  1.00  0.00     0.098 A 
HETATM   30  C   UNL     1      83.466 -47.872  62.091  1.00  0.00     0.100 A 
HETATM   31  C   UNL     1      82.577 -47.156  62.870  1.00  0.00     0.063 A 
BRANCH  29  32
HETATM   32  O   UNL     1      85.290 -49.501  61.957  1.00  0.00    -0.358 OA
ATOM     33  HO  UNL     1      85.813 -49.052  61.302  1.00  0.00     0.217 HD
ENDBRANCH  29  32
BRANCH  30  34
HETATM   34  O   UNL     1      83.460 -47.818  60.722  1.00  0.00    -0.358 OA
ATOM     35  HO  UNL     1      84.313 -47.783  60.304  1.00  0.00     0.217 HD
ENDBRANCH  30  34
ENDBRANCH  23  26
ENDBRANCH   3  23
TORSDOF 10
ENDMDL
MODEL 11
REMARK VINA RESULT:   -11.506      2.278      3.725
REMARK INTER + INTRA:         -17.804
REMARK INTER:                 -16.643
REMARK INTRA:                  -1.161
REMARK UNBOUND:                -0.917
REMARK  10 active torsions:
REMARK  status: ('A' for Active; 'I' for Inactive)
REMARK    1  A    between atoms: C_3  and  O_27 
REMARK    2  A    between atoms: C_7  and  O_8 
REMARK    3  A    between atoms: C_11  and  O_17 
REMARK    4  A    between atoms: C_13  and  S_34 
REMARK    5  A    between atoms: C_14  and  S_34 
REMARK    6  A    between atoms: C_19  and  C_24 
REMARK    7  A    between atoms: C_23  and  S_26 
REMARK    8  A    between atoms: C_24  and  N_32 
REMARK    9  A    between atoms: S_26  and  N_32 
REMARK   10  A    between atoms: C_29  and  O_30 
ROOT
HETATM    1  C   UNL     1      83.615 -43.614  65.175  1.00  0.00     0.010 A 
HETATM    2  C   UNL     1      82.669 -44.608  65.366  1.00  0.00     0.024 A 
HETATM    3  C   UNL     1      81.666 -44.457  66.290  1.00  0.00     0.064 A 
HETATM    4  C   UNL     1      81.629 -43.274  67.028  1.00  0.00     0.024 A 
HETATM    5  C   UNL     1      82.563 -42.273  66.846  1.00  0.00     0.010 A 
HETATM    6  C   UNL     1      83.568 -42.456  65.897  1.00  0.00    -0.040 A 
ENDROOT
BRANCH   6   7
HETATM    7  C   UNL     1      84.630 -41.456  65.499  1.00  0.00     0.170 C 
BRANCH   7   8
HETATM    8  N   UNL     1      86.016 -41.743  65.844  1.00  0.00    -0.311 N 
ATOM      9  HN  UNL     1      86.216 -42.266  66.696  1.00  0.00     0.172 HD
BRANCH   8  10
HETATM   10  S   UNL     1      87.271 -41.247  64.899  1.00  0.00     0.259 S 
HETATM   11  O   UNL     1      87.156 -39.852  64.699  1.00  0.00    -0.201 OA
HETATM   12  O   UNL     1      88.400 -41.807  65.543  1.00  0.00    -0.201 OA
BRANCH  10  13
HETATM   13  C   UNL     1      86.969 -42.020  63.448  1.00  0.00     0.082 A 
HETATM   14  C   UNL     1      86.713 -43.431  63.376  1.00  0.00     0.028 A 
HETATM   15  C   UNL     1      86.494 -44.087  62.165  1.00  0.00     0.041 A 
HETATM   16  C   UNL     1      86.498 -43.318  60.988  1.00  0.00     0.098 A 
HETATM   17  C   UNL     1      86.729 -41.918  61.080  1.00  0.00     0.100 A 
HETATM   18  C   UNL     1      86.980 -41.294  62.265  1.00  0.00     0.064 A 
BRANCH  16  19
HETATM   19  O   UNL     1      86.254 -43.980  59.835  1.00  0.00    -0.358 OA
ATOM     20  HO  UNL     1      85.415 -43.815  59.421  1.00  0.00     0.217 HD
ENDBRANCH  16  19
BRANCH  17  21
HETATM   21  O   UNL     1      86.558 -41.173  59.969  1.00  0.00    -0.358 OA
ATOM     22  HO  UNL     1      87.313 -40.720  59.614  1.00  0.00     0.217 HD
ENDBRANCH  17  21
ENDBRANCH  10  13
ENDBRANCH   8  10
ENDBRANCH   7   8
ENDBRANCH   6   7
BRANCH   3  23
HETATM   23  S   UNL     1      80.536 -45.642  66.452  1.00  0.00     0.206 S 
HETATM   24  O   UNL     1      81.116 -46.869  66.097  1.00  0.00    -0.217 OA
HETATM   25  O   UNL     1      79.919 -45.529  67.738  1.00  0.00    -0.217 OA
BRANCH  23  26
HETATM   26  C   UNL     1      79.400 -45.186  65.285  1.00  0.00     0.067 A 
HETATM   27  C   UNL     1      78.555 -44.049  65.400  1.00  0.00     0.027 A 
HETATM   28  C   UNL     1      77.655 -43.654  64.391  1.00  0.00     0.041 A 
HETATM   29  C   UNL     1      77.618 -44.431  63.196  1.00  0.00     0.098 A 
HETATM   30  C   UNL     1      78.462 -45.580  63.087  1.00  0.00     0.100 A 
HETATM   31  C   UNL     1      79.310 -45.948  64.113  1.00  0.00     0.063 A 
BRANCH  29  32
HETATM   32  O   UNL     1      76.795 -44.013  62.209  1.00  0.00    -0.358 OA
ATOM     33  HO  UNL     1      76.925 -43.134  61.873  1.00  0.00     0.217 HD
ENDBRANCH  29  32
BRANCH  30  34
HETATM   34  O   UNL     1      78.407 -46.252  61.894  1.00  0.00    -0.358 OA
ATOM     35  HO  UNL     1      77.580 -46.673  61.692  1.00  0.00     0.217 HD
ENDBRANCH  30  34
ENDBRANCH  23  26
ENDBRANCH   3  23
TORSDOF 10
ENDMDL
MODEL 12
REMARK VINA RESULT:   -11.491      2.950      9.155
REMARK INTER + INTRA:         -17.782
REMARK INTER:                 -16.750
REMARK INTRA:                  -1.032
REMARK UNBOUND:                -0.917
REMARK  10 active torsions:
REMARK  status: ('A' for Active; 'I' for Inactive)
REMARK    1  A    between atoms: C_3  and  O_27 
REMARK    2  A    between atoms: C_7  and  O_8 
REMARK    3  A    between atoms: C_11  and  O_17 
REMARK    4  A    between atoms: C_13  and  S_34 
REMARK    5  A    between atoms: C_14  and  S_34 
REMARK    6  A    between atoms: C_19  and  C_24 
REMARK    7  A    between atoms: C_23  and  S_26 
REMARK    8  A    between atoms: C_24  and  N_32 
REMARK    9  A    between atoms: S_26  and  N_32 
REMARK   10  A    between atoms: C_29  and  O_30 
ROOT
HETATM    1  C   UNL     1      84.328 -43.652  64.789  1.00  0.00     0.010 A 
HETATM    2  C   UNL     1      85.406 -42.836  64.485  1.00  0.00     0.024 A 
HETATM    3  C   UNL     1      85.533 -41.596  65.059  1.00  0.00     0.064 A 
HETATM    4  C   UNL     1      84.547 -41.186  65.955  1.00  0.00     0.024 A 
HETATM    5  C   UNL     1      83.469 -41.990  66.270  1.00  0.00     0.010 A 
HETATM    6  C   UNL     1      83.370 -43.246  65.672  1.00  0.00    -0.040 A 
ENDROOT
BRANCH   6   7
HETATM    7  C   UNL     1      82.316 -44.296  65.940  1.00  0.00     0.170 C 
BRANCH   7   8
HETATM    8  N   UNL     1      81.832 -45.095  64.823  1.00  0.00    -0.311 N 
ATOM      9  HN  UNL     1      81.720 -44.653  63.911  1.00  0.00     0.172 HD
BRANCH   8  10
HETATM   10  S   UNL     1      81.463 -46.692  64.986  1.00  0.00     0.259 S 
HETATM   11  O   UNL     1      81.659 -47.059  66.339  1.00  0.00    -0.201 OA
HETATM   12  O   UNL     1      80.192 -46.793  64.374  1.00  0.00    -0.201 OA
BRANCH  10  13
HETATM   13  C   UNL     1      82.633 -47.439  64.056  1.00  0.00     0.082 A 
HETATM   14  C   UNL     1      83.609 -48.323  64.626  1.00  0.00     0.028 A 
HETATM   15  C   UNL     1      84.609 -48.923  63.860  1.00  0.00     0.041 A 
HETATM   16  C   UNL     1      84.626 -48.664  62.478  1.00  0.00     0.098 A 
HETATM   17  C   UNL     1      83.637 -47.805  61.926  1.00  0.00     0.100 A 
HETATM   18  C   UNL     1      82.688 -47.194  62.691  1.00  0.00     0.064 A 
BRANCH  16  19
HETATM   19  O   UNL     1      85.589 -49.283  61.761  1.00  0.00    -0.358 OA
ATOM     20  HO  UNL     1      85.295 -49.867  61.071  1.00  0.00     0.217 HD
ENDBRANCH  16  19
BRANCH  17  21
HETATM   21  O   UNL     1      83.561 -47.706  60.583  1.00  0.00    -0.358 OA
ATOM     22  HO  UNL     1      82.778 -47.323  60.207  1.00  0.00     0.217 HD
ENDBRANCH  17  21
ENDBRANCH  10  13
ENDBRANCH   8  10
ENDBRANCH   7   8
ENDBRANCH   6   7
BRANCH   3  23
HETATM   23  S   UNL     1      86.852 -40.678  64.707  1.00  0.00     0.206 S 
HETATM   24  O   UNL     1      87.226 -40.919  63.376  1.00  0.00    -0.217 OA
HETATM   25  O   UNL     1      86.604 -39.327  65.109  1.00  0.00    -0.217 OA
BRANCH  23  26
HETATM   26  C   UNL     1      88.008 -41.332  65.754  1.00  0.00     0.067 A 
HETATM   27  C   UNL     1      88.121 -40.987  67.128  1.00  0.00     0.027 A 
HETATM   28  C   UNL     1      89.053 -41.585  67.997  1.00  0.00     0.041 A 
HETATM   29  C   UNL     1      89.903 -42.597  67.462  1.00  0.00     0.098 A 
HETATM   30  C   UNL     1      89.794 -42.936  66.077  1.00  0.00     0.100 A 
HETATM   31  C   UNL     1      88.883 -42.303  65.253  1.00  0.00     0.063 A 
BRANCH  29  32
HETATM   32  O   UNL     1      90.755 -43.209  68.313  1.00  0.00    -0.358 OA
ATOM     33  HO  UNL     1      90.423 -43.949  68.809  1.00  0.00     0.217 HD
ENDBRANCH  29  32
BRANCH  30  34
HETATM   34  O   UNL     1      90.609 -43.948  65.641  1.00  0.00    -0.358 OA
ATOM     35  HO  UNL     1      90.771 -44.647  66.263  1.00  0.00     0.217 HD
ENDBRANCH  30  34
ENDBRANCH  23  26
ENDBRANCH   3  23
TORSDOF 10
ENDMDL
MODEL 13
REMARK VINA RESULT:   -11.427      2.676      8.941
REMARK INTER + INTRA:         -17.689
REMARK INTER:                 -16.402
REMARK INTRA:                  -1.287
REMARK UNBOUND:                -0.917
REMARK  10 active torsions:
REMARK  status: ('A' for Active; 'I' for Inactive)
REMARK    1  A    between atoms: C_3  and  O_27 
REMARK    2  A    between atoms: C_7  and  O_8 
REMARK    3  A    between atoms: C_11  and  O_17 
REMARK    4  A    between atoms: C_13  and  S_34 
REMARK    5  A    between atoms: C_14  and  S_34 
REMARK    6  A    between atoms: C_19  and  C_24 
REMARK    7  A    between atoms: C_23  and  S_26 
REMARK    8  A    between atoms: C_24  and  N_32 
REMARK    9  A    between atoms: S_26  and  N_32 
REMARK   10  A    between atoms: C_29  and  O_30 
ROOT
HETATM    1  C   UNL     1      83.219 -42.102  66.329  1.00  0.00     0.010 A 
HETATM    2  C   UNL     1      84.337 -41.361  65.982  1.00  0.00     0.024 A 
HETATM    3  C   UNL     1      85.269 -41.862  65.107  1.00  0.00     0.064 A 
HETATM    4  C   UNL     1      85.054 -43.135  64.580  1.00  0.00     0.024 A 
HETATM    5  C   UNL     1      83.942 -43.883  64.914  1.00  0.00     0.010 A 
HETATM    6  C   UNL     1      83.013 -43.345  65.804  1.00  0.00    -0.040 A 
ENDROOT
BRANCH   6   7
HETATM    7  C   UNL     1      81.705 -43.969  66.233  1.00  0.00     0.170 C 
BRANCH   7   8
HETATM    8  N   UNL     1      81.694 -45.382  66.588  1.00  0.00    -0.311 N 
ATOM      9  HN  UNL     1      82.193 -45.686  67.424  1.00  0.00     0.172 HD
BRANCH   8  10
HETATM   10  S   UNL     1      80.899 -46.504  65.681  1.00  0.00     0.259 S 
HETATM   11  O   UNL     1      80.285 -47.431  66.555  1.00  0.00    -0.201 OA
HETATM   12  O   UNL     1      80.134 -45.715  64.790  1.00  0.00    -0.201 OA
BRANCH  10  13
HETATM   13  C   UNL     1      82.143 -47.276  64.875  1.00  0.00     0.082 A 
HETATM   14  C   UNL     1      82.496 -46.944  63.524  1.00  0.00     0.028 A 
HETATM   15  C   UNL     1      83.511 -47.608  62.834  1.00  0.00     0.041 A 
HETATM   16  C   UNL     1      84.222 -48.612  63.513  1.00  0.00     0.098 A 
HETATM   17  C   UNL     1      83.876 -48.911  64.860  1.00  0.00     0.100 A 
HETATM   18  C   UNL     1      82.857 -48.282  65.510  1.00  0.00     0.064 A 
BRANCH  16  19
HETATM   19  O   UNL     1      85.218 -49.215  62.827  1.00  0.00    -0.358 OA
ATOM     20  HO  UNL     1      85.579 -50.005  63.211  1.00  0.00     0.217 HD
ENDBRANCH  16  19
BRANCH  17  21
HETATM   21  O   UNL     1      84.676 -49.750  65.549  1.00  0.00    -0.358 OA
ATOM     22  HO  UNL     1      84.582 -49.782  66.493  1.00  0.00     0.217 HD
ENDBRANCH  17  21
ENDBRANCH  10  13
ENDBRANCH   8  10
ENDBRANCH   7   8
ENDBRANCH   6   7
BRANCH   3  23
HETATM   23  S   UNL     1      86.559 -40.930  64.685  1.00  0.00     0.206 S 
HETATM   24  O   UNL     1      86.812 -41.107  63.317  1.00  0.00    -0.217 OA
HETATM   25  O   UNL     1      86.356 -39.600  65.172  1.00  0.00    -0.217 OA
BRANCH  23  26
HETATM   26  C   UNL     1      87.797 -41.637  65.594  1.00  0.00     0.067 A 
HETATM   27  C   UNL     1      88.637 -42.679  65.117  1.00  0.00     0.027 A 
HETATM   28  C   UNL     1      89.700 -43.216  65.869  1.00  0.00     0.041 A 
HETATM   29  C   UNL     1      89.943 -42.661  67.160  1.00  0.00     0.098 A 
HETATM   30  C   UNL     1      89.090 -41.619  67.642  1.00  0.00     0.100 A 
HETATM   31  C   UNL     1      88.041 -41.141  66.881  1.00  0.00     0.063 A 
BRANCH  29  32
HETATM   32  O   UNL     1      91.000 -43.140  67.854  1.00  0.00    -0.358 OA
ATOM     33  HO  UNL     1      91.863 -43.019  67.475  1.00  0.00     0.217 HD
ENDBRANCH  29  32
BRANCH  30  34
HETATM   34  O   UNL     1      89.410 -41.103  68.870  1.00  0.00    -0.358 OA
ATOM     35  HO  UNL     1      90.324 -40.878  69.001  1.00  0.00     0.217 HD
ENDBRANCH  30  34
ENDBRANCH  23  26
ENDBRANCH   3  23
TORSDOF 10
ENDMDL
MODEL 14
REMARK VINA RESULT:   -11.398      2.629      3.639
REMARK INTER + INTRA:         -17.646
REMARK INTER:                 -16.574
REMARK INTRA:                  -1.073
REMARK UNBOUND:                -0.917
REMARK  10 active torsions:
REMARK  status: ('A' for Active; 'I' for Inactive)
REMARK    1  A    between atoms: C_3  and  O_27 
REMARK    2  A    between atoms: C_7  and  O_8 
REMARK    3  A    between atoms: C_11  and  O_17 
REMARK    4  A    between atoms: C_13  and  S_34 
REMARK    5  A    between atoms: C_14  and  S_34 
REMARK    6  A    between atoms: C_19  and  C_24 
REMARK    7  A    between atoms: C_23  and  S_26 
REMARK    8  A    between atoms: C_24  and  N_32 
REMARK    9  A    between atoms: S_26  and  N_32 
REMARK   10  A    between atoms: C_29  and  O_30 
ROOT
HETATM    1  C   UNL     1      82.718 -42.369  66.742  1.00  0.00     0.010 A 
HETATM    2  C   UNL     1      81.611 -43.170  66.971  1.00  0.00     0.024 A 
HETATM    3  C   UNL     1      81.444 -44.350  66.292  1.00  0.00     0.064 A 
HETATM    4  C   UNL     1      82.422 -44.718  65.369  1.00  0.00     0.024 A 
HETATM    5  C   UNL     1      83.533 -43.933  65.133  1.00  0.00     0.010 A 
HETATM    6  C   UNL     1      83.674 -42.740  65.841  1.00  0.00    -0.040 A 
ENDROOT
BRANCH   6   7
HETATM    7  C   UNL     1      84.846 -41.786  65.781  1.00  0.00     0.170 C 
BRANCH   7   8
HETATM    8  N   UNL     1      85.347 -41.383  64.474  1.00  0.00    -0.311 N 
ATOM      9  HN  UNL     1      84.739 -40.845  63.856  1.00  0.00     0.172 HD
BRANCH   8  10
HETATM   10  S   UNL     1      86.865 -41.768  63.964  1.00  0.00     0.259 S 
HETATM   11  O   UNL     1      87.427 -40.631  63.336  1.00  0.00    -0.201 OA
HETATM   12  O   UNL     1      87.457 -42.338  65.116  1.00  0.00    -0.201 OA
BRANCH  10  13
HETATM   13  C   UNL     1      86.580 -42.933  62.801  1.00  0.00     0.082 A 
HETATM   14  C   UNL     1      86.728 -42.663  61.400  1.00  0.00     0.028 A 
HETATM   15  C   UNL     1      86.459 -43.622  60.423  1.00  0.00     0.041 A 
HETATM   16  C   UNL     1      86.059 -44.901  60.848  1.00  0.00     0.098 A 
HETATM   17  C   UNL     1      85.940 -45.159  62.241  1.00  0.00     0.100 A 
HETATM   18  C   UNL     1      86.169 -44.203  63.184  1.00  0.00     0.064 A 
BRANCH  16  19
HETATM   19  O   UNL     1      85.834 -45.815  59.878  1.00  0.00    -0.358 OA
ATOM     20  HO  UNL     1      84.925 -46.013  59.685  1.00  0.00     0.217 HD
ENDBRANCH  16  19
BRANCH  17  21
HETATM   21  O   UNL     1      85.725 -46.431  62.634  1.00  0.00    -0.358 OA
ATOM     22  HO  UNL     1      85.864 -47.124  62.000  1.00  0.00     0.217 HD
ENDBRANCH  17  21
ENDBRANCH  10  13
ENDBRANCH   8  10
ENDBRANCH   7   8
ENDBRANCH   6   7
BRANCH   3  23
HETATM   23  S   UNL     1      80.138 -45.294  66.628  1.00  0.00     0.206 S 
HETATM   24  O   UNL     1      80.553 -46.632  66.688  1.00  0.00    -0.217 OA
HETATM   25  O   UNL     1      79.441 -44.748  67.752  1.00  0.00    -0.217 OA
BRANCH  23  26
HETATM   26  C   UNL     1      79.183 -45.051  65.253  1.00  0.00     0.067 A 
HETATM   27  C   UNL     1      79.187 -45.911  64.122  1.00  0.00     0.027 A 
HETATM   28  C   UNL     1      78.342 -45.724  63.011  1.00  0.00     0.041 A 
HETATM   29  C   UNL     1      77.435 -44.625  63.047  1.00  0.00     0.098 A 
HETATM   30  C   UNL     1      77.441 -43.755  64.182  1.00  0.00     0.100 A 
HETATM   31  C   UNL     1      78.305 -43.960  65.239  1.00  0.00     0.063 A 
BRANCH  29  32
HETATM   32  O   UNL     1      76.587 -44.483  62.004  1.00  0.00    -0.358 OA
ATOM     33  HO  UNL     1      75.683 -44.268  62.201  1.00  0.00     0.217 HD
ENDBRANCH  29  32
BRANCH  30  34
HETATM   34  O   UNL     1      76.511 -42.748  64.170  1.00  0.00    -0.358 OA
ATOM     35  HO  UNL     1      76.215 -42.466  63.313  1.00  0.00     0.217 HD
ENDBRANCH  30  34
ENDBRANCH  23  26
ENDBRANCH   3  23
TORSDOF 10
ENDMDL
MODEL 15
REMARK VINA RESULT:   -11.391      4.273      5.725
REMARK INTER + INTRA:         -17.636
REMARK INTER:                 -16.638
REMARK INTRA:                  -0.997
REMARK UNBOUND:                -0.917
REMARK  10 active torsions:
REMARK  status: ('A' for Active; 'I' for Inactive)
REMARK    1  A    between atoms: C_3  and  O_27 
REMARK    2  A    between atoms: C_7  and  O_8 
REMARK    3  A    between atoms: C_11  and  O_17 
REMARK    4  A    between atoms: C_13  and  S_34 
REMARK    5  A    between atoms: C_14  and  S_34 
REMARK    6  A    between atoms: C_19  and  C_24 
REMARK    7  A    between atoms: C_23  and  S_26 
REMARK    8  A    between atoms: C_24  and  N_32 
REMARK    9  A    between atoms: S_26  and  N_32 
REMARK   10  A    between atoms: C_29  and  O_30 
ROOT
HETATM    1  C   UNL     1      82.765 -48.109  64.596  1.00  0.00     0.010 A 
HETATM    2  C   UNL     1      81.624 -47.840  65.334  1.00  0.00     0.024 A 
HETATM    3  C   UNL     1      81.253 -46.548  65.612  1.00  0.00     0.064 A 
HETATM    4  C   UNL     1      82.059 -45.518  65.128  1.00  0.00     0.024 A 
HETATM    5  C   UNL     1      83.197 -45.771  64.388  1.00  0.00     0.010 A 
HETATM    6  C   UNL     1      83.545 -47.095  64.121  1.00  0.00    -0.040 A 
ENDROOT
BRANCH   6   7
HETATM    7  C   UNL     1      84.702 -47.573  63.272  1.00  0.00     0.170 C 
BRANCH   7   8
HETATM    8  N   UNL     1      85.054 -46.807  62.085  1.00  0.00    -0.311 N 
ATOM      9  HN  UNL     1      84.476 -46.894  61.250  1.00  0.00     0.172 HD
BRANCH   8  10
HETATM   10  S   UNL     1      86.360 -45.803  62.049  1.00  0.00     0.259 S 
HETATM   11  O   UNL     1      86.408 -45.091  63.271  1.00  0.00    -0.201 OA
HETATM   12  O   UNL     1      87.415 -46.660  61.655  1.00  0.00    -0.201 OA
BRANCH  10  13
HETATM   13  C   UNL     1      85.971 -44.735  60.824  1.00  0.00     0.082 A 
HETATM   14  C   UNL     1      85.093 -45.097  59.749  1.00  0.00     0.028 A 
HETATM   15  C   UNL     1      84.792 -44.220  58.705  1.00  0.00     0.041 A 
HETATM   16  C   UNL     1      85.353 -42.932  58.743  1.00  0.00     0.098 A 
HETATM   17  C   UNL     1      86.202 -42.582  59.829  1.00  0.00     0.100 A 
HETATM   18  C   UNL     1      86.519 -43.459  60.823  1.00  0.00     0.064 A 
BRANCH  16  19
HETATM   19  O   UNL     1      85.019 -42.099  57.734  1.00  0.00    -0.358 OA
ATOM     20  HO  UNL     1      84.733 -41.228  57.980  1.00  0.00     0.217 HD
ENDBRANCH  16  19
BRANCH  17  21
HETATM   21  O   UNL     1      86.589 -41.295  59.941  1.00  0.00    -0.358 OA
ATOM     22  HO  UNL     1      86.504 -40.735  59.179  1.00  0.00     0.217 HD
ENDBRANCH  17  21
ENDBRANCH  10  13
ENDBRANCH   8  10
ENDBRANCH   7   8
ENDBRANCH   6   7
BRANCH   3  23
HETATM   23  S   UNL     1      79.865 -46.272  66.451  1.00  0.00     0.206 S 
HETATM   24  O   UNL     1      79.307 -47.506  66.817  1.00  0.00    -0.217 OA
HETATM   25  O   UNL     1      80.122 -45.311  67.480  1.00  0.00    -0.217 OA
BRANCH  23  26
HETATM   26  C   UNL     1      78.901 -45.533  65.275  1.00  0.00     0.067 A 
HETATM   27  C   UNL     1      78.340 -44.234  65.408  1.00  0.00     0.027 A 
HETATM   28  C   UNL     1      77.587 -43.614  64.392  1.00  0.00     0.041 A 
HETATM   29  C   UNL     1      77.405 -44.328  63.172  1.00  0.00     0.098 A 
HETATM   30  C   UNL     1      77.962 -45.639  63.044  1.00  0.00     0.100 A 
HETATM   31  C   UNL     1      78.671 -46.222  64.077  1.00  0.00     0.063 A 
BRANCH  29  32
HETATM   32  O   UNL     1      76.731 -43.705  62.180  1.00  0.00    -0.358 OA
ATOM     33  HO  UNL     1      77.234 -43.403  61.433  1.00  0.00     0.217 HD
ENDBRANCH  29  32
BRANCH  30  34
HETATM   34  O   UNL     1      77.788 -46.249  61.830  1.00  0.00    -0.358 OA
ATOM     35  HO  UNL     1      78.510 -46.787  61.528  1.00  0.00     0.217 HD
ENDBRANCH  30  34
ENDBRANCH  23  26
ENDBRANCH   3  23
TORSDOF 10
ENDMDL
MODEL 16
REMARK VINA RESULT:   -11.374      3.980      5.303
REMARK INTER + INTRA:         -17.611
REMARK INTER:                 -16.597
REMARK INTRA:                  -1.013
REMARK UNBOUND:                -0.917
REMARK  10 active torsions:
REMARK  status: ('A' for Active; 'I' for Inactive)
REMARK    1  A    between atoms: C_3  and  O_27 
REMARK    2  A    between atoms: C_7  and  O_8 
REMARK    3  A    between atoms: C_11  and  O_17 
REMARK    4  A    between atoms: C_13  and  S_34 
REMARK    5  A    between atoms: C_14  and  S_34 
REMARK    6  A    between atoms: C_19  and  C_24 
REMARK    7  A    between atoms: C_23  and  S_26 
REMARK    8  A    between atoms: C_24  and  N_32 
REMARK    9  A    between atoms: S_26  and  N_32 
REMARK   10  A    between atoms: C_29  and  O_30 
ROOT
HETATM    1  C   UNL     1      85.279 -44.399  63.694  1.00  0.00     0.010 A 
HETATM    2  C   UNL     1      84.339 -45.417  63.711  1.00  0.00     0.024 A 
HETATM    3  C   UNL     1      84.303 -46.357  62.712  1.00  0.00     0.064 A 
HETATM    4  C   UNL     1      85.241 -46.257  61.684  1.00  0.00     0.024 A 
HETATM    5  C   UNL     1      86.185 -45.250  61.656  1.00  0.00     0.010 A 
HETATM    6  C   UNL     1      86.197 -44.311  62.687  1.00  0.00    -0.040 A 
ENDROOT
BRANCH   6   7
HETATM    7  C   UNL     1      87.191 -43.187  62.876  1.00  0.00     0.170 C 
BRANCH   7   8
HETATM    8  N   UNL     1      86.773 -42.011  63.626  1.00  0.00    -0.311 N 
ATOM      9  HN  UNL     1      85.795 -41.921  63.901  1.00  0.00     0.172 HD
BRANCH   8  10
HETATM   10  S   UNL     1      87.831 -40.820  64.044  1.00  0.00     0.259 S 
HETATM   11  O   UNL     1      88.326 -40.227  62.859  1.00  0.00    -0.201 OA
HETATM   12  O   UNL     1      87.107 -40.065  64.997  1.00  0.00    -0.201 OA
BRANCH  10  13
HETATM   13  C   UNL     1      89.072 -41.668  64.775  1.00  0.00     0.082 A 
HETATM   14  C   UNL     1      88.953 -42.199  66.102  1.00  0.00     0.028 A 
HETATM   15  C   UNL     1      89.997 -42.878  66.730  1.00  0.00     0.041 A 
HETATM   16  C   UNL     1      91.189 -43.066  66.009  1.00  0.00     0.098 A 
HETATM   17  C   UNL     1      91.282 -42.555  64.685  1.00  0.00     0.100 A 
HETATM   18  C   UNL     1      90.268 -41.859  64.097  1.00  0.00     0.064 A 
BRANCH  16  19
HETATM   19  O   UNL     1      92.170 -43.753  66.634  1.00  0.00    -0.358 OA
ATOM     20  HO  UNL     1      93.061 -43.557  66.369  1.00  0.00     0.217 HD
ENDBRANCH  16  19
BRANCH  17  21
HETATM   21  O   UNL     1      92.360 -42.892  63.949  1.00  0.00    -0.358 OA
ATOM     22  HO  UNL     1      92.444 -43.796  63.668  1.00  0.00     0.217 HD
ENDBRANCH  17  21
ENDBRANCH  10  13
ENDBRANCH   8  10
ENDBRANCH   7   8
ENDBRANCH   6   7
BRANCH   3  23
HETATM   23  S   UNL     1      83.201 -47.577  62.795  1.00  0.00     0.206 S 
HETATM   24  O   UNL     1      81.941 -47.026  63.074  1.00  0.00    -0.217 OA
HETATM   25  O   UNL     1      83.337 -48.411  61.640  1.00  0.00    -0.217 OA
BRANCH  23  26
HETATM   26  C   UNL     1      83.758 -48.445  64.135  1.00  0.00     0.067 A 
HETATM   27  C   UNL     1      85.071 -48.974  64.249  1.00  0.00     0.027 A 
HETATM   28  C   UNL     1      85.534 -49.645  65.398  1.00  0.00     0.041 A 
HETATM   29  C   UNL     1      84.635 -49.772  66.497  1.00  0.00     0.098 A 
HETATM   30  C   UNL     1      83.310 -49.247  66.376  1.00  0.00     0.100 A 
HETATM   31  C   UNL     1      82.889 -48.620  65.219  1.00  0.00     0.063 A 
BRANCH  29  32
HETATM   32  O   UNL     1      85.102 -50.365  67.617  1.00  0.00    -0.358 OA
ATOM     33  HO  UNL     1      84.467 -50.612  68.280  1.00  0.00     0.217 HD
ENDBRANCH  29  32
BRANCH  30  34
HETATM   34  O   UNL     1      82.516 -49.364  67.486  1.00  0.00    -0.358 OA
ATOM     35  HO  UNL     1      81.840 -48.704  67.585  1.00  0.00     0.217 HD
ENDBRANCH  30  34
ENDBRANCH  23  26
ENDBRANCH   3  23
TORSDOF 10
ENDMDL
MODEL 17
REMARK VINA RESULT:   -11.284      4.409      5.602
REMARK INTER + INTRA:         -17.478
REMARK INTER:                 -16.538
REMARK INTRA:                  -0.940
REMARK UNBOUND:                -0.917
REMARK  10 active torsions:
REMARK  status: ('A' for Active; 'I' for Inactive)
REMARK    1  A    between atoms: C_3  and  O_27 
REMARK    2  A    between atoms: C_7  and  O_8 
REMARK    3  A    between atoms: C_11  and  O_17 
REMARK    4  A    between atoms: C_13  and  S_34 
REMARK    5  A    between atoms: C_14  and  S_34 
REMARK    6  A    between atoms: C_19  and  C_24 
REMARK    7  A    between atoms: C_23  and  S_26 
REMARK    8  A    between atoms: C_24  and  N_32 
REMARK    9  A    between atoms: S_26  and  N_32 
REMARK   10  A    between atoms: C_29  and  O_30 
ROOT
HETATM    1  C   UNL     1      83.143 -46.216  64.208  1.00  0.00     0.010 A 
HETATM    2  C   UNL     1      82.038 -45.848  64.957  1.00  0.00     0.024 A 
HETATM    3  C   UNL     1      81.239 -46.796  65.545  1.00  0.00     0.064 A 
HETATM    4  C   UNL     1      81.575 -48.137  65.367  1.00  0.00     0.024 A 
HETATM    5  C   UNL     1      82.676 -48.519  64.626  1.00  0.00     0.010 A 
HETATM    6  C   UNL     1      83.469 -47.532  64.043  1.00  0.00    -0.040 A 
ENDROOT
BRANCH   6   7
HETATM    7  C   UNL     1      84.749 -47.741  63.265  1.00  0.00     0.170 C 
BRANCH   7   8
HETATM    8  N   UNL     1      85.351 -46.594  62.599  1.00  0.00    -0.311 N 
ATOM      9  HN  UNL     1      85.630 -45.788  63.159  1.00  0.00     0.172 HD
BRANCH   8  10
HETATM   10  S   UNL     1      85.596 -46.558  60.971  1.00  0.00     0.259 S 
HETATM   11  O   UNL     1      86.772 -47.288  60.680  1.00  0.00    -0.201 OA
HETATM   12  O   UNL     1      84.341 -46.948  60.448  1.00  0.00    -0.201 OA
BRANCH  10  13
HETATM   13  C   UNL     1      85.887 -44.939  60.677  1.00  0.00     0.082 A 
HETATM   14  C   UNL     1      86.631 -44.120  61.591  1.00  0.00     0.028 A 
HETATM   15  C   UNL     1      86.848 -42.760  61.367  1.00  0.00     0.041 A 
HETATM   16  C   UNL     1      86.340 -42.198  60.184  1.00  0.00     0.098 A 
HETATM   17  C   UNL     1      85.626 -43.028  59.277  1.00  0.00     0.100 A 
HETATM   18  C   UNL     1      85.387 -44.347  59.525  1.00  0.00     0.064 A 
BRANCH  16  19
HETATM   19  O   UNL     1      86.592 -40.886  59.984  1.00  0.00    -0.358 OA
ATOM     20  HO  UNL     1      86.944 -40.404  60.723  1.00  0.00     0.217 HD
ENDBRANCH  16  19
BRANCH  17  21
HETATM   21  O   UNL     1      85.298 -42.517  58.073  1.00  0.00    -0.358 OA
ATOM     22  HO  UNL     1      84.499 -42.008  58.007  1.00  0.00     0.217 HD
ENDBRANCH  17  21
ENDBRANCH  10  13
ENDBRANCH   8  10
ENDBRANCH   7   8
ENDBRANCH   6   7
BRANCH   3  23
HETATM   23  S   UNL     1      79.962 -46.313  66.466  1.00  0.00     0.206 S 
HETATM   24  O   UNL     1      79.315 -47.452  66.969  1.00  0.00    -0.217 OA
HETATM   25  O   UNL     1      80.403 -45.317  67.393  1.00  0.00    -0.217 OA
BRANCH  23  26
HETATM   26  C   UNL     1      78.981 -45.559  65.313  1.00  0.00     0.067 A 
HETATM   27  C   UNL     1      78.443 -44.252  65.461  1.00  0.00     0.027 A 
HETATM   28  C   UNL     1      77.676 -43.619  64.464  1.00  0.00     0.041 A 
HETATM   29  C   UNL     1      77.454 -44.329  63.248  1.00  0.00     0.098 A 
HETATM   30  C   UNL     1      77.989 -45.648  63.105  1.00  0.00     0.100 A 
HETATM   31  C   UNL     1      78.714 -46.242  64.120  1.00  0.00     0.063 A 
BRANCH  29  32
HETATM   32  O   UNL     1      76.767 -43.695  62.273  1.00  0.00    -0.358 OA
ATOM     33  HO  UNL     1      75.883 -43.409  62.475  1.00  0.00     0.217 HD
ENDBRANCH  29  32
BRANCH  30  34
HETATM   34  O   UNL     1      77.777 -46.253  61.894  1.00  0.00    -0.358 OA
ATOM     35  HO  UNL     1      76.875 -46.292  61.601  1.00  0.00     0.217 HD
ENDBRANCH  30  34
ENDBRANCH  23  26
ENDBRANCH   3  23
TORSDOF 10
ENDMDL
MODEL 18
REMARK VINA RESULT:   -11.261      4.372      9.464
REMARK INTER + INTRA:         -17.445
REMARK INTER:                 -16.532
REMARK INTRA:                  -0.914
REMARK UNBOUND:                -0.917
REMARK  10 active torsions:
REMARK  status: ('A' for Active; 'I' for Inactive)
REMARK    1  A    between atoms: C_3  and  O_27 
REMARK    2  A    between atoms: C_7  and  O_8 
REMARK    3  A    between atoms: C_11  and  O_17 
REMARK    4  A    between atoms: C_13  and  S_34 
REMARK    5  A    between atoms: C_14  and  S_34 
REMARK    6  A    between atoms: C_19  and  C_24 
REMARK    7  A    between atoms: C_23  and  S_26 
REMARK    8  A    between atoms: C_24  and  N_32 
REMARK    9  A    between atoms: S_26  and  N_32 
REMARK   10  A    between atoms: C_29  and  O_30 
ROOT
HETATM    1  C   UNL     1      86.035 -44.479  63.312  1.00  0.00     0.010 A 
HETATM    2  C   UNL     1      86.473 -43.289  63.870  1.00  0.00     0.024 A 
HETATM    3  C   UNL     1      87.069 -42.327  63.095  1.00  0.00     0.064 A 
HETATM    4  C   UNL     1      87.218 -42.583  61.732  1.00  0.00     0.024 A 
HETATM    5  C   UNL     1      86.783 -43.763  61.162  1.00  0.00     0.010 A 
HETATM    6  C   UNL     1      86.179 -44.721  61.977  1.00  0.00    -0.040 A 
ENDROOT
BRANCH   6   7
HETATM    7  C   UNL     1      85.573 -46.034  61.534  1.00  0.00     0.170 C 
BRANCH   7   8
HETATM    8  N   UNL     1      85.379 -47.078  62.530  1.00  0.00    -0.311 N 
ATOM      9  HN  UNL     1      86.196 -47.497  62.974  1.00  0.00     0.172 HD
BRANCH   8  10
HETATM   10  S   UNL     1      83.879 -47.604  62.963  1.00  0.00     0.259 S 
HETATM   11  O   UNL     1      83.095 -46.480  63.311  1.00  0.00    -0.201 OA
HETATM   12  O   UNL     1      83.513 -48.452  61.890  1.00  0.00    -0.201 OA
BRANCH  10  13
HETATM   13  C   UNL     1      84.183 -48.492  64.346  1.00  0.00     0.082 A 
HETATM   14  C   UNL     1      85.439 -49.151  64.567  1.00  0.00     0.028 A 
HETATM   15  C   UNL     1      85.686 -49.921  65.704  1.00  0.00     0.041 A 
HETATM   16  C   UNL     1      84.669 -50.017  66.669  1.00  0.00     0.098 A 
HETATM   17  C   UNL     1      83.440 -49.338  66.446  1.00  0.00     0.100 A 
HETATM   18  C   UNL     1      83.196 -48.620  65.314  1.00  0.00     0.064 A 
BRANCH  16  19
HETATM   19  O   UNL     1      84.951 -50.746  67.771  1.00  0.00    -0.358 OA
ATOM     20  HO  UNL     1      84.335 -50.682  68.491  1.00  0.00     0.217 HD
ENDBRANCH  16  19
BRANCH  17  21
HETATM   21  O   UNL     1      82.545 -49.298  67.454  1.00  0.00    -0.358 OA
ATOM     22  HO  UNL     1      82.170 -48.457  67.685  1.00  0.00     0.217 HD
ENDBRANCH  17  21
ENDBRANCH  10  13
ENDBRANCH   8  10
ENDBRANCH   7   8
ENDBRANCH   6   7
BRANCH   3  23
HETATM   23  S   UNL     1      87.532 -40.907  63.788  1.00  0.00     0.206 S 
HETATM   24  O   UNL     1      88.356 -40.215  62.889  1.00  0.00    -0.217 OA
HETATM   25  O   UNL     1      86.377 -40.239  64.304  1.00  0.00    -0.217 OA
BRANCH  23  26
HETATM   26  C   UNL     1      88.447 -41.456  65.100  1.00  0.00     0.067 A 
HETATM   27  C   UNL     1      88.155 -41.150  66.456  1.00  0.00     0.027 A 
HETATM   28  C   UNL     1      88.896 -41.664  67.538  1.00  0.00     0.041 A 
HETATM   29  C   UNL     1      89.976 -42.547  67.241  1.00  0.00     0.098 A 
HETATM   30  C   UNL     1      90.274 -42.845  65.874  1.00  0.00     0.100 A 
HETATM   31  C   UNL     1      89.538 -42.297  64.842  1.00  0.00     0.063 A 
BRANCH  29  32
HETATM   32  O   UNL     1      90.647 -43.082  68.284  1.00  0.00    -0.358 OA
ATOM     33  HO  UNL     1      90.160 -43.642  68.877  1.00  0.00     0.217 HD
ENDBRANCH  29  32
BRANCH  30  34
HETATM   34  O   UNL     1      91.294 -43.736  65.664  1.00  0.00    -0.358 OA
ATOM     35  HO  UNL     1      91.693 -44.102  66.444  1.00  0.00     0.217 HD
ENDBRANCH  30  34
ENDBRANCH  23  26
ENDBRANCH   3  23
TORSDOF 10
ENDMDL
MODEL 19
REMARK VINA RESULT:   -11.114      3.997      6.438
REMARK INTER + INTRA:         -17.228
REMARK INTER:                 -15.520
REMARK INTRA:                  -1.708
REMARK UNBOUND:                -0.917
REMARK  10 active torsions:
REMARK  status: ('A' for Active; 'I' for Inactive)
REMARK    1  A    between atoms: C_3  and  O_27 
REMARK    2  A    between atoms: C_7  and  O_8 
REMARK    3  A    between atoms: C_11  and  O_17 
REMARK    4  A    between atoms: C_13  and  S_34 
REMARK    5  A    between atoms: C_14  and  S_34 
REMARK    6  A    between atoms: C_19  and  C_24 
REMARK    7  A    between atoms: C_23  and  S_26 
REMARK    8  A    between atoms: C_24  and  N_32 
REMARK    9  A    between atoms: S_26  and  N_32 
REMARK   10  A    between atoms: C_29  and  O_30 
ROOT
HETATM    1  C   UNL     1      86.369 -44.007  61.034  1.00  0.00     0.010 A 
HETATM    2  C   UNL     1      85.854 -45.283  60.867  1.00  0.00     0.024 A 
HETATM    3  C   UNL     1      86.223 -46.304  61.705  1.00  0.00     0.064 A 
HETATM    4  C   UNL     1      87.128 -46.019  62.727  1.00  0.00     0.024 A 
HETATM    5  C   UNL     1      87.645 -44.751  62.908  1.00  0.00     0.010 A 
HETATM    6  C   UNL     1      87.249 -43.734  62.041  1.00  0.00    -0.040 A 
ENDROOT
BRANCH   6   7
HETATM    7  C   UNL     1      87.641 -42.275  62.117  1.00  0.00     0.170 C 
BRANCH   7   8
HETATM    8  N   UNL     1      86.764 -41.358  62.832  1.00  0.00    -0.311 N 
ATOM      9  HN  UNL     1      86.099 -40.795  62.302  1.00  0.00     0.172 HD
BRANCH   8  10
HETATM   10  S   UNL     1      86.813 -41.203  64.471  1.00  0.00     0.259 S 
HETATM   11  O   UNL     1      87.935 -41.916  64.954  1.00  0.00    -0.201 OA
HETATM   12  O   UNL     1      86.690 -39.807  64.666  1.00  0.00    -0.201 OA
BRANCH  10  13
HETATM   13  C   UNL     1      85.426 -41.997  64.960  1.00  0.00     0.082 A 
HETATM   14  C   UNL     1      85.080 -43.298  64.465  1.00  0.00     0.028 A 
HETATM   15  C   UNL     1      83.906 -43.951  64.843  1.00  0.00     0.041 A 
HETATM   16  C   UNL     1      83.061 -43.309  65.765  1.00  0.00     0.098 A 
HETATM   17  C   UNL     1      83.431 -42.029  66.263  1.00  0.00     0.100 A 
HETATM   18  C   UNL     1      84.561 -41.385  65.857  1.00  0.00     0.064 A 
BRANCH  16  19
HETATM   19  O   UNL     1      81.948 -43.980  66.132  1.00  0.00    -0.358 OA
ATOM     20  HO  UNL     1      81.190 -43.885  65.567  1.00  0.00     0.217 HD
ENDBRANCH  16  19
BRANCH  17  21
HETATM   21  O   UNL     1      82.703 -41.506  67.270  1.00  0.00    -0.358 OA
ATOM     22  HO  UNL     1      82.194 -42.101  67.809  1.00  0.00     0.217 HD
ENDBRANCH  17  21
ENDBRANCH  10  13
ENDBRANCH   8  10
ENDBRANCH   7   8
ENDBRANCH   6   7
BRANCH   3  23
HETATM   23  S   UNL     1      85.553 -47.794  61.502  1.00  0.00     0.206 S 
HETATM   24  O   UNL     1      84.806 -47.793  60.314  1.00  0.00    -0.217 OA
HETATM   25  O   UNL     1      86.566 -48.791  61.666  1.00  0.00    -0.217 OA
BRANCH  23  26
HETATM   26  C   UNL     1      84.513 -47.881  62.832  1.00  0.00     0.067 A 
HETATM   27  C   UNL     1      83.273 -47.191  62.918  1.00  0.00     0.027 A 
HETATM   28  C   UNL     1      82.394 -47.322  64.011  1.00  0.00     0.041 A 
HETATM   29  C   UNL     1      82.773 -48.206  65.063  1.00  0.00     0.098 A 
HETATM   30  C   UNL     1      84.026 -48.891  64.979  1.00  0.00     0.100 A 
HETATM   31  C   UNL     1      84.871 -48.712  63.901  1.00  0.00     0.063 A 
BRANCH  29  32
HETATM   32  O   UNL     1      81.900 -48.372  66.081  1.00  0.00    -0.358 OA
ATOM     33  HO  UNL     1      80.984 -48.195  65.905  1.00  0.00     0.217 HD
ENDBRANCH  29  32
BRANCH  30  34
HETATM   34  O   UNL     1      84.304 -49.759  66.002  1.00  0.00    -0.358 OA
ATOM     35  HO  UNL     1      84.276 -49.391  66.878  1.00  0.00     0.217 HD
ENDBRANCH  30  34
ENDBRANCH  23  26
ENDBRANCH   3  23
TORSDOF 10
ENDMDL
MODEL 20
REMARK VINA RESULT:   -11.008      4.336      9.789
REMARK INTER + INTRA:         -17.074
REMARK INTER:                 -16.362
REMARK INTRA:                  -0.712
REMARK UNBOUND:                -0.917
REMARK  10 active torsions:
REMARK  status: ('A' for Active; 'I' for Inactive)
REMARK    1  A    between atoms: C_3  and  O_27 
REMARK    2  A    between atoms: C_7  and  O_8 
REMARK    3  A    between atoms: C_11  and  O_17 
REMARK    4  A    between atoms: C_13  and  S_34 
REMARK    5  A    between atoms: C_14  and  S_34 
REMARK    6  A    between atoms: C_19  and  C_24 
REMARK    7  A    between atoms: C_23  and  S_26 
REMARK    8  A    between atoms: C_24  and  N_32 
REMARK    9  A    between atoms: S_26  and  N_32 
REMARK   10  A    between atoms: C_29  and  O_30 
ROOT
HETATM    1  C   UNL     1      83.055 -47.862  63.562  1.00  0.00     0.010 A 
HETATM    2  C   UNL     1      84.078 -47.789  62.632  1.00  0.00     0.024 A 
HETATM    3  C   UNL     1      84.862 -46.667  62.536  1.00  0.00     0.064 A 
HETATM    4  C   UNL     1      84.598 -45.608  63.404  1.00  0.00     0.024 A 
HETATM    5  C   UNL     1      83.584 -45.669  64.339  1.00  0.00     0.010 A 
HETATM    6  C   UNL     1      82.806 -46.824  64.412  1.00  0.00    -0.040 A 
ENDROOT
BRANCH   6   7
HETATM    7  C   UNL     1      81.707 -47.113  65.410  1.00  0.00     0.170 C 
BRANCH   7   8
HETATM    8  N   UNL     1      80.990 -45.989  65.997  1.00  0.00    -0.311 N 
ATOM      9  HN  UNL     1      81.482 -45.107  66.138  1.00  0.00     0.172 HD
BRANCH   8  10
HETATM   10  S   UNL     1      79.408 -46.099  66.441  1.00  0.00     0.259 S 
HETATM   11  O   UNL     1      79.207 -47.349  67.072  1.00  0.00    -0.201 OA
HETATM   12  O   UNL     1      79.181 -44.884  67.130  1.00  0.00    -0.201 OA
BRANCH  10  13
HETATM   13  C   UNL     1      78.611 -46.108  64.972  1.00  0.00     0.082 A 
HETATM   14  C   UNL     1      78.320 -44.899  64.256  1.00  0.00     0.028 A 
HETATM   15  C   UNL     1      77.625 -44.898  63.046  1.00  0.00     0.041 A 
HETATM   16  C   UNL     1      77.233 -46.137  62.510  1.00  0.00     0.098 A 
HETATM   17  C   UNL     1      77.551 -47.327  63.221  1.00  0.00     0.100 A 
HETATM   18  C   UNL     1      78.196 -47.313  64.421  1.00  0.00     0.064 A 
BRANCH  16  19
HETATM   19  O   UNL     1      76.588 -46.103  61.323  1.00  0.00    -0.358 OA
ATOM     20  HO  UNL     1      75.682 -46.388  61.325  1.00  0.00     0.217 HD
ENDBRANCH  16  19
BRANCH  17  21
HETATM   21  O   UNL     1      77.323 -48.509  62.612  1.00  0.00    -0.358 OA
ATOM     22  HO  UNL     1      77.940 -49.215  62.763  1.00  0.00     0.217 HD
ENDBRANCH  17  21
ENDBRANCH  10  13
ENDBRANCH   8  10
ENDBRANCH   7   8
ENDBRANCH   6   7
BRANCH   3  23
HETATM   23  S   UNL     1      86.098 -46.639  61.448  1.00  0.00     0.206 S 
HETATM   24  O   UNL     1      87.274 -47.050  62.093  1.00  0.00    -0.217 OA
HETATM   25  O   UNL     1      85.694 -47.331  60.263  1.00  0.00    -0.217 OA
BRANCH  23  26
HETATM   26  C   UNL     1      86.189 -44.989  61.085  1.00  0.00     0.067 A 
HETATM   27  C   UNL     1      86.935 -44.049  61.845  1.00  0.00     0.027 A 
HETATM   28  C   UNL     1      87.045 -42.690  61.493  1.00  0.00     0.041 A 
HETATM   29  C   UNL     1      86.386 -42.258  60.304  1.00  0.00     0.098 A 
HETATM   30  C   UNL     1      85.628 -43.205  59.546  1.00  0.00     0.100 A 
HETATM   31  C   UNL     1      85.524 -44.524  59.944  1.00  0.00     0.063 A 
BRANCH  29  32
HETATM   32  O   UNL     1      86.543 -40.967  59.939  1.00  0.00    -0.358 OA
ATOM     33  HO  UNL     1      86.923 -40.375  60.578  1.00  0.00     0.217 HD
ENDBRANCH  29  32
BRANCH  30  34
HETATM   34  O   UNL     1      85.060 -42.732  58.392  1.00  0.00    -0.358 OA
ATOM     35  HO  UNL     1      84.443 -42.018  58.496  1.00  0.00     0.217 HD
ENDBRANCH  30  34
ENDBRANCH  23  26
ENDBRANCH   3  23
TORSDOF 10
ENDMDL
