REMARK  0 active torsions:
REMARK  status: ('A' for Active; 'I' for Inactive)
ROOT
HETATM    1  C   UNL     1      12.682  21.700  40.269  1.00  0.00     0.050 C 
HETATM    2  C   UNL     1      14.062  21.749  40.925  1.00  0.00    -0.035 A 
HETATM    3  C   UNL     1      14.312  20.961  42.023  1.00  0.00     0.033 A 
HETATM    4  C   UNL     1      15.596  21.033  42.581  1.00  0.00     0.005 A 
HETATM    5  C   UNL     1      16.286  22.585  40.953  1.00  0.00     0.115 A 
HETATM    6  C   UNL     1      15.021  22.537  40.387  1.00  0.00     0.067 A 
HETATM    7  C   UNL     1      16.010  20.199  43.796  1.00  0.00     0.068 C 
HETATM    8  N   UNL     1      16.513  21.814  42.041  1.00  0.00    -0.368 N 
ATOM      9  HN  UNL     1      17.440  21.837  42.466  1.00  0.00     0.165 HD
HETATM   10  N   UNL     1      14.827  23.380  39.222  1.00  0.00    -0.100 NA
ENDROOT
TORSDOF 0
