MODEL 1
REMARK VINA RESULT:    -6.263      0.000      0.000
REMARK INTER + INTRA:          -9.895
REMARK INTER:                  -9.192
REMARK INTRA:                  -0.703
REMARK UNBOUND:                -0.703
REMARK  8 active torsions:
REMARK  status: ('A' for Active; 'I' for Inactive)
REMARK    1  A    between atoms: C_2  and  C_14 
REMARK    2  A    between atoms: C_11  and  C_12 
REMARK    3  A    between atoms: C_11  and  O_26 
REMARK    4  A    between atoms: C_12  and  C_16 
REMARK    5  A    between atoms: C_14  and  N_20 
REMARK    6  A    between atoms: O_26  and  P_29 
REMARK    7  A    between atoms: O_27  and  P_28 
REMARK    8  A    between atoms: O_27  and  P_29 
ROOT
HETATM    1  C   UNL     1      70.409 100.448  90.679  1.00  0.00     0.069 C 
HETATM    2  C   UNL     1      70.171 102.333  87.536  1.00  0.00     0.141 C 
HETATM    3  C   UNL     1      70.046 100.934  89.319  1.00  0.00     0.021 C 
HETATM    4  C   UNL     1      69.338 100.234  88.413  1.00  0.00     0.008 C 
HETATM    5  N   UNL     1      70.391 102.195  88.834  1.00  0.00    -0.349 N 
HETATM    6  S   UNL     1      69.131 101.118  86.945  1.00  0.00    -0.087 SA
ENDROOT
BRANCH   5   7
HETATM    7  C   UNL     1      70.899 103.310  89.644  1.00  0.00     0.172 C 
BRANCH   7   8
HETATM    8  C   UNL     1      72.396 103.513  89.478  1.00  0.00     0.019 A 
HETATM    9  C   UNL     1      72.968 104.544  88.674  1.00  0.00     0.109 A 
HETATM   10  N   UNL     1      72.191 105.370  87.937  1.00  0.00    -0.385 N 
HETATM   11  N   UNL     1      74.322 104.695  88.555  1.00  0.00    -0.332 N 
ATOM     12  HN2 UNL     1      71.181 105.257  88.026  1.00  0.00     0.157 HD
ATOM     13  HN1 UNL     1      72.599 106.106  87.362  1.00  0.00     0.157 HD
HETATM   14  C   UNL     1      75.103 103.841  89.237  1.00  0.00     0.078 A 
ATOM     15  HN  UNL     1      74.723 105.429  87.970  1.00  0.00     0.168 HD
HETATM   16  C   UNL     1      76.580 103.989  89.090  1.00  0.00     0.089 C 
HETATM   17  N   UNL     1      74.653 102.871  90.044  1.00  0.00    -0.355 N 
HETATM   18  C   UNL     1      73.309 102.730  90.152  1.00  0.00     0.102 A 
ATOM     19  HN  UNL     1      75.294 102.264  90.554  1.00  0.00     0.166 HD
ENDBRANCH   7   8
ENDBRANCH   5   7
BRANCH   4  20
HETATM   20  C   UNL     1      68.711  98.880  88.600  1.00  0.00     0.075 C 
BRANCH  20  21
HETATM   21  C   UNL     1      67.855  98.500  87.488  1.00  0.00     0.186 C 
BRANCH  21  22
HETATM   22  O   UNL     1      67.621  97.077  87.586  1.00  0.00    -0.289 OA
BRANCH  22  23
HETATM   23  P   UNL     1      66.183  96.486  87.301  1.00  0.00     0.418 P 
HETATM   24  O   UNL     1      65.142  97.537  87.472  1.00  0.00    -0.624 OA
HETATM   25  O   UNL     1      66.102  95.224  88.082  1.00  0.00    -0.624 OA
BRANCH  23  26
HETATM   26  O   UNL     1      66.219  96.108  85.746  1.00  0.00    -0.173 OA
BRANCH  26  27
HETATM   27  P   UNL     1      65.044  95.634  84.754  1.00  0.00     0.431 P 
HETATM   28  O   UNL     1      64.140  96.799  84.541  1.00  0.00    -0.616 OA
HETATM   29  O   UNL     1      65.683  95.252  83.438  1.00  0.00    -0.616 OA
HETATM   30  O   UNL     1      64.347  94.424  85.426  1.00  0.00    -0.616 OA
ENDBRANCH  26  27
ENDBRANCH  23  26
ENDBRANCH  22  23
ENDBRANCH  21  22
ENDBRANCH  20  21
ENDBRANCH   4  20
TORSDOF 8
ENDMDL
MODEL 2
REMARK VINA RESULT:    -6.216      2.417      3.421
REMARK INTER + INTRA:          -9.826
REMARK INTER:                 -10.166
REMARK INTRA:                   0.340
REMARK UNBOUND:                -0.703
REMARK  8 active torsions:
REMARK  status: ('A' for Active; 'I' for Inactive)
REMARK    1  A    between atoms: C_2  and  C_14 
REMARK    2  A    between atoms: C_11  and  C_12 
REMARK    3  A    between atoms: C_11  and  O_26 
REMARK    4  A    between atoms: C_12  and  C_16 
REMARK    5  A    between atoms: C_14  and  N_20 
REMARK    6  A    between atoms: O_26  and  P_29 
REMARK    7  A    between atoms: O_27  and  P_28 
REMARK    8  A    between atoms: O_27  and  P_29 
ROOT
HETATM    1  C   UNL     1      69.100 100.951  86.800  1.00  0.00     0.069 C 
HETATM    2  C   UNL     1      70.452 101.536  90.163  1.00  0.00     0.141 C 
HETATM    3  C   UNL     1      69.551 100.809  88.211  1.00  0.00     0.021 C 
HETATM    4  C   UNL     1      69.255  99.771  89.016  1.00  0.00     0.008 C 
HETATM    5  N   UNL     1      70.361 101.742  88.860  1.00  0.00    -0.349 N 
HETATM    6  S   UNL     1      69.941  99.966  90.587  1.00  0.00    -0.087 SA
ENDROOT
BRANCH   5   7
HETATM    7  C   UNL     1      71.101 102.828  88.205  1.00  0.00     0.172 C 
BRANCH   7   8
HETATM    8  C   UNL     1      70.446 104.183  88.410  1.00  0.00     0.019 A 
HETATM    9  C   UNL     1      69.674 104.847  87.409  1.00  0.00     0.109 A 
HETATM   10  N   UNL     1      69.543 104.327  86.168  1.00  0.00    -0.385 N 
HETATM   11  N   UNL     1      69.097 106.065  87.637  1.00  0.00    -0.332 N 
ATOM     12  HN2 UNL     1      69.974 103.418  85.999  1.00  0.00     0.157 HD
ATOM     13  HN1 UNL     1      68.992 104.801  85.452  1.00  0.00     0.157 HD
HETATM   14  C   UNL     1      69.271 106.617  88.849  1.00  0.00     0.078 A 
ATOM     15  HN  UNL     1      68.555 106.537  86.913  1.00  0.00     0.168 HD
HETATM   16  C   UNL     1      68.663 107.957  89.091  1.00  0.00     0.089 C 
HETATM   17  N   UNL     1      69.946 106.050  89.857  1.00  0.00    -0.355 N 
HETATM   18  C   UNL     1      70.516 104.842  89.620  1.00  0.00     0.102 A 
ATOM     19  HN  UNL     1      70.029 106.508  90.765  1.00  0.00     0.166 HD
ENDBRANCH   7   8
ENDBRANCH   5   7
BRANCH   4  20
HETATM   20  C   UNL     1      68.489  98.529  88.651  1.00  0.00     0.075 C 
BRANCH  20  21
HETATM   21  C   UNL     1      67.367  98.801  87.767  1.00  0.00     0.186 C 
BRANCH  21  22
HETATM   22  O   UNL     1      66.374  97.777  87.998  1.00  0.00    -0.289 OA
BRANCH  22  23
HETATM   23  P   UNL     1      66.437  96.412  87.204  1.00  0.00     0.418 P 
HETATM   24  O   UNL     1      66.144  95.266  88.108  1.00  0.00    -0.624 OA
HETATM   25  O   UNL     1      67.709  96.449  86.437  1.00  0.00    -0.624 OA
BRANCH  23  26
HETATM   26  O   UNL     1      65.225  96.511  86.163  1.00  0.00    -0.173 OA
BRANCH  26  27
HETATM   27  P   UNL     1      64.738  95.489  85.019  1.00  0.00     0.431 P 
HETATM   28  O   UNL     1      64.115  94.319  85.699  1.00  0.00    -0.616 OA
HETATM   29  O   UNL     1      63.691  96.197  84.189  1.00  0.00    -0.616 OA
HETATM   30  O   UNL     1      65.987  95.125  84.179  1.00  0.00    -0.616 OA
ENDBRANCH  26  27
ENDBRANCH  23  26
ENDBRANCH  22  23
ENDBRANCH  21  22
ENDBRANCH  20  21
ENDBRANCH   4  20
TORSDOF 8
ENDMDL
MODEL 3
REMARK VINA RESULT:    -6.183      3.190      4.620
REMARK INTER + INTRA:          -9.778
REMARK INTER:                  -9.172
REMARK INTRA:                  -0.606
REMARK UNBOUND:                -0.703
REMARK  8 active torsions:
REMARK  status: ('A' for Active; 'I' for Inactive)
REMARK    1  A    between atoms: C_2  and  C_14 
REMARK    2  A    between atoms: C_11  and  C_12 
REMARK    3  A    between atoms: C_11  and  O_26 
REMARK    4  A    between atoms: C_12  and  C_16 
REMARK    5  A    between atoms: C_14  and  N_20 
REMARK    6  A    between atoms: O_26  and  P_29 
REMARK    7  A    between atoms: O_27  and  P_28 
REMARK    8  A    between atoms: O_27  and  P_29 
ROOT
HETATM    1  C   UNL     1      69.042 103.882  89.434  1.00  0.00     0.069 C 
HETATM    2  C   UNL     1      71.803 104.067  87.020  1.00  0.00     0.141 C 
HETATM    3  C   UNL     1      69.943 103.688  88.267  1.00  0.00     0.021 C 
HETATM    4  C   UNL     1      69.843 102.687  87.372  1.00  0.00     0.008 C 
HETATM    5  N   UNL     1      70.998 104.546  87.955  1.00  0.00    -0.349 N 
HETATM    6  S   UNL     1      71.075 102.782  86.168  1.00  0.00    -0.087 SA
ENDROOT
BRANCH   5   7
HETATM    7  C   UNL     1      71.211 105.879  88.535  1.00  0.00     0.172 C 
BRANCH   7   8
HETATM    8  C   UNL     1      70.295 106.928  87.930  1.00  0.00     0.019 A 
HETATM    9  C   UNL     1      69.289 107.620  88.671  1.00  0.00     0.109 A 
HETATM   10  N   UNL     1      69.041 107.317  89.965  1.00  0.00    -0.385 N 
HETATM   11  N   UNL     1      68.487 108.562  88.089  1.00  0.00    -0.332 N 
ATOM     12  HN2 UNL     1      69.640 106.614  90.399  1.00  0.00     0.157 HD
ATOM     13  HN1 UNL     1      68.323 107.811  90.495  1.00  0.00     0.157 HD
HETATM   14  C   UNL     1      68.687 108.828  86.787  1.00  0.00     0.078 A 
ATOM     15  HN  UNL     1      67.765 109.045  88.623  1.00  0.00     0.168 HD
HETATM   16  C   UNL     1      67.798 109.838  86.144  1.00  0.00     0.089 C 
HETATM   17  N   UNL     1      69.630 108.256  86.026  1.00  0.00    -0.355 N 
HETATM   18  C   UNL     1      70.418 107.322  86.614  1.00  0.00     0.102 A 
ATOM     19  HN  UNL     1      69.749 108.512  85.047  1.00  0.00     0.166 HD
ENDBRANCH   7   8
ENDBRANCH   5   7
BRANCH   4  20
HETATM   20  C   UNL     1      68.782 101.623  87.315  1.00  0.00     0.075 C 
BRANCH  20  21
HETATM   21  C   UNL     1      69.251 100.336  87.802  1.00  0.00     0.186 C 
BRANCH  21  22
HETATM   22  O   UNL     1      68.461  99.312  87.156  1.00  0.00    -0.289 OA
BRANCH  22  23
HETATM   23  P   UNL     1      68.091  97.985  87.931  1.00  0.00     0.418 P 
HETATM   24  O   UNL     1      67.162  98.278  89.057  1.00  0.00    -0.624 OA
HETATM   25  O   UNL     1      69.381  97.295  88.191  1.00  0.00    -0.624 OA
BRANCH  23  26
HETATM   26  O   UNL     1      67.273  97.124  86.858  1.00  0.00    -0.173 OA
BRANCH  26  27
HETATM   27  P   UNL     1      65.904  96.290  87.006  1.00  0.00     0.431 P 
HETATM   28  O   UNL     1      64.810  97.266  87.270  1.00  0.00    -0.616 OA
HETATM   29  O   UNL     1      65.646  95.598  85.687  1.00  0.00    -0.616 OA
HETATM   30  O   UNL     1      66.118  95.274  88.155  1.00  0.00    -0.616 OA
ENDBRANCH  26  27
ENDBRANCH  23  26
ENDBRANCH  22  23
ENDBRANCH  21  22
ENDBRANCH  20  21
ENDBRANCH   4  20
TORSDOF 8
ENDMDL
MODEL 4
REMARK VINA RESULT:    -6.140      3.527      4.327
REMARK INTER + INTRA:          -9.715
REMARK INTER:                  -9.143
REMARK INTRA:                  -0.572
REMARK UNBOUND:                -0.703
REMARK  8 active torsions:
REMARK  status: ('A' for Active; 'I' for Inactive)
REMARK    1  A    between atoms: C_2  and  C_14 
REMARK    2  A    between atoms: C_11  and  C_12 
REMARK    3  A    between atoms: C_11  and  O_26 
REMARK    4  A    between atoms: C_12  and  C_16 
REMARK    5  A    between atoms: C_14  and  N_20 
REMARK    6  A    between atoms: O_26  and  P_29 
REMARK    7  A    between atoms: O_27  and  P_28 
REMARK    8  A    between atoms: O_27  and  P_29 
ROOT
HETATM    1  C   UNL     1      69.218  97.025  92.253  1.00  0.00     0.069 C 
HETATM    2  C   UNL     1      70.883 100.036  90.973  1.00  0.00     0.141 C 
HETATM    3  C   UNL     1      69.591  98.241  91.481  1.00  0.00     0.021 C 
HETATM    4  C   UNL     1      69.048  98.604  90.303  1.00  0.00     0.008 C 
HETATM    5  N   UNL     1      70.547  99.163  91.908  1.00  0.00    -0.349 N 
HETATM    6  S   UNL     1      69.746 100.063  89.703  1.00  0.00    -0.087 SA
ENDROOT
BRANCH   5   7
HETATM    7  C   UNL     1      71.115  99.236  93.260  1.00  0.00     0.172 C 
BRANCH   7   8
HETATM    8  C   UNL     1      72.634  99.246  93.252  1.00  0.00     0.019 A 
HETATM    9  C   UNL     1      73.429  98.134  92.838  1.00  0.00     0.109 A 
HETATM   10  N   UNL     1      72.859  96.957  92.494  1.00  0.00    -0.385 N 
HETATM   11  N   UNL     1      74.795  98.186  92.840  1.00  0.00    -0.332 N 
ATOM     12  HN2 UNL     1      71.840  96.919  92.491  1.00  0.00     0.157 HD
ATOM     13  HN1 UNL     1      73.426  96.163  92.198  1.00  0.00     0.157 HD
HETATM   14  C   UNL     1      75.371  99.333  93.238  1.00  0.00     0.078 A 
ATOM     15  HN  UNL     1      75.355  97.384  92.552  1.00  0.00     0.168 HD
HETATM   16  C   UNL     1      76.861  99.383  93.265  1.00  0.00     0.089 C 
HETATM   17  N   UNL     1      74.705 100.436  93.606  1.00  0.00    -0.355 N 
HETATM   18  C   UNL     1      73.350 100.372  93.600  1.00  0.00     0.102 A 
ATOM     19  HN  UNL     1      75.196 101.286  93.879  1.00  0.00     0.166 HD
ENDBRANCH   7   8
ENDBRANCH   5   7
BRANCH   4  20
HETATM   20  C   UNL     1      67.926  97.921  89.572  1.00  0.00     0.075 C 
BRANCH  20  21
HETATM   21  C   UNL     1      67.958  98.167  88.139  1.00  0.00     0.186 C 
BRANCH  21  22
HETATM   22  O   UNL     1      67.693  96.910  87.477  1.00  0.00    -0.289 OA
BRANCH  22  23
HETATM   23  P   UNL     1      66.205  96.435  87.236  1.00  0.00     0.418 P 
HETATM   24  O   UNL     1      65.260  97.574  87.400  1.00  0.00    -0.624 OA
HETATM   25  O   UNL     1      66.036  95.204  88.051  1.00  0.00    -0.624 OA
BRANCH  23  26
HETATM   26  O   UNL     1      66.175  96.018  85.691  1.00  0.00    -0.173 OA
BRANCH  26  27
HETATM   27  P   UNL     1      64.951  95.563  84.751  1.00  0.00     0.431 P 
HETATM   28  O   UNL     1      64.275  94.414  85.418  1.00  0.00    -0.616 OA
HETATM   29  O   UNL     1      63.986  96.724  84.661  1.00  0.00    -0.616 OA
HETATM   30  O   UNL     1      65.553  95.209  83.368  1.00  0.00    -0.616 OA
ENDBRANCH  26  27
ENDBRANCH  23  26
ENDBRANCH  22  23
ENDBRANCH  21  22
ENDBRANCH  20  21
ENDBRANCH   4  20
TORSDOF 8
ENDMDL
MODEL 5
REMARK VINA RESULT:    -6.122      5.640      6.667
REMARK INTER + INTRA:          -9.689
REMARK INTER:                  -9.323
REMARK INTRA:                  -0.365
REMARK UNBOUND:                -0.703
REMARK  8 active torsions:
REMARK  status: ('A' for Active; 'I' for Inactive)
REMARK    1  A    between atoms: C_2  and  C_14 
REMARK    2  A    between atoms: C_11  and  C_12 
REMARK    3  A    between atoms: C_11  and  O_26 
REMARK    4  A    between atoms: C_12  and  C_16 
REMARK    5  A    between atoms: C_14  and  N_20 
REMARK    6  A    between atoms: O_26  and  P_29 
REMARK    7  A    between atoms: O_27  and  P_28 
REMARK    8  A    between atoms: O_27  and  P_29 
ROOT
HETATM    1  C   UNL     1      68.390  98.887  87.621  1.00  0.00     0.069 C 
HETATM    2  C   UNL     1      70.005 101.912  88.935  1.00  0.00     0.141 C 
HETATM    3  C   UNL     1      69.143  99.869  88.447  1.00  0.00     0.021 C 
HETATM    4  C   UNL     1      69.528  99.671  89.723  1.00  0.00     0.008 C 
HETATM    5  N   UNL     1      69.557 101.116  87.978  1.00  0.00    -0.349 N 
HETATM    6  S   UNL     1      70.365 101.041  90.356  1.00  0.00    -0.087 SA
ENDROOT
BRANCH   5   7
HETATM    7  C   UNL     1      69.566 101.535  86.570  1.00  0.00     0.172 C 
BRANCH   7   8
HETATM    8  C   UNL     1      70.356 102.815  86.351  1.00  0.00     0.019 A 
HETATM    9  C   UNL     1      69.759 104.111  86.299  1.00  0.00     0.109 A 
HETATM   10  N   UNL     1      68.418 104.267  86.368  1.00  0.00    -0.385 N 
HETATM   11  N   UNL     1      70.507 105.239  86.104  1.00  0.00    -0.332 N 
ATOM     12  HN2 UNL     1      67.861 103.426  86.513  1.00  0.00     0.157 HD
ATOM     13  HN1 UNL     1      67.992 105.193  86.331  1.00  0.00     0.157 HD
HETATM   14  C   UNL     1      71.836 105.088  85.975  1.00  0.00     0.078 A 
ATOM     15  HN  UNL     1      70.072 106.161  86.059  1.00  0.00     0.168 HD
HETATM   16  C   UNL     1      72.651 106.314  85.739  1.00  0.00     0.089 C 
HETATM   17  N   UNL     1      72.483 103.917  86.049  1.00  0.00    -0.355 N 
HETATM   18  C   UNL     1      71.730 102.804  86.241  1.00  0.00     0.102 A 
ATOM     19  HN  UNL     1      73.497 103.864  85.964  1.00  0.00     0.166 HD
ENDBRANCH   7   8
ENDBRANCH   5   7
BRANCH   4  20
HETATM   20  C   UNL     1      69.353  98.421  90.540  1.00  0.00     0.075 C 
BRANCH  20  21
HETATM   21  C   UNL     1      70.619  97.832  90.944  1.00  0.00     0.186 C 
BRANCH  21  22
HETATM   22  O   UNL     1      70.608  97.722  92.385  1.00  0.00    -0.289 OA
BRANCH  22  23
HETATM   23  P   UNL     1      71.353  96.524  93.097  1.00  0.00     0.418 P 
HETATM   24  O   UNL     1      72.452  97.032  93.963  1.00  0.00    -0.624 OA
HETATM   25  O   UNL     1      71.645  95.535  92.027  1.00  0.00    -0.624 OA
BRANCH  23  26
HETATM   26  O   UNL     1      70.243  95.897  94.065  1.00  0.00    -0.173 OA
BRANCH  26  27
HETATM   27  P   UNL     1      70.266  94.559  94.960  1.00  0.00     0.431 P 
HETATM   28  O   UNL     1      71.690  94.254  95.275  1.00  0.00    -0.616 OA
HETATM   29  O   UNL     1      69.525  94.856  96.245  1.00  0.00    -0.616 OA
HETATM   30  O   UNL     1      69.563  93.453  94.134  1.00  0.00    -0.616 OA
ENDBRANCH  26  27
ENDBRANCH  23  26
ENDBRANCH  22  23
ENDBRANCH  21  22
ENDBRANCH  20  21
ENDBRANCH   4  20
TORSDOF 8
ENDMDL
MODEL 6
REMARK VINA RESULT:    -6.053      1.619      2.337
REMARK INTER + INTRA:          -9.587
REMARK INTER:                  -8.936
REMARK INTRA:                  -0.651
REMARK UNBOUND:                -0.703
REMARK  8 active torsions:
REMARK  status: ('A' for Active; 'I' for Inactive)
REMARK    1  A    between atoms: C_2  and  C_14 
REMARK    2  A    between atoms: C_11  and  C_12 
REMARK    3  A    between atoms: C_11  and  O_26 
REMARK    4  A    between atoms: C_12  and  C_16 
REMARK    5  A    between atoms: C_14  and  N_20 
REMARK    6  A    between atoms: O_26  and  P_29 
REMARK    7  A    between atoms: O_27  and  P_28 
REMARK    8  A    between atoms: O_27  and  P_29 
ROOT
HETATM    1  C   UNL     1      69.520 101.587  88.127  1.00  0.00     0.069 C 
HETATM    2  C   UNL     1      70.089 100.174  91.468  1.00  0.00     0.141 C 
HETATM    3  C   UNL     1      69.707 100.674  89.287  1.00  0.00     0.021 C 
HETATM    4  C   UNL     1      69.427  99.357  89.286  1.00  0.00     0.008 C 
HETATM    5  N   UNL     1      70.219 101.085  90.518  1.00  0.00    -0.349 N 
HETATM    6  S   UNL     1      69.759  98.634  90.817  1.00  0.00    -0.087 SA
ENDROOT
BRANCH   5   7
HETATM    7  C   UNL     1      70.892 102.365  90.775  1.00  0.00     0.172 C 
BRANCH   7   8
HETATM    8  C   UNL     1      72.389 102.295  90.521  1.00  0.00     0.019 A 
HETATM    9  C   UNL     1      73.341 101.914  91.515  1.00  0.00     0.109 A 
HETATM   10  N   UNL     1      72.960 101.661  92.787  1.00  0.00    -0.385 N 
HETATM   11  N   UNL     1      74.680 101.860  91.243  1.00  0.00    -0.332 N 
ATOM     12  HN2 UNL     1      71.962 101.702  92.989  1.00  0.00     0.157 HD
ATOM     13  HN1 UNL     1      73.640 101.389  93.497  1.00  0.00     0.157 HD
HETATM   14  C   UNL     1      75.073 102.167  89.996  1.00  0.00     0.078 A 
ATOM     15  HN  UNL     1      75.354 101.596  91.962  1.00  0.00     0.168 HD
HETATM   16  C   UNL     1      76.535 102.132  89.705  1.00  0.00     0.089 C 
HETATM   17  N   UNL     1      74.248 102.498  88.994  1.00  0.00    -0.355 N 
HETATM   18  C   UNL     1      72.922 102.550  89.275  1.00  0.00     0.102 A 
ATOM     19  HN  UNL     1      74.601 102.702  88.060  1.00  0.00     0.166 HD
ENDBRANCH   7   8
ENDBRANCH   5   7
BRANCH   4  20
HETATM   20  C   UNL     1      68.952  98.531  88.123  1.00  0.00     0.075 C 
BRANCH  20  21
HETATM   21  C   UNL     1      67.610  98.006  88.319  1.00  0.00     0.186 C 
BRANCH  21  22
HETATM   22  O   UNL     1      67.329  97.110  87.220  1.00  0.00    -0.289 OA
BRANCH  22  23
HETATM   23  P   UNL     1      65.884  96.494  87.046  1.00  0.00     0.418 P 
HETATM   24  O   UNL     1      64.842  97.543  87.225  1.00  0.00    -0.624 OA
HETATM   25  O   UNL     1      65.861  95.270  87.889  1.00  0.00    -0.624 OA
BRANCH  23  26
HETATM   26  O   UNL     1      65.836  96.043  85.511  1.00  0.00    -0.173 OA
BRANCH  26  27
HETATM   27  P   UNL     1      64.618  95.488  84.618  1.00  0.00     0.431 P 
HETATM   28  O   UNL     1      63.639  96.599  84.454  1.00  0.00    -0.616 OA
HETATM   29  O   UNL     1      65.177  95.115  83.263  1.00  0.00    -0.616 OA
HETATM   30  O   UNL     1      64.040  94.257  85.359  1.00  0.00    -0.616 OA
ENDBRANCH  26  27
ENDBRANCH  23  26
ENDBRANCH  22  23
ENDBRANCH  21  22
ENDBRANCH  20  21
ENDBRANCH   4  20
TORSDOF 8
ENDMDL
MODEL 7
REMARK VINA RESULT:    -5.925      5.193      6.377
REMARK INTER + INTRA:          -9.399
REMARK INTER:                  -8.961
REMARK INTRA:                  -0.438
REMARK UNBOUND:                -0.703
REMARK  8 active torsions:
REMARK  status: ('A' for Active; 'I' for Inactive)
REMARK    1  A    between atoms: C_2  and  C_14 
REMARK    2  A    between atoms: C_11  and  C_12 
REMARK    3  A    between atoms: C_11  and  O_26 
REMARK    4  A    between atoms: C_12  and  C_16 
REMARK    5  A    between atoms: C_14  and  N_20 
REMARK    6  A    between atoms: O_26  and  P_29 
REMARK    7  A    between atoms: O_27  and  P_28 
REMARK    8  A    between atoms: O_27  and  P_29 
ROOT
HETATM    1  C   UNL     1      68.440  99.355  87.636  1.00  0.00     0.069 C 
HETATM    2  C   UNL     1      70.065 102.352  89.003  1.00  0.00     0.141 C 
HETATM    3  C   UNL     1      69.247 100.309  88.446  1.00  0.00     0.021 C 
HETATM    4  C   UNL     1      69.805 100.029  89.639  1.00  0.00     0.008 C 
HETATM    5  N   UNL     1      69.534 101.613  88.042  1.00  0.00    -0.349 N 
HETATM    6  S   UNL     1      70.650 101.388  90.282  1.00  0.00    -0.087 SA
ENDROOT
BRANCH   5   7
HETATM    7  C   UNL     1      69.338 102.148  86.688  1.00  0.00     0.172 C 
BRANCH   7   8
HETATM    8  C   UNL     1      70.229 103.345  86.403  1.00  0.00     0.019 A 
HETATM    9  C   UNL     1      71.526 103.242  85.815  1.00  0.00     0.109 A 
HETATM   10  N   UNL     1      72.076 102.037  85.543  1.00  0.00    -0.385 N 
HETATM   11  N   UNL     1      72.295 104.346  85.570  1.00  0.00    -0.332 N 
ATOM     12  HN2 UNL     1      71.503 101.214  85.725  1.00  0.00     0.157 HD
ATOM     13  HN1 UNL     1      73.003 101.963  85.123  1.00  0.00     0.157 HD
HETATM   14  C   UNL     1      71.779 105.544  85.893  1.00  0.00     0.078 A 
ATOM     15  HN  UNL     1      73.224 104.263  85.159  1.00  0.00     0.168 HD
HETATM   16  C   UNL     1      72.625 106.748  85.649  1.00  0.00     0.089 C 
HETATM   17  N   UNL     1      70.559 105.737  86.412  1.00  0.00    -0.355 N 
HETATM   18  C   UNL     1      69.806 104.634  86.651  1.00  0.00     0.102 A 
ATOM     19  HN  UNL     1      70.212 106.673  86.618  1.00  0.00     0.166 HD
ENDBRANCH   7   8
ENDBRANCH   5   7
BRANCH   4  20
HETATM   20  C   UNL     1      69.799  98.707  90.356  1.00  0.00     0.075 C 
BRANCH  20  21
HETATM   21  C   UNL     1      68.828  98.659  91.437  1.00  0.00     0.186 C 
BRANCH  21  22
HETATM   22  O   UNL     1      69.030  97.417  92.148  1.00  0.00    -0.289 OA
BRANCH  22  23
HETATM   23  P   UNL     1      69.223  97.420  93.717  1.00  0.00     0.418 P 
HETATM   24  O   UNL     1      67.951  97.783  94.400  1.00  0.00    -0.624 OA
HETATM   25  O   UNL     1      70.456  98.209  93.971  1.00  0.00    -0.624 OA
BRANCH  23  26
HETATM   26  O   UNL     1      69.528  95.890  94.074  1.00  0.00    -0.173 OA
BRANCH  26  27
HETATM   27  P   UNL     1      70.899  95.049  94.002  1.00  0.00     0.431 P 
HETATM   28  O   UNL     1      71.556  95.372  92.704  1.00  0.00    -0.616 OA
HETATM   29  O   UNL     1      71.782  95.516  95.137  1.00  0.00    -0.616 OA
HETATM   30  O   UNL     1      70.518  93.555  94.148  1.00  0.00    -0.616 OA
ENDBRANCH  26  27
ENDBRANCH  23  26
ENDBRANCH  22  23
ENDBRANCH  21  22
ENDBRANCH  20  21
ENDBRANCH   4  20
TORSDOF 8
ENDMDL
MODEL 8
REMARK VINA RESULT:    -5.864      2.989      4.302
REMARK INTER + INTRA:          -9.309
REMARK INTER:                  -9.168
REMARK INTRA:                  -0.142
REMARK UNBOUND:                -0.703
REMARK  8 active torsions:
REMARK  status: ('A' for Active; 'I' for Inactive)
REMARK    1  A    between atoms: C_2  and  C_14 
REMARK    2  A    between atoms: C_11  and  C_12 
REMARK    3  A    between atoms: C_11  and  O_26 
REMARK    4  A    between atoms: C_12  and  C_16 
REMARK    5  A    between atoms: C_14  and  N_20 
REMARK    6  A    between atoms: O_26  and  P_29 
REMARK    7  A    between atoms: O_27  and  P_28 
REMARK    8  A    between atoms: O_27  and  P_29 
ROOT
HETATM    1  C   UNL     1      69.978 100.593  89.197  1.00  0.00     0.069 C 
HETATM    2  C   UNL     1      68.889  99.025  92.334  1.00  0.00     0.141 C 
HETATM    3  C   UNL     1      69.501  99.641  90.236  1.00  0.00     0.021 C 
HETATM    4  C   UNL     1      68.969  98.429  89.987  1.00  0.00     0.008 C 
HETATM    5  N   UNL     1      69.570  99.895  91.606  1.00  0.00    -0.349 N 
HETATM    6  S   UNL     1      68.516  97.620  91.442  1.00  0.00    -0.087 SA
ENDROOT
BRANCH   5   7
HETATM    7  C   UNL     1      70.347 100.972  92.234  1.00  0.00     0.172 C 
BRANCH   7   8
HETATM    8  C   UNL     1      69.570 102.274  92.322  1.00  0.00     0.019 A 
HETATM    9  C   UNL     1      69.914 103.450  91.589  1.00  0.00     0.109 A 
HETATM   10  N   UNL     1      71.022 103.492  90.816  1.00  0.00    -0.385 N 
HETATM   11  N   UNL     1      69.184 104.601  91.693  1.00  0.00    -0.332 N 
ATOM     12  HN2 UNL     1      71.567 102.633  90.738  1.00  0.00     0.157 HD
ATOM     13  HN1 UNL     1      71.269 104.332  90.292  1.00  0.00     0.157 HD
HETATM   14  C   UNL     1      68.114 104.586  92.505  1.00  0.00     0.078 A 
ATOM     15  HN  UNL     1      69.443 105.440  91.173  1.00  0.00     0.168 HD
HETATM   16  C   UNL     1      67.331 105.848  92.639  1.00  0.00     0.089 C 
HETATM   17  N   UNL     1      67.697 103.519  93.200  1.00  0.00    -0.355 N 
HETATM   18  C   UNL     1      68.429 102.383  93.090  1.00  0.00     0.102 A 
ATOM     19  HN  UNL     1      66.864 103.560  93.786  1.00  0.00     0.166 HD
ENDBRANCH   7   8
ENDBRANCH   5   7
BRANCH   4  20
HETATM   20  C   UNL     1      68.817  97.763  88.647  1.00  0.00     0.075 C 
BRANCH  20  21
HETATM   21  C   UNL     1      67.778  98.371  87.833  1.00  0.00     0.186 C 
BRANCH  21  22
HETATM   22  O   UNL     1      66.589  97.560  87.967  1.00  0.00    -0.289 OA
BRANCH  22  23
HETATM   23  P   UNL     1      66.461  96.199  87.174  1.00  0.00     0.418 P 
HETATM   24  O   UNL     1      66.073  95.093  88.093  1.00  0.00    -0.624 OA
HETATM   25  O   UNL     1      67.697  96.088  86.357  1.00  0.00    -0.624 OA
BRANCH  23  26
HETATM   26  O   UNL     1      65.228  96.440  86.183  1.00  0.00    -0.173 OA
BRANCH  26  27
HETATM   27  P   UNL     1      64.734  95.605  84.899  1.00  0.00     0.431 P 
HETATM   28  O   UNL     1      64.141  94.331  85.393  1.00  0.00    -0.616 OA
HETATM   29  O   UNL     1      63.662  96.419  84.209  1.00  0.00    -0.616 OA
HETATM   30  O   UNL     1      65.972  95.401  83.991  1.00  0.00    -0.616 OA
ENDBRANCH  26  27
ENDBRANCH  23  26
ENDBRANCH  22  23
ENDBRANCH  21  22
ENDBRANCH  20  21
ENDBRANCH   4  20
TORSDOF 8
ENDMDL
MODEL 9
REMARK VINA RESULT:    -5.826      8.724     10.458
REMARK INTER + INTRA:          -9.253
REMARK INTER:                  -8.426
REMARK INTRA:                  -0.827
REMARK UNBOUND:                -0.703
REMARK  8 active torsions:
REMARK  status: ('A' for Active; 'I' for Inactive)
REMARK    1  A    between atoms: C_2  and  C_14 
REMARK    2  A    between atoms: C_11  and  C_12 
REMARK    3  A    between atoms: C_11  and  O_26 
REMARK    4  A    between atoms: C_12  and  C_16 
REMARK    5  A    between atoms: C_14  and  N_20 
REMARK    6  A    between atoms: O_26  and  P_29 
REMARK    7  A    between atoms: O_27  and  P_28 
REMARK    8  A    between atoms: O_27  and  P_29 
ROOT
HETATM    1  C   UNL     1      71.393 104.721  85.626  1.00  0.00     0.069 C 
HETATM    2  C   UNL     1      71.436 105.937  89.091  1.00  0.00     0.141 C 
HETATM    3  C   UNL     1      71.716 105.425  86.897  1.00  0.00     0.021 C 
HETATM    4  C   UNL     1      72.844 106.122  87.129  1.00  0.00     0.008 C 
HETATM    5  N   UNL     1      70.863 105.456  88.000  1.00  0.00    -0.349 N 
HETATM    6  S   UNL     1      72.870 106.782  88.722  1.00  0.00    -0.087 SA
ENDROOT
BRANCH   5   7
HETATM    7  C   UNL     1      69.448 105.058  87.994  1.00  0.00     0.172 C 
BRANCH   7   8
HETATM    8  C   UNL     1      69.270 103.551  87.918  1.00  0.00     0.019 A 
HETATM    9  C   UNL     1      68.410 102.905  86.979  1.00  0.00     0.109 A 
HETATM   10  N   UNL     1      67.631 103.620  86.136  1.00  0.00    -0.385 N 
HETATM   11  N   UNL     1      68.281 101.544  86.940  1.00  0.00    -0.332 N 
ATOM     12  HN2 UNL     1      67.728 104.635  86.165  1.00  0.00     0.157 HD
ATOM     13  HN1 UNL     1      67.017 103.159  85.465  1.00  0.00     0.157 HD
HETATM   14  C   UNL     1      69.007 100.828  87.814  1.00  0.00     0.078 A 
ATOM     15  HN  UNL     1      67.657 101.091  86.272  1.00  0.00     0.168 HD
HETATM   16  C   UNL     1      68.850  99.345  87.790  1.00  0.00     0.089 C 
HETATM   17  N   UNL     1      69.865 101.347  88.702  1.00  0.00    -0.355 N 
HETATM   18  C   UNL     1      69.984 102.698  88.732  1.00  0.00     0.102 A 
ATOM     19  HN  UNL     1      70.406 100.752  89.329  1.00  0.00     0.166 HD
ENDBRANCH   7   8
ENDBRANCH   5   7
BRANCH   4  20
HETATM   20  C   UNL     1      73.957 106.397  86.155  1.00  0.00     0.075 C 
BRANCH  20  21
HETATM   21  C   UNL     1      73.888 107.734  85.588  1.00  0.00     0.186 C 
BRANCH  21  22
HETATM   22  O   UNL     1      72.981 107.683  84.463  1.00  0.00    -0.289 OA
BRANCH  22  23
HETATM   23  P   UNL     1      73.517 107.301  83.026  1.00  0.00     0.418 P 
HETATM   24  O   UNL     1      73.148 105.900  82.685  1.00  0.00    -0.624 OA
HETATM   25  O   UNL     1      74.941 107.724  82.999  1.00  0.00    -0.624 OA
BRANCH  23  26
HETATM   26  O   UNL     1      72.696 108.257  82.039  1.00  0.00    -0.173 OA
BRANCH  26  27
HETATM   27  P   UNL     1      73.087 109.672  81.381  1.00  0.00     0.431 P 
HETATM   28  O   UNL     1      74.139 109.416  80.357  1.00  0.00    -0.616 OA
HETATM   29  O   UNL     1      71.852 110.217  80.700  1.00  0.00    -0.616 OA
HETATM   30  O   UNL     1      73.558 110.591  82.536  1.00  0.00    -0.616 OA
ENDBRANCH  26  27
ENDBRANCH  23  26
ENDBRANCH  22  23
ENDBRANCH  21  22
ENDBRANCH  20  21
ENDBRANCH   4  20
TORSDOF 8
ENDMDL
MODEL 10
REMARK VINA RESULT:    -5.816      4.048      5.892
REMARK INTER + INTRA:          -9.239
REMARK INTER:                  -9.191
REMARK INTRA:                  -0.049
REMARK UNBOUND:                -0.703
REMARK  8 active torsions:
REMARK  status: ('A' for Active; 'I' for Inactive)
REMARK    1  A    between atoms: C_2  and  C_14 
REMARK    2  A    between atoms: C_11  and  C_12 
REMARK    3  A    between atoms: C_11  and  O_26 
REMARK    4  A    between atoms: C_12  and  C_16 
REMARK    5  A    between atoms: C_14  and  N_20 
REMARK    6  A    between atoms: O_26  and  P_29 
REMARK    7  A    between atoms: O_27  and  P_28 
REMARK    8  A    between atoms: O_27  and  P_29 
ROOT
HETATM    1  C   UNL     1      70.234 100.238  90.082  1.00  0.00     0.069 C 
HETATM    2  C   UNL     1      68.420  98.339  92.648  1.00  0.00     0.141 C 
HETATM    3  C   UNL     1      69.461  99.209  90.828  1.00  0.00     0.021 C 
HETATM    4  C   UNL     1      68.820  98.166  90.265  1.00  0.00     0.008 C 
HETATM    5  N   UNL     1      69.328  99.199  92.216  1.00  0.00    -0.349 N 
HETATM    6  S   UNL     1      68.019  97.197  91.447  1.00  0.00    -0.087 SA
ENDROOT
BRANCH   5   7
HETATM    7  C   UNL     1      70.124 100.002  93.153  1.00  0.00     0.172 C 
BRANCH   7   8
HETATM    8  C   UNL     1      69.455 100.144  94.510  1.00  0.00     0.019 A 
HETATM    9  C   UNL     1      68.444 101.111  94.795  1.00  0.00     0.109 A 
HETATM   10  N   UNL     1      68.072 102.026  93.872  1.00  0.00    -0.385 N 
HETATM   11  N   UNL     1      67.864 101.203  96.029  1.00  0.00    -0.332 N 
ATOM     12  HN2 UNL     1      68.505 101.958  92.951  1.00  0.00     0.157 HD
ATOM     13  HN1 UNL     1      67.350 102.718  94.075  1.00  0.00     0.157 HD
HETATM   14  C   UNL     1      68.270 100.335  96.971  1.00  0.00     0.078 A 
ATOM     15  HN  UNL     1      67.149 101.903  96.227  1.00  0.00     0.168 HD
HETATM   16  C   UNL     1      67.656 100.449  98.326  1.00  0.00     0.089 C 
HETATM   17  N   UNL     1      69.183  99.373  96.782  1.00  0.00    -0.355 N 
HETATM   18  C   UNL     1      69.753  99.293  95.554  1.00  0.00     0.102 A 
ATOM     19  HN  UNL     1      69.438  98.728  97.529  1.00  0.00     0.166 HD
ENDBRANCH   7   8
ENDBRANCH   5   7
BRANCH   4  20
HETATM   20  C   UNL     1      68.812  97.784  88.811  1.00  0.00     0.075 C 
BRANCH  20  21
HETATM   21  C   UNL     1      67.795  98.492  88.050  1.00  0.00     0.186 C 
BRANCH  21  22
HETATM   22  O   UNL     1      66.593  97.690  88.078  1.00  0.00    -0.289 OA
BRANCH  22  23
HETATM   23  P   UNL     1      66.526  96.331  87.275  1.00  0.00     0.418 P 
HETATM   24  O   UNL     1      66.070  95.223  88.159  1.00  0.00    -0.624 OA
HETATM   25  O   UNL     1      67.819  96.222  86.552  1.00  0.00    -0.624 OA
BRANCH  23  26
HETATM   26  O   UNL     1      65.370  96.574  86.194  1.00  0.00    -0.173 OA
BRANCH  26  27
HETATM   27  P   UNL     1      64.837  95.639  84.998  1.00  0.00     0.431 P 
HETATM   28  O   UNL     1      64.208  94.437  85.615  1.00  0.00    -0.616 OA
HETATM   29  O   UNL     1      63.785  96.418  84.242  1.00  0.00    -0.616 OA
HETATM   30  O   UNL     1      66.059  95.309  84.106  1.00  0.00    -0.616 OA
ENDBRANCH  26  27
ENDBRANCH  23  26
ENDBRANCH  22  23
ENDBRANCH  21  22
ENDBRANCH  20  21
ENDBRANCH   4  20
TORSDOF 8
ENDMDL
MODEL 11
REMARK VINA RESULT:    -5.814      6.195      9.087
REMARK INTER + INTRA:          -9.236
REMARK INTER:                  -8.535
REMARK INTRA:                  -0.701
REMARK UNBOUND:                -0.703
REMARK  8 active torsions:
REMARK  status: ('A' for Active; 'I' for Inactive)
REMARK    1  A    between atoms: C_2  and  C_14 
REMARK    2  A    between atoms: C_11  and  C_12 
REMARK    3  A    between atoms: C_11  and  O_26 
REMARK    4  A    between atoms: C_12  and  C_16 
REMARK    5  A    between atoms: C_14  and  N_20 
REMARK    6  A    between atoms: O_26  and  P_29 
REMARK    7  A    between atoms: O_27  and  P_28 
REMARK    8  A    between atoms: O_27  and  P_29 
ROOT
HETATM    1  C   UNL     1      68.716  97.732  90.843  1.00  0.00     0.069 C 
HETATM    2  C   UNL     1      68.245  98.827  87.369  1.00  0.00     0.141 C 
HETATM    3  C   UNL     1      68.773  98.462  89.547  1.00  0.00     0.021 C 
HETATM    4  C   UNL     1      69.291  99.693  89.376  1.00  0.00     0.008 C 
HETATM    5  N   UNL     1      68.306  97.933  88.343  1.00  0.00    -0.349 N 
HETATM    6  S   UNL     1      69.165 100.215  87.736  1.00  0.00    -0.087 SA
ENDROOT
BRANCH   5   7
HETATM    7  C   UNL     1      67.955  96.526  88.110  1.00  0.00     0.172 C 
BRANCH   7   8
HETATM    8  C   UNL     1      66.913  96.362  87.016  1.00  0.00     0.019 A 
HETATM    9  C   UNL     1      67.154  95.658  85.797  1.00  0.00     0.109 A 
HETATM   10  N   UNL     1      68.375  95.153  85.510  1.00  0.00    -0.385 N 
HETATM   11  N   UNL     1      66.187  95.529  84.839  1.00  0.00    -0.332 N 
ATOM     12  HN2 UNL     1      69.096  95.249  86.225  1.00  0.00     0.157 HD
ATOM     13  HN1 UNL     1      68.547  94.651  84.639  1.00  0.00     0.157 HD
HETATM   14  C   UNL     1      64.988  96.080  85.090  1.00  0.00     0.078 A 
ATOM     15  HN  UNL     1      66.370  95.034  83.966  1.00  0.00     0.168 HD
HETATM   16  C   UNL     1      63.939  95.961  84.036  1.00  0.00     0.089 C 
HETATM   17  N   UNL     1      64.663  96.723  86.219  1.00  0.00    -0.355 N 
HETATM   18  C   UNL     1      65.630  96.847  87.162  1.00  0.00     0.102 A 
ATOM     19  HN  UNL     1      63.729  97.104  86.364  1.00  0.00     0.166 HD
ENDBRANCH   7   8
ENDBRANCH   5   7
BRANCH   4  20
HETATM   20  C   UNL     1      69.974 100.542  90.412  1.00  0.00     0.075 C 
BRANCH  20  21
HETATM   21  C   UNL     1      70.680 101.673  89.833  1.00  0.00     0.186 C 
BRANCH  21  22
HETATM   22  O   UNL     1      70.130 102.875  90.418  1.00  0.00    -0.289 OA
BRANCH  22  23
HETATM   23  P   UNL     1      69.831 104.136  89.513  1.00  0.00     0.418 P 
HETATM   24  O   UNL     1      70.826 105.214  89.771  1.00  0.00    -0.624 OA
HETATM   25  O   UNL     1      68.379 104.410  89.667  1.00  0.00    -0.624 OA
BRANCH  23  26
HETATM   26  O   UNL     1      70.084 103.612  88.021  1.00  0.00    -0.173 OA
BRANCH  26  27
HETATM   27  P   UNL     1      69.583 104.192  86.606  1.00  0.00     0.431 P 
HETATM   28  O   UNL     1      70.571 103.771  85.573  1.00  0.00    -0.616 OA
HETATM   29  O   UNL     1      68.244 103.560  86.301  1.00  0.00    -0.616 OA
HETATM   30  O   UNL     1      69.469 105.729  86.764  1.00  0.00    -0.616 OA
ENDBRANCH  26  27
ENDBRANCH  23  26
ENDBRANCH  22  23
ENDBRANCH  21  22
ENDBRANCH  20  21
ENDBRANCH   4  20
TORSDOF 8
ENDMDL
MODEL 12
REMARK VINA RESULT:    -5.749      3.246      4.291
REMARK INTER + INTRA:          -9.141
REMARK INTER:                  -8.399
REMARK INTRA:                  -0.741
REMARK UNBOUND:                -0.703
REMARK  8 active torsions:
REMARK  status: ('A' for Active; 'I' for Inactive)
REMARK    1  A    between atoms: C_2  and  C_14 
REMARK    2  A    between atoms: C_11  and  C_12 
REMARK    3  A    between atoms: C_11  and  O_26 
REMARK    4  A    between atoms: C_12  and  C_16 
REMARK    5  A    between atoms: C_14  and  N_20 
REMARK    6  A    between atoms: O_26  and  P_29 
REMARK    7  A    between atoms: O_27  and  P_28 
REMARK    8  A    between atoms: O_27  and  P_29 
ROOT
HETATM    1  C   UNL     1      70.047 101.391  87.423  1.00  0.00     0.069 C 
HETATM    2  C   UNL     1      69.221 104.379  89.391  1.00  0.00     0.141 C 
HETATM    3  C   UNL     1      69.932 102.419  88.492  1.00  0.00     0.021 C 
HETATM    4  C   UNL     1      70.291 102.240  89.778  1.00  0.00     0.008 C 
HETATM    5  N   UNL     1      69.450 103.710  88.273  1.00  0.00    -0.349 N 
HETATM    6  S   UNL     1      69.996 103.652  90.725  1.00  0.00    -0.087 SA
ENDROOT
BRANCH   5   7
HETATM    7  C   UNL     1      69.250 104.332  86.957  1.00  0.00     0.172 C 
BRANCH   7   8
HETATM    8  C   UNL     1      70.445 105.160  86.518  1.00  0.00     0.019 A 
HETATM    9  C   UNL     1      71.455 104.680  85.630  1.00  0.00     0.109 A 
HETATM   10  N   UNL     1      71.441 103.406  85.179  1.00  0.00    -0.385 N 
HETATM   11  N   UNL     1      72.513 105.460  85.256  1.00  0.00    -0.332 N 
ATOM     12  HN2 UNL     1      70.651 102.824  85.458  1.00  0.00     0.157 HD
ATOM     13  HN1 UNL     1      72.162 103.062  84.544  1.00  0.00     0.157 HD
HETATM   14  C   UNL     1      72.567 106.710  85.746  1.00  0.00     0.078 A 
ATOM     15  HN  UNL     1      73.235 105.107  84.628  1.00  0.00     0.168 HD
HETATM   16  C   UNL     1      73.733 107.555  85.359  1.00  0.00     0.089 C 
HETATM   17  N   UNL     1      71.646 107.254  86.553  1.00  0.00    -0.355 N 
HETATM   18  C   UNL     1      70.601 106.471  86.919  1.00  0.00     0.102 A 
ATOM     19  HN  UNL     1      71.728 108.217  86.879  1.00  0.00     0.166 HD
ENDBRANCH   7   8
ENDBRANCH   5   7
BRANCH   4  20
HETATM   20  C   UNL     1      70.938 101.023  90.378  1.00  0.00     0.075 C 
BRANCH  20  21
HETATM   21  C   UNL     1      69.994 100.181  91.094  1.00  0.00     0.186 C 
BRANCH  21  22
HETATM   22  O   UNL     1      69.230  99.450  90.108  1.00  0.00    -0.289 OA
BRANCH  22  23
HETATM   23  P   UNL     1      69.069  97.882  90.230  1.00  0.00     0.418 P 
HETATM   24  O   UNL     1      67.872  97.541  91.048  1.00  0.00    -0.624 OA
HETATM   25  O   UNL     1      70.407  97.366  90.617  1.00  0.00    -0.624 OA
BRANCH  23  26
HETATM   26  O   UNL     1      68.765  97.406  88.732  1.00  0.00    -0.173 OA
BRANCH  26  27
HETATM   27  P   UNL     1      67.369  97.215  87.954  1.00  0.00     0.431 P 
HETATM   28  O   UNL     1      67.687  96.861  86.542  1.00  0.00    -0.616 OA
HETATM   29  O   UNL     1      66.638  96.061  88.603  1.00  0.00    -0.616 OA
HETATM   30  O   UNL     1      66.587  98.544  88.099  1.00  0.00    -0.616 OA
ENDBRANCH  26  27
ENDBRANCH  23  26
ENDBRANCH  22  23
ENDBRANCH  21  22
ENDBRANCH  20  21
ENDBRANCH   4  20
TORSDOF 8
ENDMDL
MODEL 13
REMARK VINA RESULT:    -5.669     11.271     12.778
REMARK INTER + INTRA:          -9.024
REMARK INTER:                  -8.150
REMARK INTRA:                  -0.874
REMARK UNBOUND:                -0.703
REMARK  8 active torsions:
REMARK  status: ('A' for Active; 'I' for Inactive)
REMARK    1  A    between atoms: C_2  and  C_14 
REMARK    2  A    between atoms: C_11  and  C_12 
REMARK    3  A    between atoms: C_11  and  O_26 
REMARK    4  A    between atoms: C_12  and  C_16 
REMARK    5  A    between atoms: C_14  and  N_20 
REMARK    6  A    between atoms: O_26  and  P_29 
REMARK    7  A    between atoms: O_27  and  P_28 
REMARK    8  A    between atoms: O_27  and  P_29 
ROOT
HETATM    1  C   UNL     1      74.263 107.313  84.225  1.00  0.00     0.069 C 
HETATM    2  C   UNL     1      71.718 109.597  85.565  1.00  0.00     0.141 C 
HETATM    3  C   UNL     1      73.180 108.322  84.386  1.00  0.00     0.021 C 
HETATM    4  C   UNL     1      72.751 109.154  83.418  1.00  0.00     0.008 C 
HETATM    5  N   UNL     1      72.468 108.507  85.570  1.00  0.00    -0.349 N 
HETATM    6  S   UNL     1      71.494 110.193  83.983  1.00  0.00    -0.087 SA
ENDROOT
BRANCH   5   7
HETATM    7  C   UNL     1      72.471 107.589  86.718  1.00  0.00     0.172 C 
BRANCH   7   8
HETATM    8  C   UNL     1      71.389 106.527  86.614  1.00  0.00     0.019 A 
HETATM    9  C   UNL     1      70.059 106.704  87.102  1.00  0.00     0.109 A 
HETATM   10  N   UNL     1      69.702 107.826  87.767  1.00  0.00    -0.385 N 
HETATM   11  N   UNL     1      69.114 105.724  86.985  1.00  0.00    -0.332 N 
ATOM     12  HN2 UNL     1      70.408 108.557  87.855  1.00  0.00     0.157 HD
ATOM     13  HN1 UNL     1      68.752 107.953  88.117  1.00  0.00     0.157 HD
HETATM   14  C   UNL     1      69.477 104.582  86.378  1.00  0.00     0.078 A 
ATOM     15  HN  UNL     1      68.168 105.855  87.345  1.00  0.00     0.168 HD
HETATM   16  C   UNL     1      68.454 103.502  86.270  1.00  0.00     0.089 C 
HETATM   17  N   UNL     1      70.688 104.344  85.857  1.00  0.00    -0.355 N 
HETATM   18  C   UNL     1      71.618 105.323  85.981  1.00  0.00     0.102 A 
ATOM     19  HN  UNL     1      70.902 103.464  85.388  1.00  0.00     0.166 HD
ENDBRANCH   7   8
ENDBRANCH   5   7
BRANCH   4  20
HETATM   20  C   UNL     1      73.204 109.192  81.985  1.00  0.00     0.075 C 
BRANCH  20  21
HETATM   21  C   UNL     1      72.136 109.551  81.067  1.00  0.00     0.186 C 
BRANCH  21  22
HETATM   22  O   UNL     1      72.705 109.615  79.741  1.00  0.00    -0.289 OA
BRANCH  22  23
HETATM   23  P   UNL     1      72.898 111.010  79.024  1.00  0.00     0.418 P 
HETATM   24  O   UNL     1      73.110 112.090  80.028  1.00  0.00    -0.624 OA
HETATM   25  O   UNL     1      71.789 111.117  78.040  1.00  0.00    -0.624 OA
BRANCH  23  26
HETATM   26  O   UNL     1      74.268 110.846  78.214  1.00  0.00    -0.173 OA
BRANCH  26  27
HETATM   27  P   UNL     1      75.615 110.045  78.582  1.00  0.00     0.431 P 
HETATM   28  O   UNL     1      75.368 108.602  78.308  1.00  0.00    -0.616 OA
HETATM   29  O   UNL     1      76.710 110.545  77.667  1.00  0.00    -0.616 OA
HETATM   30  O   UNL     1      75.927 110.348  80.069  1.00  0.00    -0.616 OA
ENDBRANCH  26  27
ENDBRANCH  23  26
ENDBRANCH  22  23
ENDBRANCH  21  22
ENDBRANCH  20  21
ENDBRANCH   4  20
TORSDOF 8
ENDMDL
MODEL 14
REMARK VINA RESULT:    -5.664     10.200     11.606
REMARK INTER + INTRA:          -9.016
REMARK INTER:                  -8.074
REMARK INTRA:                  -0.942
REMARK UNBOUND:                -0.703
REMARK  8 active torsions:
REMARK  status: ('A' for Active; 'I' for Inactive)
REMARK    1  A    between atoms: C_2  and  C_14 
REMARK    2  A    between atoms: C_11  and  C_12 
REMARK    3  A    between atoms: C_11  and  O_26 
REMARK    4  A    between atoms: C_12  and  C_16 
REMARK    5  A    between atoms: C_14  and  N_20 
REMARK    6  A    between atoms: O_26  and  P_29 
REMARK    7  A    between atoms: O_27  and  P_28 
REMARK    8  A    between atoms: O_27  and  P_29 
ROOT
HETATM    1  C   UNL     1      68.652 108.913  86.428  1.00  0.00     0.069 C 
HETATM    2  C   UNL     1      72.295 108.604  86.079  1.00  0.00     0.141 C 
HETATM    3  C   UNL     1      70.093 109.152  86.140  1.00  0.00     0.021 C 
HETATM    4  C   UNL     1      70.573 110.163  85.390  1.00  0.00     0.008 C 
HETATM    5  N   UNL     1      71.122 108.353  86.638  1.00  0.00    -0.349 N 
HETATM    6  S   UNL     1      72.293 110.103  85.267  1.00  0.00    -0.087 SA
ENDROOT
BRANCH   5   7
HETATM    7  C   UNL     1      70.985 107.358  87.710  1.00  0.00     0.172 C 
BRANCH   7   8
HETATM    8  C   UNL     1      71.285 105.947  87.233  1.00  0.00     0.019 A 
HETATM    9  C   UNL     1      70.291 105.059  86.720  1.00  0.00     0.109 A 
HETATM   10  N   UNL     1      68.985 105.408  86.700  1.00  0.00    -0.385 N 
HETATM   11  N   UNL     1      70.604 103.797  86.297  1.00  0.00    -0.332 N 
ATOM     12  HN2 UNL     1      68.752 106.349  87.016  1.00  0.00     0.157 HD
ATOM     13  HN1 UNL     1      68.275 104.774  86.334  1.00  0.00     0.157 HD
HETATM   14  C   UNL     1      71.892 103.421  86.369  1.00  0.00     0.078 A 
ATOM     15  HN  UNL     1      69.887 103.166  85.941  1.00  0.00     0.168 HD
HETATM   16  C   UNL     1      72.232 102.036  85.930  1.00  0.00     0.089 C 
HETATM   17  N   UNL     1      72.893 104.199  86.800  1.00  0.00    -0.355 N 
HETATM   18  C   UNL     1      72.571 105.448  87.218  1.00  0.00     0.102 A 
ATOM     19  HN  UNL     1      73.857 103.867  86.813  1.00  0.00     0.166 HD
ENDBRANCH   7   8
ENDBRANCH   5   7
BRANCH   4  20
HETATM   20  C   UNL     1      69.787 111.281  84.763  1.00  0.00     0.075 C 
BRANCH  20  21
HETATM   21  C   UNL     1      70.580 112.074  83.839  1.00  0.00     0.186 C 
BRANCH  21  22
HETATM   22  O   UNL     1      69.833 112.181  82.606  1.00  0.00    -0.289 OA
BRANCH  22  23
HETATM   23  P   UNL     1      70.420 111.584  81.266  1.00  0.00     0.418 P 
HETATM   24  O   UNL     1      71.489 112.468  80.723  1.00  0.00    -0.624 OA
HETATM   25  O   UNL     1      69.244 111.238  80.427  1.00  0.00    -0.624 OA
BRANCH  23  26
HETATM   26  O   UNL     1      71.125 110.221  81.723  1.00  0.00    -0.173 OA
BRANCH  26  27
HETATM   27  P   UNL     1      72.554 109.595  81.329  1.00  0.00     0.431 P 
HETATM   28  O   UNL     1      73.606 110.475  81.911  1.00  0.00    -0.616 OA
HETATM   29  O   UNL     1      72.644 108.225  81.963  1.00  0.00    -0.616 OA
HETATM   30  O   UNL     1      72.599 109.515  79.782  1.00  0.00    -0.616 OA
ENDBRANCH  26  27
ENDBRANCH  23  26
ENDBRANCH  22  23
ENDBRANCH  21  22
ENDBRANCH  20  21
ENDBRANCH   4  20
TORSDOF 8
ENDMDL
MODEL 15
REMARK VINA RESULT:    -5.658      2.642      4.185
REMARK INTER + INTRA:          -9.008
REMARK INTER:                  -9.053
REMARK INTRA:                   0.046
REMARK UNBOUND:                -0.703
REMARK  8 active torsions:
REMARK  status: ('A' for Active; 'I' for Inactive)
REMARK    1  A    between atoms: C_2  and  C_14 
REMARK    2  A    between atoms: C_11  and  C_12 
REMARK    3  A    between atoms: C_11  and  O_26 
REMARK    4  A    between atoms: C_12  and  C_16 
REMARK    5  A    between atoms: C_14  and  N_20 
REMARK    6  A    between atoms: O_26  and  P_29 
REMARK    7  A    between atoms: O_27  and  P_28 
REMARK    8  A    between atoms: O_27  and  P_29 
ROOT
HETATM    1  C   UNL     1      70.933 103.396  89.619  1.00  0.00     0.069 C 
HETATM    2  C   UNL     1      71.276 103.650  85.972  1.00  0.00     0.141 C 
HETATM    3  C   UNL     1      70.785 103.228  88.147  1.00  0.00     0.021 C 
HETATM    4  C   UNL     1      70.101 102.236  87.548  1.00  0.00     0.008 C 
HETATM    5  N   UNL     1      71.333 104.106  87.212  1.00  0.00    -0.349 N 
HETATM    6  S   UNL     1      70.167 102.363  85.829  1.00  0.00    -0.087 SA
ENDROOT
BRANCH   5   7
HETATM    7  C   UNL     1      71.881 105.436  87.512  1.00  0.00     0.172 C 
BRANCH   7   8
HETATM    8  C   UNL     1      70.921 106.291  88.320  1.00  0.00     0.019 A 
HETATM    9  C   UNL     1      69.579 106.568  87.917  1.00  0.00     0.109 A 
HETATM   10  N   UNL     1      69.103 106.135  86.728  1.00  0.00    -0.385 N 
HETATM   11  N   UNL     1      68.745 107.339  88.678  1.00  0.00    -0.332 N 
ATOM     12  HN2 UNL     1      69.725 105.560  86.162  1.00  0.00     0.157 HD
ATOM     13  HN1 UNL     1      68.145 106.333  86.440  1.00  0.00     0.157 HD
HETATM   14  C   UNL     1      69.229 107.823  89.833  1.00  0.00     0.078 A 
ATOM     15  HN  UNL     1      67.790 107.540  88.378  1.00  0.00     0.168 HD
HETATM   16  C   UNL     1      68.329 108.685  90.653  1.00  0.00     0.089 C 
HETATM   17  N   UNL     1      70.459 107.584  90.307  1.00  0.00    -0.355 N 
HETATM   18  C   UNL     1      71.279 106.818  89.544  1.00  0.00     0.102 A 
ATOM     19  HN  UNL     1      70.766 107.961  91.203  1.00  0.00     0.166 HD
ENDBRANCH   7   8
ENDBRANCH   5   7
BRANCH   4  20
HETATM   20  C   UNL     1      69.295 101.156  88.217  1.00  0.00     0.075 C 
BRANCH  20  21
HETATM   21  C   UNL     1      69.106  99.990  87.368  1.00  0.00     0.186 C 
BRANCH  21  22
HETATM   22  O   UNL     1      68.023  99.216  87.929  1.00  0.00    -0.289 OA
BRANCH  22  23
HETATM   23  P   UNL     1      68.329  97.927  88.791  1.00  0.00     0.418 P 
HETATM   24  O   UNL     1      68.513  98.286  90.224  1.00  0.00    -0.624 OA
HETATM   25  O   UNL     1      69.401  97.198  88.063  1.00  0.00    -0.624 OA
BRANCH  23  26
HETATM   26  O   UNL     1      66.985  97.064  88.691  1.00  0.00    -0.173 OA
BRANCH  26  27
HETATM   27  P   UNL     1      66.161  96.547  87.408  1.00  0.00     0.431 P 
HETATM   28  O   UNL     1      65.677  95.171  87.710  1.00  0.00    -0.616 OA
HETATM   29  O   UNL     1      64.973  97.465  87.228  1.00  0.00    -0.616 OA
HETATM   30  O   UNL     1      67.125  96.614  86.198  1.00  0.00    -0.616 OA
ENDBRANCH  26  27
ENDBRANCH  23  26
ENDBRANCH  22  23
ENDBRANCH  21  22
ENDBRANCH  20  21
ENDBRANCH   4  20
TORSDOF 8
ENDMDL
MODEL 16
REMARK VINA RESULT:    -5.649      1.599      2.464
REMARK INTER + INTRA:          -8.995
REMARK INTER:                  -8.399
REMARK INTRA:                  -0.595
REMARK UNBOUND:                -0.703
REMARK  8 active torsions:
REMARK  status: ('A' for Active; 'I' for Inactive)
REMARK    1  A    between atoms: C_2  and  C_14 
REMARK    2  A    between atoms: C_11  and  C_12 
REMARK    3  A    between atoms: C_11  and  O_26 
REMARK    4  A    between atoms: C_12  and  C_16 
REMARK    5  A    between atoms: C_14  and  N_20 
REMARK    6  A    between atoms: O_26  and  P_29 
REMARK    7  A    between atoms: O_27  and  P_28 
REMARK    8  A    between atoms: O_27  and  P_29 
ROOT
HETATM    1  C   UNL     1      69.944 103.117  89.599  1.00  0.00     0.069 C 
HETATM    2  C   UNL     1      71.971 103.429  86.553  1.00  0.00     0.141 C 
HETATM    3  C   UNL     1      70.465 103.043  88.207  1.00  0.00     0.021 C 
HETATM    4  C   UNL     1      69.968 102.251  87.238  1.00  0.00     0.008 C 
HETATM    5  N   UNL     1      71.530 103.813  87.740  1.00  0.00    -0.349 N 
HETATM    6  S   UNL     1      70.842 102.427  85.760  1.00  0.00    -0.087 SA
ENDROOT
BRANCH   5   7
HETATM    7  C   UNL     1      72.107 104.975  88.428  1.00  0.00     0.172 C 
BRANCH   7   8
HETATM    8  C   UNL     1      73.437 104.656  89.091  1.00  0.00     0.019 A 
HETATM    9  C   UNL     1      74.703 104.932  88.493  1.00  0.00     0.109 A 
HETATM   10  N   UNL     1      74.790 105.435  87.241  1.00  0.00    -0.385 N 
HETATM   11  N   UNL     1      75.878 104.632  89.126  1.00  0.00    -0.332 N 
ATOM     12  HN2 UNL     1      73.914 105.659  86.770  1.00  0.00     0.157 HD
ATOM     13  HN1 UNL     1      75.695 105.633  86.813  1.00  0.00     0.157 HD
HETATM   14  C   UNL     1      75.800 104.076  90.346  1.00  0.00     0.078 A 
ATOM     15  HN  UNL     1      76.779 104.824  88.687  1.00  0.00     0.168 HD
HETATM   16  C   UNL     1      77.080 103.727  91.028  1.00  0.00     0.089 C 
HETATM   17  N   UNL     1      74.658 103.818  90.998  1.00  0.00    -0.355 N 
HETATM   18  C   UNL     1      73.500 104.118  90.360  1.00  0.00     0.102 A 
ATOM     19  HN  UNL     1      74.660 103.413  91.933  1.00  0.00     0.166 HD
ENDBRANCH   7   8
ENDBRANCH   5   7
BRANCH   4  20
HETATM   20  C   UNL     1      68.766 101.351  87.327  1.00  0.00     0.075 C 
BRANCH  20  21
HETATM   21  C   UNL     1      69.082 100.047  87.887  1.00  0.00     0.186 C 
BRANCH  21  22
HETATM   22  O   UNL     1      68.002  99.152  87.539  1.00  0.00    -0.289 OA
BRANCH  22  23
HETATM   23  P   UNL     1      68.058  97.633  87.971  1.00  0.00     0.418 P 
HETATM   24  O   UNL     1      67.344  97.429  89.262  1.00  0.00    -0.624 OA
HETATM   25  O   UNL     1      69.480  97.225  87.833  1.00  0.00    -0.624 OA
BRANCH  23  26
HETATM   26  O   UNL     1      67.211  96.877  86.842  1.00  0.00    -0.173 OA
BRANCH  26  27
HETATM   27  P   UNL     1      65.756  96.192  86.904  1.00  0.00     0.431 P 
HETATM   28  O   UNL     1      65.489  95.585  85.570  1.00  0.00    -0.616 OA
HETATM   29  O   UNL     1      65.809  95.098  87.946  1.00  0.00    -0.616 OA
HETATM   30  O   UNL     1      64.750  97.304  87.291  1.00  0.00    -0.616 OA
ENDBRANCH  26  27
ENDBRANCH  23  26
ENDBRANCH  22  23
ENDBRANCH  21  22
ENDBRANCH  20  21
ENDBRANCH   4  20
TORSDOF 8
ENDMDL
MODEL 17
REMARK VINA RESULT:    -5.619      6.542      9.707
REMARK INTER + INTRA:          -8.950
REMARK INTER:                  -8.521
REMARK INTRA:                  -0.429
REMARK UNBOUND:                -0.703
REMARK  8 active torsions:
REMARK  status: ('A' for Active; 'I' for Inactive)
REMARK    1  A    between atoms: C_2  and  C_14 
REMARK    2  A    between atoms: C_11  and  C_12 
REMARK    3  A    between atoms: C_11  and  O_26 
REMARK    4  A    between atoms: C_12  and  C_16 
REMARK    5  A    between atoms: C_14  and  N_20 
REMARK    6  A    between atoms: O_26  and  P_29 
REMARK    7  A    between atoms: O_27  and  P_28 
REMARK    8  A    between atoms: O_27  and  P_29 
ROOT
HETATM    1  C   UNL     1      69.510  98.641  90.637  1.00  0.00     0.069 C 
HETATM    2  C   UNL     1      68.116  99.294  87.303  1.00  0.00     0.141 C 
HETATM    3  C   UNL     1      69.187  99.216  89.303  1.00  0.00     0.021 C 
HETATM    4  C   UNL     1      69.540 100.447  88.887  1.00  0.00     0.008 C 
HETATM    5  N   UNL     1      68.488  98.525  88.313  1.00  0.00    -0.349 N 
HETATM    6  S   UNL     1      68.974 100.767  87.289  1.00  0.00    -0.087 SA
ENDROOT
BRANCH   5   7
HETATM    7  C   UNL     1      68.213  97.082  88.315  1.00  0.00     0.172 C 
BRANCH   7   8
HETATM    8  C   UNL     1      67.183  96.687  87.271  1.00  0.00     0.019 A 
HETATM    9  C   UNL     1      67.456  95.794  86.191  1.00  0.00     0.109 A 
HETATM   10  N   UNL     1      68.698  95.298  85.991  1.00  0.00    -0.385 N 
HETATM   11  N   UNL     1      66.499  95.460  85.274  1.00  0.00    -0.332 N 
ATOM     12  HN2 UNL     1      69.412  95.547  86.675  1.00  0.00     0.157 HD
ATOM     13  HN1 UNL     1      68.894  94.660  85.219  1.00  0.00     0.157 HD
HETATM   14  C   UNL     1      65.276  95.994  85.431  1.00  0.00     0.078 A 
ATOM     15  HN  UNL     1      66.705  94.828  84.500  1.00  0.00     0.168 HD
HETATM   16  C   UNL     1      64.237  95.651  84.418  1.00  0.00     0.089 C 
HETATM   17  N   UNL     1      64.921  96.809  86.433  1.00  0.00    -0.355 N 
HETATM   18  C   UNL     1      65.880  97.135  87.336  1.00  0.00     0.102 A 
ATOM     19  HN  UNL     1      63.971  97.170  86.514  1.00  0.00     0.166 HD
ENDBRANCH   7   8
ENDBRANCH   5   7
BRANCH   4  20
HETATM   20  C   UNL     1      70.379 101.451  89.630  1.00  0.00     0.075 C 
BRANCH  20  21
HETATM   21  C   UNL     1      70.452 102.734  88.951  1.00  0.00     0.186 C 
BRANCH  21  22
HETATM   22  O   UNL     1      71.760 102.830  88.343  1.00  0.00    -0.289 OA
BRANCH  22  23
HETATM   23  P   UNL     1      71.912 103.361  86.862  1.00  0.00     0.418 P 
HETATM   24  O   UNL     1      70.662 104.037  86.417  1.00  0.00    -0.624 OA
HETATM   25  O   UNL     1      72.463 102.225  86.079  1.00  0.00    -0.624 OA
BRANCH  23  26
HETATM   26  O   UNL     1      73.043 104.488  86.968  1.00  0.00    -0.173 OA
BRANCH  26  27
HETATM   27  P   UNL     1      73.311 105.604  88.097  1.00  0.00     0.431 P 
HETATM   28  O   UNL     1      74.046 106.728  87.452  1.00  0.00    -0.616 OA
HETATM   29  O   UNL     1      71.966 106.100  88.577  1.00  0.00    -0.616 OA
HETATM   30  O   UNL     1      74.107 104.914  89.232  1.00  0.00    -0.616 OA
ENDBRANCH  26  27
ENDBRANCH  23  26
ENDBRANCH  22  23
ENDBRANCH  21  22
ENDBRANCH  20  21
ENDBRANCH   4  20
TORSDOF 8
ENDMDL
MODEL 18
REMARK VINA RESULT:    -5.557      3.287      4.301
REMARK INTER + INTRA:          -8.859
REMARK INTER:                  -8.441
REMARK INTRA:                  -0.418
REMARK UNBOUND:                -0.703
REMARK  8 active torsions:
REMARK  status: ('A' for Active; 'I' for Inactive)
REMARK    1  A    between atoms: C_2  and  C_14 
REMARK    2  A    between atoms: C_11  and  C_12 
REMARK    3  A    between atoms: C_11  and  O_26 
REMARK    4  A    between atoms: C_12  and  C_16 
REMARK    5  A    between atoms: C_14  and  N_20 
REMARK    6  A    between atoms: O_26  and  P_29 
REMARK    7  A    between atoms: O_27  and  P_28 
REMARK    8  A    between atoms: O_27  and  P_29 
ROOT
HETATM    1  C   UNL     1      70.012 100.586  89.317  1.00  0.00     0.069 C 
HETATM    2  C   UNL     1      68.736  98.689  92.190  1.00  0.00     0.141 C 
HETATM    3  C   UNL     1      69.466  99.530  90.212  1.00  0.00     0.021 C 
HETATM    4  C   UNL     1      68.929  98.368  89.797  1.00  0.00     0.008 C 
HETATM    5  N   UNL     1      69.468  99.623  91.604  1.00  0.00    -0.349 N 
HETATM    6  S   UNL     1      68.389  97.405  91.123  1.00  0.00    -0.087 SA
ENDROOT
BRANCH   5   7
HETATM    7  C   UNL     1      70.228 100.602  92.392  1.00  0.00     0.172 C 
BRANCH   7   8
HETATM    8  C   UNL     1      71.635 100.125  92.710  1.00  0.00     0.019 A 
HETATM    9  C   UNL     1      71.978  99.421  93.904  1.00  0.00     0.109 A 
HETATM   10  N   UNL     1      71.062  99.203  94.875  1.00  0.00    -0.385 N 
HETATM   11  N   UNL     1      73.257  99.004  94.151  1.00  0.00    -0.332 N 
ATOM     12  HN2 UNL     1      70.109  99.514  94.691  1.00  0.00     0.157 HD
ATOM     13  HN1 UNL     1      71.307  98.700  95.728  1.00  0.00     0.157 HD
HETATM   14  C   UNL     1      74.186  99.270  93.218  1.00  0.00     0.078 A 
ATOM     15  HN  UNL     1      73.495  98.511  95.011  1.00  0.00     0.168 HD
HETATM   16  C   UNL     1      75.586  98.837  93.495  1.00  0.00     0.089 C 
HETATM   17  N   UNL     1      73.946  99.889  92.054  1.00  0.00    -0.355 N 
HETATM   18  C   UNL     1      72.675 100.300  91.821  1.00  0.00     0.102 A 
ATOM     19  HN  UNL     1      74.688 100.046  91.373  1.00  0.00     0.166 HD
ENDBRANCH   7   8
ENDBRANCH   5   7
BRANCH   4  20
HETATM   20  C   UNL     1      68.836  97.864  88.383  1.00  0.00     0.075 C 
BRANCH  20  21
HETATM   21  C   UNL     1      67.675  98.381  87.678  1.00  0.00     0.186 C 
BRANCH  21  22
HETATM   22  O   UNL     1      66.568  97.493  87.952  1.00  0.00    -0.289 OA
BRANCH  22  23
HETATM   23  P   UNL     1      66.394  96.159  87.122  1.00  0.00     0.418 P 
HETATM   24  O   UNL     1      65.852  95.073  87.984  1.00  0.00    -0.624 OA
HETATM   25  O   UNL     1      67.676  95.964  86.396  1.00  0.00    -0.624 OA
BRANCH  23  26
HETATM   26  O   UNL     1      65.263  96.515  86.047  1.00  0.00    -0.173 OA
BRANCH  26  27
HETATM   27  P   UNL     1      64.671  95.655  84.823  1.00  0.00     0.431 P 
HETATM   28  O   UNL     1      65.772  95.458  83.839  1.00  0.00    -0.616 OA
HETATM   29  O   UNL     1      64.247  94.311  85.371  1.00  0.00    -0.616 OA
HETATM   30  O   UNL     1      63.467  96.448  84.256  1.00  0.00    -0.616 OA
ENDBRANCH  26  27
ENDBRANCH  23  26
ENDBRANCH  22  23
ENDBRANCH  21  22
ENDBRANCH  20  21
ENDBRANCH   4  20
TORSDOF 8
ENDMDL
MODEL 19
REMARK VINA RESULT:    -5.506     10.900     12.489
REMARK INTER + INTRA:          -8.784
REMARK INTER:                  -7.887
REMARK INTRA:                  -0.897
REMARK UNBOUND:                -0.703
REMARK  8 active torsions:
REMARK  status: ('A' for Active; 'I' for Inactive)
REMARK    1  A    between atoms: C_2  and  C_14 
REMARK    2  A    between atoms: C_11  and  C_12 
REMARK    3  A    between atoms: C_11  and  O_26 
REMARK    4  A    between atoms: C_12  and  C_16 
REMARK    5  A    between atoms: C_14  and  N_20 
REMARK    6  A    between atoms: O_26  and  P_29 
REMARK    7  A    between atoms: O_27  and  P_28 
REMARK    8  A    between atoms: O_27  and  P_29 
ROOT
HETATM    1  C   UNL     1      71.238 109.754  85.778  1.00  0.00     0.069 C 
HETATM    2  C   UNL     1      73.266 107.016  84.409  1.00  0.00     0.141 C 
HETATM    3  C   UNL     1      72.187 108.930  84.982  1.00  0.00     0.021 C 
HETATM    4  C   UNL     1      72.760 109.312  83.825  1.00  0.00     0.008 C 
HETATM    5  N   UNL     1      72.609 107.656  85.363  1.00  0.00    -0.349 N 
HETATM    6  S   UNL     1      73.788 108.084  83.186  1.00  0.00    -0.087 SA
ENDROOT
BRANCH   5   7
HETATM    7  C   UNL     1      72.419 107.057  86.691  1.00  0.00     0.172 C 
BRANCH   7   8
HETATM    8  C   UNL     1      71.332 105.996  86.698  1.00  0.00     0.019 A 
HETATM    9  C   UNL     1      71.598 104.593  86.655  1.00  0.00     0.109 A 
HETATM   10  N   UNL     1      72.860 104.125  86.526  1.00  0.00    -0.385 N 
HETATM   11  N   UNL     1      70.590 103.670  86.669  1.00  0.00    -0.332 N 
ATOM     12  HN2 UNL     1      73.612 104.814  86.517  1.00  0.00     0.157 HD
ATOM     13  HN1 UNL     1      73.050 103.123  86.495  1.00  0.00     0.157 HD
HETATM   14  C   UNL     1      69.330 104.129  86.737  1.00  0.00     0.078 A 
ATOM     15  HN  UNL     1      70.789 102.670  86.628  1.00  0.00     0.168 HD
HETATM   16  C   UNL     1      68.228 103.124  86.727  1.00  0.00     0.089 C 
HETATM   17  N   UNL     1      68.990 105.422  86.819  1.00  0.00    -0.355 N 
HETATM   18  C   UNL     1      69.998 106.329  86.803  1.00  0.00     0.102 A 
ATOM     19  HN  UNL     1      68.015 105.712  86.889  1.00  0.00     0.166 HD
ENDBRANCH   7   8
ENDBRANCH   5   7
BRANCH   4  20
HETATM   20  C   UNL     1      72.628 110.647  83.145  1.00  0.00     0.075 C 
BRANCH  20  21
HETATM   21  C   UNL     1      71.727 110.610  82.005  1.00  0.00     0.186 C 
BRANCH  21  22
HETATM   22  O   UNL     1      72.381 111.290  80.911  1.00  0.00    -0.289 OA
BRANCH  22  23
HETATM   23  P   UNL     1      72.811 110.489  79.618  1.00  0.00     0.418 P 
HETATM   24  O   UNL     1      72.118 111.026  78.415  1.00  0.00    -0.624 OA
HETATM   25  O   UNL     1      72.683 109.051  79.972  1.00  0.00    -0.624 OA
BRANCH  23  26
HETATM   26  O   UNL     1      74.368 110.824  79.453  1.00  0.00    -0.173 OA
BRANCH  26  27
HETATM   27  P   UNL     1      75.631 109.854  79.223  1.00  0.00     0.431 P 
HETATM   28  O   UNL     1      75.963 109.230  80.535  1.00  0.00    -0.616 OA
HETATM   29  O   UNL     1      75.208 108.774  78.252  1.00  0.00    -0.616 OA
HETATM   30  O   UNL     1      76.772 110.729  78.646  1.00  0.00    -0.616 OA
ENDBRANCH  26  27
ENDBRANCH  23  26
ENDBRANCH  22  23
ENDBRANCH  21  22
ENDBRANCH  20  21
ENDBRANCH   4  20
TORSDOF 8
ENDMDL
MODEL 20
REMARK VINA RESULT:    -5.474      2.611      3.915
REMARK INTER + INTRA:          -8.737
REMARK INTER:                  -8.210
REMARK INTRA:                  -0.527
REMARK UNBOUND:                -0.703
REMARK  8 active torsions:
REMARK  status: ('A' for Active; 'I' for Inactive)
REMARK    1  A    between atoms: C_2  and  C_14 
REMARK    2  A    between atoms: C_11  and  C_12 
REMARK    3  A    between atoms: C_11  and  O_26 
REMARK    4  A    between atoms: C_12  and  C_16 
REMARK    5  A    between atoms: C_14  and  N_20 
REMARK    6  A    between atoms: O_26  and  P_29 
REMARK    7  A    between atoms: O_27  and  P_28 
REMARK    8  A    between atoms: O_27  and  P_29 
ROOT
HETATM    1  C   UNL     1      69.818 103.955  89.218  1.00  0.00     0.069 C 
HETATM    2  C   UNL     1      72.635 103.382  86.932  1.00  0.00     0.141 C 
HETATM    3  C   UNL     1      70.696 103.493  88.109  1.00  0.00     0.021 C 
HETATM    4  C   UNL     1      70.414 102.475  87.273  1.00  0.00     0.008 C 
HETATM    5  N   UNL     1      71.920 104.085  87.796  1.00  0.00    -0.349 N 
HETATM    6  S   UNL     1      71.678 102.223  86.126  1.00  0.00    -0.087 SA
ENDROOT
BRANCH   5   7
HETATM    7  C   UNL     1      72.394 105.379  88.302  1.00  0.00     0.172 C 
BRANCH   7   8
HETATM    8  C   UNL     1      72.594 106.399  87.193  1.00  0.00     0.019 A 
HETATM    9  C   UNL     1      71.539 107.196  86.654  1.00  0.00     0.109 A 
HETATM   10  N   UNL     1      70.260 107.030  87.059  1.00  0.00    -0.385 N 
HETATM   11  N   UNL     1      71.763 108.106  85.658  1.00  0.00    -0.332 N 
ATOM     12  HN2 UNL     1      70.094 106.351  87.802  1.00  0.00     0.157 HD
ATOM     13  HN1 UNL     1      69.506 107.599  86.675  1.00  0.00     0.157 HD
HETATM   14  C   UNL     1      73.022 108.235  85.208  1.00  0.00     0.078 A 
ATOM     15  HN  UNL     1      71.002 108.665  85.272  1.00  0.00     0.168 HD
HETATM   16  C   UNL     1      73.264 109.210  84.105  1.00  0.00     0.089 C 
HETATM   17  N   UNL     1      74.076 107.558  85.680  1.00  0.00    -0.355 N 
HETATM   18  C   UNL     1      73.842 106.657  86.667  1.00  0.00     0.102 A 
ATOM     19  HN  UNL     1      75.015 107.712  85.314  1.00  0.00     0.166 HD
ENDBRANCH   7   8
ENDBRANCH   5   7
BRANCH   4  20
HETATM   20  C   UNL     1      69.153 101.658  87.232  1.00  0.00     0.075 C 
BRANCH  20  21
HETATM   21  C   UNL     1      69.257 100.425  87.995  1.00  0.00     0.186 C 
BRANCH  21  22
HETATM   22  O   UNL     1      68.423  99.440  87.346  1.00  0.00    -0.289 OA
BRANCH  22  23
HETATM   23  P   UNL     1      68.080  98.081  88.078  1.00  0.00     0.418 P 
HETATM   24  O   UNL     1      67.718  98.330  89.501  1.00  0.00    -0.624 OA
HETATM   25  O   UNL     1      69.188  97.150  87.743  1.00  0.00    -0.624 OA
BRANCH  23  26
HETATM   26  O   UNL     1      66.756  97.566  87.340  1.00  0.00    -0.173 OA
BRANCH  26  27
HETATM   27  P   UNL     1      66.315  96.086  86.887  1.00  0.00     0.431 P 
HETATM   28  O   UNL     1      66.134  95.274  88.123  1.00  0.00    -0.616 OA
HETATM   29  O   UNL     1      64.989  96.203  86.171  1.00  0.00    -0.616 OA
HETATM   30  O   UNL     1      67.428  95.551  85.952  1.00  0.00    -0.616 OA
ENDBRANCH  26  27
ENDBRANCH  23  26
ENDBRANCH  22  23
ENDBRANCH  21  22
ENDBRANCH  20  21
ENDBRANCH   4  20
TORSDOF 8
ENDMDL
