MODEL 1
REMARK VINA RESULT:    -5.807      0.000      0.000
REMARK INTER + INTRA:          -7.022
REMARK INTER:                  -6.995
REMARK INTRA:                  -0.027
REMARK UNBOUND:                -0.027
REMARK  6 active torsions:
REMARK  status: ('A' for Active; 'I' for Inactive)
REMARK    1  A    between atoms: C_1  and  O_7 
REMARK    2  A    between atoms: C_2  and  O_9 
REMARK    3  A    between atoms: C_3  and  O_11 
REMARK    4  A    between atoms: C_4  and  O_13 
REMARK    5  A    between atoms: C_5  and  C_6 
REMARK    6  A    between atoms: C_6  and  O_16 
ROOT
HETATM    1  C   UNL     1     -11.211 -20.978  16.177  1.00  0.00     0.288 C 
HETATM    2  C   UNL     1      -9.960 -20.295  16.744  1.00  0.00     0.204 C 
HETATM    3  C   UNL     1      -9.917 -20.311  18.229  1.00  0.00     0.183 C 
HETATM    4  C   UNL     1     -11.186 -19.752  18.806  1.00  0.00     0.180 C 
HETATM    5  C   UNL     1     -12.395 -20.464  18.212  1.00  0.00     0.179 C 
HETATM    6  O   UNL     1     -12.404 -20.412  16.742  1.00  0.00    -0.349 OA
ENDROOT
BRANCH   5   7
HETATM    7  C   UNL     1     -13.657 -19.824  18.749  1.00  0.00     0.198 C 
BRANCH   7   8
HETATM    8  O   UNL     1     -14.630 -20.827  18.988  1.00  0.00    -0.398 OA
ATOM      9  HO  UNL     1     -15.131 -20.978  18.195  1.00  0.00     0.209 HD
ENDBRANCH   7   8
ENDBRANCH   5   7
BRANCH   4  10
HETATM   10  O   UNL     1     -11.315 -18.360  18.522  1.00  0.00    -0.390 OA
ATOM     11  HO  UNL     1     -11.727 -18.218  17.678  1.00  0.00     0.210 HD
ENDBRANCH   4  10
BRANCH   3  12
HETATM   12  O   UNL     1      -8.773 -19.559  18.728  1.00  0.00    -0.390 OA
ATOM     13  HO  UNL     1      -8.048 -20.137  18.936  1.00  0.00     0.210 HD
ENDBRANCH   3  12
BRANCH   1  14
HETATM   14  O   UNL     1     -11.190 -22.342  16.408  1.00  0.00    -0.369 OA
ATOM     15  HO  UNL     1     -10.954 -22.822  15.624  1.00  0.00     0.212 HD
ENDBRANCH   1  14
BRANCH   2  16
HETATM   16  O   UNL     1      -8.795 -20.973  16.216  1.00  0.00    -0.388 OA
ATOM     17  HO  UNL     1      -8.038 -20.772  16.755  1.00  0.00     0.210 HD
ENDBRANCH   2  16
TORSDOF 6
ENDMDL
MODEL 2
REMARK VINA RESULT:    -5.779      1.697      2.918
REMARK INTER + INTRA:          -6.988
REMARK INTER:                  -6.747
REMARK INTRA:                  -0.241
REMARK UNBOUND:                -0.027
REMARK  6 active torsions:
REMARK  status: ('A' for Active; 'I' for Inactive)
REMARK    1  A    between atoms: C_1  and  O_7 
REMARK    2  A    between atoms: C_2  and  O_9 
REMARK    3  A    between atoms: C_3  and  O_11 
REMARK    4  A    between atoms: C_4  and  O_13 
REMARK    5  A    between atoms: C_5  and  C_6 
REMARK    6  A    between atoms: C_6  and  O_16 
ROOT
HETATM    1  C   UNL     1     -13.699 -19.908  17.431  1.00  0.00     0.288 C 
HETATM    2  C   UNL     1     -12.348 -20.582  17.158  1.00  0.00     0.204 C 
HETATM    3  C   UNL     1     -11.478 -20.639  18.361  1.00  0.00     0.183 C 
HETATM    4  C   UNL     1     -11.324 -19.275  18.973  1.00  0.00     0.180 C 
HETATM    5  C   UNL     1     -12.691 -18.651  19.224  1.00  0.00     0.179 C 
HETATM    6  O   UNL     1     -13.513 -18.604  18.005  1.00  0.00    -0.349 OA
ENDROOT
BRANCH   5   7
HETATM    7  C   UNL     1     -12.502 -17.250  19.762  1.00  0.00     0.198 C 
BRANCH   7   8
HETATM    8  O   UNL     1     -11.315 -17.197  20.535  1.00  0.00    -0.398 OA
ATOM      9  HO  UNL     1     -10.965 -16.314  20.516  1.00  0.00     0.209 HD
ENDBRANCH   7   8
ENDBRANCH   5   7
BRANCH   4  10
HETATM   10  O   UNL     1     -10.595 -18.401  18.112  1.00  0.00    -0.390 OA
ATOM     11  HO  UNL     1     -11.133 -17.672  17.827  1.00  0.00     0.210 HD
ENDBRANCH   4  10
BRANCH   3  12
HETATM   12  O   UNL     1     -10.168 -21.185  18.034  1.00  0.00    -0.390 OA
ATOM     13  HO  UNL     1      -9.593 -20.511  17.689  1.00  0.00     0.210 HD
ENDBRANCH   3  12
BRANCH   1  14
HETATM   14  O   UNL     1     -14.486 -20.677  18.269  1.00  0.00    -0.369 OA
ATOM     15  HO  UNL     1     -14.228 -20.573  19.177  1.00  0.00     0.212 HD
ENDBRANCH   1  14
BRANCH   2  16
HETATM   16  O   UNL     1     -12.601 -21.924  16.676  1.00  0.00    -0.388 OA
ATOM     17  HO  UNL     1     -13.537 -22.087  16.663  1.00  0.00     0.210 HD
ENDBRANCH   2  16
TORSDOF 6
ENDMDL
MODEL 3
REMARK VINA RESULT:    -5.689      1.329      2.735
REMARK INTER + INTRA:          -6.880
REMARK INTER:                  -6.621
REMARK INTRA:                  -0.259
REMARK UNBOUND:                -0.027
REMARK  6 active torsions:
REMARK  status: ('A' for Active; 'I' for Inactive)
REMARK    1  A    between atoms: C_1  and  O_7 
REMARK    2  A    between atoms: C_2  and  O_9 
REMARK    3  A    between atoms: C_3  and  O_11 
REMARK    4  A    between atoms: C_4  and  O_13 
REMARK    5  A    between atoms: C_5  and  C_6 
REMARK    6  A    between atoms: C_6  and  O_16 
ROOT
HETATM    1  C   UNL     1      -9.932 -19.606  18.161  1.00  0.00     0.288 C 
HETATM    2  C   UNL     1     -10.220 -20.812  17.258  1.00  0.00     0.204 C 
HETATM    3  C   UNL     1     -11.478 -20.665  16.481  1.00  0.00     0.183 C 
HETATM    4  C   UNL     1     -12.631 -20.341  17.389  1.00  0.00     0.180 C 
HETATM    5  C   UNL     1     -12.294 -19.139  18.261  1.00  0.00     0.179 C 
HETATM    6  O   UNL     1     -11.050 -19.333  19.020  1.00  0.00    -0.349 OA
ENDROOT
BRANCH   5   7
HETATM    7  C   UNL     1     -13.439 -18.889  19.219  1.00  0.00     0.198 C 
BRANCH   7   8
HETATM    8  O   UNL     1     -13.113 -19.420  20.492  1.00  0.00    -0.398 OA
ATOM      9  HO  UNL     1     -13.647 -18.999  21.156  1.00  0.00     0.209 HD
ENDBRANCH   7   8
ENDBRANCH   5   7
BRANCH   4  10
HETATM   10  O   UNL     1     -12.933 -21.437  18.251  1.00  0.00    -0.390 OA
ATOM     11  HO  UNL     1     -13.847 -21.428  18.511  1.00  0.00     0.210 HD
ENDBRANCH   4  10
BRANCH   3  12
HETATM   12  O   UNL     1     -11.769 -21.874  15.723  1.00  0.00    -0.390 OA
ATOM     13  HO  UNL     1     -11.283 -22.617  16.063  1.00  0.00     0.210 HD
ENDBRANCH   3  12
BRANCH   1  14
HETATM   14  O   UNL     1      -9.633 -18.479  17.417  1.00  0.00    -0.369 OA
ATOM     15  HO  UNL     1      -9.354 -18.709  16.538  1.00  0.00     0.212 HD
ENDBRANCH   1  14
BRANCH   2  16
HETATM   16  O   UNL     1      -9.104 -20.975  16.350  1.00  0.00    -0.388 OA
ATOM     17  HO  UNL     1      -9.038 -21.886  16.086  1.00  0.00     0.210 HD
ENDBRANCH   2  16
TORSDOF 6
ENDMDL
MODEL 4
REMARK VINA RESULT:    -5.681      1.468      4.135
REMARK INTER + INTRA:          -6.870
REMARK INTER:                  -6.627
REMARK INTRA:                  -0.244
REMARK UNBOUND:                -0.027
REMARK  6 active torsions:
REMARK  status: ('A' for Active; 'I' for Inactive)
REMARK    1  A    between atoms: C_1  and  O_7 
REMARK    2  A    between atoms: C_2  and  O_9 
REMARK    3  A    between atoms: C_3  and  O_11 
REMARK    4  A    between atoms: C_4  and  O_13 
REMARK    5  A    between atoms: C_5  and  C_6 
REMARK    6  A    between atoms: C_6  and  O_16 
ROOT
HETATM    1  C   UNL     1     -13.046 -18.923  19.156  1.00  0.00     0.288 C 
HETATM    2  C   UNL     1     -13.278 -20.128  18.236  1.00  0.00     0.204 C 
HETATM    3  C   UNL     1     -12.163 -21.109  18.273  1.00  0.00     0.183 C 
HETATM    4  C   UNL     1     -10.848 -20.431  18.008  1.00  0.00     0.180 C 
HETATM    5  C   UNL     1     -10.666 -19.245  18.947  1.00  0.00     0.179 C 
HETATM    6  O   UNL     1     -11.787 -18.296  18.868  1.00  0.00    -0.349 OA
ENDROOT
BRANCH   5   7
HETATM    7  C   UNL     1      -9.375 -18.536  18.601  1.00  0.00     0.198 C 
BRANCH   7   8
HETATM    8  O   UNL     1      -9.668 -17.334  17.910  1.00  0.00    -0.398 OA
ATOM      9  HO  UNL     1      -9.714 -17.508  16.977  1.00  0.00     0.209 HD
ENDBRANCH   7   8
ENDBRANCH   5   7
BRANCH   4  10
HETATM   10  O   UNL     1     -10.778 -19.943  16.669  1.00  0.00    -0.390 OA
ATOM     11  HO  UNL     1     -10.103 -20.392  16.174  1.00  0.00     0.210 HD
ENDBRANCH   4  10
BRANCH   3  12
HETATM   12  O   UNL     1     -12.372 -22.178  17.306  1.00  0.00    -0.390 OA
ATOM     13  HO  UNL     1     -13.193 -22.629  17.468  1.00  0.00     0.210 HD
ENDBRANCH   3  12
BRANCH   1  14
HETATM   14  O   UNL     1     -13.086 -19.293  20.489  1.00  0.00    -0.369 OA
ATOM     15  HO  UNL     1     -12.489 -20.009  20.668  1.00  0.00     0.212 HD
ENDBRANCH   1  14
BRANCH   2  16
HETATM   16  O   UNL     1     -14.509 -20.776  18.639  1.00  0.00    -0.388 OA
ATOM     17  HO  UNL     1     -14.779 -20.447  19.489  1.00  0.00     0.210 HD
ENDBRANCH   2  16
TORSDOF 6
ENDMDL
MODEL 5
REMARK VINA RESULT:    -5.628      1.003      2.720
REMARK INTER + INTRA:          -6.807
REMARK INTER:                  -6.545
REMARK INTRA:                  -0.262
REMARK UNBOUND:                -0.027
REMARK  6 active torsions:
REMARK  status: ('A' for Active; 'I' for Inactive)
REMARK    1  A    between atoms: C_1  and  O_7 
REMARK    2  A    between atoms: C_2  and  O_9 
REMARK    3  A    between atoms: C_3  and  O_11 
REMARK    4  A    between atoms: C_4  and  O_13 
REMARK    5  A    between atoms: C_5  and  C_6 
REMARK    6  A    between atoms: C_6  and  O_16 
ROOT
HETATM    1  C   UNL     1     -11.017 -18.967  19.150  1.00  0.00     0.288 C 
HETATM    2  C   UNL     1     -10.070 -19.920  18.409  1.00  0.00     0.204 C 
HETATM    3  C   UNL     1     -10.490 -20.179  17.008  1.00  0.00     0.183 C 
HETATM    4  C   UNL     1     -11.921 -20.638  16.956  1.00  0.00     0.180 C 
HETATM    5  C   UNL     1     -12.817 -19.659  17.704  1.00  0.00     0.179 C 
HETATM    6  O   UNL     1     -12.371 -19.442  19.088  1.00  0.00    -0.349 OA
ENDROOT
BRANCH   5   7
HETATM    7  C   UNL     1     -14.234 -20.189  17.704  1.00  0.00     0.198 C 
BRANCH   7   8
HETATM    8  O   UNL     1     -14.495 -20.836  18.938  1.00  0.00    -0.398 OA
ATOM      9  HO  UNL     1     -13.733 -21.339  19.200  1.00  0.00     0.209 HD
ENDBRANCH   7   8
ENDBRANCH   5   7
BRANCH   4  10
HETATM   10  O   UNL     1     -12.074 -21.921  17.561  1.00  0.00    -0.390 OA
ATOM     11  HO  UNL     1     -11.524 -22.007  18.331  1.00  0.00     0.210 HD
ENDBRANCH   4  10
BRANCH   3  12
HETATM   12  O   UNL     1      -9.630 -21.171  16.378  1.00  0.00    -0.390 OA
ATOM     13  HO  UNL     1      -8.960 -20.755  15.848  1.00  0.00     0.210 HD
ENDBRANCH   3  12
BRANCH   1  14
HETATM   14  O   UNL     1     -10.950 -17.686  18.631  1.00  0.00    -0.369 OA
ATOM     15  HO  UNL     1     -11.777 -17.427  18.243  1.00  0.00     0.212 HD
ENDBRANCH   1  14
BRANCH   2  16
HETATM   16  O   UNL     1      -8.744 -19.340  18.420  1.00  0.00    -0.388 OA
ATOM     17  HO  UNL     1      -8.400 -19.314  17.534  1.00  0.00     0.210 HD
ENDBRANCH   2  16
TORSDOF 6
ENDMDL
MODEL 6
REMARK VINA RESULT:    -5.616      1.411      4.522
REMARK INTER + INTRA:          -6.793
REMARK INTER:                  -6.570
REMARK INTRA:                  -0.222
REMARK UNBOUND:                -0.027
REMARK  6 active torsions:
REMARK  status: ('A' for Active; 'I' for Inactive)
REMARK    1  A    between atoms: C_1  and  O_7 
REMARK    2  A    between atoms: C_2  and  O_9 
REMARK    3  A    between atoms: C_3  and  O_11 
REMARK    4  A    between atoms: C_4  and  O_13 
REMARK    5  A    between atoms: C_5  and  C_6 
REMARK    6  A    between atoms: C_6  and  O_16 
ROOT
HETATM    1  C   UNL     1     -12.327 -17.710  19.144  1.00  0.00     0.288 C 
HETATM    2  C   UNL     1     -13.624 -18.487  18.881  1.00  0.00     0.204 C 
HETATM    3  C   UNL     1     -13.447 -19.958  18.986  1.00  0.00     0.183 C 
HETATM    4  C   UNL     1     -12.315 -20.423  18.114  1.00  0.00     0.180 C 
HETATM    5  C   UNL     1     -11.054 -19.622  18.414  1.00  0.00     0.179 C 
HETATM    6  O   UNL     1     -11.272 -18.174  18.287  1.00  0.00    -0.349 OA
ENDROOT
BRANCH   5   7
HETATM    7  C   UNL     1      -9.958 -20.056  17.466  1.00  0.00     0.198 C 
BRANCH   7   8
HETATM    8  O   UNL     1     -10.177 -21.400  17.073  1.00  0.00    -0.398 OA
ATOM      9  HO  UNL     1      -9.383 -21.750  16.685  1.00  0.00     0.209 HD
ENDBRANCH   7   8
ENDBRANCH   5   7
BRANCH   4  10
HETATM   10  O   UNL     1     -12.623 -20.252  16.731  1.00  0.00    -0.390 OA
ATOM     11  HO  UNL     1     -13.524 -19.975  16.611  1.00  0.00     0.210 HD
ENDBRANCH   4  10
BRANCH   3  12
HETATM   12  O   UNL     1     -14.671 -20.660  18.623  1.00  0.00    -0.390 OA
ATOM     13  HO  UNL     1     -15.435 -20.115  18.775  1.00  0.00     0.210 HD
ENDBRANCH   3  12
BRANCH   1  14
HETATM   14  O   UNL     1     -11.933 -17.819  20.465  1.00  0.00    -0.369 OA
ATOM     15  HO  UNL     1     -12.068 -18.699  20.795  1.00  0.00     0.212 HD
ENDBRANCH   1  14
BRANCH   2  16
HETATM   16  O   UNL     1     -14.617 -18.047  19.839  1.00  0.00    -0.388 OA
ATOM     17  HO  UNL     1     -14.186 -17.754  20.633  1.00  0.00     0.210 HD
ENDBRANCH   2  16
TORSDOF 6
ENDMDL
MODEL 7
REMARK VINA RESULT:    -5.522      1.476      3.281
REMARK INTER + INTRA:          -6.679
REMARK INTER:                  -6.425
REMARK INTRA:                  -0.254
REMARK UNBOUND:                -0.027
REMARK  6 active torsions:
REMARK  status: ('A' for Active; 'I' for Inactive)
REMARK    1  A    between atoms: C_1  and  O_7 
REMARK    2  A    between atoms: C_2  and  O_9 
REMARK    3  A    between atoms: C_3  and  O_11 
REMARK    4  A    between atoms: C_4  and  O_13 
REMARK    5  A    between atoms: C_5  and  C_6 
REMARK    6  A    between atoms: C_6  and  O_16 
ROOT
HETATM    1  C   UNL     1     -10.577 -21.158  17.886  1.00  0.00     0.288 C 
HETATM    2  C   UNL     1     -12.064 -21.535  17.874  1.00  0.00     0.204 C 
HETATM    3  C   UNL     1     -12.954 -20.366  17.657  1.00  0.00     0.183 C 
HETATM    4  C   UNL     1     -12.649 -19.273  18.642  1.00  0.00     0.180 C 
HETATM    5  C   UNL     1     -11.163 -18.937  18.614  1.00  0.00     0.179 C 
HETATM    6  O   UNL     1     -10.320 -20.120  18.845  1.00  0.00    -0.349 OA
ENDROOT
BRANCH   5   7
HETATM    7  C   UNL     1     -10.874 -17.894  19.671  1.00  0.00     0.198 C 
BRANCH   7   8
HETATM    8  O   UNL     1     -11.933 -16.952  19.708  1.00  0.00    -0.398 OA
ATOM      9  HO  UNL     1     -12.002 -16.587  20.582  1.00  0.00     0.209 HD
ENDBRANCH   7   8
ENDBRANCH   5   7
BRANCH   4  10
HETATM   10  O   UNL     1     -12.983 -19.666  19.972  1.00  0.00    -0.390 OA
ATOM     11  HO  UNL     1     -12.444 -20.393  20.262  1.00  0.00     0.210 HD
ENDBRANCH   4  10
BRANCH   3  12
HETATM   12  O   UNL     1     -14.356 -20.749  17.762  1.00  0.00    -0.390 OA
ATOM     13  HO  UNL     1     -14.447 -21.609  18.157  1.00  0.00     0.210 HD
ENDBRANCH   3  12
BRANCH   1  14
HETATM   14  O   UNL     1     -10.149 -20.751  16.635  1.00  0.00    -0.369 OA
ATOM     15  HO  UNL     1      -9.293 -20.342  16.678  1.00  0.00     0.212 HD
ENDBRANCH   1  14
BRANCH   2  16
HETATM   16  O   UNL     1     -12.275 -22.510  16.824  1.00  0.00    -0.388 OA
ATOM     17  HO  UNL     1     -11.606 -22.410  16.157  1.00  0.00     0.210 HD
ENDBRANCH   2  16
TORSDOF 6
ENDMDL
MODEL 8
REMARK VINA RESULT:    -5.511      1.306      2.622
REMARK INTER + INTRA:          -6.666
REMARK INTER:                  -6.414
REMARK INTRA:                  -0.251
REMARK UNBOUND:                -0.027
REMARK  6 active torsions:
REMARK  status: ('A' for Active; 'I' for Inactive)
REMARK    1  A    between atoms: C_1  and  O_7 
REMARK    2  A    between atoms: C_2  and  O_9 
REMARK    3  A    between atoms: C_3  and  O_11 
REMARK    4  A    between atoms: C_4  and  O_13 
REMARK    5  A    between atoms: C_5  and  C_6 
REMARK    6  A    between atoms: C_6  and  O_16 
ROOT
HETATM    1  C   UNL     1     -12.770 -20.157  17.095  1.00  0.00     0.288 C 
HETATM    2  C   UNL     1     -11.509 -20.574  16.326  1.00  0.00     0.204 C 
HETATM    3  C   UNL     1     -10.338 -20.796  17.213  1.00  0.00     0.183 C 
HETATM    4  C   UNL     1     -10.102 -19.602  18.094  1.00  0.00     0.180 C 
HETATM    5  C   UNL     1     -11.381 -19.231  18.834  1.00  0.00     0.179 C 
HETATM    6  O   UNL     1     -12.510 -19.009  17.918  1.00  0.00    -0.349 OA
ENDROOT
BRANCH   5   7
HETATM    7  C   UNL     1     -11.135 -17.979  19.648  1.00  0.00     0.198 C 
BRANCH   7   8
HETATM    8  O   UNL     1     -11.414 -16.838  18.855  1.00  0.00    -0.398 OA
ATOM      9  HO  UNL     1     -11.150 -16.055  19.324  1.00  0.00     0.209 HD
ENDBRANCH   7   8
ENDBRANCH   5   7
BRANCH   4  10
HETATM   10  O   UNL     1      -9.694 -18.468  17.331  1.00  0.00    -0.390 OA
ATOM     11  HO  UNL     1     -10.440 -18.032  16.937  1.00  0.00     0.210 HD
ENDBRANCH   4  10
BRANCH   3  12
HETATM   12  O   UNL     1      -9.140 -21.082  16.436  1.00  0.00    -0.390 OA
ATOM     13  HO  UNL     1      -8.365 -21.068  16.986  1.00  0.00     0.210 HD
ENDBRANCH   3  12
BRANCH   1  14
HETATM   14  O   UNL     1     -13.246 -21.192  17.880  1.00  0.00    -0.369 OA
ATOM     15  HO  UNL     1     -13.768 -20.865  18.603  1.00  0.00     0.212 HD
ENDBRANCH   1  14
BRANCH   2  16
HETATM   16  O   UNL     1     -11.805 -21.789  15.597  1.00  0.00    -0.388 OA
ATOM     17  HO  UNL     1     -12.699 -22.058  15.774  1.00  0.00     0.210 HD
ENDBRANCH   2  16
TORSDOF 6
ENDMDL
MODEL 9
REMARK VINA RESULT:    -5.485      1.494      3.518
REMARK INTER + INTRA:          -6.635
REMARK INTER:                  -6.374
REMARK INTRA:                  -0.260
REMARK UNBOUND:                -0.027
REMARK  6 active torsions:
REMARK  status: ('A' for Active; 'I' for Inactive)
REMARK    1  A    between atoms: C_1  and  O_7 
REMARK    2  A    between atoms: C_2  and  O_9 
REMARK    3  A    between atoms: C_3  and  O_11 
REMARK    4  A    between atoms: C_4  and  O_13 
REMARK    5  A    between atoms: C_5  and  C_6 
REMARK    6  A    between atoms: C_6  and  O_16 
ROOT
HETATM    1  C   UNL     1     -13.664 -20.057  18.680  1.00  0.00     0.288 C 
HETATM    2  C   UNL     1     -12.524 -19.532  19.561  1.00  0.00     0.204 C 
HETATM    3  C   UNL     1     -11.402 -18.958  18.774  1.00  0.00     0.183 C 
HETATM    4  C   UNL     1     -10.922 -19.936  17.739  1.00  0.00     0.180 C 
HETATM    5  C   UNL     1     -12.090 -20.426  16.893  1.00  0.00     0.179 C 
HETATM    6  O   UNL     1     -13.171 -20.996  17.712  1.00  0.00    -0.349 OA
ENDROOT
BRANCH   5   7
HETATM    7  C   UNL     1     -11.590 -21.468  15.917  1.00  0.00     0.198 C 
BRANCH   7   8
HETATM    8  O   UNL     1     -11.884 -22.762  16.417  1.00  0.00    -0.398 OA
ATOM      9  HO  UNL     1     -12.039 -22.712  17.353  1.00  0.00     0.209 HD
ENDBRANCH   7   8
ENDBRANCH   5   7
BRANCH   4  10
HETATM   10  O   UNL     1     -10.315 -21.076  18.347  1.00  0.00    -0.390 OA
ATOM     11  HO  UNL     1     -10.913 -21.506  18.946  1.00  0.00     0.210 HD
ENDBRANCH   4  10
BRANCH   3  12
HETATM   12  O   UNL     1     -10.297 -18.573  19.641  1.00  0.00    -0.390 OA
ATOM     13  HO  UNL     1      -9.520 -19.086  19.452  1.00  0.00     0.210 HD
ENDBRANCH   3  12
BRANCH   1  14
HETATM   14  O   UNL     1     -14.319 -19.024  18.034  1.00  0.00    -0.369 OA
ATOM     15  HO  UNL     1     -14.217 -19.086  17.092  1.00  0.00     0.212 HD
ENDBRANCH   1  14
BRANCH   2  16
HETATM   16  O   UNL     1     -13.064 -18.520  20.446  1.00  0.00    -0.388 OA
ATOM     17  HO  UNL     1     -13.928 -18.784  20.743  1.00  0.00     0.210 HD
ENDBRANCH   2  16
TORSDOF 6
ENDMDL
MODEL 10
REMARK VINA RESULT:    -5.348      1.376      4.258
REMARK INTER + INTRA:          -6.469
REMARK INTER:                  -6.218
REMARK INTRA:                  -0.251
REMARK UNBOUND:                -0.027
REMARK  6 active torsions:
REMARK  status: ('A' for Active; 'I' for Inactive)
REMARK    1  A    between atoms: C_1  and  O_7 
REMARK    2  A    between atoms: C_2  and  O_9 
REMARK    3  A    between atoms: C_3  and  O_11 
REMARK    4  A    between atoms: C_4  and  O_13 
REMARK    5  A    between atoms: C_5  and  C_6 
REMARK    6  A    between atoms: C_6  and  O_16 
ROOT
HETATM    1  C   UNL     1     -11.751 -19.287  18.284  1.00  0.00     0.288 C 
HETATM    2  C   UNL     1     -12.470 -20.487  17.654  1.00  0.00     0.204 C 
HETATM    3  C   UNL     1     -11.555 -21.619  17.357  1.00  0.00     0.183 C 
HETATM    4  C   UNL     1     -10.385 -21.157  16.535  1.00  0.00     0.180 C 
HETATM    5  C   UNL     1      -9.707 -19.967  17.203  1.00  0.00     0.179 C 
HETATM    6  O   UNL     1     -10.647 -18.867  17.467  1.00  0.00    -0.349 OA
ENDROOT
BRANCH   5   7
HETATM    7  C   UNL     1      -8.587 -19.474  16.313  1.00  0.00     0.198 C 
BRANCH   7   8
HETATM    8  O   UNL     1      -7.977 -20.578  15.667  1.00  0.00    -0.398 OA
ATOM      9  HO  UNL     1      -8.639 -21.084  15.210  1.00  0.00     0.209 HD
ENDBRANCH   7   8
ENDBRANCH   5   7
BRANCH   4  10
HETATM   10  O   UNL     1     -10.798 -20.750  15.231  1.00  0.00    -0.390 OA
ATOM     11  HO  UNL     1     -10.100 -20.865  14.598  1.00  0.00     0.210 HD
ENDBRANCH   4  10
BRANCH   3  12
HETATM   12  O   UNL     1     -12.256 -22.690  16.662  1.00  0.00    -0.390 OA
ATOM     13  HO  UNL     1     -12.781 -23.203  17.266  1.00  0.00     0.210 HD
ENDBRANCH   3  12
BRANCH   1  14
HETATM   14  O   UNL     1     -11.301 -19.582  19.558  1.00  0.00    -0.369 OA
ATOM     15  HO  UNL     1     -11.118 -20.509  19.655  1.00  0.00     0.212 HD
ENDBRANCH   1  14
BRANCH   2  16
HETATM   16  O   UNL     1     -13.505 -20.926  18.568  1.00  0.00    -0.388 OA
ATOM     17  HO  UNL     1     -14.332 -20.995  18.104  1.00  0.00     0.210 HD
ENDBRANCH   2  16
TORSDOF 6
ENDMDL
MODEL 11
REMARK VINA RESULT:    -5.330      1.188      3.747
REMARK INTER + INTRA:          -6.448
REMARK INTER:                  -6.419
REMARK INTRA:                  -0.029
REMARK UNBOUND:                -0.027
REMARK  6 active torsions:
REMARK  status: ('A' for Active; 'I' for Inactive)
REMARK    1  A    between atoms: C_1  and  O_7 
REMARK    2  A    between atoms: C_2  and  O_9 
REMARK    3  A    between atoms: C_3  and  O_11 
REMARK    4  A    between atoms: C_4  and  O_13 
REMARK    5  A    between atoms: C_5  and  C_6 
REMARK    6  A    between atoms: C_6  and  O_16 
ROOT
HETATM    1  C   UNL     1     -11.882 -21.814  17.864  1.00  0.00     0.288 C 
HETATM    2  C   UNL     1     -12.480 -20.645  18.657  1.00  0.00     0.204 C 
HETATM    3  C   UNL     1     -12.177 -19.322  18.054  1.00  0.00     0.183 C 
HETATM    4  C   UNL     1     -10.700 -19.164  17.828  1.00  0.00     0.180 C 
HETATM    5  C   UNL     1     -10.157 -20.347  17.037  1.00  0.00     0.179 C 
HETATM    6  O   UNL     1     -10.469 -21.634  17.676  1.00  0.00    -0.349 OA
ENDROOT
BRANCH   5   7
HETATM    7  C   UNL     1      -8.658 -20.201  16.897  1.00  0.00     0.198 C 
BRANCH   7   8
HETATM    8  O   UNL     1      -8.220 -20.903  15.746  1.00  0.00    -0.398 OA
ATOM      9  HO  UNL     1      -8.952 -21.028  15.154  1.00  0.00     0.209 HD
ENDBRANCH   7   8
ENDBRANCH   5   7
BRANCH   4  10
HETATM   10  O   UNL     1      -9.992 -19.103  19.065  1.00  0.00    -0.390 OA
ATOM     11  HO  UNL     1      -9.229 -19.669  19.053  1.00  0.00     0.210 HD
ENDBRANCH   4  10
BRANCH   3  12
HETATM   12  O   UNL     1     -12.668 -18.238  18.895  1.00  0.00    -0.390 OA
ATOM     13  HO  UNL     1     -12.925 -18.560  19.751  1.00  0.00     0.210 HD
ENDBRANCH   3  12
BRANCH   1  14
HETATM   14  O   UNL     1     -12.499 -21.956  16.634  1.00  0.00    -0.369 OA
ATOM     15  HO  UNL     1     -11.949 -22.433  16.024  1.00  0.00     0.212 HD
ENDBRANCH   1  14
BRANCH   2  16
HETATM   16  O   UNL     1     -13.915 -20.831  18.726  1.00  0.00    -0.388 OA
ATOM     17  HO  UNL     1     -14.108 -21.674  19.121  1.00  0.00     0.210 HD
ENDBRANCH   2  16
TORSDOF 6
ENDMDL
MODEL 12
REMARK VINA RESULT:    -5.065      1.507      3.492
REMARK INTER + INTRA:          -6.129
REMARK INTER:                  -6.094
REMARK INTRA:                  -0.034
REMARK UNBOUND:                -0.027
REMARK  6 active torsions:
REMARK  status: ('A' for Active; 'I' for Inactive)
REMARK    1  A    between atoms: C_1  and  O_7 
REMARK    2  A    between atoms: C_2  and  O_9 
REMARK    3  A    between atoms: C_3  and  O_11 
REMARK    4  A    between atoms: C_4  and  O_13 
REMARK    5  A    between atoms: C_5  and  C_6 
REMARK    6  A    between atoms: C_6  and  O_16 
ROOT
HETATM    1  C   UNL     1     -10.039 -19.033  18.302  1.00  0.00     0.288 C 
HETATM    2  C   UNL     1     -11.249 -18.405  19.005  1.00  0.00     0.204 C 
HETATM    3  C   UNL     1     -12.306 -19.396  19.332  1.00  0.00     0.183 C 
HETATM    4  C   UNL     1     -12.697 -20.181  18.112  1.00  0.00     0.180 C 
HETATM    5  C   UNL     1     -11.462 -20.783  17.453  1.00  0.00     0.179 C 
HETATM    6  O   UNL     1     -10.448 -19.765  17.137  1.00  0.00    -0.349 OA
ENDROOT
BRANCH   5   7
HETATM    7  C   UNL     1     -11.877 -21.496  16.185  1.00  0.00     0.198 C 
BRANCH   7   8
HETATM    8  O   UNL     1     -11.867 -22.896  16.405  1.00  0.00    -0.398 OA
ATOM      9  HO  UNL     1     -11.171 -23.292  15.894  1.00  0.00     0.209 HD
ENDBRANCH   7   8
ENDBRANCH   5   7
BRANCH   4  10
HETATM   10  O   UNL     1     -13.345 -19.352  17.149  1.00  0.00    -0.390 OA
ATOM     11  HO  UNL     1     -14.288 -19.367  17.261  1.00  0.00     0.210 HD
ENDBRANCH   4  10
BRANCH   3  12
HETATM   12  O   UNL     1     -13.479 -18.743  19.897  1.00  0.00    -0.390 OA
ATOM     13  HO  UNL     1     -13.644 -19.043  20.784  1.00  0.00     0.210 HD
ENDBRANCH   3  12
BRANCH   1  14
HETATM   14  O   UNL     1      -9.339 -19.869  19.154  1.00  0.00    -0.369 OA
ATOM     15  HO  UNL     1      -9.770 -19.943  19.997  1.00  0.00     0.212 HD
ENDBRANCH   1  14
BRANCH   2  16
HETATM   16  O   UNL     1     -10.786 -17.768  20.221  1.00  0.00    -0.388 OA
ATOM     17  HO  UNL     1     -11.504 -17.293  20.625  1.00  0.00     0.210 HD
ENDBRANCH   2  16
TORSDOF 6
ENDMDL
MODEL 13
REMARK VINA RESULT:    -4.980      1.970      3.338
REMARK INTER + INTRA:          -6.026
REMARK INTER:                  -5.774
REMARK INTRA:                  -0.252
REMARK UNBOUND:                -0.027
REMARK  6 active torsions:
REMARK  status: ('A' for Active; 'I' for Inactive)
REMARK    1  A    between atoms: C_1  and  O_7 
REMARK    2  A    between atoms: C_2  and  O_9 
REMARK    3  A    between atoms: C_3  and  O_11 
REMARK    4  A    between atoms: C_4  and  O_13 
REMARK    5  A    between atoms: C_5  and  C_6 
REMARK    6  A    between atoms: C_6  and  O_16 
ROOT
HETATM    1  C   UNL     1      -8.438 -19.875  17.283  1.00  0.00     0.288 C 
HETATM    2  C   UNL     1      -8.764 -20.252  15.833  1.00  0.00     0.204 C 
HETATM    3  C   UNL     1     -10.190 -20.027  15.483  1.00  0.00     0.183 C 
HETATM    4  C   UNL     1     -11.095 -20.710  16.470  1.00  0.00     0.180 C 
HETATM    5  C   UNL     1     -10.731 -20.302  17.892  1.00  0.00     0.179 C 
HETATM    6  O   UNL     1      -9.314 -20.553  18.197  1.00  0.00    -0.349 OA
ENDROOT
BRANCH   5   7
HETATM    7  C   UNL     1     -11.602 -21.067  18.863  1.00  0.00     0.198 C 
BRANCH   7   8
HETATM    8  O   UNL     1     -10.976 -22.295  19.193  1.00  0.00    -0.398 OA
ATOM      9  HO  UNL     1     -10.113 -22.125  19.550  1.00  0.00     0.209 HD
ENDBRANCH   7   8
ENDBRANCH   5   7
BRANCH   4  10
HETATM   10  O   UNL     1     -10.981 -22.129  16.379  1.00  0.00    -0.390 OA
ATOM     11  HO  UNL     1     -10.636 -22.394  15.535  1.00  0.00     0.210 HD
ENDBRANCH   4  10
BRANCH   3  12
HETATM   12  O   UNL     1     -10.480 -20.499  14.136  1.00  0.00    -0.390 OA
ATOM     13  HO  UNL     1      -9.694 -20.512  13.602  1.00  0.00     0.210 HD
ENDBRANCH   3  12
BRANCH   1  14
HETATM   14  O   UNL     1      -8.528 -18.509  17.481  1.00  0.00    -0.369 OA
ATOM     15  HO  UNL     1      -8.649 -18.048  16.660  1.00  0.00     0.212 HD
ENDBRANCH   1  14
BRANCH   2  16
HETATM   16  O   UNL     1      -7.919 -19.465  14.959  1.00  0.00    -0.388 OA
ATOM     17  HO  UNL     1      -8.460 -18.945  14.375  1.00  0.00     0.210 HD
ENDBRANCH   2  16
TORSDOF 6
ENDMDL
MODEL 14
REMARK VINA RESULT:    -4.957      2.091      3.350
REMARK INTER + INTRA:          -5.998
REMARK INTER:                  -5.774
REMARK INTRA:                  -0.224
REMARK UNBOUND:                -0.027
REMARK  6 active torsions:
REMARK  status: ('A' for Active; 'I' for Inactive)
REMARK    1  A    between atoms: C_1  and  O_7 
REMARK    2  A    between atoms: C_2  and  O_9 
REMARK    3  A    between atoms: C_3  and  O_11 
REMARK    4  A    between atoms: C_4  and  O_13 
REMARK    5  A    between atoms: C_5  and  C_6 
REMARK    6  A    between atoms: C_6  and  O_16 
ROOT
HETATM    1  C   UNL     1     -10.087 -18.612  19.090  1.00  0.00     0.288 C 
HETATM    2  C   UNL     1     -10.651 -20.033  18.967  1.00  0.00     0.204 C 
HETATM    3  C   UNL     1     -12.042 -20.060  18.447  1.00  0.00     0.183 C 
HETATM    4  C   UNL     1     -12.931 -19.160  19.258  1.00  0.00     0.180 C 
HETATM    5  C   UNL     1     -12.328 -17.763  19.348  1.00  0.00     0.179 C 
HETATM    6  O   UNL     1     -10.956 -17.783  19.878  1.00  0.00    -0.349 OA
ENDROOT
BRANCH   5   7
HETATM    7  C   UNL     1     -13.202 -16.905  20.236  1.00  0.00     0.198 C 
BRANCH   7   8
HETATM    8  O   UNL     1     -14.538 -17.375  20.180  1.00  0.00    -0.398 OA
ATOM      9  HO  UNL     1     -14.628 -18.140  20.736  1.00  0.00     0.209 HD
ENDBRANCH   7   8
ENDBRANCH   5   7
BRANCH   4  10
HETATM   10  O   UNL     1     -13.094 -19.653  20.586  1.00  0.00    -0.390 OA
ATOM     11  HO  UNL     1     -14.011 -19.691  20.829  1.00  0.00     0.210 HD
ENDBRANCH   4  10
BRANCH   3  12
HETATM   12  O   UNL     1     -12.576 -21.415  18.450  1.00  0.00    -0.390 OA
ATOM     13  HO  UNL     1     -12.109 -21.968  17.834  1.00  0.00     0.210 HD
ENDBRANCH   3  12
BRANCH   1  14
HETATM   14  O   UNL     1      -9.898 -18.035  17.847  1.00  0.00    -0.369 OA
ATOM     15  HO  UNL     1     -10.548 -17.366  17.674  1.00  0.00     0.212 HD
ENDBRANCH   1  14
BRANCH   2  16
HETATM   16  O   UNL     1      -9.786 -20.788  18.083  1.00  0.00    -0.388 OA
ATOM     17  HO  UNL     1      -8.896 -20.464  18.154  1.00  0.00     0.210 HD
ENDBRANCH   2  16
TORSDOF 6
ENDMDL
MODEL 15
REMARK VINA RESULT:    -4.935      1.273      1.678
REMARK INTER + INTRA:          -5.972
REMARK INTER:                  -5.942
REMARK INTRA:                  -0.030
REMARK UNBOUND:                -0.027
REMARK  6 active torsions:
REMARK  status: ('A' for Active; 'I' for Inactive)
REMARK    1  A    between atoms: C_1  and  O_7 
REMARK    2  A    between atoms: C_2  and  O_9 
REMARK    3  A    between atoms: C_3  and  O_11 
REMARK    4  A    between atoms: C_4  and  O_13 
REMARK    5  A    between atoms: C_5  and  C_6 
REMARK    6  A    between atoms: C_6  and  O_16 
ROOT
HETATM    1  C   UNL     1     -10.441 -19.896  17.095  1.00  0.00     0.288 C 
HETATM    2  C   UNL     1      -9.841 -18.786  17.967  1.00  0.00     0.204 C 
HETATM    3  C   UNL     1     -10.405 -18.762  19.341  1.00  0.00     0.183 C 
HETATM    4  C   UNL     1     -11.907 -18.710  19.301  1.00  0.00     0.180 C 
HETATM    5  C   UNL     1     -12.450 -19.832  18.425  1.00  0.00     0.179 C 
HETATM    6  O   UNL     1     -11.874 -19.810  17.072  1.00  0.00    -0.349 OA
ENDROOT
BRANCH   5   7
HETATM    7  C   UNL     1     -13.955 -19.704  18.337  1.00  0.00     0.198 C 
BRANCH   7   8
HETATM    8  O   UNL     1     -14.561 -20.831  18.947  1.00  0.00    -0.398 OA
ATOM      9  HO  UNL     1     -14.016 -21.134  19.664  1.00  0.00     0.209 HD
ENDBRANCH   7   8
ENDBRANCH   5   7
BRANCH   4  10
HETATM   10  O   UNL     1     -12.367 -17.472  18.762  1.00  0.00    -0.390 OA
ATOM     11  HO  UNL     1     -12.033 -16.735  19.259  1.00  0.00     0.210 HD
ENDBRANCH   4  10
BRANCH   3  12
HETATM   12  O   UNL     1      -9.892 -17.628  20.098  1.00  0.00    -0.390 OA
ATOM     13  HO  UNL     1      -9.943 -17.790  21.033  1.00  0.00     0.210 HD
ENDBRANCH   3  12
BRANCH   1  14
HETATM   14  O   UNL     1     -10.059 -21.149  17.541  1.00  0.00    -0.369 OA
ATOM     15  HO  UNL     1      -9.212 -21.120  17.969  1.00  0.00     0.212 HD
ENDBRANCH   1  14
BRANCH   2  16
HETATM   16  O   UNL     1      -8.408 -18.985  18.032  1.00  0.00    -0.388 OA
ATOM     17  HO  UNL     1      -8.222 -19.899  18.212  1.00  0.00     0.210 HD
ENDBRANCH   2  16
TORSDOF 6
ENDMDL
MODEL 16
REMARK VINA RESULT:    -4.804      1.799      3.512
REMARK INTER + INTRA:          -5.814
REMARK INTER:                  -5.555
REMARK INTRA:                  -0.259
REMARK UNBOUND:                -0.027
REMARK  6 active torsions:
REMARK  status: ('A' for Active; 'I' for Inactive)
REMARK    1  A    between atoms: C_1  and  O_7 
REMARK    2  A    between atoms: C_2  and  O_9 
REMARK    3  A    between atoms: C_3  and  O_11 
REMARK    4  A    between atoms: C_4  and  O_13 
REMARK    5  A    between atoms: C_5  and  C_6 
REMARK    6  A    between atoms: C_6  and  O_16 
ROOT
HETATM    1  C   UNL     1     -11.615 -21.140  18.556  1.00  0.00     0.288 C 
HETATM    2  C   UNL     1     -11.726 -20.864  17.051  1.00  0.00     0.204 C 
HETATM    3  C   UNL     1     -10.414 -20.916  16.356  1.00  0.00     0.183 C 
HETATM    4  C   UNL     1      -9.417 -20.017  17.031  1.00  0.00     0.180 C 
HETATM    5  C   UNL     1      -9.345 -20.333  18.520  1.00  0.00     0.179 C 
HETATM    6  O   UNL     1     -10.662 -20.258  19.169  1.00  0.00    -0.349 OA
ENDROOT
BRANCH   5   7
HETATM    7  C   UNL     1      -8.396 -19.360  19.185  1.00  0.00     0.198 C 
BRANCH   7   8
HETATM    8  O   UNL     1      -9.140 -18.336  19.823  1.00  0.00    -0.398 OA
ATOM      9  HO  UNL     1      -8.960 -18.347  20.755  1.00  0.00     0.209 HD
ENDBRANCH   7   8
ENDBRANCH   5   7
BRANCH   4  10
HETATM   10  O   UNL     1      -9.780 -18.645  16.892  1.00  0.00    -0.390 OA
ATOM     11  HO  UNL     1      -9.780 -18.202  17.732  1.00  0.00     0.210 HD
ENDBRANCH   4  10
BRANCH   3  12
HETATM   12  O   UNL     1     -10.549 -20.540  14.955  1.00  0.00    -0.390 OA
ATOM     13  HO  UNL     1     -10.154 -21.192  14.387  1.00  0.00     0.210 HD
ENDBRANCH   3  12
BRANCH   1  14
HETATM   14  O   UNL     1     -11.257 -22.454  18.801  1.00  0.00    -0.369 OA
ATOM     15  HO  UNL     1     -11.519 -23.023  18.088  1.00  0.00     0.212 HD
ENDBRANCH   1  14
BRANCH   2  16
HETATM   16  O   UNL     1     -12.621 -21.845  16.474  1.00  0.00    -0.388 OA
ATOM     17  HO  UNL     1     -12.431 -21.946  15.549  1.00  0.00     0.210 HD
ENDBRANCH   2  16
TORSDOF 6
ENDMDL
MODEL 17
REMARK VINA RESULT:    -4.526      1.942      4.666
REMARK INTER + INTRA:          -5.479
REMARK INTER:                  -5.227
REMARK INTRA:                  -0.252
REMARK UNBOUND:                -0.027
REMARK  6 active torsions:
REMARK  status: ('A' for Active; 'I' for Inactive)
REMARK    1  A    between atoms: C_1  and  O_7 
REMARK    2  A    between atoms: C_2  and  O_9 
REMARK    3  A    between atoms: C_3  and  O_11 
REMARK    4  A    between atoms: C_4  and  O_13 
REMARK    5  A    between atoms: C_5  and  C_6 
REMARK    6  A    between atoms: C_6  and  O_16 
ROOT
HETATM    1  C   UNL     1     -11.374 -16.945  19.406  1.00  0.00     0.288 C 
HETATM    2  C   UNL     1     -12.833 -17.397  19.268  1.00  0.00     0.204 C 
HETATM    3  C   UNL     1     -13.010 -18.855  19.490  1.00  0.00     0.183 C 
HETATM    4  C   UNL     1     -12.080 -19.644  18.611  1.00  0.00     0.180 C 
HETATM    5  C   UNL     1     -10.647 -19.158  18.786  1.00  0.00     0.179 C 
HETATM    6  O   UNL     1     -10.517 -17.713  18.546  1.00  0.00    -0.349 OA
ENDROOT
BRANCH   5   7
HETATM    7  C   UNL     1      -9.749 -19.913  17.831  1.00  0.00     0.198 C 
BRANCH   7   8
HETATM    8  O   UNL     1     -10.203 -21.251  17.715  1.00  0.00    -0.398 OA
ATOM      9  HO  UNL     1      -9.730 -21.686  17.016  1.00  0.00     0.209 HD
ENDBRANCH   7   8
ENDBRANCH   5   7
BRANCH   4  10
HETATM   10  O   UNL     1     -12.425 -19.503  17.234  1.00  0.00    -0.390 OA
ATOM     11  HO  UNL     1     -11.981 -20.151  16.700  1.00  0.00     0.210 HD
ENDBRANCH   4  10
BRANCH   3  12
HETATM   12  O   UNL     1     -14.387 -19.260  19.242  1.00  0.00    -0.390 OA
ATOM     13  HO  UNL     1     -14.774 -18.744  18.544  1.00  0.00     0.210 HD
ENDBRANCH   3  12
BRANCH   1  14
HETATM   14  O   UNL     1     -10.934 -17.051  20.714  1.00  0.00    -0.369 OA
ATOM     15  HO  UNL     1     -10.004 -16.873  20.782  1.00  0.00     0.212 HD
ENDBRANCH   1  14
BRANCH   2  16
HETATM   16  O   UNL     1     -13.629 -16.660  20.228  1.00  0.00    -0.388 OA
ATOM     17  HO  UNL     1     -13.098 -15.980  20.626  1.00  0.00     0.210 HD
ENDBRANCH   2  16
TORSDOF 6
ENDMDL
MODEL 18
REMARK VINA RESULT:    -4.517      2.667      4.246
REMARK INTER + INTRA:          -5.469
REMARK INTER:                  -5.220
REMARK INTRA:                  -0.248
REMARK UNBOUND:                -0.027
REMARK  6 active torsions:
REMARK  status: ('A' for Active; 'I' for Inactive)
REMARK    1  A    between atoms: C_1  and  O_7 
REMARK    2  A    between atoms: C_2  and  O_9 
REMARK    3  A    between atoms: C_3  and  O_11 
REMARK    4  A    between atoms: C_4  and  O_13 
REMARK    5  A    between atoms: C_5  and  C_6 
REMARK    6  A    between atoms: C_6  and  O_16 
ROOT
HETATM    1  C   UNL     1     -10.929 -16.816  19.714  1.00  0.00     0.288 C 
HETATM    2  C   UNL     1     -10.947 -18.236  19.133  1.00  0.00     0.204 C 
HETATM    3  C   UNL     1     -12.281 -18.633  18.615  1.00  0.00     0.183 C 
HETATM    4  C   UNL     1     -13.341 -18.428  19.661  1.00  0.00     0.180 C 
HETATM    5  C   UNL     1     -13.282 -17.006  20.203  1.00  0.00     0.179 C 
HETATM    6  O   UNL     1     -11.947 -16.661  20.715  1.00  0.00    -0.349 OA
ENDROOT
BRANCH   5   7
HETATM    7  C   UNL     1     -14.303 -16.856  21.309  1.00  0.00     0.198 C 
BRANCH   7   8
HETATM    8  O   UNL     1     -15.522 -17.461  20.911  1.00  0.00    -0.398 OA
ATOM      9  HO  UNL     1     -16.094 -16.802  20.534  1.00  0.00     0.209 HD
ENDBRANCH   7   8
ENDBRANCH   5   7
BRANCH   4  10
HETATM   10  O   UNL     1     -13.164 -19.322  20.759  1.00  0.00    -0.390 OA
ATOM     11  HO  UNL     1     -12.681 -20.097  20.497  1.00  0.00     0.210 HD
ENDBRANCH   4  10
BRANCH   3  12
HETATM   12  O   UNL     1     -12.281 -20.021  18.176  1.00  0.00    -0.390 OA
ATOM     13  HO  UNL     1     -11.396 -20.332  18.024  1.00  0.00     0.210 HD
ENDBRANCH   3  12
BRANCH   1  14
HETATM   14  O   UNL     1     -11.103 -15.865  18.724  1.00  0.00    -0.369 OA
ATOM     15  HO  UNL     1     -10.345 -15.298  18.652  1.00  0.00     0.212 HD
ENDBRANCH   1  14
BRANCH   2  16
HETATM   16  O   UNL     1      -9.972 -18.301  18.064  1.00  0.00    -0.388 OA
ATOM     17  HO  UNL     1     -10.398 -18.572  17.260  1.00  0.00     0.210 HD
ENDBRANCH   2  16
TORSDOF 6
ENDMDL
MODEL 19
REMARK VINA RESULT:    -4.468      1.566      2.195
REMARK INTER + INTRA:          -5.410
REMARK INTER:                  -5.157
REMARK INTRA:                  -0.252
REMARK UNBOUND:                -0.027
REMARK  6 active torsions:
REMARK  status: ('A' for Active; 'I' for Inactive)
REMARK    1  A    between atoms: C_1  and  O_7 
REMARK    2  A    between atoms: C_2  and  O_9 
REMARK    3  A    between atoms: C_3  and  O_11 
REMARK    4  A    between atoms: C_4  and  O_13 
REMARK    5  A    between atoms: C_5  and  C_6 
REMARK    6  A    between atoms: C_6  and  O_16 
ROOT
HETATM    1  C   UNL     1      -8.880 -19.750  16.187  1.00  0.00     0.288 C 
HETATM    2  C   UNL     1      -8.316 -19.227  17.514  1.00  0.00     0.204 C 
HETATM    3  C   UNL     1      -8.713 -20.059  18.679  1.00  0.00     0.183 C 
HETATM    4  C   UNL     1     -10.205 -20.239  18.722  1.00  0.00     0.180 C 
HETATM    5  C   UNL     1     -10.713 -20.760  17.383  1.00  0.00     0.179 C 
HETATM    6  O   UNL     1     -10.307 -19.900  16.261  1.00  0.00    -0.349 OA
ENDROOT
BRANCH   5   7
HETATM    7  C   UNL     1     -12.222 -20.852  17.431  1.00  0.00     0.198 C 
BRANCH   7   8
HETATM    8  O   UNL     1     -12.784 -19.618  17.018  1.00  0.00    -0.398 OA
ATOM      9  HO  UNL     1     -13.326 -19.758  16.250  1.00  0.00     0.209 HD
ENDBRANCH   7   8
ENDBRANCH   5   7
BRANCH   4  10
HETATM   10  O   UNL     1     -10.868 -19.005  18.991  1.00  0.00    -0.390 OA
ATOM     11  HO  UNL     1     -11.118 -18.940  19.904  1.00  0.00     0.210 HD
ENDBRANCH   4  10
BRANCH   3  12
HETATM   12  O   UNL     1      -8.251 -19.467  19.927  1.00  0.00    -0.390 OA
ATOM     13  HO  UNL     1      -7.440 -18.989  19.799  1.00  0.00     0.210 HD
ENDBRANCH   3  12
BRANCH   1  14
HETATM   14  O   UNL     1      -8.304 -20.958  15.836  1.00  0.00    -0.369 OA
ATOM     15  HO  UNL     1      -7.356 -20.912  15.872  1.00  0.00     0.212 HD
ENDBRANCH   1  14
BRANCH   2  16
HETATM   16  O   UNL     1      -6.872 -19.192  17.411  1.00  0.00    -0.388 OA
ATOM     17  HO  UNL     1      -6.591 -19.741  16.687  1.00  0.00     0.210 HD
ENDBRANCH   2  16
TORSDOF 6
ENDMDL
MODEL 20
REMARK VINA RESULT:    -4.425      1.828      3.376
REMARK INTER + INTRA:          -5.357
REMARK INTER:                  -5.094
REMARK INTRA:                  -0.264
REMARK UNBOUND:                -0.027
REMARK  6 active torsions:
REMARK  status: ('A' for Active; 'I' for Inactive)
REMARK    1  A    between atoms: C_1  and  O_7 
REMARK    2  A    between atoms: C_2  and  O_9 
REMARK    3  A    between atoms: C_3  and  O_11 
REMARK    4  A    between atoms: C_4  and  O_13 
REMARK    5  A    between atoms: C_5  and  C_6 
REMARK    6  A    between atoms: C_6  and  O_16 
ROOT
HETATM    1  C   UNL     1     -10.777 -17.947  19.443  1.00  0.00     0.288 C 
HETATM    2  C   UNL     1      -9.401 -18.489  19.850  1.00  0.00     0.204 C 
HETATM    3  C   UNL     1      -8.719 -19.219  18.751  1.00  0.00     0.183 C 
HETATM    4  C   UNL     1      -9.611 -20.289  18.187  1.00  0.00     0.180 C 
HETATM    5  C   UNL     1     -10.961 -19.700  17.799  1.00  0.00     0.179 C 
HETATM    6  O   UNL     1     -11.605 -18.998  18.919  1.00  0.00    -0.349 OA
ENDROOT
BRANCH   5   7
HETATM    7  C   UNL     1     -11.863 -20.813  17.313  1.00  0.00     0.198 C 
BRANCH   7   8
HETATM    8  O   UNL     1     -12.687 -21.253  18.379  1.00  0.00    -0.398 OA
ATOM      9  HO  UNL     1     -12.185 -21.259  19.186  1.00  0.00     0.209 HD
ENDBRANCH   7   8
ENDBRANCH   5   7
BRANCH   4  10
HETATM   10  O   UNL     1      -9.843 -21.324  19.141  1.00  0.00    -0.390 OA
ATOM     11  HO  UNL     1      -9.036 -21.767  19.371  1.00  0.00     0.210 HD
ENDBRANCH   4  10
BRANCH   3  12
HETATM   12  O   UNL     1      -7.469 -19.809  19.211  1.00  0.00    -0.390 OA
ATOM     13  HO  UNL     1      -7.204 -20.529  18.650  1.00  0.00     0.210 HD
ENDBRANCH   3  12
BRANCH   1  14
HETATM   14  O   UNL     1     -10.664 -16.935  18.506  1.00  0.00    -0.369 OA
ATOM     15  HO  UNL     1     -11.504 -16.528  18.333  1.00  0.00     0.212 HD
ENDBRANCH   1  14
BRANCH   2  16
HETATM   16  O   UNL     1      -8.582 -17.372  20.273  1.00  0.00    -0.388 OA
ATOM     17  HO  UNL     1      -7.683 -17.660  20.384  1.00  0.00     0.210 HD
ENDBRANCH   2  16
TORSDOF 6
ENDMDL
