MODEL 1
REMARK VINA RESULT:   -11.528      0.000      0.000
REMARK INTER + INTRA:         -18.769
REMARK INTER:                 -17.256
REMARK INTRA:                  -1.513
REMARK UNBOUND:                -1.513
REMARK  9 active torsions:
REMARK  status: ('A' for Active; 'I' for Inactive)
REMARK       I    between atoms: N_1  and  C_17 
REMARK    1  A    between atoms: C_4  and  C_17 
REMARK    2  A    between atoms: C_5  and  C_6 
REMARK    3  A    between atoms: C_9  and  C_18 
REMARK    4  A    between atoms: C_9  and  N_19 
REMARK    5  A    between atoms: C_10  and  C_21 
REMARK       I    between atoms: N_19  and  C_21 
REMARK    6  A    between atoms: C_25  and  O_26 
REMARK    7  A    between atoms: N_31  and  C_32 
REMARK    8  A    between atoms: C_32  and  C_33 
REMARK    9  A    between atoms: C_37  and  N_38 
ROOT
HETATM    1  C   UNL     1     -22.808   3.575   1.343  1.00  0.00     0.105 A 
HETATM    2  C   UNL     1     -23.841   3.262   0.407  1.00  0.00     0.078 A 
HETATM    3  N   UNL     1     -24.653   4.310   0.239  1.00  0.00    -0.294 N 
ATOM      4  HN  UNL     1     -25.460   4.370  -0.380  1.00  0.00     0.187 HD
HETATM    5  N   UNL     1     -24.171   5.296   1.080  1.00  0.00    -0.262 N 
HETATM    6  C   UNL     1     -23.084   4.883   1.759  1.00  0.00     0.134 A 
ENDROOT
BRANCH   2   7
HETATM    7  C   UNL     1     -24.163   2.003  -0.281  1.00  0.00    -0.007 A 
HETATM    8  C   UNL     1     -24.446   0.846   0.441  1.00  0.00     0.014 A 
HETATM    9  C   UNL     1     -24.788  -0.328  -0.214  1.00  0.00     0.010 A 
HETATM   10  C   UNL     1     -24.855  -0.373  -1.600  1.00  0.00    -0.040 A 
HETATM   11  C   UNL     1     -24.533   0.766  -2.313  1.00  0.00     0.010 A 
HETATM   12  C   UNL     1     -24.198   1.941  -1.672  1.00  0.00     0.014 A 
BRANCH  10  13
HETATM   13  C   UNL     1     -25.278  -1.642  -2.285  1.00  0.00     0.161 C 
BRANCH  13  14
HETATM   14  N   UNL     1     -24.431  -1.980  -3.420  1.00  0.00    -0.353 N 
HETATM   15  C   UNL     1     -24.811  -2.834  -4.371  1.00  0.00     0.254 C 
HETATM   16  O   UNL     1     -25.943  -3.325  -4.375  1.00  0.00    -0.268 OA
ATOM     17  HN  UNL     1     -23.510  -1.547  -3.491  1.00  0.00     0.163 HD
BRANCH  15  18
HETATM   18  C   UNL     1     -23.837  -3.158  -5.453  1.00  0.00     0.068 A 
HETATM   19  C   UNL     1     -22.440  -3.196  -5.358  1.00  0.00     0.084 A 
HETATM   20  C   UNL     1     -21.661  -3.519  -6.467  1.00  0.00     0.041 A 
HETATM   21  C   UNL     1     -22.267  -3.802  -7.676  1.00  0.00     0.045 A 
HETATM   22  C   UNL     1     -23.618  -3.756  -7.741  1.00  0.00     0.117 A 
HETATM   23  F   UNL     1     -24.197  -4.009  -8.949  1.00  0.00    -0.206 F 
HETATM   24  C   UNL     1     -24.437  -3.453  -6.681  1.00  0.00     0.062 A 
BRANCH  19  25
HETATM   25  O   UNL     1     -21.911  -2.918  -4.126  1.00  0.00    -0.355 OA
HETATM   26  C   UNL     1     -20.846  -1.950  -4.056  1.00  0.00     0.210 C 
ENDBRANCH  19  25
ENDBRANCH  15  18
ENDBRANCH  13  14
ENDBRANCH  10  13
ENDBRANCH   2   7
BRANCH   1  27
HETATM   27  C   UNL     1     -21.658   2.799   1.823  1.00  0.00     0.255 C 
HETATM   28  O   UNL     1     -21.184   3.068   2.933  1.00  0.00    -0.268 OA
HETATM   29  N   UNL     1     -21.110   1.891   1.025  1.00  0.00    -0.366 N 
ATOM     30  HN2 UNL     1     -21.501   1.670   0.109  1.00  0.00     0.159 HD
ATOM     31  HN1 UNL     1     -20.311   1.352   1.359  1.00  0.00     0.159 HD
ENDBRANCH   1  27
BRANCH   5  32
HETATM   32  C   UNL     1     -24.816   6.609   1.126  1.00  0.00     0.213 C 
HETATM   33  C   UNL     1     -25.504   6.952  -0.193  1.00  0.00     0.044 C 
BRANCH  32  34
HETATM   34  C   UNL     1     -25.774   6.661   2.292  1.00  0.00     0.409 C 
HETATM   35  F   UNL     1     -26.191   5.445   2.619  1.00  0.00    -0.169 F 
HETATM   36  F   UNL     1     -25.187   7.174   3.377  1.00  0.00    -0.169 F 
HETATM   37  F   UNL     1     -26.871   7.370   2.040  1.00  0.00    -0.169 F 
ENDBRANCH  32  34
ENDBRANCH   5  32
BRANCH   6  38
HETATM   38  N   UNL     1     -22.345   5.678   2.591  1.00  0.00    -0.383 N 
ATOM     39  HN2 UNL     1     -22.068   6.650   2.451  1.00  0.00     0.157 HD
ATOM     40  HN1 UNL     1     -22.055   5.414   3.533  1.00  0.00     0.157 HD
ENDBRANCH   6  38
TORSDOF 9
ENDMDL
MODEL 2
REMARK VINA RESULT:   -10.280      1.408      2.201
REMARK INTER + INTRA:         -16.901
REMARK INTER:                 -15.898
REMARK INTRA:                  -1.003
REMARK UNBOUND:                -1.513
REMARK  9 active torsions:
REMARK  status: ('A' for Active; 'I' for Inactive)
REMARK       I    between atoms: N_1  and  C_17 
REMARK    1  A    between atoms: C_4  and  C_17 
REMARK    2  A    between atoms: C_5  and  C_6 
REMARK    3  A    between atoms: C_9  and  C_18 
REMARK    4  A    between atoms: C_9  and  N_19 
REMARK    5  A    between atoms: C_10  and  C_21 
REMARK       I    between atoms: N_19  and  C_21 
REMARK    6  A    between atoms: C_25  and  O_26 
REMARK    7  A    between atoms: N_31  and  C_32 
REMARK    8  A    between atoms: C_32  and  C_33 
REMARK    9  A    between atoms: C_37  and  N_38 
ROOT
HETATM    1  C   UNL     1     -22.879   3.547   1.360  1.00  0.00     0.105 A 
HETATM    2  C   UNL     1     -23.967   3.227   0.492  1.00  0.00     0.078 A 
HETATM    3  N   UNL     1     -24.761   4.289   0.325  1.00  0.00    -0.294 N 
ATOM      4  HN  UNL     1     -25.598   4.346  -0.254  1.00  0.00     0.187 HD
HETATM    5  N   UNL     1     -24.213   5.293   1.101  1.00  0.00    -0.262 N 
HETATM    6  C   UNL     1     -23.102   4.877   1.739  1.00  0.00     0.134 A 
ENDROOT
BRANCH   2   7
HETATM    7  C   UNL     1     -24.355   1.952  -0.128  1.00  0.00    -0.007 A 
HETATM    8  C   UNL     1     -24.436   1.827  -1.513  1.00  0.00     0.014 A 
HETATM    9  C   UNL     1     -24.764   0.610  -2.094  1.00  0.00     0.010 A 
HETATM   10  C   UNL     1     -25.018  -0.506  -1.307  1.00  0.00    -0.040 A 
HETATM   11  C   UNL     1     -24.977  -0.366   0.068  1.00  0.00     0.010 A 
HETATM   12  C   UNL     1     -24.644   0.837   0.656  1.00  0.00     0.014 A 
BRANCH  10  13
HETATM   13  C   UNL     1     -25.321  -1.826  -1.959  1.00  0.00     0.161 C 
BRANCH  13  14
HETATM   14  N   UNL     1     -24.266  -2.264  -2.861  1.00  0.00    -0.353 N 
HETATM   15  C   UNL     1     -24.520  -2.858  -4.028  1.00  0.00     0.254 C 
HETATM   16  O   UNL     1     -25.675  -2.995  -4.438  1.00  0.00    -0.268 OA
ATOM     17  HN  UNL     1     -23.294  -2.112  -2.591  1.00  0.00     0.163 HD
BRANCH  15  18
HETATM   18  C   UNL     1     -23.362  -3.326  -4.843  1.00  0.00     0.068 A 
HETATM   19  C   UNL     1     -23.398  -3.931  -6.106  1.00  0.00     0.084 A 
HETATM   20  C   UNL     1     -22.220  -4.314  -6.745  1.00  0.00     0.041 A 
HETATM   21  C   UNL     1     -21.002  -4.102  -6.129  1.00  0.00     0.045 A 
HETATM   22  C   UNL     1     -20.995  -3.518  -4.907  1.00  0.00     0.117 A 
HETATM   23  F   UNL     1     -19.787  -3.344  -4.302  1.00  0.00    -0.206 F 
HETATM   24  C   UNL     1     -22.121  -3.112  -4.235  1.00  0.00     0.062 A 
BRANCH  19  25
HETATM   25  O   UNL     1     -24.639  -4.096  -6.661  1.00  0.00    -0.355 OA
HETATM   26  C   UNL     1     -24.733  -4.126  -8.098  1.00  0.00     0.210 C 
ENDBRANCH  19  25
ENDBRANCH  15  18
ENDBRANCH  13  14
ENDBRANCH  10  13
ENDBRANCH   2   7
BRANCH   1  27
HETATM   27  C   UNL     1     -21.725   2.761   1.811  1.00  0.00     0.255 C 
HETATM   28  O   UNL     1     -21.205   3.041   2.898  1.00  0.00    -0.268 OA
HETATM   29  N   UNL     1     -21.222   1.830   1.010  1.00  0.00    -0.366 N 
ATOM     30  HN2 UNL     1     -21.652   1.599   0.114  1.00  0.00     0.159 HD
ATOM     31  HN1 UNL     1     -20.421   1.283   1.323  1.00  0.00     0.159 HD
ENDBRANCH   1  27
BRANCH   5  32
HETATM   32  C   UNL     1     -24.823   6.623   1.129  1.00  0.00     0.213 C 
HETATM   33  C   UNL     1     -25.496   6.968  -0.198  1.00  0.00     0.044 C 
BRANCH  32  34
HETATM   34  C   UNL     1     -25.784   6.715   2.290  1.00  0.00     0.409 C 
HETATM   35  F   UNL     1     -25.175   7.179   3.373  1.00  0.00    -0.169 F 
HETATM   36  F   UNL     1     -26.788   7.554   2.020  1.00  0.00    -0.169 F 
HETATM   37  F   UNL     1     -26.305   5.541   2.636  1.00  0.00    -0.169 F 
ENDBRANCH  32  34
ENDBRANCH   5  32
BRANCH   6  38
HETATM   38  N   UNL     1     -22.302   5.684   2.500  1.00  0.00    -0.383 N 
ATOM     39  HN2 UNL     1     -22.452   6.660   2.756  1.00  0.00     0.157 HD
ATOM     40  HN1 UNL     1     -21.475   5.364   3.005  1.00  0.00     0.157 HD
ENDBRANCH   6  38
TORSDOF 9
ENDMDL
MODEL 3
REMARK VINA RESULT:    -9.697      2.214      2.992
REMARK INTER + INTRA:         -16.028
REMARK INTER:                 -15.783
REMARK INTRA:                  -0.245
REMARK UNBOUND:                -1.513
REMARK  9 active torsions:
REMARK  status: ('A' for Active; 'I' for Inactive)
REMARK       I    between atoms: N_1  and  C_17 
REMARK    1  A    between atoms: C_4  and  C_17 
REMARK    2  A    between atoms: C_5  and  C_6 
REMARK    3  A    between atoms: C_9  and  C_18 
REMARK    4  A    between atoms: C_9  and  N_19 
REMARK    5  A    between atoms: C_10  and  C_21 
REMARK       I    between atoms: N_19  and  C_21 
REMARK    6  A    between atoms: C_25  and  O_26 
REMARK    7  A    between atoms: N_31  and  C_32 
REMARK    8  A    between atoms: C_32  and  C_33 
REMARK    9  A    between atoms: C_37  and  N_38 
ROOT
HETATM    1  C   UNL     1     -25.286   4.274  -0.541  1.00  0.00     0.105 A 
HETATM    2  C   UNL     1     -24.637   3.067  -0.142  1.00  0.00     0.078 A 
HETATM    3  N   UNL     1     -23.755   3.311   0.833  1.00  0.00    -0.294 N 
ATOM      4  HN  UNL     1     -23.166   2.631   1.314  1.00  0.00     0.187 HD
HETATM    5  N   UNL     1     -23.806   4.674   1.053  1.00  0.00    -0.262 N 
HETATM    6  C   UNL     1     -24.697   5.275   0.240  1.00  0.00     0.134 A 
ENDROOT
BRANCH   2   7
HETATM    7  C   UNL     1     -24.734   1.702  -0.679  1.00  0.00    -0.007 A 
HETATM    8  C   UNL     1     -24.929   0.613   0.167  1.00  0.00     0.014 A 
HETATM    9  C   UNL     1     -25.060  -0.668  -0.350  1.00  0.00     0.010 A 
HETATM   10  C   UNL     1     -24.998  -0.890  -1.720  1.00  0.00    -0.040 A 
HETATM   11  C   UNL     1     -24.762   0.189  -2.552  1.00  0.00     0.010 A 
HETATM   12  C   UNL     1     -24.639   1.468  -2.049  1.00  0.00     0.014 A 
BRANCH  10  13
HETATM   13  C   UNL     1     -25.194  -2.278  -2.261  1.00  0.00     0.161 C 
BRANCH  13  14
HETATM   14  N   UNL     1     -24.332  -2.568  -3.397  1.00  0.00    -0.353 N 
HETATM   15  C   UNL     1     -24.778  -3.163  -4.503  1.00  0.00     0.254 C 
HETATM   16  O   UNL     1     -25.973  -3.429  -4.649  1.00  0.00    -0.268 OA
ATOM     17  HN  UNL     1     -23.347  -2.306  -3.345  1.00  0.00     0.163 HD
BRANCH  15  18
HETATM   18  C   UNL     1     -23.792  -3.472  -5.580  1.00  0.00     0.068 A 
HETATM   19  C   UNL     1     -22.412  -3.666  -5.441  1.00  0.00     0.084 A 
HETATM   20  C   UNL     1     -21.620  -3.950  -6.552  1.00  0.00     0.041 A 
HETATM   21  C   UNL     1     -22.195  -4.038  -7.804  1.00  0.00     0.045 A 
HETATM   22  C   UNL     1     -23.530  -3.844  -7.912  1.00  0.00     0.117 A 
HETATM   23  F   UNL     1     -24.075  -3.905  -9.159  1.00  0.00    -0.206 F 
HETATM   24  C   UNL     1     -24.362  -3.570  -6.854  1.00  0.00     0.062 A 
BRANCH  19  25
HETATM   25  O   UNL     1     -21.915  -3.578  -4.168  1.00  0.00    -0.355 OA
HETATM   26  C   UNL     1     -20.590  -3.037  -4.002  1.00  0.00     0.210 C 
ENDBRANCH  19  25
ENDBRANCH  15  18
ENDBRANCH  13  14
ENDBRANCH  10  13
ENDBRANCH   2   7
BRANCH   1  27
HETATM   27  C   UNL     1     -26.351   4.533  -1.518  1.00  0.00     0.255 C 
HETATM   28  O   UNL     1     -26.035   4.800  -2.683  1.00  0.00    -0.268 OA
HETATM   29  N   UNL     1     -27.614   4.554  -1.108  1.00  0.00    -0.366 N 
ATOM     30  HN2 UNL     1     -27.875   4.334  -0.147  1.00  0.00     0.159 HD
ATOM     31  HN1 UNL     1     -28.354   4.734  -1.787  1.00  0.00     0.159 HD
ENDBRANCH   1  27
BRANCH   5  32
HETATM   32  C   UNL     1     -22.978   5.288   2.090  1.00  0.00     0.213 C 
HETATM   33  C   UNL     1     -23.792   6.202   3.003  1.00  0.00     0.044 C 
BRANCH  32  34
HETATM   34  C   UNL     1     -22.259   4.211   2.867  1.00  0.00     0.409 C 
HETATM   35  F   UNL     1     -21.235   3.730   2.174  1.00  0.00    -0.169 F 
HETATM   36  F   UNL     1     -21.761   4.690   4.010  1.00  0.00    -0.169 F 
HETATM   37  F   UNL     1     -23.030   3.167   3.156  1.00  0.00    -0.169 F 
ENDBRANCH  32  34
ENDBRANCH   5  32
BRANCH   6  38
HETATM   38  N   UNL     1     -25.024   6.602   0.300  1.00  0.00    -0.383 N 
ATOM     39  HN2 UNL     1     -25.346   7.136   1.108  1.00  0.00     0.157 HD
ATOM     40  HN1 UNL     1     -24.885   7.264  -0.463  1.00  0.00     0.157 HD
ENDBRANCH   6  38
TORSDOF 9
ENDMDL
MODEL 4
REMARK VINA RESULT:    -9.419      2.911      4.216
REMARK INTER + INTRA:         -15.612
REMARK INTER:                 -14.099
REMARK INTRA:                  -1.513
REMARK UNBOUND:                -1.513
REMARK  9 active torsions:
REMARK  status: ('A' for Active; 'I' for Inactive)
REMARK       I    between atoms: N_1  and  C_17 
REMARK    1  A    between atoms: C_4  and  C_17 
REMARK    2  A    between atoms: C_5  and  C_6 
REMARK    3  A    between atoms: C_9  and  C_18 
REMARK    4  A    between atoms: C_9  and  N_19 
REMARK    5  A    between atoms: C_10  and  C_21 
REMARK       I    between atoms: N_19  and  C_21 
REMARK    6  A    between atoms: C_25  and  O_26 
REMARK    7  A    between atoms: N_31  and  C_32 
REMARK    8  A    between atoms: C_32  and  C_33 
REMARK    9  A    between atoms: C_37  and  N_38 
ROOT
HETATM    1  C   UNL     1     -27.452   5.208  -0.428  1.00  0.00     0.105 A 
HETATM    2  C   UNL     1     -26.117   4.847  -0.072  1.00  0.00     0.078 A 
HETATM    3  N   UNL     1     -25.591   5.758   0.754  1.00  0.00    -0.294 N 
ATOM      4  HN  UNL     1     -24.663   5.743   1.176  1.00  0.00     0.187 HD
HETATM    5  N   UNL     1     -26.566   6.724   0.917  1.00  0.00    -0.262 N 
HETATM    6  C   UNL     1     -27.678   6.432   0.214  1.00  0.00     0.134 A 
ENDROOT
BRANCH   2   7
HETATM    7  C   UNL     1     -25.269   3.736  -0.527  1.00  0.00    -0.007 A 
HETATM    8  C   UNL     1     -24.631   2.902   0.388  1.00  0.00     0.014 A 
HETATM    9  C   UNL     1     -23.865   1.831  -0.048  1.00  0.00     0.010 A 
HETATM   10  C   UNL     1     -23.718   1.570  -1.404  1.00  0.00    -0.040 A 
HETATM   11  C   UNL     1     -24.319   2.425  -2.310  1.00  0.00     0.010 A 
HETATM   12  C   UNL     1     -25.089   3.488  -1.886  1.00  0.00     0.014 A 
BRANCH  10  13
HETATM   13  C   UNL     1     -22.925   0.373  -1.852  1.00  0.00     0.161 C 
BRANCH  13  14
HETATM   14  N   UNL     1     -23.633  -0.438  -2.832  1.00  0.00    -0.353 N 
HETATM   15  C   UNL     1     -24.607  -1.283  -2.495  1.00  0.00     0.254 C 
HETATM   16  O   UNL     1     -25.013  -1.362  -1.333  1.00  0.00    -0.268 OA
ATOM     17  HN  UNL     1     -23.373  -0.357  -3.815  1.00  0.00     0.163 HD
BRANCH  15  18
HETATM   18  C   UNL     1     -25.218  -2.114  -3.573  1.00  0.00     0.068 A 
HETATM   19  C   UNL     1     -24.582  -3.067  -4.379  1.00  0.00     0.084 A 
HETATM   20  C   UNL     1     -25.296  -3.767  -5.349  1.00  0.00     0.041 A 
HETATM   21  C   UNL     1     -26.643  -3.520  -5.526  1.00  0.00     0.045 A 
HETATM   22  C   UNL     1     -27.234  -2.592  -4.736  1.00  0.00     0.117 A 
HETATM   23  F   UNL     1     -28.556  -2.341  -4.945  1.00  0.00    -0.206 F 
HETATM   24  C   UNL     1     -26.585  -1.879  -3.759  1.00  0.00     0.062 A 
BRANCH  19  25
HETATM   25  O   UNL     1     -23.249  -3.268  -4.137  1.00  0.00    -0.355 OA
HETATM   26  C   UNL     1     -22.464  -3.879  -5.179  1.00  0.00     0.210 C 
ENDBRANCH  19  25
ENDBRANCH  15  18
ENDBRANCH  13  14
ENDBRANCH  10  13
ENDBRANCH   2   7
BRANCH   1  27
HETATM   27  C   UNL     1     -28.459   4.529  -1.252  1.00  0.00     0.255 C 
HETATM   28  O   UNL     1     -28.321   4.533  -2.481  1.00  0.00    -0.268 OA
HETATM   29  N   UNL     1     -29.528   4.004  -0.666  1.00  0.00    -0.366 N 
ATOM     30  HN2 UNL     1     -29.642   4.001   0.348  1.00  0.00     0.159 HD
ATOM     31  HN1 UNL     1     -30.228   3.532  -1.238  1.00  0.00     0.159 HD
ENDBRANCH   1  27
BRANCH   5  32
HETATM   32  C   UNL     1     -26.332   7.870   1.795  1.00  0.00     0.213 C 
HETATM   33  C   UNL     1     -25.351   7.537   2.917  1.00  0.00     0.044 C 
BRANCH  32  34
HETATM   34  C   UNL     1     -25.872   9.051   0.975  1.00  0.00     0.409 C 
HETATM   35  F   UNL     1     -25.369   8.655  -0.187  1.00  0.00    -0.169 F 
HETATM   36  F   UNL     1     -26.889   9.872   0.697  1.00  0.00    -0.169 F 
HETATM   37  F   UNL     1     -24.915   9.761   1.566  1.00  0.00    -0.169 F 
ENDBRANCH  32  34
ENDBRANCH   5  32
BRANCH   6  38
HETATM   38  N   UNL     1     -28.834   7.160   0.260  1.00  0.00    -0.383 N 
ATOM     39  HN2 UNL     1     -29.049   7.964   0.851  1.00  0.00     0.157 HD
ATOM     40  HN1 UNL     1     -29.614   7.043  -0.386  1.00  0.00     0.157 HD
ENDBRANCH   6  38
TORSDOF 9
ENDMDL
MODEL 5
REMARK VINA RESULT:    -9.366      2.890      4.234
REMARK INTER + INTRA:         -15.533
REMARK INTER:                 -14.048
REMARK INTRA:                  -1.485
REMARK UNBOUND:                -1.513
REMARK  9 active torsions:
REMARK  status: ('A' for Active; 'I' for Inactive)
REMARK       I    between atoms: N_1  and  C_17 
REMARK    1  A    between atoms: C_4  and  C_17 
REMARK    2  A    between atoms: C_5  and  C_6 
REMARK    3  A    between atoms: C_9  and  C_18 
REMARK    4  A    between atoms: C_9  and  N_19 
REMARK    5  A    between atoms: C_10  and  C_21 
REMARK       I    between atoms: N_19  and  C_21 
REMARK    6  A    between atoms: C_25  and  O_26 
REMARK    7  A    between atoms: N_31  and  C_32 
REMARK    8  A    between atoms: C_32  and  C_33 
REMARK    9  A    between atoms: C_37  and  N_38 
ROOT
HETATM    1  C   UNL     1     -27.429   5.358  -0.594  1.00  0.00     0.105 A 
HETATM    2  C   UNL     1     -26.160   4.875  -0.152  1.00  0.00     0.078 A 
HETATM    3  N   UNL     1     -25.629   5.711   0.747  1.00  0.00    -0.294 N 
ATOM      4  HN  UNL     1     -24.742   5.604   1.237  1.00  0.00     0.187 HD
HETATM    5  N   UNL     1     -26.533   6.749   0.874  1.00  0.00    -0.262 N 
HETATM    6  C   UNL     1     -27.606   6.574   0.078  1.00  0.00     0.134 A 
ENDROOT
BRANCH   2   7
HETATM    7  C   UNL     1     -25.371   3.713  -0.585  1.00  0.00    -0.007 A 
HETATM    8  C   UNL     1     -25.241   3.402  -1.936  1.00  0.00     0.014 A 
HETATM    9  C   UNL     1     -24.462   2.327  -2.341  1.00  0.00     0.010 A 
HETATM   10  C   UNL     1     -23.798   1.541  -1.408  1.00  0.00    -0.040 A 
HETATM   11  C   UNL     1     -23.964   1.829  -0.066  1.00  0.00     0.010 A 
HETATM   12  C   UNL     1     -24.730   2.900   0.347  1.00  0.00     0.014 A 
BRANCH  10  13
HETATM   13  C   UNL     1     -22.919   0.414  -1.873  1.00  0.00     0.161 C 
BRANCH  13  14
HETATM   14  N   UNL     1     -23.573  -0.446  -2.848  1.00  0.00    -0.353 N 
HETATM   15  C   UNL     1     -24.532  -1.310  -2.515  1.00  0.00     0.254 C 
HETATM   16  O   UNL     1     -24.970  -1.367  -1.364  1.00  0.00    -0.268 OA
ATOM     17  HN  UNL     1     -23.286  -0.386  -3.825  1.00  0.00     0.163 HD
BRANCH  15  18
HETATM   18  C   UNL     1     -25.086  -2.190  -3.585  1.00  0.00     0.068 A 
HETATM   19  C   UNL     1     -24.396  -3.139  -4.350  1.00  0.00     0.084 A 
HETATM   20  C   UNL     1     -25.059  -3.889  -5.319  1.00  0.00     0.041 A 
HETATM   21  C   UNL     1     -26.410  -3.695  -5.535  1.00  0.00     0.045 A 
HETATM   22  C   UNL     1     -27.053  -2.770  -4.785  1.00  0.00     0.117 A 
HETATM   23  F   UNL     1     -28.377  -2.571  -5.033  1.00  0.00    -0.206 F 
HETATM   24  C   UNL     1     -26.454  -2.009  -3.811  1.00  0.00     0.062 A 
BRANCH  19  25
HETATM   25  O   UNL     1     -23.063  -3.287  -4.070  1.00  0.00    -0.355 OA
HETATM   26  C   UNL     1     -22.209  -3.782  -5.119  1.00  0.00     0.210 C 
ENDBRANCH  19  25
ENDBRANCH  15  18
ENDBRANCH  13  14
ENDBRANCH  10  13
ENDBRANCH   2   7
BRANCH   1  27
HETATM   27  C   UNL     1     -28.420   4.793  -1.518  1.00  0.00     0.255 C 
HETATM   28  O   UNL     1     -29.223   3.957  -1.088  1.00  0.00    -0.268 OA
HETATM   29  N   UNL     1     -28.375   5.131  -2.801  1.00  0.00    -0.366 N 
ATOM     30  HN2 UNL     1     -27.712   5.820  -3.156  1.00  0.00     0.159 HD
ATOM     31  HN1 UNL     1     -29.063   4.739  -3.444  1.00  0.00     0.159 HD
ENDBRANCH   1  27
BRANCH   5  32
HETATM   32  C   UNL     1     -26.278   7.841   1.813  1.00  0.00     0.213 C 
HETATM   33  C   UNL     1     -25.316   7.425   2.923  1.00  0.00     0.044 C 
BRANCH  32  34
HETATM   34  C   UNL     1     -25.781   9.051   1.059  1.00  0.00     0.409 C 
HETATM   35  F   UNL     1     -26.729   9.974   0.965  1.00  0.00    -0.169 F 
HETATM   36  F   UNL     1     -24.748   9.621   1.687  1.00  0.00    -0.169 F 
HETATM   37  F   UNL     1     -25.409   8.778  -0.188  1.00  0.00    -0.169 F 
ENDBRANCH  32  34
ENDBRANCH   5  32
BRANCH   6  38
HETATM   38  N   UNL     1     -28.700   7.394   0.065  1.00  0.00    -0.383 N 
ATOM     39  HN2 UNL     1     -28.788   8.332   0.456  1.00  0.00     0.157 HD
ATOM     40  HN1 UNL     1     -29.562   7.197  -0.443  1.00  0.00     0.157 HD
ENDBRANCH   6  38
TORSDOF 9
ENDMDL
MODEL 6
REMARK VINA RESULT:    -9.278      2.411     10.635
REMARK INTER + INTRA:         -15.401
REMARK INTER:                 -14.929
REMARK INTRA:                  -0.471
REMARK UNBOUND:                -1.513
REMARK  9 active torsions:
REMARK  status: ('A' for Active; 'I' for Inactive)
REMARK       I    between atoms: N_1  and  C_17 
REMARK    1  A    between atoms: C_4  and  C_17 
REMARK    2  A    between atoms: C_5  and  C_6 
REMARK    3  A    between atoms: C_9  and  C_18 
REMARK    4  A    between atoms: C_9  and  N_19 
REMARK    5  A    between atoms: C_10  and  C_21 
REMARK       I    between atoms: N_19  and  C_21 
REMARK    6  A    between atoms: C_25  and  O_26 
REMARK    7  A    between atoms: N_31  and  C_32 
REMARK    8  A    between atoms: C_32  and  C_33 
REMARK    9  A    between atoms: C_37  and  N_38 
ROOT
HETATM    1  C   UNL     1     -25.634  -2.550  -4.203  1.00  0.00     0.105 A 
HETATM    2  C   UNL     1     -24.400  -1.992  -3.750  1.00  0.00     0.078 A 
HETATM    3  N   UNL     1     -23.375  -2.504  -4.438  1.00  0.00    -0.294 N 
ATOM      4  HN  UNL     1     -22.387  -2.273  -4.334  1.00  0.00     0.187 HD
HETATM    5  N   UNL     1     -23.931  -3.413  -5.320  1.00  0.00    -0.262 N 
HETATM    6  C   UNL     1     -25.270  -3.472  -5.192  1.00  0.00     0.134 A 
ENDROOT
BRANCH   2   7
HETATM    7  C   UNL     1     -24.115  -1.064  -2.646  1.00  0.00    -0.007 A 
HETATM    8  C   UNL     1     -24.980  -0.958  -1.560  1.00  0.00     0.014 A 
HETATM    9  C   UNL     1     -24.684  -0.109  -0.503  1.00  0.00     0.010 A 
HETATM   10  C   UNL     1     -23.522   0.652  -0.508  1.00  0.00    -0.040 A 
HETATM   11  C   UNL     1     -22.688   0.574  -1.608  1.00  0.00     0.010 A 
HETATM   12  C   UNL     1     -22.968  -0.272  -2.660  1.00  0.00     0.014 A 
BRANCH  10  13
HETATM   13  C   UNL     1     -23.197   1.526   0.671  1.00  0.00     0.161 C 
BRANCH  13  14
HETATM   14  N   UNL     1     -24.120   2.643   0.817  1.00  0.00    -0.353 N 
HETATM   15  C   UNL     1     -23.729   3.847   1.235  1.00  0.00     0.254 C 
HETATM   16  O   UNL     1     -22.540   4.096   1.447  1.00  0.00    -0.268 OA
ATOM     17  HN  UNL     1     -25.104   2.499   0.590  1.00  0.00     0.163 HD
BRANCH  15  18
HETATM   18  C   UNL     1     -24.770   4.900   1.411  1.00  0.00     0.068 A 
HETATM   19  C   UNL     1     -25.916   5.104   0.631  1.00  0.00     0.084 A 
HETATM   20  C   UNL     1     -26.801   6.139   0.926  1.00  0.00     0.041 A 
HETATM   21  C   UNL     1     -26.549   6.979   1.993  1.00  0.00     0.045 A 
HETATM   22  C   UNL     1     -25.433   6.762   2.729  1.00  0.00     0.117 A 
HETATM   23  F   UNL     1     -25.186   7.617   3.760  1.00  0.00    -0.206 F 
HETATM   24  C   UNL     1     -24.532   5.754   2.493  1.00  0.00     0.062 A 
BRANCH  19  25
HETATM   25  O   UNL     1     -26.107   4.225  -0.401  1.00  0.00    -0.355 OA
HETATM   26  C   UNL     1     -27.086   4.569  -1.402  1.00  0.00     0.210 C 
ENDBRANCH  19  25
ENDBRANCH  15  18
ENDBRANCH  13  14
ENDBRANCH  10  13
ENDBRANCH   2   7
BRANCH   1  27
HETATM   27  C   UNL     1     -27.025  -2.287  -3.816  1.00  0.00     0.255 C 
HETATM   28  O   UNL     1     -27.496  -2.894  -2.847  1.00  0.00    -0.268 OA
HETATM   29  N   UNL     1     -27.762  -1.472  -4.561  1.00  0.00    -0.366 N 
ATOM     30  HN2 UNL     1     -27.374  -0.971  -5.360  1.00  0.00     0.159 HD
ATOM     31  HN1 UNL     1     -28.729  -1.288  -4.291  1.00  0.00     0.159 HD
ENDBRANCH   1  27
BRANCH   5  32
HETATM   32  C   UNL     1     -23.082  -4.145  -6.260  1.00  0.00     0.213 C 
HETATM   33  C   UNL     1     -23.359  -3.744  -7.707  1.00  0.00     0.044 C 
BRANCH  32  34
HETATM   34  C   UNL     1     -21.631  -3.952  -5.888  1.00  0.00     0.409 C 
HETATM   35  F   UNL     1     -20.874  -4.895  -6.433  1.00  0.00    -0.169 F 
HETATM   36  F   UNL     1     -21.170  -2.780  -6.333  1.00  0.00    -0.169 F 
HETATM   37  F   UNL     1     -21.411  -4.015  -4.578  1.00  0.00    -0.169 F 
ENDBRANCH  32  34
ENDBRANCH   5  32
BRANCH   6  38
HETATM   38  N   UNL     1     -26.090  -4.214  -5.997  1.00  0.00    -0.383 N 
ATOM     39  HN2 UNL     1     -27.107  -4.175  -6.068  1.00  0.00     0.157 HD
ATOM     40  HN1 UNL     1     -25.761  -4.852  -6.722  1.00  0.00     0.157 HD
ENDBRANCH   6  38
TORSDOF 9
ENDMDL
MODEL 7
REMARK VINA RESULT:    -9.198      4.458      5.903
REMARK INTER + INTRA:         -15.282
REMARK INTER:                 -13.932
REMARK INTRA:                  -1.350
REMARK UNBOUND:                -1.513
REMARK  9 active torsions:
REMARK  status: ('A' for Active; 'I' for Inactive)
REMARK       I    between atoms: N_1  and  C_17 
REMARK    1  A    between atoms: C_4  and  C_17 
REMARK    2  A    between atoms: C_5  and  C_6 
REMARK    3  A    between atoms: C_9  and  C_18 
REMARK    4  A    between atoms: C_9  and  N_19 
REMARK    5  A    between atoms: C_10  and  C_21 
REMARK       I    between atoms: N_19  and  C_21 
REMARK    6  A    between atoms: C_25  and  O_26 
REMARK    7  A    between atoms: N_31  and  C_32 
REMARK    8  A    between atoms: C_32  and  C_33 
REMARK    9  A    between atoms: C_37  and  N_38 
ROOT
HETATM    1  C   UNL     1     -28.480   5.728  -1.819  1.00  0.00     0.105 A 
HETATM    2  C   UNL     1     -27.270   5.445  -2.523  1.00  0.00     0.078 A 
HETATM    3  N   UNL     1     -27.087   6.326  -3.512  1.00  0.00    -0.294 N 
ATOM      4  HN  UNL     1     -26.302   6.370  -4.160  1.00  0.00     0.187 HD
HETATM    5  N   UNL     1     -28.186   7.165  -3.474  1.00  0.00    -0.262 N 
HETATM    6  C   UNL     1     -29.038   6.825  -2.488  1.00  0.00     0.134 A 
ENDROOT
BRANCH   2   7
HETATM    7  C   UNL     1     -26.310   4.342  -2.375  1.00  0.00    -0.007 A 
HETATM    8  C   UNL     1     -26.021   3.809  -1.121  1.00  0.00     0.014 A 
HETATM    9  C   UNL     1     -25.144   2.741  -0.993  1.00  0.00     0.010 A 
HETATM   10  C   UNL     1     -24.537   2.185  -2.111  1.00  0.00    -0.040 A 
HETATM   11  C   UNL     1     -24.794   2.745  -3.349  1.00  0.00     0.010 A 
HETATM   12  C   UNL     1     -25.670   3.801  -3.488  1.00  0.00     0.014 A 
BRANCH  10  13
HETATM   13  C   UNL     1     -23.630   0.996  -1.954  1.00  0.00     0.161 C 
BRANCH  13  14
HETATM   14  N   UNL     1     -23.881  -0.040  -2.944  1.00  0.00    -0.353 N 
HETATM   15  C   UNL     1     -24.578  -1.143  -2.668  1.00  0.00     0.254 C 
HETATM   16  O   UNL     1     -25.115  -1.303  -1.569  1.00  0.00    -0.268 OA
ATOM     17  HN  UNL     1     -23.510   0.081  -3.886  1.00  0.00     0.163 HD
BRANCH  15  18
HETATM   18  C   UNL     1     -24.718  -2.171  -3.741  1.00  0.00     0.068 A 
HETATM   19  C   UNL     1     -25.869  -2.486  -4.473  1.00  0.00     0.084 A 
HETATM   20  C   UNL     1     -25.840  -3.479  -5.451  1.00  0.00     0.041 A 
HETATM   21  C   UNL     1     -24.668  -4.165  -5.701  1.00  0.00     0.045 A 
HETATM   22  C   UNL     1     -23.569  -3.843  -4.977  1.00  0.00     0.117 A 
HETATM   23  F   UNL     1     -22.430  -4.550  -5.217  1.00  0.00    -0.206 F 
HETATM   24  C   UNL     1     -23.536  -2.869  -4.010  1.00  0.00     0.062 A 
BRANCH  19  25
HETATM   25  O   UNL     1     -26.990  -1.755  -4.180  1.00  0.00    -0.355 OA
HETATM   26  C   UNL     1     -28.257  -2.253  -4.652  1.00  0.00     0.210 C 
ENDBRANCH  19  25
ENDBRANCH  15  18
ENDBRANCH  13  14
ENDBRANCH  10  13
ENDBRANCH   2   7
BRANCH   1  27
HETATM   27  C   UNL     1     -29.096   5.100  -0.644  1.00  0.00     0.255 C 
HETATM   28  O   UNL     1     -29.860   4.143  -0.814  1.00  0.00    -0.268 OA
HETATM   29  N   UNL     1     -28.883   5.626   0.557  1.00  0.00    -0.366 N 
ATOM     30  HN2 UNL     1     -28.252   6.416   0.697  1.00  0.00     0.159 HD
ATOM     31  HN1 UNL     1     -29.310   5.190   1.374  1.00  0.00     0.159 HD
ENDBRANCH   1  27
BRANCH   5  32
HETATM   32  C   UNL     1     -28.296   8.280  -4.415  1.00  0.00     0.213 C 
HETATM   33  C   UNL     1     -27.034   9.139  -4.431  1.00  0.00     0.044 C 
BRANCH  32  34
HETATM   34  C   UNL     1     -28.637   7.752  -5.788  1.00  0.00     0.409 C 
HETATM   35  F   UNL     1     -29.197   8.696  -6.533  1.00  0.00    -0.169 F 
HETATM   36  F   UNL     1     -27.541   7.348  -6.436  1.00  0.00    -0.169 F 
HETATM   37  F   UNL     1     -29.502   6.742  -5.764  1.00  0.00    -0.169 F 
ENDBRANCH  32  34
ENDBRANCH   5  32
BRANCH   6  38
HETATM   38  N   UNL     1     -30.160   7.534  -2.159  1.00  0.00    -0.383 N 
ATOM     39  HN2 UNL     1     -30.852   7.945  -2.786  1.00  0.00     0.157 HD
ATOM     40  HN1 UNL     1     -30.504   7.657  -1.207  1.00  0.00     0.157 HD
ENDBRANCH   6  38
TORSDOF 9
ENDMDL
MODEL 8
REMARK VINA RESULT:    -9.137      4.408      5.631
REMARK INTER + INTRA:         -15.190
REMARK INTER:                 -13.660
REMARK INTRA:                  -1.531
REMARK UNBOUND:                -1.513
REMARK  9 active torsions:
REMARK  status: ('A' for Active; 'I' for Inactive)
REMARK       I    between atoms: N_1  and  C_17 
REMARK    1  A    between atoms: C_4  and  C_17 
REMARK    2  A    between atoms: C_5  and  C_6 
REMARK    3  A    between atoms: C_9  and  C_18 
REMARK    4  A    between atoms: C_9  and  N_19 
REMARK    5  A    between atoms: C_10  and  C_21 
REMARK       I    between atoms: N_19  and  C_21 
REMARK    6  A    between atoms: C_25  and  O_26 
REMARK    7  A    between atoms: N_31  and  C_32 
REMARK    8  A    between atoms: C_32  and  C_33 
REMARK    9  A    between atoms: C_37  and  N_38 
ROOT
HETATM    1  C   UNL     1     -28.423   5.691  -1.759  1.00  0.00     0.105 A 
HETATM    2  C   UNL     1     -27.227   5.402  -2.484  1.00  0.00     0.078 A 
HETATM    3  N   UNL     1     -27.087   6.247  -3.511  1.00  0.00    -0.294 N 
ATOM      4  HN  UNL     1     -26.319   6.279  -4.181  1.00  0.00     0.187 HD
HETATM    5  N   UNL     1     -28.198   7.069  -3.475  1.00  0.00    -0.262 N 
HETATM    6  C   UNL     1     -29.017   6.752  -2.454  1.00  0.00     0.134 A 
ENDROOT
BRANCH   2   7
HETATM    7  C   UNL     1     -26.244   4.322  -2.322  1.00  0.00    -0.007 A 
HETATM    8  C   UNL     1     -25.962   3.795  -1.064  1.00  0.00     0.014 A 
HETATM    9  C   UNL     1     -25.063   2.748  -0.922  1.00  0.00     0.010 A 
HETATM   10  C   UNL     1     -24.425   2.206  -2.030  1.00  0.00    -0.040 A 
HETATM   11  C   UNL     1     -24.676   2.760  -3.272  1.00  0.00     0.010 A 
HETATM   12  C   UNL     1     -25.574   3.796  -3.425  1.00  0.00     0.014 A 
BRANCH  10  13
HETATM   13  C   UNL     1     -23.493   1.039  -1.858  1.00  0.00     0.161 C 
BRANCH  13  14
HETATM   14  N   UNL     1     -23.688   0.008  -2.867  1.00  0.00    -0.353 N 
HETATM   15  C   UNL     1     -24.403  -1.094  -2.639  1.00  0.00     0.254 C 
HETATM   16  O   UNL     1     -25.005  -1.258  -1.575  1.00  0.00    -0.268 OA
ATOM     17  HN  UNL     1     -23.261   0.133  -3.786  1.00  0.00     0.163 HD
BRANCH  15  18
HETATM   18  C   UNL     1     -24.482  -2.116  -3.723  1.00  0.00     0.068 A 
HETATM   19  C   UNL     1     -23.418  -2.770  -4.356  1.00  0.00     0.084 A 
HETATM   20  C   UNL     1     -23.655  -3.708  -5.359  1.00  0.00     0.041 A 
HETATM   21  C   UNL     1     -24.951  -3.996  -5.740  1.00  0.00     0.045 A 
HETATM   22  C   UNL     1     -25.962  -3.348  -5.114  1.00  0.00     0.117 A 
HETATM   23  F   UNL     1     -27.232  -3.623  -5.524  1.00  0.00    -0.206 F 
HETATM   24  C   UNL     1     -25.789  -2.422  -4.115  1.00  0.00     0.062 A 
BRANCH  19  25
HETATM   25  O   UNL     1     -22.162  -2.445  -3.917  1.00  0.00    -0.355 OA
HETATM   26  C   UNL     1     -21.143  -2.214  -4.910  1.00  0.00     0.210 C 
ENDBRANCH  19  25
ENDBRANCH  15  18
ENDBRANCH  13  14
ENDBRANCH  10  13
ENDBRANCH   2   7
BRANCH   1  27
HETATM   27  C   UNL     1     -28.995   5.099  -0.544  1.00  0.00     0.255 C 
HETATM   28  O   UNL     1     -29.789   4.158  -0.660  1.00  0.00    -0.268 OA
HETATM   29  N   UNL     1     -28.711   5.638   0.635  1.00  0.00    -0.366 N 
ATOM     30  HN2 UNL     1     -28.055   6.414   0.731  1.00  0.00     0.159 HD
ATOM     31  HN1 UNL     1     -29.108   5.227   1.480  1.00  0.00     0.159 HD
ENDBRANCH   1  27
BRANCH   5  32
HETATM   32  C   UNL     1     -28.354   8.145  -4.454  1.00  0.00     0.213 C 
HETATM   33  C   UNL     1     -27.135   9.063  -4.489  1.00  0.00     0.044 C 
BRANCH  32  34
HETATM   34  C   UNL     1     -28.656   7.555  -5.811  1.00  0.00     0.409 C 
HETATM   35  F   UNL     1     -29.310   6.407  -5.694  1.00  0.00    -0.169 F 
HETATM   36  F   UNL     1     -29.432   8.372  -6.530  1.00  0.00    -0.169 F 
HETATM   37  F   UNL     1     -27.566   7.286  -6.522  1.00  0.00    -0.169 F 
ENDBRANCH  32  34
ENDBRANCH   5  32
BRANCH   6  38
HETATM   38  N   UNL     1     -30.142   7.454  -2.120  1.00  0.00    -0.383 N 
ATOM     39  HN2 UNL     1     -30.596   8.203  -2.645  1.00  0.00     0.157 HD
ATOM     40  HN1 UNL     1     -30.741   7.238  -1.324  1.00  0.00     0.157 HD
ENDBRANCH   6  38
TORSDOF 9
ENDMDL
MODEL 9
REMARK VINA RESULT:    -9.063      2.884      4.057
REMARK INTER + INTRA:         -15.079
REMARK INTER:                 -13.582
REMARK INTRA:                  -1.497
REMARK UNBOUND:                -1.513
REMARK  9 active torsions:
REMARK  status: ('A' for Active; 'I' for Inactive)
REMARK       I    between atoms: N_1  and  C_17 
REMARK    1  A    between atoms: C_4  and  C_17 
REMARK    2  A    between atoms: C_5  and  C_6 
REMARK    3  A    between atoms: C_9  and  C_18 
REMARK    4  A    between atoms: C_9  and  N_19 
REMARK    5  A    between atoms: C_10  and  C_21 
REMARK       I    between atoms: N_19  and  C_21 
REMARK    6  A    between atoms: C_25  and  O_26 
REMARK    7  A    between atoms: N_31  and  C_32 
REMARK    8  A    between atoms: C_32  and  C_33 
REMARK    9  A    between atoms: C_37  and  N_38 
ROOT
HETATM    1  C   UNL     1     -25.616   6.092   0.306  1.00  0.00     0.105 A 
HETATM    2  C   UNL     1     -25.639   5.253  -0.849  1.00  0.00     0.078 A 
HETATM    3  N   UNL     1     -26.465   5.753  -1.774  1.00  0.00    -0.294 N 
ATOM      4  HN  UNL     1     -26.659   5.368  -2.698  1.00  0.00     0.187 HD
HETATM    5  N   UNL     1     -27.002   6.899  -1.217  1.00  0.00    -0.262 N 
HETATM    6  C   UNL     1     -26.527   7.117   0.024  1.00  0.00     0.134 A 
ENDROOT
BRANCH   2   7
HETATM    7  C   UNL     1     -24.991   3.959  -1.108  1.00  0.00    -0.007 A 
HETATM    8  C   UNL     1     -24.766   3.521  -2.410  1.00  0.00     0.014 A 
HETATM    9  C   UNL     1     -24.118   2.316  -2.647  1.00  0.00     0.010 A 
HETATM   10  C   UNL     1     -23.684   1.525  -1.592  1.00  0.00    -0.040 A 
HETATM   11  C   UNL     1     -23.947   1.944  -0.301  1.00  0.00     0.010 A 
HETATM   12  C   UNL     1     -24.583   3.144  -0.054  1.00  0.00     0.014 A 
BRANCH  10  13
HETATM   13  C   UNL     1     -22.939   0.250  -1.873  1.00  0.00     0.161 C 
BRANCH  13  14
HETATM   14  N   UNL     1     -23.597  -0.579  -2.872  1.00  0.00    -0.353 N 
HETATM   15  C   UNL     1     -24.594  -1.412  -2.571  1.00  0.00     0.254 C 
HETATM   16  O   UNL     1     -25.064  -1.462  -1.432  1.00  0.00    -0.268 OA
ATOM     17  HN  UNL     1     -23.283  -0.522  -3.841  1.00  0.00     0.163 HD
BRANCH  15  18
HETATM   18  C   UNL     1     -25.151  -2.263  -3.663  1.00  0.00     0.068 A 
HETATM   19  C   UNL     1     -24.457  -3.169  -4.474  1.00  0.00     0.084 A 
HETATM   20  C   UNL     1     -25.124  -3.897  -5.458  1.00  0.00     0.041 A 
HETATM   21  C   UNL     1     -26.482  -3.723  -5.642  1.00  0.00     0.045 A 
HETATM   22  C   UNL     1     -27.129  -2.839  -4.846  1.00  0.00     0.117 A 
HETATM   23  F   UNL     1     -28.462  -2.660  -5.062  1.00  0.00    -0.206 F 
HETATM   24  C   UNL     1     -26.527  -2.102  -3.856  1.00  0.00     0.062 A 
BRANCH  19  25
HETATM   25  O   UNL     1     -23.117  -3.299  -4.225  1.00  0.00    -0.355 OA
HETATM   26  C   UNL     1     -22.309  -3.947  -5.226  1.00  0.00     0.210 C 
ENDBRANCH  19  25
ENDBRANCH  15  18
ENDBRANCH  13  14
ENDBRANCH  10  13
ENDBRANCH   2   7
BRANCH   1  27
HETATM   27  C   UNL     1     -24.847   6.015   1.554  1.00  0.00     0.255 C 
HETATM   28  O   UNL     1     -25.459   5.998   2.628  1.00  0.00    -0.268 OA
HETATM   29  N   UNL     1     -23.521   6.049   1.500  1.00  0.00    -0.366 N 
ATOM     30  HN2 UNL     1     -23.016   6.062   0.614  1.00  0.00     0.159 HD
ATOM     31  HN1 UNL     1     -22.986   5.995   2.367  1.00  0.00     0.159 HD
ENDBRANCH   1  27
BRANCH   5  32
HETATM   32  C   UNL     1     -27.938   7.723  -1.981  1.00  0.00     0.213 C 
HETATM   33  C   UNL     1     -27.356   8.146  -3.328  1.00  0.00     0.044 C 
BRANCH  32  34
HETATM   34  C   UNL     1     -29.248   6.988  -2.138  1.00  0.00     0.409 C 
HETATM   35  F   UNL     1     -29.494   6.227  -1.080  1.00  0.00    -0.169 F 
HETATM   36  F   UNL     1     -30.270   7.842  -2.248  1.00  0.00    -0.169 F 
HETATM   37  F   UNL     1     -29.272   6.175  -3.190  1.00  0.00    -0.169 F 
ENDBRANCH  32  34
ENDBRANCH   5  32
BRANCH   6  38
HETATM   38  N   UNL     1     -26.813   8.224   0.776  1.00  0.00    -0.383 N 
ATOM     39  HN2 UNL     1     -26.963   9.181   0.456  1.00  0.00     0.157 HD
ATOM     40  HN1 UNL     1     -27.014   8.204   1.776  1.00  0.00     0.157 HD
ENDBRANCH   6  38
TORSDOF 9
ENDMDL
MODEL 10
REMARK VINA RESULT:    -8.986      2.560      4.064
REMARK INTER + INTRA:         -14.965
REMARK INTER:                 -13.753
REMARK INTRA:                  -1.211
REMARK UNBOUND:                -1.513
REMARK  9 active torsions:
REMARK  status: ('A' for Active; 'I' for Inactive)
REMARK       I    between atoms: N_1  and  C_17 
REMARK    1  A    between atoms: C_4  and  C_17 
REMARK    2  A    between atoms: C_5  and  C_6 
REMARK    3  A    between atoms: C_9  and  C_18 
REMARK    4  A    between atoms: C_9  and  N_19 
REMARK    5  A    between atoms: C_10  and  C_21 
REMARK       I    between atoms: N_19  and  C_21 
REMARK    6  A    between atoms: C_25  and  O_26 
REMARK    7  A    between atoms: N_31  and  C_32 
REMARK    8  A    between atoms: C_32  and  C_33 
REMARK    9  A    between atoms: C_37  and  N_38 
ROOT
HETATM    1  C   UNL     1     -26.647   5.245  -2.191  1.00  0.00     0.105 A 
HETATM    2  C   UNL     1     -25.885   4.442  -1.289  1.00  0.00     0.078 A 
HETATM    3  N   UNL     1     -25.884   4.983  -0.067  1.00  0.00    -0.294 N 
ATOM      4  HN  UNL     1     -25.435   4.612   0.770  1.00  0.00     0.187 HD
HETATM    5  N   UNL     1     -26.619   6.149  -0.172  1.00  0.00    -0.262 N 
HETATM    6  C   UNL     1     -27.072   6.339  -1.426  1.00  0.00     0.134 A 
ENDROOT
BRANCH   2   7
HETATM    7  C   UNL     1     -25.084   3.232  -1.525  1.00  0.00    -0.007 A 
HETATM    8  C   UNL     1     -24.983   2.679  -2.799  1.00  0.00     0.014 A 
HETATM    9  C   UNL     1     -24.192   1.561  -3.023  1.00  0.00     0.010 A 
HETATM   10  C   UNL     1     -23.488   0.971  -1.981  1.00  0.00    -0.040 A 
HETATM   11  C   UNL     1     -23.624   1.499  -0.711  1.00  0.00     0.010 A 
HETATM   12  C   UNL     1     -24.401   2.615  -0.479  1.00  0.00     0.014 A 
BRANCH  10  13
HETATM   13  C   UNL     1     -22.598  -0.209  -2.257  1.00  0.00     0.161 C 
BRANCH  13  14
HETATM   14  N   UNL     1     -23.123  -1.081  -3.297  1.00  0.00    -0.353 N 
HETATM   15  C   UNL     1     -22.340  -1.867  -4.037  1.00  0.00     0.254 C 
HETATM   16  O   UNL     1     -21.129  -1.951  -3.821  1.00  0.00    -0.268 OA
ATOM     17  HN  UNL     1     -24.129  -1.092  -3.466  1.00  0.00     0.163 HD
BRANCH  15  18
HETATM   18  C   UNL     1     -22.978  -2.671  -5.120  1.00  0.00     0.068 A 
HETATM   19  C   UNL     1     -24.326  -3.037  -5.228  1.00  0.00     0.084 A 
HETATM   20  C   UNL     1     -24.771  -3.795  -6.309  1.00  0.00     0.041 A 
HETATM   21  C   UNL     1     -23.879  -4.197  -7.284  1.00  0.00     0.045 A 
HETATM   22  C   UNL     1     -22.582  -3.832  -7.154  1.00  0.00     0.117 A 
HETATM   23  F   UNL     1     -21.711  -4.262  -8.109  1.00  0.00    -0.206 F 
HETATM   24  C   UNL     1     -22.087  -3.079  -6.118  1.00  0.00     0.062 A 
BRANCH  19  25
HETATM   25  O   UNL     1     -25.154  -2.591  -4.233  1.00  0.00    -0.355 OA
HETATM   26  C   UNL     1     -26.515  -2.276  -4.584  1.00  0.00     0.210 C 
ENDBRANCH  19  25
ENDBRANCH  15  18
ENDBRANCH  13  14
ENDBRANCH  10  13
ENDBRANCH   2   7
BRANCH   1  27
HETATM   27  C   UNL     1     -26.992   5.066  -3.606  1.00  0.00     0.255 C 
HETATM   28  O   UNL     1     -27.921   4.303  -3.898  1.00  0.00    -0.268 OA
HETATM   29  N   UNL     1     -26.250   5.658  -4.534  1.00  0.00    -0.366 N 
ATOM     30  HN2 UNL     1     -25.484   6.287  -4.293  1.00  0.00     0.159 HD
ATOM     31  HN1 UNL     1     -26.490   5.534  -5.518  1.00  0.00     0.159 HD
ENDBRANCH   1  27
BRANCH   5  32
HETATM   32  C   UNL     1     -26.848   6.988   1.004  1.00  0.00     0.213 C 
HETATM   33  C   UNL     1     -26.948   6.160   2.283  1.00  0.00     0.044 C 
BRANCH  32  34
HETATM   34  C   UNL     1     -25.766   8.038   1.095  1.00  0.00     0.409 C 
HETATM   35  F   UNL     1     -26.136   9.154   0.481  1.00  0.00    -0.169 F 
HETATM   36  F   UNL     1     -25.513   8.361   2.367  1.00  0.00    -0.169 F 
HETATM   37  F   UNL     1     -24.623   7.666   0.526  1.00  0.00    -0.169 F 
ENDBRANCH  32  34
ENDBRANCH   5  32
BRANCH   6  38
HETATM   38  N   UNL     1     -27.903   7.359  -1.801  1.00  0.00    -0.383 N 
ATOM     39  HN2 UNL     1     -28.833   7.577  -1.444  1.00  0.00     0.157 HD
ATOM     40  HN1 UNL     1     -27.640   8.111  -2.437  1.00  0.00     0.157 HD
ENDBRANCH   6  38
TORSDOF 9
ENDMDL
MODEL 11
REMARK VINA RESULT:    -8.975      2.947      4.316
REMARK INTER + INTRA:         -14.947
REMARK INTER:                 -13.465
REMARK INTRA:                  -1.483
REMARK UNBOUND:                -1.513
REMARK  9 active torsions:
REMARK  status: ('A' for Active; 'I' for Inactive)
REMARK       I    between atoms: N_1  and  C_17 
REMARK    1  A    between atoms: C_4  and  C_17 
REMARK    2  A    between atoms: C_5  and  C_6 
REMARK    3  A    between atoms: C_9  and  C_18 
REMARK    4  A    between atoms: C_9  and  N_19 
REMARK    5  A    between atoms: C_10  and  C_21 
REMARK       I    between atoms: N_19  and  C_21 
REMARK    6  A    between atoms: C_25  and  O_26 
REMARK    7  A    between atoms: N_31  and  C_32 
REMARK    8  A    between atoms: C_32  and  C_33 
REMARK    9  A    between atoms: C_37  and  N_38 
ROOT
HETATM    1  C   UNL     1     -26.955   5.823  -2.174  1.00  0.00     0.105 A 
HETATM    2  C   UNL     1     -26.149   5.123  -1.227  1.00  0.00     0.078 A 
HETATM    3  N   UNL     1     -26.134   5.770  -0.057  1.00  0.00    -0.294 N 
ATOM      4  HN  UNL     1     -25.654   5.486   0.797  1.00  0.00     0.187 HD
HETATM    5  N   UNL     1     -26.904   6.902  -0.244  1.00  0.00    -0.262 N 
HETATM    6  C   UNL     1     -27.393   6.969  -1.498  1.00  0.00     0.134 A 
ENDROOT
BRANCH   2   7
HETATM    7  C   UNL     1     -25.320   3.919  -1.377  1.00  0.00    -0.007 A 
HETATM    8  C   UNL     1     -24.975   3.146  -0.271  1.00  0.00     0.014 A 
HETATM    9  C   UNL     1     -24.225   1.988  -0.425  1.00  0.00     0.010 A 
HETATM   10  C   UNL     1     -23.803   1.579  -1.684  1.00  0.00    -0.040 A 
HETATM   11  C   UNL     1     -24.112   2.372  -2.773  1.00  0.00     0.010 A 
HETATM   12  C   UNL     1     -24.864   3.520  -2.632  1.00  0.00     0.014 A 
BRANCH  10  13
HETATM   13  C   UNL     1     -23.036   0.295  -1.832  1.00  0.00     0.161 C 
BRANCH  13  14
HETATM   14  N   UNL     1     -23.598  -0.584  -2.847  1.00  0.00    -0.353 N 
HETATM   15  C   UNL     1     -24.607  -1.418  -2.596  1.00  0.00     0.254 C 
HETATM   16  O   UNL     1     -25.171  -1.429  -1.499  1.00  0.00    -0.268 OA
ATOM     17  HN  UNL     1     -23.203  -0.561  -3.788  1.00  0.00     0.163 HD
BRANCH  15  18
HETATM   18  C   UNL     1     -25.060  -2.322  -3.694  1.00  0.00     0.068 A 
HETATM   19  C   UNL     1     -24.284  -3.234  -4.420  1.00  0.00     0.084 A 
HETATM   20  C   UNL     1     -24.858  -4.014  -5.423  1.00  0.00     0.041 A 
HETATM   21  C   UNL     1     -26.203  -3.886  -5.710  1.00  0.00     0.045 A 
HETATM   22  C   UNL     1     -26.929  -2.995  -4.995  1.00  0.00     0.117 A 
HETATM   23  F   UNL     1     -28.247  -2.862  -5.313  1.00  0.00    -0.206 F 
HETATM   24  C   UNL     1     -26.422  -2.208  -3.991  1.00  0.00     0.062 A 
BRANCH  19  25
HETATM   25  O   UNL     1     -22.963  -3.316  -4.071  1.00  0.00    -0.355 OA
HETATM   26  C   UNL     1     -22.024  -3.719  -5.087  1.00  0.00     0.210 C 
ENDBRANCH  19  25
ENDBRANCH  15  18
ENDBRANCH  13  14
ENDBRANCH  10  13
ENDBRANCH   2   7
BRANCH   1  27
HETATM   27  C   UNL     1     -27.330   5.510  -3.559  1.00  0.00     0.255 C 
HETATM   28  O   UNL     1     -28.110   4.573  -3.764  1.00  0.00    -0.268 OA
HETATM   29  N   UNL     1     -26.760   6.183  -4.552  1.00  0.00    -0.366 N 
ATOM     30  HN2 UNL     1     -26.117   6.956  -4.382  1.00  0.00     0.159 HD
ATOM     31  HN1 UNL     1     -27.021   5.966  -5.514  1.00  0.00     0.159 HD
ENDBRANCH   1  27
BRANCH   5  32
HETATM   32  C   UNL     1     -27.128   7.836   0.860  1.00  0.00     0.213 C 
HETATM   33  C   UNL     1     -27.065   7.138   2.217  1.00  0.00     0.044 C 
BRANCH  32  34
HETATM   34  C   UNL     1     -26.143   8.976   0.766  1.00  0.00     0.409 C 
HETATM   35  F   UNL     1     -25.843   9.444   1.970  1.00  0.00    -0.169 F 
HETATM   36  F   UNL     1     -24.995   8.579   0.208  1.00  0.00    -0.169 F 
HETATM   37  F   UNL     1     -26.604  10.014   0.073  1.00  0.00    -0.169 F 
ENDBRANCH  32  34
ENDBRANCH   5  32
BRANCH   6  38
HETATM   38  N   UNL     1     -28.261   7.930  -1.937  1.00  0.00    -0.383 N 
ATOM     39  HN2 UNL     1     -28.234   8.449  -2.815  1.00  0.00     0.157 HD
ATOM     40  HN1 UNL     1     -29.129   8.182  -1.464  1.00  0.00     0.157 HD
ENDBRANCH   6  38
TORSDOF 9
ENDMDL
MODEL 12
REMARK VINA RESULT:    -8.922      3.767      4.985
REMARK INTER + INTRA:         -14.868
REMARK INTER:                 -13.356
REMARK INTRA:                  -1.512
REMARK UNBOUND:                -1.513
REMARK  9 active torsions:
REMARK  status: ('A' for Active; 'I' for Inactive)
REMARK       I    between atoms: N_1  and  C_17 
REMARK    1  A    between atoms: C_4  and  C_17 
REMARK    2  A    between atoms: C_5  and  C_6 
REMARK    3  A    between atoms: C_9  and  C_18 
REMARK    4  A    between atoms: C_9  and  N_19 
REMARK    5  A    between atoms: C_10  and  C_21 
REMARK       I    between atoms: N_19  and  C_21 
REMARK    6  A    between atoms: C_25  and  O_26 
REMARK    7  A    between atoms: N_31  and  C_32 
REMARK    8  A    between atoms: C_32  and  C_33 
REMARK    9  A    between atoms: C_37  and  N_38 
ROOT
HETATM    1  C   UNL     1     -26.415   6.726  -1.647  1.00  0.00     0.105 A 
HETATM    2  C   UNL     1     -26.327   5.568  -2.477  1.00  0.00     0.078 A 
HETATM    3  N   UNL     1     -27.064   5.726  -3.581  1.00  0.00    -0.294 N 
ATOM      4  HN  UNL     1     -27.170   5.065  -4.351  1.00  0.00     0.187 HD
HETATM    5  N   UNL     1     -27.654   6.971  -3.463  1.00  0.00    -0.262 N 
HETATM    6  C   UNL     1     -27.298   7.582  -2.317  1.00  0.00     0.134 A 
ENDROOT
BRANCH   2   7
HETATM    7  C   UNL     1     -25.654   4.279  -2.258  1.00  0.00    -0.007 A 
HETATM    8  C   UNL     1     -24.960   3.651  -3.288  1.00  0.00     0.014 A 
HETATM    9  C   UNL     1     -24.294   2.454  -3.063  1.00  0.00     0.010 A 
HETATM   10  C   UNL     1     -24.307   1.860  -1.808  1.00  0.00    -0.040 A 
HETATM   11  C   UNL     1     -25.033   2.466  -0.799  1.00  0.00     0.010 A 
HETATM   12  C   UNL     1     -25.692   3.660  -1.010  1.00  0.00     0.014 A 
BRANCH  10  13
HETATM   13  C   UNL     1     -23.537   0.591  -1.575  1.00  0.00     0.161 C 
BRANCH  13  14
HETATM   14  N   UNL     1     -23.596  -0.322  -2.708  1.00  0.00    -0.353 N 
HETATM   15  C   UNL     1     -24.430  -1.362  -2.748  1.00  0.00     0.254 C 
HETATM   16  O   UNL     1     -25.254  -1.557  -1.852  1.00  0.00    -0.268 OA
ATOM     17  HN  UNL     1     -22.976  -0.160  -3.502  1.00  0.00     0.163 HD
BRANCH  15  18
HETATM   18  C   UNL     1     -24.360  -2.270  -3.930  1.00  0.00     0.068 A 
HETATM   19  C   UNL     1     -23.215  -2.669  -4.631  1.00  0.00     0.084 A 
HETATM   20  C   UNL     1     -23.314  -3.531  -5.722  1.00  0.00     0.041 A 
HETATM   21  C   UNL     1     -24.552  -3.995  -6.123  1.00  0.00     0.045 A 
HETATM   22  C   UNL     1     -25.643  -3.592  -5.430  1.00  0.00     0.117 A 
HETATM   23  F   UNL     1     -26.857  -4.036  -5.858  1.00  0.00    -0.206 F 
HETATM   24  C   UNL     1     -25.605  -2.754  -4.343  1.00  0.00     0.062 A 
BRANCH  19  25
HETATM   25  O   UNL     1     -22.023  -2.180  -4.168  1.00  0.00    -0.355 OA
HETATM   26  C   UNL     1     -20.846  -2.990  -4.360  1.00  0.00     0.210 C 
ENDBRANCH  19  25
ENDBRANCH  15  18
ENDBRANCH  13  14
ENDBRANCH  10  13
ENDBRANCH   2   7
BRANCH   1  27
HETATM   27  C   UNL     1     -25.765   7.069  -0.377  1.00  0.00     0.255 C 
HETATM   28  O   UNL     1     -24.609   7.507  -0.401  1.00  0.00    -0.268 OA
HETATM   29  N   UNL     1     -26.400   6.823   0.763  1.00  0.00    -0.366 N 
ATOM     30  HN2 UNL     1     -27.354   6.461   0.783  1.00  0.00     0.159 HD
ATOM     31  HN1 UNL     1     -25.949   7.061   1.646  1.00  0.00     0.159 HD
ENDBRANCH   1  27
BRANCH   5  32
HETATM   32  C   UNL     1     -28.517   7.484  -4.527  1.00  0.00     0.213 C 
HETATM   33  C   UNL     1     -28.041   7.043  -5.909  1.00  0.00     0.044 C 
BRANCH  32  34
HETATM   34  C   UNL     1     -29.945   7.070  -4.264  1.00  0.00     0.409 C 
HETATM   35  F   UNL     1     -30.734   7.421  -5.271  1.00  0.00    -0.169 F 
HETATM   36  F   UNL     1     -30.048   5.744  -4.135  1.00  0.00    -0.169 F 
HETATM   37  F   UNL     1     -30.465   7.634  -3.177  1.00  0.00    -0.169 F 
ENDBRANCH  32  34
ENDBRANCH   5  32
BRANCH   6  38
HETATM   38  N   UNL     1     -27.656   8.859  -1.980  1.00  0.00    -0.383 N 
ATOM     39  HN2 UNL     1     -28.398   9.158  -1.347  1.00  0.00     0.157 HD
ATOM     40  HN1 UNL     1     -27.139   9.693  -2.256  1.00  0.00     0.157 HD
ENDBRANCH   6  38
TORSDOF 9
ENDMDL
MODEL 13
REMARK VINA RESULT:    -8.905      4.672     11.273
REMARK INTER + INTRA:         -14.842
REMARK INTER:                 -13.065
REMARK INTRA:                  -1.777
REMARK UNBOUND:                -1.513
REMARK  9 active torsions:
REMARK  status: ('A' for Active; 'I' for Inactive)
REMARK       I    between atoms: N_1  and  C_17 
REMARK    1  A    between atoms: C_4  and  C_17 
REMARK    2  A    between atoms: C_5  and  C_6 
REMARK    3  A    between atoms: C_9  and  C_18 
REMARK    4  A    between atoms: C_9  and  N_19 
REMARK    5  A    between atoms: C_10  and  C_21 
REMARK       I    between atoms: N_19  and  C_21 
REMARK    6  A    between atoms: C_25  and  O_26 
REMARK    7  A    between atoms: N_31  and  C_32 
REMARK    8  A    between atoms: C_32  and  C_33 
REMARK    9  A    between atoms: C_37  and  N_38 
ROOT
HETATM    1  C   UNL     1     -22.929   3.326   1.324  1.00  0.00     0.105 A 
HETATM    2  C   UNL     1     -24.298   3.433   0.934  1.00  0.00     0.078 A 
HETATM    3  N   UNL     1     -24.675   2.348   0.249  1.00  0.00    -0.294 N 
ATOM      4  HN  UNL     1     -25.600   2.153  -0.134  1.00  0.00     0.187 HD
HETATM    5  N   UNL     1     -23.552   1.547   0.167  1.00  0.00    -0.262 N 
HETATM    6  C   UNL     1     -22.495   2.109   0.784  1.00  0.00     0.134 A 
ENDROOT
BRANCH   2   7
HETATM    7  C   UNL     1     -25.259   4.534   1.093  1.00  0.00    -0.007 A 
HETATM    8  C   UNL     1     -25.376   5.209   2.306  1.00  0.00     0.014 A 
HETATM    9  C   UNL     1     -26.256   6.274   2.438  1.00  0.00     0.010 A 
HETATM   10  C   UNL     1     -27.036   6.687   1.366  1.00  0.00    -0.040 A 
HETATM   11  C   UNL     1     -26.946   5.987   0.177  1.00  0.00     0.010 A 
HETATM   12  C   UNL     1     -26.069   4.932   0.032  1.00  0.00     0.014 A 
BRANCH  10  13
HETATM   13  C   UNL     1     -27.944   7.875   1.518  1.00  0.00     0.161 C 
BRANCH  13  14
HETATM   14  N   UNL     1     -27.260   9.044   2.051  1.00  0.00    -0.353 N 
HETATM   15  C   UNL     1     -26.661   9.943   1.270  1.00  0.00     0.254 C 
HETATM   16  O   UNL     1     -26.726   9.868   0.040  1.00  0.00    -0.268 OA
ATOM     17  HN  UNL     1     -27.237   9.181   3.061  1.00  0.00     0.163 HD
BRANCH  15  18
HETATM   18  C   UNL     1     -25.932  11.068   1.926  1.00  0.00     0.068 A 
HETATM   19  C   UNL     1     -26.357  11.836   3.017  1.00  0.00     0.084 A 
HETATM   20  C   UNL     1     -25.556  12.859   3.521  1.00  0.00     0.041 A 
HETATM   21  C   UNL     1     -24.332  13.126   2.939  1.00  0.00     0.045 A 
HETATM   22  C   UNL     1     -23.946  12.370   1.884  1.00  0.00     0.117 A 
HETATM   23  F   UNL     1     -22.749  12.667   1.305  1.00  0.00    -0.206 F 
HETATM   24  C   UNL     1     -24.688  11.345   1.352  1.00  0.00     0.062 A 
BRANCH  19  25
HETATM   25  O   UNL     1     -27.575  11.506   3.551  1.00  0.00    -0.355 OA
HETATM   26  C   UNL     1     -27.710  11.540   4.985  1.00  0.00     0.210 C 
ENDBRANCH  19  25
ENDBRANCH  15  18
ENDBRANCH  13  14
ENDBRANCH  10  13
ENDBRANCH   2   7
BRANCH   1  27
HETATM   27  C   UNL     1     -22.069   4.210   2.121  1.00  0.00     0.255 C 
HETATM   28  O   UNL     1     -21.599   3.781   3.181  1.00  0.00    -0.268 OA
HETATM   29  N   UNL     1     -21.888   5.465   1.727  1.00  0.00    -0.366 N 
ATOM     30  HN2 UNL     1     -22.276   5.818   0.853  1.00  0.00     0.159 HD
ATOM     31  HN1 UNL     1     -21.290   6.078   2.281  1.00  0.00     0.159 HD
ENDBRANCH   1  27
BRANCH   5  32
HETATM   32  C   UNL     1     -23.618   0.247  -0.501  1.00  0.00     0.213 C 
HETATM   33  C   UNL     1     -25.016  -0.361  -0.426  1.00  0.00     0.044 C 
BRANCH  32  34
HETATM   34  C   UNL     1     -23.138   0.386  -1.926  1.00  0.00     0.409 C 
HETATM   35  F   UNL     1     -21.815   0.317  -1.990  1.00  0.00    -0.169 F 
HETATM   36  F   UNL     1     -23.614  -0.599  -2.694  1.00  0.00    -0.169 F 
HETATM   37  F   UNL     1     -23.473   1.546  -2.484  1.00  0.00    -0.169 F 
ENDBRANCH  32  34
ENDBRANCH   5  32
BRANCH   6  38
HETATM   38  N   UNL     1     -21.280   1.501   0.941  1.00  0.00    -0.383 N 
ATOM     39  HN2 UNL     1     -20.944   0.642   0.505  1.00  0.00     0.157 HD
ATOM     40  HN1 UNL     1     -20.498   1.903   1.458  1.00  0.00     0.157 HD
ENDBRANCH   6  38
TORSDOF 9
ENDMDL
MODEL 14
REMARK VINA RESULT:    -8.824      3.558      5.236
REMARK INTER + INTRA:         -14.722
REMARK INTER:                 -13.480
REMARK INTRA:                  -1.241
REMARK UNBOUND:                -1.513
REMARK  9 active torsions:
REMARK  status: ('A' for Active; 'I' for Inactive)
REMARK       I    between atoms: N_1  and  C_17 
REMARK    1  A    between atoms: C_4  and  C_17 
REMARK    2  A    between atoms: C_5  and  C_6 
REMARK    3  A    between atoms: C_9  and  C_18 
REMARK    4  A    between atoms: C_9  and  N_19 
REMARK    5  A    between atoms: C_10  and  C_21 
REMARK       I    between atoms: N_19  and  C_21 
REMARK    6  A    between atoms: C_25  and  O_26 
REMARK    7  A    between atoms: N_31  and  C_32 
REMARK    8  A    between atoms: C_32  and  C_33 
REMARK    9  A    between atoms: C_37  and  N_38 
ROOT
HETATM    1  C   UNL     1     -27.457   5.877  -3.646  1.00  0.00     0.105 A 
HETATM    2  C   UNL     1     -26.813   5.377  -2.474  1.00  0.00     0.078 A 
HETATM    3  N   UNL     1     -27.055   6.177  -1.430  1.00  0.00    -0.294 N 
ATOM      4  HN  UNL     1     -26.733   6.052  -0.471  1.00  0.00     0.187 HD
HETATM    5  N   UNL     1     -27.831   7.210  -1.922  1.00  0.00    -0.262 N 
HETATM    6  C   UNL     1     -28.074   7.066  -3.239  1.00  0.00     0.134 A 
ENDROOT
BRANCH   2   7
HETATM    7  C   UNL     1     -25.910   4.232  -2.289  1.00  0.00    -0.007 A 
HETATM    8  C   UNL     1     -25.855   3.554  -1.074  1.00  0.00     0.014 A 
HETATM    9  C   UNL     1     -25.030   2.449  -0.920  1.00  0.00     0.010 A 
HETATM   10  C   UNL     1     -24.243   1.999  -1.972  1.00  0.00    -0.040 A 
HETATM   11  C   UNL     1     -24.269   2.700  -3.163  1.00  0.00     0.010 A 
HETATM   12  C   UNL     1     -25.092   3.795  -3.330  1.00  0.00     0.014 A 
BRANCH  10  13
HETATM   13  C   UNL     1     -23.395   0.770  -1.797  1.00  0.00     0.161 C 
BRANCH  13  14
HETATM   14  N   UNL     1     -23.655  -0.243  -2.809  1.00  0.00    -0.353 N 
HETATM   15  C   UNL     1     -24.460  -1.284  -2.594  1.00  0.00     0.254 C 
HETATM   16  O   UNL     1     -25.092  -1.398  -1.541  1.00  0.00    -0.268 OA
ATOM     17  HN  UNL     1     -23.203  -0.154  -3.720  1.00  0.00     0.163 HD
BRANCH  15  18
HETATM   18  C   UNL     1     -24.601  -2.297  -3.680  1.00  0.00     0.068 A 
HETATM   19  C   UNL     1     -25.771  -2.658  -4.361  1.00  0.00     0.084 A 
HETATM   20  C   UNL     1     -25.740  -3.630  -5.360  1.00  0.00     0.041 A 
HETATM   21  C   UNL     1     -24.549  -4.249  -5.683  1.00  0.00     0.045 A 
HETATM   22  C   UNL     1     -23.433  -3.883  -5.008  1.00  0.00     0.117 A 
HETATM   23  F   UNL     1     -22.273  -4.526  -5.319  1.00  0.00    -0.206 F 
HETATM   24  C   UNL     1     -23.401  -2.928  -4.022  1.00  0.00     0.062 A 
BRANCH  19  25
HETATM   25  O   UNL     1     -26.911  -1.993  -3.997  1.00  0.00    -0.355 OA
HETATM   26  C   UNL     1     -28.136  -2.346  -4.667  1.00  0.00     0.210 C 
ENDBRANCH  19  25
ENDBRANCH  15  18
ENDBRANCH  13  14
ENDBRANCH  10  13
ENDBRANCH   2   7
BRANCH   1  27
HETATM   27  C   UNL     1     -27.543   5.349  -5.013  1.00  0.00     0.255 C 
HETATM   28  O   UNL     1     -28.182   4.308  -5.208  1.00  0.00    -0.268 OA
HETATM   29  N   UNL     1     -26.868   5.953  -5.984  1.00  0.00    -0.366 N 
ATOM     30  HN2 UNL     1     -26.340   6.811  -5.823  1.00  0.00     0.159 HD
ATOM     31  HN1 UNL     1     -26.928   5.586  -6.934  1.00  0.00     0.159 HD
ENDBRANCH   1  27
BRANCH   5  32
HETATM   32  C   UNL     1     -28.309   8.266  -1.028  1.00  0.00     0.213 C 
HETATM   33  C   UNL     1     -28.637   7.729   0.363  1.00  0.00     0.044 C 
BRANCH  32  34
HETATM   34  C   UNL     1     -27.295   9.383  -0.977  1.00  0.00     0.409 C 
HETATM   35  F   UNL     1     -26.959   9.775  -2.200  1.00  0.00    -0.169 F 
HETATM   36  F   UNL     1     -27.789  10.455  -0.350  1.00  0.00    -0.169 F 
HETATM   37  F   UNL     1     -26.160   9.037  -0.377  1.00  0.00    -0.169 F 
ENDBRANCH  32  34
ENDBRANCH   5  32
BRANCH   6  38
HETATM   38  N   UNL     1     -28.889   7.888  -3.968  1.00  0.00    -0.383 N 
ATOM     39  HN2 UNL     1     -28.995   8.899  -3.891  1.00  0.00     0.157 HD
ATOM     40  HN1 UNL     1     -29.437   7.587  -4.773  1.00  0.00     0.157 HD
ENDBRANCH   6  38
TORSDOF 9
ENDMDL
MODEL 15
REMARK VINA RESULT:    -8.789      4.019      5.471
REMARK INTER + INTRA:         -14.669
REMARK INTER:                 -13.393
REMARK INTRA:                  -1.277
REMARK UNBOUND:                -1.513
REMARK  9 active torsions:
REMARK  status: ('A' for Active; 'I' for Inactive)
REMARK       I    between atoms: N_1  and  C_17 
REMARK    1  A    between atoms: C_4  and  C_17 
REMARK    2  A    between atoms: C_5  and  C_6 
REMARK    3  A    between atoms: C_9  and  C_18 
REMARK    4  A    between atoms: C_9  and  N_19 
REMARK    5  A    between atoms: C_10  and  C_21 
REMARK       I    between atoms: N_19  and  C_21 
REMARK    6  A    between atoms: C_25  and  O_26 
REMARK    7  A    between atoms: N_31  and  C_32 
REMARK    8  A    between atoms: C_32  and  C_33 
REMARK    9  A    between atoms: C_37  and  N_38 
ROOT
HETATM    1  C   UNL     1     -26.467   6.991  -1.933  1.00  0.00     0.105 A 
HETATM    2  C   UNL     1     -26.356   5.797  -2.709  1.00  0.00     0.078 A 
HETATM    3  N   UNL     1     -27.057   5.908  -3.842  1.00  0.00    -0.294 N 
ATOM      4  HN  UNL     1     -27.139   5.215  -4.585  1.00  0.00     0.187 HD
HETATM    5  N   UNL     1     -27.647   7.157  -3.796  1.00  0.00    -0.262 N 
HETATM    6  C   UNL     1     -27.327   7.817  -2.667  1.00  0.00     0.134 A 
ENDROOT
BRANCH   2   7
HETATM    7  C   UNL     1     -25.694   4.519  -2.412  1.00  0.00    -0.007 A 
HETATM    8  C   UNL     1     -25.865   3.894  -1.179  1.00  0.00     0.014 A 
HETATM    9  C   UNL     1     -25.270   2.668  -0.920  1.00  0.00     0.010 A 
HETATM   10  C   UNL     1     -24.491   2.040  -1.884  1.00  0.00    -0.040 A 
HETATM   11  C   UNL     1     -24.289   2.683  -3.091  1.00  0.00     0.010 A 
HETATM   12  C   UNL     1     -24.883   3.899  -3.361  1.00  0.00     0.014 A 
BRANCH  10  13
HETATM   13  C   UNL     1     -23.898   0.688  -1.599  1.00  0.00     0.161 C 
BRANCH  13  14
HETATM   14  N   UNL     1     -24.110  -0.260  -2.683  1.00  0.00    -0.353 N 
HETATM   15  C   UNL     1     -24.787  -1.397  -2.521  1.00  0.00     0.254 C 
HETATM   16  O   UNL     1     -25.341  -1.665  -1.452  1.00  0.00    -0.268 OA
ATOM     17  HN  UNL     1     -23.724  -0.047  -3.603  1.00  0.00     0.163 HD
BRANCH  15  18
HETATM   18  C   UNL     1     -24.886  -2.327  -3.684  1.00  0.00     0.068 A 
HETATM   19  C   UNL     1     -26.015  -2.590  -4.470  1.00  0.00     0.084 A 
HETATM   20  C   UNL     1     -25.947  -3.491  -5.530  1.00  0.00     0.041 A 
HETATM   21  C   UNL     1     -24.759  -4.137  -5.811  1.00  0.00     0.045 A 
HETATM   22  C   UNL     1     -23.683  -3.866  -5.035  1.00  0.00     0.117 A 
HETATM   23  F   UNL     1     -22.528  -4.534  -5.308  1.00  0.00    -0.206 F 
HETATM   24  C   UNL     1     -23.688  -2.983  -3.984  1.00  0.00     0.062 A 
BRANCH  19  25
HETATM   25  O   UNL     1     -27.153  -1.903  -4.141  1.00  0.00    -0.355 OA
HETATM   26  C   UNL     1     -28.395  -2.346  -4.723  1.00  0.00     0.210 C 
ENDBRANCH  19  25
ENDBRANCH  15  18
ENDBRANCH  13  14
ENDBRANCH  10  13
ENDBRANCH   2   7
BRANCH   1  27
HETATM   27  C   UNL     1     -25.858   7.387  -0.658  1.00  0.00     0.255 C 
HETATM   28  O   UNL     1     -24.629   7.516  -0.602  1.00  0.00    -0.268 OA
HETATM   29  N   UNL     1     -26.628   7.515   0.416  1.00  0.00    -0.366 N 
ATOM     30  HN2 UNL     1     -27.642   7.409   0.370  1.00  0.00     0.159 HD
ATOM     31  HN1 UNL     1     -26.205   7.791   1.302  1.00  0.00     0.159 HD
ENDBRANCH   1  27
BRANCH   5  32
HETATM   32  C   UNL     1     -28.475   7.624  -4.909  1.00  0.00     0.213 C 
HETATM   33  C   UNL     1     -28.002   7.060  -6.246  1.00  0.00     0.044 C 
BRANCH  32  34
HETATM   34  C   UNL     1     -29.923   7.293  -4.637  1.00  0.00     0.409 C 
HETATM   35  F   UNL     1     -30.676   7.555  -5.696  1.00  0.00    -0.169 F 
HETATM   36  F   UNL     1     -30.078   5.995  -4.363  1.00  0.00    -0.169 F 
HETATM   37  F   UNL     1     -30.443   7.994  -3.633  1.00  0.00    -0.169 F 
ENDBRANCH  32  34
ENDBRANCH   5  32
BRANCH   6  38
HETATM   38  N   UNL     1     -27.693   9.107  -2.397  1.00  0.00    -0.383 N 
ATOM     39  HN2 UNL     1     -27.090   9.923  -2.288  1.00  0.00     0.157 HD
ATOM     40  HN1 UNL     1     -28.657   9.439  -2.369  1.00  0.00     0.157 HD
ENDBRANCH   6  38
TORSDOF 9
ENDMDL
MODEL 16
REMARK VINA RESULT:    -8.677      4.828      9.961
REMARK INTER + INTRA:         -14.501
REMARK INTER:                 -12.729
REMARK INTRA:                  -1.772
REMARK UNBOUND:                -1.513
REMARK  9 active torsions:
REMARK  status: ('A' for Active; 'I' for Inactive)
REMARK       I    between atoms: N_1  and  C_17 
REMARK    1  A    between atoms: C_4  and  C_17 
REMARK    2  A    between atoms: C_5  and  C_6 
REMARK    3  A    between atoms: C_9  and  C_18 
REMARK    4  A    between atoms: C_9  and  N_19 
REMARK    5  A    between atoms: C_10  and  C_21 
REMARK       I    between atoms: N_19  and  C_21 
REMARK    6  A    between atoms: C_25  and  O_26 
REMARK    7  A    between atoms: N_31  and  C_32 
REMARK    8  A    between atoms: C_32  and  C_33 
REMARK    9  A    between atoms: C_37  and  N_38 
ROOT
HETATM    1  C   UNL     1     -22.968   3.433   1.295  1.00  0.00     0.105 A 
HETATM    2  C   UNL     1     -24.271   3.620   0.741  1.00  0.00     0.078 A 
HETATM    3  N   UNL     1     -24.646   2.537   0.051  1.00  0.00    -0.294 N 
ATOM      4  HN  UNL     1     -25.531   2.392  -0.432  1.00  0.00     0.187 HD
HETATM    5  N   UNL     1     -23.583   1.656   0.130  1.00  0.00    -0.262 N 
HETATM    6  C   UNL     1     -22.566   2.167   0.849  1.00  0.00     0.134 A 
ENDROOT
BRANCH   2   7
HETATM    7  C   UNL     1     -25.158   4.792   0.751  1.00  0.00    -0.007 A 
HETATM    8  C   UNL     1     -25.704   5.265   1.941  1.00  0.00     0.014 A 
HETATM    9  C   UNL     1     -26.508   6.396   1.949  1.00  0.00     0.010 A 
HETATM   10  C   UNL     1     -26.786   7.076   0.770  1.00  0.00    -0.040 A 
HETATM   11  C   UNL     1     -26.276   6.578  -0.415  1.00  0.00     0.010 A 
HETATM   12  C   UNL     1     -25.469   5.459  -0.432  1.00  0.00     0.014 A 
BRANCH  10  13
HETATM   13  C   UNL     1     -27.618   8.327   0.809  1.00  0.00     0.161 C 
BRANCH  13  14
HETATM   14  N   UNL     1     -27.515   9.112  -0.413  1.00  0.00    -0.353 N 
HETATM   15  C   UNL     1     -28.553   9.318  -1.223  1.00  0.00     0.254 C 
HETATM   16  O   UNL     1     -29.681   8.914  -0.934  1.00  0.00    -0.268 OA
ATOM     17  HN  UNL     1     -26.612   9.520  -0.659  1.00  0.00     0.163 HD
BRANCH  15  18
HETATM   18  C   UNL     1     -28.318  10.082  -2.483  1.00  0.00     0.068 A 
HETATM   19  C   UNL     1     -27.500   9.718  -3.560  1.00  0.00     0.084 A 
HETATM   20  C   UNL     1     -27.384  10.545  -4.676  1.00  0.00     0.041 A 
HETATM   21  C   UNL     1     -28.077  11.738  -4.724  1.00  0.00     0.045 A 
HETATM   22  C   UNL     1     -28.859  12.068  -3.668  1.00  0.00     0.117 A 
HETATM   23  F   UNL     1     -29.511  13.263  -3.720  1.00  0.00    -0.206 F 
HETATM   24  C   UNL     1     -29.018  11.291  -2.548  1.00  0.00     0.062 A 
BRANCH  19  25
HETATM   25  O   UNL     1     -26.855   8.515  -3.449  1.00  0.00    -0.355 OA
HETATM   26  C   UNL     1     -27.447   7.374  -4.101  1.00  0.00     0.210 C 
ENDBRANCH  19  25
ENDBRANCH  15  18
ENDBRANCH  13  14
ENDBRANCH  10  13
ENDBRANCH   2   7
BRANCH   1  27
HETATM   27  C   UNL     1     -22.143   4.285   2.160  1.00  0.00     0.255 C 
HETATM   28  O   UNL     1     -21.637   3.788   3.173  1.00  0.00    -0.268 OA
HETATM   29  N   UNL     1     -22.030   5.577   1.878  1.00  0.00    -0.366 N 
ATOM     30  HN2 UNL     1     -22.448   5.987   1.042  1.00  0.00     0.159 HD
ATOM     31  HN1 UNL     1     -21.457   6.169   2.479  1.00  0.00     0.159 HD
ENDBRANCH   1  27
BRANCH   5  32
HETATM   32  C   UNL     1     -23.668   0.339  -0.500  1.00  0.00     0.213 C 
HETATM   33  C   UNL     1     -25.087  -0.223  -0.457  1.00  0.00     0.044 C 
BRANCH  32  34
HETATM   34  C   UNL     1     -23.134   0.416  -1.911  1.00  0.00     0.409 C 
HETATM   35  F   UNL     1     -21.807   0.417  -1.916  1.00  0.00    -0.169 F 
HETATM   36  F   UNL     1     -23.523  -0.638  -2.633  1.00  0.00    -0.169 F 
HETATM   37  F   UNL     1     -23.505   1.519  -2.554  1.00  0.00    -0.169 F 
ENDBRANCH  32  34
ENDBRANCH   5  32
BRANCH   6  38
HETATM   38  N   UNL     1     -21.426   1.482   1.169  1.00  0.00    -0.383 N 
ATOM     39  HN2 UNL     1     -21.159   0.539   0.888  1.00  0.00     0.157 HD
ATOM     40  HN1 UNL     1     -20.632   1.886   1.665  1.00  0.00     0.157 HD
ENDBRANCH   6  38
TORSDOF 9
ENDMDL
MODEL 17
REMARK VINA RESULT:    -8.643      2.536     10.414
REMARK INTER + INTRA:         -14.450
REMARK INTER:                 -14.556
REMARK INTRA:                   0.105
REMARK UNBOUND:                -1.513
REMARK  9 active torsions:
REMARK  status: ('A' for Active; 'I' for Inactive)
REMARK       I    between atoms: N_1  and  C_17 
REMARK    1  A    between atoms: C_4  and  C_17 
REMARK    2  A    between atoms: C_5  and  C_6 
REMARK    3  A    between atoms: C_9  and  C_18 
REMARK    4  A    between atoms: C_9  and  N_19 
REMARK    5  A    between atoms: C_10  and  C_21 
REMARK       I    between atoms: N_19  and  C_21 
REMARK    6  A    between atoms: C_25  and  O_26 
REMARK    7  A    between atoms: N_31  and  C_32 
REMARK    8  A    between atoms: C_32  and  C_33 
REMARK    9  A    between atoms: C_37  and  N_38 
ROOT
HETATM    1  C   UNL     1     -25.495  -2.360  -4.271  1.00  0.00     0.105 A 
HETATM    2  C   UNL     1     -24.329  -1.972  -3.544  1.00  0.00     0.078 A 
HETATM    3  N   UNL     1     -23.259  -2.642  -3.984  1.00  0.00    -0.294 N 
ATOM      4  HN  UNL     1     -22.298  -2.551  -3.656  1.00  0.00     0.187 HD
HETATM    5  N   UNL     1     -23.726  -3.484  -4.976  1.00  0.00    -0.262 N 
HETATM    6  C   UNL     1     -25.054  -3.350  -5.158  1.00  0.00     0.134 A 
ENDROOT
BRANCH   2   7
HETATM    7  C   UNL     1     -24.170  -1.065  -2.398  1.00  0.00    -0.007 A 
HETATM    8  C   UNL     1     -23.134  -0.136  -2.361  1.00  0.00     0.014 A 
HETATM    9  C   UNL     1     -23.013   0.744  -1.295  1.00  0.00     0.010 A 
HETATM   10  C   UNL     1     -23.923   0.716  -0.245  1.00  0.00    -0.040 A 
HETATM   11  C   UNL     1     -24.925  -0.236  -0.267  1.00  0.00     0.010 A 
HETATM   12  C   UNL     1     -25.059  -1.110  -1.326  1.00  0.00     0.014 A 
BRANCH  10  13
HETATM   13  C   UNL     1     -23.802   1.713   0.873  1.00  0.00     0.161 C 
BRANCH  13  14
HETATM   14  N   UNL     1     -24.386   3.005   0.543  1.00  0.00    -0.353 N 
HETATM   15  C   UNL     1     -23.763   4.158   0.788  1.00  0.00     0.254 C 
HETATM   16  O   UNL     1     -22.616   4.182   1.240  1.00  0.00    -0.268 OA
ATOM     17  HN  UNL     1     -25.309   3.029   0.108  1.00  0.00     0.163 HD
BRANCH  15  18
HETATM   18  C   UNL     1     -24.483   5.425   0.469  1.00  0.00     0.068 A 
HETATM   19  C   UNL     1     -24.461   6.623   1.195  1.00  0.00     0.084 A 
HETATM   20  C   UNL     1     -25.192   7.728   0.764  1.00  0.00     0.041 A 
HETATM   21  C   UNL     1     -25.951   7.646  -0.387  1.00  0.00     0.045 A 
HETATM   22  C   UNL     1     -25.957   6.476  -1.069  1.00  0.00     0.117 A 
HETATM   23  F   UNL     1     -26.735   6.404  -2.184  1.00  0.00    -0.206 F 
HETATM   24  C   UNL     1     -25.251   5.359  -0.698  1.00  0.00     0.062 A 
BRANCH  19  25
HETATM   25  O   UNL     1     -23.676   6.634   2.317  1.00  0.00    -0.355 OA
HETATM   26  C   UNL     1     -24.260   7.123   3.539  1.00  0.00     0.210 C 
ENDBRANCH  19  25
ENDBRANCH  15  18
ENDBRANCH  13  14
ENDBRANCH  10  13
ENDBRANCH   2   7
BRANCH   1  27
HETATM   27  C   UNL     1     -26.885  -1.892  -4.209  1.00  0.00     0.255 C 
HETATM   28  O   UNL     1     -27.748  -2.656  -3.759  1.00  0.00    -0.268 OA
HETATM   29  N   UNL     1     -27.191  -0.702  -4.710  1.00  0.00    -0.366 N 
ATOM     30  HN2 UNL     1     -26.479  -0.072  -5.080  1.00  0.00     0.159 HD
ATOM     31  HN1 UNL     1     -28.157  -0.376  -4.666  1.00  0.00     0.159 HD
ENDBRANCH   1  27
BRANCH   5  32
HETATM   32  C   UNL     1     -22.801  -4.354  -5.703  1.00  0.00     0.213 C 
HETATM   33  C   UNL     1     -23.188  -4.493  -7.174  1.00  0.00     0.044 C 
BRANCH  32  34
HETATM   34  C   UNL     1     -21.389  -3.844  -5.537  1.00  0.00     0.409 C 
HETATM   35  F   UNL     1     -20.516  -4.677  -6.087  1.00  0.00    -0.169 F 
HETATM   36  F   UNL     1     -21.229  -2.662  -6.139  1.00  0.00    -0.169 F 
HETATM   37  F   UNL     1     -21.023  -3.714  -4.265  1.00  0.00    -0.169 F 
ENDBRANCH  32  34
ENDBRANCH   5  32
BRANCH   6  38
HETATM   38  N   UNL     1     -25.768  -3.989  -6.134  1.00  0.00    -0.383 N 
ATOM     39  HN2 UNL     1     -26.315  -4.847  -6.054  1.00  0.00     0.157 HD
ATOM     40  HN1 UNL     1     -25.924  -3.616  -7.070  1.00  0.00     0.157 HD
ENDBRANCH   6  38
TORSDOF 9
ENDMDL
