MODEL 1
REMARK VINA RESULT:    -5.978      0.000      0.000
REMARK INTER + INTRA:          -8.830
REMARK INTER:                  -8.075
REMARK INTRA:                  -0.755
REMARK UNBOUND:                -0.755
REMARK  8 active torsions:
REMARK  status: ('A' for Active; 'I' for Inactive)
REMARK       I    between atoms: N_1  and  C_6 
REMARK    1  A    between atoms: N_1  and  C_12 
REMARK    2  A    between atoms: C_3  and  O_20 
REMARK    3  A    between atoms: C_6  and  C_7 
REMARK    4  A    between atoms: C_14  and  O_15 
REMARK    5  A    between atoms: C_17  and  O_18 
REMARK    6  A    between atoms: C_24  and  C_26 
REMARK    7  A    between atoms: C_28  and  C_29 
REMARK    8  A    between atoms: C_29  and  N_30 
ROOT
HETATM    1  N   UNL     1      25.975  -0.063   5.370  1.00  0.00    -0.326 N 
ATOM      2  HN  UNL     1      25.436   0.487   4.701  1.00  0.00     0.165 HD
HETATM    3  C   UNL     1      25.575  -1.293   5.696  1.00  0.00     0.277 C 
HETATM    4  O   UNL     1      26.120  -1.946   6.618  1.00  0.00    -0.265 OA
ENDROOT
BRANCH   3   5
HETATM    5  C   UNL     1      24.480  -1.868   4.949  1.00  0.00     0.143 A 
HETATM    6  C   UNL     1      24.029  -3.121   4.872  1.00  0.00     0.046 A 
HETATM    7  C   UNL     1      22.922  -3.103   4.008  1.00  0.00     0.041 A 
HETATM    8  C   UNL     1      22.788  -1.850   3.576  1.00  0.00     0.086 A 
HETATM    9  O   UNL     1      23.706  -1.052   4.185  1.00  0.00    -0.304 OA
BRANCH   8  10
HETATM   10  C   UNL     1      21.885  -1.218   2.615  1.00  0.00    -0.002 A 
HETATM   11  C   UNL     1      22.234  -0.129   1.869  1.00  0.00     0.014 A 
HETATM   12  C   UNL     1      21.308   0.472   1.013  1.00  0.00     0.002 A 
HETATM   13  C   UNL     1      20.008  -0.043   0.877  1.00  0.00     0.009 A 
HETATM   14  C   UNL     1      19.652  -1.119   1.652  1.00  0.00    -0.032 A 
HETATM   15  C   UNL     1      20.598  -1.675   2.510  1.00  0.00     0.023 A 
BRANCH  14  16
HETATM   16  C   UNL     1      18.321  -1.815   1.579  1.00  0.00     0.268 C 
BRANCH  16  17
HETATM   17  N   UNL     1      17.543  -1.652   0.232  1.00  0.00    -0.075 N 
ATOM     18  HN3 UNL     1      17.964  -0.910  -0.326  1.00  0.00     0.274 HD
ATOM     19  HN2 UNL     1      17.721  -2.456  -0.372  1.00  0.00     0.274 HD
ATOM     20  HN1 UNL     1      16.539  -1.497   0.317  1.00  0.00     0.274 HD
ENDBRANCH  16  17
ENDBRANCH  14  16
ENDBRANCH   8  10
ENDBRANCH   3   5
BRANCH   1  21
HETATM   21  C   UNL     1      27.139   0.476   5.943  1.00  0.00     0.255 C 
HETATM   22  C   UNL     1      26.783   1.468   7.065  1.00  0.00     0.198 C 
HETATM   23  C   UNL     1      28.038   2.157   7.584  1.00  0.00     0.182 C 
HETATM   24  C   UNL     1      28.899   2.686   6.466  1.00  0.00     0.178 C 
HETATM   25  C   UNL     1      29.175   1.601   5.438  1.00  0.00     0.151 C 
HETATM   26  C   UNL     1      29.949   2.155   4.265  1.00  0.00     0.042 C 
HETATM   27  O   UNL     1      27.898   1.108   4.977  1.00  0.00    -0.356 OA
BRANCH  22  28
HETATM   28  O   UNL     1      26.049   0.847   8.134  1.00  0.00    -0.389 OA
ATOM     29  HO  UNL     1      26.630   0.398   8.736  1.00  0.00     0.210 HD
ENDBRANCH  22  28
BRANCH  23  30
HETATM   30  O   UNL     1      27.720   3.168   8.539  1.00  0.00    -0.390 OA
ATOM     31  HO  UNL     1      28.499   3.486   8.979  1.00  0.00     0.210 HD
ENDBRANCH  23  30
BRANCH  24  32
HETATM   32  O   UNL     1      28.173   3.773   5.884  1.00  0.00    -0.390 OA
ATOM     33  HO  UNL     1      28.035   3.542   4.973  1.00  0.00     0.210 HD
ENDBRANCH  24  32
ENDBRANCH   1  21
TORSDOF 8
ENDMDL
MODEL 2
REMARK VINA RESULT:    -5.909      2.220      3.613
REMARK INTER + INTRA:          -8.737
REMARK INTER:                  -8.083
REMARK INTRA:                  -0.654
REMARK UNBOUND:                -0.755
REMARK  8 active torsions:
REMARK  status: ('A' for Active; 'I' for Inactive)
REMARK       I    between atoms: N_1  and  C_6 
REMARK    1  A    between atoms: N_1  and  C_12 
REMARK    2  A    between atoms: C_3  and  O_20 
REMARK    3  A    between atoms: C_6  and  C_7 
REMARK    4  A    between atoms: C_14  and  O_15 
REMARK    5  A    between atoms: C_17  and  O_18 
REMARK    6  A    between atoms: C_24  and  C_26 
REMARK    7  A    between atoms: C_28  and  C_29 
REMARK    8  A    between atoms: C_29  and  N_30 
ROOT
HETATM    1  N   UNL     1      24.731  -0.432   4.363  1.00  0.00    -0.326 N 
ATOM      2  HN  UNL     1      23.915  -0.903   4.752  1.00  0.00     0.165 HD
HETATM    3  C   UNL     1      24.693   0.044   3.118  1.00  0.00     0.277 C 
HETATM    4  O   UNL     1      25.715   0.497   2.548  1.00  0.00    -0.265 OA
ENDROOT
BRANCH   3   5
HETATM    5  C   UNL     1      23.423   0.029   2.428  1.00  0.00     0.143 A 
HETATM    6  C   UNL     1      22.876   0.897   1.574  1.00  0.00     0.046 A 
HETATM    7  C   UNL     1      21.631   0.366   1.198  1.00  0.00     0.041 A 
HETATM    8  C   UNL     1      21.473  -0.771   1.875  1.00  0.00     0.086 A 
HETATM    9  O   UNL     1      22.592  -1.031   2.604  1.00  0.00    -0.304 OA
BRANCH   8  10
HETATM   10  C   UNL     1      20.372  -1.727   1.973  1.00  0.00    -0.002 A 
HETATM   11  C   UNL     1      19.088  -1.426   1.620  1.00  0.00     0.014 A 
HETATM   12  C   UNL     1      18.065  -2.360   1.796  1.00  0.00     0.002 A 
HETATM   13  C   UNL     1      18.333  -3.638   2.314  1.00  0.00     0.009 A 
HETATM   14  C   UNL     1      19.620  -3.926   2.697  1.00  0.00    -0.032 A 
HETATM   15  C   UNL     1      20.607  -2.959   2.526  1.00  0.00     0.023 A 
BRANCH  14  16
HETATM   16  C   UNL     1      20.073  -5.264   3.214  1.00  0.00     0.268 C 
BRANCH  16  17
HETATM   17  N   UNL     1      19.887  -5.497   4.749  1.00  0.00    -0.075 N 
ATOM     18  HN3 UNL     1      19.789  -4.602   5.228  1.00  0.00     0.274 HD
ATOM     19  HN2 UNL     1      18.968  -5.902   4.931  1.00  0.00     0.274 HD
ATOM     20  HN1 UNL     1      20.610  -6.057   5.202  1.00  0.00     0.274 HD
ENDBRANCH  16  17
ENDBRANCH  14  16
ENDBRANCH   8  10
ENDBRANCH   3   5
BRANCH   1  21
HETATM   21  C   UNL     1      25.893  -0.287   5.140  1.00  0.00     0.255 C 
HETATM   22  C   UNL     1      25.867  -1.246   6.344  1.00  0.00     0.198 C 
HETATM   23  C   UNL     1      27.055  -0.983   7.259  1.00  0.00     0.182 C 
HETATM   24  C   UNL     1      27.220   0.483   7.568  1.00  0.00     0.178 C 
HETATM   25  C   UNL     1      27.236   1.306   6.291  1.00  0.00     0.151 C 
HETATM   26  C   UNL     1      27.295   2.783   6.603  1.00  0.00     0.042 C 
HETATM   27  O   UNL     1      26.013   1.018   5.577  1.00  0.00    -0.356 OA
BRANCH  22  28
HETATM   28  O   UNL     1      25.810  -2.625   5.945  1.00  0.00    -0.389 OA
ATOM     29  HO  UNL     1      25.900  -2.716   5.004  1.00  0.00     0.210 HD
ENDBRANCH  22  28
BRANCH  23  30
HETATM   30  O   UNL     1      26.985  -1.776   8.443  1.00  0.00    -0.390 OA
ATOM     31  HO  UNL     1      26.150  -1.672   8.881  1.00  0.00     0.210 HD
ENDBRANCH  23  30
BRANCH  24  32
HETATM   32  O   UNL     1      26.111   0.842   8.399  1.00  0.00    -0.390 OA
ATOM     33  HO  UNL     1      26.323   1.689   8.772  1.00  0.00     0.210 HD
ENDBRANCH  24  32
ENDBRANCH   1  21
TORSDOF 8
ENDMDL
MODEL 3
REMARK VINA RESULT:    -5.792      1.437      1.879
REMARK INTER + INTRA:          -8.579
REMARK INTER:                  -7.843
REMARK INTRA:                  -0.737
REMARK UNBOUND:                -0.755
REMARK  8 active torsions:
REMARK  status: ('A' for Active; 'I' for Inactive)
REMARK       I    between atoms: N_1  and  C_6 
REMARK    1  A    between atoms: N_1  and  C_12 
REMARK    2  A    between atoms: C_3  and  O_20 
REMARK    3  A    between atoms: C_6  and  C_7 
REMARK    4  A    between atoms: C_14  and  O_15 
REMARK    5  A    between atoms: C_17  and  O_18 
REMARK    6  A    between atoms: C_24  and  C_26 
REMARK    7  A    between atoms: C_28  and  C_29 
REMARK    8  A    between atoms: C_29  and  N_30 
ROOT
HETATM    1  N   UNL     1      26.556   1.097   6.229  1.00  0.00    -0.326 N 
ATOM      2  HN  UNL     1      25.616   1.456   6.398  1.00  0.00     0.165 HD
HETATM    3  C   UNL     1      26.718  -0.104   5.672  1.00  0.00     0.277 C 
HETATM    4  O   UNL     1      27.845  -0.648   5.581  1.00  0.00    -0.265 OA
ENDROOT
BRANCH   3   5
HETATM    5  C   UNL     1      25.544  -0.778   5.165  1.00  0.00     0.143 A 
HETATM    6  C   UNL     1      25.002  -1.956   5.478  1.00  0.00     0.046 A 
HETATM    7  C   UNL     1      23.853  -2.098   4.683  1.00  0.00     0.041 A 
HETATM    8  C   UNL     1      23.784  -1.020   3.903  1.00  0.00     0.086 A 
HETATM    9  O   UNL     1      24.790  -0.159   4.218  1.00  0.00    -0.304 OA
BRANCH   8  10
HETATM   10  C   UNL     1      22.878  -0.624   2.827  1.00  0.00    -0.002 A 
HETATM   11  C   UNL     1      23.267   0.148   1.770  1.00  0.00     0.014 A 
HETATM   12  C   UNL     1      22.340   0.549   0.804  1.00  0.00     0.002 A 
HETATM   13  C   UNL     1      20.996   0.148   0.880  1.00  0.00     0.009 A 
HETATM   14  C   UNL     1      20.603  -0.601   1.962  1.00  0.00    -0.032 A 
HETATM   15  C   UNL     1      21.552  -0.961   2.914  1.00  0.00     0.023 A 
BRANCH  14  16
HETATM   16  C   UNL     1      19.217  -1.152   2.154  1.00  0.00     0.268 C 
BRANCH  16  17
HETATM   17  N   UNL     1      18.231  -0.943   0.958  1.00  0.00    -0.075 N 
ATOM     18  HN3 UNL     1      18.633  -1.330   0.104  1.00  0.00     0.274 HD
ATOM     19  HN2 UNL     1      17.418  -1.550   1.067  1.00  0.00     0.274 HD
ATOM     20  HN1 UNL     1      17.929   0.017   0.795  1.00  0.00     0.274 HD
ENDBRANCH  16  17
ENDBRANCH  14  16
ENDBRANCH   8  10
ENDBRANCH   3   5
BRANCH   1  21
HETATM   21  C   UNL     1      27.676   1.868   6.583  1.00  0.00     0.255 C 
HETATM   22  C   UNL     1      27.955   1.762   8.093  1.00  0.00     0.198 C 
HETATM   23  C   UNL     1      29.076   2.710   8.495  1.00  0.00     0.182 C 
HETATM   24  C   UNL     1      28.870   4.098   7.943  1.00  0.00     0.178 C 
HETATM   25  C   UNL     1      28.613   4.052   6.447  1.00  0.00     0.151 C 
HETATM   26  C   UNL     1      28.303   5.430   5.911  1.00  0.00     0.042 C 
HETATM   27  O   UNL     1      27.475   3.189   6.231  1.00  0.00    -0.356 OA
BRANCH  22  28
HETATM   28  O   UNL     1      28.238   0.415   8.505  1.00  0.00    -0.389 OA
ATOM     29  HO  UNL     1      28.407   0.368   9.438  1.00  0.00     0.210 HD
ENDBRANCH  22  28
BRANCH  23  30
HETATM   30  O   UNL     1      29.270   2.719   9.908  1.00  0.00    -0.390 OA
ATOM     31  HO  UNL     1      29.190   1.846  10.274  1.00  0.00     0.210 HD
ENDBRANCH  23  30
BRANCH  24  32
HETATM   32  O   UNL     1      27.746   4.642   8.643  1.00  0.00    -0.390 OA
ATOM     33  HO  UNL     1      27.853   4.390   9.552  1.00  0.00     0.210 HD
ENDBRANCH  24  32
ENDBRANCH   1  21
TORSDOF 8
ENDMDL
MODEL 4
REMARK VINA RESULT:    -5.633      2.479      8.599
REMARK INTER + INTRA:          -8.365
REMARK INTER:                  -7.584
REMARK INTRA:                  -0.780
REMARK UNBOUND:                -0.755
REMARK  8 active torsions:
REMARK  status: ('A' for Active; 'I' for Inactive)
REMARK       I    between atoms: N_1  and  C_6 
REMARK    1  A    between atoms: N_1  and  C_12 
REMARK    2  A    between atoms: C_3  and  O_20 
REMARK    3  A    between atoms: C_6  and  C_7 
REMARK    4  A    between atoms: C_14  and  O_15 
REMARK    5  A    between atoms: C_17  and  O_18 
REMARK    6  A    between atoms: C_24  and  C_26 
REMARK    7  A    between atoms: C_28  and  C_29 
REMARK    8  A    between atoms: C_29  and  N_30 
ROOT
HETATM    1  N   UNL     1      23.910  -0.076   3.599  1.00  0.00    -0.326 N 
ATOM      2  HN  UNL     1      23.544   0.654   4.210  1.00  0.00     0.165 HD
HETATM    3  C   UNL     1      25.097  -0.626   3.857  1.00  0.00     0.277 C 
HETATM    4  O   UNL     1      25.652  -1.416   3.056  1.00  0.00    -0.265 OA
ENDROOT
BRANCH   3   5
HETATM    5  C   UNL     1      25.742  -0.286   5.105  1.00  0.00     0.143 A 
HETATM    6  C   UNL     1      25.779  -0.920   6.278  1.00  0.00     0.046 A 
HETATM    7  C   UNL     1      26.573  -0.142   7.137  1.00  0.00     0.041 A 
HETATM    8  C   UNL     1      26.939   0.941   6.452  1.00  0.00     0.086 A 
HETATM    9  O   UNL     1      26.483   0.852   5.173  1.00  0.00    -0.304 OA
BRANCH   8  10
HETATM   10  C   UNL     1      27.693   2.140   6.812  1.00  0.00    -0.002 A 
HETATM   11  C   UNL     1      27.499   2.821   7.980  1.00  0.00     0.014 A 
HETATM   12  C   UNL     1      28.203   3.998   8.242  1.00  0.00     0.002 A 
HETATM   13  C   UNL     1      29.146   4.496   7.327  1.00  0.00     0.009 A 
HETATM   14  C   UNL     1      29.315   3.825   6.140  1.00  0.00    -0.032 A 
HETATM   15  C   UNL     1      28.577   2.668   5.908  1.00  0.00     0.023 A 
BRANCH  14  16
HETATM   16  C   UNL     1      30.323   4.201   5.089  1.00  0.00     0.268 C 
BRANCH  16  17
HETATM   17  N   UNL     1      29.848   4.051   3.607  1.00  0.00    -0.075 N 
ATOM     18  HN3 UNL     1      29.262   4.845   3.348  1.00  0.00     0.274 HD
ATOM     19  HN2 UNL     1      30.635   4.191   2.973  1.00  0.00     0.274 HD
ATOM     20  HN1 UNL     1      29.371   3.178   3.381  1.00  0.00     0.274 HD
ENDBRANCH  16  17
ENDBRANCH  14  16
ENDBRANCH   8  10
ENDBRANCH   3   5
BRANCH   1  21
HETATM   21  C   UNL     1      23.162  -0.500   2.487  1.00  0.00     0.255 C 
HETATM   22  C   UNL     1      23.308   0.496   1.322  1.00  0.00     0.198 C 
HETATM   23  C   UNL     1      22.385   0.111   0.175  1.00  0.00     0.182 C 
HETATM   24  C   UNL     1      20.981  -0.175   0.646  1.00  0.00     0.178 C 
HETATM   25  C   UNL     1      20.989  -1.175   1.790  1.00  0.00     0.151 C 
HETATM   26  C   UNL     1      19.595  -1.382   2.333  1.00  0.00     0.042 C 
HETATM   27  O   UNL     1      21.831  -0.633   2.831  1.00  0.00    -0.356 OA
BRANCH  22  28
HETATM   28  O   UNL     1      24.668   0.625   0.877  1.00  0.00    -0.389 OA
ATOM     29  HO  UNL     1      25.206  -0.088   1.202  1.00  0.00     0.210 HD
ENDBRANCH  22  28
BRANCH  23  30
HETATM   30  O   UNL     1      22.412   1.085  -0.866  1.00  0.00    -0.390 OA
ATOM     31  HO  UNL     1      23.116   1.710  -0.738  1.00  0.00     0.210 HD
ENDBRANCH  23  30
BRANCH  24  32
HETATM   32  O   UNL     1      20.439   1.082   1.065  1.00  0.00    -0.390 OA
ATOM     33  HO  UNL     1      21.043   1.429   1.710  1.00  0.00     0.210 HD
ENDBRANCH  24  32
ENDBRANCH   1  21
TORSDOF 8
ENDMDL
MODEL 5
REMARK VINA RESULT:    -5.631      6.427      8.951
REMARK INTER + INTRA:          -8.361
REMARK INTER:                  -7.663
REMARK INTRA:                  -0.698
REMARK UNBOUND:                -0.755
REMARK  8 active torsions:
REMARK  status: ('A' for Active; 'I' for Inactive)
REMARK       I    between atoms: N_1  and  C_6 
REMARK    1  A    between atoms: N_1  and  C_12 
REMARK    2  A    between atoms: C_3  and  O_20 
REMARK    3  A    between atoms: C_6  and  C_7 
REMARK    4  A    between atoms: C_14  and  O_15 
REMARK    5  A    between atoms: C_17  and  O_18 
REMARK    6  A    between atoms: C_24  and  C_26 
REMARK    7  A    between atoms: C_28  and  C_29 
REMARK    8  A    between atoms: C_29  and  N_30 
ROOT
HETATM    1  N   UNL     1      27.257  -3.231   8.374  1.00  0.00    -0.326 N 
ATOM      2  HN  UNL     1      26.999  -2.946   9.318  1.00  0.00     0.165 HD
HETATM    3  C   UNL     1      27.530  -4.511   8.117  1.00  0.00     0.277 C 
HETATM    4  O   UNL     1      27.993  -4.883   7.011  1.00  0.00    -0.265 OA
ENDROOT
BRANCH   3   5
HETATM    5  C   UNL     1      27.275  -5.479   9.159  1.00  0.00     0.143 A 
HETATM    6  C   UNL     1      27.885  -6.626   9.463  1.00  0.00     0.046 A 
HETATM    7  C   UNL     1      27.228  -7.149  10.589  1.00  0.00     0.041 A 
HETATM    8  C   UNL     1      26.231  -6.315  10.879  1.00  0.00     0.086 A 
HETATM    9  O   UNL     1      26.269  -5.243  10.042  1.00  0.00    -0.304 OA
BRANCH   8  10
HETATM   10  C   UNL     1      25.161  -6.349  11.875  1.00  0.00    -0.002 A 
HETATM   11  C   UNL     1      24.264  -5.332  12.040  1.00  0.00     0.014 A 
HETATM   12  C   UNL     1      23.302  -5.391  13.052  1.00  0.00     0.002 A 
HETATM   13  C   UNL     1      23.215  -6.505  13.904  1.00  0.00     0.009 A 
HETATM   14  C   UNL     1      24.139  -7.510  13.753  1.00  0.00    -0.032 A 
HETATM   15  C   UNL     1      25.096  -7.403  12.748  1.00  0.00     0.023 A 
BRANCH  14  16
HETATM   16  C   UNL     1      24.141  -8.787  14.549  1.00  0.00     0.268 C 
BRANCH  16  17
HETATM   17  N   UNL     1      22.775  -9.543  14.621  1.00  0.00    -0.075 N 
ATOM     18  HN3 UNL     1      22.543  -9.751  15.593  1.00  0.00     0.274 HD
ATOM     19  HN2 UNL     1      22.012  -8.908  14.384  1.00  0.00     0.274 HD
ATOM     20  HN1 UNL     1      22.708 -10.392  14.059  1.00  0.00     0.274 HD
ENDBRANCH  16  17
ENDBRANCH  14  16
ENDBRANCH   8  10
ENDBRANCH   3   5
BRANCH   1  21
HETATM   21  C   UNL     1      27.324  -2.275   7.346  1.00  0.00     0.255 C 
HETATM   22  C   UNL     1      27.675  -0.888   7.916  1.00  0.00     0.198 C 
HETATM   23  C   UNL     1      27.604   0.169   6.823  1.00  0.00     0.182 C 
HETATM   24  C   UNL     1      26.331   0.073   6.022  1.00  0.00     0.178 C 
HETATM   25  C   UNL     1      26.115  -1.345   5.519  1.00  0.00     0.151 C 
HETATM   26  C   UNL     1      24.789  -1.467   4.807  1.00  0.00     0.042 C 
HETATM   27  O   UNL     1      26.121  -2.216   6.671  1.00  0.00    -0.356 OA
BRANCH  22  28
HETATM   28  O   UNL     1      28.953  -0.874   8.574  1.00  0.00    -0.389 OA
ATOM     29  HO  UNL     1      28.918  -1.330   9.406  1.00  0.00     0.210 HD
ENDBRANCH  22  28
BRANCH  23  30
HETATM   30  O   UNL     1      27.807   1.479   7.351  1.00  0.00    -0.390 OA
ATOM     31  HO  UNL     1      27.264   1.633   8.114  1.00  0.00     0.210 HD
ENDBRANCH  23  30
BRANCH  24  32
HETATM   32  O   UNL     1      25.276   0.473   6.902  1.00  0.00    -0.390 OA
ATOM     33  HO  UNL     1      24.507   0.590   6.357  1.00  0.00     0.210 HD
ENDBRANCH  24  32
ENDBRANCH   1  21
TORSDOF 8
ENDMDL
MODEL 6
REMARK VINA RESULT:    -5.566      6.288      9.020
REMARK INTER + INTRA:          -8.273
REMARK INTER:                  -7.554
REMARK INTRA:                  -0.719
REMARK UNBOUND:                -0.755
REMARK  8 active torsions:
REMARK  status: ('A' for Active; 'I' for Inactive)
REMARK       I    between atoms: N_1  and  C_6 
REMARK    1  A    between atoms: N_1  and  C_12 
REMARK    2  A    between atoms: C_3  and  O_20 
REMARK    3  A    between atoms: C_6  and  C_7 
REMARK    4  A    between atoms: C_14  and  O_15 
REMARK    5  A    between atoms: C_17  and  O_18 
REMARK    6  A    between atoms: C_24  and  C_26 
REMARK    7  A    between atoms: C_28  and  C_29 
REMARK    8  A    between atoms: C_29  and  N_30 
ROOT
HETATM    1  N   UNL     1      26.735  -3.397   7.549  1.00  0.00    -0.326 N 
ATOM      2  HN  UNL     1      25.784  -3.599   7.856  1.00  0.00     0.165 HD
HETATM    3  C   UNL     1      27.763  -4.050   8.092  1.00  0.00     0.277 C 
HETATM    4  O   UNL     1      28.953  -3.733   7.855  1.00  0.00    -0.265 OA
ENDROOT
BRANCH   3   5
HETATM    5  C   UNL     1      27.469  -5.155   8.976  1.00  0.00     0.143 A 
HETATM    6  C   UNL     1      27.991  -6.381   9.056  1.00  0.00     0.046 A 
HETATM    7  C   UNL     1      27.340  -7.031  10.117  1.00  0.00     0.041 A 
HETATM    8  C   UNL     1      26.432  -6.181  10.594  1.00  0.00     0.086 A 
HETATM    9  O   UNL     1      26.527  -4.991   9.942  1.00  0.00    -0.304 OA
BRANCH   8  10
HETATM   10  C   UNL     1      25.407  -6.296  11.630  1.00  0.00    -0.002 A 
HETATM   11  C   UNL     1      24.429  -5.362  11.819  1.00  0.00     0.014 A 
HETATM   12  C   UNL     1      23.514  -5.492  12.867  1.00  0.00     0.002 A 
HETATM   13  C   UNL     1      23.559  -6.597  13.733  1.00  0.00     0.009 A 
HETATM   14  C   UNL     1      24.564  -7.517  13.559  1.00  0.00    -0.032 A 
HETATM   15  C   UNL     1      25.469  -7.339  12.517  1.00  0.00     0.023 A 
BRANCH  14  16
HETATM   16  C   UNL     1      24.710  -8.777  14.367  1.00  0.00     0.268 C 
BRANCH  16  17
HETATM   17  N   UNL     1      23.895  -8.827  15.701  1.00  0.00    -0.075 N 
ATOM     18  HN3 UNL     1      24.440  -8.416  16.458  1.00  0.00     0.274 HD
ATOM     19  HN2 UNL     1      23.117  -8.168  15.658  1.00  0.00     0.274 HD
ATOM     20  HN1 UNL     1      23.555  -9.748  15.978  1.00  0.00     0.274 HD
ENDBRANCH  16  17
ENDBRANCH  14  16
ENDBRANCH   8  10
ENDBRANCH   3   5
BRANCH   1  21
HETATM   21  C   UNL     1      26.960  -2.430   6.554  1.00  0.00     0.255 C 
HETATM   22  C   UNL     1      26.340  -1.079   6.958  1.00  0.00     0.198 C 
HETATM   23  C   UNL     1      26.459  -0.078   5.818  1.00  0.00     0.182 C 
HETATM   24  C   UNL     1      26.009  -0.659   4.502  1.00  0.00     0.178 C 
HETATM   25  C   UNL     1      26.704  -1.983   4.230  1.00  0.00     0.151 C 
HETATM   26  C   UNL     1      26.178  -2.618   2.965  1.00  0.00     0.042 C 
HETATM   27  O   UNL     1      26.429  -2.852   5.350  1.00  0.00    -0.356 OA
BRANCH  22  28
HETATM   28  O   UNL     1      26.905  -0.558   8.172  1.00  0.00    -0.389 OA
ATOM     29  HO  UNL     1      27.399   0.237   8.009  1.00  0.00     0.210 HD
ENDBRANCH  22  28
BRANCH  23  30
HETATM   30  O   UNL     1      25.785   1.142   6.123  1.00  0.00    -0.390 OA
ATOM     31  HO  UNL     1      26.210   1.604   6.836  1.00  0.00     0.210 HD
ENDBRANCH  23  30
BRANCH  24  32
HETATM   32  O   UNL     1      24.593  -0.833   4.607  1.00  0.00    -0.390 OA
ATOM     33  HO  UNL     1      24.203  -0.183   4.036  1.00  0.00     0.210 HD
ENDBRANCH  24  32
ENDBRANCH   1  21
TORSDOF 8
ENDMDL
MODEL 7
REMARK VINA RESULT:    -5.550      6.956     10.255
REMARK INTER + INTRA:          -8.252
REMARK INTER:                  -7.502
REMARK INTRA:                  -0.750
REMARK UNBOUND:                -0.755
REMARK  8 active torsions:
REMARK  status: ('A' for Active; 'I' for Inactive)
REMARK       I    between atoms: N_1  and  C_6 
REMARK    1  A    between atoms: N_1  and  C_12 
REMARK    2  A    between atoms: C_3  and  O_20 
REMARK    3  A    between atoms: C_6  and  C_7 
REMARK    4  A    between atoms: C_14  and  O_15 
REMARK    5  A    between atoms: C_17  and  O_18 
REMARK    6  A    between atoms: C_24  and  C_26 
REMARK    7  A    between atoms: C_28  and  C_29 
REMARK    8  A    between atoms: C_29  and  N_30 
ROOT
HETATM    1  N   UNL     1      26.339  -6.047  11.571  1.00  0.00    -0.326 N 
ATOM      2  HN  UNL     1      27.048  -5.585  12.138  1.00  0.00     0.165 HD
HETATM    3  C   UNL     1      26.306  -5.845  10.253  1.00  0.00     0.277 C 
HETATM    4  O   UNL     1      25.367  -6.272   9.538  1.00  0.00    -0.265 OA
ENDROOT
BRANCH   3   5
HETATM    5  C   UNL     1      27.397  -5.111   9.654  1.00  0.00     0.143 A 
HETATM    6  C   UNL     1      28.662  -5.459   9.409  1.00  0.00     0.046 A 
HETATM    7  C   UNL     1      29.274  -4.356   8.791  1.00  0.00     0.041 A 
HETATM    8  C   UNL     1      28.362  -3.387   8.734  1.00  0.00     0.086 A 
HETATM    9  O   UNL     1      27.173  -3.845   9.212  1.00  0.00    -0.304 OA
BRANCH   8  10
HETATM   10  C   UNL     1      28.410  -1.998   8.281  1.00  0.00    -0.002 A 
HETATM   11  C   UNL     1      29.533  -1.225   8.364  1.00  0.00     0.014 A 
HETATM   12  C   UNL     1      29.502   0.116   7.975  1.00  0.00     0.002 A 
HETATM   13  C   UNL     1      28.328   0.695   7.464  1.00  0.00     0.009 A 
HETATM   14  C   UNL     1      27.194  -0.077   7.413  1.00  0.00    -0.032 A 
HETATM   15  C   UNL     1      27.260  -1.403   7.831  1.00  0.00     0.023 A 
BRANCH  14  16
HETATM   16  C   UNL     1      25.880   0.381   6.842  1.00  0.00     0.268 C 
BRANCH  16  17
HETATM   17  N   UNL     1      25.965   1.183   5.502  1.00  0.00    -0.075 N 
ATOM     18  HN3 UNL     1      25.571   0.631   4.740  1.00  0.00     0.274 HD
ATOM     19  HN2 UNL     1      25.306   1.963   5.521  1.00  0.00     0.274 HD
ATOM     20  HN1 UNL     1      26.894   1.519   5.245  1.00  0.00     0.274 HD
ENDBRANCH  16  17
ENDBRANCH  14  16
ENDBRANCH   8  10
ENDBRANCH   3   5
BRANCH   1  21
HETATM   21  C   UNL     1      25.398  -6.896  12.179  1.00  0.00     0.255 C 
HETATM   22  C   UNL     1      24.293  -6.077  12.870  1.00  0.00     0.198 C 
HETATM   23  C   UNL     1      23.359  -6.994  13.648  1.00  0.00     0.182 C 
HETATM   24  C   UNL     1      24.114  -7.971  14.512  1.00  0.00     0.178 C 
HETATM   25  C   UNL     1      25.164  -8.711  13.701  1.00  0.00     0.151 C 
HETATM   26  C   UNL     1      25.991  -9.613  14.585  1.00  0.00     0.042 C 
HETATM   27  O   UNL     1      26.022  -7.717  13.098  1.00  0.00    -0.356 OA
BRANCH  22  28
HETATM   28  O   UNL     1      23.564  -5.251  11.947  1.00  0.00    -0.389 OA
ATOM     29  HO  UNL     1      22.630  -5.414  12.002  1.00  0.00     0.210 HD
ENDBRANCH  22  28
BRANCH  23  30
HETATM   30  O   UNL     1      22.400  -6.248  14.395  1.00  0.00    -0.390 OA
ATOM     31  HO  UNL     1      22.088  -6.738  15.146  1.00  0.00     0.210 HD
ENDBRANCH  23  30
BRANCH  24  32
HETATM   32  O   UNL     1      24.718  -7.198  15.554  1.00  0.00    -0.390 OA
ATOM     33  HO  UNL     1      25.111  -7.821  16.152  1.00  0.00     0.210 HD
ENDBRANCH  24  32
ENDBRANCH   1  21
TORSDOF 8
ENDMDL
MODEL 8
REMARK VINA RESULT:    -5.451      2.662      8.838
REMARK INTER + INTRA:          -8.118
REMARK INTER:                  -7.390
REMARK INTRA:                  -0.728
REMARK UNBOUND:                -0.755
REMARK  8 active torsions:
REMARK  status: ('A' for Active; 'I' for Inactive)
REMARK       I    between atoms: N_1  and  C_6 
REMARK    1  A    between atoms: N_1  and  C_12 
REMARK    2  A    between atoms: C_3  and  O_20 
REMARK    3  A    between atoms: C_6  and  C_7 
REMARK    4  A    between atoms: C_14  and  O_15 
REMARK    5  A    between atoms: C_17  and  O_18 
REMARK    6  A    between atoms: C_24  and  C_26 
REMARK    7  A    between atoms: C_28  and  C_29 
REMARK    8  A    between atoms: C_29  and  N_30 
ROOT
HETATM    1  N   UNL     1      23.850  -0.328   3.716  1.00  0.00    -0.326 N 
ATOM      2  HN  UNL     1      23.496   0.347   4.395  1.00  0.00     0.165 HD
HETATM    3  C   UNL     1      25.023  -0.926   3.923  1.00  0.00     0.277 C 
HETATM    4  O   UNL     1      25.565  -1.646   3.051  1.00  0.00    -0.265 OA
ENDROOT
BRANCH   3   5
HETATM    5  C   UNL     1      25.670  -0.723   5.200  1.00  0.00     0.143 A 
HETATM    6  C   UNL     1      25.781  -1.517   6.266  1.00  0.00     0.046 A 
HETATM    7  C   UNL     1      26.534  -0.813   7.221  1.00  0.00     0.041 A 
HETATM    8  C   UNL     1      26.801   0.383   6.699  1.00  0.00     0.086 A 
HETATM    9  O   UNL     1      26.324   0.447   5.426  1.00  0.00    -0.304 OA
BRANCH   8  10
HETATM   10  C   UNL     1      27.471   1.572   7.223  1.00  0.00    -0.002 A 
HETATM   11  C   UNL     1      27.320   2.815   6.678  1.00  0.00     0.014 A 
HETATM   12  C   UNL     1      28.036   3.903   7.181  1.00  0.00     0.002 A 
HETATM   13  C   UNL     1      28.905   3.755   8.275  1.00  0.00     0.009 A 
HETATM   14  C   UNL     1      29.078   2.497   8.799  1.00  0.00    -0.032 A 
HETATM   15  C   UNL     1      28.363   1.434   8.254  1.00  0.00     0.023 A 
BRANCH  14  16
HETATM   16  C   UNL     1      29.928   2.188  10.001  1.00  0.00     0.268 C 
BRANCH  16  17
HETATM   17  N   UNL     1      31.299   2.936  10.073  1.00  0.00    -0.075 N 
ATOM     18  HN3 UNL     1      31.708   2.825  11.001  1.00  0.00     0.274 HD
ATOM     19  HN2 UNL     1      31.993   2.444   9.509  1.00  0.00     0.274 HD
ATOM     20  HN1 UNL     1      31.279   3.923   9.818  1.00  0.00     0.274 HD
ENDBRANCH  16  17
ENDBRANCH  14  16
ENDBRANCH   8  10
ENDBRANCH   3   5
BRANCH   1  21
HETATM   21  C   UNL     1      23.098  -0.626   2.566  1.00  0.00     0.255 C 
HETATM   22  C   UNL     1      23.300   0.456   1.490  1.00  0.00     0.198 C 
HETATM   23  C   UNL     1      22.376   0.207   0.306  1.00  0.00     0.182 C 
HETATM   24  C   UNL     1      20.956  -0.055   0.740  1.00  0.00     0.178 C 
HETATM   25  C   UNL     1      20.907  -1.146   1.796  1.00  0.00     0.151 C 
HETATM   26  C   UNL     1      19.499  -1.337   2.308  1.00  0.00     0.042 C 
HETATM   27  O   UNL     1      21.759  -0.729   2.886  1.00  0.00    -0.356 OA
BRANCH  22  28
HETATM   28  O   UNL     1      24.670   0.562   1.069  1.00  0.00    -0.389 OA
ATOM     29  HO  UNL     1      25.188   1.051   1.698  1.00  0.00     0.210 HD
ENDBRANCH  22  28
BRANCH  23  30
HETATM   30  O   UNL     1      22.458   1.263  -0.650  1.00  0.00    -0.390 OA
ATOM     31  HO  UNL     1      22.539   2.109  -0.226  1.00  0.00     0.210 HD
ENDBRANCH  23  30
BRANCH  24  32
HETATM   32  O   UNL     1      20.462   1.185   1.257  1.00  0.00    -0.390 OA
ATOM     33  HO  UNL     1      20.039   1.624   0.529  1.00  0.00     0.210 HD
ENDBRANCH  24  32
ENDBRANCH   1  21
TORSDOF 8
ENDMDL
MODEL 9
REMARK VINA RESULT:    -5.417      1.826      2.448
REMARK INTER + INTRA:          -8.072
REMARK INTER:                  -7.335
REMARK INTRA:                  -0.736
REMARK UNBOUND:                -0.755
REMARK  8 active torsions:
REMARK  status: ('A' for Active; 'I' for Inactive)
REMARK       I    between atoms: N_1  and  C_6 
REMARK    1  A    between atoms: N_1  and  C_12 
REMARK    2  A    between atoms: C_3  and  O_20 
REMARK    3  A    between atoms: C_6  and  C_7 
REMARK    4  A    between atoms: C_14  and  O_15 
REMARK    5  A    between atoms: C_17  and  O_18 
REMARK    6  A    between atoms: C_24  and  C_26 
REMARK    7  A    between atoms: C_28  and  C_29 
REMARK    8  A    between atoms: C_29  and  N_30 
ROOT
HETATM    1  N   UNL     1      27.712   0.752   6.694  1.00  0.00    -0.326 N 
ATOM      2  HN  UNL     1      27.827   0.861   5.687  1.00  0.00     0.165 HD
HETATM    3  C   UNL     1      26.752  -0.040   7.172  1.00  0.00     0.277 C 
HETATM    4  O   UNL     1      26.479  -0.091   8.396  1.00  0.00    -0.265 OA
ENDROOT
BRANCH   3   5
HETATM    5  C   UNL     1      26.019  -0.858   6.232  1.00  0.00     0.143 A 
HETATM    6  C   UNL     1      25.943  -2.182   6.090  1.00  0.00     0.046 A 
HETATM    7  C   UNL     1      25.064  -2.426   5.021  1.00  0.00     0.041 A 
HETATM    8  C   UNL     1      24.689  -1.238   4.548  1.00  0.00     0.086 A 
HETATM    9  O   UNL     1      25.223  -0.249   5.313  1.00  0.00    -0.304 OA
BRANCH   8  10
HETATM   10  C   UNL     1      23.860  -0.834   3.414  1.00  0.00    -0.002 A 
HETATM   11  C   UNL     1      24.265   0.078   2.482  1.00  0.00     0.014 A 
HETATM   12  C   UNL     1      23.404   0.475   1.455  1.00  0.00     0.002 A 
HETATM   13  C   UNL     1      22.116  -0.073   1.339  1.00  0.00     0.009 A 
HETATM   14  C   UNL     1      21.702  -0.966   2.297  1.00  0.00    -0.032 A 
HETATM   15  C   UNL     1      22.582  -1.318   3.317  1.00  0.00     0.023 A 
BRANCH  14  16
HETATM   16  C   UNL     1      20.377  -1.678   2.278  1.00  0.00     0.268 C 
BRANCH  16  17
HETATM   17  N   UNL     1      19.115  -0.769   2.440  1.00  0.00    -0.075 N 
ATOM     18  HN3 UNL     1      18.694  -0.919   3.357  1.00  0.00     0.274 HD
ATOM     19  HN2 UNL     1      19.399   0.207   2.529  1.00  0.00     0.274 HD
ATOM     20  HN1 UNL     1      18.407  -0.861   1.712  1.00  0.00     0.274 HD
ENDBRANCH  16  17
ENDBRANCH  14  16
ENDBRANCH   8  10
ENDBRANCH   3   5
BRANCH   1  21
HETATM   21  C   UNL     1      28.567   1.436   7.575  1.00  0.00     0.255 C 
HETATM   22  C   UNL     1      28.130   2.904   7.726  1.00  0.00     0.198 C 
HETATM   23  C   UNL     1      29.140   3.676   8.564  1.00  0.00     0.182 C 
HETATM   24  C   UNL     1      30.557   3.438   8.108  1.00  0.00     0.178 C 
HETATM   25  C   UNL     1      30.850   1.950   8.010  1.00  0.00     0.151 C 
HETATM   26  C   UNL     1      32.233   1.710   7.452  1.00  0.00     0.042 C 
HETATM   27  O   UNL     1      29.869   1.375   7.119  1.00  0.00    -0.356 OA
BRANCH  22  28
HETATM   28  O   UNL     1      26.803   3.029   8.263  1.00  0.00    -0.389 OA
ATOM     29  HO  UNL     1      26.614   3.926   8.511  1.00  0.00     0.210 HD
ENDBRANCH  22  28
BRANCH  23  30
HETATM   30  O   UNL     1      28.820   5.065   8.617  1.00  0.00    -0.390 OA
ATOM     31  HO  UNL     1      28.064   5.226   9.168  1.00  0.00     0.210 HD
ENDBRANCH  23  30
BRANCH  24  32
HETATM   32  O   UNL     1      30.675   4.071   6.829  1.00  0.00    -0.390 OA
ATOM     33  HO  UNL     1      30.076   3.614   6.252  1.00  0.00     0.210 HD
ENDBRANCH  24  32
ENDBRANCH   1  21
TORSDOF 8
ENDMDL
MODEL 10
REMARK VINA RESULT:    -5.307      6.914     12.588
REMARK INTER + INTRA:          -7.924
REMARK INTER:                  -7.293
REMARK INTRA:                  -0.631
REMARK UNBOUND:                -0.755
REMARK  8 active torsions:
REMARK  status: ('A' for Active; 'I' for Inactive)
REMARK       I    between atoms: N_1  and  C_6 
REMARK    1  A    between atoms: N_1  and  C_12 
REMARK    2  A    between atoms: C_3  and  O_20 
REMARK    3  A    between atoms: C_6  and  C_7 
REMARK    4  A    between atoms: C_14  and  O_15 
REMARK    5  A    between atoms: C_17  and  O_18 
REMARK    6  A    between atoms: C_24  and  C_26 
REMARK    7  A    between atoms: C_28  and  C_29 
REMARK    8  A    between atoms: C_29  and  N_30 
ROOT
HETATM    1  N   UNL     1      29.819   2.328   9.790  1.00  0.00    -0.326 N 
ATOM      2  HN  UNL     1      29.858   3.347   9.812  1.00  0.00     0.165 HD
HETATM    3  C   UNL     1      30.150   1.626  10.875  1.00  0.00     0.277 C 
HETATM    4  O   UNL     1      30.260   0.377  10.851  1.00  0.00    -0.265 OA
ENDROOT
BRANCH   3   5
HETATM    5  C   UNL     1      30.382   2.351  12.104  1.00  0.00     0.143 A 
HETATM    6  C   UNL     1      30.402   3.660  12.363  1.00  0.00     0.046 A 
HETATM    7  C   UNL     1      30.658   3.798  13.737  1.00  0.00     0.041 A 
HETATM    8  C   UNL     1      30.821   2.570  14.227  1.00  0.00     0.086 A 
HETATM    9  O   UNL     1      30.602   1.651  13.248  1.00  0.00    -0.304 OA
BRANCH   8  10
HETATM   10  C   UNL     1      31.179   2.064  15.551  1.00  0.00    -0.002 A 
HETATM   11  C   UNL     1      32.012   0.999  15.742  1.00  0.00     0.014 A 
HETATM   12  C   UNL     1      32.267   0.519  17.029  1.00  0.00     0.002 A 
HETATM   13  C   UNL     1      31.699   1.134  18.157  1.00  0.00     0.009 A 
HETATM   14  C   UNL     1      30.837   2.185  17.957  1.00  0.00    -0.032 A 
HETATM   15  C   UNL     1      30.591   2.618  16.658  1.00  0.00     0.023 A 
BRANCH  14  16
HETATM   16  C   UNL     1      30.196   2.979  19.063  1.00  0.00     0.268 C 
BRANCH  16  17
HETATM   17  N   UNL     1      28.730   2.577  19.425  1.00  0.00    -0.075 N 
ATOM     18  HN3 UNL     1      28.631   2.495  20.437  1.00  0.00     0.274 HD
ATOM     19  HN2 UNL     1      28.100   3.359  19.244  1.00  0.00     0.274 HD
ATOM     20  HN1 UNL     1      28.376   1.734  18.972  1.00  0.00     0.274 HD
ENDBRANCH  16  17
ENDBRANCH  14  16
ENDBRANCH   8  10
ENDBRANCH   3   5
BRANCH   1  21
HETATM   21  C   UNL     1      29.417   1.667   8.617  1.00  0.00     0.255 C 
HETATM   22  C   UNL     1      29.717   2.528   7.377  1.00  0.00     0.198 C 
HETATM   23  C   UNL     1      29.150   1.873   6.125  1.00  0.00     0.182 C 
HETATM   24  C   UNL     1      27.719   1.436   6.311  1.00  0.00     0.178 C 
HETATM   25  C   UNL     1      27.572   0.592   7.566  1.00  0.00     0.151 C 
HETATM   26  C   UNL     1      26.123   0.241   7.812  1.00  0.00     0.042 C 
HETATM   27  O   UNL     1      28.068   1.375   8.674  1.00  0.00    -0.356 OA
BRANCH  22  28
HETATM   28  O   UNL     1      31.120   2.807   7.230  1.00  0.00    -0.389 OA
ATOM     29  HO  UNL     1      31.295   3.738   7.303  1.00  0.00     0.210 HD
ENDBRANCH  22  28
BRANCH  23  30
HETATM   30  O   UNL     1      29.310   2.710   4.981  1.00  0.00    -0.390 OA
ATOM     31  HO  UNL     1      30.218   2.755   4.709  1.00  0.00     0.210 HD
ENDBRANCH  23  30
BRANCH  24  32
HETATM   32  O   UNL     1      26.946   2.637   6.405  1.00  0.00    -0.390 OA
ATOM     33  HO  UNL     1      26.503   2.601   7.244  1.00  0.00     0.210 HD
ENDBRANCH  24  32
ENDBRANCH   1  21
TORSDOF 8
ENDMDL
MODEL 11
REMARK VINA RESULT:    -5.276      3.500      8.629
REMARK INTER + INTRA:          -7.882
REMARK INTER:                  -7.170
REMARK INTRA:                  -0.712
REMARK UNBOUND:                -0.755
REMARK  8 active torsions:
REMARK  status: ('A' for Active; 'I' for Inactive)
REMARK       I    between atoms: N_1  and  C_6 
REMARK    1  A    between atoms: N_1  and  C_12 
REMARK    2  A    between atoms: C_3  and  O_20 
REMARK    3  A    between atoms: C_6  and  C_7 
REMARK    4  A    between atoms: C_14  and  O_15 
REMARK    5  A    between atoms: C_17  and  O_18 
REMARK    6  A    between atoms: C_24  and  C_26 
REMARK    7  A    between atoms: C_28  and  C_29 
REMARK    8  A    between atoms: C_29  and  N_30 
ROOT
HETATM    1  N   UNL     1      23.967  -0.395   3.866  1.00  0.00    -0.326 N 
ATOM      2  HN  UNL     1      23.687   0.381   4.465  1.00  0.00     0.165 HD
HETATM    3  C   UNL     1      25.041  -1.122   4.178  1.00  0.00     0.277 C 
HETATM    4  O   UNL     1      25.508  -1.987   3.399  1.00  0.00    -0.265 OA
ENDROOT
BRANCH   3   5
HETATM    5  C   UNL     1      25.666  -0.888   5.460  1.00  0.00     0.143 A 
HETATM    6  C   UNL     1      25.562   0.129   6.318  1.00  0.00     0.046 A 
HETATM    7  C   UNL     1      26.379  -0.181   7.417  1.00  0.00     0.041 A 
HETATM    8  C   UNL     1      26.966  -1.347   7.148  1.00  0.00     0.086 A 
HETATM    9  O   UNL     1      26.501  -1.834   5.966  1.00  0.00    -0.304 OA
BRANCH   8  10
HETATM   10  C   UNL     1      27.968  -2.144   7.853  1.00  0.00    -0.002 A 
HETATM   11  C   UNL     1      29.302  -1.856   7.830  1.00  0.00     0.014 A 
HETATM   12  C   UNL     1      30.221  -2.691   8.470  1.00  0.00     0.002 A 
HETATM   13  C   UNL     1      29.795  -3.830   9.174  1.00  0.00     0.009 A 
HETATM   14  C   UNL     1      28.456  -4.134   9.167  1.00  0.00    -0.032 A 
HETATM   15  C   UNL     1      27.575  -3.288   8.499  1.00  0.00     0.023 A 
BRANCH  14  16
HETATM   16  C   UNL     1      27.843  -5.283   9.919  1.00  0.00     0.268 C 
BRANCH  16  17
HETATM   17  N   UNL     1      26.352  -5.093  10.352  1.00  0.00    -0.075 N 
ATOM     18  HN3 UNL     1      26.293  -4.410  11.107  1.00  0.00     0.274 HD
ATOM     19  HN2 UNL     1      25.837  -4.602   9.621  1.00  0.00     0.274 HD
ATOM     20  HN1 UNL     1      25.855  -5.945  10.614  1.00  0.00     0.274 HD
ENDBRANCH  16  17
ENDBRANCH  14  16
ENDBRANCH   8  10
ENDBRANCH   3   5
BRANCH   1  21
HETATM   21  C   UNL     1      23.221  -0.697   2.714  1.00  0.00     0.255 C 
HETATM   22  C   UNL     1      23.480   0.346   1.610  1.00  0.00     0.198 C 
HETATM   23  C   UNL     1      22.563   0.099   0.420  1.00  0.00     0.182 C 
HETATM   24  C   UNL     1      21.129  -0.097   0.840  1.00  0.00     0.178 C 
HETATM   25  C   UNL     1      21.023  -1.155   1.925  1.00  0.00     0.151 C 
HETATM   26  C   UNL     1      19.601  -1.277   2.421  1.00  0.00     0.042 C 
HETATM   27  O   UNL     1      21.874  -0.740   3.016  1.00  0.00    -0.356 OA
BRANCH  22  28
HETATM   28  O   UNL     1      24.859   0.387   1.207  1.00  0.00    -0.389 OA
ATOM     29  HO  UNL     1      24.949   0.250   0.272  1.00  0.00     0.210 HD
ENDBRANCH  22  28
BRANCH  23  30
HETATM   30  O   UNL     1      22.699   1.123  -0.563  1.00  0.00    -0.390 OA
ATOM     31  HO  UNL     1      23.281   0.856  -1.264  1.00  0.00     0.210 HD
ENDBRANCH  23  30
BRANCH  24  32
HETATM   32  O   UNL     1      20.676   1.175   1.314  1.00  0.00    -0.390 OA
ATOM     33  HO  UNL     1      20.431   1.673   0.544  1.00  0.00     0.210 HD
ENDBRANCH  24  32
ENDBRANCH   1  21
TORSDOF 8
ENDMDL
MODEL 12
REMARK VINA RESULT:    -5.163      2.748      8.659
REMARK INTER + INTRA:          -7.729
REMARK INTER:                  -6.973
REMARK INTRA:                  -0.756
REMARK UNBOUND:                -0.755
REMARK  8 active torsions:
REMARK  status: ('A' for Active; 'I' for Inactive)
REMARK       I    between atoms: N_1  and  C_6 
REMARK    1  A    between atoms: N_1  and  C_12 
REMARK    2  A    between atoms: C_3  and  O_20 
REMARK    3  A    between atoms: C_6  and  C_7 
REMARK    4  A    between atoms: C_14  and  O_15 
REMARK    5  A    between atoms: C_17  and  O_18 
REMARK    6  A    between atoms: C_24  and  C_26 
REMARK    7  A    between atoms: C_28  and  C_29 
REMARK    8  A    between atoms: C_29  and  N_30 
ROOT
HETATM    1  N   UNL     1      24.525  -0.804   4.335  1.00  0.00    -0.326 N 
ATOM      2  HN  UNL     1      24.057  -1.065   5.203  1.00  0.00     0.165 HD
HETATM    3  C   UNL     1      25.565   0.030   4.364  1.00  0.00     0.277 C 
HETATM    4  O   UNL     1      26.077   0.492   3.316  1.00  0.00    -0.265 OA
ENDROOT
BRANCH   3   5
HETATM    5  C   UNL     1      26.103   0.394   5.656  1.00  0.00     0.143 A 
HETATM    6  C   UNL     1      26.017  -0.204   6.845  1.00  0.00     0.046 A 
HETATM    7  C   UNL     1      26.749   0.583   7.750  1.00  0.00     0.041 A 
HETATM    8  C   UNL     1      27.203   1.635   7.070  1.00  0.00     0.086 A 
HETATM    9  O   UNL     1      26.863   1.516   5.758  1.00  0.00    -0.304 OA
BRANCH   8  10
HETATM   10  C   UNL     1      27.951   2.828   7.462  1.00  0.00    -0.002 A 
HETATM   11  C   UNL     1      28.748   2.877   8.569  1.00  0.00     0.014 A 
HETATM   12  C   UNL     1      29.389   4.065   8.931  1.00  0.00     0.002 A 
HETATM   13  C   UNL     1      29.253   5.227   8.153  1.00  0.00     0.009 A 
HETATM   14  C   UNL     1      28.424   5.180   7.058  1.00  0.00    -0.032 A 
HETATM   15  C   UNL     1      27.786   3.984   6.745  1.00  0.00     0.023 A 
BRANCH  14  16
HETATM   16  C   UNL     1      28.221   6.321   6.099  1.00  0.00     0.268 C 
BRANCH  16  17
HETATM   17  N   UNL     1      27.083   6.128   5.045  1.00  0.00    -0.075 N 
ATOM     18  HN3 UNL     1      26.487   5.346   5.316  1.00  0.00     0.274 HD
ATOM     19  HN2 UNL     1      26.415   6.897   5.110  1.00  0.00     0.274 HD
ATOM     20  HN1 UNL     1      27.389   6.014   4.079  1.00  0.00     0.274 HD
ENDBRANCH  16  17
ENDBRANCH  14  16
ENDBRANCH   8  10
ENDBRANCH   3   5
BRANCH   1  21
HETATM   21  C   UNL     1      24.072  -1.325   3.111  1.00  0.00     0.255 C 
HETATM   22  C   UNL     1      22.845  -0.543   2.607  1.00  0.00     0.198 C 
HETATM   23  C   UNL     1      22.272  -1.199   1.359  1.00  0.00     0.182 C 
HETATM   24  C   UNL     1      22.099  -2.687   1.528  1.00  0.00     0.178 C 
HETATM   25  C   UNL     1      23.385  -3.327   2.022  1.00  0.00     0.151 C 
HETATM   26  C   UNL     1      23.184  -4.799   2.293  1.00  0.00     0.042 C 
HETATM   27  O   UNL     1      23.754  -2.662   3.250  1.00  0.00    -0.356 OA
BRANCH  22  28
HETATM   28  O   UNL     1      23.137   0.846   2.380  1.00  0.00    -0.389 OA
ATOM     29  HO  UNL     1      23.679   1.203   3.073  1.00  0.00     0.210 HD
ENDBRANCH  22  28
BRANCH  23  30
HETATM   30  O   UNL     1      21.064  -0.563   0.944  1.00  0.00    -0.390 OA
ATOM     31  HO  UNL     1      20.685  -0.047   1.646  1.00  0.00     0.210 HD
ENDBRANCH  23  30
BRANCH  24  32
HETATM   32  O   UNL     1      21.041  -2.859   2.477  1.00  0.00    -0.390 OA
ATOM     33  HO  UNL     1      20.237  -2.655   2.016  1.00  0.00     0.210 HD
ENDBRANCH  24  32
ENDBRANCH   1  21
TORSDOF 8
ENDMDL
MODEL 13
REMARK VINA RESULT:    -5.139      6.766      8.213
REMARK INTER + INTRA:          -7.697
REMARK INTER:                  -6.995
REMARK INTRA:                  -0.702
REMARK UNBOUND:                -0.755
REMARK  8 active torsions:
REMARK  status: ('A' for Active; 'I' for Inactive)
REMARK       I    between atoms: N_1  and  C_6 
REMARK    1  A    between atoms: N_1  and  C_12 
REMARK    2  A    between atoms: C_3  and  O_20 
REMARK    3  A    between atoms: C_6  and  C_7 
REMARK    4  A    between atoms: C_14  and  O_15 
REMARK    5  A    between atoms: C_17  and  O_18 
REMARK    6  A    between atoms: C_24  and  C_26 
REMARK    7  A    between atoms: C_28  and  C_29 
REMARK    8  A    between atoms: C_29  and  N_30 
ROOT
HETATM    1  N   UNL     1      27.999   5.113   6.636  1.00  0.00    -0.326 N 
ATOM      2  HN  UNL     1      27.339   5.460   7.332  1.00  0.00     0.165 HD
HETATM    3  C   UNL     1      28.114   5.735   5.462  1.00  0.00     0.277 C 
HETATM    4  O   UNL     1      28.799   5.261   4.523  1.00  0.00    -0.265 OA
ENDROOT
BRANCH   3   5
HETATM    5  C   UNL     1      27.421   6.992   5.292  1.00  0.00     0.143 A 
HETATM    6  C   UNL     1      27.776   8.241   5.600  1.00  0.00     0.046 A 
HETATM    7  C   UNL     1      26.722   9.075   5.192  1.00  0.00     0.041 A 
HETATM    8  C   UNL     1      25.770   8.284   4.699  1.00  0.00     0.086 A 
HETATM    9  O   UNL     1      26.198   6.992   4.699  1.00  0.00    -0.304 OA
BRANCH   8  10
HETATM   10  C   UNL     1      24.422   8.541   4.195  1.00  0.00    -0.002 A 
HETATM   11  C   UNL     1      23.318   8.568   4.998  1.00  0.00     0.014 A 
HETATM   12  C   UNL     1      22.046   8.755   4.451  1.00  0.00     0.002 A 
HETATM   13  C   UNL     1      21.873   8.948   3.070  1.00  0.00     0.009 A 
HETATM   14  C   UNL     1      22.984   8.889   2.263  1.00  0.00    -0.032 A 
HETATM   15  C   UNL     1      24.230   8.678   2.845  1.00  0.00     0.023 A 
BRANCH  14  16
HETATM   16  C   UNL     1      22.968   9.131   0.779  1.00  0.00     0.268 C 
BRANCH  16  17
HETATM   17  N   UNL     1      24.368   9.276   0.099  1.00  0.00    -0.075 N 
ATOM     18  HN3 UNL     1      24.963   9.891   0.654  1.00  0.00     0.274 HD
ATOM     19  HN2 UNL     1      24.887   8.400   0.181  1.00  0.00     0.274 HD
ATOM     20  HN1 UNL     1      24.359   9.585  -0.873  1.00  0.00     0.274 HD
ENDBRANCH  16  17
ENDBRANCH  14  16
ENDBRANCH   8  10
ENDBRANCH   3   5
BRANCH   1  21
HETATM   21  C   UNL     1      28.783   3.981   6.916  1.00  0.00     0.255 C 
HETATM   22  C   UNL     1      27.908   2.828   7.439  1.00  0.00     0.198 C 
HETATM   23  C   UNL     1      28.776   1.657   7.876  1.00  0.00     0.182 C 
HETATM   24  C   UNL     1      29.914   2.094   8.763  1.00  0.00     0.178 C 
HETATM   25  C   UNL     1      30.694   3.229   8.120  1.00  0.00     0.151 C 
HETATM   26  C   UNL     1      31.768   3.739   9.051  1.00  0.00     0.042 C 
HETATM   27  O   UNL     1      29.757   4.293   7.844  1.00  0.00    -0.356 OA
BRANCH  22  28
HETATM   28  O   UNL     1      26.917   2.414   6.483  1.00  0.00    -0.389 OA
ATOM     29  HO  UNL     1      27.156   1.592   6.072  1.00  0.00     0.210 HD
ENDBRANCH  22  28
BRANCH  23  30
HETATM   30  O   UNL     1      27.996   0.625   8.477  1.00  0.00    -0.390 OA
ATOM     31  HO  UNL     1      27.608   0.915   9.294  1.00  0.00     0.210 HD
ENDBRANCH  23  30
BRANCH  24  32
HETATM   32  O   UNL     1      29.321   2.511   9.996  1.00  0.00    -0.390 OA
ATOM     33  HO  UNL     1      29.713   1.973  10.673  1.00  0.00     0.210 HD
ENDBRANCH  24  32
ENDBRANCH   1  21
TORSDOF 8
ENDMDL
MODEL 14
REMARK VINA RESULT:    -5.081      6.114     11.255
REMARK INTER + INTRA:          -7.618
REMARK INTER:                  -6.861
REMARK INTRA:                  -0.757
REMARK UNBOUND:                -0.755
REMARK  8 active torsions:
REMARK  status: ('A' for Active; 'I' for Inactive)
REMARK       I    between atoms: N_1  and  C_6 
REMARK    1  A    between atoms: N_1  and  C_12 
REMARK    2  A    between atoms: C_3  and  O_20 
REMARK    3  A    between atoms: C_6  and  C_7 
REMARK    4  A    between atoms: C_14  and  O_15 
REMARK    5  A    between atoms: C_17  and  O_18 
REMARK    6  A    between atoms: C_24  and  C_26 
REMARK    7  A    between atoms: C_28  and  C_29 
REMARK    8  A    between atoms: C_29  and  N_30 
ROOT
HETATM    1  N   UNL     1      29.813   2.378   9.598  1.00  0.00    -0.326 N 
ATOM      2  HN  UNL     1      29.859   3.395   9.551  1.00  0.00     0.165 HD
HETATM    3  C   UNL     1      30.147   1.748  10.725  1.00  0.00     0.277 C 
HETATM    4  O   UNL     1      30.248   0.499  10.784  1.00  0.00    -0.265 OA
ENDROOT
BRANCH   3   5
HETATM    5  C   UNL     1      30.393   2.552  11.900  1.00  0.00     0.143 A 
HETATM    6  C   UNL     1      31.020   2.270  13.044  1.00  0.00     0.046 A 
HETATM    7  C   UNL     1      30.979   3.435  13.828  1.00  0.00     0.041 A 
HETATM    8  C   UNL     1      30.294   4.345  13.136  1.00  0.00     0.086 A 
HETATM    9  O   UNL     1      29.965   3.843  11.915  1.00  0.00    -0.304 OA
BRANCH   8  10
HETATM   10  C   UNL     1      29.852   5.704  13.441  1.00  0.00    -0.002 A 
HETATM   11  C   UNL     1      29.678   6.163  14.715  1.00  0.00     0.014 A 
HETATM   12  C   UNL     1      29.191   7.453  14.946  1.00  0.00     0.002 A 
HETATM   13  C   UNL     1      28.897   8.317  13.878  1.00  0.00     0.009 A 
HETATM   14  C   UNL     1      29.045   7.840  12.598  1.00  0.00    -0.032 A 
HETATM   15  C   UNL     1      29.510   6.541  12.412  1.00  0.00     0.023 A 
BRANCH  14  16
HETATM   16  C   UNL     1      28.825   8.659  11.357  1.00  0.00     0.268 C 
BRANCH  16  17
HETATM   17  N   UNL     1      27.541   8.315  10.534  1.00  0.00    -0.075 N 
ATOM     18  HN3 UNL     1      26.798   8.006  11.161  1.00  0.00     0.274 HD
ATOM     19  HN2 UNL     1      27.123   9.171  10.167  1.00  0.00     0.274 HD
ATOM     20  HN1 UNL     1      27.665   7.638   9.781  1.00  0.00     0.274 HD
ENDBRANCH  16  17
ENDBRANCH  14  16
ENDBRANCH   8  10
ENDBRANCH   3   5
BRANCH   1  21
HETATM   21  C   UNL     1      29.398   1.642   8.474  1.00  0.00     0.255 C 
HETATM   22  C   UNL     1      29.696   2.415   7.177  1.00  0.00     0.198 C 
HETATM   23  C   UNL     1      29.115   1.682   5.976  1.00  0.00     0.182 C 
HETATM   24  C   UNL     1      27.683   1.270   6.200  1.00  0.00     0.178 C 
HETATM   25  C   UNL     1      27.538   0.513   7.510  1.00  0.00     0.151 C 
HETATM   26  C   UNL     1      26.089   0.191   7.788  1.00  0.00     0.042 C 
HETATM   27  O   UNL     1      28.047   1.365   8.559  1.00  0.00    -0.356 OA
BRANCH  22  28
HETATM   28  O   UNL     1      31.099   2.674   7.003  1.00  0.00    -0.389 OA
ATOM     29  HO  UNL     1      31.250   3.302   6.307  1.00  0.00     0.210 HD
ENDBRANCH  22  28
BRANCH  23  30
HETATM   30  O   UNL     1      29.273   2.439   4.777  1.00  0.00    -0.390 OA
ATOM     31  HO  UNL     1      28.540   3.027   4.639  1.00  0.00     0.210 HD
ENDBRANCH  23  30
BRANCH  24  32
HETATM   32  O   UNL     1      26.918   2.480   6.218  1.00  0.00    -0.390 OA
ATOM     33  HO  UNL     1      27.222   2.995   5.480  1.00  0.00     0.210 HD
ENDBRANCH  24  32
ENDBRANCH   1  21
TORSDOF 8
ENDMDL
MODEL 15
REMARK VINA RESULT:    -5.072      2.010      2.736
REMARK INTER + INTRA:          -7.606
REMARK INTER:                  -7.566
REMARK INTRA:                  -0.040
REMARK UNBOUND:                -0.755
REMARK  8 active torsions:
REMARK  status: ('A' for Active; 'I' for Inactive)
REMARK       I    between atoms: N_1  and  C_6 
REMARK    1  A    between atoms: N_1  and  C_12 
REMARK    2  A    between atoms: C_3  and  O_20 
REMARK    3  A    between atoms: C_6  and  C_7 
REMARK    4  A    between atoms: C_14  and  O_15 
REMARK    5  A    between atoms: C_17  and  O_18 
REMARK    6  A    between atoms: C_24  and  C_26 
REMARK    7  A    between atoms: C_28  and  C_29 
REMARK    8  A    between atoms: C_29  and  N_30 
ROOT
HETATM    1  N   UNL     1      27.180   0.182   3.903  1.00  0.00    -0.326 N 
ATOM      2  HN  UNL     1      27.568  -0.183   3.033  1.00  0.00     0.165 HD
HETATM    3  C   UNL     1      25.898   0.543   3.959  1.00  0.00     0.277 C 
HETATM    4  O   UNL     1      25.416   1.132   4.956  1.00  0.00    -0.265 OA
ENDROOT
BRANCH   3   5
HETATM    5  C   UNL     1      25.058   0.234   2.824  1.00  0.00     0.143 A 
HETATM    6  C   UNL     1      25.356   0.025   1.540  1.00  0.00     0.046 A 
HETATM    7  C   UNL     1      24.147  -0.257   0.883  1.00  0.00     0.041 A 
HETATM    8  C   UNL     1      23.179  -0.164   1.794  1.00  0.00     0.086 A 
HETATM    9  O   UNL     1      23.721   0.086   3.017  1.00  0.00    -0.304 OA
BRANCH   8  10
HETATM   10  C   UNL     1      21.723  -0.269   1.716  1.00  0.00    -0.002 A 
HETATM   11  C   UNL     1      20.916   0.780   1.382  1.00  0.00     0.014 A 
HETATM   12  C   UNL     1      19.527   0.638   1.386  1.00  0.00     0.002 A 
HETATM   13  C   UNL     1      18.926  -0.591   1.707  1.00  0.00     0.009 A 
HETATM   14  C   UNL     1      19.741  -1.635   2.073  1.00  0.00    -0.032 A 
HETATM   15  C   UNL     1      21.120  -1.445   2.078  1.00  0.00     0.023 A 
BRANCH  14  16
HETATM   16  C   UNL     1      19.252  -3.022   2.388  1.00  0.00     0.268 C 
BRANCH  16  17
HETATM   17  N   UNL     1      20.326  -4.008   2.952  1.00  0.00    -0.075 N 
ATOM     18  HN3 UNL     1      20.037  -4.352   3.867  1.00  0.00     0.274 HD
ATOM     19  HN2 UNL     1      20.313  -4.879   2.419  1.00  0.00     0.274 HD
ATOM     20  HN1 UNL     1      21.278  -3.645   3.002  1.00  0.00     0.274 HD
ENDBRANCH  16  17
ENDBRANCH  14  16
ENDBRANCH   8  10
ENDBRANCH   3   5
BRANCH   1  21
HETATM   21  C   UNL     1      27.998   0.304   5.039  1.00  0.00     0.255 C 
HETATM   22  C   UNL     1      27.520  -0.640   6.157  1.00  0.00     0.198 C 
HETATM   23  C   UNL     1      28.317  -0.402   7.432  1.00  0.00     0.182 C 
HETATM   24  C   UNL     1      28.407   1.063   7.779  1.00  0.00     0.178 C 
HETATM   25  C   UNL     1      28.897   1.870   6.589  1.00  0.00     0.151 C 
HETATM   26  C   UNL     1      28.888   3.348   6.901  1.00  0.00     0.042 C 
HETATM   27  O   UNL     1      27.997   1.609   5.490  1.00  0.00    -0.356 OA
BRANCH  22  28
HETATM   28  O   UNL     1      27.565  -2.022   5.764  1.00  0.00    -0.389 OA
ATOM     29  HO  UNL     1      28.410  -2.409   5.959  1.00  0.00     0.210 HD
ENDBRANCH  22  28
BRANCH  23  30
HETATM   30  O   UNL     1      27.811  -1.179   8.516  1.00  0.00    -0.390 OA
ATOM     31  HO  UNL     1      26.917  -0.939   8.727  1.00  0.00     0.210 HD
ENDBRANCH  23  30
BRANCH  24  32
HETATM   32  O   UNL     1      27.088   1.463   8.165  1.00  0.00    -0.390 OA
ATOM     33  HO  UNL     1      26.568   1.459   7.370  1.00  0.00     0.210 HD
ENDBRANCH  24  32
ENDBRANCH   1  21
TORSDOF 8
ENDMDL
MODEL 16
REMARK VINA RESULT:    -5.026      1.704      2.931
REMARK INTER + INTRA:          -7.544
REMARK INTER:                  -6.814
REMARK INTRA:                  -0.730
REMARK UNBOUND:                -0.755
REMARK  8 active torsions:
REMARK  status: ('A' for Active; 'I' for Inactive)
REMARK       I    between atoms: N_1  and  C_6 
REMARK    1  A    between atoms: N_1  and  C_12 
REMARK    2  A    between atoms: C_3  and  O_20 
REMARK    3  A    between atoms: C_6  and  C_7 
REMARK    4  A    between atoms: C_14  and  O_15 
REMARK    5  A    between atoms: C_17  and  O_18 
REMARK    6  A    between atoms: C_24  and  C_26 
REMARK    7  A    between atoms: C_28  and  C_29 
REMARK    8  A    between atoms: C_29  and  N_30 
ROOT
HETATM    1  N   UNL     1      27.325   0.121   5.990  1.00  0.00    -0.326 N 
ATOM      2  HN  UNL     1      27.698  -0.798   6.224  1.00  0.00     0.165 HD
HETATM    3  C   UNL     1      26.150   0.223   5.368  1.00  0.00     0.277 C 
HETATM    4  O   UNL     1      25.722   1.318   4.929  1.00  0.00    -0.265 OA
ENDROOT
BRANCH   3   5
HETATM    5  C   UNL     1      25.363  -0.979   5.208  1.00  0.00     0.143 A 
HETATM    6  C   UNL     1      25.515  -2.204   5.715  1.00  0.00     0.046 A 
HETATM    7  C   UNL     1      24.442  -2.976   5.241  1.00  0.00     0.041 A 
HETATM    8  C   UNL     1      23.723  -2.191   4.440  1.00  0.00     0.086 A 
HETATM    9  O   UNL     1      24.240  -0.932   4.444  1.00  0.00    -0.304 OA
BRANCH   8  10
HETATM   10  C   UNL     1      22.549  -2.429   3.602  1.00  0.00    -0.002 A 
HETATM   11  C   UNL     1      22.090  -3.679   3.301  1.00  0.00     0.014 A 
HETATM   12  C   UNL     1      21.001  -3.848   2.441  1.00  0.00     0.002 A 
HETATM   13  C   UNL     1      20.337  -2.740   1.888  1.00  0.00     0.009 A 
HETATM   14  C   UNL     1      20.823  -1.487   2.169  1.00  0.00    -0.032 A 
HETATM   15  C   UNL     1      21.924  -1.362   3.012  1.00  0.00     0.023 A 
BRANCH  14  16
HETATM   16  C   UNL     1      20.189  -0.206   1.699  1.00  0.00     0.268 C 
BRANCH  16  17
HETATM   17  N   UNL     1      18.673  -0.296   1.326  1.00  0.00    -0.075 N 
ATOM     18  HN3 UNL     1      18.180  -0.872   2.008  1.00  0.00     0.274 HD
ATOM     19  HN2 UNL     1      18.221   0.604   1.487  1.00  0.00     0.274 HD
ATOM     20  HN1 UNL     1      18.469  -0.624   0.381  1.00  0.00     0.274 HD
ENDBRANCH  16  17
ENDBRANCH  14  16
ENDBRANCH   8  10
ENDBRANCH   3   5
BRANCH   1  21
HETATM   21  C   UNL     1      28.050   1.278   6.323  1.00  0.00     0.255 C 
HETATM   22  C   UNL     1      29.211   1.496   5.336  1.00  0.00     0.198 C 
HETATM   23  C   UNL     1      30.078   2.664   5.784  1.00  0.00     0.182 C 
HETATM   24  C   UNL     1      30.443   2.573   7.244  1.00  0.00     0.178 C 
HETATM   25  C   UNL     1      29.204   2.366   8.098  1.00  0.00     0.151 C 
HETATM   26  C   UNL     1      29.576   2.169   9.549  1.00  0.00     0.042 C 
HETATM   27  O   UNL     1      28.538   1.180   7.612  1.00  0.00    -0.356 OA
BRANCH  22  28
HETATM   28  O   UNL     1      28.756   1.672   3.984  1.00  0.00    -0.389 OA
ATOM     29  HO  UNL     1      28.119   2.374   3.924  1.00  0.00     0.210 HD
ENDBRANCH  22  28
BRANCH  23  30
HETATM   30  O   UNL     1      31.228   2.808   4.953  1.00  0.00    -0.390 OA
ATOM     31  HO  UNL     1      31.164   3.580   4.403  1.00  0.00     0.210 HD
ENDBRANCH  23  30
BRANCH  24  32
HETATM   32  O   UNL     1      31.341   1.464   7.362  1.00  0.00    -0.390 OA
ATOM     33  HO  UNL     1      31.879   1.640   8.124  1.00  0.00     0.210 HD
ENDBRANCH  24  32
ENDBRANCH   1  21
TORSDOF 8
ENDMDL
MODEL 17
REMARK VINA RESULT:    -5.013      1.975      2.548
REMARK INTER + INTRA:          -7.527
REMARK INTER:                  -6.852
REMARK INTRA:                  -0.675
REMARK UNBOUND:                -0.755
REMARK  8 active torsions:
REMARK  status: ('A' for Active; 'I' for Inactive)
REMARK       I    between atoms: N_1  and  C_6 
REMARK    1  A    between atoms: N_1  and  C_12 
REMARK    2  A    between atoms: C_3  and  O_20 
REMARK    3  A    between atoms: C_6  and  C_7 
REMARK    4  A    between atoms: C_14  and  O_15 
REMARK    5  A    between atoms: C_17  and  O_18 
REMARK    6  A    between atoms: C_24  and  C_26 
REMARK    7  A    between atoms: C_28  and  C_29 
REMARK    8  A    between atoms: C_29  and  N_30 
ROOT
HETATM    1  N   UNL     1      27.303   0.924   5.213  1.00  0.00    -0.326 N 
ATOM      2  HN  UNL     1      27.689   1.178   4.303  1.00  0.00     0.165 HD
HETATM    3  C   UNL     1      26.098   0.359   5.289  1.00  0.00     0.277 C 
HETATM    4  O   UNL     1      25.523   0.165   6.388  1.00  0.00    -0.265 OA
ENDROOT
BRANCH   3   5
HETATM    5  C   UNL     1      25.456  -0.035   4.056  1.00  0.00     0.143 A 
HETATM    6  C   UNL     1      25.896  -0.033   2.796  1.00  0.00     0.046 A 
HETATM    7  C   UNL     1      24.854  -0.540   2.001  1.00  0.00     0.041 A 
HETATM    8  C   UNL     1      23.828  -0.782   2.816  1.00  0.00     0.086 A 
HETATM    9  O   UNL     1      24.191  -0.529   4.102  1.00  0.00    -0.304 OA
BRANCH   8  10
HETATM   10  C   UNL     1      22.458  -1.239   2.585  1.00  0.00    -0.002 A 
HETATM   11  C   UNL     1      22.044  -2.515   2.839  1.00  0.00     0.014 A 
HETATM   12  C   UNL     1      20.739  -2.912   2.538  1.00  0.00     0.002 A 
HETATM   13  C   UNL     1      19.814  -2.005   1.993  1.00  0.00     0.009 A 
HETATM   14  C   UNL     1      20.245  -0.732   1.709  1.00  0.00    -0.032 A 
HETATM   15  C   UNL     1      21.560  -0.383   2.004  1.00  0.00     0.023 A 
BRANCH  14  16
HETATM   16  C   UNL     1      19.362   0.364   1.179  1.00  0.00     0.268 C 
BRANCH  16  17
HETATM   17  N   UNL     1      18.430   1.054   2.228  1.00  0.00    -0.075 N 
ATOM     18  HN3 UNL     1      17.677   1.550   1.752  1.00  0.00     0.274 HD
ATOM     19  HN2 UNL     1      17.892   0.348   2.733  1.00  0.00     0.274 HD
ATOM     20  HN1 UNL     1      18.894   1.677   2.889  1.00  0.00     0.274 HD
ENDBRANCH  16  17
ENDBRANCH  14  16
ENDBRANCH   8  10
ENDBRANCH   3   5
BRANCH   1  21
HETATM   21  C   UNL     1      28.044   1.169   6.382  1.00  0.00     0.255 C 
HETATM   22  C   UNL     1      28.372   2.667   6.513  1.00  0.00     0.198 C 
HETATM   23  C   UNL     1      29.295   2.907   7.700  1.00  0.00     0.182 C 
HETATM   24  C   UNL     1      30.466   1.958   7.710  1.00  0.00     0.178 C 
HETATM   25  C   UNL     1      29.995   0.519   7.580  1.00  0.00     0.151 C 
HETATM   26  C   UNL     1      31.170  -0.425   7.483  1.00  0.00     0.042 C 
HETATM   27  O   UNL     1      29.211   0.430   6.370  1.00  0.00    -0.356 OA
BRANCH  22  28
HETATM   28  O   UNL     1      27.191   3.482   6.598  1.00  0.00    -0.389 OA
ATOM     29  HO  UNL     1      26.928   3.616   7.500  1.00  0.00     0.210 HD
ENDBRANCH  22  28
BRANCH  23  30
HETATM   30  O   UNL     1      29.710   4.270   7.770  1.00  0.00    -0.390 OA
ATOM     31  HO  UNL     1      29.447   4.671   8.590  1.00  0.00     0.210 HD
ENDBRANCH  23  30
BRANCH  24  32
HETATM   32  O   UNL     1      31.291   2.332   6.602  1.00  0.00    -0.390 OA
ATOM     33  HO  UNL     1      31.236   1.618   5.978  1.00  0.00     0.210 HD
ENDBRANCH  24  32
ENDBRANCH   1  21
TORSDOF 8
ENDMDL
MODEL 18
REMARK VINA RESULT:    -5.004      8.950     12.142
REMARK INTER + INTRA:          -7.515
REMARK INTER:                  -6.755
REMARK INTRA:                  -0.759
REMARK UNBOUND:                -0.755
REMARK  8 active torsions:
REMARK  status: ('A' for Active; 'I' for Inactive)
REMARK       I    between atoms: N_1  and  C_6 
REMARK    1  A    between atoms: N_1  and  C_12 
REMARK    2  A    between atoms: C_3  and  O_20 
REMARK    3  A    between atoms: C_6  and  C_7 
REMARK    4  A    between atoms: C_14  and  O_15 
REMARK    5  A    between atoms: C_17  and  O_18 
REMARK    6  A    between atoms: C_24  and  C_26 
REMARK    7  A    between atoms: C_28  and  C_29 
REMARK    8  A    between atoms: C_29  and  N_30 
ROOT
HETATM    1  N   UNL     1      25.976   8.168   5.183  1.00  0.00    -0.326 N 
ATOM      2  HN  UNL     1      26.285   7.237   4.906  1.00  0.00     0.165 HD
HETATM    3  C   UNL     1      26.443   8.717   6.305  1.00  0.00     0.277 C 
HETATM    4  O   UNL     1      25.983   9.791   6.762  1.00  0.00    -0.265 OA
ENDROOT
BRANCH   3   5
HETATM    5  C   UNL     1      27.514   8.035   6.996  1.00  0.00     0.143 A 
HETATM    6  C   UNL     1      28.529   7.299   6.539  1.00  0.00     0.046 A 
HETATM    7  C   UNL     1      29.277   6.898   7.658  1.00  0.00     0.041 A 
HETATM    8  C   UNL     1      28.653   7.376   8.733  1.00  0.00     0.086 A 
HETATM    9  O   UNL     1      27.587   8.130   8.350  1.00  0.00    -0.304 OA
BRANCH   8  10
HETATM   10  C   UNL     1      28.893   7.236  10.169  1.00  0.00    -0.002 A 
HETATM   11  C   UNL     1      29.677   6.254  10.702  1.00  0.00     0.014 A 
HETATM   12  C   UNL     1      29.818   6.130  12.086  1.00  0.00     0.002 A 
HETATM   13  C   UNL     1      29.181   7.026  12.961  1.00  0.00     0.009 A 
HETATM   14  C   UNL     1      28.369   7.993  12.422  1.00  0.00    -0.032 A 
HETATM   15  C   UNL     1      28.237   8.068  11.038  1.00  0.00     0.023 A 
BRANCH  14  16
HETATM   16  C   UNL     1      27.668   9.056  13.222  1.00  0.00     0.268 C 
BRANCH  16  17
HETATM   17  N   UNL     1      26.828  10.085  12.397  1.00  0.00    -0.075 N 
ATOM     18  HN3 UNL     1      26.183  10.581  13.012  1.00  0.00     0.274 HD
ATOM     19  HN2 UNL     1      27.423  10.857  12.096  1.00  0.00     0.274 HD
ATOM     20  HN1 UNL     1      26.322   9.703  11.597  1.00  0.00     0.274 HD
ENDBRANCH  16  17
ENDBRANCH  14  16
ENDBRANCH   8  10
ENDBRANCH   3   5
BRANCH   1  21
HETATM   21  C   UNL     1      25.059   8.870   4.383  1.00  0.00     0.255 C 
HETATM   22  C   UNL     1      23.629   8.343   4.603  1.00  0.00     0.198 C 
HETATM   23  C   UNL     1      22.663   9.005   3.631  1.00  0.00     0.182 C 
HETATM   24  C   UNL     1      23.179   8.983   2.214  1.00  0.00     0.178 C 
HETATM   25  C   UNL     1      24.592   9.535   2.145  1.00  0.00     0.151 C 
HETATM   26  C   UNL     1      25.149   9.416   0.746  1.00  0.00     0.042 C 
HETATM   27  O   UNL     1      25.404   8.755   3.050  1.00  0.00    -0.356 OA
BRANCH  22  28
HETATM   28  O   UNL     1      23.191   8.500   5.963  1.00  0.00    -0.389 OA
ATOM     29  HO  UNL     1      23.381   9.371   6.288  1.00  0.00     0.210 HD
ENDBRANCH  22  28
BRANCH  23  30
HETATM   30  O   UNL     1      21.355   8.445   3.733  1.00  0.00    -0.390 OA
ATOM     31  HO  UNL     1      20.696   9.041   3.398  1.00  0.00     0.210 HD
ENDBRANCH  23  30
BRANCH  24  32
HETATM   32  O   UNL     1      23.140   7.614   1.798  1.00  0.00    -0.390 OA
ATOM     33  HO  UNL     1      22.806   7.617   0.909  1.00  0.00     0.210 HD
ENDBRANCH  24  32
ENDBRANCH   1  21
TORSDOF 8
ENDMDL
MODEL 19
REMARK VINA RESULT:    -4.996      5.568      8.396
REMARK INTER + INTRA:          -7.504
REMARK INTER:                  -6.836
REMARK INTRA:                  -0.667
REMARK UNBOUND:                -0.755
REMARK  8 active torsions:
REMARK  status: ('A' for Active; 'I' for Inactive)
REMARK       I    between atoms: N_1  and  C_6 
REMARK    1  A    between atoms: N_1  and  C_12 
REMARK    2  A    between atoms: C_3  and  O_20 
REMARK    3  A    between atoms: C_6  and  C_7 
REMARK    4  A    between atoms: C_14  and  O_15 
REMARK    5  A    between atoms: C_17  and  O_18 
REMARK    6  A    between atoms: C_24  and  C_26 
REMARK    7  A    between atoms: C_28  and  C_29 
REMARK    8  A    between atoms: C_29  and  N_30 
ROOT
HETATM    1  N   UNL     1      24.826  -3.459   5.866  1.00  0.00    -0.326 N 
ATOM      2  HN  UNL     1      24.037  -3.203   6.459  1.00  0.00     0.165 HD
HETATM    3  C   UNL     1      25.308  -4.702   5.900  1.00  0.00     0.277 C 
HETATM    4  O   UNL     1      26.363  -5.022   5.302  1.00  0.00    -0.265 OA
ENDROOT
BRANCH   3   5
HETATM    5  C   UNL     1      24.573  -5.691   6.655  1.00  0.00     0.143 A 
HETATM    6  C   UNL     1      23.616  -6.545   6.288  1.00  0.00     0.046 A 
HETATM    7  C   UNL     1      23.275  -7.289   7.429  1.00  0.00     0.041 A 
HETATM    8  C   UNL     1      24.013  -6.818   8.434  1.00  0.00     0.086 A 
HETATM    9  O   UNL     1      24.865  -5.864   7.971  1.00  0.00    -0.304 OA
BRANCH   8  10
HETATM   10  C   UNL     1      24.061  -7.122   9.863  1.00  0.00    -0.002 A 
HETATM   11  C   UNL     1      24.439  -6.210  10.807  1.00  0.00     0.014 A 
HETATM   12  C   UNL     1      24.529  -6.576  12.152  1.00  0.00     0.002 A 
HETATM   13  C   UNL     1      24.206  -7.878  12.571  1.00  0.00     0.009 A 
HETATM   14  C   UNL     1      23.857  -8.799  11.614  1.00  0.00    -0.032 A 
HETATM   15  C   UNL     1      23.802  -8.400  10.282  1.00  0.00     0.023 A 
BRANCH  14  16
HETATM   16  C   UNL     1      23.432 -10.211  11.911  1.00  0.00     0.268 C 
BRANCH  16  17
HETATM   17  N   UNL     1      24.104 -10.875  13.157  1.00  0.00    -0.075 N 
ATOM     18  HN3 UNL     1      23.388 -11.201  13.806  1.00  0.00     0.274 HD
ATOM     19  HN2 UNL     1      24.526 -11.765  12.891  1.00  0.00     0.274 HD
ATOM     20  HN1 UNL     1      24.786 -10.300  13.651  1.00  0.00     0.274 HD
ENDBRANCH  16  17
ENDBRANCH  14  16
ENDBRANCH   8  10
ENDBRANCH   3   5
BRANCH   1  21
HETATM   21  C   UNL     1      25.401  -2.501   5.013  1.00  0.00     0.255 C 
HETATM   22  C   UNL     1      25.358  -1.104   5.657  1.00  0.00     0.198 C 
HETATM   23  C   UNL     1      25.849  -0.050   4.674  1.00  0.00     0.182 C 
HETATM   24  C   UNL     1      25.198  -0.189   3.321  1.00  0.00     0.178 C 
HETATM   25  C   UNL     1      25.322  -1.613   2.806  1.00  0.00     0.151 C 
HETATM   26  C   UNL     1      24.580  -1.780   1.501  1.00  0.00     0.042 C 
HETATM   27  O   UNL     1      24.739  -2.483   3.801  1.00  0.00    -0.356 OA
BRANCH  22  28
HETATM   28  O   UNL     1      26.091  -1.046   6.893  1.00  0.00    -0.389 OA
ATOM     29  HO  UNL     1      27.025  -0.975   6.737  1.00  0.00     0.210 HD
ENDBRANCH  22  28
BRANCH  23  30
HETATM   30  O   UNL     1      25.704   1.266   5.205  1.00  0.00    -0.390 OA
ATOM     31  HO  UNL     1      26.259   1.887   4.750  1.00  0.00     0.210 HD
ENDBRANCH  23  30
BRANCH  24  32
HETATM   32  O   UNL     1      23.826   0.177   3.500  1.00  0.00    -0.390 OA
ATOM     33  HO  UNL     1      23.320  -0.609   3.333  1.00  0.00     0.210 HD
ENDBRANCH  24  32
ENDBRANCH   1  21
TORSDOF 8
ENDMDL
MODEL 20
REMARK VINA RESULT:    -4.921      8.697     12.147
REMARK INTER + INTRA:          -7.402
REMARK INTER:                  -6.687
REMARK INTRA:                  -0.715
REMARK UNBOUND:                -0.755
REMARK  8 active torsions:
REMARK  status: ('A' for Active; 'I' for Inactive)
REMARK       I    between atoms: N_1  and  C_6 
REMARK    1  A    between atoms: N_1  and  C_12 
REMARK    2  A    between atoms: C_3  and  O_20 
REMARK    3  A    between atoms: C_6  and  C_7 
REMARK    4  A    between atoms: C_14  and  O_15 
REMARK    5  A    between atoms: C_17  and  O_18 
REMARK    6  A    between atoms: C_24  and  C_26 
REMARK    7  A    between atoms: C_28  and  C_29 
REMARK    8  A    between atoms: C_29  and  N_30 
ROOT
HETATM    1  N   UNL     1      24.220   8.709   4.761  1.00  0.00    -0.326 N 
ATOM      2  HN  UNL     1      23.938   7.791   5.102  1.00  0.00     0.165 HD
HETATM    3  C   UNL     1      25.479   9.119   4.920  1.00  0.00     0.277 C 
HETATM    4  O   UNL     1      25.835  10.292   4.652  1.00  0.00    -0.265 OA
ENDROOT
BRANCH   3   5
HETATM    5  C   UNL     1      26.444   8.164   5.416  1.00  0.00     0.143 A 
HETATM    6  C   UNL     1      27.046   7.132   4.822  1.00  0.00     0.046 A 
HETATM    7  C   UNL     1      27.906   6.560   5.774  1.00  0.00     0.041 A 
HETATM    8  C   UNL     1      27.747   7.248   6.904  1.00  0.00     0.086 A 
HETATM    9  O   UNL     1      26.887   8.282   6.696  1.00  0.00    -0.304 OA
BRANCH   8  10
HETATM   10  C   UNL     1      28.295   7.094   8.250  1.00  0.00    -0.002 A 
HETATM   11  C   UNL     1      29.068   6.033   8.624  1.00  0.00     0.014 A 
HETATM   12  C   UNL     1      29.511   5.905   9.942  1.00  0.00     0.002 A 
HETATM   13  C   UNL     1      29.197   6.876  10.908  1.00  0.00     0.009 A 
HETATM   14  C   UNL     1      28.393   7.926  10.535  1.00  0.00    -0.032 A 
HETATM   15  C   UNL     1      27.954   8.004   9.217  1.00  0.00     0.023 A 
BRANCH  14  16
HETATM   16  C   UNL     1      28.018   9.069  11.437  1.00  0.00     0.268 C 
BRANCH  16  17
HETATM   17  N   UNL     1      27.400   8.672  12.817  1.00  0.00    -0.075 N 
ATOM     18  HN3 UNL     1      27.502   9.441  13.479  1.00  0.00     0.274 HD
ATOM     19  HN2 UNL     1      26.384   8.629  12.744  1.00  0.00     0.274 HD
ATOM     20  HN1 UNL     1      27.756   7.809  13.229  1.00  0.00     0.274 HD
ENDBRANCH  16  17
ENDBRANCH  14  16
ENDBRANCH   8  10
ENDBRANCH   3   5
BRANCH   1  21
HETATM   21  C   UNL     1      23.282   9.540   4.125  1.00  0.00     0.255 C 
HETATM   22  C   UNL     1      22.075   9.802   5.044  1.00  0.00     0.198 C 
HETATM   23  C   UNL     1      20.999  10.579   4.300  1.00  0.00     0.182 C 
HETATM   24  C   UNL     1      20.700   9.983   2.948  1.00  0.00     0.178 C 
HETATM   25  C   UNL     1      21.978   9.787   2.149  1.00  0.00     0.151 C 
HETATM   26  C   UNL     1      21.692   9.093   0.838  1.00  0.00     0.042 C 
HETATM   27  O   UNL     1      22.860   8.963   2.943  1.00  0.00    -0.356 OA
BRANCH  22  28
HETATM   28  O   UNL     1      22.448  10.463   6.264  1.00  0.00    -0.389 OA
ATOM     29  HO  UNL     1      23.183  11.049   6.128  1.00  0.00     0.210 HD
ENDBRANCH  22  28
BRANCH  23  30
HETATM   30  O   UNL     1      19.822  10.728   5.091  1.00  0.00    -0.390 OA
ATOM     31  HO  UNL     1      19.176  10.064   4.881  1.00  0.00     0.210 HD
ENDBRANCH  23  30
BRANCH  24  32
HETATM   32  O   UNL     1      20.052   8.732   3.199  1.00  0.00    -0.390 OA
ATOM     33  HO  UNL     1      19.859   8.359   2.348  1.00  0.00     0.210 HD
ENDBRANCH  24  32
ENDBRANCH   1  21
TORSDOF 8
ENDMDL
