REMARK  11 active torsions:
REMARK  status: ('A' for Active; 'I' for Inactive)
REMARK    1  A    between atoms: C_2  and  O_16 
REMARK    2  A    between atoms: C_2  and  C_22 
REMARK    3  A    between atoms: O_3  and  C_5 
REMARK    4  A    between atoms: C_5  and  C_11 
REMARK    5  A    between atoms: C_7  and  O_17 
REMARK    6  A    between atoms: C_8  and  O_16 
REMARK    7  A    between atoms: C_9  and  O_13 
REMARK    8  A    between atoms: C_10  and  O_14 
REMARK    9  A    between atoms: O_14  and  C_15 
REMARK   10  A    between atoms: C_15  and  C_21 
REMARK   11  A    between atoms: C_29  and  N_32 
ROOT
HETATM    1  C   UNL     1      17.570  -8.576  -2.740  1.00  0.00     0.181 C 
HETATM    2  C   UNL     1      18.624  -9.156  -1.850  1.00  0.00     0.198 C 
HETATM    3  C   UNL     1      18.949  -6.881  -0.939  1.00  0.00     0.291 C 
HETATM    4  C   UNL     1      18.915  -8.342  -0.584  1.00  0.00     0.219 C 
HETATM    5  C   UNL     1      17.762  -7.082  -2.929  1.00  0.00     0.179 C 
HETATM    6  O   UNL     1      17.785  -6.430  -1.648  1.00  0.00    -0.348 OA
ENDROOT
BRANCH   4   7
HETATM    7  O   UNL     1      17.831  -8.503   0.375  1.00  0.00    -0.304 OA
BRANCH   7   8
HETATM    8  C   UNL     1      18.168  -8.698   1.642  1.00  0.00     0.296 C 
HETATM    9  O   UNL     1      19.326  -8.857   2.007  1.00  0.00    -0.259 OA
BRANCH   8  10
HETATM   10  C   UNL     1      17.020  -8.521   2.587  1.00  0.00     0.072 A 
HETATM   11  C   UNL     1      16.041  -9.472   2.871  1.00  0.00     0.120 A 
HETATM   12  C   UNL     1      15.095  -9.301   3.850  1.00  0.00     0.060 A 
HETATM   13  C   UNL     1      15.102  -8.107   4.548  1.00  0.00     0.036 A 
HETATM   14  C   UNL     1      16.025  -7.118   4.295  1.00  0.00     0.025 A 
HETATM   15 CL   UNL     1      13.965  -7.918   5.796  1.00  0.00    -0.084 Cl
HETATM   16  C   UNL     1      16.985  -7.332   3.315  1.00  0.00     0.022 A 
BRANCH  11  17
HETATM   17  N   UNL     1      16.033 -10.744   2.136  1.00  0.00    -0.115 N 
HETATM   18  O   UNL     1      17.133 -11.118   1.667  1.00  0.00    -0.532 OA
HETATM   19  O   UNL     1      15.002 -11.433   2.086  1.00  0.00    -0.532 OA
ENDBRANCH  11  17
ENDBRANCH   8  10
ENDBRANCH   7   8
ENDBRANCH   4   7
BRANCH   2  20
HETATM   20  O   UNL     1      18.119 -10.485  -1.561  1.00  0.00    -0.306 OA
BRANCH  20  21
HETATM   21  C   UNL     1      18.989 -11.435  -1.315  1.00  0.00     0.293 C 
HETATM   22  O   UNL     1      20.157 -11.236  -1.318  1.00  0.00    -0.259 OA
BRANCH  21  23
HETATM   23  C   UNL     1      18.354 -12.753  -0.997  1.00  0.00     0.039 A 
HETATM   24  C   UNL     1      19.147 -13.872  -0.734  1.00  0.00     0.018 A 
HETATM   25  C   UNL     1      18.552 -15.078  -0.424  1.00  0.00     0.007 A 
HETATM   26  C   UNL     1      17.179 -15.202  -0.375  1.00  0.00    -0.062 A 
HETATM   27  C   UNL     1      16.418 -14.106  -0.632  1.00  0.00     0.007 A 
HETATM   28  C   UNL     1      16.560 -16.533  -0.113  1.00  0.00     0.048 C 
HETATM   29  C   UNL     1      16.971 -12.883  -0.930  1.00  0.00     0.018 A 
ENDBRANCH  21  23
ENDBRANCH  20  21
ENDBRANCH   2  20
BRANCH   3  30
HETATM   30  O   UNL     1      19.050  -6.166   0.262  1.00  0.00    -0.363 OA
HETATM   31  C   UNL     1      19.296  -4.787   0.065  1.00  0.00     0.204 C 
ENDBRANCH   3  30
BRANCH   1  32
HETATM   32  O   UNL     1      16.289  -8.856  -2.167  1.00  0.00    -0.390 OA
ATOM     33  HO  UNL     1      15.620  -8.488  -2.732  1.00  0.00     0.210 HD
ENDBRANCH   1  32
BRANCH   5  34
HETATM   34  C   UNL     1      16.613  -6.481  -3.701  1.00  0.00     0.198 C 
BRANCH  34  35
HETATM   35  O   UNL     1      16.771  -5.083  -3.911  1.00  0.00    -0.398 OA
ATOM     36  HO  UNL     1      16.048  -4.705  -4.397  1.00  0.00     0.209 HD
ENDBRANCH  34  35
ENDBRANCH   5  34
TORSDOF 11
