REMARK  6 active torsions:
REMARK  status: ('A' for Active; 'I' for Inactive)
REMARK    1  A    between atoms: C_3  and  N_4 
REMARK    2  A    between atoms: N_12  and  C_29 
REMARK    3  A    between atoms: C_13  and  C_18 
REMARK    4  A    between atoms: C_18  and  N_19 
REMARK    5  A    between atoms: N_19  and  C_24 
REMARK    6  A    between atoms: C_21  and  C_27 
ROOT
HETATM    1  N   UNK A   0      28.855   9.420  10.791  1.00  0.00    -0.175 N 
ATOM      2  HN  UNK A   0      29.872   9.373  10.730  1.00  0.00     0.186 HD
HETATM    3  C   UNK A   0      28.242  10.583  10.787  1.00  0.00     0.680 A 
HETATM    4  N   UNK A   0      26.868  10.669  10.749  1.00  0.00    -0.154 N 
ATOM      5  HN  UNK A   0      26.439  11.587  10.633  1.00  0.00     0.187 HD
HETATM    6  C   UNK A   0      26.050   9.569  10.861  1.00  0.00     0.290 A 
HETATM    7  O   UNK A   0      24.809   9.748  10.776  1.00  0.00    -0.265 OA
HETATM    8  C   UNK A   0      26.697   8.339  10.981  1.00  0.00     0.151 A 
HETATM    9  N   UNK A   0      26.039   7.082  11.138  1.00  0.00    -0.309 N 
HETATM   10  C   UNK A   0      26.649   5.911  10.472  1.00  0.00     0.128 C 
HETATM   11  C   UNK A   0      28.104   5.812  10.917  1.00  0.00     0.148 C 
HETATM   12  N   UNK A   0      28.765   7.110  10.891  1.00  0.00    -0.372 N 
ATOM     13  HN  UNK A   0      29.785   7.125  10.883  1.00  0.00     0.161 HD
HETATM   14  C   UNK A   0      28.122   8.287  10.877  1.00  0.00     0.149 A 
ENDROOT
BRANCH  10  15
HETATM   15  C   UNK A   0      26.508   6.023   8.961  1.00  0.00     0.147 C 
BRANCH  15  16
HETATM   16  N   UNK A   0      25.130   6.346   8.603  1.00  0.00    -0.388 N 
ATOM     17  HN  UNK A   0      24.489   6.599   9.355  1.00  0.00     0.159 HD
BRANCH  16  18
HETATM   18  C   UNK A   0      24.633   6.331   7.305  1.00  0.00     0.028 A 
HETATM   19  C   UNK A   0      23.329   6.780   7.102  1.00  0.00     0.030 A 
HETATM   20  C   UNK A   0      22.790   6.754   5.843  1.00  0.00     0.017 A 
HETATM   21  C   UNK A   0      23.552   6.332   4.757  1.00  0.00     0.002 A 
HETATM   22  C   UNK A   0      24.862   5.927   4.964  1.00  0.00     0.017 A 
HETATM   23  C   UNK A   0      25.404   5.919   6.226  1.00  0.00     0.030 A 
BRANCH  21  24
HETATM   24  C   UNK A   0      23.013   6.344   3.351  1.00  0.00     0.269 C 
HETATM   25  O   UNK A   0      23.390   5.497   2.552  1.00  0.00    -0.301 OA
ENDBRANCH  21  24
ENDBRANCH  16  18
ENDBRANCH  15  16
ENDBRANCH  10  15
BRANCH   9  26
HETATM   26  C   UNK A   0      25.113   6.912  12.109  1.00  0.00     0.356 C 
HETATM   27  O   UNK A   0      24.650   7.878  12.756  1.00  0.00    -0.283 OA
ENDBRANCH   9  26
BRANCH   3  28
HETATM   28  N   UNK A   0      28.925  11.735  10.688  1.00  0.00    -0.234 N 
ATOM     29  HN2 UNK A   0      28.449  12.637  10.685  1.00  0.00     0.174 HD
ATOM     30  HN1 UNK A   0      29.943  11.671  10.716  1.00  0.00     0.174 HD
ENDBRANCH   3  28
TORSDOF 6
