REMARK  7 active torsions:
REMARK  status: ('A' for Active; 'I' for Inactive)
REMARK    1  A    between atoms: C_2  and  C_3 
REMARK    2  A    between atoms: C_6  and  C_14 
REMARK    3  A    between atoms: C_10  and  C_11 
REMARK    4  A    between atoms: C_17  and  O_33 
REMARK    5  A    between atoms: C_18  and  C_19 
REMARK    6  A    between atoms: C_18  and  O_33 
REMARK    7  A    between atoms: C_20  and  C_21 
ROOT
HETATM    1  C   UNL     1       0.233  44.217  12.649  1.00  0.00     0.122 A 
HETATM    2  C   UNL     1      -1.016  44.129  13.247  1.00  0.00     0.032 A 
HETATM    3  C   UNL     1      -1.914  44.789  12.407  1.00  0.00     0.079 A 
HETATM    4  N   UNL     1      -1.284  45.239  11.345  1.00  0.00    -0.259 N 
ATOM      5  HN  UNL     1      -1.701  45.743  10.562  1.00  0.00     0.195 HD
HETATM    6  O   UNL     1       0.080  44.895  11.489  1.00  0.00    -0.236 OA
ENDROOT
BRANCH   2   7
HETATM    7  C   UNL     1      -1.362  43.448  14.528  1.00  0.00     0.220 C 
BRANCH   7   8
HETATM    8  O   UNL     1      -0.579  43.950  15.634  1.00  0.00    -0.347 OA
BRANCH   8   9
HETATM    9  C   UNL     1      -0.753  43.362  16.866  1.00  0.00     0.069 A 
HETATM   10  C   UNL     1      -1.696  42.377  17.136  1.00  0.00     0.038 A 
HETATM   11  C   UNL     1      -1.794  41.862  18.419  1.00  0.00     0.021 A 
HETATM   12  C   UNL     1      -0.964  42.318  19.440  1.00  0.00     0.041 A 
HETATM   13  C   UNL     1      -0.033  43.307  19.152  1.00  0.00     0.021 A 
HETATM   14  C   UNL     1       0.078  43.823  17.875  1.00  0.00     0.038 A 
BRANCH  12  15
HETATM   15  C   UNL     1      -1.073  41.768  20.843  1.00  0.00     0.209 C 
HETATM   16  O   UNL     1      -1.755  40.733  21.026  1.00  0.00    -0.644 OA
HETATM   17  O   UNL     1      -0.542  42.426  21.755  1.00  0.00    -0.644 OA
ENDBRANCH  12  15
ENDBRANCH   8   9
ENDBRANCH   7   8
ENDBRANCH   2   7
BRANCH   1  18
HETATM   18  C   UNL     1       1.578  43.775  13.011  1.00  0.00     0.034 A 
HETATM   19  C   UNL     1       2.732  43.802  12.210  1.00  0.00     0.122 A 
HETATM   20  N   UNL     1       3.770  43.346  12.896  1.00  0.00    -0.311 N 
HETATM   21  N   UNL     1       3.303  43.021  14.120  1.00  0.00    -0.311 N 
ATOM     22  HN  UNL     1       4.731  43.258  12.565  1.00  0.00     0.186 HD
HETATM   23  C   UNL     1       1.994  43.267  14.223  1.00  0.00     0.122 A 
ATOM     24  HN  UNL     1       3.877  42.637  14.871  1.00  0.00     0.186 HD
ENDBRANCH   1  18
BRANCH   3  25
HETATM   25  C   UNL     1      -3.376  44.972  12.511  1.00  0.00     0.030 A 
HETATM   26  C   UNL     1      -3.932  46.262  12.599  1.00  0.00     0.062 A 
HETATM   27  C   UNL     1      -5.316  46.380  12.703  1.00  0.00     0.017 A 
HETATM   28  C   UNL     1      -6.136  45.268  12.743  1.00  0.00     0.003 A 
HETATM   29  C   UNL     1      -5.599  44.008  12.681  1.00  0.00     0.025 A 
HETATM   30  C   UNL     1      -4.221  43.870  12.576  1.00  0.00     0.047 A 
HETATM   31 CL   UNL     1      -3.557  42.284  12.480  1.00  0.00    -0.083 Cl
BRANCH  26  32
HETATM   32  C   UNL     1      -3.104  47.509  12.564  1.00  0.00     0.418 C 
HETATM   33  F   UNL     1      -2.666  47.815  11.347  1.00  0.00    -0.166 F 
HETATM   34  F   UNL     1      -2.018  47.460  13.343  1.00  0.00    -0.166 F 
HETATM   35  F   UNL     1      -3.796  48.560  12.979  1.00  0.00    -0.166 F 
ENDBRANCH  26  32
ENDBRANCH   3  25
TORSDOF 7
