REMARK  5 active torsions:
REMARK  status: ('A' for Active; 'I' for Inactive)
REMARK    1  A    between atoms: C_1  and  C_9 
REMARK    2  A    between atoms: C_1  and  N_24 
REMARK    3  A    between atoms: C_9  and  O_25 
REMARK    4  A    between atoms: C_9  and  C_10 
REMARK    5  A    between atoms: C_10  and  N_21 
ROOT
HETATM    1  C   UNL     1      -8.209  28.206 -10.024  1.00  0.00     0.033 A 
HETATM    2  C   UNL     1     -10.290  27.277  -9.299  1.00  0.00     0.117 A 
HETATM    3  C   UNL     1     -11.038  28.226  -9.954  1.00  0.00     0.057 A 
HETATM    4  C   UNL     1      -9.655  31.011 -11.967  1.00  0.00     0.046 A 
HETATM    5  C   UNL     1      -9.759  32.170 -12.803  1.00  0.00     0.033 A 
HETATM    6  C   UNL     1     -11.022  32.687 -13.112  1.00  0.00     0.044 A 
HETATM    7  C   UNL     1     -12.097  30.892 -11.780  1.00  0.00     0.057 A 
HETATM    8  C   UNL     1      -8.950  29.224 -10.715  1.00  0.00     0.046 A 
HETATM    9  C   UNL     1      -8.889  27.200  -9.298  1.00  0.00     0.044 A 
HETATM   10  C   UNL     1     -10.370  29.242 -10.660  1.00  0.00     0.006 A 
HETATM   11  C   UNL     1     -10.821  30.373 -11.462  1.00  0.00     0.006 A 
HETATM   12  C   UNL     1     -12.132  32.013 -12.590  1.00  0.00     0.117 A 
HETATM   13  F   UNL     1     -11.015  26.298  -8.637  1.00  0.00    -0.206 F 
HETATM   14  F   UNL     1     -13.376  32.521 -12.895  1.00  0.00    -0.206 F 
HETATM   15  N   UNL     1      -8.529  30.303 -11.491  1.00  0.00    -0.343 N 
ENDROOT
BRANCH  15  16
HETATM   16  C   UNL     1      -7.106  30.623 -11.797  1.00  0.00     0.163 C 
BRANCH  16  17
HETATM   17  C   UNL     1      -6.566  29.545 -12.833  1.00  0.00     0.154 C 
BRANCH  17  18
HETATM   18  O   UNL     1      -7.297  29.679 -14.051  1.00  0.00    -0.392 OA
ATOM     19  HO  UNL     1      -6.974  29.035 -14.670  1.00  0.00     0.210 HD
ENDBRANCH  17  18
BRANCH  17  20
HETATM   20  C   UNL     1      -5.068  29.743 -13.215  1.00  0.00     0.161 C 
BRANCH  20  21
HETATM   21  N   UNL     1      -4.442  28.476 -13.534  1.00  0.00    -0.330 N 
HETATM   22  C   UNL     1      -3.479  27.756 -12.771  1.00  0.00     0.318 A 
HETATM   23  O   UNL     1      -3.019  28.124 -11.698  1.00  0.00    -0.247 OA
HETATM   24  N   UNL     1      -3.107  26.547 -13.429  1.00  0.00    -0.341 N 
HETATM   25  C   UNL     1      -3.847  26.431 -14.674  1.00  0.00     0.144 A 
ATOM     26  HN  UNL     1      -2.428  25.870 -13.081  1.00  0.00     0.164 HD
HETATM   27  C   UNL     1      -4.729  27.713 -14.752  1.00  0.00     0.147 A 
ENDBRANCH  20  21
ENDBRANCH  17  20
ENDBRANCH  16  17
ENDBRANCH  15  16
TORSDOF 5
