REMARK  5 active torsions:
REMARK  status: ('A' for Active; 'I' for Inactive)
REMARK    1  A    between atoms: C_1  and  C_9 
REMARK    2  A    between atoms: C_1  and  N_23 
REMARK    3  A    between atoms: C_9  and  C_10 
REMARK    4  A    between atoms: C_9  and  O_24 
REMARK    5  A    between atoms: C_10  and  N_21 
ROOT
HETATM    1  C   UNL     1      -2.525   1.011   1.007  1.00  0.00     0.033 A 
HETATM    2  C   UNL     1      -4.039   0.539  -0.859  1.00  0.00     0.117 A 
HETATM    3  C   UNL     1      -2.947   0.396  -1.733  1.00  0.00     0.057 A 
HETATM    4  C   UNL     1       0.493   0.771  -0.804  1.00  0.00     0.046 A 
HETATM    5  C   UNL     1       1.863   0.812  -1.093  1.00  0.00     0.033 A 
HETATM    6  C   UNL     1       2.270   0.574  -2.419  1.00  0.00     0.044 A 
HETATM    7  C   UNL     1      -0.053   0.280  -3.122  1.00  0.00     0.057 A 
HETATM    8  C   UNL     1      -1.450   0.840   0.129  1.00  0.00     0.046 A 
HETATM    9  C   UNL     1      -3.828   0.849   0.502  1.00  0.00     0.044 A 
HETATM   10  C   UNL     1      -1.668   0.558  -1.206  1.00  0.00     0.006 A 
HETATM   11  C   UNL     1      -0.429   0.517  -1.802  1.00  0.00     0.006 A 
HETATM   12  C   UNL     1       1.319   0.308  -3.427  1.00  0.00     0.117 A 
HETATM   13  F   UNL     1      -5.302   0.391  -1.329  1.00  0.00    -0.206 F 
HETATM   14  F   UNL     1       1.730   0.081  -4.699  1.00  0.00    -0.206 F 
HETATM   15  N   UNL     1      -0.122   0.957   0.395  1.00  0.00    -0.343 N 
ENDROOT
BRANCH  15  16
HETATM   16  C   UNL     1       0.506   1.276   1.685  1.00  0.00     0.163 C 
BRANCH  16  17
HETATM   17  C   UNL     1       0.622   0.051   2.620  1.00  0.00     0.154 C 
BRANCH  17  18
HETATM   18  C   UNL     1       1.443  -1.118   2.021  1.00  0.00     0.161 C 
BRANCH  18  19
HETATM   19  N   UNL     1       0.595  -2.175   1.460  1.00  0.00    -0.330 N 
HETATM   20  C   UNL     1       0.632  -2.625   0.070  1.00  0.00     0.147 A 
HETATM   21  C   UNL     1      -0.093  -3.993   0.041  1.00  0.00     0.144 A 
HETATM   22  N   UNL     1      -0.452  -4.280   1.421  1.00  0.00    -0.341 N 
HETATM   23  C   UNL     1      -0.013  -3.204   2.216  1.00  0.00     0.318 A 
HETATM   24  H   UNL     1      -0.928  -5.143   1.765  1.00  0.00     0.164 HD
HETATM   25  O   UNL     1      -0.117  -3.187   3.471  1.00  0.00    -0.247 OA
ENDBRANCH  18  19
ENDBRANCH  17  18
BRANCH  17  26
HETATM   26  O   UNL     1      -0.649  -0.387   3.024  1.00  0.00    -0.392 OA
HETATM   27  H   UNL     1      -0.950   0.223   3.748  1.00  0.00     0.210 HD
ENDBRANCH  17  26
ENDBRANCH  16  17
ENDBRANCH  15  16
TORSDOF 5
