REMARK  8 active torsions:
REMARK  status: ('A' for Active; 'I' for Inactive)
REMARK    1  A    between atoms: C_4  and  N_38 
REMARK    2  A    between atoms: C_6  and  C_18 
REMARK    3  A    between atoms: C_9  and  N_33 
REMARK    4  A    between atoms: C_9  and  C_10 
REMARK    5  A    between atoms: C_12  and  C_13 
REMARK    6  A    between atoms: C_16  and  N_38 
REMARK    7  A    between atoms: C_27  and  S_47 
REMARK    8  A    between atoms: N_31  and  S_47 
ROOT
HETATM    1  C   UNL     1      12.563 -16.356   8.583  1.00  0.00     0.160 C 
HETATM    2  C   UNL     1      11.552 -16.869   9.567  1.00  0.00     0.061 C 
HETATM    3  N   UNL     1      10.779 -17.375  10.226  1.00  0.00    -0.197 NA
ENDROOT
BRANCH   1   4
HETATM    4  C   UNL     1      12.599 -17.091   7.212  1.00  0.00     0.098 A 
HETATM    5  C   UNL     1      13.164 -18.408   7.345  1.00  0.00     0.171 A 
HETATM    6  N   UNL     1      14.327 -17.842   6.581  1.00  0.00    -0.306 N 
HETATM    7  C   UNL     1      13.697 -16.507   6.540  1.00  0.00     0.171 A 
BRANCH   6   8
HETATM    8  S   UNL     1      15.252 -18.542   5.353  1.00  0.00     0.228 S 
HETATM    9  O   UNL     1      14.911 -17.877   4.127  1.00  0.00    -0.206 OA
HETATM   10  O   UNL     1      14.954 -19.952   5.278  1.00  0.00    -0.206 OA
BRANCH   8  11
HETATM   11  C   UNL     1      17.038 -18.283   5.663  1.00  0.00     0.159 C 
HETATM   12  C   UNL     1      17.250 -16.823   5.974  1.00  0.00     0.023 C 
ENDBRANCH   8  11
ENDBRANCH   6   8
BRANCH   4  13
HETATM   13  N   UNL     1      11.309 -16.979   6.690  1.00  0.00    -0.289 N 
HETATM   14  C   UNL     1      10.277 -17.776   6.889  1.00  0.00     0.126 A 
HETATM   15  C   UNL     1       9.218 -17.233   6.171  1.00  0.00     0.026 A 
HETATM   16  C   UNL     1       9.625 -16.054   5.580  1.00  0.00     0.122 A 
HETATM   17  N   UNL     1      10.948 -15.937   5.902  1.00  0.00    -0.308 N 
ATOM     18  HN  UNL     1      11.566 -15.185   5.598  1.00  0.00     0.186 HD
BRANCH  15  19
HETATM   19  C   UNL     1       7.753 -17.649   6.154  1.00  0.00     0.076 A 
HETATM   20  N   UNL     1       6.896 -16.730   5.719  1.00  0.00    -0.190 N 
HETATM   21  C   UNL     1       5.614 -16.983   5.727  1.00  0.00     0.684 A 
ATOM     22  HN  UNL     1       7.238 -15.831   5.380  1.00  0.00     0.184 HD
HETATM   23  N   UNL     1       5.078 -18.087   6.195  1.00  0.00    -0.175 N 
HETATM   24  C   UNL     1       5.894 -19.037   6.662  1.00  0.00     0.133 A 
ATOM     25  HN  UNL     1       4.066 -18.216   6.202  1.00  0.00     0.186 HD
HETATM   26  N   UNL     1       5.598 -20.243   7.181  1.00  0.00    -0.351 N 
HETATM   27  C   UNL     1       7.267 -18.865   6.669  1.00  0.00     0.038 A 
HETATM   28  C   UNL     1       6.755 -20.865   7.498  1.00  0.00     0.090 A 
ATOM     29  HN  UNL     1       4.660 -20.623   7.313  1.00  0.00     0.166 HD
HETATM   30  C   UNL     1       7.817 -20.064   7.209  1.00  0.00     0.034 A 
BRANCH  21  31
HETATM   31  N   UNL     1       4.687 -16.013   5.259  1.00  0.00    -0.191 N 
ATOM     32  HN  UNL     1       3.697 -16.237   5.356  1.00  0.00     0.184 HD
BRANCH  31  33
HETATM   33  C   UNL     1       5.009 -14.753   4.666  1.00  0.00     0.055 A 
HETATM   34  C   UNL     1       3.892 -14.037   4.307  1.00  0.00     0.073 A 
HETATM   35  C   UNL     1       4.040 -12.802   3.723  1.00  0.00     0.132 A 
HETATM   36  C   UNL     1       5.275 -12.269   3.472  1.00  0.00     0.047 A 
HETATM   37  F   UNL     1       2.922 -12.117   3.397  1.00  0.00    -0.205 F 
HETATM   38  C   UNL     1       6.387 -12.986   3.832  1.00  0.00     0.132 A 
HETATM   39  C   UNL     1       6.282 -14.243   4.427  1.00  0.00     0.073 A 
HETATM   40  F   UNL     1       7.662 -12.542   3.617  1.00  0.00    -0.205 F 
BRANCH  36  41
HETATM   41  C   UNL     1       5.388 -10.873   2.838  1.00  0.00    -0.042 C 
HETATM   42  C   UNL     1       6.061 -10.750   1.671  1.00  0.00     0.011 C 
HETATM   43  C   UNL     1       6.135  -9.197   1.056  1.00  0.00     0.300 C 
HETATM   44  N   UNL     1       6.185  -8.337   1.967  1.00  0.00     0.087 N 
HETATM   45  C   UNL     1       6.263  -7.189   1.455  1.00  0.00     0.310 C 
HETATM   46  C   UNL     1       5.019  -8.408   3.004  1.00  0.00     0.277 C 
HETATM   47  C   UNL     1       4.951  -9.699   3.659  1.00  0.00     0.069 C 
ENDBRANCH  36  41
ENDBRANCH  31  33
ENDBRANCH  21  31
ENDBRANCH  15  19
ENDBRANCH   4  13
ENDBRANCH   1   4
TORSDOF 8
