REMARK  6 active torsions:
REMARK  status: ('A' for Active; 'I' for Inactive)
REMARK    1  A    between atoms: O5*_1  and  C5*_2 
REMARK    2  A    between atoms: C5*_2  and  C4*_3 
REMARK    3  A    between atoms: C3*_5  and  O3*_6 
REMARK    4  A    between atoms: C2*_7  and  O2*_8 
REMARK    5  A    between atoms: C1*_9  and  N9_10 
REMARK    6  A    between atoms: C2_18  and  N2_19 
ROOT
ATOM      1  N9    G A   1       0.296   0.232  -0.530  1.00  0.00    -0.297 N 
ATOM      2  C8    G A   1       1.580   0.430  -0.127  1.00  0.00     0.188 A 
ATOM      3  N7    G A   1       2.459   0.544  -1.161  1.00  0.00    -0.345 N 
ATOM      4  H7    G A   1       3.466   0.702  -1.127  1.00  0.00     0.167 HD
ATOM      5  C5    G A   1       1.667   0.396  -2.240  1.00  0.00     0.147 A 
ATOM      6  C6    G A   1       2.003   0.389  -3.585  1.00  0.00     0.290 A 
ATOM      7  O6    G A   1       3.192   0.563  -3.962  1.00  0.00    -0.265 OA
ATOM      8  N1    G A   1       1.001   0.182  -4.495  1.00  0.00    -0.154 N 
ATOM      9  C2    G A   1      -0.298  -0.019  -4.088  1.00  0.00     0.680 A 
ATOM     10  N3    G A   1      -0.613  -0.013  -2.756  1.00  0.00    -0.174 N 
ATOM     11  H3    G A   1      -1.572  -0.166  -2.443  1.00  0.00     0.186 HD
ATOM     12  C4    G A   1       0.384   0.202  -1.865  1.00  0.00     0.159 A 
ATOM     13  H1    G A   1       1.230   0.174  -5.515  1.00  0.00     0.187 HD
ENDROOT
BRANCH   1  14
ATOM     14  C1*   G A   1      -0.880  -0.033   0.301  1.00  0.00     0.262 C 
ATOM     15  O4*   G A   1      -0.820   0.756   1.473  1.00  0.00    -0.353 OA
ATOM     16  C4*   G A   1      -0.899  -0.107   2.585  1.00  0.00     0.179 C 
ATOM     17  C3*   G A   1      -0.512  -1.511   2.135  1.00  0.00     0.182 C 
ATOM     18  C2*   G A   1      -0.939  -1.517   0.685  1.00  0.00     0.198 C 
BRANCH  16  19
ATOM     19  C5*   G A   1       0.006   0.416   3.708  1.00  0.00     0.198 C 
BRANCH  19  20
ATOM     20  O5*   G A   1      -0.077  -0.407   4.841  1.00  0.00    -0.398 OA
ATOM     21  H5*   G A   1      -0.951  -0.213   5.269  1.00  0.00     0.209 HD
ENDBRANCH  19  20
ENDBRANCH  16  19
BRANCH  17  22
ATOM     22  O3*   G A   1      -1.177  -2.487   2.894  1.00  0.00    -0.390 OA
ATOM     23  H3*   G A   1      -0.770  -3.358   2.647  1.00  0.00     0.210 HD
ENDBRANCH  17  22
BRANCH  18  24
ATOM     24  O2*   G A   1      -2.237  -2.040   0.512  1.00  0.00    -0.388 OA
ATOM     25  H2*   G A   1      -2.869  -1.486   1.041  1.00  0.00     0.210 HD
ENDBRANCH  18  24
ENDBRANCH   1  14
BRANCH   9  26
ATOM     26  N2    G A   1      -1.326  -0.239  -5.053  1.00  0.00    -0.234 N 
ATOM     27  H21   G A   1      -2.312  -0.394  -4.747  1.00  0.00     0.174 HD
ATOM     28  H22   G A   1      -1.106  -0.248  -6.074  1.00  0.00     0.174 HD
ENDBRANCH   9  26
TORSDOF 6
