REMARK  5 active torsions:
REMARK  status: ('A' for Active; 'I' for Inactive)
REMARK    1  A    between atoms: C_4  and  N_5 
REMARK    2  A    between atoms: N_13  and  C1*_14 
REMARK    3  A    between atoms: C3*_17  and  O3*_18 
REMARK    4  A    between atoms: C4*_19  and  C5*_20 
REMARK    5  A    between atoms: C5*_20  and  O5*_21 
ROOT
HETATM    1  O   UNL     1      -1.706   2.994   3.365  1.00  0.00    -0.265 OA
HETATM    2  C   UNL     1      -1.275   1.857   3.034  1.00  0.00     0.290 A 
HETATM    3  N   UNL     1      -1.196   0.842   3.947  1.00  0.00    -0.154 N 
HETATM    4  C   UNL     1      -0.735  -0.405   3.588  1.00  0.00     0.680 A 
HETATM    5  N   UNL     1      -0.342  -0.653   2.300  1.00  0.00    -0.174 N 
ATOM      6  HN  UNL     1      -0.004  -1.575   2.024  1.00  0.00     0.186 HD
HETATM    7  C   UNL     1      -0.414   0.359   1.403  1.00  0.00     0.162 A 
HETATM    8  C   UNL     1      -0.869   1.593   1.734  1.00  0.00     0.151 A 
HETATM    9  N   UNL     1      -0.870   2.385   0.649  1.00  0.00    -0.300 N 
HETATM   10  C   UNL     1      -0.404   1.574  -0.334  1.00  0.00     0.331 A 
HETATM   11  O   UNL     1      -0.286   1.947  -1.532  1.00  0.00    -0.246 OA
HETATM   12  N   UNL     1      -0.098   0.320   0.097  1.00  0.00    -0.255 N 
HETATM   13  H   UNL     1      -1.495   1.017   4.934  1.00  0.00     0.187 HD
HETATM   14  H   UNL     1      -1.180   3.380   0.573  1.00  0.00     0.171 HD
ENDROOT
BRANCH  12  15
HETATM   15  C1* UNL     1       0.339  -0.841  -0.683  1.00  0.00     0.237 C 
HETATM   16  O4* UNL     1       1.283  -0.456  -1.653  1.00  0.00    -0.356 OA
HETATM   17  C4* UNL     1       1.194  -1.407  -2.689  1.00  0.00     0.176 C 
HETATM   18  C3* UNL     1      -0.206  -2.047  -2.655  1.00  0.00     0.153 C 
HETATM   19  C2* UNL     1      -0.834  -1.488  -1.397  1.00  0.00     0.088 C 
BRANCH  17  20
HETATM   20  C5* UNL     1       1.503  -0.743  -4.038  1.00  0.00     0.198 C 
BRANCH  20  21
HETATM   21  O5* UNL     1       0.614   0.311  -4.298  1.00  0.00    -0.398 OA
HETATM   22  H5* UNL     1       0.975   1.110  -3.834  1.00  0.00     0.209 HD
ENDBRANCH  20  21
ENDBRANCH  17  20
BRANCH  18  23
HETATM   23  O3* UNL     1      -0.133  -3.452  -2.623  1.00  0.00    -0.393 OA
HETATM   24  H3* UNL     1       0.358  -3.717  -1.800  1.00  0.00     0.210 HD
ENDBRANCH  18  23
ENDBRANCH  12  15
BRANCH   4  25
HETATM   25  N   UNL     1      -0.667  -1.450   4.558  1.00  0.00    -0.234 N 
HETATM   26  H   UNL     1      -0.319  -2.397   4.288  1.00  0.00     0.174 HD
HETATM   27  H   UNL     1      -0.962  -1.283   5.545  1.00  0.00     0.174 HD
ENDBRANCH   4  25
TORSDOF 5
