REMARK  5 active torsions:
REMARK  status: ('A' for Active; 'I' for Inactive)
REMARK    1  A    between atoms: C_5  and  N_24 
REMARK    2  A    between atoms: C_10  and  O_30 
REMARK    3  A    between atoms: C_11  and  O_28 
REMARK    4  A    between atoms: C_14  and  N_21 
REMARK    5  A    between atoms: C_15  and  O_32 
ROOT
HETATM    1  O   UNL     1     -15.734  30.934 -14.201  1.00  0.00    -0.353 OA
HETATM    2  C   UNL     1     -11.071  33.133 -11.475  1.00  0.00     0.216 C 
HETATM    3  C   UNL     1     -11.565  32.266 -10.343  1.00  0.00     0.180 C 
HETATM    4  C   UNL     1     -10.903  30.885 -10.382  1.00  0.00     0.182 C 
HETATM    5  C   UNL     1     -12.081  29.916 -10.281  1.00  0.00     0.204 C 
HETATM    6  C   UNL     1     -13.206  30.730 -10.910  1.00  0.00     0.292 C 
HETATM    7  C   UNL     1     -14.577  30.555 -14.919  1.00  0.00     0.262 C 
HETATM    8  C   UNL     1     -13.533  31.613 -14.546  1.00  0.00     0.199 C 
HETATM    9  C   UNL     1     -13.791  31.692 -13.039  1.00  0.00     0.189 C 
HETATM   10  C   UNL     1     -15.306  31.504 -12.940  1.00  0.00     0.180 C 
HETATM   11  C   UNL     1     -16.088  32.769 -12.691  1.00  0.00     0.216 C 
HETATM   12  O   UNL     1     -15.581  33.825 -13.554  1.00  0.00    -0.287 OA
HETATM   13  O   UNL     1     -14.960  35.322 -11.563  1.00  0.00    -0.624 OA
HETATM   14  O   UNL     1     -15.226  36.272 -13.929  1.00  0.00    -0.624 OA
HETATM   15  O   UNL     1     -13.288  34.789 -13.356  1.00  0.00    -0.180 OA
HETATM   16  O   UNL     1     -12.035  36.732 -12.335  1.00  0.00    -0.624 OA
HETATM   17  O   UNL     1     -10.889  34.931 -13.760  1.00  0.00    -0.624 OA
HETATM   18  O   UNL     1     -11.702  34.430 -11.473  1.00  0.00    -0.287 OA
HETATM   19  O   UNL     1     -12.986  32.049 -10.440  1.00  0.00    -0.348 OA
HETATM   20  O   UNL     1     -13.101  30.651 -12.324  1.00  0.00    -0.348 OA
HETATM   21  P   UNL     1     -14.805  35.127 -13.012  1.00  0.00     0.417 P 
HETATM   22  P   UNL     1     -11.907  35.314 -12.759  1.00  0.00     0.417 P 
ENDROOT
BRANCH   7  23
HETATM   23  N   UNL     1     -14.936  30.483 -16.316  1.00  0.00    -0.297 N 
HETATM   24  C   UNL     1     -15.431  29.378 -16.979  1.00  0.00     0.142 A 
HETATM   25  C   UNL     1     -15.776  29.819 -18.240  1.00  0.00     0.122 A 
HETATM   26  N   UNL     1     -15.584  28.148 -16.483  1.00  0.00    -0.336 N 
HETATM   27  C   UNL     1     -16.343  28.868 -19.111  1.00  0.00     0.131 A 
HETATM   28  N   UNL     1     -15.502  31.170 -18.387  1.00  0.00    -0.346 N 
HETATM   29  N   UNL     1     -16.495  27.610 -18.648  1.00  0.00    -0.337 N 
HETATM   30  C   UNL     1     -16.129  27.337 -17.389  1.00  0.00     0.183 A 
ATOM     31  HN  UNL     1     -16.882  26.880 -19.246  1.00  0.00     0.168 HD
HETATM   32  C   UNL     1     -15.001  31.509 -17.222  1.00  0.00     0.188 A 
ATOM     33  HN  UNL     1     -15.654  31.760 -19.205  1.00  0.00     0.167 HD
ATOM     34  HN  UNL     1     -15.320  27.867 -15.539  1.00  0.00     0.168 HD
BRANCH  27  35
HETATM   35  N   UNL     1     -16.764  29.156 -20.359  1.00  0.00    -0.383 N 
ATOM     36  HN2 UNL     1     -17.175  28.467 -20.990  1.00  0.00     0.157 HD
ATOM     37  HN1 UNL     1     -16.649  30.107 -20.709  1.00  0.00     0.157 HD
ENDBRANCH  27  35
ENDBRANCH   7  23
BRANCH   8  38
HETATM   38  O   UNL     1     -12.229  31.192 -14.890  1.00  0.00    -0.388 OA
ATOM     39  HO  UNL     1     -11.582  31.848 -14.659  1.00  0.00     0.210 HD
ENDBRANCH   8  38
BRANCH   5  40
HETATM   40  O   UNL     1     -12.429  29.540  -8.951  1.00  0.00    -0.388 OA
ATOM     41  HO  UNL     1     -11.728  29.033  -8.559  1.00  0.00     0.210 HD
ENDBRANCH   5  40
BRANCH   4  42
HETATM   42  O   UNL     1      -9.971  30.711  -9.320  1.00  0.00    -0.390 OA
ATOM     43  HO  UNL     1      -9.239  31.313  -9.383  1.00  0.00     0.210 HD
ENDBRANCH   4  42
TORSDOF 5
