REMARK  3 active torsions:
REMARK  status: ('A' for Active; 'I' for Inactive)
REMARK    1  A    between atoms: C_4  and  C_7 
REMARK    2  A    between atoms: C_7  and  C_8 
REMARK    3  A    between atoms: C_11  and  C_14 
ROOT
HETATM    1  C   UNL     1       3.601   0.963  19.175  1.00  0.00     0.015 A 
HETATM    2  C   UNL     1       4.673   1.167  20.050  1.00  0.00     0.016 A 
HETATM    3  C   UNL     1       5.861   1.708  19.627  1.00  0.00     0.019 A 
HETATM    4  C   UNL     1       6.022   2.107  18.308  1.00  0.00     0.040 A 
HETATM    5  C   UNL     1       4.961   1.923  17.439  1.00  0.00     0.019 A 
HETATM    6  C   UNL     1       3.779   1.374  17.866  1.00  0.00     0.016 A 
ENDROOT
BRANCH   1   7
HETATM    7  C   UNL     1       2.313   0.448  19.645  1.00  0.00     0.192 C 
HETATM    8  O   UNL     1       1.777  -0.508  19.123  1.00  0.00    -0.287 OA
BRANCH   7   9
HETATM    9  C   UNL     1       1.528   1.135  20.743  1.00  0.00     0.015 A 
HETATM   10  C   UNL     1       0.323   0.657  21.242  1.00  0.00     0.015 A 
HETATM   11  C   UNL     1      -0.363   1.326  22.252  1.00  0.00     0.001 A 
HETATM   12  C   UNL     1       0.139   2.500  22.798  1.00  0.00     0.000 A 
HETATM   13  C   UNL     1       1.319   3.001  22.308  1.00  0.00     0.001 A 
HETATM   14  C   UNL     1       1.996   2.333  21.304  1.00  0.00     0.015 A 
ENDBRANCH   7   9
ENDBRANCH   1   7
BRANCH   4  15
HETATM   15  C   UNL     1       7.294   2.763  17.824  1.00  0.00     0.209 C 
HETATM   16  O   UNL     1       7.178   3.373  16.752  1.00  0.00    -0.644 OA
HETATM   17  O   UNL     1       8.296   2.729  18.568  1.00  0.00    -0.644 OA
ENDBRANCH   4  15
TORSDOF 3
