MODEL 1
REMARK VINA RESULT:    -9.731      0.000      0.000
REMARK INTER + INTRA:         -10.588
REMARK INTER:                 -10.584
REMARK INTRA:                  -0.004
REMARK UNBOUND:                -0.004
REMARK  2 active torsions:
REMARK  status: ('A' for Active; 'I' for Inactive)
REMARK    1  A    between atoms: C_6  and  N_9 
REMARK    2  A    between atoms: N_14  and  C_17 
ROOT
HETATM    1  C   UNL     1     -55.597 -11.595  27.019  1.00  0.00     0.030 A 
HETATM    2  C   UNL     1     -55.551 -11.032  25.740  1.00  0.00     0.003 A 
HETATM    3  C   UNL     1     -55.749 -11.831  24.594  1.00  0.00     0.018 A 
HETATM    4  C   UNL     1     -55.989 -13.183  24.796  1.00  0.00     0.050 A 
HETATM    5  C   UNL     1     -56.233 -14.244  23.932  1.00  0.00     0.262 A 
HETATM    6  N   UNL     1     -56.419 -15.406  24.547  1.00  0.00    -0.266 N 
HETATM    7  C   UNL     1     -55.837 -12.958  27.193  1.00  0.00     0.042 A 
HETATM    8  O   UNL     1     -56.260 -14.124  22.653  1.00  0.00    -0.267 OA
HETATM    9  C   UNL     1     -56.317 -15.078  25.835  1.00  0.00     0.264 A 
HETATM   10  C   UNL     1     -56.040 -13.737  26.072  1.00  0.00     0.074 A 
HETATM   11  O   UNL     1     -56.467 -15.948  26.749  1.00  0.00    -0.267 OA
ENDROOT
BRANCH   6  12
HETATM   12  C   UNL     1     -56.707 -16.738  23.990  1.00  0.00     0.189 C 
HETATM   13  C   UNL     1     -57.914 -16.608  23.101  1.00  0.00     0.247 C 
HETATM   14  N   UNL     1     -57.918 -17.211  21.913  1.00  0.00    -0.296 N 
HETATM   15  O   UNL     1     -58.877 -15.945  23.470  1.00  0.00    -0.271 OA
HETATM   16  C   UNL     1     -57.023 -18.123  21.529  1.00  0.00     0.224 C 
ATOM     17  HN  UNL     1     -58.654 -16.958  21.253  1.00  0.00     0.171 HD
HETATM   18  O   UNL     1     -57.095 -18.656  20.429  1.00  0.00    -0.273 OA
HETATM   19  C   UNL     1     -55.903 -18.484  22.484  1.00  0.00     0.106 C 
HETATM   20  C   UNL     1     -55.491 -17.222  23.222  1.00  0.00     0.045 C 
ENDBRANCH   6  12
BRANCH   7  21
HETATM   21  N   UNL     1     -55.911 -13.533  28.440  1.00  0.00    -0.398 N 
ATOM     22  HN2 UNL     1     -55.292 -13.255  29.202  1.00  0.00     0.156 HD
ATOM     23  HN1 UNL     1     -56.623 -14.240  28.626  1.00  0.00     0.156 HD
ENDBRANCH   7  21
TORSDOF 2
ENDMDL
MODEL 2
REMARK VINA RESULT:    -9.680      0.973      2.268
REMARK INTER + INTRA:         -10.533
REMARK INTER:                 -10.714
REMARK INTRA:                   0.181
REMARK UNBOUND:                -0.004
REMARK  2 active torsions:
REMARK  status: ('A' for Active; 'I' for Inactive)
REMARK    1  A    between atoms: C_6  and  N_9 
REMARK    2  A    between atoms: N_14  and  C_17 
ROOT
HETATM    1  C   UNL     1     -55.568 -11.154  25.813  1.00  0.00     0.030 A 
HETATM    2  C   UNL     1     -55.635 -11.700  27.098  1.00  0.00     0.003 A 
HETATM    3  C   UNL     1     -55.915 -13.069  27.285  1.00  0.00     0.018 A 
HETATM    4  C   UNL     1     -56.116 -13.838  26.146  1.00  0.00     0.050 A 
HETATM    5  C   UNL     1     -56.395 -15.185  25.946  1.00  0.00     0.262 A 
HETATM    6  N   UNL     1     -56.512 -15.525  24.668  1.00  0.00    -0.266 N 
HETATM    7  C   UNL     1     -55.778 -11.948  24.686  1.00  0.00     0.042 A 
HETATM    8  O   UNL     1     -56.544 -16.028  26.904  1.00  0.00    -0.267 OA
HETATM    9  C   UNL     1     -56.279 -14.376  24.034  1.00  0.00     0.264 A 
HETATM   10  C   UNL     1     -56.042 -13.291  24.869  1.00  0.00     0.074 A 
HETATM   11  O   UNL     1     -56.280 -14.313  22.764  1.00  0.00    -0.267 OA
ENDROOT
BRANCH   6  12
HETATM   12  C   UNL     1     -56.790 -16.836  24.057  1.00  0.00     0.189 C 
HETATM   13  C   UNL     1     -57.957 -16.662  23.123  1.00  0.00     0.247 C 
HETATM   14  N   UNL     1     -57.918 -17.227  21.917  1.00  0.00    -0.296 N 
HETATM   15  O   UNL     1     -58.928 -15.999  23.471  1.00  0.00    -0.271 OA
HETATM   16  C   UNL     1     -57.018 -18.139  21.542  1.00  0.00     0.224 C 
ATOM     17  HN  UNL     1     -58.622 -16.944  21.235  1.00  0.00     0.171 HD
HETATM   18  O   UNL     1     -57.049 -18.636  20.424  1.00  0.00    -0.273 OA
HETATM   19  C   UNL     1     -55.944 -18.544  22.532  1.00  0.00     0.106 C 
HETATM   20  C   UNL     1     -55.549 -17.310  23.326  1.00  0.00     0.045 C 
ENDBRANCH   6  12
BRANCH   7  21
HETATM   21  N   UNL     1     -55.694 -11.442  23.410  1.00  0.00    -0.398 N 
ATOM     22  HN2 UNL     1     -54.900 -10.881  23.101  1.00  0.00     0.156 HD
ATOM     23  HN1 UNL     1     -56.431 -11.652  22.736  1.00  0.00     0.156 HD
ENDBRANCH   7  21
TORSDOF 2
ENDMDL
MODEL 3
REMARK VINA RESULT:    -8.472      2.106      3.207
REMARK INTER + INTRA:          -9.218
REMARK INTER:                  -9.126
REMARK INTRA:                  -0.093
REMARK UNBOUND:                -0.004
REMARK  2 active torsions:
REMARK  status: ('A' for Active; 'I' for Inactive)
REMARK    1  A    between atoms: C_6  and  N_9 
REMARK    2  A    between atoms: N_14  and  C_17 
ROOT
HETATM    1  C   UNL     1     -55.936 -12.164  25.811  1.00  0.00     0.030 A 
HETATM    2  C   UNL     1     -55.809 -12.906  26.989  1.00  0.00     0.003 A 
HETATM    3  C   UNL     1     -55.912 -14.313  26.969  1.00  0.00     0.018 A 
HETATM    4  C   UNL     1     -56.141 -14.915  25.739  1.00  0.00     0.050 A 
HETATM    5  C   UNL     1     -56.284 -16.240  25.341  1.00  0.00     0.262 A 
HETATM    6  N   UNL     1     -56.491 -16.389  24.039  1.00  0.00    -0.266 N 
HETATM    7  C   UNL     1     -56.169 -12.795  24.590  1.00  0.00     0.042 A 
HETATM    8  O   UNL     1     -56.238 -17.232  26.155  1.00  0.00    -0.267 OA
HETATM    9  C   UNL     1     -56.456 -15.135  23.587  1.00  0.00     0.264 A 
HETATM   10  C   UNL     1     -56.259 -14.172  24.568  1.00  0.00     0.074 A 
HETATM   11  O   UNL     1     -56.594 -14.878  22.350  1.00  0.00    -0.267 OA
ENDROOT
BRANCH   6  12
HETATM   12  C   UNL     1     -56.681 -17.615  23.244  1.00  0.00     0.189 C 
HETATM   13  C   UNL     1     -55.373 -18.359  23.238  1.00  0.00     0.247 C 
HETATM   14  N   UNL     1     -55.372 -19.678  23.426  1.00  0.00    -0.296 N 
HETATM   15  O   UNL     1     -54.322 -17.750  23.070  1.00  0.00    -0.271 OA
HETATM   16  C   UNL     1     -56.464 -20.444  23.392  1.00  0.00     0.224 C 
ATOM     17  HN  UNL     1     -54.477 -20.132  23.608  1.00  0.00     0.171 HD
HETATM   18  O   UNL     1     -56.392 -21.656  23.552  1.00  0.00    -0.273 OA
HETATM   19  C   UNL     1     -57.806 -19.780  23.158  1.00  0.00     0.106 C 
HETATM   20  C   UNL     1     -57.794 -18.436  23.866  1.00  0.00     0.045 C 
ENDBRANCH   6  12
BRANCH   7  21
HETATM   21  N   UNL     1     -56.272 -12.090  23.413  1.00  0.00    -0.398 N 
ATOM     22  HN2 UNL     1     -56.725 -11.177  23.366  1.00  0.00     0.156 HD
ATOM     23  HN1 UNL     1     -55.862 -12.473  22.560  1.00  0.00     0.156 HD
ENDBRANCH   7  21
TORSDOF 2
ENDMDL
MODEL 4
REMARK VINA RESULT:    -8.176      1.763      2.129
REMARK INTER + INTRA:          -8.897
REMARK INTER:                  -9.253
REMARK INTRA:                   0.356
REMARK UNBOUND:                -0.004
REMARK  2 active torsions:
REMARK  status: ('A' for Active; 'I' for Inactive)
REMARK    1  A    between atoms: C_6  and  N_9 
REMARK    2  A    between atoms: N_14  and  C_17 
ROOT
HETATM    1  C   UNL     1     -55.514 -11.582  27.163  1.00  0.00     0.030 A 
HETATM    2  C   UNL     1     -55.387 -10.962  25.917  1.00  0.00     0.003 A 
HETATM    3  C   UNL     1     -55.523 -11.705  24.726  1.00  0.00     0.018 A 
HETATM    4  C   UNL     1     -55.788 -13.062  24.850  1.00  0.00     0.050 A 
HETATM    5  C   UNL     1     -55.990 -14.080  23.924  1.00  0.00     0.262 A 
HETATM    6  N   UNL     1     -56.225 -15.265  24.473  1.00  0.00    -0.266 N 
HETATM    7  C   UNL     1     -55.777 -12.948  27.259  1.00  0.00     0.042 A 
HETATM    8  O   UNL     1     -55.941 -13.901  22.653  1.00  0.00    -0.267 OA
HETATM    9  C   UNL     1     -56.196 -14.998  25.779  1.00  0.00     0.264 A 
HETATM   10  C   UNL     1     -55.921 -13.673  26.093  1.00  0.00     0.074 A 
HETATM   11  O   UNL     1     -56.409 -15.908  26.641  1.00  0.00    -0.267 OA
ENDROOT
BRANCH   6  12
HETATM   12  C   UNL     1     -56.491 -16.568  23.839  1.00  0.00     0.189 C 
HETATM   13  C   UNL     1     -55.639 -17.595  24.535  1.00  0.00     0.247 C 
HETATM   14  N   UNL     1     -56.171 -18.771  24.863  1.00  0.00    -0.296 N 
HETATM   15  O   UNL     1     -54.470 -17.340  24.804  1.00  0.00    -0.271 OA
HETATM   16  C   UNL     1     -57.349 -19.214  24.418  1.00  0.00     0.224 C 
ATOM     17  HN  UNL     1     -55.644 -19.372  25.496  1.00  0.00     0.171 HD
HETATM   18  O   UNL     1     -57.773 -20.316  24.741  1.00  0.00    -0.273 OA
HETATM   19  C   UNL     1     -58.161 -18.317  23.505  1.00  0.00     0.106 C 
HETATM   20  C   UNL     1     -57.970 -16.883  23.966  1.00  0.00     0.045 C 
ENDBRANCH   6  12
BRANCH   7  21
HETATM   21  N   UNL     1     -55.931 -13.578  28.472  1.00  0.00    -0.398 N 
ATOM     22  HN2 UNL     1     -56.678 -14.252  28.641  1.00  0.00     0.156 HD
ATOM     23  HN1 UNL     1     -55.266 -13.393  29.223  1.00  0.00     0.156 HD
ENDBRANCH   7  21
TORSDOF 2
ENDMDL
MODEL 5
REMARK VINA RESULT:    -8.080      2.170      3.395
REMARK INTER + INTRA:          -8.792
REMARK INTER:                  -8.695
REMARK INTRA:                  -0.097
REMARK UNBOUND:                -0.004
REMARK  2 active torsions:
REMARK  status: ('A' for Active; 'I' for Inactive)
REMARK    1  A    between atoms: C_6  and  N_9 
REMARK    2  A    between atoms: N_14  and  C_17 
ROOT
HETATM    1  C   UNL     1     -56.348 -12.783  26.054  1.00  0.00     0.030 A 
HETATM    2  C   UNL     1     -56.294 -13.616  27.174  1.00  0.00     0.003 A 
HETATM    3  C   UNL     1     -56.327 -15.019  27.030  1.00  0.00     0.018 A 
HETATM    4  C   UNL     1     -56.413 -15.523  25.740  1.00  0.00     0.050 A 
HETATM    5  C   UNL     1     -56.456 -16.814  25.225  1.00  0.00     0.262 A 
HETATM    6  N   UNL     1     -56.536 -16.861  23.901  1.00  0.00    -0.266 N 
HETATM    7  C   UNL     1     -56.438 -13.316  24.768  1.00  0.00     0.042 A 
HETATM    8  O   UNL     1     -56.437 -17.870  25.957  1.00  0.00    -0.267 OA
HETATM    9  C   UNL     1     -56.520 -15.573  23.557  1.00  0.00     0.264 A 
HETATM   10  C   UNL     1     -56.459 -14.689  24.627  1.00  0.00     0.074 A 
HETATM   11  O   UNL     1     -56.557 -15.217  22.337  1.00  0.00    -0.267 OA
ENDROOT
BRANCH   6  12
HETATM   12  C   UNL     1     -56.593 -18.021  22.995  1.00  0.00     0.189 C 
HETATM   13  C   UNL     1     -55.257 -18.711  23.056  1.00  0.00     0.247 C 
HETATM   14  N   UNL     1     -55.213 -20.040  23.137  1.00  0.00    -0.296 N 
HETATM   15  O   UNL     1     -54.225 -18.050  23.041  1.00  0.00    -0.271 OA
HETATM   16  C   UNL     1     -56.260 -20.842  22.935  1.00  0.00     0.224 C 
ATOM     17  HN  UNL     1     -54.318 -20.474  23.368  1.00  0.00     0.171 HD
HETATM   18  O   UNL     1     -56.147 -22.060  23.003  1.00  0.00    -0.273 OA
HETATM   19  C   UNL     1     -57.603 -20.213  22.625  1.00  0.00     0.106 C 
HETATM   20  C   UNL     1     -57.721 -18.935  23.438  1.00  0.00     0.045 C 
ENDBRANCH   6  12
BRANCH   7  21
HETATM   21  N   UNL     1     -56.468 -12.519  23.648  1.00  0.00    -0.398 N 
ATOM     22  HN2 UNL     1     -55.988 -12.778  22.786  1.00  0.00     0.156 HD
ATOM     23  HN1 UNL     1     -57.008 -11.653  23.661  1.00  0.00     0.156 HD
ENDBRANCH   7  21
TORSDOF 2
ENDMDL
MODEL 6
REMARK VINA RESULT:    -7.741      1.338      1.468
REMARK INTER + INTRA:          -8.423
REMARK INTER:                  -8.435
REMARK INTRA:                   0.011
REMARK UNBOUND:                -0.004
REMARK  2 active torsions:
REMARK  status: ('A' for Active; 'I' for Inactive)
REMARK    1  A    between atoms: C_6  and  N_9 
REMARK    2  A    between atoms: N_14  and  C_17 
ROOT
HETATM    1  C   UNL     1     -55.771 -12.065  25.830  1.00  0.00     0.030 A 
HETATM    2  C   UNL     1     -55.598 -11.920  24.450  1.00  0.00     0.003 A 
HETATM    3  C   UNL     1     -55.699 -13.035  23.591  1.00  0.00     0.018 A 
HETATM    4  C   UNL     1     -55.978 -14.263  24.175  1.00  0.00     0.050 A 
HETATM    5  C   UNL     1     -56.157 -15.542  23.659  1.00  0.00     0.262 A 
HETATM    6  N   UNL     1     -56.418 -16.461  24.581  1.00  0.00    -0.266 N 
HETATM    7  C   UNL     1     -56.047 -13.311  26.390  1.00  0.00     0.042 A 
HETATM    8  O   UNL     1     -56.063 -15.821  22.408  1.00  0.00    -0.267 OA
HETATM    9  C   UNL     1     -56.431 -15.752  25.710  1.00  0.00     0.264 A 
HETATM   10  C   UNL     1     -56.157 -14.399  25.548  1.00  0.00     0.074 A 
HETATM   11  O   UNL     1     -56.680 -16.302  26.828  1.00  0.00    -0.267 OA
ENDROOT
BRANCH   6  12
HETATM   12  C   UNL     1     -56.673 -17.904  24.435  1.00  0.00     0.189 C 
HETATM   13  C   UNL     1     -57.781 -18.070  23.430  1.00  0.00     0.247 C 
HETATM   14  N   UNL     1     -57.676 -19.010  22.492  1.00  0.00    -0.296 N 
HETATM   15  O   UNL     1     -58.764 -17.338  23.475  1.00  0.00    -0.271 OA
HETATM   16  C   UNL     1     -56.764 -19.985  22.502  1.00  0.00     0.224 C 
ATOM     17  HN  UNL     1     -58.335 -18.982  21.714  1.00  0.00     0.171 HD
HETATM   18  O   UNL     1     -56.734 -20.831  21.618  1.00  0.00    -0.273 OA
HETATM   19  C   UNL     1     -55.754 -20.018  23.631  1.00  0.00     0.106 C 
HETATM   20  C   UNL     1     -55.395 -18.585  23.982  1.00  0.00     0.045 C 
ENDBRANCH   6  12
BRANCH   7  21
HETATM   21  N   UNL     1     -56.247 -13.477  27.741  1.00  0.00    -0.398 N 
ATOM     22  HN2 UNL     1     -57.096 -13.899  28.115  1.00  0.00     0.156 HD
ATOM     23  HN1 UNL     1     -55.516 -13.196  28.395  1.00  0.00     0.156 HD
ENDBRANCH   7  21
TORSDOF 2
ENDMDL
MODEL 7
REMARK VINA RESULT:    -7.639      1.760      6.164
REMARK INTER + INTRA:          -8.313
REMARK INTER:                  -8.570
REMARK INTRA:                   0.257
REMARK UNBOUND:                -0.004
REMARK  2 active torsions:
REMARK  status: ('A' for Active; 'I' for Inactive)
REMARK    1  A    between atoms: C_6  and  N_9 
REMARK    2  A    between atoms: N_14  and  C_17 
ROOT
HETATM    1  C   UNL     1     -56.129 -18.988  22.281  1.00  0.00     0.030 A 
HETATM    2  C   UNL     1     -55.303 -19.224  23.383  1.00  0.00     0.003 A 
HETATM    3  C   UNL     1     -55.007 -18.189  24.295  1.00  0.00     0.018 A 
HETATM    4  C   UNL     1     -55.569 -16.944  24.048  1.00  0.00     0.050 A 
HETATM    5  C   UNL     1     -55.511 -15.726  24.715  1.00  0.00     0.262 A 
HETATM    6  N   UNL     1     -56.213 -14.761  24.133  1.00  0.00    -0.266 N 
HETATM    7  C   UNL     1     -56.678 -17.726  22.054  1.00  0.00     0.042 A 
HETATM    8  O   UNL     1     -54.829 -15.537  25.788  1.00  0.00    -0.267 OA
HETATM    9  C   UNL     1     -56.753 -15.380  23.083  1.00  0.00     0.264 A 
HETATM   10  C   UNL     1     -56.396 -16.717  22.952  1.00  0.00     0.074 A 
HETATM   11  O   UNL     1     -57.529 -14.767  22.285  1.00  0.00    -0.267 OA
ENDROOT
BRANCH   6  12
HETATM   12  C   UNL     1     -56.406 -13.356  24.531  1.00  0.00     0.189 C 
HETATM   13  C   UNL     1     -56.695 -13.339  26.008  1.00  0.00     0.247 C 
HETATM   14  N   UNL     1     -56.098 -12.432  26.779  1.00  0.00    -0.296 N 
HETATM   15  O   UNL     1     -57.467 -14.160  26.491  1.00  0.00    -0.271 OA
HETATM   16  C   UNL     1     -55.428 -11.374  26.317  1.00  0.00     0.224 C 
ATOM     17  HN  UNL     1     -56.155 -12.554  27.790  1.00  0.00     0.171 HD
HETATM   18  O   UNL     1     -54.919 -10.564  27.081  1.00  0.00    -0.273 OA
HETATM   19  C   UNL     1     -55.303 -11.197  24.817  1.00  0.00     0.106 C 
HETATM   20  C   UNL     1     -55.150 -12.574  24.194  1.00  0.00     0.045 C 
ENDBRANCH   6  12
BRANCH   7  21
HETATM   21  N   UNL     1     -57.513 -17.474  20.991  1.00  0.00    -0.398 N 
ATOM     22  HN2 UNL     1     -57.164 -17.387  20.036  1.00  0.00     0.156 HD
ATOM     23  HN1 UNL     1     -58.518 -17.397  21.148  1.00  0.00     0.156 HD
ENDBRANCH   7  21
TORSDOF 2
ENDMDL
MODEL 8
REMARK VINA RESULT:    -7.600      2.553      3.073
REMARK INTER + INTRA:          -8.270
REMARK INTER:                  -8.857
REMARK INTRA:                   0.587
REMARK UNBOUND:                -0.004
REMARK  2 active torsions:
REMARK  status: ('A' for Active; 'I' for Inactive)
REMARK    1  A    between atoms: C_6  and  N_9 
REMARK    2  A    between atoms: N_14  and  C_17 
ROOT
HETATM    1  C   UNL     1     -55.684 -10.957  25.516  1.00  0.00     0.030 A 
HETATM    2  C   UNL     1     -55.526 -11.406  24.202  1.00  0.00     0.003 A 
HETATM    3  C   UNL     1     -55.451 -12.785  23.917  1.00  0.00     0.018 A 
HETATM    4  C   UNL     1     -55.542 -13.661  24.990  1.00  0.00     0.050 A 
HETATM    5  C   UNL     1     -55.519 -15.048  25.088  1.00  0.00     0.262 A 
HETATM    6  N   UNL     1     -55.642 -15.500  26.331  1.00  0.00    -0.266 N 
HETATM    7  C   UNL     1     -55.769 -11.859  26.576  1.00  0.00     0.042 A 
HETATM    8  O   UNL     1     -55.376 -15.828  24.077  1.00  0.00    -0.267 OA
HETATM    9  C   UNL     1     -55.771 -14.379  27.041  1.00  0.00     0.264 A 
HETATM   10  C   UNL     1     -55.706 -13.209  26.295  1.00  0.00     0.074 A 
HETATM   11  O   UNL     1     -55.939 -14.415  28.301  1.00  0.00    -0.267 OA
ENDROOT
BRANCH   6  12
HETATM   12  C   UNL     1     -55.672 -16.882  26.838  1.00  0.00     0.189 C 
HETATM   13  C   UNL     1     -56.425 -17.717  25.838  1.00  0.00     0.247 C 
HETATM   14  N   UNL     1     -55.948 -18.913  25.496  1.00  0.00    -0.296 N 
HETATM   15  O   UNL     1     -57.460 -17.290  25.339  1.00  0.00    -0.271 OA
HETATM   16  C   UNL     1     -54.967 -19.546  26.143  1.00  0.00     0.224 C 
ATOM     17  HN  UNL     1     -56.361 -19.377  24.687  1.00  0.00     0.171 HD
HETATM   18  O   UNL     1     -54.589 -20.655  25.790  1.00  0.00    -0.273 OA
HETATM   19  C   UNL     1     -54.319 -18.855  27.326  1.00  0.00     0.106 C 
HETATM   20  C   UNL     1     -54.246 -17.369  27.020  1.00  0.00     0.045 C 
ENDBRANCH   6  12
BRANCH   7  21
HETATM   21  N   UNL     1     -55.949 -11.445  27.875  1.00  0.00    -0.398 N 
ATOM     22  HN2 UNL     1     -56.243 -12.086  28.612  1.00  0.00     0.156 HD
ATOM     23  HN1 UNL     1     -55.759 -10.474  28.124  1.00  0.00     0.156 HD
ENDBRANCH   7  21
TORSDOF 2
ENDMDL
MODEL 9
REMARK VINA RESULT:    -7.336      2.387      3.259
REMARK INTER + INTRA:          -7.983
REMARK INTER:                  -8.056
REMARK INTRA:                   0.073
REMARK UNBOUND:                -0.004
REMARK  2 active torsions:
REMARK  status: ('A' for Active; 'I' for Inactive)
REMARK    1  A    between atoms: C_6  and  N_9 
REMARK    2  A    between atoms: N_14  and  C_17 
ROOT
HETATM    1  C   UNL     1     -55.438 -14.797  27.176  1.00  0.00     0.030 A 
HETATM    2  C   UNL     1     -56.381 -13.930  26.617  1.00  0.00     0.003 A 
HETATM    3  C   UNL     1     -57.227 -14.363  25.575  1.00  0.00     0.018 A 
HETATM    4  C   UNL     1     -57.081 -15.673  25.141  1.00  0.00     0.050 A 
HETATM    5  C   UNL     1     -57.729 -16.431  24.171  1.00  0.00     0.262 A 
HETATM    6  N   UNL     1     -57.277 -17.675  24.072  1.00  0.00    -0.266 N 
HETATM    7  C   UNL     1     -55.310 -16.108  26.718  1.00  0.00     0.042 A 
HETATM    8  O   UNL     1     -58.667 -15.972  23.423  1.00  0.00    -0.267 OA
HETATM    9  C   UNL     1     -56.336 -17.724  25.015  1.00  0.00     0.264 A 
HETATM   10  C   UNL     1     -56.146 -16.534  25.706  1.00  0.00     0.074 A 
HETATM   11  O   UNL     1     -55.685 -18.793  25.240  1.00  0.00    -0.267 OA
ENDROOT
BRANCH   6  12
HETATM   12  C   UNL     1     -57.703 -18.771  23.184  1.00  0.00     0.189 C 
HETATM   13  C   UNL     1     -56.572 -19.049  22.232  1.00  0.00     0.247 C 
HETATM   14  N   UNL     1     -56.231 -20.311  21.974  1.00  0.00    -0.296 N 
HETATM   15  O   UNL     1     -55.967 -18.119  21.710  1.00  0.00    -0.271 OA
HETATM   16  C   UNL     1     -56.964 -21.373  22.315  1.00  0.00     0.224 C 
ATOM     17  HN  UNL     1     -55.352 -20.476  21.484  1.00  0.00     0.171 HD
HETATM   18  O   UNL     1     -56.604 -22.508  22.029  1.00  0.00    -0.273 OA
HETATM   19  C   UNL     1     -58.255 -21.146  23.075  1.00  0.00     0.106 C 
HETATM   20  C   UNL     1     -58.040 -19.985  24.030  1.00  0.00     0.045 C 
ENDBRANCH   6  12
BRANCH   7  21
HETATM   21  N   UNL     1     -54.407 -16.988  27.268  1.00  0.00    -0.398 N 
ATOM     22  HN2 UNL     1     -54.135 -16.942  28.250  1.00  0.00     0.156 HD
ATOM     23  HN1 UNL     1     -54.014 -17.732  26.690  1.00  0.00     0.156 HD
ENDBRANCH   7  21
TORSDOF 2
ENDMDL
MODEL 10
REMARK VINA RESULT:    -7.278      2.035      5.804
REMARK INTER + INTRA:          -7.920
REMARK INTER:                  -8.062
REMARK INTRA:                   0.143
REMARK UNBOUND:                -0.004
REMARK  2 active torsions:
REMARK  status: ('A' for Active; 'I' for Inactive)
REMARK    1  A    between atoms: C_6  and  N_9 
REMARK    2  A    between atoms: N_14  and  C_17 
ROOT
HETATM    1  C   UNL     1     -55.853 -20.184  24.184  1.00  0.00     0.030 A 
HETATM    2  C   UNL     1     -57.119 -20.257  23.597  1.00  0.00     0.003 A 
HETATM    3  C   UNL     1     -57.897 -19.094  23.417  1.00  0.00     0.018 A 
HETATM    4  C   UNL     1     -57.349 -17.892  23.843  1.00  0.00     0.050 A 
HETATM    5  C   UNL     1     -57.805 -16.578  23.818  1.00  0.00     0.262 A 
HETATM    6  N   UNL     1     -56.950 -15.704  24.335  1.00  0.00    -0.266 N 
HETATM    7  C   UNL     1     -55.328 -18.963  24.607  1.00  0.00     0.042 A 
HETATM    8  O   UNL     1     -58.954 -16.235  23.356  1.00  0.00    -0.267 OA
HETATM    9  C   UNL     1     -55.914 -16.469  24.677  1.00  0.00     0.264 A 
HETATM   10  C   UNL     1     -56.085 -17.824  24.420  1.00  0.00     0.074 A 
HETATM   11  O   UNL     1     -54.866 -15.966  25.193  1.00  0.00    -0.267 OA
ENDROOT
BRANCH   6  12
HETATM   12  C   UNL     1     -57.062 -14.242  24.482  1.00  0.00     0.189 C 
HETATM   13  C   UNL     1     -56.845 -13.914  25.934  1.00  0.00     0.247 C 
HETATM   14  N   UNL     1     -56.066 -12.885  26.262  1.00  0.00    -0.296 N 
HETATM   15  O   UNL     1     -57.376 -14.598  26.803  1.00  0.00    -0.271 OA
HETATM   16  C   UNL     1     -55.635 -11.962  25.399  1.00  0.00     0.224 C 
ATOM     17  HN  UNL     1     -55.779 -12.795  27.237  1.00  0.00     0.171 HD
HETATM   18  O   UNL     1     -54.937 -11.027  25.768  1.00  0.00    -0.273 OA
HETATM   19  C   UNL     1     -56.022 -12.101  23.940  1.00  0.00     0.106 C 
HETATM   20  C   UNL     1     -56.025 -13.580  23.594  1.00  0.00     0.045 C 
ENDBRANCH   6  12
BRANCH   7  21
HETATM   21  N   UNL     1     -54.075 -18.861  25.164  1.00  0.00    -0.398 N 
ATOM     22  HN2 UNL     1     -53.732 -17.989  25.569  1.00  0.00     0.156 HD
ATOM     23  HN1 UNL     1     -53.473 -19.684  25.203  1.00  0.00     0.156 HD
ENDBRANCH   7  21
TORSDOF 2
ENDMDL
MODEL 11
REMARK VINA RESULT:    -7.136      2.775      3.580
REMARK INTER + INTRA:          -7.765
REMARK INTER:                  -7.681
REMARK INTRA:                  -0.085
REMARK UNBOUND:                -0.004
REMARK  2 active torsions:
REMARK  status: ('A' for Active; 'I' for Inactive)
REMARK    1  A    between atoms: C_6  and  N_9 
REMARK    2  A    between atoms: N_14  and  C_17 
ROOT
HETATM    1  C   UNL     1     -56.581 -13.708  24.846  1.00  0.00     0.030 A 
HETATM    2  C   UNL     1     -56.486 -13.818  23.456  1.00  0.00     0.003 A 
HETATM    3  C   UNL     1     -56.174 -15.053  22.850  1.00  0.00     0.018 A 
HETATM    4  C   UNL     1     -55.971 -16.139  23.691  1.00  0.00     0.050 A 
HETATM    5  C   UNL     1     -55.665 -17.476  23.460  1.00  0.00     0.262 A 
HETATM    6  N   UNL     1     -55.557 -18.200  24.567  1.00  0.00    -0.266 N 
HETATM    7  C   UNL     1     -56.367 -14.815  25.667  1.00  0.00     0.042 A 
HETATM    8  O   UNL     1     -55.486 -17.969  22.287  1.00  0.00    -0.267 OA
HETATM    9  C   UNL     1     -55.822 -17.315  25.528  1.00  0.00     0.264 A 
HETATM   10  C   UNL     1     -56.073 -16.026  25.074  1.00  0.00     0.074 A 
HETATM   11  O   UNL     1     -55.838 -17.658  26.752  1.00  0.00    -0.267 OA
ENDROOT
BRANCH   6  12
HETATM   12  C   UNL     1     -55.258 -19.633  24.737  1.00  0.00     0.189 C 
HETATM   13  C   UNL     1     -56.448 -20.407  24.239  1.00  0.00     0.247 C 
HETATM   14  N   UNL     1     -56.254 -21.481  23.475  1.00  0.00    -0.296 N 
HETATM   15  O   UNL     1     -57.582 -20.042  24.530  1.00  0.00    -0.271 OA
HETATM   16  C   UNL     1     -55.072 -22.075  23.296  1.00  0.00     0.224 C 
ATOM     17  HN  UNL     1     -57.063 -21.876  22.995  1.00  0.00     0.171 HD
HETATM   18  O   UNL     1     -54.965 -23.073  22.596  1.00  0.00    -0.273 OA
HETATM   19  C   UNL     1     -53.854 -21.479  23.974  1.00  0.00     0.106 C 
HETATM   20  C   UNL     1     -54.000 -19.967  23.956  1.00  0.00     0.045 C 
ENDBRANCH   6  12
BRANCH   7  21
HETATM   21  N   UNL     1     -56.479 -14.740  27.036  1.00  0.00    -0.398 N 
ATOM     22  HN2 UNL     1     -56.299 -15.543  27.639  1.00  0.00     0.156 HD
ATOM     23  HN1 UNL     1     -56.721 -13.850  27.473  1.00  0.00     0.156 HD
ENDBRANCH   7  21
TORSDOF 2
ENDMDL
MODEL 12
REMARK VINA RESULT:    -6.870      2.127      6.168
REMARK INTER + INTRA:          -7.476
REMARK INTER:                  -7.523
REMARK INTRA:                   0.047
REMARK UNBOUND:                -0.004
REMARK  2 active torsions:
REMARK  status: ('A' for Active; 'I' for Inactive)
REMARK    1  A    between atoms: C_6  and  N_9 
REMARK    2  A    between atoms: N_14  and  C_17 
ROOT
HETATM    1  C   UNL     1     -55.963 -21.289  23.657  1.00  0.00     0.030 A 
HETATM    2  C   UNL     1     -54.716 -20.971  24.202  1.00  0.00     0.003 A 
HETATM    3  C   UNL     1     -54.403 -19.642  24.557  1.00  0.00     0.018 A 
HETATM    4  C   UNL     1     -55.382 -18.681  24.343  1.00  0.00     0.050 A 
HETATM    5  C   UNL     1     -55.434 -17.311  24.575  1.00  0.00     0.262 A 
HETATM    6  N   UNL     1     -56.586 -16.751  24.223  1.00  0.00    -0.266 N 
HETATM    7  C   UNL     1     -56.926 -20.303  23.449  1.00  0.00     0.042 A 
HETATM    8  O   UNL     1     -54.457 -16.637  25.068  1.00  0.00    -0.267 OA
HETATM    9  C   UNL     1     -57.295 -17.789  23.779  1.00  0.00     0.264 A 
HETATM   10  C   UNL     1     -56.624 -19.005  23.807  1.00  0.00     0.074 A 
HETATM   11  O   UNL     1     -58.490 -17.641  23.370  1.00  0.00    -0.267 OA
ENDROOT
BRANCH   6  12
HETATM   12  C   UNL     1     -57.025 -15.349  24.316  1.00  0.00     0.189 C 
HETATM   13  C   UNL     1     -56.785 -14.890  25.729  1.00  0.00     0.247 C 
HETATM   14  N   UNL     1     -56.247 -13.691  25.943  1.00  0.00    -0.296 N 
HETATM   15  O   UNL     1     -57.075 -15.623  26.668  1.00  0.00    -0.271 OA
HETATM   16  C   UNL     1     -56.110 -12.749  25.007  1.00  0.00     0.224 C 
ATOM     17  HN  UNL     1     -55.918 -13.477  26.885  1.00  0.00     0.171 HD
HETATM   18  O   UNL     1     -55.625 -11.657  25.275  1.00  0.00    -0.273 OA
HETATM   19  C   UNL     1     -56.561 -13.063  23.595  1.00  0.00     0.106 C 
HETATM   20  C   UNL     1     -56.242 -14.521  23.314  1.00  0.00     0.045 C 
ENDBRANCH   6  12
BRANCH   7  21
HETATM   21  N   UNL     1     -58.170 -20.593  22.938  1.00  0.00    -0.398 N 
ATOM     22  HN2 UNL     1     -58.829 -19.863  22.669  1.00  0.00     0.156 HD
ATOM     23  HN1 UNL     1     -58.439 -21.567  22.794  1.00  0.00     0.156 HD
ENDBRANCH   7  21
TORSDOF 2
ENDMDL
MODEL 13
REMARK VINA RESULT:    -6.857      2.909      4.249
REMARK INTER + INTRA:          -7.463
REMARK INTER:                  -7.564
REMARK INTRA:                   0.101
REMARK UNBOUND:                -0.004
REMARK  2 active torsions:
REMARK  status: ('A' for Active; 'I' for Inactive)
REMARK    1  A    between atoms: C_6  and  N_9 
REMARK    2  A    between atoms: N_14  and  C_17 
ROOT
HETATM    1  C   UNL     1     -56.516 -13.902  24.410  1.00  0.00     0.030 A 
HETATM    2  C   UNL     1     -56.487 -13.899  25.808  1.00  0.00     0.003 A 
HETATM    3  C   UNL     1     -56.203 -15.080  26.525  1.00  0.00     0.018 A 
HETATM    4  C   UNL     1     -55.955 -16.228  25.785  1.00  0.00     0.050 A 
HETATM    5  C   UNL     1     -55.638 -17.535  26.136  1.00  0.00     0.262 A 
HETATM    6  N   UNL     1     -55.473 -18.345  25.097  1.00  0.00    -0.266 N 
HETATM    7  C   UNL     1     -56.266 -15.070  23.692  1.00  0.00     0.042 A 
HETATM    8  O   UNL     1     -55.530 -17.935  27.352  1.00  0.00    -0.267 OA
HETATM    9  C   UNL     1     -55.664 -17.534  24.057  1.00  0.00     0.264 A 
HETATM   10  C   UNL     1     -55.977 -16.223  24.393  1.00  0.00     0.074 A 
HETATM   11  O   UNL     1     -55.559 -17.960  22.863  1.00  0.00    -0.267 OA
ENDROOT
BRANCH   6  12
HETATM   12  C   UNL     1     -55.129 -19.777  25.057  1.00  0.00     0.189 C 
HETATM   13  C   UNL     1     -56.370 -20.531  24.664  1.00  0.00     0.247 C 
HETATM   14  N   UNL     1     -56.282 -21.508  23.763  1.00  0.00    -0.296 N 
HETATM   15  O   UNL     1     -57.450 -20.237  25.164  1.00  0.00    -0.271 OA
HETATM   16  C   UNL     1     -55.133 -22.040  23.339  1.00  0.00     0.224 C 
ATOM     17  HN  UNL     1     -57.149 -21.875  23.371  1.00  0.00     0.171 HD
HETATM   18  O   UNL     1     -55.122 -22.952  22.522  1.00  0.00    -0.273 OA
HETATM   19  C   UNL     1     -53.834 -21.482  23.884  1.00  0.00     0.106 C 
HETATM   20  C   UNL     1     -54.004 -19.983  24.059  1.00  0.00     0.045 C 
ENDBRANCH   6  12
BRANCH   7  21
HETATM   21  N   UNL     1     -56.263 -15.095  22.316  1.00  0.00    -0.398 N 
ATOM     22  HN2 UNL     1     -55.954 -15.912  21.790  1.00  0.00     0.156 HD
ATOM     23  HN1 UNL     1     -56.604 -14.285  21.798  1.00  0.00     0.156 HD
ENDBRANCH   7  21
TORSDOF 2
ENDMDL
MODEL 14
REMARK VINA RESULT:    -6.809      3.517      5.415
REMARK INTER + INTRA:          -7.410
REMARK INTER:                  -7.437
REMARK INTRA:                   0.028
REMARK UNBOUND:                -0.004
REMARK  2 active torsions:
REMARK  status: ('A' for Active; 'I' for Inactive)
REMARK    1  A    between atoms: C_6  and  N_9 
REMARK    2  A    between atoms: N_14  and  C_17 
ROOT
HETATM    1  C   UNL     1     -54.104 -20.414  28.513  1.00  0.00     0.030 A 
HETATM    2  C   UNL     1     -53.218 -19.374  28.806  1.00  0.00     0.003 A 
HETATM    3  C   UNL     1     -53.335 -18.125  28.161  1.00  0.00     0.018 A 
HETATM    4  C   UNL     1     -54.361 -17.982  27.237  1.00  0.00     0.050 A 
HETATM    5  C   UNL     1     -54.779 -16.923  26.437  1.00  0.00     0.262 A 
HETATM    6  N   UNL     1     -55.830 -17.207  25.678  1.00  0.00    -0.266 N 
HETATM    7  C   UNL     1     -55.124 -20.244  27.578  1.00  0.00     0.042 A 
HETATM    8  O   UNL     1     -54.196 -15.778  26.416  1.00  0.00    -0.267 OA
HETATM    9  C   UNL     1     -56.107 -18.467  26.015  1.00  0.00     0.264 A 
HETATM   10  C   UNL     1     -55.245 -19.018  26.955  1.00  0.00     0.074 A 
HETATM   11  O   UNL     1     -57.092 -19.084  25.499  1.00  0.00    -0.267 OA
ENDROOT
BRANCH   6  12
HETATM   12  C   UNL     1     -56.561 -16.363  24.718  1.00  0.00     0.189 C 
HETATM   13  C   UNL     1     -56.939 -15.091  25.427  1.00  0.00     0.247 C 
HETATM   14  N   UNL     1     -56.779 -13.924  24.804  1.00  0.00    -0.296 N 
HETATM   15  O   UNL     1     -57.379 -15.134  26.571  1.00  0.00    -0.271 OA
HETATM   16  C   UNL     1     -56.523 -13.796  23.500  1.00  0.00     0.224 C 
ATOM     17  HN  UNL     1     -56.857 -13.073  25.360  1.00  0.00     0.171 HD
HETATM   18  O   UNL     1     -56.408 -12.692  22.984  1.00  0.00    -0.273 OA
HETATM   19  C   UNL     1     -56.369 -15.052  22.667  1.00  0.00     0.106 C 
HETATM   20  C   UNL     1     -55.669 -16.097  23.519  1.00  0.00     0.045 C 
ENDBRANCH   6  12
BRANCH   7  21
HETATM   21  N   UNL     1     -56.025 -21.243  27.290  1.00  0.00    -0.398 N 
ATOM     22  HN2 UNL     1     -56.553 -21.723  28.019  1.00  0.00     0.156 HD
ATOM     23  HN1 UNL     1     -56.198 -21.499  26.317  1.00  0.00     0.156 HD
ENDBRANCH   7  21
TORSDOF 2
ENDMDL
MODEL 15
REMARK VINA RESULT:    -6.807      3.246      6.264
REMARK INTER + INTRA:          -7.408
REMARK INTER:                  -7.323
REMARK INTRA:                  -0.085
REMARK UNBOUND:                -0.004
REMARK  2 active torsions:
REMARK  status: ('A' for Active; 'I' for Inactive)
REMARK    1  A    between atoms: C_6  and  N_9 
REMARK    2  A    between atoms: N_14  and  C_17 
ROOT
HETATM    1  C   UNL     1     -57.848 -22.417  25.341  1.00  0.00     0.030 A 
HETATM    2  C   UNL     1     -58.877 -22.048  24.470  1.00  0.00     0.003 A 
HETATM    3  C   UNL     1     -58.971 -20.727  23.986  1.00  0.00     0.018 A 
HETATM    4  C   UNL     1     -58.005 -19.825  24.410  1.00  0.00     0.050 A 
HETATM    5  C   UNL     1     -57.778 -18.479  24.141  1.00  0.00     0.262 A 
HETATM    6  N   UNL     1     -56.716 -17.980  24.761  1.00  0.00    -0.266 N 
HETATM    7  C   UNL     1     -56.892 -21.489  25.754  1.00  0.00     0.042 A 
HETATM    8  O   UNL     1     -58.530 -17.773  23.376  1.00  0.00    -0.267 OA
HETATM    9  C   UNL     1     -56.238 -19.034  25.424  1.00  0.00     0.264 A 
HETATM   10  C   UNL     1     -56.979 -20.199  25.271  1.00  0.00     0.074 A 
HETATM   11  O   UNL     1     -55.184 -18.944  26.129  1.00  0.00    -0.267 OA
ENDROOT
BRANCH   6  12
HETATM   12  C   UNL     1     -56.150 -16.621  24.727  1.00  0.00     0.189 C 
HETATM   13  C   UNL     1     -55.779 -16.319  23.300  1.00  0.00     0.247 C 
HETATM   14  N   UNL     1     -56.080 -15.129  22.785  1.00  0.00    -0.296 N 
HETATM   15  O   UNL     1     -55.213 -17.170  22.622  1.00  0.00    -0.271 OA
HETATM   16  C   UNL     1     -56.485 -14.079  23.503  1.00  0.00     0.224 C 
ATOM     17  HN  UNL     1     -55.995 -15.011  21.775  1.00  0.00     0.171 HD
HETATM   18  O   UNL     1     -56.726 -13.003  22.969  1.00  0.00    -0.273 OA
HETATM   19  C   UNL     1     -56.650 -14.247  25.000  1.00  0.00     0.106 C 
HETATM   20  C   UNL     1     -57.183 -15.645  25.259  1.00  0.00     0.045 C 
ENDBRANCH   6  12
BRANCH   7  21
HETATM   21  N   UNL     1     -55.856 -21.832  26.591  1.00  0.00    -0.398 N 
ATOM     22  HN2 UNL     1     -55.808 -22.742  27.049  1.00  0.00     0.156 HD
ATOM     23  HN1 UNL     1     -55.092 -21.172  26.741  1.00  0.00     0.156 HD
ENDBRANCH   7  21
TORSDOF 2
ENDMDL
MODEL 16
REMARK VINA RESULT:    -6.798      3.031      3.883
REMARK INTER + INTRA:          -7.398
REMARK INTER:                  -7.469
REMARK INTRA:                   0.071
REMARK UNBOUND:                -0.004
REMARK  2 active torsions:
REMARK  status: ('A' for Active; 'I' for Inactive)
REMARK    1  A    between atoms: C_6  and  N_9 
REMARK    2  A    between atoms: N_14  and  C_17 
ROOT
HETATM    1  C   UNL     1     -56.489 -13.356  24.952  1.00  0.00     0.030 A 
HETATM    2  C   UNL     1     -56.407 -13.316  23.557  1.00  0.00     0.003 A 
HETATM    3  C   UNL     1     -56.352 -14.508  22.804  1.00  0.00     0.018 A 
HETATM    4  C   UNL     1     -56.386 -15.705  23.507  1.00  0.00     0.050 A 
HETATM    5  C   UNL     1     -56.362 -17.038  23.114  1.00  0.00     0.262 A 
HETATM    6  N   UNL     1     -56.417 -17.897  24.125  1.00  0.00    -0.266 N 
HETATM    7  C   UNL     1     -56.518 -14.573  25.632  1.00  0.00     0.042 A 
HETATM    8  O   UNL     1     -56.279 -17.414  21.888  1.00  0.00    -0.267 OA
HETATM    9  C   UNL     1     -56.502 -17.097  25.188  1.00  0.00     0.264 A 
HETATM   10  C   UNL     1     -56.475 -15.739  24.895  1.00  0.00     0.074 A 
HETATM   11  O   UNL     1     -56.599 -17.573  26.363  1.00  0.00    -0.267 OA
ENDROOT
BRANCH   6  12
HETATM   12  C   UNL     1     -56.423 -19.370  24.119  1.00  0.00     0.189 C 
HETATM   13  C   UNL     1     -55.139 -19.831  24.754  1.00  0.00     0.247 C 
HETATM   14  N   UNL     1     -55.168 -20.830  25.635  1.00  0.00    -0.296 N 
HETATM   15  O   UNL     1     -54.081 -19.282  24.465  1.00  0.00    -0.271 OA
HETATM   16  C   UNL     1     -56.222 -21.623  25.838  1.00  0.00     0.224 C 
ATOM     17  HN  UNL     1     -54.330 -20.999  26.191  1.00  0.00     0.171 HD
HETATM   18  O   UNL     1     -56.177 -22.539  26.650  1.00  0.00    -0.273 OA
HETATM   19  C   UNL     1     -57.487 -21.362  25.045  1.00  0.00     0.106 C 
HETATM   20  C   UNL     1     -57.638 -19.859  24.885  1.00  0.00     0.045 C 
ENDBRANCH   6  12
BRANCH   7  21
HETATM   21  N   UNL     1     -56.624 -14.641  27.002  1.00  0.00    -0.398 N 
ATOM     22  HN2 UNL     1     -56.620 -15.530  27.502  1.00  0.00     0.156 HD
ATOM     23  HN1 UNL     1     -56.680 -13.779  27.545  1.00  0.00     0.156 HD
ENDBRANCH   7  21
TORSDOF 2
ENDMDL
MODEL 17
REMARK VINA RESULT:    -6.773      2.538      4.103
REMARK INTER + INTRA:          -7.370
REMARK INTER:                  -7.291
REMARK INTRA:                  -0.079
REMARK UNBOUND:                -0.004
REMARK  2 active torsions:
REMARK  status: ('A' for Active; 'I' for Inactive)
REMARK    1  A    between atoms: C_6  and  N_9 
REMARK    2  A    between atoms: N_14  and  C_17 
ROOT
HETATM    1  C   UNL     1     -55.534 -15.350  26.731  1.00  0.00     0.030 A 
HETATM    2  C   UNL     1     -54.591 -16.356  26.960  1.00  0.00     0.003 A 
HETATM    3  C   UNL     1     -54.639 -17.566  26.236  1.00  0.00     0.018 A 
HETATM    4  C   UNL     1     -55.652 -17.705  25.298  1.00  0.00     0.050 A 
HETATM    5  C   UNL     1     -55.997 -18.723  24.415  1.00  0.00     0.262 A 
HETATM    6  N   UNL     1     -57.059 -18.448  23.668  1.00  0.00    -0.266 N 
HETATM    7  C   UNL     1     -56.544 -15.518  25.784  1.00  0.00     0.042 A 
HETATM    8  O   UNL     1     -55.361 -19.836  24.334  1.00  0.00    -0.267 OA
HETATM    9  C   UNL     1     -57.389 -17.218  24.063  1.00  0.00     0.264 A 
HETATM   10  C   UNL     1     -56.584 -16.697  25.068  1.00  0.00     0.074 A 
HETATM   11  O   UNL     1     -58.368 -16.600  23.539  1.00  0.00    -0.267 OA
ENDROOT
BRANCH   6  12
HETATM   12  C   UNL     1     -57.720 -19.254  22.627  1.00  0.00     0.189 C 
HETATM   13  C   UNL     1     -56.811 -19.283  21.429  1.00  0.00     0.247 C 
HETATM   14  N   UNL     1     -56.614 -20.432  20.786  1.00  0.00    -0.296 N 
HETATM   15  O   UNL     1     -56.252 -18.256  21.060  1.00  0.00    -0.271 OA
HETATM   16  C   UNL     1     -57.343 -21.535  20.975  1.00  0.00     0.224 C 
ATOM     17  HN  UNL     1     -55.856 -20.473  20.104  1.00  0.00     0.171 HD
HETATM   18  O   UNL     1     -57.123 -22.555  20.335  1.00  0.00    -0.273 OA
HETATM   19  C   UNL     1     -58.449 -21.501  22.010  1.00  0.00     0.106 C 
HETATM   20  C   UNL     1     -57.977 -20.646  23.174  1.00  0.00     0.045 C 
ENDBRANCH   6  12
BRANCH   7  21
HETATM   21  N   UNL     1     -57.469 -14.534  25.521  1.00  0.00    -0.398 N 
ATOM     22  HN2 UNL     1     -58.464 -14.738  25.425  1.00  0.00     0.156 HD
ATOM     23  HN1 UNL     1     -57.163 -13.564  25.446  1.00  0.00     0.156 HD
ENDBRANCH   7  21
TORSDOF 2
ENDMDL
