MODEL 1
REMARK VINA RESULT:    -9.299      0.000      0.000
REMARK INTER + INTRA:         -11.238
REMARK INTER:                 -11.474
REMARK INTRA:                   0.236
REMARK UNBOUND:                 0.236
REMARK  4 active torsions:
REMARK  status: ('A' for Active; 'I' for Inactive)
REMARK       I    between atoms: C_1  and  N_14 
REMARK    1  A    between atoms: C_1  and  C_16 
REMARK    2  A    between atoms: C_2  and  C_11 
REMARK    3  A    between atoms: C_3  and  N_14 
REMARK    4  A    between atoms: C_6  and  N_22 
ROOT
HETATM    1  C   UNL     1      -1.601  23.250   2.086  1.00  0.00     0.152 A 
HETATM    2  C   UNL     1      -3.048  24.387   0.888  1.00  0.00     0.073 A 
HETATM    3  C   UNL     1      -3.677  24.913  -0.270  1.00  0.00     0.040 A 
HETATM    4  C   UNL     1      -4.875  25.601  -0.127  1.00  0.00     0.044 A 
HETATM    5  C   UNL     1      -5.487  25.711   1.116  1.00  0.00     0.043 A 
HETATM    6  N   UNL     1      -1.859  23.667   0.890  1.00  0.00    -0.334 N 
ATOM      7  HN  UNL     1      -1.277  23.495   0.070  1.00  0.00     0.168 HD
HETATM    8  C   UNL     1      -4.853  25.206   2.250  1.00  0.00     0.039 A 
HETATM    9  C   UNL     1      -3.677  24.485   2.108  1.00  0.00     0.038 A 
HETATM   10  S   UNL     1      -2.724  23.725   3.350  1.00  0.00    -0.052 SA
ENDROOT
BRANCH   1  11
HETATM   11  N   UNL     1      -0.523  22.422   2.310  1.00  0.00    -0.302 N 
HETATM   12  C   UNL     1      -0.252  21.855   3.519  1.00  0.00     0.276 C 
HETATM   13  O   UNL     1      -0.834  22.225   4.543  1.00  0.00    -0.266 OA
ATOM     14  HN  UNL     1       0.105  22.223   1.531  1.00  0.00     0.171 HD
BRANCH  12  15
HETATM   15  C   UNL     1       0.788  20.812   3.569  1.00  0.00     0.125 A 
HETATM   16  N   UNL     1       1.513  20.621   4.739  1.00  0.00    -0.353 N 
HETATM   17  C   UNL     1       2.399  19.611   4.562  1.00  0.00     0.029 A 
ATOM     18  HN  UNL     1       1.397  21.159   5.598  1.00  0.00     0.166 HD
HETATM   19  C   UNL     1       2.294  19.208   3.244  1.00  0.00     0.080 A 
HETATM   20  C   UNL     1       3.311  19.148   5.657  1.00  0.00     0.070 C 
HETATM   21  C   UNL     1       1.289  19.926   2.649  1.00  0.00     0.090 A 
HETATM   22 CL   UNL     1       3.159  17.930   2.489  1.00  0.00    -0.080 Cl
HETATM   23 CL   UNL     1       0.797  19.734   1.020  1.00  0.00    -0.080 Cl
ENDBRANCH  12  15
ENDBRANCH   1  11
BRANCH   3  24
HETATM   24  N   UNL     1      -3.038  24.786  -1.515  1.00  0.00    -0.277 NA
HETATM   25  C   UNL     1      -3.592  23.742  -2.381  1.00  0.00     0.122 C 
HETATM   26  C   UNL     1      -2.654  23.539  -3.549  1.00  0.00     0.182 C 
HETATM   27  O   UNL     1      -2.535  24.742  -4.303  1.00  0.00    -0.389 OA
HETATM   28  C   UNL     1      -2.014  25.796  -3.489  1.00  0.00     0.182 C 
HETATM   29  C   UNL     1      -2.884  26.031  -2.269  1.00  0.00     0.122 C 
ENDBRANCH   3  24
BRANCH   5  30
HETATM   30  C   UNL     1      -6.792  26.437   1.259  1.00  0.00     0.209 C 
HETATM   31  O   UNL     1      -7.448  26.666   0.215  1.00  0.00    -0.644 OA
HETATM   32  O   UNL     1      -7.207  26.712   2.404  1.00  0.00    -0.644 OA
ENDBRANCH   5  30
TORSDOF 4
ENDMDL
MODEL 2
REMARK VINA RESULT:    -9.147      4.137      7.742
REMARK INTER + INTRA:         -11.050
REMARK INTER:                 -11.018
REMARK INTRA:                  -0.032
REMARK UNBOUND:                 0.236
REMARK  4 active torsions:
REMARK  status: ('A' for Active; 'I' for Inactive)
REMARK       I    between atoms: C_1  and  N_14 
REMARK    1  A    between atoms: C_1  and  C_16 
REMARK    2  A    between atoms: C_2  and  C_11 
REMARK    3  A    between atoms: C_3  and  N_14 
REMARK    4  A    between atoms: C_6  and  N_22 
ROOT
HETATM    1  C   UNL     1      -0.341  21.568  -0.787  1.00  0.00     0.152 A 
HETATM    2  C   UNL     1      -0.313  21.649   1.408  1.00  0.00     0.073 A 
HETATM    3  C   UNL     1       0.166  21.451   2.729  1.00  0.00     0.040 A 
HETATM    4  C   UNL     1      -0.518  22.041   3.784  1.00  0.00     0.044 A 
HETATM    5  C   UNL     1      -1.608  22.869   3.549  1.00  0.00     0.043 A 
HETATM    6  N   UNL     1       0.279  21.132   0.261  1.00  0.00    -0.334 N 
ATOM      7  HN  UNL     1       1.083  20.504   0.249  1.00  0.00     0.168 HD
HETATM    8  C   UNL     1      -2.082  23.044   2.250  1.00  0.00     0.039 A 
HETATM    9  C   UNL     1      -1.380  22.489   1.189  1.00  0.00     0.038 A 
HETATM   10  S   UNL     1      -1.738  22.595  -0.510  1.00  0.00    -0.052 SA
ENDROOT
BRANCH   1  11
HETATM   11  N   UNL     1       0.138  21.271  -2.044  1.00  0.00    -0.302 N 
HETATM   12  C   UNL     1       0.603  22.214  -2.911  1.00  0.00     0.276 C 
HETATM   13  O   UNL     1       0.419  23.417  -2.704  1.00  0.00    -0.266 OA
ATOM     14  HN  UNL     1       0.145  20.295  -2.342  1.00  0.00     0.171 HD
BRANCH  12  15
HETATM   15  C   UNL     1       1.298  21.747  -4.123  1.00  0.00     0.125 A 
HETATM   16  N   UNL     1       1.069  20.459  -4.592  1.00  0.00    -0.353 N 
HETATM   17  C   UNL     1       1.798  20.250  -5.716  1.00  0.00     0.029 A 
ATOM     18  HN  UNL     1       0.449  19.776  -4.157  1.00  0.00     0.166 HD
HETATM   19  C   UNL     1       2.558  21.386  -5.920  1.00  0.00     0.080 A 
HETATM   20  C   UNL     1       1.744  18.959  -6.474  1.00  0.00     0.070 C 
HETATM   21  C   UNL     1       2.228  22.309  -4.960  1.00  0.00     0.090 A 
HETATM   22 CL   UNL     1       3.635  21.680  -7.226  1.00  0.00    -0.080 Cl
HETATM   23 CL   UNL     1       2.913  23.874  -4.848  1.00  0.00    -0.080 Cl
ENDBRANCH  12  15
ENDBRANCH   1  11
BRANCH   3  24
HETATM   24  N   UNL     1       1.272  20.610   2.939  1.00  0.00    -0.277 NA
HETATM   25  C   UNL     1       1.693  20.493   4.338  1.00  0.00     0.122 C 
HETATM   26  C   UNL     1       3.031  19.792   4.379  1.00  0.00     0.182 C 
HETATM   27  O   UNL     1       2.922  18.484   3.824  1.00  0.00    -0.389 OA
HETATM   28  C   UNL     1       2.494  18.551   2.461  1.00  0.00     0.182 C 
HETATM   29  C   UNL     1       1.172  19.282   2.334  1.00  0.00     0.122 C 
ENDBRANCH   3  24
BRANCH   5  30
HETATM   30  C   UNL     1      -2.329  23.521   4.692  1.00  0.00     0.209 C 
HETATM   31  O   UNL     1      -3.341  24.212   4.425  1.00  0.00    -0.644 OA
HETATM   32  O   UNL     1      -1.944  23.290   5.858  1.00  0.00    -0.644 OA
ENDBRANCH   5  30
TORSDOF 4
ENDMDL
MODEL 3
REMARK VINA RESULT:    -8.848      1.702      1.976
REMARK INTER + INTRA:         -10.682
REMARK INTER:                 -10.352
REMARK INTRA:                  -0.330
REMARK UNBOUND:                 0.236
REMARK  4 active torsions:
REMARK  status: ('A' for Active; 'I' for Inactive)
REMARK       I    between atoms: C_1  and  N_14 
REMARK    1  A    between atoms: C_1  and  C_16 
REMARK    2  A    between atoms: C_2  and  C_11 
REMARK    3  A    between atoms: C_3  and  N_14 
REMARK    4  A    between atoms: C_6  and  N_22 
ROOT
HETATM    1  C   UNL     1      -1.305  23.435   1.695  1.00  0.00     0.152 A 
HETATM    2  C   UNL     1      -2.196  25.121   0.605  1.00  0.00     0.073 A 
HETATM    3  C   UNL     1      -2.292  26.182  -0.333  1.00  0.00     0.040 A 
HETATM    4  C   UNL     1      -3.515  26.821  -0.497  1.00  0.00     0.044 A 
HETATM    5  C   UNL     1      -4.642  26.384   0.188  1.00  0.00     0.043 A 
HETATM    6  N   UNL     1      -1.044  24.387   0.859  1.00  0.00    -0.334 N 
ATOM      7  HN  UNL     1      -0.128  24.571   0.449  1.00  0.00     0.168 HD
HETATM    8  C   UNL     1      -4.534  25.353   1.120  1.00  0.00     0.039 A 
HETATM    9  C   UNL     1      -3.325  24.686   1.259  1.00  0.00     0.038 A 
HETATM   10  S   UNL     1      -2.948  23.353   2.312  1.00  0.00    -0.052 SA
ENDROOT
BRANCH   1  11
HETATM   11  N   UNL     1      -0.335  22.511   2.013  1.00  0.00    -0.302 N 
HETATM   12  C   UNL     1      -0.080  22.102   3.288  1.00  0.00     0.276 C 
HETATM   13  O   UNL     1      -0.556  22.699   4.258  1.00  0.00    -0.266 OA
ATOM     14  HN  UNL     1       0.221  22.112   1.257  1.00  0.00     0.171 HD
BRANCH  12  15
HETATM   15  C   UNL     1       0.816  20.946   3.470  1.00  0.00     0.125 A 
HETATM   16  N   UNL     1       1.458  20.760   4.688  1.00  0.00    -0.353 N 
HETATM   17  C   UNL     1       2.216  19.637   4.634  1.00  0.00     0.029 A 
ATOM     18  HN  UNL     1       1.372  21.373   5.499  1.00  0.00     0.166 HD
HETATM   19  C   UNL     1       2.120  19.148   3.345  1.00  0.00     0.080 A 
HETATM   20  C   UNL     1       3.011  19.153   5.808  1.00  0.00     0.070 C 
HETATM   21  C   UNL     1       1.241  19.936   2.645  1.00  0.00     0.090 A 
HETATM   22 CL   UNL     1       2.849  17.718   2.732  1.00  0.00    -0.080 Cl
HETATM   23 CL   UNL     1       0.804  19.678   1.010  1.00  0.00    -0.080 Cl
ENDBRANCH  12  15
ENDBRANCH   1  11
BRANCH   3  24
HETATM   24  N   UNL     1      -1.138  26.602  -1.014  1.00  0.00    -0.277 NA
HETATM   25  C   UNL     1      -0.935  25.967  -2.320  1.00  0.00     0.122 C 
HETATM   26  C   UNL     1       0.456  26.303  -2.806  1.00  0.00     0.182 C 
HETATM   27  O   UNL     1       0.602  27.713  -2.956  1.00  0.00    -0.389 OA
HETATM   28  C   UNL     1       0.393  28.375  -1.705  1.00  0.00     0.182 C 
HETATM   29  C   UNL     1      -0.972  28.051  -1.132  1.00  0.00     0.122 C 
ENDBRANCH   3  24
BRANCH   5  30
HETATM   30  C   UNL     1      -5.964  27.065  -0.012  1.00  0.00     0.209 C 
HETATM   31  O   UNL     1      -7.000  26.420   0.275  1.00  0.00    -0.644 OA
HETATM   32  O   UNL     1      -5.978  28.259  -0.377  1.00  0.00    -0.644 OA
ENDBRANCH   5  30
TORSDOF 4
ENDMDL
MODEL 4
REMARK VINA RESULT:    -8.260      4.496      7.401
REMARK INTER + INTRA:          -9.956
REMARK INTER:                  -9.091
REMARK INTRA:                  -0.866
REMARK UNBOUND:                 0.236
REMARK  4 active torsions:
REMARK  status: ('A' for Active; 'I' for Inactive)
REMARK       I    between atoms: C_1  and  N_14 
REMARK    1  A    between atoms: C_1  and  C_16 
REMARK    2  A    between atoms: C_2  and  C_11 
REMARK    3  A    between atoms: C_3  and  N_14 
REMARK    4  A    between atoms: C_6  and  N_22 
ROOT
HETATM    1  C   UNL     1       0.030  23.972  -2.993  1.00  0.00     0.152 A 
HETATM    2  C   UNL     1      -0.509  25.272  -1.307  1.00  0.00     0.073 A 
HETATM    3  C   UNL     1      -0.933  25.630  -0.001  1.00  0.00     0.040 A 
HETATM    4  C   UNL     1      -0.879  26.965   0.378  1.00  0.00     0.044 A 
HETATM    5  C   UNL     1      -0.350  27.925  -0.477  1.00  0.00     0.043 A 
HETATM    6  N   UNL     1      -0.496  23.977  -1.812  1.00  0.00    -0.334 N 
ATOM      7  HN  UNL     1      -0.849  23.153  -1.324  1.00  0.00     0.168 HD
HETATM    8  C   UNL     1       0.048  27.567  -1.764  1.00  0.00     0.039 A 
HETATM    9  C   UNL     1       0.031  26.229  -2.134  1.00  0.00     0.038 A 
HETATM   10  S   UNL     1       0.512  25.527  -3.652  1.00  0.00    -0.052 SA
ENDROOT
BRANCH   1  11
HETATM   11  N   UNL     1       0.245  22.779  -3.648  1.00  0.00    -0.302 N 
HETATM   12  C   UNL     1      -0.761  22.012  -4.156  1.00  0.00     0.276 C 
HETATM   13  O   UNL     1      -1.940  22.232  -3.868  1.00  0.00    -0.266 OA
ATOM     14  HN  UNL     1       1.205  22.452  -3.757  1.00  0.00     0.171 HD
BRANCH  12  15
HETATM   15  C   UNL     1      -0.387  20.886  -5.030  1.00  0.00     0.125 A 
HETATM   16  N   UNL     1      -1.332  20.344  -5.893  1.00  0.00    -0.353 N 
HETATM   17  C   UNL     1      -0.771  19.335  -6.603  1.00  0.00     0.029 A 
ATOM     18  HN  UNL     1      -2.299  20.658  -5.979  1.00  0.00     0.166 HD
HETATM   19  C   UNL     1       0.519  19.179  -6.133  1.00  0.00     0.080 A 
HETATM   20  C   UNL     1      -1.533  18.569  -7.641  1.00  0.00     0.070 C 
HETATM   21  C   UNL     1       0.758  20.147  -5.190  1.00  0.00     0.090 A 
HETATM   22 CL   UNL     1       1.695  18.067  -6.708  1.00  0.00    -0.080 Cl
HETATM   23 CL   UNL     1       2.242  20.342  -4.359  1.00  0.00    -0.080 Cl
ENDBRANCH  12  15
ENDBRANCH   1  11
BRANCH   3  24
HETATM   24  N   UNL     1      -1.461  24.640   0.844  1.00  0.00    -0.277 NA
HETATM   25  C   UNL     1      -0.588  24.259   1.958  1.00  0.00     0.122 C 
HETATM   26  C   UNL     1      -1.154  23.018   2.610  1.00  0.00     0.182 C 
HETATM   27  O   UNL     1      -2.458  23.279   3.121  1.00  0.00    -0.389 OA
HETATM   28  C   UNL     1      -3.341  23.673   2.067  1.00  0.00     0.182 C 
HETATM   29  C   UNL     1      -2.816  24.892   1.335  1.00  0.00     0.122 C 
ENDBRANCH   3  24
BRANCH   5  30
HETATM   30  C   UNL     1      -0.274  29.361  -0.052  1.00  0.00     0.209 C 
HETATM   31  O   UNL     1       0.616  30.076  -0.573  1.00  0.00    -0.644 OA
HETATM   32  O   UNL     1      -1.136  29.805   0.735  1.00  0.00    -0.644 OA
ENDBRANCH   5  30
TORSDOF 4
ENDMDL
MODEL 5
REMARK VINA RESULT:    -8.116      3.683      6.337
REMARK INTER + INTRA:          -9.778
REMARK INTER:                  -8.980
REMARK INTRA:                  -0.799
REMARK UNBOUND:                 0.236
REMARK  4 active torsions:
REMARK  status: ('A' for Active; 'I' for Inactive)
REMARK       I    between atoms: C_1  and  N_14 
REMARK    1  A    between atoms: C_1  and  C_16 
REMARK    2  A    between atoms: C_2  and  C_11 
REMARK    3  A    between atoms: C_3  and  N_14 
REMARK    4  A    between atoms: C_6  and  N_22 
ROOT
HETATM    1  C   UNL     1      -2.505  23.479  -2.533  1.00  0.00     0.152 A 
HETATM    2  C   UNL     1      -3.272  24.086  -0.567  1.00  0.00     0.073 A 
HETATM    3  C   UNL     1      -3.295  24.272   0.840  1.00  0.00     0.040 A 
HETATM    4  C   UNL     1      -4.332  25.006   1.402  1.00  0.00     0.044 A 
HETATM    5  C   UNL     1      -5.291  25.609   0.597  1.00  0.00     0.043 A 
HETATM    6  N   UNL     1      -2.290  23.389  -1.261  1.00  0.00    -0.334 N 
ATOM      7  HN  UNL     1      -1.516  22.883  -0.831  1.00  0.00     0.168 HD
HETATM    8  C   UNL     1      -5.271  25.407  -0.781  1.00  0.00     0.039 A 
HETATM    9  C   UNL     1      -4.216  24.708  -1.351  1.00  0.00     0.038 A 
HETATM   10  S   UNL     1      -3.942  24.357  -3.033  1.00  0.00    -0.052 SA
ENDROOT
BRANCH   1  11
HETATM   11  N   UNL     1      -1.596  22.953  -3.425  1.00  0.00    -0.302 N 
HETATM   12  C   UNL     1      -0.256  23.187  -3.354  1.00  0.00     0.276 C 
HETATM   13  O   UNL     1       0.201  24.063  -2.614  1.00  0.00    -0.266 OA
ATOM     14  HN  UNL     1      -1.945  22.359  -4.177  1.00  0.00     0.171 HD
BRANCH  12  15
HETATM   15  C   UNL     1       0.626  22.384  -4.219  1.00  0.00     0.125 A 
HETATM   16  N   UNL     1       0.508  21.000  -4.225  1.00  0.00    -0.353 N 
HETATM   17  C   UNL     1       1.402  20.473  -5.096  1.00  0.00     0.029 A 
ATOM     18  HN  UNL     1      -0.151  20.463  -3.660  1.00  0.00     0.166 HD
HETATM   19  C   UNL     1       2.151  21.523  -5.591  1.00  0.00     0.080 A 
HETATM   20  C   UNL     1       1.500  18.998  -5.346  1.00  0.00     0.070 C 
HETATM   21  C   UNL     1       1.655  22.692  -5.073  1.00  0.00     0.090 A 
HETATM   22 CL   UNL     1       3.403  21.430  -6.764  1.00  0.00    -0.080 Cl
HETATM   23 CL   UNL     1       2.270  24.249  -5.437  1.00  0.00    -0.080 Cl
ENDBRANCH  12  15
ENDBRANCH   1  11
BRANCH   3  24
HETATM   24  N   UNL     1      -2.312  23.653   1.630  1.00  0.00    -0.277 NA
HETATM   25  C   UNL     1      -0.968  24.222   1.489  1.00  0.00     0.122 C 
HETATM   26  C   UNL     1       0.017  23.302   2.173  1.00  0.00     0.182 C 
HETATM   27  O   UNL     1      -0.290  23.194   3.561  1.00  0.00    -0.389 OA
HETATM   28  C   UNL     1      -1.603  22.658   3.744  1.00  0.00     0.182 C 
HETATM   29  C   UNL     1      -2.647  23.508   3.046  1.00  0.00     0.122 C 
ENDBRANCH   3  24
BRANCH   5  30
HETATM   30  C   UNL     1      -6.396  26.419   1.210  1.00  0.00     0.209 C 
HETATM   31  O   UNL     1      -6.674  26.208   2.415  1.00  0.00    -0.644 OA
HETATM   32  O   UNL     1      -6.938  27.314   0.527  1.00  0.00    -0.644 OA
ENDBRANCH   5  30
TORSDOF 4
ENDMDL
MODEL 6
REMARK VINA RESULT:    -8.074      4.180      6.621
REMARK INTER + INTRA:          -9.726
REMARK INTER:                  -9.304
REMARK INTRA:                  -0.422
REMARK UNBOUND:                 0.236
REMARK  4 active torsions:
REMARK  status: ('A' for Active; 'I' for Inactive)
REMARK       I    between atoms: C_1  and  N_14 
REMARK    1  A    between atoms: C_1  and  C_16 
REMARK    2  A    between atoms: C_2  and  C_11 
REMARK    3  A    between atoms: C_3  and  N_14 
REMARK    4  A    between atoms: C_6  and  N_22 
ROOT
HETATM    1  C   UNL     1      -0.877  24.490  -1.831  1.00  0.00     0.152 A 
HETATM    2  C   UNL     1      -2.103  24.456  -0.008  1.00  0.00     0.073 A 
HETATM    3  C   UNL     1      -2.432  24.243   1.355  1.00  0.00     0.040 A 
HETATM    4  C   UNL     1      -3.659  24.693   1.826  1.00  0.00     0.044 A 
HETATM    5  C   UNL     1      -4.520  25.403   0.997  1.00  0.00     0.043 A 
HETATM    6  N   UNL     1      -0.908  24.073  -0.607  1.00  0.00    -0.334 N 
ATOM      7  HN  UNL     1      -0.167  23.542  -0.150  1.00  0.00     0.168 HD
HETATM    8  C   UNL     1      -4.196  25.592  -0.345  1.00  0.00     0.039 A 
HETATM    9  C   UNL     1      -2.955  25.179  -0.810  1.00  0.00     0.038 A 
HETATM   10  S   UNL     1      -2.302  25.335  -2.415  1.00  0.00    -0.052 SA
ENDROOT
BRANCH   1  11
HETATM   11  N   UNL     1       0.259  24.318  -2.589  1.00  0.00    -0.302 N 
HETATM   12  C   UNL     1       0.579  23.144  -3.204  1.00  0.00     0.276 C 
HETATM   13  O   UNL     1      -0.021  22.099  -2.937  1.00  0.00    -0.266 OA
ATOM     14  HN  UNL     1       0.895  25.109  -2.697  1.00  0.00     0.171 HD
BRANCH  12  15
HETATM   15  C   UNL     1       1.692  23.158  -4.169  1.00  0.00     0.125 A 
HETATM   16  N   UNL     1       2.975  22.834  -3.743  1.00  0.00    -0.353 N 
HETATM   17  C   UNL     1       3.830  22.899  -4.792  1.00  0.00     0.029 A 
ATOM     18  HN  UNL     1       3.232  22.585  -2.788  1.00  0.00     0.166 HD
HETATM   19  C   UNL     1       3.103  23.346  -5.879  1.00  0.00     0.080 A 
HETATM   20  C   UNL     1       5.287  22.576  -4.655  1.00  0.00     0.070 C 
HETATM   21  C   UNL     1       1.791  23.477  -5.500  1.00  0.00     0.090 A 
HETATM   22 CL   UNL     1       3.683  23.573  -7.480  1.00  0.00    -0.080 Cl
HETATM   23 CL   UNL     1       0.530  23.984  -6.541  1.00  0.00    -0.080 Cl
ENDBRANCH  12  15
ENDBRANCH   1  11
BRANCH   3  24
HETATM   24  N   UNL     1      -1.543  23.525   2.172  1.00  0.00    -0.277 NA
HETATM   25  C   UNL     1      -1.992  23.348   3.556  1.00  0.00     0.122 C 
HETATM   26  C   UNL     1      -0.839  22.808   4.370  1.00  0.00     0.182 C 
HETATM   27  O   UNL     1      -0.422  21.544   3.860  1.00  0.00    -0.389 OA
HETATM   28  C   UNL     1       0.008  21.667   2.502  1.00  0.00     0.182 C 
HETATM   29  C   UNL     1      -1.088  22.246   1.627  1.00  0.00     0.122 C 
ENDBRANCH   3  24
BRANCH   5  30
HETATM   30  C   UNL     1      -5.834  25.906   1.518  1.00  0.00     0.209 C 
HETATM   31  O   UNL     1      -6.679  26.303   0.681  1.00  0.00    -0.644 OA
HETATM   32  O   UNL     1      -6.063  25.838   2.744  1.00  0.00    -0.644 OA
ENDBRANCH   5  30
TORSDOF 4
ENDMDL
MODEL 7
REMARK VINA RESULT:    -8.072      7.686     10.819
REMARK INTER + INTRA:          -9.724
REMARK INTER:                  -8.816
REMARK INTRA:                  -0.908
REMARK UNBOUND:                 0.236
REMARK  4 active torsions:
REMARK  status: ('A' for Active; 'I' for Inactive)
REMARK       I    between atoms: C_1  and  N_14 
REMARK    1  A    between atoms: C_1  and  C_16 
REMARK    2  A    between atoms: C_2  and  C_11 
REMARK    3  A    between atoms: C_3  and  N_14 
REMARK    4  A    between atoms: C_6  and  N_22 
ROOT
HETATM    1  C   UNL     1       3.187  24.178  -4.773  1.00  0.00     0.152 A 
HETATM    2  C   UNL     1       4.708  25.275  -5.916  1.00  0.00     0.073 A 
HETATM    3  C   UNL     1       5.769  26.183  -6.166  1.00  0.00     0.040 A 
HETATM    4  C   UNL     1       6.366  26.186  -7.420  1.00  0.00     0.044 A 
HETATM    5  C   UNL     1       5.982  25.270  -8.392  1.00  0.00     0.043 A 
HETATM    6  N   UNL     1       4.033  25.153  -4.707  1.00  0.00    -0.334 N 
ATOM      7  HN  UNL     1       4.183  25.745  -3.890  1.00  0.00     0.168 HD
HETATM    8  C   UNL     1       4.927  24.394  -8.144  1.00  0.00     0.039 A 
HETATM    9  C   UNL     1       4.354  24.359  -6.880  1.00  0.00     0.038 A 
HETATM   10  S   UNL     1       3.064  23.339  -6.311  1.00  0.00    -0.052 SA
ENDROOT
BRANCH   1  11
HETATM   11  N   UNL     1       2.478  23.803  -3.653  1.00  0.00    -0.302 N 
HETATM   12  C   UNL     1       1.416  24.506  -3.169  1.00  0.00     0.276 C 
HETATM   13  O   UNL     1       1.161  25.642  -3.578  1.00  0.00    -0.266 OA
ATOM     14  HN  UNL     1       2.762  22.956  -3.161  1.00  0.00     0.171 HD
BRANCH  12  15
HETATM   15  C   UNL     1       0.605  23.878  -2.110  1.00  0.00     0.125 A 
HETATM   16  N   UNL     1       0.770  24.280  -0.790  1.00  0.00    -0.353 N 
HETATM   17  C   UNL     1      -0.079  23.583   0.004  1.00  0.00     0.029 A 
ATOM     18  HN  UNL     1       1.429  24.989  -0.469  1.00  0.00     0.166 HD
HETATM   19  C   UNL     1      -0.735  22.675  -0.804  1.00  0.00     0.080 A 
HETATM   20  C   UNL     1      -0.157  23.812   1.483  1.00  0.00     0.070 C 
HETATM   21  C   UNL     1      -0.333  22.877  -2.100  1.00  0.00     0.090 A 
HETATM   22 CL   UNL     1      -1.955  21.564  -0.324  1.00  0.00    -0.080 Cl
HETATM   23 CL   UNL     1      -0.912  21.986  -3.442  1.00  0.00    -0.080 Cl
ENDBRANCH  12  15
ENDBRANCH   1  11
BRANCH   3  24
HETATM   24  N   UNL     1       6.140  27.097  -5.166  1.00  0.00    -0.277 NA
HETATM   25  C   UNL     1       7.572  27.407  -5.122  1.00  0.00     0.122 C 
HETATM   26  C   UNL     1       7.858  28.174  -3.851  1.00  0.00     0.182 C 
HETATM   27  O   UNL     1       7.126  29.396  -3.835  1.00  0.00    -0.389 OA
HETATM   28  C   UNL     1       5.720  29.140  -3.895  1.00  0.00     0.182 C 
HETATM   29  C   UNL     1       5.359  28.333  -5.128  1.00  0.00     0.122 C 
ENDBRANCH   3  24
BRANCH   5  30
HETATM   30  C   UNL     1       6.646  25.265  -9.737  1.00  0.00     0.209 C 
HETATM   31  O   UNL     1       6.851  26.373 -10.289  1.00  0.00    -0.644 OA
HETATM   32  O   UNL     1       7.034  24.179 -10.215  1.00  0.00    -0.644 OA
ENDBRANCH   5  30
TORSDOF 4
ENDMDL
MODEL 8
REMARK VINA RESULT:    -8.038      4.344      7.080
REMARK INTER + INTRA:          -9.682
REMARK INTER:                  -8.992
REMARK INTRA:                  -0.690
REMARK UNBOUND:                 0.236
REMARK  4 active torsions:
REMARK  status: ('A' for Active; 'I' for Inactive)
REMARK       I    between atoms: C_1  and  N_14 
REMARK    1  A    between atoms: C_1  and  C_16 
REMARK    2  A    between atoms: C_2  and  C_11 
REMARK    3  A    between atoms: C_3  and  N_14 
REMARK    4  A    between atoms: C_6  and  N_22 
ROOT
HETATM    1  C   UNL     1      -0.091  23.854  -2.006  1.00  0.00     0.152 A 
HETATM    2  C   UNL     1      -1.108  23.773  -0.061  1.00  0.00     0.073 A 
HETATM    3  C   UNL     1      -1.302  23.481   1.314  1.00  0.00     0.040 A 
HETATM    4  C   UNL     1      -2.428  23.986   1.953  1.00  0.00     0.044 A 
HETATM    5  C   UNL     1      -3.311  24.822   1.280  1.00  0.00     0.043 A 
HETATM    6  N   UNL     1      -0.023  23.347  -0.818  1.00  0.00    -0.334 N 
ATOM      7  HN  UNL     1       0.716  22.727  -0.487  1.00  0.00     0.168 HD
HETATM    8  C   UNL     1      -3.121  25.089  -0.075  1.00  0.00     0.039 A 
HETATM    9  C   UNL     1      -1.979  24.619  -0.707  1.00  0.00     0.038 A 
HETATM   10  S   UNL     1      -1.494  24.848  -2.363  1.00  0.00    -0.052 SA
ENDROOT
BRANCH   1  11
HETATM   11  N   UNL     1       0.937  23.654  -2.901  1.00  0.00    -0.302 N 
HETATM   12  C   UNL     1       1.104  22.498  -3.604  1.00  0.00     0.276 C 
HETATM   13  O   UNL     1       0.469  21.480  -3.318  1.00  0.00    -0.266 OA
ATOM     14  HN  UNL     1       1.607  24.409  -3.045  1.00  0.00     0.171 HD
BRANCH  12  15
HETATM   15  C   UNL     1       2.097  22.497  -4.692  1.00  0.00     0.125 A 
HETATM   16  N   UNL     1       3.002  23.546  -4.798  1.00  0.00    -0.353 N 
HETATM   17  C   UNL     1       3.822  23.332  -5.855  1.00  0.00     0.029 A 
ATOM     18  HN  UNL     1       3.043  24.353  -4.175  1.00  0.00     0.166 HD
HETATM   19  C   UNL     1       3.386  22.177  -6.477  1.00  0.00     0.080 A 
HETATM   20  C   UNL     1       4.927  24.279  -6.213  1.00  0.00     0.070 C 
HETATM   21  C   UNL     1       2.348  21.656  -5.747  1.00  0.00     0.090 A 
HETATM   22 CL   UNL     1       4.090  21.420  -7.849  1.00  0.00    -0.080 Cl
HETATM   23 CL   UNL     1       1.518  20.211  -6.142  1.00  0.00    -0.080 Cl
ENDBRANCH  12  15
ENDBRANCH   1  11
BRANCH   3  24
HETATM   24  N   UNL     1      -0.393  22.636   1.972  1.00  0.00    -0.277 NA
HETATM   25  C   UNL     1      -0.469  22.677   3.435  1.00  0.00     0.122 C 
HETATM   26  C   UNL     1       0.725  21.941   3.999  1.00  0.00     0.182 C 
HETATM   27  O   UNL     1       0.709  20.579   3.579  1.00  0.00    -0.389 OA
HETATM   28  C   UNL     1       0.764  20.492   2.153  1.00  0.00     0.182 C 
HETATM   29  C   UNL     1      -0.384  21.247   1.511  1.00  0.00     0.122 C 
ENDBRANCH   3  24
BRANCH   5  30
HETATM   30  C   UNL     1      -4.512  25.382   1.983  1.00  0.00     0.209 C 
HETATM   31  O   UNL     1      -4.530  25.330   3.236  1.00  0.00    -0.644 OA
HETATM   32  O   UNL     1      -5.401  25.941   1.306  1.00  0.00    -0.644 OA
ENDBRANCH   5  30
TORSDOF 4
ENDMDL
MODEL 9
REMARK VINA RESULT:    -7.866      7.178     11.580
REMARK INTER + INTRA:          -9.470
REMARK INTER:                  -8.685
REMARK INTRA:                  -0.785
REMARK UNBOUND:                 0.236
REMARK  4 active torsions:
REMARK  status: ('A' for Active; 'I' for Inactive)
REMARK       I    between atoms: C_1  and  N_14 
REMARK    1  A    between atoms: C_1  and  C_16 
REMARK    2  A    between atoms: C_2  and  C_11 
REMARK    3  A    between atoms: C_3  and  N_14 
REMARK    4  A    between atoms: C_6  and  N_22 
ROOT
HETATM    1  C   UNL     1      -3.886  20.908  -7.052  1.00  0.00     0.152 A 
HETATM    2  C   UNL     1      -1.856  20.784  -6.223  1.00  0.00     0.073 A 
HETATM    3  C   UNL     1      -0.743  21.111  -5.406  1.00  0.00     0.040 A 
HETATM    4  C   UNL     1       0.370  20.280  -5.426  1.00  0.00     0.044 A 
HETATM    5  C   UNL     1       0.369  19.110  -6.176  1.00  0.00     0.043 A 
HETATM    6  N   UNL     1      -3.036  21.515  -6.289  1.00  0.00    -0.334 N 
ATOM      7  HN  UNL     1      -3.206  22.399  -5.809  1.00  0.00     0.168 HD
HETATM    8  C   UNL     1      -0.721  18.806  -6.989  1.00  0.00     0.039 A 
HETATM    9  C   UNL     1      -1.850  19.611  -6.943  1.00  0.00     0.038 A 
HETATM   10  S   UNL     1      -3.342  19.425  -7.820  1.00  0.00    -0.052 SA
ENDROOT
BRANCH   1  11
HETATM   11  N   UNL     1      -5.167  21.396  -7.181  1.00  0.00    -0.302 N 
HETATM   12  C   UNL     1      -6.224  20.927  -6.460  1.00  0.00     0.276 C 
HETATM   13  O   UNL     1      -6.138  19.885  -5.804  1.00  0.00    -0.266 OA
ATOM     14  HN  UNL     1      -5.334  22.147  -7.852  1.00  0.00     0.171 HD
BRANCH  12  15
HETATM   15  C   UNL     1      -7.486  21.685  -6.523  1.00  0.00     0.125 A 
HETATM   16  N   UNL     1      -8.031  22.011  -7.759  1.00  0.00    -0.353 N 
HETATM   17  C   UNL     1      -9.188  22.693  -7.578  1.00  0.00     0.029 A 
ATOM     18  HN  UNL     1      -7.622  21.775  -8.663  1.00  0.00     0.166 HD
HETATM   19  C   UNL     1      -9.342  22.872  -6.216  1.00  0.00     0.080 A 
HETATM   20  C   UNL     1     -10.027  23.161  -8.728  1.00  0.00     0.070 C 
HETATM   21  C   UNL     1      -8.314  22.231  -5.574  1.00  0.00     0.090 A 
HETATM   22 CL   UNL     1     -10.660  23.639  -5.423  1.00  0.00    -0.080 Cl
HETATM   23 CL   UNL     1      -8.122  22.174  -3.874  1.00  0.00    -0.080 Cl
ENDBRANCH  12  15
ENDBRANCH   1  11
BRANCH   3  24
HETATM   24  N   UNL     1      -0.768  22.298  -4.655  1.00  0.00    -0.277 NA
HETATM   25  C   UNL     1      -1.037  22.112  -3.227  1.00  0.00     0.122 C 
HETATM   26  C   UNL     1      -1.301  23.465  -2.607  1.00  0.00     0.182 C 
HETATM   27  O   UNL     1      -0.160  24.306  -2.751  1.00  0.00    -0.389 OA
HETATM   28  C   UNL     1       0.150  24.501  -4.134  1.00  0.00     0.182 C 
HETATM   29  C   UNL     1       0.387  23.178  -4.836  1.00  0.00     0.122 C 
ENDBRANCH   3  24
BRANCH   5  30
HETATM   30  C   UNL     1       1.566  18.206  -6.176  1.00  0.00     0.209 C 
HETATM   31  O   UNL     1       2.121  17.974  -7.277  1.00  0.00    -0.644 OA
HETATM   32  O   UNL     1       2.006  17.787  -5.085  1.00  0.00    -0.644 OA
ENDBRANCH   5  30
TORSDOF 4
ENDMDL
MODEL 10
REMARK VINA RESULT:    -7.821      4.721      7.344
REMARK INTER + INTRA:          -9.414
REMARK INTER:                  -8.534
REMARK INTRA:                  -0.879
REMARK UNBOUND:                 0.236
REMARK  4 active torsions:
REMARK  status: ('A' for Active; 'I' for Inactive)
REMARK       I    between atoms: C_1  and  N_14 
REMARK    1  A    between atoms: C_1  and  C_16 
REMARK    2  A    between atoms: C_2  and  C_11 
REMARK    3  A    between atoms: C_3  and  N_14 
REMARK    4  A    between atoms: C_6  and  N_22 
ROOT
HETATM    1  C   UNL     1      -0.666  24.550  -3.669  1.00  0.00     0.152 A 
HETATM    2  C   UNL     1      -0.930  25.618  -1.768  1.00  0.00     0.073 A 
HETATM    3  C   UNL     1      -1.101  25.801  -0.371  1.00  0.00     0.040 A 
HETATM    4  C   UNL     1      -1.054  27.090   0.146  1.00  0.00     0.044 A 
HETATM    5  C   UNL     1      -0.774  28.174  -0.677  1.00  0.00     0.043 A 
HETATM    6  N   UNL     1      -0.939  24.388  -2.415  1.00  0.00    -0.334 N 
ATOM      7  HN  UNL     1      -1.131  23.491  -1.968  1.00  0.00     0.168 HD
HETATM    8  C   UNL     1      -0.626  27.987  -2.049  1.00  0.00     0.039 A 
HETATM    9  C   UNL     1      -0.632  26.699  -2.565  1.00  0.00     0.038 A 
HETATM   10  S   UNL     1      -0.429  26.201  -4.220  1.00  0.00    -0.052 SA
ENDROOT
BRANCH   1  11
HETATM   11  N   UNL     1      -0.514  23.454  -4.489  1.00  0.00    -0.302 N 
HETATM   12  C   UNL     1       0.051  22.284  -4.078  1.00  0.00     0.276 C 
HETATM   13  O   UNL     1       0.661  22.210  -3.008  1.00  0.00    -0.266 OA
ATOM     14  HN  UNL     1      -0.841  23.521  -5.453  1.00  0.00     0.171 HD
BRANCH  12  15
HETATM   15  C   UNL     1      -0.056  21.120  -4.975  1.00  0.00     0.125 A 
HETATM   16  N   UNL     1       1.023  20.255  -5.111  1.00  0.00    -0.353 N 
HETATM   17  C   UNL     1       0.699  19.258  -5.970  1.00  0.00     0.029 A 
ATOM     18  HN  UNL     1       1.921  20.356  -4.638  1.00  0.00     0.166 HD
HETATM   19  C   UNL     1      -0.568  19.532  -6.447  1.00  0.00     0.080 A 
HETATM   20  C   UNL     1       1.651  18.150  -6.302  1.00  0.00     0.070 C 
HETATM   21  C   UNL     1      -1.037  20.656  -5.816  1.00  0.00     0.090 A 
HETATM   22 CL   UNL     1      -1.486  18.572  -7.537  1.00  0.00    -0.080 Cl
HETATM   23 CL   UNL     1      -2.581  21.344  -6.086  1.00  0.00    -0.080 Cl
ENDBRANCH  12  15
ENDBRANCH   1  11
BRANCH   3  24
HETATM   24  N   UNL     1      -1.380  24.687   0.438  1.00  0.00    -0.277 NA
HETATM   25  C   UNL     1      -0.372  24.410   1.465  1.00  0.00     0.122 C 
HETATM   26  C   UNL     1      -0.660  23.054   2.067  1.00  0.00     0.182 C 
HETATM   27  O   UNL     1      -1.947  23.047   2.678  1.00  0.00    -0.389 OA
HETATM   28  C   UNL     1      -2.963  23.332   1.712  1.00  0.00     0.182 C 
HETATM   29  C   UNL     1      -2.717  24.665   1.032  1.00  0.00     0.122 C 
ENDBRANCH   3  24
BRANCH   5  30
HETATM   30  C   UNL     1      -0.704  29.561  -0.108  1.00  0.00     0.209 C 
HETATM   31  O   UNL     1       0.418  30.120  -0.074  1.00  0.00    -0.644 OA
HETATM   32  O   UNL     1      -1.763  30.127   0.235  1.00  0.00    -0.644 OA
ENDBRANCH   5  30
TORSDOF 4
ENDMDL
MODEL 11
REMARK VINA RESULT:    -7.787      8.817     11.844
REMARK INTER + INTRA:          -9.372
REMARK INTER:                  -8.350
REMARK INTRA:                  -1.022
REMARK UNBOUND:                 0.236
REMARK  4 active torsions:
REMARK  status: ('A' for Active; 'I' for Inactive)
REMARK       I    between atoms: C_1  and  N_14 
REMARK    1  A    between atoms: C_1  and  C_16 
REMARK    2  A    between atoms: C_2  and  C_11 
REMARK    3  A    between atoms: C_3  and  N_14 
REMARK    4  A    between atoms: C_6  and  N_22 
ROOT
HETATM    1  C   UNL     1       4.465  27.749  -4.489  1.00  0.00     0.152 A 
HETATM    2  C   UNL     1       4.777  26.169  -5.982  1.00  0.00     0.073 A 
HETATM    3  C   UNL     1       4.508  25.003  -6.743  1.00  0.00     0.040 A 
HETATM    4  C   UNL     1       5.349  24.686  -7.803  1.00  0.00     0.044 A 
HETATM    5  C   UNL     1       6.392  25.532  -8.159  1.00  0.00     0.043 A 
HETATM    6  N   UNL     1       4.013  26.613  -4.909  1.00  0.00    -0.334 N 
ATOM      7  HN  UNL     1       3.216  26.116  -4.512  1.00  0.00     0.168 HD
HETATM    8  C   UNL     1       6.660  26.666  -7.394  1.00  0.00     0.039 A 
HETATM    9  C   UNL     1       5.800  27.008  -6.360  1.00  0.00     0.038 A 
HETATM   10  S   UNL     1       5.892  28.381  -5.295  1.00  0.00    -0.052 SA
ENDROOT
BRANCH   1  11
HETATM   11  N   UNL     1       3.797  28.433  -3.497  1.00  0.00    -0.302 N 
HETATM   12  C   UNL     1       2.553  28.965  -3.661  1.00  0.00     0.276 C 
HETATM   13  O   UNL     1       2.040  29.056  -4.779  1.00  0.00    -0.266 OA
ATOM     14  HN  UNL     1       4.256  28.547  -2.593  1.00  0.00     0.171 HD
BRANCH  12  15
HETATM   15  C   UNL     1       1.858  29.464  -2.461  1.00  0.00     0.125 A 
HETATM   16  N   UNL     1       2.314  30.617  -1.833  1.00  0.00    -0.353 N 
HETATM   17  C   UNL     1       1.524  30.894  -0.767  1.00  0.00     0.029 A 
ATOM     18  HN  UNL     1       3.118  31.169  -2.129  1.00  0.00     0.166 HD
HETATM   19  C   UNL     1       0.606  29.866  -0.667  1.00  0.00     0.080 A 
HETATM   20  C   UNL     1       1.745  32.096   0.099  1.00  0.00     0.070 C 
HETATM   21  C   UNL     1       0.797  29.008  -1.720  1.00  0.00     0.090 A 
HETATM   22 CL   UNL     1      -0.662  29.730   0.485  1.00  0.00    -0.080 Cl
HETATM   23 CL   UNL     1      -0.139  27.603  -2.004  1.00  0.00    -0.080 Cl
ENDBRANCH  12  15
ENDBRANCH   1  11
BRANCH   3  24
HETATM   24  N   UNL     1       3.445  24.166  -6.364  1.00  0.00    -0.277 NA
HETATM   25  C   UNL     1       2.191  24.407  -7.083  1.00  0.00     0.122 C 
HETATM   26  C   UNL     1       1.087  23.638  -6.395  1.00  0.00     0.182 C 
HETATM   27  O   UNL     1       1.367  22.241  -6.421  1.00  0.00    -0.389 OA
HETATM   28  C   UNL     1       2.595  21.962  -5.744  1.00  0.00     0.182 C 
HETATM   29  C   UNL     1       3.748  22.735  -6.354  1.00  0.00     0.122 C 
ENDBRANCH   3  24
BRANCH   5  30
HETATM   30  C   UNL     1       7.283  25.194  -9.318  1.00  0.00     0.209 C 
HETATM   31  O   UNL     1       6.931  24.252 -10.067  1.00  0.00    -0.644 OA
HETATM   32  O   UNL     1       8.286  25.905  -9.535  1.00  0.00    -0.644 OA
ENDBRANCH   5  30
TORSDOF 4
ENDMDL
MODEL 12
REMARK VINA RESULT:    -7.619      2.459      2.961
REMARK INTER + INTRA:          -9.165
REMARK INTER:                  -8.316
REMARK INTRA:                  -0.848
REMARK UNBOUND:                 0.236
REMARK  4 active torsions:
REMARK  status: ('A' for Active; 'I' for Inactive)
REMARK       I    between atoms: C_1  and  N_14 
REMARK    1  A    between atoms: C_1  and  C_16 
REMARK    2  A    between atoms: C_2  and  C_11 
REMARK    3  A    between atoms: C_3  and  N_14 
REMARK    4  A    between atoms: C_6  and  N_22 
ROOT
HETATM    1  C   UNL     1      -2.391  24.169   1.545  1.00  0.00     0.152 A 
HETATM    2  C   UNL     1      -2.794  25.804   0.135  1.00  0.00     0.073 A 
HETATM    3  C   UNL     1      -2.562  26.720  -0.923  1.00  0.00     0.040 A 
HETATM    4  C   UNL     1      -3.610  27.522  -1.357  1.00  0.00     0.044 A 
HETATM    5  C   UNL     1      -4.882  27.382  -0.815  1.00  0.00     0.043 A 
HETATM    6  N   UNL     1      -1.844  24.933   0.657  1.00  0.00    -0.334 N 
ATOM      7  HN  UNL     1      -0.863  24.903   0.380  1.00  0.00     0.168 HD
HETATM    8  C   UNL     1      -5.097  26.492   0.236  1.00  0.00     0.039 A 
HETATM    9  C   UNL     1      -4.064  25.661   0.646  1.00  0.00     0.038 A 
HETATM   10  S   UNL     1      -4.088  24.450   1.895  1.00  0.00    -0.052 SA
ENDROOT
BRANCH   1  11
HETATM   11  N   UNL     1      -1.662  23.152   2.122  1.00  0.00    -0.302 N 
HETATM   12  C   UNL     1      -0.894  22.282   1.407  1.00  0.00     0.276 C 
HETATM   13  O   UNL     1      -0.980  22.216   0.178  1.00  0.00    -0.266 OA
ATOM     14  HN  UNL     1      -1.698  23.045   3.135  1.00  0.00     0.171 HD
BRANCH  12  15
HETATM   15  C   UNL     1       0.012  21.394   2.156  1.00  0.00     0.125 A 
HETATM   16  N   UNL     1       0.527  20.260   1.540  1.00  0.00    -0.353 N 
HETATM   17  C   UNL     1       1.339  19.604   2.404  1.00  0.00     0.029 A 
ATOM     18  HN  UNL     1       0.325  19.966   0.584  1.00  0.00     0.166 HD
HETATM   19  C   UNL     1       1.279  20.281   3.607  1.00  0.00     0.080 A 
HETATM   20  C   UNL     1       2.068  18.352   2.022  1.00  0.00     0.070 C 
HETATM   21  C   UNL     1       0.488  21.390   3.443  1.00  0.00     0.090 A 
HETATM   22 CL   UNL     1       2.147  19.906   5.042  1.00  0.00    -0.080 Cl
HETATM   23 CL   UNL     1       0.156  22.532   4.675  1.00  0.00    -0.080 Cl
ENDBRANCH  12  15
ENDBRANCH   1  11
BRANCH   3  24
HETATM   24  N   UNL     1      -1.267  26.840  -1.455  1.00  0.00    -0.277 NA
HETATM   25  C   UNL     1      -1.027  26.046  -2.664  1.00  0.00     0.122 C 
HETATM   26  C   UNL     1       0.455  26.059  -2.960  1.00  0.00     0.182 C 
HETATM   27  O   UNL     1       0.901  27.393  -3.193  1.00  0.00    -0.389 OA
HETATM   28  C   UNL     1       0.669  28.209  -2.042  1.00  0.00     0.182 C 
HETATM   29  C   UNL     1      -0.798  28.211  -1.656  1.00  0.00     0.122 C 
ENDBRANCH   3  24
BRANCH   5  30
HETATM   30  C   UNL     1      -6.014  28.236  -1.304  1.00  0.00     0.209 C 
HETATM   31  O   UNL     1      -6.517  27.956  -2.418  1.00  0.00    -0.644 OA
HETATM   32  O   UNL     1      -6.458  29.134  -0.558  1.00  0.00    -0.644 OA
ENDBRANCH   5  30
TORSDOF 4
ENDMDL
MODEL 13
REMARK VINA RESULT:    -7.575      4.082      5.901
REMARK INTER + INTRA:          -9.110
REMARK INTER:                  -8.050
REMARK INTRA:                  -1.060
REMARK UNBOUND:                 0.236
REMARK  4 active torsions:
REMARK  status: ('A' for Active; 'I' for Inactive)
REMARK       I    between atoms: C_1  and  N_14 
REMARK    1  A    between atoms: C_1  and  C_16 
REMARK    2  A    between atoms: C_2  and  C_11 
REMARK    3  A    between atoms: C_3  and  N_14 
REMARK    4  A    between atoms: C_6  and  N_22 
ROOT
HETATM    1  C   UNL     1      -1.807  22.857  -1.700  1.00  0.00     0.152 A 
HETATM    2  C   UNL     1      -1.842  22.491  -3.865  1.00  0.00     0.073 A 
HETATM    3  C   UNL     1      -1.458  21.942  -5.116  1.00  0.00     0.040 A 
HETATM    4  C   UNL     1      -2.250  22.194  -6.229  1.00  0.00     0.044 A 
HETATM    5  C   UNL     1      -3.436  22.909  -6.109  1.00  0.00     0.043 A 
HETATM    6  N   UNL     1      -1.153  22.308  -2.672  1.00  0.00    -0.334 N 
ATOM      7  HN  UNL     1      -0.265  21.815  -2.577  1.00  0.00     0.168 HD
HETATM    8  C   UNL     1      -3.796  23.458  -4.881  1.00  0.00     0.039 A 
HETATM    9  C   UNL     1      -3.029  23.178  -3.759  1.00  0.00     0.038 A 
HETATM   10  S   UNL     1      -3.286  23.704  -2.120  1.00  0.00    -0.052 SA
ENDROOT
BRANCH   1  11
HETATM   11  N   UNL     1      -1.366  22.710  -0.403  1.00  0.00    -0.302 N 
HETATM   12  C   UNL     1      -1.093  21.501   0.163  1.00  0.00     0.276 C 
HETATM   13  O   UNL     1      -1.435  20.448  -0.384  1.00  0.00    -0.266 OA
ATOM     14  HN  UNL     1      -1.237  23.549   0.162  1.00  0.00     0.171 HD
BRANCH  12  15
HETATM   15  C   UNL     1      -0.412  21.494   1.469  1.00  0.00     0.125 A 
HETATM   16  N   UNL     1      -0.677  22.504   2.387  1.00  0.00    -0.353 N 
HETATM   17  C   UNL     1       0.046  22.292   3.514  1.00  0.00     0.029 A 
ATOM     18  HN  UNL     1      -1.317  23.284   2.235  1.00  0.00     0.166 HD
HETATM   19  C   UNL     1       0.838  21.184   3.283  1.00  0.00     0.080 A 
HETATM   20  C   UNL     1      -0.045  23.200   4.702  1.00  0.00     0.070 C 
HETATM   21  C   UNL     1       0.535  20.683   2.042  1.00  0.00     0.090 A 
HETATM   22 CL   UNL     1       1.924  20.447   4.393  1.00  0.00    -0.080 Cl
HETATM   23 CL   UNL     1       1.264  19.294   1.355  1.00  0.00    -0.080 Cl
ENDBRANCH  12  15
ENDBRANCH   1  11
BRANCH   3  24
HETATM   24  N   UNL     1      -0.256  21.222  -5.210  1.00  0.00    -0.277 NA
HETATM   25  C   UNL     1      -0.386  19.891  -5.811  1.00  0.00     0.122 C 
HETATM   26  C   UNL     1       0.908  19.140  -5.600  1.00  0.00     0.182 C 
HETATM   27  O   UNL     1       1.986  19.824  -6.234  1.00  0.00    -0.389 OA
HETATM   28  C   UNL     1       2.138  21.137  -5.689  1.00  0.00     0.182 C 
HETATM   29  C   UNL     1       0.859  21.941  -5.826  1.00  0.00     0.122 C 
ENDBRANCH   3  24
BRANCH   5  30
HETATM   30  C   UNL     1      -4.298  23.157  -7.312  1.00  0.00     0.209 C 
HETATM   31  O   UNL     1      -4.494  24.349  -7.652  1.00  0.00    -0.644 OA
HETATM   32  O   UNL     1      -4.719  22.180  -7.965  1.00  0.00    -0.644 OA
ENDBRANCH   5  30
TORSDOF 4
ENDMDL
MODEL 14
REMARK VINA RESULT:    -7.574      7.779     10.895
REMARK INTER + INTRA:          -9.109
REMARK INTER:                  -8.175
REMARK INTRA:                  -0.934
REMARK UNBOUND:                 0.236
REMARK  4 active torsions:
REMARK  status: ('A' for Active; 'I' for Inactive)
REMARK       I    between atoms: C_1  and  N_14 
REMARK    1  A    between atoms: C_1  and  C_16 
REMARK    2  A    between atoms: C_2  and  C_11 
REMARK    3  A    between atoms: C_3  and  N_14 
REMARK    4  A    between atoms: C_6  and  N_22 
ROOT
HETATM    1  C   UNL     1       3.166  24.469  -4.586  1.00  0.00     0.152 A 
HETATM    2  C   UNL     1       4.701  25.466  -5.799  1.00  0.00     0.073 A 
HETATM    3  C   UNL     1       5.784  26.330  -6.106  1.00  0.00     0.040 A 
HETATM    4  C   UNL     1       6.363  26.257  -7.366  1.00  0.00     0.044 A 
HETATM    5  C   UNL     1       5.940  25.306  -8.287  1.00  0.00     0.043 A 
HETATM    6  N   UNL     1       4.040  25.422  -4.577  1.00  0.00    -0.334 N 
ATOM      7  HN  UNL     1       4.218  26.048  -3.792  1.00  0.00     0.168 HD
HETATM    8  C   UNL     1       4.865  24.473  -7.984  1.00  0.00     0.039 A 
HETATM    9  C   UNL     1       4.309  24.516  -6.713  1.00  0.00     0.038 A 
HETATM   10  S   UNL     1       2.999  23.561  -6.080  1.00  0.00    -0.052 SA
ENDROOT
BRANCH   1  11
HETATM   11  N   UNL     1       2.463  24.169  -3.440  1.00  0.00    -0.302 N 
HETATM   12  C   UNL     1       1.350  24.849  -3.044  1.00  0.00     0.276 C 
HETATM   13  O   UNL     1       1.033  25.917  -3.574  1.00  0.00    -0.266 OA
ATOM     14  HN  UNL     1       2.791  23.398  -2.858  1.00  0.00     0.171 HD
BRANCH  12  15
HETATM   15  C   UNL     1       0.562  24.285  -1.934  1.00  0.00     0.125 A 
HETATM   16  N   UNL     1       0.360  22.912  -1.863  1.00  0.00    -0.353 N 
HETATM   17  C   UNL     1      -0.377  22.620  -0.764  1.00  0.00     0.029 A 
ATOM     18  HN  UNL     1       0.711  22.231  -2.536  1.00  0.00     0.166 HD
HETATM   19  C   UNL     1      -0.714  23.822  -0.172  1.00  0.00     0.080 A 
HETATM   20  C   UNL     1      -0.740  21.213  -0.398  1.00  0.00     0.070 C 
HETATM   21  C   UNL     1      -0.115  24.836  -0.875  1.00  0.00     0.090 A 
HETATM   22 CL   UNL     1      -1.609  24.037   1.279  1.00  0.00    -0.080 Cl
HETATM   23 CL   UNL     1      -0.244  26.496  -0.477  1.00  0.00    -0.080 Cl
ENDBRANCH  12  15
ENDBRANCH   1  11
BRANCH   3  24
HETATM   24  N   UNL     1       6.193  27.281  -5.156  1.00  0.00    -0.277 NA
HETATM   25  C   UNL     1       7.644  27.477  -5.074  1.00  0.00     0.122 C 
HETATM   26  C   UNL     1       7.948  28.307  -3.848  1.00  0.00     0.182 C 
HETATM   27  O   UNL     1       7.319  29.582  -3.946  1.00  0.00    -0.389 OA
HETATM   28  C   UNL     1       5.900  29.437  -4.047  1.00  0.00     0.182 C 
HETATM   29  C   UNL     1       5.518  28.576  -5.235  1.00  0.00     0.122 C 
ENDBRANCH   3  24
BRANCH   5  30
HETATM   30  C   UNL     1       6.586  25.218  -9.639  1.00  0.00     0.209 C 
HETATM   31  O   UNL     1       6.741  26.284 -10.281  1.00  0.00    -0.644 OA
HETATM   32  O   UNL     1       7.008  24.111 -10.035  1.00  0.00    -0.644 OA
ENDBRANCH   5  30
TORSDOF 4
ENDMDL
MODEL 15
REMARK VINA RESULT:    -7.569      4.740      8.126
REMARK INTER + INTRA:          -9.103
REMARK INTER:                  -8.191
REMARK INTRA:                  -0.912
REMARK UNBOUND:                 0.236
REMARK  4 active torsions:
REMARK  status: ('A' for Active; 'I' for Inactive)
REMARK       I    between atoms: C_1  and  N_14 
REMARK    1  A    between atoms: C_1  and  C_16 
REMARK    2  A    between atoms: C_2  and  C_11 
REMARK    3  A    between atoms: C_3  and  N_14 
REMARK    4  A    between atoms: C_6  and  N_22 
ROOT
HETATM    1  C   UNL     1       0.087  24.504  -2.571  1.00  0.00     0.152 A 
HETATM    2  C   UNL     1       0.992  23.788  -4.440  1.00  0.00     0.073 A 
HETATM    3  C   UNL     1       1.269  22.909  -5.518  1.00  0.00     0.040 A 
HETATM    4  C   UNL     1       2.033  23.373  -6.582  1.00  0.00     0.044 A 
HETATM    5  C   UNL     1       2.458  24.695  -6.626  1.00  0.00     0.043 A 
HETATM    6  N   UNL     1       0.231  23.462  -3.323  1.00  0.00    -0.334 N 
ATOM      7  HN  UNL     1      -0.156  22.539  -3.127  1.00  0.00     0.168 HD
HETATM    8  C   UNL     1       2.196  25.547  -5.554  1.00  0.00     0.039 A 
HETATM    9  C   UNL     1       1.401  25.100  -4.509  1.00  0.00     0.038 A 
HETATM   10  S   UNL     1       0.899  25.973  -3.089  1.00  0.00    -0.052 SA
ENDROOT
BRANCH   1  11
HETATM   11  N   UNL     1      -0.722  24.445  -1.458  1.00  0.00    -0.302 N 
HETATM   12  C   UNL     1      -0.657  23.442  -0.537  1.00  0.00     0.276 C 
HETATM   13  O   UNL     1      -0.017  22.411  -0.760  1.00  0.00    -0.266 OA
ATOM     14  HN  UNL     1      -1.405  25.189  -1.316  1.00  0.00     0.171 HD
BRANCH  12  15
HETATM   15  C   UNL     1      -1.408  23.616   0.718  1.00  0.00     0.125 A 
HETATM   16  N   UNL     1      -2.593  24.342   0.714  1.00  0.00    -0.353 N 
HETATM   17  C   UNL     1      -3.116  24.362   1.965  1.00  0.00     0.029 A 
ATOM     18  HN  UNL     1      -3.005  24.791  -0.103  1.00  0.00     0.166 HD
HETATM   19  C   UNL     1      -2.217  23.712   2.789  1.00  0.00     0.080 A 
HETATM   20  C   UNL     1      -4.411  25.048   2.278  1.00  0.00     0.070 C 
HETATM   21  C   UNL     1      -1.188  23.233   2.017  1.00  0.00     0.090 A 
HETATM   22 CL   UNL     1      -2.397  23.411   4.471  1.00  0.00    -0.080 Cl
HETATM   23 CL   UNL     1       0.140  22.340   2.625  1.00  0.00    -0.080 Cl
ENDBRANCH  12  15
ENDBRANCH   1  11
BRANCH   3  24
HETATM   24  N   UNL     1       0.825  21.577  -5.450  1.00  0.00    -0.277 NA
HETATM   25  C   UNL     1      -0.435  21.317  -6.152  1.00  0.00     0.122 C 
HETATM   26  C   UNL     1      -0.921  19.937  -5.771  1.00  0.00     0.182 C 
HETATM   27  O   UNL     1       0.032  18.952  -6.161  1.00  0.00    -0.389 OA
HETATM   28  C   UNL     1       1.286  19.180  -5.511  1.00  0.00     0.182 C 
HETATM   29  C   UNL     1       1.818  20.567  -5.813  1.00  0.00     0.122 C 
ENDBRANCH   3  24
BRANCH   5  30
HETATM   30  C   UNL     1       3.264  25.195  -7.788  1.00  0.00     0.209 C 
HETATM   31  O   UNL     1       4.423  24.737  -7.933  1.00  0.00    -0.644 OA
HETATM   32  O   UNL     1       2.730  25.980  -8.600  1.00  0.00    -0.644 OA
ENDBRANCH   5  30
TORSDOF 4
ENDMDL
MODEL 16
REMARK VINA RESULT:    -7.563      4.415      8.868
REMARK INTER + INTRA:          -9.096
REMARK INTER:                  -8.037
REMARK INTRA:                  -1.059
REMARK UNBOUND:                 0.236
REMARK  4 active torsions:
REMARK  status: ('A' for Active; 'I' for Inactive)
REMARK       I    between atoms: C_1  and  N_14 
REMARK    1  A    between atoms: C_1  and  C_16 
REMARK    2  A    between atoms: C_2  and  C_11 
REMARK    3  A    between atoms: C_3  and  N_14 
REMARK    4  A    between atoms: C_6  and  N_22 
ROOT
HETATM    1  C   UNL     1      -4.755  25.452   0.648  1.00  0.00     0.152 A 
HETATM    2  C   UNL     1      -2.976  24.214   1.001  1.00  0.00     0.073 A 
HETATM    3  C   UNL     1      -1.762  23.538   0.715  1.00  0.00     0.040 A 
HETATM    4  C   UNL     1      -1.059  22.952   1.760  1.00  0.00     0.044 A 
HETATM    5  C   UNL     1      -1.496  23.085   3.072  1.00  0.00     0.043 A 
HETATM    6  N   UNL     1      -3.770  24.856   0.059  1.00  0.00    -0.334 N 
ATOM      7  HN  UNL     1      -3.602  24.857  -0.947  1.00  0.00     0.168 HD
HETATM    8  C   UNL     1      -2.699  23.735   3.342  1.00  0.00     0.039 A 
HETATM    9  C   UNL     1      -3.384  24.356   2.308  1.00  0.00     0.038 A 
HETATM   10  S   UNL     1      -4.870  25.257   2.390  1.00  0.00    -0.052 SA
ENDROOT
BRANCH   1  11
HETATM   11  N   UNL     1      -5.617  26.244  -0.079  1.00  0.00    -0.302 N 
HETATM   12  C   UNL     1      -5.217  27.352  -0.764  1.00  0.00     0.276 C 
HETATM   13  O   UNL     1      -4.095  27.838  -0.595  1.00  0.00    -0.266 OA
ATOM     14  HN  UNL     1      -6.604  25.989  -0.105  1.00  0.00     0.171 HD
BRANCH  12  15
HETATM   15  C   UNL     1      -6.185  27.974  -1.684  1.00  0.00     0.125 A 
HETATM   16  N   UNL     1      -6.543  29.305  -1.507  1.00  0.00    -0.353 N 
HETATM   17  C   UNL     1      -7.429  29.667  -2.467  1.00  0.00     0.029 A 
ATOM     18  HN  UNL     1      -6.193  29.916  -0.769  1.00  0.00     0.166 HD
HETATM   19  C   UNL     1      -7.700  28.536  -3.214  1.00  0.00     0.080 A 
HETATM   20  C   UNL     1      -7.983  31.056  -2.560  1.00  0.00     0.070 C 
HETATM   21  C   UNL     1      -6.916  27.510  -2.748  1.00  0.00     0.090 A 
HETATM   22 CL   UNL     1      -8.728  28.432  -4.586  1.00  0.00    -0.080 Cl
HETATM   23 CL   UNL     1      -6.909  25.927  -3.400  1.00  0.00    -0.080 Cl
ENDBRANCH  12  15
ENDBRANCH   1  11
BRANCH   3  24
HETATM   24  N   UNL     1      -1.341  23.421  -0.620  1.00  0.00    -0.277 NA
HETATM   25  C   UNL     1      -0.002  23.954  -0.888  1.00  0.00     0.122 C 
HETATM   26  C   UNL     1       0.203  24.007  -2.384  1.00  0.00     0.182 C 
HETATM   27  O   UNL     1       0.113  22.699  -2.943  1.00  0.00    -0.389 OA
HETATM   28  C   UNL     1      -1.175  22.132  -2.689  1.00  0.00     0.182 C 
HETATM   29  C   UNL     1      -1.472  22.085  -1.202  1.00  0.00     0.122 C 
ENDBRANCH   3  24
BRANCH   5  30
HETATM   30  C   UNL     1      -0.720  22.468   4.198  1.00  0.00     0.209 C 
HETATM   31  O   UNL     1      -1.118  22.685   5.367  1.00  0.00    -0.644 OA
HETATM   32  O   UNL     1       0.233  21.707   3.928  1.00  0.00    -0.644 OA
ENDBRANCH   5  30
TORSDOF 4
ENDMDL
MODEL 17
REMARK VINA RESULT:    -7.549      4.787      8.967
REMARK INTER + INTRA:          -9.078
REMARK INTER:                  -8.053
REMARK INTRA:                  -1.025
REMARK UNBOUND:                 0.236
REMARK  4 active torsions:
REMARK  status: ('A' for Active; 'I' for Inactive)
REMARK       I    between atoms: C_1  and  N_14 
REMARK    1  A    between atoms: C_1  and  C_16 
REMARK    2  A    between atoms: C_2  and  C_11 
REMARK    3  A    between atoms: C_3  and  N_14 
REMARK    4  A    between atoms: C_6  and  N_22 
ROOT
HETATM    1  C   UNL     1      -4.737  25.469   0.636  1.00  0.00     0.152 A 
HETATM    2  C   UNL     1      -2.970  24.214   0.995  1.00  0.00     0.073 A 
HETATM    3  C   UNL     1      -1.762  23.526   0.712  1.00  0.00     0.040 A 
HETATM    4  C   UNL     1      -1.067  22.935   1.759  1.00  0.00     0.044 A 
HETATM    5  C   UNL     1      -1.506  23.074   3.070  1.00  0.00     0.043 A 
HETATM    6  N   UNL     1      -3.757  24.862   0.050  1.00  0.00    -0.334 N 
ATOM      7  HN  UNL     1      -3.586  24.860  -0.956  1.00  0.00     0.168 HD
HETATM    8  C   UNL     1      -2.703  23.736   3.337  1.00  0.00     0.039 A 
HETATM    9  C   UNL     1      -3.380  24.362   2.300  1.00  0.00     0.038 A 
HETATM   10  S   UNL     1      -4.857  25.278   2.378  1.00  0.00    -0.052 SA
ENDROOT
BRANCH   1  11
HETATM   11  N   UNL     1      -5.589  26.268  -0.094  1.00  0.00    -0.302 N 
HETATM   12  C   UNL     1      -5.177  27.370  -0.782  1.00  0.00     0.276 C 
HETATM   13  O   UNL     1      -4.050  27.843  -0.614  1.00  0.00    -0.266 OA
ATOM     14  HN  UNL     1      -6.579  26.023  -0.121  1.00  0.00     0.171 HD
BRANCH  12  15
HETATM   15  C   UNL     1      -6.138  27.999  -1.705  1.00  0.00     0.125 A 
HETATM   16  N   UNL     1      -5.789  28.186  -3.038  1.00  0.00    -0.353 N 
HETATM   17  C   UNL     1      -6.820  28.766  -3.699  1.00  0.00     0.029 A 
ATOM     18  HN  UNL     1      -4.894  27.926  -3.453  1.00  0.00     0.166 HD
HETATM   19  C   UNL     1      -7.804  29.025  -2.764  1.00  0.00     0.080 A 
HETATM   20  C   UNL     1      -6.758  29.071  -5.164  1.00  0.00     0.070 C 
HETATM   21  C   UNL     1      -7.394  28.529  -1.552  1.00  0.00     0.090 A 
HETATM   22 CL   UNL     1      -9.348  29.717  -3.062  1.00  0.00    -0.080 Cl
HETATM   23 CL   UNL     1      -8.317  28.610  -0.112  1.00  0.00    -0.080 Cl
ENDBRANCH  12  15
ENDBRANCH   1  11
BRANCH   3  24
HETATM   24  N   UNL     1      -1.340  23.402  -0.622  1.00  0.00    -0.277 NA
HETATM   25  C   UNL     1      -0.010  23.955  -0.896  1.00  0.00     0.122 C 
HETATM   26  C   UNL     1       0.194  23.996  -2.393  1.00  0.00     0.182 C 
HETATM   27  O   UNL     1       0.125  22.682  -2.938  1.00  0.00    -0.389 OA
HETATM   28  C   UNL     1      -1.153  22.096  -2.678  1.00  0.00     0.182 C 
HETATM   29  C   UNL     1      -1.449  22.059  -1.191  1.00  0.00     0.122 C 
ENDBRANCH   3  24
BRANCH   5  30
HETATM   30  C   UNL     1      -0.738  22.451   4.199  1.00  0.00     0.209 C 
HETATM   31  O   UNL     1      -1.115  22.702   5.368  1.00  0.00    -0.644 OA
HETATM   32  O   UNL     1       0.187  21.656   3.932  1.00  0.00    -0.644 OA
ENDBRANCH   5  30
TORSDOF 4
ENDMDL
MODEL 18
REMARK VINA RESULT:    -7.542      4.022      6.054
REMARK INTER + INTRA:          -9.070
REMARK INTER:                  -8.114
REMARK INTRA:                  -0.956
REMARK UNBOUND:                 0.236
REMARK  4 active torsions:
REMARK  status: ('A' for Active; 'I' for Inactive)
REMARK       I    between atoms: C_1  and  N_14 
REMARK    1  A    between atoms: C_1  and  C_16 
REMARK    2  A    between atoms: C_2  and  C_11 
REMARK    3  A    between atoms: C_3  and  N_14 
REMARK    4  A    between atoms: C_6  and  N_22 
ROOT
HETATM    1  C   UNL     1      -2.791  23.322  -1.746  1.00  0.00     0.152 A 
HETATM    2  C   UNL     1      -2.548  22.928  -3.892  1.00  0.00     0.073 A 
HETATM    3  C   UNL     1      -1.962  22.425  -5.083  1.00  0.00     0.040 A 
HETATM    4  C   UNL     1      -2.663  22.544  -6.276  1.00  0.00     0.044 A 
HETATM    5  C   UNL     1      -3.945  23.080  -6.296  1.00  0.00     0.043 A 
HETATM    6  N   UNL     1      -1.968  22.862  -2.631  1.00  0.00    -0.334 N 
ATOM      7  HN  UNL     1      -1.033  22.505  -2.433  1.00  0.00     0.168 HD
HETATM    8  C   UNL     1      -4.506  23.587  -5.126  1.00  0.00     0.039 A 
HETATM    9  C   UNL     1      -3.827  23.435  -3.925  1.00  0.00     0.038 A 
HETATM   10  S   UNL     1      -4.326  23.939  -2.336  1.00  0.00    -0.052 SA
ENDROOT
BRANCH   1  11
HETATM   11  N   UNL     1      -2.471  23.257  -0.407  1.00  0.00    -0.302 N 
HETATM   12  C   UNL     1      -1.941  22.149   0.183  1.00  0.00     0.276 C 
HETATM   13  O   UNL     1      -1.921  21.062  -0.401  1.00  0.00    -0.266 OA
ATOM     14  HN  UNL     1      -2.638  24.081   0.171  1.00  0.00     0.171 HD
BRANCH  12  15
HETATM   15  C   UNL     1      -1.430  22.285   1.559  1.00  0.00     0.125 A 
HETATM   16  N   UNL     1      -0.267  21.619   1.928  1.00  0.00    -0.353 N 
HETATM   17  C   UNL     1       0.020  21.895   3.224  1.00  0.00     0.029 A 
ATOM     18  HN  UNL     1       0.285  21.017   1.318  1.00  0.00     0.166 HD
HETATM   19  C   UNL     1      -1.011  22.678   3.708  1.00  0.00     0.080 A 
HETATM   20  C   UNL     1       1.234  21.344   3.907  1.00  0.00     0.070 C 
HETATM   21  C   UNL     1      -1.881  22.936   2.679  1.00  0.00     0.090 A 
HETATM   22 CL   UNL     1      -1.138  23.349   5.285  1.00  0.00    -0.080 Cl
HETATM   23 CL   UNL     1      -3.294  23.892   2.825  1.00  0.00    -0.080 Cl
ENDBRANCH  12  15
ENDBRANCH   1  11
BRANCH   3  24
HETATM   24  N   UNL     1      -0.666  21.886  -5.034  1.00  0.00    -0.277 NA
HETATM   25  C   UNL     1      -0.555  20.515  -5.539  1.00  0.00     0.122 C 
HETATM   26  C   UNL     1       0.812  19.979  -5.180  1.00  0.00     0.182 C 
HETATM   27  O   UNL     1       1.829  20.772  -5.786  1.00  0.00    -0.389 OA
HETATM   28  C   UNL     1       1.746  22.127  -5.335  1.00  0.00     0.182 C 
HETATM   29  C   UNL     1       0.382  22.721  -5.624  1.00  0.00     0.122 C 
ENDBRANCH   3  24
BRANCH   5  30
HETATM   30  C   UNL     1      -4.704  23.185  -7.586  1.00  0.00     0.209 C 
HETATM   31  O   UNL     1      -5.803  22.585  -7.665  1.00  0.00    -0.644 OA
HETATM   32  O   UNL     1      -4.257  23.919  -8.492  1.00  0.00    -0.644 OA
ENDBRANCH   5  30
TORSDOF 4
ENDMDL
MODEL 19
REMARK VINA RESULT:    -7.530      2.272      2.815
REMARK INTER + INTRA:          -9.055
REMARK INTER:                  -8.088
REMARK INTRA:                  -0.966
REMARK UNBOUND:                 0.236
REMARK  4 active torsions:
REMARK  status: ('A' for Active; 'I' for Inactive)
REMARK       I    between atoms: C_1  and  N_14 
REMARK    1  A    between atoms: C_1  and  C_16 
REMARK    2  A    between atoms: C_2  and  C_11 
REMARK    3  A    between atoms: C_3  and  N_14 
REMARK    4  A    between atoms: C_6  and  N_22 
ROOT
HETATM    1  C   UNL     1      -3.461  23.906   1.014  1.00  0.00     0.152 A 
HETATM    2  C   UNL     1      -4.724  25.032  -0.386  1.00  0.00     0.073 A 
HETATM    3  C   UNL     1      -5.325  25.398  -1.618  1.00  0.00     0.040 A 
HETATM    4  C   UNL     1      -6.322  26.365  -1.616  1.00  0.00     0.044 A 
HETATM    5  C   UNL     1      -6.777  26.913  -0.423  1.00  0.00     0.043 A 
HETATM    6  N   UNL     1      -3.730  24.072  -0.240  1.00  0.00    -0.334 N 
ATOM      7  HN  UNL     1      -3.278  23.574  -1.007  1.00  0.00     0.168 HD
HETATM    8  C   UNL     1      -6.169  26.561   0.781  1.00  0.00     0.039 A 
HETATM    9  C   UNL     1      -5.200  25.567   0.789  1.00  0.00     0.038 A 
HETATM   10  S   UNL     1      -4.329  24.925   2.151  1.00  0.00    -0.052 SA
ENDROOT
BRANCH   1  11
HETATM   11  N   UNL     1      -2.578  22.924   1.406  1.00  0.00    -0.302 N 
HETATM   12  C   UNL     1      -1.239  22.978   1.156  1.00  0.00     0.276 C 
HETATM   13  O   UNL     1      -0.769  23.805   0.370  1.00  0.00    -0.266 OA
ATOM     14  HN  UNL     1      -2.944  22.116   1.909  1.00  0.00     0.171 HD
BRANCH  12  15
HETATM   15  C   UNL     1      -0.378  21.988   1.825  1.00  0.00     0.125 A 
HETATM   16  N   UNL     1       0.079  20.883   1.116  1.00  0.00    -0.353 N 
HETATM   17  C   UNL     1       0.858  20.120   1.920  1.00  0.00     0.029 A 
ATOM     18  HN  UNL     1      -0.139  20.679   0.141  1.00  0.00     0.166 HD
HETATM   19  C   UNL     1       0.833  20.699   3.175  1.00  0.00     0.080 A 
HETATM   20  C   UNL     1       1.523  18.868   1.433  1.00  0.00     0.070 C 
HETATM   21  C   UNL     1       0.099  21.855   3.105  1.00  0.00     0.090 A 
HETATM   22 CL   UNL     1       1.683  20.165   4.570  1.00  0.00    -0.080 Cl
HETATM   23 CL   UNL     1      -0.174  22.908   4.427  1.00  0.00    -0.080 Cl
ENDBRANCH  12  15
ENDBRANCH   1  11
BRANCH   3  24
HETATM   24  N   UNL     1      -4.848  24.827  -2.810  1.00  0.00    -0.277 NA
HETATM   25  C   UNL     1      -5.728  23.812  -3.396  1.00  0.00     0.122 C 
HETATM   26  C   UNL     1      -4.977  23.104  -4.500  1.00  0.00     0.182 C 
HETATM   27  O   UNL     1      -4.606  24.030  -5.518  1.00  0.00    -0.389 OA
HETATM   28  C   UNL     1      -3.759  25.051  -4.985  1.00  0.00     0.182 C 
HETATM   29  C   UNL     1      -4.431  25.781  -3.838  1.00  0.00     0.122 C 
ENDBRANCH   3  24
BRANCH   5  30
HETATM   30  C   UNL     1      -7.870  27.941  -0.426  1.00  0.00     0.209 C 
HETATM   31  O   UNL     1      -8.863  27.732  -1.163  1.00  0.00    -0.644 OA
HETATM   32  O   UNL     1      -7.786  28.914   0.352  1.00  0.00    -0.644 OA
ENDBRANCH   5  30
TORSDOF 4
ENDMDL
MODEL 20
REMARK VINA RESULT:    -7.279      7.205      9.874
REMARK INTER + INTRA:          -8.745
REMARK INTER:                  -7.790
REMARK INTRA:                  -0.954
REMARK UNBOUND:                 0.236
REMARK  4 active torsions:
REMARK  status: ('A' for Active; 'I' for Inactive)
REMARK       I    between atoms: C_1  and  N_14 
REMARK    1  A    between atoms: C_1  and  C_16 
REMARK    2  A    between atoms: C_2  and  C_11 
REMARK    3  A    between atoms: C_3  and  N_14 
REMARK    4  A    between atoms: C_6  and  N_22 
ROOT
HETATM    1  C   UNL     1       2.002  24.853  -4.768  1.00  0.00     0.152 A 
HETATM    2  C   UNL     1       0.862  23.212  -3.855  1.00  0.00     0.073 A 
HETATM    3  C   UNL     1       0.350  21.901  -3.679  1.00  0.00     0.040 A 
HETATM    4  C   UNL     1      -0.367  21.612  -2.525  1.00  0.00     0.044 A 
HETATM    5  C   UNL     1      -0.519  22.566  -1.526  1.00  0.00     0.043 A 
HETATM    6  N   UNL     1       1.607  23.635  -4.950  1.00  0.00    -0.334 N 
ATOM      7  HN  UNL     1       1.811  23.069  -5.774  1.00  0.00     0.168 HD
HETATM    8  C   UNL     1      -0.028  23.856  -1.715  1.00  0.00     0.039 A 
HETATM    9  C   UNL     1       0.722  24.139  -2.848  1.00  0.00     0.038 A 
HETATM   10  S   UNL     1       1.473  25.645  -3.293  1.00  0.00    -0.052 SA
ENDROOT
BRANCH   1  11
HETATM   11  N   UNL     1       2.847  25.447  -5.679  1.00  0.00    -0.302 N 
HETATM   12  C   UNL     1       4.138  25.054  -5.871  1.00  0.00     0.276 C 
HETATM   13  O   UNL     1       4.694  24.284  -5.083  1.00  0.00    -0.266 OA
ATOM     14  HN  UNL     1       2.489  26.221  -6.239  1.00  0.00     0.171 HD
BRANCH  12  15
HETATM   15  C   UNL     1       4.859  25.611  -7.029  1.00  0.00     0.125 A 
HETATM   16  N   UNL     1       5.780  24.823  -7.708  1.00  0.00    -0.353 N 
HETATM   17  C   UNL     1       6.309  25.530  -8.737  1.00  0.00     0.029 A 
ATOM     18  HN  UNL     1       6.021  23.861  -7.469  1.00  0.00     0.166 HD
HETATM   19  C   UNL     1       5.781  26.805  -8.664  1.00  0.00     0.080 A 
HETATM   20  C   UNL     1       7.317  24.940  -9.675  1.00  0.00     0.070 C 
HETATM   21  C   UNL     1       4.874  26.841  -7.635  1.00  0.00     0.090 A 
HETATM   22 CL   UNL     1       6.078  28.104  -9.749  1.00  0.00    -0.080 Cl
HETATM   23 CL   UNL     1       3.961  28.223  -7.201  1.00  0.00    -0.080 Cl
ENDBRANCH  12  15
ENDBRANCH   1  11
BRANCH   3  24
HETATM   24  N   UNL     1       0.520  20.955  -4.704  1.00  0.00    -0.277 NA
HETATM   25  C   UNL     1       1.371  19.816  -4.348  1.00  0.00     0.122 C 
HETATM   26  C   UNL     1       1.681  19.037  -5.605  1.00  0.00     0.182 C 
HETATM   27  O   UNL     1       0.479  18.543  -6.190  1.00  0.00    -0.389 OA
HETATM   28  C   UNL     1      -0.392  19.623  -6.537  1.00  0.00     0.182 C 
HETATM   29  C   UNL     1      -0.715  20.480  -5.328  1.00  0.00     0.122 C 
ENDBRANCH   3  24
BRANCH   5  30
HETATM   30  C   UNL     1      -1.275  22.239  -0.272  1.00  0.00     0.209 C 
HETATM   31  O   UNL     1      -1.899  21.151  -0.235  1.00  0.00    -0.644 OA
HETATM   32  O   UNL     1      -1.193  23.016   0.702  1.00  0.00    -0.644 OA
ENDBRANCH   5  30
TORSDOF 4
ENDMDL
