REMARK  6 active torsions:
REMARK  status: ('A' for Active; 'I' for Inactive)
REMARK    1  A    between atoms: O_1  and  C_16 
REMARK    2  A    between atoms: C_3  and  N_5 
REMARK    3  A    between atoms: C_4  and  N_32 
REMARK    4  A    between atoms: C_9  and  C_29 
REMARK       I    between atoms: C_11  and  N_21 
REMARK    5  A    between atoms: C_11  and  C_12 
REMARK    6  A    between atoms: N_21  and  C_23 
ROOT
HETATM    1  C   UNL     1      22.040  56.777  88.982  1.00  0.00     0.134 C 
HETATM    2  N   UNL     1      21.197  58.449  85.717  1.00  0.00    -0.214 N 
HETATM    3  C   UNL     1      21.573  57.058  85.490  1.00  0.00     0.178 C 
HETATM    4  C   UNL     1      22.122  59.142  86.625  1.00  0.00     0.149 C 
HETATM    5  C   UNL     1      23.293  58.185  86.742  1.00  0.00     0.049 C 
HETATM    6  C   UNL     1      22.635  56.790  86.619  1.00  0.00     0.085 C 
HETATM    7  N   UNL     1      21.861  56.339  87.771  1.00  0.00    -0.355 N 
ATOM      8  HN  UNL     1      21.136  55.638  87.617  1.00  0.00     0.162 HD
HETATM    9  S   UNL     1      23.237  58.011  89.539  1.00  0.00    -0.094 SA
HETATM   10  C   UNL     1      24.140  58.347  88.005  1.00  0.00     0.091 C 
ENDROOT
BRANCH   6  11
HETATM   11  C   UNL     1      23.684  55.705  86.305  1.00  0.00     0.013 A 
HETATM   12  C   UNL     1      24.084  54.775  87.266  1.00  0.00     0.042 A 
HETATM   13  C   UNL     1      25.113  53.877  87.009  1.00  0.00     0.035 A 
HETATM   14  C   UNL     1      25.764  53.848  85.740  1.00  0.00     0.032 A 
HETATM   15  C   UNL     1      25.377  54.752  84.745  1.00  0.00     0.045 A 
HETATM   16  C   UNL     1      24.371  55.656  85.026  1.00  0.00     0.125 A 
HETATM   17  F   UNL     1      24.056  56.479  84.066  1.00  0.00    -0.205 F 
BRANCH  13  18
HETATM   18  N   UNL     1      25.499  53.170  88.137  1.00  0.00    -0.322 N 
HETATM   19  C   UNL     1      26.642  52.454  88.324  1.00  0.00     0.274 C 
HETATM   20  O   UNL     1      27.540  52.375  87.519  1.00  0.00    -0.266 OA
ATOM     21  HN  UNL     1      24.848  53.188  88.922  1.00  0.00     0.169 HD
BRANCH  19  22
HETATM   22  C   UNL     1      26.782  51.806  89.620  1.00  0.00     0.116 A 
HETATM   23  N   UNL     1      25.675  51.612  90.380  1.00  0.00    -0.356 N 
HETATM   24  C   UNL     1      25.811  51.026  91.547  1.00  0.00     0.144 A 
ATOM     25  HN  UNL     1      24.758  51.915  90.052  1.00  0.00     0.165 HD
HETATM   26  C   UNL     1      27.131  50.615  91.969  1.00  0.00     0.157 A 
HETATM   27  N   UNL     1      28.223  50.812  91.218  1.00  0.00    -0.344 N 
HETATM   28  C   UNL     1      28.060  51.413  90.031  1.00  0.00     0.125 A 
ATOM     29  HN  UNL     1      29.145  50.515  91.538  1.00  0.00     0.167 HD
BRANCH  26  30
HETATM   30  O   UNL     1      27.281  50.012  93.151  1.00  0.00    -0.340 OA
HETATM   31  C   UNL     1      26.205  49.236  93.682  1.00  0.00     0.211 C 
ENDBRANCH  26  30
ENDBRANCH  19  22
ENDBRANCH  13  18
ENDBRANCH   6  11
BRANCH   2  32
HETATM   32  C   UNL     1      20.134  59.067  85.081  1.00  0.00     0.680 A 
HETATM   33  N   UNL     1      19.867  60.408  85.441  1.00  0.00    -0.199 N 
HETATM   34  C   UNL     1      18.848  61.019  84.826  1.00  0.00     0.149 A 
ATOM     35  HN  UNL     1      20.429  60.891  86.142  1.00  0.00     0.183 HD
HETATM   36  C   UNL     1      18.085  60.337  83.871  1.00  0.00     0.148 A 
HETATM   37  F   UNL     1      17.085  60.938  83.360  1.00  0.00    -0.203 F 
HETATM   38  C   UNL     1      18.398  58.986  83.521  1.00  0.00     0.149 A 
HETATM   39  N   UNL     1      19.426  58.330  84.110  1.00  0.00    -0.199 N 
ATOM     40  HN  UNL     1      19.671  57.370  83.868  1.00  0.00     0.183 HD
ENDBRANCH   2  32
BRANCH   1  41
HETATM   41  N   UNL     1      21.255  56.284  90.004  1.00  0.00    -0.380 N 
ATOM     42  HN2 UNL     1      20.579  55.588  89.690  1.00  0.00     0.158 HD
ATOM     43  HN1 UNL     1      21.395  56.628  90.954  1.00  0.00     0.158 HD
ENDBRANCH   1  41
TORSDOF 6
