REMARK  9 active torsions:
REMARK  status: ('A' for Active; 'I' for Inactive)
REMARK       I    between atoms: N_1  and  C_15 
REMARK    1  A    between atoms: C_2  and  C_15 
REMARK    2  A    between atoms: C_3  and  C_4 
REMARK    3  A    between atoms: C_7  and  C_16 
REMARK    4  A    between atoms: C_7  and  N_17 
REMARK    5  A    between atoms: C_8  and  C_18 
REMARK       I    between atoms: N_17  and  C_18 
REMARK    6  A    between atoms: C_22  and  O_23 
REMARK    7  A    between atoms: N_28  and  C_29 
REMARK    8  A    between atoms: C_29  and  C_30 
REMARK    9  A    between atoms: C_34  and  N_35 
ROOT
HETATM    1  C   UNL     1      -2.329  -1.226   2.686  1.00  0.00     0.105 A 
HETATM    2  C   UNL     1      -1.037  -1.708   2.511  1.00  0.00     0.078 A 
HETATM    3  N   UNL     1      -0.587  -2.211   3.679  1.00  0.00    -0.294 N 
ATOM      4  HN  UNL     1       0.332  -2.626   3.832  1.00  0.00     0.187 HD
HETATM    5  N   UNL     1      -1.536  -2.078   4.595  1.00  0.00    -0.262 N 
HETATM    6  C   UNL     1      -2.615  -1.491   4.016  1.00  0.00     0.134 A 
ENDROOT
BRANCH   2   7
HETATM    7  C   UNL     1      -0.249  -1.766   1.262  1.00  0.00    -0.007 A 
HETATM    8  C   UNL     1       1.138  -1.554   1.302  1.00  0.00     0.014 A 
HETATM    9  C   UNL     1       1.899  -1.621   0.131  1.00  0.00     0.010 A 
HETATM   10  C   UNL     1       1.285  -1.922  -1.095  1.00  0.00    -0.040 A 
HETATM   11  C   UNL     1      -0.098  -2.150  -1.134  1.00  0.00     0.010 A 
HETATM   12  C   UNL     1      -0.859  -2.082   0.036  1.00  0.00     0.014 A 
BRANCH  10  13
HETATM   13  C   UNL     1       2.089  -1.965  -2.365  1.00  0.00     0.161 C 
BRANCH  13  14
HETATM   14  N   UNL     1       1.809  -0.783  -3.176  1.00  0.00    -0.353 N 
HETATM   15  C   UNL     1       2.398   0.497  -2.897  1.00  0.00     0.254 C 
HETATM   16  O   UNL     1       3.135   0.643  -1.883  1.00  0.00    -0.268 OA
HETATM   17  H   UNL     1       1.076  -0.863  -3.916  1.00  0.00     0.163 HD
BRANCH  15  18
HETATM   18  C   UNL     1       2.120   1.666  -3.763  1.00  0.00     0.068 A 
HETATM   19  C   UNL     1       1.938   2.926  -3.167  1.00  0.00     0.062 A 
HETATM   20  C   UNL     1       1.654   4.047  -3.950  1.00  0.00     0.117 A 
HETATM   21  C   UNL     1       1.555   3.924  -5.335  1.00  0.00     0.045 A 
HETATM   22  F   UNL     1       1.466   5.255  -3.362  1.00  0.00    -0.206 F 
HETATM   23  C   UNL     1       1.752   2.683  -5.946  1.00  0.00     0.041 A 
HETATM   24  C   UNL     1       2.050   1.544  -5.170  1.00  0.00     0.084 A 
BRANCH  24  25
HETATM   25  O   UNL     1       2.308   0.298  -5.766  1.00  0.00    -0.355 OA
HETATM   26  C   UNL     1       2.251   0.041  -7.166  1.00  0.00     0.210 C 
ENDBRANCH  24  25
ENDBRANCH  15  18
ENDBRANCH  13  14
ENDBRANCH  10  13
ENDBRANCH   2   7
BRANCH   1  27
HETATM   27  C   UNL     1      -3.186  -0.524   1.709  1.00  0.00     0.255 C 
HETATM   28  N   UNL     1      -2.623   0.394   0.770  1.00  0.00    -0.366 N 
HETATM   29  H   UNL     1      -1.614   0.657   0.814  1.00  0.00     0.159 HD
HETATM   30  H   UNL     1      -3.231   0.854   0.057  1.00  0.00     0.159 HD
HETATM   31  O   UNL     1      -4.430  -0.721   1.710  1.00  0.00    -0.268 OA
ENDBRANCH   1  27
BRANCH   6  32
HETATM   32  N   UNL     1      -3.825  -1.118   4.685  1.00  0.00    -0.383 N 
HETATM   33  H   UNL     1      -4.517  -0.490   4.221  1.00  0.00     0.157 HD
HETATM   34  H   UNL     1      -4.069  -1.459   5.635  1.00  0.00     0.157 HD
ENDBRANCH   6  32
BRANCH   5  35
HETATM   35  C   UNL     1      -1.333  -2.549   5.975  1.00  0.00     0.213 C 
HETATM   36  C   UNL     1      -1.636  -1.463   7.021  1.00  0.00     0.044 C 
BRANCH  35  37
HETATM   37  C   UNL     1      -2.071  -3.873   6.237  1.00  0.00     0.409 C 
HETATM   38  F   UNL     1      -3.440  -3.717   6.143  1.00  0.00    -0.169 F 
HETATM   39  F   UNL     1      -1.762  -4.338   7.503  1.00  0.00    -0.169 F 
HETATM   40  F   UNL     1      -1.667  -4.817   5.311  1.00  0.00    -0.169 F 
ENDBRANCH  35  37
ENDBRANCH   5  35
TORSDOF 9
