REMARK  0 active torsions:
REMARK  status: ('A' for Active; 'I' for Inactive)
ROOT
HETATM    1  C   UNL     1     -44.055  25.869  -8.477  1.00  0.00     0.048 C 
HETATM    2  C   UNL     1     -42.816  25.331  -9.118  1.00  0.00    -0.062 A 
HETATM    3  C   UNL     1     -42.280  24.050  -8.816  1.00  0.00     0.008 A 
HETATM    4  C   UNL     1     -41.136  23.527  -9.383  1.00  0.00     0.024 A 
HETATM    5  C   UNL     1     -40.480  24.350 -10.225  1.00  0.00     0.034 A 
HETATM    6 CL   UNL     1     -39.036  23.680 -10.965  1.00  0.00    -0.084 Cl
HETATM    7  C   UNL     1     -40.885  25.629 -10.553  1.00  0.00     0.024 A 
HETATM    8  C   UNL     1     -42.074  26.100  -9.971  1.00  0.00     0.008 A 
ENDROOT
TORSDOF 0
