MODEL 1
REMARK VINA RESULT:   -10.654      0.000      0.000
REMARK INTER + INTRA:         -14.203
REMARK INTER:                 -13.768
REMARK INTRA:                  -0.435
REMARK UNBOUND:                -0.435
REMARK  6 active torsions:
REMARK  status: ('A' for Active; 'I' for Inactive)
REMARK    1  A    between atoms: C_3  and  C_13 
REMARK    2  A    between atoms: C_3  and  C_11 
REMARK    3  A    between atoms: C_3  and  O_9 
REMARK    4  A    between atoms: C_3  and  C_15 
REMARK    5  A    between atoms: C_6  and  C_7 
REMARK    6  A    between atoms: C_24  and  N_25 
ROOT
HETATM    1  N   UNL     1      71.561  38.237   0.717  1.00  0.00    -0.191 N 
ATOM      2  HN  UNL     1      70.870  37.967   1.418  1.00  0.00     0.184 HD
HETATM    3  N   UNL     1      73.702  37.858  -0.298  1.00  0.00    -0.202 N 
ATOM      4  HN  UNL     1      74.569  37.323  -0.349  1.00  0.00     0.183 HD
HETATM    5  C   UNL     1      67.458  38.109   2.140  1.00  0.00     0.018 A 
HETATM    6  C   UNL     1      66.430  39.051   1.995  1.00  0.00     0.023 A 
HETATM    7  C   UNL     1      68.707  38.326   1.536  1.00  0.00     0.035 A 
HETATM    8  C   UNL     1      68.931  39.501   0.801  1.00  0.00     0.006 A 
HETATM    9  C   UNL     1      67.890  40.443   0.702  1.00  0.00     0.043 A 
HETATM   10  C   UNL     1      66.645  40.226   1.292  1.00  0.00     0.032 A 
HETATM   11  C   UNL     1      70.067  40.042   0.038  1.00  0.00     0.027 A 
HETATM   12  C   UNL     1      71.352  39.277  -0.106  1.00  0.00     0.070 A 
HETATM   13  C   UNL     1      72.298  39.637  -1.082  1.00  0.00    -0.014 A 
HETATM   14  C   UNL     1      73.458  38.898  -1.094  1.00  0.00     0.115 A 
HETATM   15  C   UNL     1      72.725  37.562   0.579  1.00  0.00     0.676 A 
HETATM   16  C   UNL     1      72.083  40.695  -2.136  1.00  0.00     0.042 C 
HETATM   17  C   UNL     1      71.839  42.067  -1.574  1.00  0.00     0.011 C 
HETATM   18  C   UNL     1      70.355  42.324  -1.288  1.00  0.00     0.058 C 
HETATM   19  C   UNL     1      69.642  41.299  -0.459  1.00  0.00     0.023 A 
HETATM   20  N   UNL     1      68.331  41.520  -0.055  1.00  0.00    -0.358 N 
ATOM     21  HN  UNL     1      67.778  42.347  -0.280  1.00  0.00     0.166 HD
ENDROOT
BRANCH   5  22
HETATM   22  C   UNL     1      67.243  36.946   2.963  1.00  0.00    -0.064 C 
HETATM   23  C   UNL     1      67.055  35.960   3.616  1.00  0.00    -0.063 C 
BRANCH  23  24
HETATM   24  C   UNL     1      66.768  34.792   4.498  1.00  0.00     0.120 C 
BRANCH  24  25
HETATM   25  C   UNL     1      67.156  35.139   5.922  1.00  0.00     0.047 C 
HETATM   26  C   UNL     1      67.135  33.966   6.878  1.00  0.00     0.009 C 
ENDBRANCH  24  25
BRANCH  24  27
HETATM   27  C   UNL     1      67.511  33.550   4.004  1.00  0.00     0.047 C 
HETATM   28  C   UNL     1      67.477  33.339   2.529  1.00  0.00     0.009 C 
ENDBRANCH  24  27
BRANCH  24  29
HETATM   29  O   UNL     1      65.353  34.510   4.472  1.00  0.00    -0.378 OA
ATOM     30  HO  UNL     1      64.884  35.331   4.564  1.00  0.00     0.211 HD
ENDBRANCH  24  29
ENDBRANCH  23  24
ENDBRANCH   5  22
BRANCH  15  31
HETATM   31  N   UNL     1      72.890  36.473   1.328  1.00  0.00    -0.234 N 
ATOM     32  HN2 UNL     1      73.701  35.888   1.126  1.00  0.00     0.174 HD
ATOM     33  HN1 UNL     1      72.168  36.268   2.019  1.00  0.00     0.174 HD
ENDBRANCH  15  31
TORSDOF 6
ENDMDL
MODEL 2
REMARK VINA RESULT:    -8.814      3.978      9.053
REMARK INTER + INTRA:         -11.826
REMARK INTER:                 -11.416
REMARK INTRA:                  -0.410
REMARK UNBOUND:                -0.435
REMARK  6 active torsions:
REMARK  status: ('A' for Active; 'I' for Inactive)
REMARK    1  A    between atoms: C_3  and  C_13 
REMARK    2  A    between atoms: C_3  and  C_11 
REMARK    3  A    between atoms: C_3  and  O_9 
REMARK    4  A    between atoms: C_3  and  C_15 
REMARK    5  A    between atoms: C_6  and  C_7 
REMARK    6  A    between atoms: C_24  and  N_25 
ROOT
HETATM    1  N   UNL     1      69.344  41.839  -0.485  1.00  0.00    -0.191 N 
ATOM      2  HN  UNL     1      70.346  41.856  -0.674  1.00  0.00     0.184 HD
HETATM    3  N   UNL     1      67.231  42.975  -0.543  1.00  0.00    -0.202 N 
ATOM      4  HN  UNL     1      66.685  43.807  -0.769  1.00  0.00     0.183 HD
HETATM    5  C   UNL     1      73.078  39.781  -1.318  1.00  0.00     0.018 A 
HETATM    6  C   UNL     1      73.539  38.540  -0.855  1.00  0.00     0.023 A 
HETATM    7  C   UNL     1      71.794  40.232  -0.971  1.00  0.00     0.035 A 
HETATM    8  C   UNL     1      70.980  39.446  -0.141  1.00  0.00     0.006 A 
HETATM    9  C   UNL     1      71.485  38.222   0.334  1.00  0.00     0.043 A 
HETATM   10  C   UNL     1      72.754  37.765  -0.017  1.00  0.00     0.032 A 
HETATM   11  C   UNL     1      69.617  39.581   0.397  1.00  0.00     0.027 A 
HETATM   12  C   UNL     1      68.754  40.764   0.062  1.00  0.00     0.070 A 
HETATM   13  C   UNL     1      67.369  40.736   0.306  1.00  0.00    -0.014 A 
HETATM   14  C   UNL     1      66.683  41.890   0.004  1.00  0.00     0.115 A 
HETATM   15  C   UNL     1      68.553  42.897  -0.776  1.00  0.00     0.676 A 
HETATM   16  C   UNL     1      66.606  39.525   0.783  1.00  0.00     0.042 C 
HETATM   17  C   UNL     1      67.058  39.014   2.122  1.00  0.00     0.011 C 
HETATM   18  C   UNL     1      68.206  38.006   2.003  1.00  0.00     0.058 C 
HETATM   19  C   UNL     1      69.393  38.429   1.191  1.00  0.00     0.023 A 
HETATM   20  N   UNL     1      70.522  37.622   1.136  1.00  0.00    -0.358 N 
ATOM     21  HN  UNL     1      70.629  36.726   1.613  1.00  0.00     0.166 HD
ENDROOT
BRANCH   5  22
HETATM   22  C   UNL     1      73.953  40.615  -2.102  1.00  0.00    -0.064 C 
HETATM   23  C   UNL     1      74.653  41.310  -2.780  1.00  0.00    -0.063 C 
BRANCH  23  24
HETATM   24  C   UNL     1      75.604  42.110  -3.604  1.00  0.00     0.120 C 
BRANCH  24  25
HETATM   25  C   UNL     1      76.120  43.272  -2.778  1.00  0.00     0.047 C 
HETATM   26  C   UNL     1      76.763  42.869  -1.469  1.00  0.00     0.009 C 
ENDBRANCH  24  25
BRANCH  24  27
HETATM   27  C   UNL     1      74.928  42.596  -4.888  1.00  0.00     0.047 C 
HETATM   28  C   UNL     1      75.763  42.494  -6.118  1.00  0.00     0.009 C 
ENDBRANCH  24  27
BRANCH  24  29
HETATM   29  O   UNL     1      76.728  41.285  -3.974  1.00  0.00    -0.378 OA
ATOM     30  HO  UNL     1      77.520  41.800  -3.877  1.00  0.00     0.211 HD
ENDBRANCH  24  29
ENDBRANCH  23  24
ENDBRANCH   5  22
BRANCH  15  31
HETATM   31  N   UNL     1      69.120  43.925  -1.408  1.00  0.00    -0.234 N 
ATOM     32  HN2 UNL     1      68.575  44.783  -1.483  1.00  0.00     0.174 HD
ATOM     33  HN1 UNL     1      70.041  43.769  -1.819  1.00  0.00     0.174 HD
ENDBRANCH  15  31
TORSDOF 6
ENDMDL
MODEL 3
REMARK VINA RESULT:    -8.445      3.959      9.220
REMARK INTER + INTRA:         -11.348
REMARK INTER:                 -10.899
REMARK INTRA:                  -0.450
REMARK UNBOUND:                -0.435
REMARK  6 active torsions:
REMARK  status: ('A' for Active; 'I' for Inactive)
REMARK    1  A    between atoms: C_3  and  C_13 
REMARK    2  A    between atoms: C_3  and  C_11 
REMARK    3  A    between atoms: C_3  and  O_9 
REMARK    4  A    between atoms: C_3  and  C_15 
REMARK    5  A    between atoms: C_6  and  C_7 
REMARK    6  A    between atoms: C_24  and  N_25 
ROOT
HETATM    1  N   UNL     1      69.367  41.887  -0.443  1.00  0.00    -0.191 N 
ATOM      2  HN  UNL     1      70.366  41.946  -0.639  1.00  0.00     0.184 HD
HETATM    3  N   UNL     1      67.211  42.941  -0.471  1.00  0.00    -0.202 N 
ATOM      4  HN  UNL     1      66.632  43.754  -0.682  1.00  0.00     0.183 HD
HETATM    5  C   UNL     1      73.172  39.987  -1.330  1.00  0.00     0.018 A 
HETATM    6  C   UNL     1      73.684  38.759  -0.887  1.00  0.00     0.023 A 
HETATM    7  C   UNL     1      71.874  40.384  -0.968  1.00  0.00     0.035 A 
HETATM    8  C   UNL     1      71.096  39.555  -0.144  1.00  0.00     0.006 A 
HETATM    9  C   UNL     1      71.652  38.345   0.311  1.00  0.00     0.043 A 
HETATM   10  C   UNL     1      72.936  37.942  -0.054  1.00  0.00     0.032 A 
HETATM   11  C   UNL     1      69.733  39.630   0.406  1.00  0.00     0.027 A 
HETATM   12  C   UNL     1      68.823  40.783   0.092  1.00  0.00     0.070 A 
HETATM   13  C   UNL     1      67.442  40.698   0.345  1.00  0.00    -0.014 A 
HETATM   14  C   UNL     1      66.710  41.829   0.064  1.00  0.00     0.115 A 
HETATM   15  C   UNL     1      68.534  42.918  -0.714  1.00  0.00     0.676 A 
HETATM   16  C   UNL     1      66.729  39.452   0.810  1.00  0.00     0.042 C 
HETATM   17  C   UNL     1      67.211  38.940   2.139  1.00  0.00     0.011 C 
HETATM   18  C   UNL     1      68.396  37.979   1.998  1.00  0.00     0.058 C 
HETATM   19  C   UNL     1      69.559  38.459   1.184  1.00  0.00     0.023 A 
HETATM   20  N   UNL     1      70.719  37.697   1.111  1.00  0.00    -0.358 N 
ATOM     21  HN  UNL     1      70.863  36.799   1.574  1.00  0.00     0.166 HD
ENDROOT
BRANCH   5  22
HETATM   22  C   UNL     1      74.008  40.865  -2.108  1.00  0.00    -0.064 C 
HETATM   23  C   UNL     1      74.729  41.592  -2.727  1.00  0.00    -0.063 C 
BRANCH  23  24
HETATM   24  C   UNL     1      75.545  42.560  -3.515  1.00  0.00     0.120 C 
BRANCH  24  25
HETATM   25  C   UNL     1      76.561  41.795  -4.341  1.00  0.00     0.047 C 
HETATM   26  C   UNL     1      76.648  42.234  -5.787  1.00  0.00     0.009 C 
ENDBRANCH  24  25
BRANCH  24  27
HETATM   27  C   UNL     1      76.227  43.569  -2.589  1.00  0.00     0.047 C 
HETATM   28  C   UNL     1      77.030  42.970  -1.485  1.00  0.00     0.009 C 
ENDBRANCH  24  27
BRANCH  24  29
HETATM   29  O   UNL     1      74.686  43.288  -4.417  1.00  0.00    -0.378 OA
ATOM     30  HO  UNL     1      74.436  44.102  -3.998  1.00  0.00     0.211 HD
ENDBRANCH  24  29
ENDBRANCH  23  24
ENDBRANCH   5  22
BRANCH  15  31
HETATM   31  N   UNL     1      69.057  43.975  -1.335  1.00  0.00    -0.234 N 
ATOM     32  HN2 UNL     1      70.019  43.894  -1.662  1.00  0.00     0.174 HD
ATOM     33  HN1 UNL     1      68.477  44.813  -1.398  1.00  0.00     0.174 HD
ENDBRANCH  15  31
TORSDOF 6
ENDMDL
MODEL 4
REMARK VINA RESULT:    -8.331      3.567      6.358
REMARK INTER + INTRA:         -11.201
REMARK INTER:                 -10.738
REMARK INTRA:                  -0.463
REMARK UNBOUND:                -0.435
REMARK  6 active torsions:
REMARK  status: ('A' for Active; 'I' for Inactive)
REMARK    1  A    between atoms: C_3  and  C_13 
REMARK    2  A    between atoms: C_3  and  C_11 
REMARK    3  A    between atoms: C_3  and  O_9 
REMARK    4  A    between atoms: C_3  and  C_15 
REMARK    5  A    between atoms: C_6  and  C_7 
REMARK    6  A    between atoms: C_24  and  N_25 
ROOT
HETATM    1  N   UNL     1      70.470  41.586  -1.485  1.00  0.00    -0.191 N 
ATOM      2  HN  UNL     1      69.456  41.603  -1.371  1.00  0.00     0.184 HD
HETATM    3  N   UNL     1      72.436  42.561  -2.455  1.00  0.00    -0.202 N 
ATOM      4  HN  UNL     1      72.866  43.278  -3.040  1.00  0.00     0.183 HD
HETATM    5  C   UNL     1      66.896  40.611   0.784  1.00  0.00     0.018 A 
HETATM    6  C   UNL     1      66.618  39.489   1.579  1.00  0.00     0.023 A 
HETATM    7  C   UNL     1      68.157  40.758   0.185  1.00  0.00     0.035 A 
HETATM    8  C   UNL     1      69.135  39.767   0.368  1.00  0.00     0.006 A 
HETATM    9  C   UNL     1      68.814  38.638   1.143  1.00  0.00     0.043 A 
HETATM   10  C   UNL     1      67.566  38.493   1.749  1.00  0.00     0.032 A 
HETATM   11  C   UNL     1      70.528  39.597  -0.074  1.00  0.00     0.027 A 
HETATM   12  C   UNL     1      71.223  40.641  -0.901  1.00  0.00     0.070 A 
HETATM   13  C   UNL     1      72.623  40.631  -1.045  1.00  0.00    -0.014 A 
HETATM   14  C   UNL     1      73.149  41.605  -1.861  1.00  0.00     0.115 A 
HETATM   15  C   UNL     1      71.110  42.516  -2.230  1.00  0.00     0.676 A 
HETATM   16  C   UNL     1      73.554  39.696  -0.312  1.00  0.00     0.042 C 
HETATM   17  C   UNL     1      73.308  38.243  -0.608  1.00  0.00     0.011 C 
HETATM   18  C   UNL     1      72.263  37.627   0.329  1.00  0.00     0.058 C 
HETATM   19  C   UNL     1      70.956  38.351   0.449  1.00  0.00     0.023 A 
HETATM   20  N   UNL     1      69.916  37.793   1.182  1.00  0.00    -0.358 N 
ATOM     21  HN  UNL     1      69.955  36.900   1.672  1.00  0.00     0.166 HD
ENDROOT
BRANCH   5  22
HETATM   22  C   UNL     1      65.858  41.580   0.538  1.00  0.00    -0.064 C 
HETATM   23  C   UNL     1      65.023  42.409   0.322  1.00  0.00    -0.063 C 
BRANCH  23  24
HETATM   24  C   UNL     1      63.940  43.419   0.145  1.00  0.00     0.120 C 
BRANCH  24  25
HETATM   25  C   UNL     1      63.117  43.490   1.416  1.00  0.00     0.047 C 
HETATM   26  C   UNL     1      63.886  43.954   2.634  1.00  0.00     0.009 C 
ENDBRANCH  24  25
BRANCH  24  27
HETATM   27  C   UNL     1      63.069  43.069  -1.063  1.00  0.00     0.047 C 
HETATM   28  C   UNL     1      61.626  42.855  -0.760  1.00  0.00     0.009 C 
ENDBRANCH  24  27
BRANCH  24  29
HETATM   29  O   UNL     1      64.527  44.716  -0.085  1.00  0.00    -0.378 OA
ATOM     30  HO  UNL     1      63.847  45.372   0.009  1.00  0.00     0.211 HD
ENDBRANCH  24  29
ENDBRANCH  23  24
ENDBRANCH   5  22
BRANCH  15  31
HETATM   31  N   UNL     1      70.375  43.508  -2.729  1.00  0.00    -0.234 N 
ATOM     32  HN2 UNL     1      69.378  43.332  -2.854  1.00  0.00     0.174 HD
ATOM     33  HN1 UNL     1      70.865  44.361  -3.000  1.00  0.00     0.174 HD
ENDBRANCH  15  31
TORSDOF 6
ENDMDL
MODEL 5
REMARK VINA RESULT:    -8.324      3.546      6.597
REMARK INTER + INTRA:         -11.192
REMARK INTER:                 -10.646
REMARK INTRA:                  -0.546
REMARK UNBOUND:                -0.435
REMARK  6 active torsions:
REMARK  status: ('A' for Active; 'I' for Inactive)
REMARK    1  A    between atoms: C_3  and  C_13 
REMARK    2  A    between atoms: C_3  and  C_11 
REMARK    3  A    between atoms: C_3  and  O_9 
REMARK    4  A    between atoms: C_3  and  C_15 
REMARK    5  A    between atoms: C_6  and  C_7 
REMARK    6  A    between atoms: C_24  and  N_25 
ROOT
HETATM    1  N   UNL     1      70.632  41.285  -1.317  1.00  0.00    -0.191 N 
ATOM      2  HN  UNL     1      69.617  41.377  -1.279  1.00  0.00     0.184 HD
HETATM    3  N   UNL     1      72.728  42.080  -2.173  1.00  0.00    -0.202 N 
ATOM      4  HN  UNL     1      73.249  42.740  -2.750  1.00  0.00     0.183 HD
HETATM    5  C   UNL     1      66.845  40.655   0.716  1.00  0.00     0.018 A 
HETATM    6  C   UNL     1      66.430  39.589   1.527  1.00  0.00     0.023 A 
HETATM    7  C   UNL     1      68.153  40.689   0.206  1.00  0.00     0.035 A 
HETATM    8  C   UNL     1      69.041  39.641   0.496  1.00  0.00     0.006 A 
HETATM    9  C   UNL     1      68.584  38.569   1.285  1.00  0.00     0.043 A 
HETATM   10  C   UNL     1      67.289  38.537   1.802  1.00  0.00     0.032 A 
HETATM   11  C   UNL     1      70.446  39.355   0.164  1.00  0.00     0.027 A 
HETATM   12  C   UNL     1      71.272  40.314  -0.645  1.00  0.00     0.070 A 
HETATM   13  C   UNL     1      72.673  40.200  -0.686  1.00  0.00    -0.014 A 
HETATM   14  C   UNL     1      73.326  41.101  -1.495  1.00  0.00     0.115 A 
HETATM   15  C   UNL     1      71.390  42.136  -2.045  1.00  0.00     0.676 A 
HETATM   16  C   UNL     1      73.480  39.233   0.147  1.00  0.00     0.042 C 
HETATM   17  C   UNL     1      73.151  37.790  -0.114  1.00  0.00     0.011 C 
HETATM   18  C   UNL     1      71.999  37.287   0.763  1.00  0.00     0.058 C 
HETATM   19  C   UNL     1      70.744  38.105   0.762  1.00  0.00     0.023 A 
HETATM   20  N   UNL     1      69.616  37.651   1.435  1.00  0.00    -0.358 N 
ATOM     21  HN  UNL     1      69.555  36.778   1.958  1.00  0.00     0.166 HD
ENDROOT
BRANCH   5  22
HETATM   22  C   UNL     1      65.901  41.683   0.359  1.00  0.00    -0.064 C 
HETATM   23  C   UNL     1      65.090  42.511   0.060  1.00  0.00    -0.063 C 
BRANCH  23  24
HETATM   24  C   UNL     1      64.150  43.583  -0.378  1.00  0.00     0.120 C 
BRANCH  24  25
HETATM   25  C   UNL     1      62.873  42.944  -0.888  1.00  0.00     0.047 C 
HETATM   26  C   UNL     1      63.000  42.292  -2.247  1.00  0.00     0.009 C 
ENDBRANCH  24  25
BRANCH  24  27
HETATM   27  C   UNL     1      64.798  44.463  -1.449  1.00  0.00     0.047 C 
HETATM   28  C   UNL     1      66.122  45.037  -1.076  1.00  0.00     0.009 C 
ENDBRANCH  24  27
BRANCH  24  29
HETATM   29  O   UNL     1      63.818  44.419   0.750  1.00  0.00    -0.378 OA
ATOM     30  HO  UNL     1      64.252  44.068   1.518  1.00  0.00     0.211 HD
ENDBRANCH  24  29
ENDBRANCH  23  24
ENDBRANCH   5  22
BRANCH  15  31
HETATM   31  N   UNL     1      70.766  43.157  -2.632  1.00  0.00    -0.234 N 
ATOM     32  HN2 UNL     1      70.764  44.048  -2.136  1.00  0.00     0.174 HD
ATOM     33  HN1 UNL     1      70.288  42.967  -3.513  1.00  0.00     0.174 HD
ENDBRANCH  15  31
TORSDOF 6
ENDMDL
MODEL 6
REMARK VINA RESULT:    -7.915      3.954      9.465
REMARK INTER + INTRA:         -10.663
REMARK INTER:                 -10.143
REMARK INTRA:                  -0.521
REMARK UNBOUND:                -0.435
REMARK  6 active torsions:
REMARK  status: ('A' for Active; 'I' for Inactive)
REMARK    1  A    between atoms: C_3  and  C_13 
REMARK    2  A    between atoms: C_3  and  C_11 
REMARK    3  A    between atoms: C_3  and  O_9 
REMARK    4  A    between atoms: C_3  and  C_15 
REMARK    5  A    between atoms: C_6  and  C_7 
REMARK    6  A    between atoms: C_24  and  N_25 
ROOT
HETATM    1  N   UNL     1      68.831  41.788  -0.194  1.00  0.00    -0.191 N 
ATOM      2  HN  UNL     1      69.729  42.211  -0.430  1.00  0.00     0.184 HD
HETATM    3  N   UNL     1      66.456  42.031   0.048  1.00  0.00    -0.202 N 
ATOM      4  HN  UNL     1      65.621  42.615  -0.008  1.00  0.00     0.183 HD
HETATM    5  C   UNL     1      72.943  41.437  -1.550  1.00  0.00     0.018 A 
HETATM    6  C   UNL     1      73.877  40.415  -1.324  1.00  0.00     0.023 A 
HETATM    7  C   UNL     1      71.630  41.315  -1.066  1.00  0.00     0.035 A 
HETATM    8  C   UNL     1      71.259  40.175  -0.337  1.00  0.00     0.006 A 
HETATM    9  C   UNL     1      72.229  39.183  -0.097  1.00  0.00     0.043 A 
HETATM   10  C   UNL     1      73.530  39.295  -0.585  1.00  0.00     0.032 A 
HETATM   11  C   UNL     1      70.011  39.708   0.287  1.00  0.00     0.027 A 
HETATM   12  C   UNL     1      68.742  40.507   0.198  1.00  0.00     0.070 A 
HETATM   13  C   UNL     1      67.501  39.922   0.506  1.00  0.00    -0.014 A 
HETATM   14  C   UNL     1      66.410  40.757   0.435  1.00  0.00     0.115 A 
HETATM   15  C   UNL     1      67.680  42.495  -0.264  1.00  0.00     0.676 A 
HETATM   16  C   UNL     1      67.295  38.459   0.815  1.00  0.00     0.042 C 
HETATM   17  C   UNL     1      68.048  37.985   2.025  1.00  0.00     0.011 C 
HETATM   18  C   UNL     1      69.466  37.515   1.681  1.00  0.00     0.058 C 
HETATM   19  C   UNL     1      70.316  38.462   0.889  1.00  0.00     0.023 A 
HETATM   20  N   UNL     1      71.650  38.161   0.643  1.00  0.00    -0.358 N 
ATOM     21  HN  UNL     1      72.130  37.318   0.958  1.00  0.00     0.166 HD
ENDROOT
BRANCH   5  22
HETATM   22  C   UNL     1      73.358  42.638  -2.230  1.00  0.00    -0.064 C 
HETATM   23  C   UNL     1      73.723  43.644  -2.765  1.00  0.00    -0.063 C 
BRANCH  23  24
HETATM   24  C   UNL     1      74.079  44.916  -3.457  1.00  0.00     0.120 C 
BRANCH  24  25
HETATM   25  C   UNL     1      73.259  45.035  -4.727  1.00  0.00     0.047 C 
HETATM   26  C   UNL     1      71.768  45.155  -4.499  1.00  0.00     0.009 C 
ENDBRANCH  24  25
BRANCH  24  27
HETATM   27  C   UNL     1      75.578  44.967  -3.755  1.00  0.00     0.047 C 
HETATM   28  C   UNL     1      76.463  44.726  -2.581  1.00  0.00     0.009 C 
ENDBRANCH  24  27
BRANCH  24  29
HETATM   29  O   UNL     1      73.752  46.033  -2.604  1.00  0.00    -0.378 OA
ATOM     30  HO  UNL     1      72.866  45.914  -2.284  1.00  0.00     0.211 HD
ENDBRANCH  24  29
ENDBRANCH  23  24
ENDBRANCH   5  22
BRANCH  15  31
HETATM   31  N   UNL     1      67.756  43.735  -0.746  1.00  0.00    -0.234 N 
ATOM     32  HN2 UNL     1      68.541  44.307  -0.436  1.00  0.00     0.174 HD
ATOM     33  HN1 UNL     1      66.996  44.048  -1.351  1.00  0.00     0.174 HD
ENDBRANCH  15  31
TORSDOF 6
ENDMDL
MODEL 7
REMARK VINA RESULT:    -7.767      2.886      6.005
REMARK INTER + INTRA:         -10.472
REMARK INTER:                 -10.015
REMARK INTRA:                  -0.458
REMARK UNBOUND:                -0.435
REMARK  6 active torsions:
REMARK  status: ('A' for Active; 'I' for Inactive)
REMARK    1  A    between atoms: C_3  and  C_13 
REMARK    2  A    between atoms: C_3  and  C_11 
REMARK    3  A    between atoms: C_3  and  O_9 
REMARK    4  A    between atoms: C_3  and  C_15 
REMARK    5  A    between atoms: C_6  and  C_7 
REMARK    6  A    between atoms: C_24  and  N_25 
ROOT
HETATM    1  N   UNL     1      71.037  42.671  -2.930  1.00  0.00    -0.191 N 
ATOM      2  HN  UNL     1      70.734  41.844  -2.417  1.00  0.00     0.184 HD
HETATM    3  N   UNL     1      70.447  44.647  -4.158  1.00  0.00    -0.202 N 
ATOM      4  HN  UNL     1      69.730  45.264  -4.541  1.00  0.00     0.183 HD
HETATM    5  C   UNL     1      71.762  39.573   0.027  1.00  0.00     0.018 A 
HETATM    6  C   UNL     1      72.956  38.919   0.365  1.00  0.00     0.023 A 
HETATM    7  C   UNL     1      71.766  40.604  -0.926  1.00  0.00     0.035 A 
HETATM    8  C   UNL     1      72.967  40.966  -1.556  1.00  0.00     0.006 A 
HETATM    9  C   UNL     1      74.141  40.268  -1.220  1.00  0.00     0.043 A 
HETATM   10  C   UNL     1      74.144  39.251  -0.266  1.00  0.00     0.032 A 
HETATM   11  C   UNL     1      73.345  41.978  -2.555  1.00  0.00     0.027 A 
HETATM   12  C   UNL     1      72.339  42.940  -3.119  1.00  0.00     0.070 A 
HETATM   13  C   UNL     1      72.754  44.091  -3.813  1.00  0.00    -0.014 A 
HETATM   14  C   UNL     1      71.748  44.877  -4.327  1.00  0.00     0.115 A 
HETATM   15  C   UNL     1      70.143  43.545  -3.449  1.00  0.00     0.676 A 
HETATM   16  C   UNL     1      74.188  44.541  -3.947  1.00  0.00     0.042 C 
HETATM   17  C   UNL     1      75.070  43.550  -4.653  1.00  0.00     0.011 C 
HETATM   18  C   UNL     1      75.682  42.527  -3.690  1.00  0.00     0.058 C 
HETATM   19  C   UNL     1      74.735  41.809  -2.777  1.00  0.00     0.023 A 
HETATM   20  N   UNL     1      75.196  40.782  -1.963  1.00  0.00    -0.358 N 
ATOM     21  HN  UNL     1      76.162  40.456  -1.918  1.00  0.00     0.166 HD
ENDROOT
BRANCH   5  22
HETATM   22  C   UNL     1      70.523  39.138   0.621  1.00  0.00    -0.064 C 
HETATM   23  C   UNL     1      69.488  38.755   1.084  1.00  0.00    -0.063 C 
BRANCH  23  24
HETATM   24  C   UNL     1      68.175  38.377   1.682  1.00  0.00     0.120 C 
BRANCH  24  25
HETATM   25  C   UNL     1      68.127  36.872   1.859  1.00  0.00     0.047 C 
HETATM   26  C   UNL     1      67.403  36.412   3.106  1.00  0.00     0.009 C 
ENDBRANCH  24  25
BRANCH  24  27
HETATM   27  C   UNL     1      67.022  38.872   0.808  1.00  0.00     0.047 C 
HETATM   28  C   UNL     1      66.960  40.350   0.623  1.00  0.00     0.009 C 
ENDBRANCH  24  27
BRANCH  24  29
HETATM   29  O   UNL     1      68.049  38.988   2.983  1.00  0.00    -0.378 OA
ATOM     30  HO  UNL     1      67.701  39.865   2.867  1.00  0.00     0.211 HD
ENDBRANCH  24  29
ENDBRANCH  23  24
ENDBRANCH   5  22
BRANCH  15  31
HETATM   31  N   UNL     1      68.856  43.331  -3.179  1.00  0.00    -0.234 N 
ATOM     32  HN2 UNL     1      68.256  43.061  -3.957  1.00  0.00     0.174 HD
ATOM     33  HN1 UNL     1      68.546  43.501  -2.221  1.00  0.00     0.174 HD
ENDBRANCH  15  31
TORSDOF 6
ENDMDL
