MODEL 1
REMARK VINA RESULT:    -8.403      0.000      0.000
REMARK INTER + INTRA:         -13.058
REMARK INTER:                 -12.087
REMARK INTRA:                  -0.971
REMARK UNBOUND:                -0.971
REMARK  8 active torsions:
REMARK  status: ('A' for Active; 'I' for Inactive)
REMARK    1  A    between atoms: C_5  and  O_6 
REMARK    2  A    between atoms: C_8  and  C_9 
REMARK    3  A    between atoms: C_9  and  N_22 
REMARK    4  A    between atoms: C_10  and  C_12 
REMARK    5  A    between atoms: C_12  and  O_13 
REMARK    6  A    between atoms: O_13  and  P_14 
REMARK    7  A    between atoms: C_18  and  C_21 
REMARK    8  A    between atoms: C_21  and  N_22 
ROOT
HETATM    1  N   UNL     1       5.324  54.780   9.208  1.00  0.00    -0.367 N 
ATOM      2  HN  UNL     1       6.163  55.246   9.553  1.00  0.00     0.165 HD
HETATM    3  C   UNL     1       4.744  55.199   8.080  1.00  0.00     0.039 A 
HETATM    4  C   UNL     1       5.385  56.365   7.380  1.00  0.00     0.071 C 
HETATM    5  C   UNL     1       3.580  54.527   7.623  1.00  0.00     0.096 A 
HETATM    6  C   UNL     1       3.056  53.458   8.312  1.00  0.00     0.004 A 
HETATM    7  C   UNL     1       3.673  53.053   9.466  1.00  0.00    -0.008 A 
HETATM    8  C   UNL     1       4.805  53.746   9.886  1.00  0.00     0.098 A 
ENDROOT
BRANCH   6   9
HETATM    9  C   UNL     1       1.820  52.676   7.898  1.00  0.00     0.156 C 
BRANCH   9  10
HETATM   10  N   UNL     1       0.760  53.428   7.318  1.00  0.00    -0.408 N 
ATOM     11  HN  UNL     1       0.562  54.386   7.607  1.00  0.00     0.154 HD
BRANCH  10  12
HETATM   12  C   UNL     1      -0.019  52.766   6.305  1.00  0.00     0.228 C 
BRANCH  12  13
HETATM   13  C   UNL     1      -0.398  53.783   5.240  1.00  0.00     0.190 C 
HETATM   14  O   UNL     1       0.124  54.918   5.206  1.00  0.00    -0.647 OA
HETATM   15  O   UNL     1      -1.263  53.505   4.361  1.00  0.00    -0.647 OA
ENDBRANCH  12  13
ENDBRANCH  10  12
ENDBRANCH   9  10
ENDBRANCH   6   9
BRANCH   5  16
HETATM   16  O   UNL     1       3.003  54.976   6.452  1.00  0.00    -0.358 OA
ATOM     17  HO  UNL     1       3.263  54.551   5.643  1.00  0.00     0.217 HD
ENDBRANCH   5  16
BRANCH   7  18
HETATM   18  C   UNL     1       3.139  51.936  10.362  1.00  0.00     0.223 C 
BRANCH  18  19
HETATM   19  O   UNL     1       3.556  50.622  10.173  1.00  0.00    -0.278 OA
BRANCH  19  20
HETATM   20  P   UNL     1       2.555  49.466  10.633  1.00  0.00     0.422 P 
HETATM   21  O   UNL     1       2.721  49.320  12.158  1.00  0.00    -0.617 OA
HETATM   22  O   UNL     1       2.989  48.200   9.929  1.00  0.00    -0.617 OA
HETATM   23  O   UNL     1       1.204  49.928  10.263  1.00  0.00    -0.617 OA
ENDBRANCH  19  20
ENDBRANCH  18  19
ENDBRANCH   7  18
TORSDOF 8
ENDMDL
MODEL 2
REMARK VINA RESULT:    -7.191      2.473      5.384
REMARK INTER + INTRA:         -11.315
REMARK INTER:                 -10.861
REMARK INTRA:                  -0.454
REMARK UNBOUND:                -0.971
REMARK  8 active torsions:
REMARK  status: ('A' for Active; 'I' for Inactive)
REMARK    1  A    between atoms: C_5  and  O_6 
REMARK    2  A    between atoms: C_8  and  C_9 
REMARK    3  A    between atoms: C_9  and  N_22 
REMARK    4  A    between atoms: C_10  and  C_12 
REMARK    5  A    between atoms: C_12  and  O_13 
REMARK    6  A    between atoms: O_13  and  P_14 
REMARK    7  A    between atoms: C_18  and  C_21 
REMARK    8  A    between atoms: C_21  and  N_22 
ROOT
HETATM    1  N   UNL     1       3.431  55.578   6.982  1.00  0.00    -0.367 N 
ATOM      2  HN  UNL     1       3.408  56.426   6.417  1.00  0.00     0.165 HD
HETATM    3  C   UNL     1       4.426  55.382   7.851  1.00  0.00     0.039 A 
HETATM    4  C   UNL     1       5.476  56.456   7.935  1.00  0.00     0.071 C 
HETATM    5  C   UNL     1       4.429  54.193   8.626  1.00  0.00     0.096 A 
HETATM    6  C   UNL     1       3.427  53.258   8.503  1.00  0.00     0.004 A 
HETATM    7  C   UNL     1       2.422  53.488   7.603  1.00  0.00    -0.008 A 
HETATM    8  C   UNL     1       2.462  54.660   6.853  1.00  0.00     0.098 A 
ENDROOT
BRANCH   6   9
HETATM    9  C   UNL     1       3.343  51.962   9.293  1.00  0.00     0.156 C 
BRANCH   9  10
HETATM   10  N   UNL     1       2.603  52.008  10.508  1.00  0.00    -0.408 N 
ATOM     11  HN  UNL     1       2.777  52.723  11.214  1.00  0.00     0.154 HD
BRANCH  10  12
HETATM   12  C   UNL     1       1.598  50.994  10.687  1.00  0.00     0.228 C 
BRANCH  12  13
HETATM   13  C   UNL     1       2.287  49.672  10.981  1.00  0.00     0.190 C 
HETATM   14  O   UNL     1       2.526  48.845  10.076  1.00  0.00    -0.647 OA
HETATM   15  O   UNL     1       2.631  49.372  12.160  1.00  0.00    -0.647 OA
ENDBRANCH  12  13
ENDBRANCH  10  12
ENDBRANCH   9  10
ENDBRANCH   6   9
BRANCH   5  16
HETATM   16  O   UNL     1       5.466  54.018   9.521  1.00  0.00    -0.358 OA
ATOM     17  HO  UNL     1       5.406  53.287  10.124  1.00  0.00     0.217 HD
ENDBRANCH   5  16
BRANCH   7  18
HETATM   18  C   UNL     1       1.301  52.488   7.315  1.00  0.00     0.223 C 
BRANCH  18  19
HETATM   19  O   UNL     1       0.784  52.361   6.030  1.00  0.00    -0.278 OA
BRANCH  19  20
HETATM   20  P   UNL     1      -0.624  53.055   5.737  1.00  0.00     0.422 P 
HETATM   21  O   UNL     1      -0.393  54.045   4.578  1.00  0.00    -0.617 OA
HETATM   22  O   UNL     1      -1.023  53.793   6.994  1.00  0.00    -0.617 OA
HETATM   23  O   UNL     1      -1.543  51.964   5.360  1.00  0.00    -0.617 OA
ENDBRANCH  19  20
ENDBRANCH  18  19
ENDBRANCH   7  18
TORSDOF 8
ENDMDL
MODEL 3
REMARK VINA RESULT:    -7.122      1.719      4.761
REMARK INTER + INTRA:         -11.216
REMARK INTER:                 -10.513
REMARK INTRA:                  -0.703
REMARK UNBOUND:                -0.971
REMARK  8 active torsions:
REMARK  status: ('A' for Active; 'I' for Inactive)
REMARK    1  A    between atoms: C_5  and  O_6 
REMARK    2  A    between atoms: C_8  and  C_9 
REMARK    3  A    between atoms: C_9  and  N_22 
REMARK    4  A    between atoms: C_10  and  C_12 
REMARK    5  A    between atoms: C_12  and  O_13 
REMARK    6  A    between atoms: O_13  and  P_14 
REMARK    7  A    between atoms: C_18  and  C_21 
REMARK    8  A    between atoms: C_21  and  N_22 
ROOT
HETATM    1  N   UNL     1      -0.585  52.953   7.376  1.00  0.00    -0.367 N 
ATOM      2  HN  UNL     1      -1.567  52.990   7.105  1.00  0.00     0.165 HD
HETATM    3  C   UNL     1       0.332  53.596   6.649  1.00  0.00     0.039 A 
HETATM    4  C   UNL     1      -0.162  54.349   5.444  1.00  0.00     0.071 C 
HETATM    5  C   UNL     1       1.691  53.530   7.053  1.00  0.00     0.096 A 
HETATM    6  C   UNL     1       2.069  52.830   8.175  1.00  0.00     0.004 A 
HETATM    7  C   UNL     1       1.105  52.179   8.899  1.00  0.00    -0.008 A 
HETATM    8  C   UNL     1      -0.215  52.259   8.462  1.00  0.00     0.098 A 
ENDROOT
BRANCH   6   9
HETATM    9  C   UNL     1       3.495  52.707   8.687  1.00  0.00     0.156 C 
BRANCH   9  10
HETATM   10  N   UNL     1       4.359  53.805   8.419  1.00  0.00    -0.408 N 
ATOM     11  HN  UNL     1       4.759  53.959   7.494  1.00  0.00     0.154 HD
BRANCH  10  12
HETATM   12  C   UNL     1       4.641  54.685   9.522  1.00  0.00     0.228 C 
BRANCH  12  13
HETATM   13  C   UNL     1       5.330  53.888  10.618  1.00  0.00     0.190 C 
HETATM   14  O   UNL     1       4.938  53.936  11.804  1.00  0.00    -0.647 OA
HETATM   15  O   UNL     1       6.327  53.157  10.355  1.00  0.00    -0.647 OA
ENDBRANCH  12  13
ENDBRANCH  10  12
ENDBRANCH   9  10
ENDBRANCH   6   9
BRANCH   5  16
HETATM   16  O   UNL     1       2.618  54.208   6.287  1.00  0.00    -0.358 OA
ATOM     17  HO  UNL     1       3.329  53.704   5.910  1.00  0.00     0.217 HD
ENDBRANCH   5  16
BRANCH   7  18
HETATM   18  C   UNL     1       1.408  51.301  10.112  1.00  0.00     0.223 C 
BRANCH  18  19
HETATM   19  O   UNL     1       1.216  49.925  10.052  1.00  0.00    -0.278 OA
BRANCH  19  20
HETATM   20  P   UNL     1       2.264  49.006  10.831  1.00  0.00     0.422 P 
HETATM   21  O   UNL     1       1.555  47.665  11.106  1.00  0.00    -0.617 OA
HETATM   22  O   UNL     1       2.589  49.709  12.129  1.00  0.00    -0.617 OA
HETATM   23  O   UNL     1       3.418  48.849   9.925  1.00  0.00    -0.617 OA
ENDBRANCH  19  20
ENDBRANCH  18  19
ENDBRANCH   7  18
TORSDOF 8
ENDMDL
MODEL 4
REMARK VINA RESULT:    -6.853      8.210     10.324
REMARK INTER + INTRA:         -10.829
REMARK INTER:                  -9.708
REMARK INTRA:                  -1.121
REMARK UNBOUND:                -0.971
REMARK  8 active torsions:
REMARK  status: ('A' for Active; 'I' for Inactive)
REMARK    1  A    between atoms: C_5  and  O_6 
REMARK    2  A    between atoms: C_8  and  C_9 
REMARK    3  A    between atoms: C_9  and  N_22 
REMARK    4  A    between atoms: C_10  and  C_12 
REMARK    5  A    between atoms: C_12  and  O_13 
REMARK    6  A    between atoms: O_13  and  P_14 
REMARK    7  A    between atoms: C_18  and  C_21 
REMARK    8  A    between atoms: C_21  and  N_22 
ROOT
HETATM    1  N   UNL     1      -7.986  58.962   5.975  1.00  0.00    -0.367 N 
ATOM      2  HN  UNL     1      -8.953  58.637   6.005  1.00  0.00     0.165 HD
HETATM    3  C   UNL     1      -7.651  59.985   5.185  1.00  0.00     0.039 A 
HETATM    4  C   UNL     1      -8.753  60.604   4.370  1.00  0.00     0.071 C 
HETATM    5  C   UNL     1      -6.299  60.416   5.168  1.00  0.00     0.096 A 
HETATM    6  C   UNL     1      -5.345  59.809   5.951  1.00  0.00     0.004 A 
HETATM    7  C   UNL     1      -5.721  58.761   6.749  1.00  0.00    -0.008 A 
HETATM    8  C   UNL     1      -7.054  58.360   6.728  1.00  0.00     0.098 A 
ENDROOT
BRANCH   6   9
HETATM    9  C   UNL     1      -3.878  60.204   6.002  1.00  0.00     0.156 C 
BRANCH   9  10
HETATM   10  N   UNL     1      -3.160  60.130   4.776  1.00  0.00    -0.408 N 
ATOM     11  HN  UNL     1      -3.165  60.897   4.104  1.00  0.00     0.154 HD
BRANCH  10  12
HETATM   12  C   UNL     1      -2.426  58.916   4.533  1.00  0.00     0.228 C 
BRANCH  12  13
HETATM   13  C   UNL     1      -3.224  58.048   3.573  1.00  0.00     0.190 C 
HETATM   14  O   UNL     1      -3.614  58.485   2.469  1.00  0.00    -0.647 OA
HETATM   15  O   UNL     1      -3.520  56.857   3.873  1.00  0.00    -0.647 OA
ENDBRANCH  12  13
ENDBRANCH  10  12
ENDBRANCH   9  10
ENDBRANCH   6   9
BRANCH   5  16
HETATM   16  O   UNL     1      -5.979  61.480   4.348  1.00  0.00    -0.358 OA
ATOM     17  HO  UNL     1      -6.077  62.355   4.705  1.00  0.00     0.217 HD
ENDBRANCH   5  16
BRANCH   7  18
HETATM   18  C   UNL     1      -4.740  57.952   7.598  1.00  0.00     0.223 C 
BRANCH  18  19
HETATM   19  O   UNL     1      -4.089  56.846   7.060  1.00  0.00    -0.278 OA
BRANCH  19  20
HETATM   20  P   UNL     1      -2.740  56.376   7.773  1.00  0.00     0.422 P 
HETATM   21  O   UNL     1      -1.778  57.580   7.734  1.00  0.00    -0.617 OA
HETATM   22  O   UNL     1      -2.186  55.229   6.959  1.00  0.00    -0.617 OA
HETATM   23  O   UNL     1      -3.116  56.010   9.152  1.00  0.00    -0.617 OA
ENDBRANCH  19  20
ENDBRANCH  18  19
ENDBRANCH   7  18
TORSDOF 8
ENDMDL
MODEL 5
REMARK VINA RESULT:    -6.785      5.672      7.946
REMARK INTER + INTRA:         -10.731
REMARK INTER:                  -9.840
REMARK INTRA:                  -0.891
REMARK UNBOUND:                -0.971
REMARK  8 active torsions:
REMARK  status: ('A' for Active; 'I' for Inactive)
REMARK    1  A    between atoms: C_5  and  O_6 
REMARK    2  A    between atoms: C_8  and  C_9 
REMARK    3  A    between atoms: C_9  and  N_22 
REMARK    4  A    between atoms: C_10  and  C_12 
REMARK    5  A    between atoms: C_12  and  O_13 
REMARK    6  A    between atoms: O_13  and  P_14 
REMARK    7  A    between atoms: C_18  and  C_21 
REMARK    8  A    between atoms: C_21  and  N_22 
ROOT
HETATM    1  N   UNL     1      -4.023  56.388   9.636  1.00  0.00    -0.367 N 
ATOM      2  HN  UNL     1      -4.347  56.078  10.551  1.00  0.00     0.165 HD
HETATM    3  C   UNL     1      -4.633  57.405   9.021  1.00  0.00     0.039 A 
HETATM    4  C   UNL     1      -5.792  58.037   9.743  1.00  0.00     0.071 C 
HETATM    5  C   UNL     1      -4.157  57.816   7.750  1.00  0.00     0.096 A 
HETATM    6  C   UNL     1      -3.083  57.196   7.154  1.00  0.00     0.004 A 
HETATM    7  C   UNL     1      -2.479  56.156   7.810  1.00  0.00    -0.008 A 
HETATM    8  C   UNL     1      -2.985  55.775   9.050  1.00  0.00     0.098 A 
ENDROOT
BRANCH   6   9
HETATM    9  C   UNL     1      -2.500  57.570   5.801  1.00  0.00     0.156 C 
BRANCH   9  10
HETATM   10  N   UNL     1      -3.319  57.310   4.667  1.00  0.00    -0.408 N 
ATOM     11  HN  UNL     1      -3.591  56.362   4.408  1.00  0.00     0.154 HD
BRANCH  10  12
HETATM   12  C   UNL     1      -3.742  58.454   3.903  1.00  0.00     0.228 C 
BRANCH  12  13
HETATM   13  C   UNL     1      -5.203  58.734   4.214  1.00  0.00     0.190 C 
HETATM   14  O   UNL     1      -6.023  57.807   4.386  1.00  0.00    -0.647 OA
HETATM   15  O   UNL     1      -5.629  59.921   4.301  1.00  0.00    -0.647 OA
ENDBRANCH  12  13
ENDBRANCH  10  12
ENDBRANCH   9  10
ENDBRANCH   6   9
BRANCH   5  16
HETATM   16  O   UNL     1      -4.802  58.873   7.138  1.00  0.00    -0.358 OA
ATOM     17  HO  UNL     1      -5.509  58.668   6.539  1.00  0.00     0.217 HD
ENDBRANCH   5  16
BRANCH   7  18
HETATM   18  C   UNL     1      -1.334  55.335   7.217  1.00  0.00     0.223 C 
BRANCH  18  19
HETATM   19  O   UNL     1      -1.588  54.114   6.600  1.00  0.00    -0.278 OA
BRANCH  19  20
HETATM   20  P   UNL     1      -0.649  53.704   5.376  1.00  0.00     0.422 P 
HETATM   21  O   UNL     1       0.365  52.679   5.922  1.00  0.00    -0.617 OA
HETATM   22  O   UNL     1       0.059  54.960   4.922  1.00  0.00    -0.617 OA
HETATM   23  O   UNL     1      -1.542  53.114   4.360  1.00  0.00    -0.617 OA
ENDBRANCH  19  20
ENDBRANCH  18  19
ENDBRANCH   7  18
TORSDOF 8
ENDMDL
MODEL 6
REMARK VINA RESULT:    -6.755      1.689      4.443
REMARK INTER + INTRA:         -10.687
REMARK INTER:                 -10.298
REMARK INTRA:                  -0.389
REMARK UNBOUND:                -0.971
REMARK  8 active torsions:
REMARK  status: ('A' for Active; 'I' for Inactive)
REMARK    1  A    between atoms: C_5  and  O_6 
REMARK    2  A    between atoms: C_8  and  C_9 
REMARK    3  A    between atoms: C_9  and  N_22 
REMARK    4  A    between atoms: C_10  and  C_12 
REMARK    5  A    between atoms: C_12  and  O_13 
REMARK    6  A    between atoms: O_13  and  P_14 
REMARK    7  A    between atoms: C_18  and  C_21 
REMARK    8  A    between atoms: C_21  and  N_22 
ROOT
HETATM    1  N   UNL     1      -0.177  52.454   8.017  1.00  0.00    -0.367 N 
ATOM      2  HN  UNL     1      -1.139  52.122   8.084  1.00  0.00     0.165 HD
HETATM    3  C   UNL     1       0.159  53.342   7.077  1.00  0.00     0.039 A 
HETATM    4  C   UNL     1      -0.937  53.801   6.155  1.00  0.00     0.071 C 
HETATM    5  C   UNL     1       1.504  53.788   7.011  1.00  0.00     0.096 A 
HETATM    6  C   UNL     1       2.452  53.332   7.898  1.00  0.00     0.004 A 
HETATM    7  C   UNL     1       2.077  52.421   8.849  1.00  0.00    -0.008 A 
HETATM    8  C   UNL     1       0.750  52.000   8.872  1.00  0.00     0.098 A 
ENDROOT
BRANCH   6   9
HETATM    9  C   UNL     1       3.912  53.756   7.908  1.00  0.00     0.156 C 
BRANCH   9  10
HETATM   10  N   UNL     1       4.215  54.992   7.271  1.00  0.00    -0.408 N 
ATOM     11  HN  UNL     1       4.073  55.129   6.271  1.00  0.00     0.154 HD
BRANCH  10  12
HETATM   12  C   UNL     1       4.735  56.038   8.113  1.00  0.00     0.228 C 
BRANCH  12  13
HETATM   13  C   UNL     1       5.851  56.753   7.369  1.00  0.00     0.190 C 
HETATM   14  O   UNL     1       6.221  57.901   7.694  1.00  0.00    -0.647 OA
HETATM   15  O   UNL     1       6.431  56.201   6.391  1.00  0.00    -0.647 OA
ENDBRANCH  12  13
ENDBRANCH  10  12
ENDBRANCH   9  10
ENDBRANCH   6   9
BRANCH   5  16
HETATM   16  O   UNL     1       1.823  54.710   6.034  1.00  0.00    -0.358 OA
ATOM     17  HO  UNL     1       1.467  54.570   5.165  1.00  0.00     0.217 HD
ENDBRANCH   5  16
BRANCH   7  18
HETATM   18  C   UNL     1       3.053  51.778   9.834  1.00  0.00     0.223 C 
BRANCH  18  19
HETATM   19  O   UNL     1       2.580  51.100  10.953  1.00  0.00    -0.278 OA
BRANCH  19  20
HETATM   20  P   UNL     1       2.536  49.505  10.875  1.00  0.00     0.422 P 
HETATM   21  O   UNL     1       1.161  49.131  10.288  1.00  0.00    -0.617 OA
HETATM   22  O   UNL     1       2.667  48.990  12.290  1.00  0.00    -0.617 OA
HETATM   23  O   UNL     1       3.645  49.112   9.985  1.00  0.00    -0.617 OA
ENDBRANCH  19  20
ENDBRANCH  18  19
ENDBRANCH   7  18
TORSDOF 8
ENDMDL
MODEL 7
REMARK VINA RESULT:    -6.620      8.362     11.292
REMARK INTER + INTRA:         -10.494
REMARK INTER:                  -9.234
REMARK INTRA:                  -1.260
REMARK UNBOUND:                -0.971
REMARK  8 active torsions:
REMARK  status: ('A' for Active; 'I' for Inactive)
REMARK    1  A    between atoms: C_5  and  O_6 
REMARK    2  A    between atoms: C_8  and  C_9 
REMARK    3  A    between atoms: C_9  and  N_22 
REMARK    4  A    between atoms: C_10  and  C_12 
REMARK    5  A    between atoms: C_12  and  O_13 
REMARK    6  A    between atoms: O_13  and  P_14 
REMARK    7  A    between atoms: C_18  and  C_21 
REMARK    8  A    between atoms: C_21  and  N_22 
ROOT
HETATM    1  N   UNL     1      -4.883  57.588   9.593  1.00  0.00    -0.367 N 
ATOM      2  HN  UNL     1      -4.787  57.559  10.608  1.00  0.00     0.165 HD
HETATM    3  C   UNL     1      -3.959  57.014   8.819  1.00  0.00     0.039 A 
HETATM    4  C   UNL     1      -2.805  56.350   9.518  1.00  0.00     0.071 C 
HETATM    5  C   UNL     1      -4.123  57.068   7.410  1.00  0.00     0.096 A 
HETATM    6  C   UNL     1      -5.212  57.684   6.841  1.00  0.00     0.004 A 
HETATM    7  C   UNL     1      -6.142  58.264   7.662  1.00  0.00    -0.008 A 
HETATM    8  C   UNL     1      -5.939  58.201   9.037  1.00  0.00     0.098 A 
ENDROOT
BRANCH   6   9
HETATM    9  C   UNL     1      -5.474  57.786   5.347  1.00  0.00     0.156 C 
BRANCH   9  10
HETATM   10  N   UNL     1      -5.191  59.041   4.739  1.00  0.00    -0.408 N 
ATOM     11  HN  UNL     1      -5.927  59.620   4.336  1.00  0.00     0.154 HD
BRANCH  10  12
HETATM   12  C   UNL     1      -3.810  59.449   4.721  1.00  0.00     0.228 C 
BRANCH  12  13
HETATM   13  C   UNL     1      -3.025  58.473   3.860  1.00  0.00     0.190 C 
HETATM   14  O   UNL     1      -3.328  58.267   2.665  1.00  0.00    -0.647 OA
HETATM   15  O   UNL     1      -2.043  57.837   4.337  1.00  0.00    -0.647 OA
ENDBRANCH  12  13
ENDBRANCH  10  12
ENDBRANCH   9  10
ENDBRANCH   6   9
BRANCH   5  16
HETATM   16  O   UNL     1      -3.156  56.462   6.632  1.00  0.00    -0.358 OA
ATOM     17  HO  UNL     1      -2.463  57.012   6.287  1.00  0.00     0.217 HD
ENDBRANCH   5  16
BRANCH   7  18
HETATM   18  C   UNL     1      -7.349  59.050   7.149  1.00  0.00     0.223 C 
BRANCH  18  19
HETATM   19  O   UNL     1      -7.233  60.404   6.853  1.00  0.00    -0.278 OA
BRANCH  19  20
HETATM   20  P   UNL     1      -7.959  60.928   5.530  1.00  0.00     0.422 P 
HETATM   21  O   UNL     1      -6.907  61.729   4.738  1.00  0.00    -0.617 OA
HETATM   22  O   UNL     1      -9.089  61.829   5.973  1.00  0.00    -0.617 OA
HETATM   23  O   UNL     1      -8.400  59.721   4.805  1.00  0.00    -0.617 OA
ENDBRANCH  19  20
ENDBRANCH  18  19
ENDBRANCH   7  18
TORSDOF 8
ENDMDL
MODEL 8
REMARK VINA RESULT:    -6.574      5.951      9.155
REMARK INTER + INTRA:         -10.427
REMARK INTER:                  -9.666
REMARK INTRA:                  -0.761
REMARK UNBOUND:                -0.971
REMARK  8 active torsions:
REMARK  status: ('A' for Active; 'I' for Inactive)
REMARK    1  A    between atoms: C_5  and  O_6 
REMARK    2  A    between atoms: C_8  and  C_9 
REMARK    3  A    between atoms: C_9  and  N_22 
REMARK    4  A    between atoms: C_10  and  C_12 
REMARK    5  A    between atoms: C_12  and  O_13 
REMARK    6  A    between atoms: O_13  and  P_14 
REMARK    7  A    between atoms: C_18  and  C_21 
REMARK    8  A    between atoms: C_21  and  N_22 
ROOT
HETATM    1  N   UNL     1      -4.877  58.489   8.361  1.00  0.00    -0.367 N 
ATOM      2  HN  UNL     1      -5.632  59.129   8.604  1.00  0.00     0.165 HD
HETATM    3  C   UNL     1      -4.611  57.442   9.147  1.00  0.00     0.039 A 
HETATM    4  C   UNL     1      -5.467  57.279  10.373  1.00  0.00     0.071 C 
HETATM    5  C   UNL     1      -3.556  56.567   8.781  1.00  0.00     0.096 A 
HETATM    6  C   UNL     1      -2.820  56.774   7.637  1.00  0.00     0.004 A 
HETATM    7  C   UNL     1      -3.117  57.857   6.853  1.00  0.00    -0.008 A 
HETATM    8  C   UNL     1      -4.151  58.698   7.253  1.00  0.00     0.098 A 
ENDROOT
BRANCH   6   9
HETATM    9  C   UNL     1      -1.679  55.889   7.162  1.00  0.00     0.156 C 
BRANCH   9  10
HETATM   10  N   UNL     1      -1.958  54.497   7.060  1.00  0.00    -0.408 N 
ATOM     11  HN  UNL     1      -2.901  54.129   7.181  1.00  0.00     0.154 HD
BRANCH  10  12
HETATM   12  C   UNL     1      -0.839  53.637   6.778  1.00  0.00     0.228 C 
BRANCH  12  13
HETATM   13  C   UNL     1      -0.972  53.115   5.357  1.00  0.00     0.190 C 
HETATM   14  O   UNL     1      -1.425  51.975   5.119  1.00  0.00    -0.647 OA
HETATM   15  O   UNL     1      -0.618  53.826   4.373  1.00  0.00    -0.647 OA
ENDBRANCH  12  13
ENDBRANCH  10  12
ENDBRANCH   9  10
ENDBRANCH   6   9
BRANCH   5  16
HETATM   16  O   UNL     1      -3.305  55.490   9.607  1.00  0.00    -0.358 OA
ATOM     17  HO  UNL     1      -3.678  54.652   9.361  1.00  0.00     0.217 HD
ENDBRANCH   5  16
BRANCH   7  18
HETATM   18  C   UNL     1      -2.320  58.240   5.606  1.00  0.00     0.223 C 
BRANCH  18  19
HETATM   19  O   UNL     1      -2.919  58.971   4.584  1.00  0.00    -0.278 OA
BRANCH  19  20
HETATM   20  P   UNL     1      -3.851  58.172   3.564  1.00  0.00     0.422 P 
HETATM   21  O   UNL     1      -3.523  58.707   2.156  1.00  0.00    -0.617 OA
HETATM   22  O   UNL     1      -5.283  58.489   3.932  1.00  0.00    -0.617 OA
HETATM   23  O   UNL     1      -3.491  56.749   3.715  1.00  0.00    -0.617 OA
ENDBRANCH  19  20
ENDBRANCH  18  19
ENDBRANCH   7  18
TORSDOF 8
ENDMDL
MODEL 9
REMARK VINA RESULT:    -6.509      3.007      6.297
REMARK INTER + INTRA:         -10.333
REMARK INTER:                  -9.706
REMARK INTRA:                  -0.627
REMARK UNBOUND:                -0.971
REMARK  8 active torsions:
REMARK  status: ('A' for Active; 'I' for Inactive)
REMARK    1  A    between atoms: C_5  and  O_6 
REMARK    2  A    between atoms: C_8  and  C_9 
REMARK    3  A    between atoms: C_9  and  N_22 
REMARK    4  A    between atoms: C_10  and  C_12 
REMARK    5  A    between atoms: C_12  and  O_13 
REMARK    6  A    between atoms: O_13  and  P_14 
REMARK    7  A    between atoms: C_18  and  C_21 
REMARK    8  A    between atoms: C_21  and  N_22 
ROOT
HETATM    1  N   UNL     1       1.010  51.842   9.066  1.00  0.00    -0.367 N 
ATOM      2  HN  UNL     1       0.325  51.255   9.542  1.00  0.00     0.165 HD
HETATM    3  C   UNL     1       2.266  51.899   9.515  1.00  0.00     0.039 A 
HETATM    4  C   UNL     1       2.592  51.072  10.728  1.00  0.00     0.071 C 
HETATM    5  C   UNL     1       3.197  52.722   8.830  1.00  0.00     0.096 A 
HETATM    6  C   UNL     1       2.829  53.443   7.718  1.00  0.00     0.004 A 
HETATM    7  C   UNL     1       1.533  53.365   7.283  1.00  0.00    -0.008 A 
HETATM    8  C   UNL     1       0.648  52.556   7.990  1.00  0.00     0.098 A 
ENDROOT
BRANCH   6   9
HETATM    9  C   UNL     1       3.756  54.345   6.918  1.00  0.00     0.156 C 
BRANCH   9  10
HETATM   10  N   UNL     1       3.878  55.688   7.371  1.00  0.00    -0.408 N 
ATOM     11  HN  UNL     1       3.193  56.402   7.123  1.00  0.00     0.154 HD
BRANCH  10  12
HETATM   12  C   UNL     1       5.019  55.987   8.196  1.00  0.00     0.228 C 
BRANCH  12  13
HETATM   13  C   UNL     1       5.983  56.851   7.400  1.00  0.00     0.190 C 
HETATM   14  O   UNL     1       6.617  56.392   6.425  1.00  0.00    -0.647 OA
HETATM   15  O   UNL     1       6.173  58.061   7.710  1.00  0.00    -0.647 OA
ENDBRANCH  12  13
ENDBRANCH  10  12
ENDBRANCH   9  10
ENDBRANCH   6   9
BRANCH   5  16
HETATM   16  O   UNL     1       4.491  52.759   9.311  1.00  0.00    -0.358 OA
ATOM     17  HO  UNL     1       5.191  52.866   8.678  1.00  0.00     0.217 HD
ENDBRANCH   5  16
BRANCH   7  18
HETATM   18  C   UNL     1       0.983  54.181   6.114  1.00  0.00     0.223 C 
BRANCH  18  19
HETATM   19  O   UNL     1       0.106  55.237   6.342  1.00  0.00    -0.278 OA
BRANCH  19  20
HETATM   20  P   UNL     1      -1.382  55.084   5.784  1.00  0.00     0.422 P 
HETATM   21  O   UNL     1      -1.344  53.958   4.732  1.00  0.00    -0.617 OA
HETATM   22  O   UNL     1      -1.750  56.401   5.139  1.00  0.00    -0.617 OA
HETATM   23  O   UNL     1      -2.217  54.729   6.948  1.00  0.00    -0.617 OA
ENDBRANCH  19  20
ENDBRANCH  18  19
ENDBRANCH   7  18
TORSDOF 8
ENDMDL
MODEL 10
REMARK VINA RESULT:    -6.480      2.424      5.738
REMARK INTER + INTRA:         -10.292
REMARK INTER:                  -9.681
REMARK INTRA:                  -0.611
REMARK UNBOUND:                -0.971
REMARK  8 active torsions:
REMARK  status: ('A' for Active; 'I' for Inactive)
REMARK    1  A    between atoms: C_5  and  O_6 
REMARK    2  A    between atoms: C_8  and  C_9 
REMARK    3  A    between atoms: C_9  and  N_22 
REMARK    4  A    between atoms: C_10  and  C_12 
REMARK    5  A    between atoms: C_12  and  O_13 
REMARK    6  A    between atoms: O_13  and  P_14 
REMARK    7  A    between atoms: C_18  and  C_21 
REMARK    8  A    between atoms: C_21  and  N_22 
ROOT
HETATM    1  N   UNL     1       4.872  54.326   8.476  1.00  0.00    -0.367 N 
ATOM      2  HN  UNL     1       5.661  54.949   8.309  1.00  0.00     0.165 HD
HETATM    3  C   UNL     1       4.870  53.522   9.542  1.00  0.00     0.039 A 
HETATM    4  C   UNL     1       6.069  53.593  10.447  1.00  0.00     0.071 C 
HETATM    5  C   UNL     1       3.755  52.669   9.750  1.00  0.00     0.096 A 
HETATM    6  C   UNL     1       2.686  52.667   8.884  1.00  0.00     0.004 A 
HETATM    7  C   UNL     1       2.719  53.502   7.799  1.00  0.00    -0.008 A 
HETATM    8  C   UNL     1       3.835  54.314   7.625  1.00  0.00     0.098 A 
ENDROOT
BRANCH   6   9
HETATM    9  C   UNL     1       1.450  51.794   9.028  1.00  0.00     0.156 C 
BRANCH   9  10
HETATM   10  N   UNL     1       1.412  50.933  10.160  1.00  0.00    -0.408 N 
ATOM     11  HN  UNL     1       1.151  51.275  11.085  1.00  0.00     0.154 HD
BRANCH  10  12
HETATM   12  C   UNL     1       1.760  49.555   9.932  1.00  0.00     0.228 C 
BRANCH  12  13
HETATM   13  C   UNL     1       2.035  48.894  11.273  1.00  0.00     0.190 C 
HETATM   14  O   UNL     1       2.707  49.467  12.157  1.00  0.00    -0.647 OA
HETATM   15  O   UNL     1       1.593  47.737  11.525  1.00  0.00    -0.647 OA
ENDBRANCH  12  13
ENDBRANCH  10  12
ENDBRANCH   9  10
ENDBRANCH   6   9
BRANCH   5  16
HETATM   16  O   UNL     1       3.776  51.852  10.863  1.00  0.00    -0.358 OA
ATOM     17  HO  UNL     1       3.664  52.263  11.712  1.00  0.00     0.217 HD
ENDBRANCH   5  16
BRANCH   7  18
HETATM   18  C   UNL     1       1.633  53.530   6.723  1.00  0.00     0.223 C 
BRANCH  18  19
HETATM   19  O   UNL     1       0.631  54.495   6.758  1.00  0.00    -0.278 OA
BRANCH  19  20
HETATM   20  P   UNL     1      -0.830  54.047   6.298  1.00  0.00     0.422 P 
HETATM   21  O   UNL     1      -0.957  54.422   4.808  1.00  0.00    -0.617 OA
HETATM   22  O   UNL     1      -1.817  54.836   7.128  1.00  0.00    -0.617 OA
HETATM   23  O   UNL     1      -0.893  52.589   6.510  1.00  0.00    -0.617 OA
ENDBRANCH  19  20
ENDBRANCH  18  19
ENDBRANCH   7  18
TORSDOF 8
ENDMDL
MODEL 11
REMARK VINA RESULT:    -6.463      8.286     10.445
REMARK INTER + INTRA:         -10.268
REMARK INTER:                  -9.291
REMARK INTRA:                  -0.977
REMARK UNBOUND:                -0.971
REMARK  8 active torsions:
REMARK  status: ('A' for Active; 'I' for Inactive)
REMARK    1  A    between atoms: C_5  and  O_6 
REMARK    2  A    between atoms: C_8  and  C_9 
REMARK    3  A    between atoms: C_9  and  N_22 
REMARK    4  A    between atoms: C_10  and  C_12 
REMARK    5  A    between atoms: C_12  and  O_13 
REMARK    6  A    between atoms: O_13  and  P_14 
REMARK    7  A    between atoms: C_18  and  C_21 
REMARK    8  A    between atoms: C_21  and  N_22 
ROOT
HETATM    1  N   UNL     1      -2.475  60.998   5.465  1.00  0.00    -0.367 N 
ATOM      2  HN  UNL     1      -1.526  61.357   5.361  1.00  0.00     0.165 HD
HETATM    3  C   UNL     1      -3.497  61.641   4.897  1.00  0.00     0.039 A 
HETATM    4  C   UNL     1      -3.169  62.888   4.122  1.00  0.00     0.071 C 
HETATM    5  C   UNL     1      -4.805  61.115   5.056  1.00  0.00     0.096 A 
HETATM    6  C   UNL     1      -5.030  59.961   5.771  1.00  0.00     0.004 A 
HETATM    7  C   UNL     1      -3.960  59.326   6.343  1.00  0.00    -0.008 A 
HETATM    8  C   UNL     1      -2.695  59.880   6.173  1.00  0.00     0.098 A 
ENDROOT
BRANCH   6   9
HETATM    9  C   UNL     1      -6.391  59.322   5.990  1.00  0.00     0.156 C 
BRANCH   9  10
HETATM   10  N   UNL     1      -7.247  59.253   4.855  1.00  0.00    -0.408 N 
ATOM     11  HN  UNL     1      -6.888  59.040   3.925  1.00  0.00     0.154 HD
BRANCH  10  12
HETATM   12  C   UNL     1      -8.646  59.499   5.090  1.00  0.00     0.228 C 
BRANCH  12  13
HETATM   13  C   UNL     1      -8.882  61.000   5.093  1.00  0.00     0.190 C 
HETATM   14  O   UNL     1      -8.840  61.670   4.040  1.00  0.00    -0.647 OA
HETATM   15  O   UNL     1      -9.123  61.613   6.172  1.00  0.00    -0.647 OA
ENDBRANCH  12  13
ENDBRANCH  10  12
ENDBRANCH   9  10
ENDBRANCH   6   9
BRANCH   5  16
HETATM   16  O   UNL     1      -5.845  61.796   4.453  1.00  0.00    -0.358 OA
ATOM     17  HO  UNL     1      -6.475  61.286   3.958  1.00  0.00     0.217 HD
ENDBRANCH   5  16
BRANCH   7  18
HETATM   18  C   UNL     1      -4.089  58.087   7.229  1.00  0.00     0.223 C 
BRANCH  18  19
HETATM   19  O   UNL     1      -3.591  56.860   6.801  1.00  0.00    -0.278 OA
BRANCH  19  20
HETATM   20  P   UNL     1      -2.484  56.162   7.715  1.00  0.00     0.422 P 
HETATM   21  O   UNL     1      -2.060  54.872   6.985  1.00  0.00    -0.617 OA
HETATM   22  O   UNL     1      -3.144  55.832   9.035  1.00  0.00    -0.617 OA
HETATM   23  O   UNL     1      -1.376  57.130   7.820  1.00  0.00    -0.617 OA
ENDBRANCH  19  20
ENDBRANCH  18  19
ENDBRANCH   7  18
TORSDOF 8
ENDMDL
MODEL 12
REMARK VINA RESULT:    -6.266      8.573     11.060
REMARK INTER + INTRA:          -9.984
REMARK INTER:                  -9.196
REMARK INTRA:                  -0.789
REMARK UNBOUND:                -0.971
REMARK  8 active torsions:
REMARK  status: ('A' for Active; 'I' for Inactive)
REMARK    1  A    between atoms: C_5  and  O_6 
REMARK    2  A    between atoms: C_8  and  C_9 
REMARK    3  A    between atoms: C_9  and  N_22 
REMARK    4  A    between atoms: C_10  and  C_12 
REMARK    5  A    between atoms: C_12  and  O_13 
REMARK    6  A    between atoms: O_13  and  P_14 
REMARK    7  A    between atoms: C_18  and  C_21 
REMARK    8  A    between atoms: C_21  and  N_22 
ROOT
HETATM    1  N   UNL     1      -5.548  57.978  10.653  1.00  0.00    -0.367 N 
ATOM      2  HN  UNL     1      -5.233  57.962  11.623  1.00  0.00     0.165 HD
HETATM    3  C   UNL     1      -6.785  58.387  10.360  1.00  0.00     0.039 A 
HETATM    4  C   UNL     1      -7.654  58.803  11.515  1.00  0.00     0.071 C 
HETATM    5  C   UNL     1      -7.192  58.402   9.001  1.00  0.00     0.096 A 
HETATM    6  C   UNL     1      -6.337  58.017   7.994  1.00  0.00     0.004 A 
HETATM    7  C   UNL     1      -5.075  57.602   8.328  1.00  0.00    -0.008 A 
HETATM    8  C   UNL     1      -4.719  57.590   9.673  1.00  0.00     0.098 A 
ENDROOT
BRANCH   6   9
HETATM    9  C   UNL     1      -6.682  58.006   6.514  1.00  0.00     0.156 C 
BRANCH   9  10
HETATM   10  N   UNL     1      -6.723  59.271   5.864  1.00  0.00    -0.408 N 
ATOM     11  HN  UNL     1      -5.940  59.923   5.910  1.00  0.00     0.154 HD
BRANCH  10  12
HETATM   12  C   UNL     1      -7.927  59.583   5.140  1.00  0.00     0.228 C 
BRANCH  12  13
HETATM   13  C   UNL     1      -7.863  61.033   4.689  1.00  0.00     0.190 C 
HETATM   14  O   UNL     1      -8.876  61.633   4.272  1.00  0.00    -0.647 OA
HETATM   15  O   UNL     1      -6.771  61.670   4.720  1.00  0.00    -0.647 OA
ENDBRANCH  12  13
ENDBRANCH  10  12
ENDBRANCH   9  10
ENDBRANCH   6   9
BRANCH   5  16
HETATM   16  O   UNL     1      -8.474  58.834   8.724  1.00  0.00    -0.358 OA
ATOM     17  HO  UNL     1      -9.188  58.420   9.195  1.00  0.00     0.217 HD
ENDBRANCH   5  16
BRANCH   7  18
HETATM   18  C   UNL     1      -4.064  57.072   7.311  1.00  0.00     0.223 C 
BRANCH  18  19
HETATM   19  O   UNL     1      -3.159  57.935   6.701  1.00  0.00    -0.278 OA
BRANCH  19  20
HETATM   20  P   UNL     1      -2.848  57.693   5.154  1.00  0.00     0.422 P 
HETATM   21  O   UNL     1      -4.207  57.478   4.460  1.00  0.00    -0.617 OA
HETATM   22  O   UNL     1      -2.003  56.443   5.063  1.00  0.00    -0.617 OA
HETATM   23  O   UNL     1      -2.170  58.915   4.681  1.00  0.00    -0.617 OA
ENDBRANCH  19  20
ENDBRANCH  18  19
ENDBRANCH   7  18
TORSDOF 8
ENDMDL
MODEL 13
REMARK VINA RESULT:    -6.261      9.161     12.149
REMARK INTER + INTRA:          -9.977
REMARK INTER:                  -8.896
REMARK INTRA:                  -1.081
REMARK UNBOUND:                -0.971
REMARK  8 active torsions:
REMARK  status: ('A' for Active; 'I' for Inactive)
REMARK    1  A    between atoms: C_5  and  O_6 
REMARK    2  A    between atoms: C_8  and  C_9 
REMARK    3  A    between atoms: C_9  and  N_22 
REMARK    4  A    between atoms: C_10  and  C_12 
REMARK    5  A    between atoms: C_12  and  O_13 
REMARK    6  A    between atoms: O_13  and  P_14 
REMARK    7  A    between atoms: C_18  and  C_21 
REMARK    8  A    between atoms: C_21  and  N_22 
ROOT
HETATM    1  N   UNL     1      -7.948  58.762   9.832  1.00  0.00    -0.367 N 
ATOM      2  HN  UNL     1      -8.537  59.055  10.611  1.00  0.00     0.165 HD
HETATM    3  C   UNL     1      -6.697  58.353  10.059  1.00  0.00     0.039 A 
HETATM    4  C   UNL     1      -6.230  58.356  11.489  1.00  0.00     0.071 C 
HETATM    5  C   UNL     1      -5.903  57.947   8.955  1.00  0.00     0.096 A 
HETATM    6  C   UNL     1      -6.402  57.960   7.673  1.00  0.00     0.004 A 
HETATM    7  C   UNL     1      -7.688  58.386   7.474  1.00  0.00    -0.008 A 
HETATM    8  C   UNL     1      -8.430  58.787   8.581  1.00  0.00     0.098 A 
ENDROOT
BRANCH   6   9
HETATM    9  C   UNL     1      -5.630  57.539   6.433  1.00  0.00     0.156 C 
BRANCH   9  10
HETATM   10  N   UNL     1      -4.605  58.424   5.996  1.00  0.00    -0.408 N 
ATOM     11  HN  UNL     1      -4.808  59.384   5.718  1.00  0.00     0.154 HD
BRANCH  10  12
HETATM   12  C   UNL     1      -3.267  57.893   5.967  1.00  0.00     0.228 C 
BRANCH  12  13
HETATM   13  C   UNL     1      -2.851  57.700   4.518  1.00  0.00     0.190 C 
HETATM   14  O   UNL     1      -1.827  58.247   4.055  1.00  0.00    -0.647 OA
HETATM   15  O   UNL     1      -3.540  56.982   3.739  1.00  0.00    -0.647 OA
ENDBRANCH  12  13
ENDBRANCH  10  12
ENDBRANCH   9  10
ENDBRANCH   6   9
BRANCH   5  16
HETATM   16  O   UNL     1      -4.615  57.523   9.217  1.00  0.00    -0.358 OA
ATOM     17  HO  UNL     1      -4.474  56.590   9.323  1.00  0.00     0.217 HD
ENDBRANCH   5  16
BRANCH   7  18
HETATM   18  C   UNL     1      -8.327  58.525   6.092  1.00  0.00     0.223 C 
BRANCH  18  19
HETATM   19  O   UNL     1      -8.953  59.711   5.721  1.00  0.00    -0.278 OA
BRANCH  19  20
HETATM   20  P   UNL     1      -8.035  60.857   5.095  1.00  0.00     0.422 P 
HETATM   21  O   UNL     1      -7.669  61.809   6.251  1.00  0.00    -0.617 OA
HETATM   22  O   UNL     1      -8.870  61.577   4.061  1.00  0.00    -0.617 OA
HETATM   23  O   UNL     1      -6.851  60.172   4.543  1.00  0.00    -0.617 OA
ENDBRANCH  19  20
ENDBRANCH  18  19
ENDBRANCH   7  18
TORSDOF 8
ENDMDL
MODEL 14
REMARK VINA RESULT:    -6.060      7.430     10.430
REMARK INTER + INTRA:          -9.688
REMARK INTER:                  -8.666
REMARK INTRA:                  -1.021
REMARK UNBOUND:                -0.971
REMARK  8 active torsions:
REMARK  status: ('A' for Active; 'I' for Inactive)
REMARK    1  A    between atoms: C_5  and  O_6 
REMARK    2  A    between atoms: C_8  and  C_9 
REMARK    3  A    between atoms: C_9  and  N_22 
REMARK    4  A    between atoms: C_10  and  C_12 
REMARK    5  A    between atoms: C_12  and  O_13 
REMARK    6  A    between atoms: O_13  and  P_14 
REMARK    7  A    between atoms: C_18  and  C_21 
REMARK    8  A    between atoms: C_21  and  N_22 
ROOT
HETATM    1  N   UNL     1      -4.967  60.541   5.307  1.00  0.00    -0.367 N 
ATOM      2  HN  UNL     1      -5.227  61.315   4.695  1.00  0.00     0.165 HD
HETATM    3  C   UNL     1      -3.681  60.306   5.577  1.00  0.00     0.039 A 
HETATM    4  C   UNL     1      -2.675  61.224   4.938  1.00  0.00     0.071 C 
HETATM    5  C   UNL     1      -3.351  59.225   6.435  1.00  0.00     0.096 A 
HETATM    6  C   UNL     1      -4.328  58.433   6.993  1.00  0.00     0.004 A 
HETATM    7  C   UNL     1      -5.638  58.699   6.696  1.00  0.00    -0.008 A 
HETATM    8  C   UNL     1      -5.918  59.761   5.841  1.00  0.00     0.098 A 
ENDROOT
BRANCH   6   9
HETATM    9  C   UNL     1      -4.072  57.260   7.925  1.00  0.00     0.156 C 
BRANCH   9  10
HETATM   10  N   UNL     1      -3.552  56.078   7.326  1.00  0.00    -0.408 N 
ATOM     11  HN  UNL     1      -4.094  55.534   6.655  1.00  0.00     0.154 HD
BRANCH  10  12
HETATM   12  C   UNL     1      -2.222  55.691   7.717  1.00  0.00     0.228 C 
BRANCH  12  13
HETATM   13  C   UNL     1      -1.338  55.667   6.480  1.00  0.00     0.190 C 
HETATM   14  O   UNL     1      -1.726  56.143   5.392  1.00  0.00    -0.647 OA
HETATM   15  O   UNL     1      -0.183  55.155   6.522  1.00  0.00    -0.647 OA
ENDBRANCH  12  13
ENDBRANCH  10  12
ENDBRANCH   9  10
ENDBRANCH   6   9
BRANCH   5  16
HETATM   16  O   UNL     1      -2.014  59.007   6.702  1.00  0.00    -0.358 OA
ATOM     17  HO  UNL     1      -1.414  59.004   5.966  1.00  0.00     0.217 HD
ENDBRANCH   5  16
BRANCH   7  18
HETATM   18  C   UNL     1      -6.805  57.842   7.185  1.00  0.00     0.223 C 
BRANCH  18  19
HETATM   19  O   UNL     1      -7.501  57.026   6.298  1.00  0.00    -0.278 OA
BRANCH  19  20
HETATM   20  P   UNL     1      -9.083  57.223   6.211  1.00  0.00     0.422 P 
HETATM   21  O   UNL     1      -9.642  56.917   7.614  1.00  0.00    -0.617 OA
HETATM   22  O   UNL     1      -9.599  56.221   5.204  1.00  0.00    -0.617 OA
HETATM   23  O   UNL     1      -9.296  58.631   5.824  1.00  0.00    -0.617 OA
ENDBRANCH  19  20
ENDBRANCH  18  19
ENDBRANCH   7  18
TORSDOF 8
ENDMDL
MODEL 15
REMARK VINA RESULT:    -6.049      7.848      9.942
REMARK INTER + INTRA:          -9.673
REMARK INTER:                  -8.303
REMARK INTRA:                  -1.370
REMARK UNBOUND:                -0.971
REMARK  8 active torsions:
REMARK  status: ('A' for Active; 'I' for Inactive)
REMARK    1  A    between atoms: C_5  and  O_6 
REMARK    2  A    between atoms: C_8  and  C_9 
REMARK    3  A    between atoms: C_9  and  N_22 
REMARK    4  A    between atoms: C_10  and  C_12 
REMARK    5  A    between atoms: C_12  and  O_13 
REMARK    6  A    between atoms: O_13  and  P_14 
REMARK    7  A    between atoms: C_18  and  C_21 
REMARK    8  A    between atoms: C_21  and  N_22 
ROOT
HETATM    1  N   UNL     1      -3.275  61.185   5.615  1.00  0.00    -0.367 N 
ATOM      2  HN  UNL     1      -2.717  62.026   5.760  1.00  0.00     0.165 HD
HETATM    3  C   UNL     1      -4.519  61.283   5.140  1.00  0.00     0.039 A 
HETATM    4  C   UNL     1      -5.026  62.668   4.846  1.00  0.00     0.071 C 
HETATM    5  C   UNL     1      -5.269  60.094   4.945  1.00  0.00     0.096 A 
HETATM    6  C   UNL     1      -4.734  58.858   5.225  1.00  0.00     0.004 A 
HETATM    7  C   UNL     1      -3.456  58.791   5.713  1.00  0.00    -0.008 A 
HETATM    8  C   UNL     1      -2.759  59.981   5.901  1.00  0.00     0.098 A 
ENDROOT
BRANCH   6   9
HETATM    9  C   UNL     1      -5.458  57.534   5.043  1.00  0.00     0.156 C 
BRANCH   9  10
HETATM   10  N   UNL     1      -6.029  56.960   6.213  1.00  0.00    -0.408 N 
ATOM     11  HN  UNL     1      -5.597  56.167   6.688  1.00  0.00     0.154 HD
BRANCH  10  12
HETATM   12  C   UNL     1      -7.248  57.556   6.692  1.00  0.00     0.228 C 
BRANCH  12  13
HETATM   13  C   UNL     1      -8.329  57.364   5.641  1.00  0.00     0.190 C 
HETATM   14  O   UNL     1      -8.770  58.326   4.976  1.00  0.00    -0.647 OA
HETATM   15  O   UNL     1      -8.817  56.220   5.417  1.00  0.00    -0.647 OA
ENDBRANCH  12  13
ENDBRANCH  10  12
ENDBRANCH   9  10
ENDBRANCH   6   9
BRANCH   5  16
HETATM   16  O   UNL     1      -6.550  60.223   4.447  1.00  0.00    -0.358 OA
ATOM     17  HO  UNL     1      -7.263  60.266   5.074  1.00  0.00     0.217 HD
ENDBRANCH   5  16
BRANCH   7  18
HETATM   18  C   UNL     1      -2.783  57.487   6.140  1.00  0.00     0.223 C 
BRANCH  18  19
HETATM   19  O   UNL     1      -2.325  57.325   7.444  1.00  0.00    -0.278 OA
BRANCH  19  20
HETATM   20  P   UNL     1      -3.326  56.652   8.491  1.00  0.00     0.422 P 
HETATM   21  O   UNL     1      -3.975  55.453   7.771  1.00  0.00    -0.617 OA
HETATM   22  O   UNL     1      -4.368  57.690   8.838  1.00  0.00    -0.617 OA
HETATM   23  O   UNL     1      -2.493  56.229   9.633  1.00  0.00    -0.617 OA
ENDBRANCH  19  20
ENDBRANCH  18  19
ENDBRANCH   7  18
TORSDOF 8
ENDMDL
MODEL 16
REMARK VINA RESULT:    -5.989      7.629     11.119
REMARK INTER + INTRA:          -9.586
REMARK INTER:                  -8.301
REMARK INTRA:                  -1.285
REMARK UNBOUND:                -0.971
REMARK  8 active torsions:
REMARK  status: ('A' for Active; 'I' for Inactive)
REMARK    1  A    between atoms: C_5  and  O_6 
REMARK    2  A    between atoms: C_8  and  C_9 
REMARK    3  A    between atoms: C_9  and  N_22 
REMARK    4  A    between atoms: C_10  and  C_12 
REMARK    5  A    between atoms: C_12  and  O_13 
REMARK    6  A    between atoms: O_13  and  P_14 
REMARK    7  A    between atoms: C_18  and  C_21 
REMARK    8  A    between atoms: C_21  and  N_22 
ROOT
HETATM    1  N   UNL     1      -8.257  59.159   7.377  1.00  0.00    -0.367 N 
ATOM      2  HN  UNL     1      -9.254  59.371   7.364  1.00  0.00     0.165 HD
HETATM    3  C   UNL     1      -7.702  58.626   8.469  1.00  0.00     0.039 A 
HETATM    4  C   UNL     1      -8.614  58.370   9.637  1.00  0.00     0.071 C 
HETATM    5  C   UNL     1      -6.313  58.339   8.455  1.00  0.00     0.096 A 
HETATM    6  C   UNL     1      -5.542  58.590   7.344  1.00  0.00     0.004 A 
HETATM    7  C   UNL     1      -6.140  59.139   6.241  1.00  0.00    -0.008 A 
HETATM    8  C   UNL     1      -7.503  59.417   6.299  1.00  0.00     0.098 A 
ENDROOT
BRANCH   6   9
HETATM    9  C   UNL     1      -4.051  58.311   7.235  1.00  0.00     0.156 C 
BRANCH   9  10
HETATM   10  N   UNL     1      -3.676  56.956   7.020  1.00  0.00    -0.408 N 
ATOM     11  HN  UNL     1      -4.250  56.322   6.466  1.00  0.00     0.154 HD
BRANCH  10  12
HETATM   12  C   UNL     1      -2.442  56.527   7.625  1.00  0.00     0.228 C 
BRANCH  12  13
HETATM   13  C   UNL     1      -2.647  56.424   9.128  1.00  0.00     0.190 C 
HETATM   14  O   UNL     1      -3.595  55.772   9.613  1.00  0.00    -0.647 OA
HETATM   15  O   UNL     1      -1.860  57.005   9.928  1.00  0.00    -0.647 OA
ENDBRANCH  12  13
ENDBRANCH  10  12
ENDBRANCH   9  10
ENDBRANCH   6   9
BRANCH   5  16
HETATM   16  O   UNL     1      -5.765  57.782   9.594  1.00  0.00    -0.358 OA
ATOM     17  HO  UNL     1      -4.885  58.047   9.833  1.00  0.00     0.217 HD
ENDBRANCH   5  16
BRANCH   7  18
HETATM   18  C   UNL     1      -5.377  59.541   4.979  1.00  0.00     0.223 C 
BRANCH  18  19
HETATM   19  O   UNL     1      -5.170  58.620   3.957  1.00  0.00    -0.278 OA
BRANCH  19  20
HETATM   20  P   UNL     1      -3.659  58.330   3.530  1.00  0.00     0.422 P 
HETATM   21  O   UNL     1      -3.355  56.877   3.946  1.00  0.00    -0.617 OA
HETATM   22  O   UNL     1      -2.788  59.295   4.301  1.00  0.00    -0.617 OA
HETATM   23  O   UNL     1      -3.609  58.511   2.066  1.00  0.00    -0.617 OA
ENDBRANCH  19  20
ENDBRANCH  18  19
ENDBRANCH   7  18
TORSDOF 8
ENDMDL
MODEL 17
REMARK VINA RESULT:    -5.897      6.329      9.710
REMARK INTER + INTRA:          -9.453
REMARK INTER:                  -9.043
REMARK INTRA:                  -0.411
REMARK UNBOUND:                -0.971
REMARK  8 active torsions:
REMARK  status: ('A' for Active; 'I' for Inactive)
REMARK    1  A    between atoms: C_5  and  O_6 
REMARK    2  A    between atoms: C_8  and  C_9 
REMARK    3  A    between atoms: C_9  and  N_22 
REMARK    4  A    between atoms: C_10  and  C_12 
REMARK    5  A    between atoms: C_12  and  O_13 
REMARK    6  A    between atoms: O_13  and  P_14 
REMARK    7  A    between atoms: C_18  and  C_21 
REMARK    8  A    between atoms: C_21  and  N_22 
ROOT
HETATM    1  N   UNL     1      -6.678  58.204   8.893  1.00  0.00    -0.367 N 
ATOM      2  HN  UNL     1      -7.577  58.517   9.257  1.00  0.00     0.165 HD
HETATM    3  C   UNL     1      -5.681  57.915   9.735  1.00  0.00     0.039 A 
HETATM    4  C   UNL     1      -5.963  58.080  11.203  1.00  0.00     0.071 C 
HETATM    5  C   UNL     1      -4.443  57.478   9.198  1.00  0.00     0.096 A 
HETATM    6  C   UNL     1      -4.261  57.339   7.842  1.00  0.00     0.004 A 
HETATM    7  C   UNL     1      -5.301  57.644   7.005  1.00  0.00    -0.008 A 
HETATM    8  C   UNL     1      -6.496  58.081   7.570  1.00  0.00     0.098 A 
ENDROOT
BRANCH   6   9
HETATM    9  C   UNL     1      -2.975  56.873   7.177  1.00  0.00     0.156 C 
BRANCH   9  10
HETATM   10  N   UNL     1      -2.675  55.486   7.283  1.00  0.00    -0.408 N 
ATOM     11  HN  UNL     1      -3.405  54.789   7.430  1.00  0.00     0.154 HD
BRANCH  10  12
HETATM   12  C   UNL     1      -1.288  55.118   7.174  1.00  0.00     0.228 C 
BRANCH  12  13
HETATM   13  C   UNL     1      -1.102  54.290   5.912  1.00  0.00     0.190 C 
HETATM   14  O   UNL     1      -1.787  53.268   5.696  1.00  0.00    -0.647 OA
HETATM   15  O   UNL     1      -0.239  54.615   5.049  1.00  0.00    -0.647 OA
ENDBRANCH  12  13
ENDBRANCH  10  12
ENDBRANCH   9  10
ENDBRANCH   6   9
BRANCH   5  16
HETATM   16  O   UNL     1      -3.431  57.180  10.089  1.00  0.00    -0.358 OA
ATOM     17  HO  UNL     1      -3.547  56.422  10.649  1.00  0.00     0.217 HD
ENDBRANCH   5  16
BRANCH   7  18
HETATM   18  C   UNL     1      -5.197  57.611   5.481  1.00  0.00     0.223 C 
BRANCH  18  19
HETATM   19  O   UNL     1      -4.530  58.624   4.798  1.00  0.00    -0.278 OA
BRANCH  19  20
HETATM   20  P   UNL     1      -3.272  58.201   3.911  1.00  0.00     0.422 P 
HETATM   21  O   UNL     1      -2.103  59.109   4.344  1.00  0.00    -0.617 OA
HETATM   22  O   UNL     1      -3.639  58.462   2.469  1.00  0.00    -0.617 OA
HETATM   23  O   UNL     1      -3.016  56.781   4.221  1.00  0.00    -0.617 OA
ENDBRANCH  19  20
ENDBRANCH  18  19
ENDBRANCH   7  18
TORSDOF 8
ENDMDL
MODEL 18
REMARK VINA RESULT:    -5.811      9.589     12.597
REMARK INTER + INTRA:          -9.329
REMARK INTER:                  -8.193
REMARK INTRA:                  -1.136
REMARK UNBOUND:                -0.971
REMARK  8 active torsions:
REMARK  status: ('A' for Active; 'I' for Inactive)
REMARK    1  A    between atoms: C_5  and  O_6 
REMARK    2  A    between atoms: C_8  and  C_9 
REMARK    3  A    between atoms: C_9  and  N_22 
REMARK    4  A    between atoms: C_10  and  C_12 
REMARK    5  A    between atoms: C_12  and  O_13 
REMARK    6  A    between atoms: O_13  and  P_14 
REMARK    7  A    between atoms: C_18  and  C_21 
REMARK    8  A    between atoms: C_21  and  N_22 
ROOT
HETATM    1  N   UNL     1      -4.763  56.845   6.592  1.00  0.00    -0.367 N 
ATOM      2  HN  UNL     1      -4.145  56.326   5.969  1.00  0.00     0.165 HD
HETATM    3  C   UNL     1      -4.486  56.918   7.897  1.00  0.00     0.039 A 
HETATM    4  C   UNL     1      -3.248  56.206   8.369  1.00  0.00     0.071 C 
HETATM    5  C   UNL     1      -5.363  57.650   8.739  1.00  0.00     0.096 A 
HETATM    6  C   UNL     1      -6.473  58.286   8.234  1.00  0.00     0.004 A 
HETATM    7  C   UNL     1      -6.730  58.192   6.892  1.00  0.00    -0.008 A 
HETATM    8  C   UNL     1      -5.853  57.453   6.102  1.00  0.00     0.098 A 
ENDROOT
BRANCH   6   9
HETATM    9  C   UNL     1      -7.463  59.096   9.055  1.00  0.00     0.156 C 
BRANCH   9  10
HETATM   10  N   UNL     1      -7.994  58.460  10.212  1.00  0.00    -0.408 N 
ATOM     11  HN  UNL     1      -8.233  57.469  10.217  1.00  0.00     0.154 HD
BRANCH  10  12
HETATM   12  C   UNL     1      -8.177  59.289  11.374  1.00  0.00     0.228 C 
BRANCH  12  13
HETATM   13  C   UNL     1      -7.365  58.708  12.520  1.00  0.00     0.190 C 
HETATM   14  O   UNL     1      -6.666  57.683  12.370  1.00  0.00    -0.647 OA
HETATM   15  O   UNL     1      -7.383  59.247  13.663  1.00  0.00    -0.647 OA
ENDBRANCH  12  13
ENDBRANCH  10  12
ENDBRANCH   9  10
ENDBRANCH   6   9
BRANCH   5  16
HETATM   16  O   UNL     1      -5.051  57.715  10.082  1.00  0.00    -0.358 OA
ATOM     17  HO  UNL     1      -4.137  57.828  10.316  1.00  0.00     0.217 HD
ENDBRANCH   5  16
BRANCH   7  18
HETATM   18  C   UNL     1      -7.973  58.782   6.226  1.00  0.00     0.223 C 
BRANCH  18  19
HETATM   19  O   UNL     1      -7.887  59.373   4.970  1.00  0.00    -0.278 OA
BRANCH  19  20
HETATM   20  P   UNL     1      -7.791  60.966   4.918  1.00  0.00     0.422 P 
HETATM   21  O   UNL     1      -6.395  61.305   4.359  1.00  0.00    -0.617 OA
HETATM   22  O   UNL     1      -7.929  61.464   6.338  1.00  0.00    -0.617 OA
HETATM   23  O   UNL     1      -8.872  61.408   4.017  1.00  0.00    -0.617 OA
ENDBRANCH  19  20
ENDBRANCH  18  19
ENDBRANCH   7  18
TORSDOF 8
ENDMDL
MODEL 19
REMARK VINA RESULT:    -5.741      9.466     11.660
REMARK INTER + INTRA:          -9.229
REMARK INTER:                  -7.983
REMARK INTRA:                  -1.246
REMARK UNBOUND:                -0.971
REMARK  8 active torsions:
REMARK  status: ('A' for Active; 'I' for Inactive)
REMARK    1  A    between atoms: C_5  and  O_6 
REMARK    2  A    between atoms: C_8  and  C_9 
REMARK    3  A    between atoms: C_9  and  N_22 
REMARK    4  A    between atoms: C_10  and  C_12 
REMARK    5  A    between atoms: C_12  and  O_13 
REMARK    6  A    between atoms: O_13  and  P_14 
REMARK    7  A    between atoms: C_18  and  C_21 
REMARK    8  A    between atoms: C_21  and  N_22 
ROOT
HETATM    1  N   UNL     1      -6.495  62.448   6.576  1.00  0.00    -0.367 N 
ATOM      2  HN  UNL     1      -6.348  63.426   6.824  1.00  0.00     0.165 HD
HETATM    3  C   UNL     1      -7.612  61.824   6.955  1.00  0.00     0.039 A 
HETATM    4  C   UNL     1      -8.604  62.630   7.748  1.00  0.00     0.071 C 
HETATM    5  C   UNL     1      -7.790  60.464   6.591  1.00  0.00     0.096 A 
HETATM    6  C   UNL     1      -6.843  59.792   5.853  1.00  0.00     0.004 A 
HETATM    7  C   UNL     1      -5.706  60.460   5.480  1.00  0.00    -0.008 A 
HETATM    8  C   UNL     1      -5.565  61.790   5.868  1.00  0.00     0.098 A 
ENDROOT
BRANCH   6   9
HETATM    9  C   UNL     1      -6.948  58.341   5.413  1.00  0.00     0.156 C 
BRANCH   9  10
HETATM   10  N   UNL     1      -7.099  57.376   6.447  1.00  0.00    -0.408 N 
ATOM     11  HN  UNL     1      -8.018  57.085   6.779  1.00  0.00     0.154 HD
BRANCH  10  12
HETATM   12  C   UNL     1      -5.886  56.833   7.001  1.00  0.00     0.228 C 
BRANCH  12  13
HETATM   13  C   UNL     1      -5.491  57.659   8.214  1.00  0.00     0.190 C 
HETATM   14  O   UNL     1      -6.350  58.152   8.976  1.00  0.00    -0.647 OA
HETATM   15  O   UNL     1      -4.274  57.876   8.479  1.00  0.00    -0.647 OA
ENDBRANCH  12  13
ENDBRANCH  10  12
ENDBRANCH   9  10
ENDBRANCH   6   9
BRANCH   5  16
HETATM   16  O   UNL     1      -8.957  59.843   6.991  1.00  0.00    -0.358 OA
ATOM     17  HO  UNL     1      -8.881  58.995   7.412  1.00  0.00     0.217 HD
ENDBRANCH   5  16
BRANCH   7  18
HETATM   18  C   UNL     1      -4.547  59.802   4.733  1.00  0.00     0.223 C 
BRANCH  18  19
HETATM   19  O   UNL     1      -3.542  59.142   5.434  1.00  0.00    -0.278 OA
BRANCH  19  20
HETATM   20  P   UNL     1      -2.911  57.842   4.755  1.00  0.00     0.422 P 
HETATM   21  O   UNL     1      -4.017  57.222   3.878  1.00  0.00    -0.617 OA
HETATM   22  O   UNL     1      -2.530  56.899   5.873  1.00  0.00    -0.617 OA
HETATM   23  O   UNL     1      -1.768  58.318   3.952  1.00  0.00    -0.617 OA
ENDBRANCH  19  20
ENDBRANCH  18  19
ENDBRANCH   7  18
TORSDOF 8
ENDMDL
MODEL 20
REMARK VINA RESULT:    -5.643      7.893     10.871
REMARK INTER + INTRA:          -9.088
REMARK INTER:                  -8.095
REMARK INTRA:                  -0.993
REMARK UNBOUND:                -0.971
REMARK  8 active torsions:
REMARK  status: ('A' for Active; 'I' for Inactive)
REMARK    1  A    between atoms: C_5  and  O_6 
REMARK    2  A    between atoms: C_8  and  C_9 
REMARK    3  A    between atoms: C_9  and  N_22 
REMARK    4  A    between atoms: C_10  and  C_12 
REMARK    5  A    between atoms: C_12  and  O_13 
REMARK    6  A    between atoms: O_13  and  P_14 
REMARK    7  A    between atoms: C_18  and  C_21 
REMARK    8  A    between atoms: C_21  and  N_22 
ROOT
HETATM    1  N   UNL     1      -3.606  56.290   7.718  1.00  0.00    -0.367 N 
ATOM      2  HN  UNL     1      -3.343  55.670   8.483  1.00  0.00     0.165 HD
HETATM    3  C   UNL     1      -2.722  56.581   6.760  1.00  0.00     0.039 A 
HETATM    4  C   UNL     1      -1.360  55.956   6.883  1.00  0.00     0.071 C 
HETATM    5  C   UNL     1      -3.119  57.444   5.706  1.00  0.00     0.096 A 
HETATM    6  C   UNL     1      -4.389  57.970   5.654  1.00  0.00     0.004 A 
HETATM    7  C   UNL     1      -5.272  57.655   6.652  1.00  0.00    -0.008 A 
HETATM    8  C   UNL     1      -4.840  56.814   7.674  1.00  0.00     0.098 A 
ENDROOT
BRANCH   6   9
HETATM    9  C   UNL     1      -4.905  58.897   4.564  1.00  0.00     0.156 C 
BRANCH   9  10
HETATM   10  N   UNL     1      -4.250  60.154   4.442  1.00  0.00    -0.408 N 
ATOM     11  HN  UNL     1      -3.720  60.404   3.607  1.00  0.00     0.154 HD
BRANCH  10  12
HETATM   12  C   UNL     1      -4.375  61.055   5.558  1.00  0.00     0.228 C 
BRANCH  12  13
HETATM   13  C   UNL     1      -5.778  61.641   5.556  1.00  0.00     0.190 C 
HETATM   14  O   UNL     1      -6.427  61.783   6.614  1.00  0.00    -0.647 OA
HETATM   15  O   UNL     1      -6.327  61.996   4.474  1.00  0.00    -0.647 OA
ENDBRANCH  12  13
ENDBRANCH  10  12
ENDBRANCH   9  10
ENDBRANCH   6   9
BRANCH   5  16
HETATM   16  O   UNL     1      -2.188  57.723   4.726  1.00  0.00    -0.358 OA
ATOM     17  HO  UNL     1      -1.609  57.020   4.458  1.00  0.00     0.217 HD
ENDBRANCH   5  16
BRANCH   7  18
HETATM   18  C   UNL     1      -6.680  58.242   6.750  1.00  0.00     0.223 C 
BRANCH  18  19
HETATM   19  O   UNL     1      -7.783  57.406   6.894  1.00  0.00    -0.278 OA
BRANCH  19  20
HETATM   20  P   UNL     1      -8.837  57.376   5.694  1.00  0.00     0.422 P 
HETATM   21  O   UNL     1      -9.809  56.216   5.992  1.00  0.00    -0.617 OA
HETATM   22  O   UNL     1      -8.058  57.103   4.428  1.00  0.00    -0.617 OA
HETATM   23  O   UNL     1      -9.514  58.687   5.716  1.00  0.00    -0.617 OA
ENDBRANCH  19  20
ENDBRANCH  18  19
ENDBRANCH   7  18
TORSDOF 8
ENDMDL
