MODEL 1
REMARK VINA RESULT:    -8.507      0.000      0.000
REMARK INTER + INTRA:         -10.406
REMARK INTER:                 -10.248
REMARK INTRA:                  -0.159
REMARK UNBOUND:                -0.159
REMARK  5 active torsions:
REMARK  status: ('A' for Active; 'I' for Inactive)
REMARK    1  A    between atoms: C_3  and  N_4 
REMARK    2  A    between atoms: C_17  and  C_19 
REMARK    3  A    between atoms: C_19  and  O_20 
REMARK    4  A    between atoms: C_19  and  C_22 
REMARK    5  A    between atoms: C_22  and  O_24 
ROOT
HETATM    1  N   UNL     1       9.910   2.499  34.302  1.00  0.00    -0.175 N 
ATOM      2  HN  UNL     1      10.697   2.697  34.921  1.00  0.00     0.186 HD
HETATM    3  C   UNL     1      10.139   2.073  33.041  1.00  0.00     0.680 A 
HETATM    4  N   UNL     1       9.107   1.787  32.212  1.00  0.00    -0.154 N 
ATOM      5  HN  UNL     1       9.298   1.455  31.266  1.00  0.00     0.187 HD
HETATM    6  C   UNL     1       7.825   1.937  32.621  1.00  0.00     0.289 A 
HETATM    7  O   UNL     1       6.858   1.675  31.859  1.00  0.00    -0.265 OA
HETATM    8  C   UNL     1       7.586   2.390  33.906  1.00  0.00     0.142 A 
HETATM    9  C   UNL     1       8.654   2.663  34.746  1.00  0.00     0.149 A 
HETATM   10  N   UNL     1       6.327   2.556  34.362  1.00  0.00    -0.374 N 
ATOM     11  HN  UNL     1       5.537   2.058  33.952  1.00  0.00     0.160 HD
HETATM   12  N   UNL     1       8.456   3.101  36.020  1.00  0.00    -0.372 N 
ATOM     13  HN  UNL     1       9.265   3.364  36.582  1.00  0.00     0.161 HD
HETATM   14  C   UNL     1       6.157   3.489  35.472  1.00  0.00     0.131 C 
HETATM   15  C   UNL     1       7.130   3.207  36.606  1.00  0.00     0.149 C 
ENDROOT
BRANCH  14  16
HETATM   16  C   UNL     1       4.734   3.469  36.005  1.00  0.00     0.170 C 
BRANCH  16  17
HETATM   17  O   UNL     1       4.415   2.152  36.462  1.00  0.00    -0.391 OA
ATOM     18  HO  UNL     1       5.121   1.559  36.234  1.00  0.00     0.210 HD
ENDBRANCH  16  17
BRANCH  16  19
HETATM   19  C   UNL     1       4.554   4.479  37.133  1.00  0.00     0.145 C 
HETATM   20  C   UNL     1       3.087   4.487  37.532  1.00  0.00     0.042 C 
BRANCH  19  21
HETATM   21  O   UNL     1       4.950   5.788  36.678  1.00  0.00    -0.393 OA
ATOM     22  HO  UNL     1       5.026   6.374  37.421  1.00  0.00     0.210 HD
ENDBRANCH  19  21
ENDBRANCH  16  19
ENDBRANCH  14  16
BRANCH   3  23
HETATM   23  N   UNL     1      11.419   1.916  32.630  1.00  0.00    -0.234 N 
ATOM     24  HN2 UNL     1      11.722   1.048  32.189  1.00  0.00     0.174 HD
ATOM     25  HN1 UNL     1      12.080   2.677  32.788  1.00  0.00     0.174 HD
ENDBRANCH   3  23
TORSDOF 5
ENDMDL
MODEL 2
REMARK VINA RESULT:    -8.031     12.032     12.587
REMARK INTER + INTRA:          -9.833
REMARK INTER:                  -9.442
REMARK INTRA:                  -0.391
REMARK UNBOUND:                -0.159
REMARK  5 active torsions:
REMARK  status: ('A' for Active; 'I' for Inactive)
REMARK    1  A    between atoms: C_3  and  N_4 
REMARK    2  A    between atoms: C_17  and  C_19 
REMARK    3  A    between atoms: C_19  and  O_20 
REMARK    4  A    between atoms: C_19  and  C_22 
REMARK    5  A    between atoms: C_22  and  O_24 
ROOT
HETATM    1  N   UNL     1      10.914  12.906  26.733  1.00  0.00    -0.175 N 
ATOM      2  HN  UNL     1      10.472  12.341  26.009  1.00  0.00     0.186 HD
HETATM    3  C   UNL     1      12.039  13.599  26.451  1.00  0.00     0.680 A 
HETATM    4  N   UNL     1      12.629  14.371  27.395  1.00  0.00    -0.154 N 
ATOM      5  HN  UNL     1      13.471  14.897  27.161  1.00  0.00     0.187 HD
HETATM    6  C   UNL     1      12.117  14.452  28.646  1.00  0.00     0.289 A 
HETATM    7  O   UNL     1      12.657  15.166  29.531  1.00  0.00    -0.265 OA
HETATM    8  C   UNL     1      10.975  13.731  28.944  1.00  0.00     0.142 A 
HETATM    9  C   UNL     1      10.376  12.958  27.962  1.00  0.00     0.149 A 
HETATM   10  N   UNL     1      10.426  13.778  30.176  1.00  0.00    -0.374 N 
ATOM     11  HN  UNL     1      10.589  14.561  30.807  1.00  0.00     0.160 HD
HETATM   12  N   UNL     1       9.246  12.242  28.219  1.00  0.00    -0.372 N 
ATOM     13  HN  UNL     1       8.877  11.627  27.493  1.00  0.00     0.161 HD
HETATM   14  C   UNL     1       9.585  12.646  30.555  1.00  0.00     0.131 C 
HETATM   15  C   UNL     1       8.547  12.326  29.490  1.00  0.00     0.149 C 
ENDROOT
BRANCH  14  16
HETATM   16  C   UNL     1       8.892  12.885  31.886  1.00  0.00     0.170 C 
BRANCH  16  17
HETATM   17  O   UNL     1       9.558  12.143  32.910  1.00  0.00    -0.391 OA
ATOM     18  HO  UNL     1       9.757  12.719  33.639  1.00  0.00     0.210 HD
ENDBRANCH  16  17
BRANCH  16  19
HETATM   19  C   UNL     1       8.869  14.369  32.237  1.00  0.00     0.145 C 
HETATM   20  C   UNL     1       8.383  14.509  33.669  1.00  0.00     0.042 C 
BRANCH  19  21
HETATM   21  O   UNL     1       7.978  15.064  31.341  1.00  0.00    -0.393 OA
ATOM     22  HO  UNL     1       8.172  15.993  31.356  1.00  0.00     0.210 HD
ENDBRANCH  19  21
ENDBRANCH  16  19
ENDBRANCH  14  16
BRANCH   3  23
HETATM   23  N   UNL     1      12.550  13.525  25.200  1.00  0.00    -0.234 N 
ATOM     24  HN2 UNL     1      13.329  12.900  24.992  1.00  0.00     0.174 HD
ATOM     25  HN1 UNL     1      12.153  14.121  24.474  1.00  0.00     0.174 HD
ENDBRANCH   3  23
TORSDOF 5
ENDMDL
MODEL 3
REMARK VINA RESULT:    -7.612     11.213     11.559
REMARK INTER + INTRA:          -9.328
REMARK INTER:                  -9.113
REMARK INTRA:                  -0.215
REMARK UNBOUND:                -0.159
REMARK  5 active torsions:
REMARK  status: ('A' for Active; 'I' for Inactive)
REMARK    1  A    between atoms: C_3  and  N_4 
REMARK    2  A    between atoms: C_17  and  C_19 
REMARK    3  A    between atoms: C_19  and  O_20 
REMARK    4  A    between atoms: C_19  and  C_22 
REMARK    5  A    between atoms: C_22  and  O_24 
ROOT
HETATM    1  N   UNL     1      11.366  13.513  28.082  1.00  0.00    -0.175 N 
ATOM      2  HN  UNL     1      12.085  14.228  27.975  1.00  0.00     0.186 HD
HETATM    3  C   UNL     1      11.111  12.659  27.066  1.00  0.00     0.680 A 
HETATM    4  N   UNL     1      10.174  11.691  27.198  1.00  0.00    -0.154 N 
ATOM      5  HN  UNL     1      10.003  11.047  26.425  1.00  0.00     0.187 HD
HETATM    6  C   UNL     1       9.460  11.565  28.342  1.00  0.00     0.289 A 
HETATM    7  O   UNL     1       8.587  10.669  28.475  1.00  0.00    -0.265 OA
HETATM    8  C   UNL     1       9.706  12.448  29.378  1.00  0.00     0.142 A 
HETATM    9  C   UNL     1      10.679  13.424  29.231  1.00  0.00     0.149 A 
HETATM   10  N   UNL     1       9.021  12.365  30.538  1.00  0.00    -0.374 N 
ATOM     11  HN  UNL     1       8.575  11.499  30.838  1.00  0.00     0.160 HD
HETATM   12  N   UNL     1      10.953  14.303  30.235  1.00  0.00    -0.372 N 
ATOM     13  HN  UNL     1      11.622  15.053  30.063  1.00  0.00     0.161 HD
HETATM   14  C   UNL     1       8.954  13.583  31.340  1.00  0.00     0.131 C 
HETATM   15  C   UNL     1      10.325  14.208  31.542  1.00  0.00     0.149 C 
ENDROOT
BRANCH  14  16
HETATM   16  C   UNL     1       8.306  13.328  32.691  1.00  0.00     0.170 C 
BRANCH  16  17
HETATM   17  O   UNL     1       9.013  12.287  33.368  1.00  0.00    -0.391 OA
ATOM     18  HO  UNL     1       9.228  12.572  34.249  1.00  0.00     0.210 HD
ENDBRANCH  16  17
BRANCH  16  19
HETATM   19  C   UNL     1       8.285  14.594  33.540  1.00  0.00     0.145 C 
HETATM   20  C   UNL     1       8.044  14.191  34.985  1.00  0.00     0.042 C 
BRANCH  19  21
HETATM   21  O   UNL     1       7.228  15.464  33.086  1.00  0.00    -0.393 OA
ATOM     22  HO  UNL     1       7.403  16.353  33.370  1.00  0.00     0.210 HD
ENDBRANCH  19  21
ENDBRANCH  16  19
ENDBRANCH  14  16
BRANCH   3  23
HETATM   23  N   UNL     1      11.827  12.778  25.924  1.00  0.00    -0.234 N 
ATOM     24  HN2 UNL     1      12.492  12.055  25.648  1.00  0.00     0.174 HD
ATOM     25  HN1 UNL     1      11.702  13.614  25.353  1.00  0.00     0.174 HD
ENDBRANCH   3  23
TORSDOF 5
ENDMDL
MODEL 4
REMARK VINA RESULT:    -7.407     11.894     12.389
REMARK INTER + INTRA:          -9.081
REMARK INTER:                  -8.898
REMARK INTRA:                  -0.183
REMARK UNBOUND:                -0.159
REMARK  5 active torsions:
REMARK  status: ('A' for Active; 'I' for Inactive)
REMARK    1  A    between atoms: C_3  and  N_4 
REMARK    2  A    between atoms: C_17  and  C_19 
REMARK    3  A    between atoms: C_19  and  O_20 
REMARK    4  A    between atoms: C_19  and  C_22 
REMARK    5  A    between atoms: C_22  and  O_24 
ROOT
HETATM    1  N   UNL     1      12.491  14.541  27.366  1.00  0.00    -0.175 N 
ATOM      2  HN  UNL     1      12.995  15.414  27.518  1.00  0.00     0.186 HD
HETATM    3  C   UNL     1      12.561  13.926  26.165  1.00  0.00     0.680 A 
HETATM    4  N   UNL     1      11.915  12.756  25.950  1.00  0.00    -0.154 N 
ATOM      5  HN  UNL     1      11.988  12.299  25.040  1.00  0.00     0.187 HD
HETATM    6  C   UNL     1      11.171  12.183  26.926  1.00  0.00     0.289 A 
HETATM    7  O   UNL     1      10.567  11.095  26.737  1.00  0.00    -0.265 OA
HETATM    8  C   UNL     1      11.083  12.817  28.152  1.00  0.00     0.142 A 
HETATM    9  C   UNL     1      11.762  14.007  28.359  1.00  0.00     0.149 A 
HETATM   10  N   UNL     1      10.355  12.288  29.158  1.00  0.00    -0.374 N 
ATOM     11  HN  UNL     1      10.138  11.292  29.197  1.00  0.00     0.160 HD
HETATM   12  N   UNL     1      11.705  14.653  29.556  1.00  0.00    -0.372 N 
ATOM     13  HN  UNL     1      12.156  15.564  29.647  1.00  0.00     0.161 HD
HETATM   14  C   UNL     1       9.894  13.218  30.184  1.00  0.00     0.131 C 
HETATM   15  C   UNL     1      11.023  14.090  30.710  1.00  0.00     0.149 C 
ENDROOT
BRANCH  14  16
HETATM   16  C   UNL     1       9.233  12.489  31.342  1.00  0.00     0.170 C 
BRANCH  16  17
HETATM   17  O   UNL     1      10.225  12.122  32.303  1.00  0.00    -0.391 OA
ATOM     18  HO  UNL     1      10.188  11.186  32.455  1.00  0.00     0.210 HD
ENDBRANCH  16  17
BRANCH  16  19
HETATM   19  C   UNL     1       8.157  13.351  31.994  1.00  0.00     0.145 C 
HETATM   20  C   UNL     1       8.346  13.284  33.500  1.00  0.00     0.042 C 
BRANCH  19  21
HETATM   21  O   UNL     1       6.853  12.850  31.635  1.00  0.00    -0.393 OA
ATOM     22  HO  UNL     1       6.701  12.018  32.067  1.00  0.00     0.210 HD
ENDBRANCH  19  21
ENDBRANCH  16  19
ENDBRANCH  14  16
BRANCH   3  23
HETATM   23  N   UNL     1      13.308  14.493  25.188  1.00  0.00    -0.234 N 
ATOM     24  HN2 UNL     1      14.054  15.150  25.418  1.00  0.00     0.174 HD
ATOM     25  HN1 UNL     1      13.098  14.263  24.217  1.00  0.00     0.174 HD
ENDBRANCH   3  23
TORSDOF 5
ENDMDL
MODEL 5
REMARK VINA RESULT:    -7.384     11.693     12.247
REMARK INTER + INTRA:          -9.053
REMARK INTER:                  -8.807
REMARK INTRA:                  -0.246
REMARK UNBOUND:                -0.159
REMARK  5 active torsions:
REMARK  status: ('A' for Active; 'I' for Inactive)
REMARK    1  A    between atoms: C_3  and  N_4 
REMARK    2  A    between atoms: C_17  and  C_19 
REMARK    3  A    between atoms: C_19  and  O_20 
REMARK    4  A    between atoms: C_19  and  C_22 
REMARK    5  A    between atoms: C_22  and  O_24 
ROOT
HETATM    1  N   UNL     1      10.354  12.143  27.010  1.00  0.00    -0.175 N 
ATOM      2  HN  UNL     1       9.733  11.517  26.497  1.00  0.00     0.186 HD
HETATM    3  C   UNL     1      11.497  12.575  26.434  1.00  0.00     0.680 A 
HETATM    4  N   UNL     1      12.324  13.421  27.092  1.00  0.00    -0.154 N 
ATOM      5  HN  UNL     1      13.177  13.747  26.637  1.00  0.00     0.187 HD
HETATM    6  C   UNL     1      12.034  13.841  28.346  1.00  0.00     0.289 A 
HETATM    7  O   UNL     1      12.795  14.628  28.967  1.00  0.00    -0.265 OA
HETATM    8  C   UNL     1      10.873  13.388  28.946  1.00  0.00     0.142 A 
HETATM    9  C   UNL     1      10.031  12.534  28.253  1.00  0.00     0.149 A 
HETATM   10  N   UNL     1      10.539  13.777  30.195  1.00  0.00    -0.374 N 
ATOM     11  HN  UNL     1      10.899  14.639  30.604  1.00  0.00     0.160 HD
HETATM   12  N   UNL     1       8.875  12.076  28.809  1.00  0.00    -0.372 N 
ATOM     13  HN  UNL     1       8.320  11.390  28.298  1.00  0.00     0.161 HD
HETATM   14  C   UNL     1       9.634  12.896  30.928  1.00  0.00     0.131 C 
HETATM   15  C   UNL     1       8.407  12.531  30.107  1.00  0.00     0.149 C 
ENDROOT
BRANCH  14  16
HETATM   16  C   UNL     1       9.200  13.514  32.247  1.00  0.00     0.170 C 
BRANCH  16  17
HETATM   17  O   UNL     1       9.857  14.771  32.423  1.00  0.00    -0.391 OA
ATOM     18  HO  UNL     1      10.742  14.715  32.082  1.00  0.00     0.210 HD
ENDBRANCH  16  17
BRANCH  16  19
HETATM   19  C   UNL     1       7.687  13.696  32.298  1.00  0.00     0.145 C 
HETATM   20  C   UNL     1       7.395  15.168  32.536  1.00  0.00     0.042 C 
BRANCH  19  21
HETATM   21  O   UNL     1       7.140  12.903  33.371  1.00  0.00    -0.393 OA
ATOM     22  HO  UNL     1       7.701  12.154  33.531  1.00  0.00     0.210 HD
ENDBRANCH  19  21
ENDBRANCH  16  19
ENDBRANCH  14  16
BRANCH   3  23
HETATM   23  N   UNL     1      11.787  12.162  25.178  1.00  0.00    -0.234 N 
ATOM     24  HN2 UNL     1      11.444  12.678  24.367  1.00  0.00     0.174 HD
ATOM     25  HN1 UNL     1      12.341  11.314  25.057  1.00  0.00     0.174 HD
ENDBRANCH   3  23
TORSDOF 5
ENDMDL
MODEL 6
REMARK VINA RESULT:    -7.370     12.212     13.541
REMARK INTER + INTRA:          -9.037
REMARK INTER:                  -8.671
REMARK INTRA:                  -0.366
REMARK UNBOUND:                -0.159
REMARK  5 active torsions:
REMARK  status: ('A' for Active; 'I' for Inactive)
REMARK    1  A    between atoms: C_3  and  N_4 
REMARK    2  A    between atoms: C_17  and  C_19 
REMARK    3  A    between atoms: C_19  and  O_20 
REMARK    4  A    between atoms: C_19  and  C_22 
REMARK    5  A    between atoms: C_22  and  O_24 
ROOT
HETATM    1  N   UNL     1       8.027  12.812  31.204  1.00  0.00    -0.175 N 
ATOM      2  HN  UNL     1       7.187  12.238  31.131  1.00  0.00     0.186 HD
HETATM    3  C   UNL     1       8.204  13.610  32.279  1.00  0.00     0.680 A 
HETATM    4  N   UNL     1       9.322  14.364  32.403  1.00  0.00    -0.154 N 
ATOM      5  HN  UNL     1       9.445  14.951  33.228  1.00  0.00     0.187 HD
HETATM    6  C   UNL     1      10.280  14.349  31.445  1.00  0.00     0.289 A 
HETATM    7  O   UNL     1      11.322  15.046  31.550  1.00  0.00    -0.265 OA
HETATM    8  C   UNL     1      10.095  13.547  30.334  1.00  0.00     0.142 A 
HETATM    9  C   UNL     1       8.951  12.771  30.231  1.00  0.00     0.149 A 
HETATM   10  N   UNL     1      11.019  13.498  29.351  1.00  0.00    -0.374 N 
ATOM     11  HN  UNL     1      11.994  13.744  29.518  1.00  0.00     0.160 HD
HETATM   12  N   UNL     1       8.741  11.963  29.155  1.00  0.00    -0.372 N 
ATOM     13  HN  UNL     1       7.855  11.465  29.078  1.00  0.00     0.161 HD
HETATM   14  C   UNL     1      10.546  13.072  28.037  1.00  0.00     0.131 C 
HETATM   15  C   UNL     1       9.738  11.786  28.112  1.00  0.00     0.149 C 
ENDROOT
BRANCH  14  16
HETATM   16  C   UNL     1      11.696  12.895  27.060  1.00  0.00     0.170 C 
BRANCH  16  17
HETATM   17  O   UNL     1      11.307  11.988  26.026  1.00  0.00    -0.391 OA
ATOM     18  HO  UNL     1      10.379  11.801  26.102  1.00  0.00     0.210 HD
ENDBRANCH  16  17
BRANCH  16  19
HETATM   19  C   UNL     1      12.121  14.231  26.460  1.00  0.00     0.145 C 
HETATM   20  C   UNL     1      12.891  13.952  25.181  1.00  0.00     0.042 C 
BRANCH  19  21
HETATM   21  O   UNL     1      12.957  14.938  27.398  1.00  0.00    -0.393 OA
ATOM     22  HO  UNL     1      12.442  15.196  28.153  1.00  0.00     0.210 HD
ENDBRANCH  19  21
ENDBRANCH  16  19
ENDBRANCH  14  16
BRANCH   3  23
HETATM   23  N   UNL     1       7.252  13.622  33.242  1.00  0.00    -0.234 N 
ATOM     24  HN2 UNL     1       7.152  12.837  33.886  1.00  0.00     0.174 HD
ATOM     25  HN1 UNL     1       6.625  14.425  33.299  1.00  0.00     0.174 HD
ENDBRANCH   3  23
TORSDOF 5
ENDMDL
MODEL 7
REMARK VINA RESULT:    -7.253     11.522     12.839
REMARK INTER + INTRA:          -8.896
REMARK INTER:                  -8.518
REMARK INTRA:                  -0.378
REMARK UNBOUND:                -0.159
REMARK  5 active torsions:
REMARK  status: ('A' for Active; 'I' for Inactive)
REMARK    1  A    between atoms: C_3  and  N_4 
REMARK    2  A    between atoms: C_17  and  C_19 
REMARK    3  A    between atoms: C_19  and  O_20 
REMARK    4  A    between atoms: C_19  and  C_22 
REMARK    5  A    between atoms: C_22  and  O_24 
ROOT
HETATM    1  N   UNL     1       7.494  14.708  31.240  1.00  0.00    -0.175 N 
ATOM      2  HN  UNL     1       6.745  15.358  31.000  1.00  0.00     0.186 HD
HETATM    3  C   UNL     1       7.809  14.495  32.536  1.00  0.00     0.680 A 
HETATM    4  N   UNL     1       8.787  13.622  32.873  1.00  0.00    -0.154 N 
ATOM      5  HN  UNL     1       9.003  13.464  33.858  1.00  0.00     0.187 HD
HETATM    6  C   UNL     1       9.483  12.956  31.922  1.00  0.00     0.289 A 
HETATM    7  O   UNL     1      10.394  12.142  32.224  1.00  0.00    -0.265 OA
HETATM    8  C   UNL     1       9.176  13.184  30.592  1.00  0.00     0.142 A 
HETATM    9  C   UNL     1       8.161  14.070  30.266  1.00  0.00     0.149 A 
HETATM   10  N   UNL     1       9.840  12.545  29.606  1.00  0.00    -0.374 N 
ATOM     11  HN  UNL     1      10.319  11.660  29.767  1.00  0.00     0.160 HD
HETATM   12  N   UNL     1       7.826  14.311  28.968  1.00  0.00    -0.372 N 
ATOM     13  HN  UNL     1       7.127  15.025  28.764  1.00  0.00     0.161 HD
HETATM   14  C   UNL     1       9.834  13.191  28.297  1.00  0.00     0.131 C 
HETATM   15  C   UNL     1       8.431  13.585  27.863  1.00  0.00     0.149 C 
ENDROOT
BRANCH  14  16
HETATM   16  C   UNL     1      10.465  12.306  27.235  1.00  0.00     0.170 C 
BRANCH  16  17
HETATM   17  O   UNL     1      11.728  12.853  26.849  1.00  0.00    -0.391 OA
ATOM     18  HO  UNL     1      11.667  13.200  25.967  1.00  0.00     0.210 HD
ENDBRANCH  16  17
BRANCH  16  19
HETATM   19  C   UNL     1      10.638  10.878  27.739  1.00  0.00     0.145 C 
HETATM   20  C   UNL     1      11.880  10.293  27.087  1.00  0.00     0.042 C 
BRANCH  19  21
HETATM   21  O   UNL     1       9.479  10.096  27.386  1.00  0.00    -0.393 OA
ATOM     22  HO  UNL     1       9.367   9.392  28.012  1.00  0.00     0.210 HD
ENDBRANCH  19  21
ENDBRANCH  16  19
ENDBRANCH  14  16
BRANCH   3  23
HETATM   23  N   UNL     1       7.111  15.155  33.490  1.00  0.00    -0.234 N 
ATOM     24  HN2 UNL     1       6.919  14.717  34.391  1.00  0.00     0.174 HD
ATOM     25  HN1 UNL     1       6.766  16.092  33.283  1.00  0.00     0.174 HD
ENDBRANCH   3  23
TORSDOF 5
ENDMDL
MODEL 8
REMARK VINA RESULT:    -7.156     11.506     12.796
REMARK INTER + INTRA:          -8.779
REMARK INTER:                  -8.598
REMARK INTRA:                  -0.181
REMARK UNBOUND:                -0.159
REMARK  5 active torsions:
REMARK  status: ('A' for Active; 'I' for Inactive)
REMARK    1  A    between atoms: C_3  and  N_4 
REMARK    2  A    between atoms: C_17  and  C_19 
REMARK    3  A    between atoms: C_19  and  O_20 
REMARK    4  A    between atoms: C_19  and  C_22 
REMARK    5  A    between atoms: C_22  and  O_24 
ROOT
HETATM    1  N   UNL     1       9.417  14.769  32.666  1.00  0.00    -0.175 N 
ATOM      2  HN  UNL     1      10.160  15.373  33.016  1.00  0.00     0.186 HD
HETATM    3  C   UNL     1       8.315  14.554  33.418  1.00  0.00     0.680 A 
HETATM    4  N   UNL     1       7.310  13.771  32.961  1.00  0.00    -0.154 N 
ATOM      5  HN  UNL     1       6.480  13.630  33.537  1.00  0.00     0.187 HD
HETATM    6  C   UNL     1       7.391  13.171  31.749  1.00  0.00     0.289 A 
HETATM    7  O   UNL     1       6.463  12.441  31.315  1.00  0.00    -0.265 OA
HETATM    8  C   UNL     1       8.525  13.374  30.983  1.00  0.00     0.142 A 
HETATM    9  C   UNL     1       9.538  14.191  31.460  1.00  0.00     0.149 A 
HETATM   10  N   UNL     1       8.655  12.800  29.769  1.00  0.00    -0.374 N 
ATOM     11  HN  UNL     1       7.845  12.500  29.227  1.00  0.00     0.160 HD
HETATM   12  N   UNL     1      10.663  14.420  30.728  1.00  0.00    -0.372 N 
ATOM     13  HN  UNL     1      11.418  14.965  31.143  1.00  0.00     0.161 HD
HETATM   14  C   UNL     1      10.018  12.629  29.275  1.00  0.00     0.131 C 
HETATM   15  C   UNL     1      10.824  13.915  29.375  1.00  0.00     0.149 C 
ENDROOT
BRANCH  14  16
HETATM   16  C   UNL     1      10.033  12.129  27.839  1.00  0.00     0.170 C 
BRANCH  16  17
HETATM   17  O   UNL     1       9.323  13.049  27.007  1.00  0.00    -0.391 OA
ATOM     18  HO  UNL     1       9.857  13.272  26.254  1.00  0.00     0.210 HD
ENDBRANCH  16  17
BRANCH  16  19
HETATM   19  C   UNL     1      11.460  11.951  27.333  1.00  0.00     0.145 C 
HETATM   20  C   UNL     1      11.395  11.454  25.899  1.00  0.00     0.042 C 
BRANCH  19  21
HETATM   21  O   UNL     1      12.150  10.992  28.159  1.00  0.00    -0.393 OA
ATOM     22  HO  UNL     1      12.264  10.181  27.678  1.00  0.00     0.210 HD
ENDBRANCH  19  21
ENDBRANCH  16  19
ENDBRANCH  14  16
BRANCH   3  23
HETATM   23  N   UNL     1       8.228  15.157  34.627  1.00  0.00    -0.234 N 
ATOM     24  HN2 UNL     1       7.583  15.933  34.777  1.00  0.00     0.174 HD
ATOM     25  HN1 UNL     1       8.833  14.831  35.380  1.00  0.00     0.174 HD
ENDBRANCH   3  23
TORSDOF 5
ENDMDL
MODEL 9
REMARK VINA RESULT:    -7.128     11.852     12.260
REMARK INTER + INTRA:          -8.745
REMARK INTER:                  -8.370
REMARK INTRA:                  -0.374
REMARK UNBOUND:                -0.159
REMARK  5 active torsions:
REMARK  status: ('A' for Active; 'I' for Inactive)
REMARK    1  A    between atoms: C_3  and  N_4 
REMARK    2  A    between atoms: C_17  and  C_19 
REMARK    3  A    between atoms: C_19  and  O_20 
REMARK    4  A    between atoms: C_19  and  C_22 
REMARK    5  A    between atoms: C_22  and  O_24 
ROOT
HETATM    1  N   UNL     1      10.312  14.190  26.671  1.00  0.00    -0.175 N 
ATOM      2  HN  UNL     1      10.003  14.819  25.930  1.00  0.00     0.186 HD
HETATM    3  C   UNL     1      11.482  13.526  26.544  1.00  0.00     0.680 A 
HETATM    4  N   UNL     1      11.918  12.702  27.527  1.00  0.00    -0.154 N 
ATOM      5  HN  UNL     1      12.810  12.219  27.420  1.00  0.00     0.187 HD
HETATM    6  C   UNL     1      11.185  12.511  28.649  1.00  0.00     0.289 A 
HETATM    7  O   UNL     1      11.580  11.748  29.568  1.00  0.00    -0.265 OA
HETATM    8  C   UNL     1       9.978  13.175  28.776  1.00  0.00     0.142 A 
HETATM    9  C   UNL     1       9.555  14.025  27.767  1.00  0.00     0.149 A 
HETATM   10  N   UNL     1       9.210  13.018  29.875  1.00  0.00    -0.374 N 
ATOM     11  HN  UNL     1       9.603  12.713  30.765  1.00  0.00     0.160 HD
HETATM   12  N   UNL     1       8.376  14.702  27.863  1.00  0.00    -0.372 N 
ATOM     13  HN  UNL     1       8.063  15.260  27.069  1.00  0.00     0.161 HD
HETATM   14  C   UNL     1       7.788  13.308  29.719  1.00  0.00     0.131 C 
HETATM   15  C   UNL     1       7.552  14.657  29.059  1.00  0.00     0.149 C 
ENDROOT
BRANCH  14  16
HETATM   16  C   UNL     1       7.059  13.258  31.052  1.00  0.00     0.170 C 
BRANCH  16  17
HETATM   17  O   UNL     1       6.246  12.084  31.106  1.00  0.00    -0.391 OA
ATOM     18  HO  UNL     1       6.131  11.820  32.011  1.00  0.00     0.210 HD
ENDBRANCH  16  17
BRANCH  16  19
HETATM   19  C   UNL     1       8.040  13.277  32.218  1.00  0.00     0.145 C 
HETATM   20  C   UNL     1       7.245  13.159  33.508  1.00  0.00     0.042 C 
BRANCH  19  21
HETATM   21  O   UNL     1       8.784  14.512  32.205  1.00  0.00    -0.393 OA
ATOM     22  HO  UNL     1       9.562  14.410  31.671  1.00  0.00     0.210 HD
ENDBRANCH  19  21
ENDBRANCH  16  19
ENDBRANCH  14  16
BRANCH   3  23
HETATM   23  N   UNL     1      12.220  13.720  25.426  1.00  0.00    -0.234 N 
ATOM     24  HN2 UNL     1      12.936  13.047  25.151  1.00  0.00     0.174 HD
ATOM     25  HN1 UNL     1      12.058  14.562  24.874  1.00  0.00     0.174 HD
ENDBRANCH   3  23
TORSDOF 5
ENDMDL
MODEL 10
REMARK VINA RESULT:    -6.950      6.762      8.850
REMARK INTER + INTRA:          -8.531
REMARK INTER:                  -8.354
REMARK INTRA:                  -0.177
REMARK UNBOUND:                -0.159
REMARK  5 active torsions:
REMARK  status: ('A' for Active; 'I' for Inactive)
REMARK    1  A    between atoms: C_3  and  N_4 
REMARK    2  A    between atoms: C_17  and  C_19 
REMARK    3  A    between atoms: C_19  and  O_20 
REMARK    4  A    between atoms: C_19  and  C_22 
REMARK    5  A    between atoms: C_22  and  O_24 
ROOT
HETATM    1  N   UNL     1       6.657  -2.900  25.148  1.00  0.00    -0.175 N 
ATOM      2  HN  UNL     1       5.891  -3.120  24.512  1.00  0.00     0.186 HD
HETATM    3  C   UNL     1       7.905  -3.337  24.872  1.00  0.00     0.680 A 
HETATM    4  N   UNL     1       8.938  -3.038  25.695  1.00  0.00    -0.154 N 
ATOM      5  HN  UNL     1       9.877  -3.366  25.465  1.00  0.00     0.187 HD
HETATM    6  C   UNL     1       8.743  -2.309  26.819  1.00  0.00     0.289 A 
HETATM    7  O   UNL     1       9.696  -2.025  27.591  1.00  0.00    -0.265 OA
HETATM    8  C   UNL     1       7.464  -1.874  27.114  1.00  0.00     0.142 A 
HETATM    9  C   UNL     1       6.421  -2.177  26.254  1.00  0.00     0.149 A 
HETATM   10  N   UNL     1       7.216  -1.145  28.223  1.00  0.00    -0.374 N 
ATOM     11  HN  UNL     1       7.947  -0.604  28.684  1.00  0.00     0.160 HD
HETATM   12  N   UNL     1       5.151  -1.756  26.509  1.00  0.00    -0.372 N 
ATOM     13  HN  UNL     1       4.397  -2.062  25.893  1.00  0.00     0.161 HD
HETATM   14  C   UNL     1       5.846  -1.173  28.725  1.00  0.00     0.131 C 
HETATM   15  C   UNL     1       4.832  -0.886  27.628  1.00  0.00     0.149 C 
ENDROOT
BRANCH  14  16
HETATM   16  C   UNL     1       5.650  -0.191  29.869  1.00  0.00     0.170 C 
BRANCH  16  17
HETATM   17  O   UNL     1       6.884   0.475  30.142  1.00  0.00    -0.391 OA
ATOM     18  HO  UNL     1       6.827   0.915  30.981  1.00  0.00     0.210 HD
ENDBRANCH  16  17
BRANCH  16  19
HETATM   19  C   UNL     1       4.560   0.825  29.543  1.00  0.00     0.145 C 
HETATM   20  C   UNL     1       5.226   2.167  29.293  1.00  0.00     0.042 C 
BRANCH  19  21
HETATM   21  O   UNL     1       3.644   0.924  30.652  1.00  0.00    -0.393 OA
ATOM     22  HO  UNL     1       3.506   1.838  30.869  1.00  0.00     0.210 HD
ENDBRANCH  19  21
ENDBRANCH  16  19
ENDBRANCH  14  16
BRANCH   3  23
HETATM   23  N   UNL     1       8.105  -4.060  23.746  1.00  0.00    -0.234 N 
ATOM     24  HN2 UNL     1       8.313  -5.058  23.797  1.00  0.00     0.174 HD
ATOM     25  HN1 UNL     1       8.062  -3.584  22.845  1.00  0.00     0.174 HD
ENDBRANCH   3  23
TORSDOF 5
ENDMDL
MODEL 11
REMARK VINA RESULT:    -6.901     11.053     11.374
REMARK INTER + INTRA:          -8.472
REMARK INTER:                  -8.245
REMARK INTRA:                  -0.227
REMARK UNBOUND:                -0.159
REMARK  5 active torsions:
REMARK  status: ('A' for Active; 'I' for Inactive)
REMARK    1  A    between atoms: C_3  and  N_4 
REMARK    2  A    between atoms: C_17  and  C_19 
REMARK    3  A    between atoms: C_19  and  O_20 
REMARK    4  A    between atoms: C_19  and  C_22 
REMARK    5  A    between atoms: C_22  and  O_24 
ROOT
HETATM    1  N   UNL     1      10.962  12.167  28.357  1.00  0.00    -0.175 N 
ATOM      2  HN  UNL     1      11.920  11.908  28.593  1.00  0.00     0.186 HD
HETATM    3  C   UNL     1      10.570  12.185  27.065  1.00  0.00     0.680 A 
HETATM    4  N   UNL     1       9.297  12.508  26.735  1.00  0.00    -0.154 N 
ATOM      5  HN  UNL     1       9.015  12.505  25.754  1.00  0.00     0.187 HD
HETATM    6  C   UNL     1       8.393  12.835  27.689  1.00  0.00     0.289 A 
HETATM    7  O   UNL     1       7.207  13.136  27.393  1.00  0.00    -0.265 OA
HETATM    8  C   UNL     1       8.795  12.834  29.012  1.00  0.00     0.142 A 
HETATM    9  C   UNL     1      10.098  12.487  29.333  1.00  0.00     0.149 A 
HETATM   10  N   UNL     1       7.933  13.153  30.001  1.00  0.00    -0.374 N 
ATOM     11  HN  UNL     1       6.924  13.068  29.881  1.00  0.00     0.160 HD
HETATM   12  N   UNL     1      10.524  12.467  30.626  1.00  0.00    -0.372 N 
ATOM     13  HN  UNL     1      11.509  12.280  30.817  1.00  0.00     0.161 HD
HETATM   14  C   UNL     1       8.523  13.626  31.249  1.00  0.00     0.131 C 
HETATM   15  C   UNL     1       9.625  12.702  31.743  1.00  0.00     0.149 C 
ENDROOT
BRANCH  14  16
HETATM   16  C   UNL     1       7.474  13.794  32.335  1.00  0.00     0.170 C 
BRANCH  16  17
HETATM   17  O   UNL     1       6.605  12.659  32.338  1.00  0.00    -0.391 OA
ATOM     18  HO  UNL     1       6.673  12.207  31.505  1.00  0.00     0.210 HD
ENDBRANCH  16  17
BRANCH  16  19
HETATM   19  C   UNL     1       8.121  13.970  33.705  1.00  0.00     0.145 C 
HETATM   20  C   UNL     1       7.243  13.279  34.734  1.00  0.00     0.042 C 
BRANCH  19  21
HETATM   21  O   UNL     1       8.232  15.374  34.011  1.00  0.00    -0.393 OA
ATOM     22  HO  UNL     1       8.708  15.815  33.316  1.00  0.00     0.210 HD
ENDBRANCH  19  21
ENDBRANCH  16  19
ENDBRANCH  14  16
BRANCH   3  23
HETATM   23  N   UNL     1      11.469  11.853  26.109  1.00  0.00    -0.234 N 
ATOM     24  HN2 UNL     1      12.032  11.006  26.195  1.00  0.00     0.174 HD
ATOM     25  HN1 UNL     1      11.585  12.475  25.310  1.00  0.00     0.174 HD
ENDBRANCH   3  23
TORSDOF 5
ENDMDL
MODEL 12
REMARK VINA RESULT:    -6.773     11.996     13.096
REMARK INTER + INTRA:          -8.317
REMARK INTER:                  -7.890
REMARK INTRA:                  -0.428
REMARK UNBOUND:                -0.159
REMARK  5 active torsions:
REMARK  status: ('A' for Active; 'I' for Inactive)
REMARK    1  A    between atoms: C_3  and  N_4 
REMARK    2  A    between atoms: C_17  and  C_19 
REMARK    3  A    between atoms: C_19  and  O_20 
REMARK    4  A    between atoms: C_19  and  C_22 
REMARK    5  A    between atoms: C_22  and  O_24 
ROOT
HETATM    1  N   UNL     1       6.531  14.745  30.422  1.00  0.00    -0.175 N 
ATOM      2  HN  UNL     1       6.596  15.106  31.373  1.00  0.00     0.186 HD
HETATM    3  C   UNL     1       5.383  14.889  29.725  1.00  0.00     0.680 A 
HETATM    4  N   UNL     1       5.286  14.433  28.453  1.00  0.00    -0.154 N 
ATOM      5  HN  UNL     1       4.415  14.562  27.937  1.00  0.00     0.187 HD
HETATM    6  C   UNL     1       6.329  13.808  27.858  1.00  0.00     0.289 A 
HETATM    7  O   UNL     1       6.250  13.380  26.677  1.00  0.00    -0.265 OA
HETATM    8  C   UNL     1       7.501  13.642  28.574  1.00  0.00     0.142 A 
HETATM    9  C   UNL     1       7.588  14.128  29.869  1.00  0.00     0.149 A 
HETATM   10  N   UNL     1       8.569  13.025  28.026  1.00  0.00    -0.374 N 
ATOM     11  HN  UNL     1       8.697  12.970  27.016  1.00  0.00     0.160 HD
HETATM   12  N   UNL     1       8.729  13.991  30.599  1.00  0.00    -0.372 N 
ATOM     13  HN  UNL     1       8.730  14.294  31.573  1.00  0.00     0.161 HD
HETATM   14  C   UNL     1       9.529  12.442  28.957  1.00  0.00     0.131 C 
HETATM   15  C   UNL     1       9.945  13.428  30.038  1.00  0.00     0.149 C 
ENDROOT
BRANCH  14  16
HETATM   16  C   UNL     1      10.764  11.925  28.236  1.00  0.00     0.170 C 
BRANCH  16  17
HETATM   17  O   UNL     1      11.838  11.788  29.170  1.00  0.00    -0.391 OA
ATOM     18  HO  UNL     1      11.484  11.659  30.042  1.00  0.00     0.210 HD
ENDBRANCH  16  17
BRANCH  16  19
HETATM   19  C   UNL     1      10.485  10.592  27.551  1.00  0.00     0.145 C 
HETATM   20  C   UNL     1      10.708  10.771  26.059  1.00  0.00     0.042 C 
BRANCH  19  21
HETATM   21  O   UNL     1       9.122  10.194  27.804  1.00  0.00    -0.393 OA
ATOM     22  HO  UNL     1       9.047   9.861  28.690  1.00  0.00     0.210 HD
ENDBRANCH  19  21
ENDBRANCH  16  19
ENDBRANCH  14  16
BRANCH   3  23
HETATM   23  N   UNL     1       4.341  15.519  30.315  1.00  0.00    -0.234 N 
ATOM     24  HN2 UNL     1       4.442  16.469  30.675  1.00  0.00     0.174 HD
ATOM     25  HN1 UNL     1       3.457  15.019  30.408  1.00  0.00     0.174 HD
ENDBRANCH   3  23
TORSDOF 5
ENDMDL
MODEL 13
REMARK VINA RESULT:    -6.651      3.038      6.762
REMARK INTER + INTRA:          -8.170
REMARK INTER:                  -7.873
REMARK INTRA:                  -0.298
REMARK UNBOUND:                -0.159
REMARK  5 active torsions:
REMARK  status: ('A' for Active; 'I' for Inactive)
REMARK    1  A    between atoms: C_3  and  N_4 
REMARK    2  A    between atoms: C_17  and  C_19 
REMARK    3  A    between atoms: C_19  and  O_20 
REMARK    4  A    between atoms: C_19  and  C_22 
REMARK    5  A    between atoms: C_22  and  O_24 
ROOT
HETATM    1  N   UNL     1       8.970   2.814  35.443  1.00  0.00    -0.175 N 
ATOM      2  HN  UNL     1       9.322   3.092  36.359  1.00  0.00     0.186 HD
HETATM    3  C   UNL     1       7.709   3.136  35.082  1.00  0.00     0.680 A 
HETATM    4  N   UNL     1       7.231   2.791  33.863  1.00  0.00    -0.154 N 
ATOM      5  HN  UNL     1       6.280   3.053  33.602  1.00  0.00     0.187 HD
HETATM    6  C   UNL     1       7.999   2.103  32.985  1.00  0.00     0.289 A 
HETATM    7  O   UNL     1       7.566   1.778  31.849  1.00  0.00    -0.265 OA
HETATM    8  C   UNL     1       9.285   1.756  33.357  1.00  0.00     0.142 A 
HETATM    9  C   UNL     1       9.763   2.130  34.603  1.00  0.00     0.149 A 
HETATM   10  N   UNL     1      10.090   1.070  32.519  1.00  0.00    -0.374 N 
ATOM     11  HN  UNL     1       9.947   1.078  31.509  1.00  0.00     0.160 HD
HETATM   12  N   UNL     1      11.027   1.813  34.999  1.00  0.00    -0.372 N 
ATOM     13  HN  UNL     1      11.316   2.039  35.950  1.00  0.00     0.161 HD
HETATM   14  C   UNL     1      11.177   0.316  33.136  1.00  0.00     0.131 C 
HETATM   15  C   UNL     1      11.977   1.165  34.111  1.00  0.00     0.149 C 
ENDROOT
BRANCH  14  16
HETATM   16  C   UNL     1      12.110  -0.276  32.091  1.00  0.00     0.170 C 
BRANCH  16  17
HETATM   17  O   UNL     1      13.438  -0.332  32.616  1.00  0.00    -0.391 OA
ATOM     18  HO  UNL     1      13.909  -1.048  32.208  1.00  0.00     0.210 HD
ENDBRANCH  16  17
BRANCH  16  19
HETATM   19  C   UNL     1      11.649  -1.666  31.665  1.00  0.00     0.145 C 
HETATM   20  C   UNL     1      12.872  -2.456  31.230  1.00  0.00     0.042 C 
BRANCH  19  21
HETATM   21  O   UNL     1      10.717  -1.552  30.572  1.00  0.00    -0.393 OA
ATOM     22  HO  UNL     1      10.972  -2.143  29.873  1.00  0.00     0.210 HD
ENDBRANCH  19  21
ENDBRANCH  16  19
ENDBRANCH  14  16
BRANCH   3  23
HETATM   23  N   UNL     1       6.941   3.829  35.955  1.00  0.00    -0.234 N 
ATOM     24  HN2 UNL     1       7.041   3.691  36.961  1.00  0.00     0.174 HD
ATOM     25  HN1 UNL     1       6.247   4.479  35.586  1.00  0.00     0.174 HD
ENDBRANCH   3  23
TORSDOF 5
ENDMDL
MODEL 14
REMARK VINA RESULT:    -6.626      2.444      5.856
REMARK INTER + INTRA:          -8.140
REMARK INTER:                  -7.963
REMARK INTRA:                  -0.177
REMARK UNBOUND:                -0.159
REMARK  5 active torsions:
REMARK  status: ('A' for Active; 'I' for Inactive)
REMARK    1  A    between atoms: C_3  and  N_4 
REMARK    2  A    between atoms: C_17  and  C_19 
REMARK    3  A    between atoms: C_19  and  O_20 
REMARK    4  A    between atoms: C_19  and  C_22 
REMARK    5  A    between atoms: C_22  and  O_24 
ROOT
HETATM    1  N   UNL     1       5.700   3.509  36.356  1.00  0.00    -0.175 N 
ATOM      2  HN  UNL     1       5.921   4.177  37.094  1.00  0.00     0.186 HD
HETATM    3  C   UNL     1       4.432   3.068  36.206  1.00  0.00     0.680 A 
HETATM    4  N   UNL     1       4.117   2.196  35.219  1.00  0.00    -0.154 N 
ATOM      5  HN  UNL     1       3.152   1.883  35.113  1.00  0.00     0.187 HD
HETATM    6  C   UNL     1       5.066   1.733  34.372  1.00  0.00     0.289 A 
HETATM    7  O   UNL     1       4.784   0.922  33.451  1.00  0.00    -0.265 OA
HETATM    8  C   UNL     1       6.369   2.168  34.532  1.00  0.00     0.142 A 
HETATM    9  C   UNL     1       6.671   3.072  35.538  1.00  0.00     0.149 A 
HETATM   10  N   UNL     1       7.352   1.737  33.714  1.00  0.00    -0.374 N 
ATOM     11  HN  UNL     1       7.154   1.378  32.780  1.00  0.00     0.160 HD
HETATM   12  N   UNL     1       7.941   3.529  35.718  1.00  0.00    -0.372 N 
ATOM     13  HN  UNL     1       8.139   4.135  36.515  1.00  0.00     0.161 HD
HETATM   14  C   UNL     1       8.712   1.812  34.238  1.00  0.00     0.131 C 
HETATM   15  C   UNL     1       9.025   3.184  34.813  1.00  0.00     0.149 C 
ENDROOT
BRANCH  14  16
HETATM   16  C   UNL     1       9.740   1.458  33.176  1.00  0.00     0.170 C 
BRANCH  16  17
HETATM   17  O   UNL     1      10.781   2.437  33.177  1.00  0.00    -0.391 OA
ATOM     18  HO  UNL     1      11.540   2.093  32.722  1.00  0.00     0.210 HD
ENDBRANCH  16  17
BRANCH  16  19
HETATM   19  C   UNL     1      10.321   0.068  33.411  1.00  0.00     0.145 C 
HETATM   20  C   UNL     1      11.741   0.230  33.927  1.00  0.00     0.042 C 
BRANCH  19  21
HETATM   21  O   UNL     1      10.324  -0.671  32.173  1.00  0.00    -0.393 OA
ATOM     22  HO  UNL     1      10.513  -1.585  32.349  1.00  0.00     0.210 HD
ENDBRANCH  19  21
ENDBRANCH  16  19
ENDBRANCH  14  16
BRANCH   3  23
HETATM   23  N   UNL     1       3.480   3.534  37.048  1.00  0.00    -0.234 N 
ATOM     24  HN2 UNL     1       3.542   3.361  38.051  1.00  0.00     0.174 HD
ATOM     25  HN1 UNL     1       2.689   4.045  36.656  1.00  0.00     0.174 HD
ENDBRANCH   3  23
TORSDOF 5
ENDMDL
MODEL 15
REMARK VINA RESULT:    -6.624     12.384     13.578
REMARK INTER + INTRA:          -8.138
REMARK INTER:                  -7.762
REMARK INTRA:                  -0.376
REMARK UNBOUND:                -0.159
REMARK  5 active torsions:
REMARK  status: ('A' for Active; 'I' for Inactive)
REMARK    1  A    between atoms: C_3  and  N_4 
REMARK    2  A    between atoms: C_17  and  C_19 
REMARK    3  A    between atoms: C_19  and  O_20 
REMARK    4  A    between atoms: C_19  and  C_22 
REMARK    5  A    between atoms: C_22  and  O_24 
ROOT
HETATM    1  N   UNL     1       9.189  13.929  32.451  1.00  0.00    -0.175 N 
ATOM      2  HN  UNL     1       9.665  14.176  33.319  1.00  0.00     0.186 HD
HETATM    3  C   UNL     1       7.945  13.403  32.495  1.00  0.00     0.680 A 
HETATM    4  N   UNL     1       7.290  13.087  31.353  1.00  0.00    -0.154 N 
ATOM      5  HN  UNL     1       6.346  12.703  31.403  1.00  0.00     0.187 HD
HETATM    6  C   UNL     1       7.870  13.275  30.143  1.00  0.00     0.289 A 
HETATM    7  O   UNL     1       7.270  12.985  29.076  1.00  0.00    -0.265 OA
HETATM    8  C   UNL     1       9.150  13.796  30.095  1.00  0.00     0.142 A 
HETATM    9  C   UNL     1       9.801  14.127  31.273  1.00  0.00     0.149 A 
HETATM   10  N   UNL     1       9.773  14.002  28.916  1.00  0.00    -0.374 N 
ATOM     11  HN  UNL     1       9.252  14.119  28.047  1.00  0.00     0.160 HD
HETATM   12  N   UNL     1      11.058  14.652  31.262  1.00  0.00    -0.372 N 
ATOM     13  HN  UNL     1      11.532  14.812  32.150  1.00  0.00     0.161 HD
HETATM   14  C   UNL     1      11.231  14.047  28.951  1.00  0.00     0.131 C 
HETATM   15  C   UNL     1      11.745  14.991  30.027  1.00  0.00     0.149 C 
ENDROOT
BRANCH  14  16
HETATM   16  C   UNL     1      11.811  14.447  27.604  1.00  0.00     0.170 C 
BRANCH  16  17
HETATM   17  O   UNL     1      13.023  15.177  27.806  1.00  0.00    -0.391 OA
ATOM     18  HO  UNL     1      12.920  16.060  27.470  1.00  0.00     0.210 HD
ENDBRANCH  16  17
BRANCH  16  19
HETATM   19  C   UNL     1      12.068  13.224  26.730  1.00  0.00     0.145 C 
HETATM   20  C   UNL     1      12.658  13.700  25.413  1.00  0.00     0.042 C 
BRANCH  19  21
HETATM   21  O   UNL     1      10.828  12.529  26.495  1.00  0.00    -0.393 OA
ATOM     22  HO  UNL     1      10.238  13.087  26.002  1.00  0.00     0.210 HD
ENDBRANCH  19  21
ENDBRANCH  16  19
ENDBRANCH  14  16
BRANCH   3  23
HETATM   23  N   UNL     1       7.360  13.220  33.701  1.00  0.00    -0.234 N 
ATOM     24  HN2 UNL     1       6.357  13.367  33.821  1.00  0.00     0.174 HD
ATOM     25  HN1 UNL     1       7.944  12.950  34.492  1.00  0.00     0.174 HD
ENDBRANCH   3  23
TORSDOF 5
ENDMDL
MODEL 16
REMARK VINA RESULT:    -6.546      2.447      6.182
REMARK INTER + INTRA:          -8.044
REMARK INTER:                  -7.915
REMARK INTRA:                  -0.129
REMARK UNBOUND:                -0.159
REMARK  5 active torsions:
REMARK  status: ('A' for Active; 'I' for Inactive)
REMARK    1  A    between atoms: C_3  and  N_4 
REMARK    2  A    between atoms: C_17  and  C_19 
REMARK    3  A    between atoms: C_19  and  O_20 
REMARK    4  A    between atoms: C_19  and  C_22 
REMARK    5  A    between atoms: C_22  and  O_24 
ROOT
HETATM    1  N   UNL     1       3.541   3.123  36.215  1.00  0.00    -0.175 N 
ATOM      2  HN  UNL     1       2.809   2.488  35.897  1.00  0.00     0.186 HD
HETATM    3  C   UNL     1       3.247   4.093  37.109  1.00  0.00     0.680 A 
HETATM    4  N   UNL     1       4.209   4.933  37.557  1.00  0.00    -0.154 N 
ATOM      5  HN  UNL     1       3.972   5.651  38.241  1.00  0.00     0.187 HD
HETATM    6  C   UNL     1       5.483   4.832  37.110  1.00  0.00     0.289 A 
HETATM    7  O   UNL     1       6.386   5.607  37.520  1.00  0.00    -0.265 OA
HETATM    8  C   UNL     1       5.786   3.851  36.182  1.00  0.00     0.142 A 
HETATM    9  C   UNL     1       4.791   2.991  35.745  1.00  0.00     0.149 A 
HETATM   10  N   UNL     1       7.040   3.710  35.705  1.00  0.00    -0.374 N 
ATOM     11  HN  UNL     1       7.852   4.047  36.220  1.00  0.00     0.160 HD
HETATM   12  N   UNL     1       5.056   2.009  34.839  1.00  0.00    -0.372 N 
ATOM     13  HN  UNL     1       4.284   1.444  34.485  1.00  0.00     0.161 HD
HETATM   14  C   UNL     1       7.170   3.048  34.410  1.00  0.00     0.131 C 
HETATM   15  C   UNL     1       6.401   1.737  34.361  1.00  0.00     0.149 C 
ENDROOT
BRANCH  14  16
HETATM   16  C   UNL     1       8.627   2.797  34.055  1.00  0.00     0.170 C 
BRANCH  16  17
HETATM   17  O   UNL     1       9.408   2.757  35.250  1.00  0.00    -0.391 OA
ATOM     18  HO  UNL     1       8.987   3.281  35.921  1.00  0.00     0.210 HD
ENDBRANCH  16  17
BRANCH  16  19
HETATM   19  C   UNL     1       8.787   1.498  33.273  1.00  0.00     0.145 C 
HETATM   20  C   UNL     1      10.215   1.010  33.455  1.00  0.00     0.042 C 
BRANCH  19  21
HETATM   21  O   UNL     1       8.520   1.737  31.877  1.00  0.00    -0.393 OA
ATOM     22  HO  UNL     1       7.664   1.391  31.652  1.00  0.00     0.210 HD
ENDBRANCH  19  21
ENDBRANCH  16  19
ENDBRANCH  14  16
BRANCH   3  23
HETATM   23  N   UNL     1       1.976   4.192  37.563  1.00  0.00    -0.234 N 
ATOM     24  HN2 UNL     1       1.542   5.106  37.703  1.00  0.00     0.174 HD
ATOM     25  HN1 UNL     1       1.465   3.336  37.779  1.00  0.00     0.174 HD
ENDBRANCH   3  23
TORSDOF 5
ENDMDL
MODEL 17
REMARK VINA RESULT:    -6.532     11.219     11.826
REMARK INTER + INTRA:          -8.028
REMARK INTER:                  -7.671
REMARK INTRA:                  -0.357
REMARK UNBOUND:                -0.159
REMARK  5 active torsions:
REMARK  status: ('A' for Active; 'I' for Inactive)
REMARK    1  A    between atoms: C_3  and  N_4 
REMARK    2  A    between atoms: C_17  and  C_19 
REMARK    3  A    between atoms: C_19  and  O_20 
REMARK    4  A    between atoms: C_19  and  C_22 
REMARK    5  A    between atoms: C_22  and  O_24 
ROOT
HETATM    1  N   UNL     1       8.530  12.940  28.722  1.00  0.00    -0.175 N 
ATOM      2  HN  UNL     1       9.264  12.354  28.326  1.00  0.00     0.186 HD
HETATM    3  C   UNL     1       7.609  13.504  27.910  1.00  0.00     0.680 A 
HETATM    4  N   UNL     1       6.616  14.270  28.420  1.00  0.00    -0.154 N 
ATOM      5  HN  UNL     1       5.922  14.678  27.793  1.00  0.00     0.187 HD
HETATM    6  C   UNL     1       6.531  14.503  29.752  1.00  0.00     0.289 A 
HETATM    7  O   UNL     1       5.612  15.213  30.236  1.00  0.00    -0.265 OA
HETATM    8  C   UNL     1       7.482  13.941  30.585  1.00  0.00     0.142 A 
HETATM    9  C   UNL     1       8.483  13.148  30.047  1.00  0.00     0.149 A 
HETATM   10  N   UNL     1       7.442  14.143  31.919  1.00  0.00    -0.374 N 
ATOM     11  HN  UNL     1       6.578  14.396  32.398  1.00  0.00     0.160 HD
HETATM   12  N   UNL     1       9.429  12.572  30.840  1.00  0.00    -0.372 N 
ATOM     13  HN  UNL     1      10.192  12.058  30.401  1.00  0.00     0.161 HD
HETATM   14  C   UNL     1       8.701  13.977  32.638  1.00  0.00     0.131 C 
HETATM   15  C   UNL     1       9.387  12.665  32.290  1.00  0.00     0.149 C 
ENDROOT
BRANCH  14  16
HETATM   16  C   UNL     1       8.502  14.064  34.142  1.00  0.00     0.170 C 
BRANCH  16  17
HETATM   17  O   UNL     1       8.870  15.368  34.597  1.00  0.00    -0.391 OA
ATOM     18  HO  UNL     1       8.603  16.014  33.954  1.00  0.00     0.210 HD
ENDBRANCH  16  17
BRANCH  16  19
HETATM   19  C   UNL     1       7.059  13.757  34.525  1.00  0.00     0.145 C 
HETATM   20  C   UNL     1       6.890  14.050  36.007  1.00  0.00     0.042 C 
BRANCH  19  21
HETATM   21  O   UNL     1       6.772  12.370  34.259  1.00  0.00    -0.393 OA
ATOM     22  HO  UNL     1       7.534  11.956  33.871  1.00  0.00     0.210 HD
ENDBRANCH  19  21
ENDBRANCH  16  19
ENDBRANCH  14  16
BRANCH   3  23
HETATM   23  N   UNL     1       7.687  13.269  26.579  1.00  0.00    -0.234 N 
ATOM     24  HN2 UNL     1       8.485  12.771  26.184  1.00  0.00     0.174 HD
ATOM     25  HN1 UNL     1       6.940  13.616  25.977  1.00  0.00     0.174 HD
ENDBRANCH   3  23
TORSDOF 5
ENDMDL
MODEL 18
REMARK VINA RESULT:    -6.477      6.861      9.494
REMARK INTER + INTRA:          -7.961
REMARK INTER:                  -7.610
REMARK INTRA:                  -0.351
REMARK UNBOUND:                -0.159
REMARK  5 active torsions:
REMARK  status: ('A' for Active; 'I' for Inactive)
REMARK    1  A    between atoms: C_3  and  N_4 
REMARK    2  A    between atoms: C_17  and  C_19 
REMARK    3  A    between atoms: C_19  and  O_20 
REMARK    4  A    between atoms: C_19  and  C_22 
REMARK    5  A    between atoms: C_22  and  O_24 
ROOT
HETATM    1  N   UNL     1       1.841  -0.127  30.234  1.00  0.00    -0.175 N 
ATOM      2  HN  UNL     1       1.643   0.471  31.036  1.00  0.00     0.186 HD
HETATM    3  C   UNL     1       0.823  -0.705  29.560  1.00  0.00     0.680 A 
HETATM    4  N   UNL     1       1.065  -1.486  28.480  1.00  0.00    -0.154 N 
ATOM      5  HN  UNL     1       0.284  -1.905  27.976  1.00  0.00     0.187 HD
HETATM    6  C   UNL     1       2.332  -1.718  28.061  1.00  0.00     0.289 A 
HETATM    7  O   UNL     1       2.569  -2.441  27.059  1.00  0.00    -0.265 OA
HETATM    8  C   UNL     1       3.378  -1.141  28.758  1.00  0.00     0.142 A 
HETATM    9  C   UNL     1       3.111  -0.334  29.852  1.00  0.00     0.149 A 
HETATM   10  N   UNL     1       4.659  -1.342  28.381  1.00  0.00    -0.374 N 
ATOM     11  HN  UNL     1       4.903  -1.608  27.428  1.00  0.00     0.160 HD
HETATM   12  N   UNL     1       4.116   0.257  30.556  1.00  0.00    -0.372 N 
ATOM     13  HN  UNL     1       3.885   0.783  31.399  1.00  0.00     0.161 HD
HETATM   14  C   UNL     1       5.675  -1.157  29.413  1.00  0.00     0.131 C 
HETATM   15  C   UNL     1       5.508   0.165  30.146  1.00  0.00     0.149 C 
ENDROOT
BRANCH  14  16
HETATM   16  C   UNL     1       7.079  -1.245  28.836  1.00  0.00     0.170 C 
BRANCH  16  17
HETATM   17  O   UNL     1       8.033  -0.961  29.862  1.00  0.00    -0.391 OA
ATOM     18  HO  UNL     1       8.437  -0.118  29.693  1.00  0.00     0.210 HD
ENDBRANCH  16  17
BRANCH  16  19
HETATM   19  C   UNL     1       7.342  -2.621  28.235  1.00  0.00     0.145 C 
HETATM   20  C   UNL     1       8.839  -2.763  28.016  1.00  0.00     0.042 C 
BRANCH  19  21
HETATM   21  O   UNL     1       6.644  -2.741  26.978  1.00  0.00    -0.393 OA
ATOM     22  HO  UNL     1       6.564  -3.658  26.745  1.00  0.00     0.210 HD
ENDBRANCH  19  21
ENDBRANCH  16  19
ENDBRANCH  14  16
BRANCH   3  23
HETATM   23  N   UNL     1      -0.445  -0.471  29.972  1.00  0.00    -0.234 N 
ATOM     24  HN2 UNL     1      -0.655   0.312  30.592  1.00  0.00     0.174 HD
ATOM     25  HN1 UNL     1      -1.184  -1.103  29.665  1.00  0.00     0.174 HD
ENDBRANCH   3  23
TORSDOF 5
ENDMDL
MODEL 19
REMARK VINA RESULT:    -6.439      6.341      7.875
REMARK INTER + INTRA:          -7.916
REMARK INTER:                  -7.549
REMARK INTRA:                  -0.367
REMARK UNBOUND:                -0.159
REMARK  5 active torsions:
REMARK  status: ('A' for Active; 'I' for Inactive)
REMARK    1  A    between atoms: C_3  and  N_4 
REMARK    2  A    between atoms: C_17  and  C_19 
REMARK    3  A    between atoms: C_19  and  O_20 
REMARK    4  A    between atoms: C_19  and  C_22 
REMARK    5  A    between atoms: C_22  and  O_24 
ROOT
HETATM    1  N   UNL     1       7.126  -2.516  26.449  1.00  0.00    -0.175 N 
ATOM      2  HN  UNL     1       6.882  -2.822  25.507  1.00  0.00     0.186 HD
HETATM    3  C   UNL     1       8.311  -2.878  26.986  1.00  0.00     0.680 A 
HETATM    4  N   UNL     1       8.660  -2.465  28.228  1.00  0.00    -0.154 N 
ATOM      5  HN  UNL     1       9.565  -2.738  28.613  1.00  0.00     0.187 HD
HETATM    6  C   UNL     1       7.825  -1.696  28.965  1.00  0.00     0.289 A 
HETATM    7  O   UNL     1       8.139  -1.306  30.120  1.00  0.00    -0.265 OA
HETATM    8  C   UNL     1       6.603  -1.337  28.425  1.00  0.00     0.142 A 
HETATM    9  C   UNL     1       6.268  -1.757  27.148  1.00  0.00     0.149 A 
HETATM   10  N   UNL     1       5.734  -0.572  29.119  1.00  0.00    -0.374 N 
ATOM     11  HN  UNL     1       6.042   0.042  29.873  1.00  0.00     0.160 HD
HETATM   12  N   UNL     1       5.077  -1.414  26.582  1.00  0.00    -0.372 N 
ATOM     13  HN  UNL     1       4.835  -1.804  25.671  1.00  0.00     0.161 HD
HETATM   14  C   UNL     1       4.330  -0.671  28.733  1.00  0.00     0.131 C 
HETATM   15  C   UNL     1       4.141  -0.513  27.232  1.00  0.00     0.149 C 
ENDROOT
BRANCH  14  16
HETATM   16  C   UNL     1       3.475   0.351  29.464  1.00  0.00     0.170 C 
BRANCH  16  17
HETATM   17  O   UNL     1       2.146   0.322  28.941  1.00  0.00    -0.391 OA
ATOM     18  HO  UNL     1       2.180   0.224  27.996  1.00  0.00     0.210 HD
ENDBRANCH  16  17
BRANCH  16  19
HETATM   19  C   UNL     1       3.459   0.083  30.965  1.00  0.00     0.145 C 
HETATM   20  C   UNL     1       2.273   0.819  31.565  1.00  0.00     0.042 C 
BRANCH  19  21
HETATM   21  O   UNL     1       4.687   0.557  31.554  1.00  0.00    -0.393 OA
ATOM     22  HO  UNL     1       5.175   1.059  30.913  1.00  0.00     0.210 HD
ENDBRANCH  19  21
ENDBRANCH  16  19
ENDBRANCH  14  16
BRANCH   3  23
HETATM   23  N   UNL     1       9.151  -3.642  26.250  1.00  0.00    -0.234 N 
ATOM     24  HN2 UNL     1       8.877  -3.978  25.327  1.00  0.00     0.174 HD
ATOM     25  HN1 UNL     1      10.059  -3.890  26.644  1.00  0.00     0.174 HD
ENDBRANCH   3  23
TORSDOF 5
ENDMDL
MODEL 20
REMARK VINA RESULT:    -6.438     10.857     11.319
REMARK INTER + INTRA:          -7.914
REMARK INTER:                  -7.684
REMARK INTRA:                  -0.230
REMARK UNBOUND:                -0.159
REMARK  5 active torsions:
REMARK  status: ('A' for Active; 'I' for Inactive)
REMARK    1  A    between atoms: C_3  and  N_4 
REMARK    2  A    between atoms: C_17  and  C_19 
REMARK    3  A    between atoms: C_19  and  O_20 
REMARK    4  A    between atoms: C_19  and  C_22 
REMARK    5  A    between atoms: C_22  and  O_24 
ROOT
HETATM    1  N   UNL     1       8.184  14.476  29.900  1.00  0.00    -0.175 N 
ATOM      2  HN  UNL     1       7.541  15.143  29.473  1.00  0.00     0.186 HD
HETATM    3  C   UNL     1       9.158  13.912  29.154  1.00  0.00     0.680 A 
HETATM    4  N   UNL     1      10.033  13.039  29.707  1.00  0.00    -0.154 N 
ATOM      5  HN  UNL     1      10.771  12.632  29.132  1.00  0.00     0.187 HD
HETATM    6  C   UNL     1       9.942  12.699  31.015  1.00  0.00     0.289 A 
HETATM    7  O   UNL     1      10.749  11.889  31.540  1.00  0.00    -0.265 OA
HETATM    8  C   UNL     1       8.935  13.261  31.778  1.00  0.00     0.142 A 
HETATM    9  C   UNL     1       8.057  14.163  31.199  1.00  0.00     0.149 A 
HETATM   10  N   UNL     1       8.800  12.954  33.086  1.00  0.00    -0.374 N 
ATOM     11  HN  UNL     1       9.582  12.602  33.638  1.00  0.00     0.160 HD
HETATM   12  N   UNL     1       7.060  14.743  31.923  1.00  0.00    -0.372 N 
ATOM     13  HN  UNL     1       6.389  15.343  31.445  1.00  0.00     0.161 HD
HETATM   14  C   UNL     1       7.476  13.154  33.666  1.00  0.00     0.131 C 
HETATM   15  C   UNL     1       6.921  14.535  33.355  1.00  0.00     0.149 C 
ENDROOT
BRANCH  14  16
HETATM   16  C   UNL     1       7.486  12.936  35.171  1.00  0.00     0.170 C 
BRANCH  16  17
HETATM   17  O   UNL     1       8.343  11.837  35.487  1.00  0.00    -0.391 OA
ATOM     18  HO  UNL     1       9.166  12.165  35.828  1.00  0.00     0.210 HD
ENDBRANCH  16  17
BRANCH  16  19
HETATM   19  C   UNL     1       7.943  14.192  35.906  1.00  0.00     0.145 C 
HETATM   20  C   UNL     1       9.172  13.838  36.726  1.00  0.00     0.042 C 
BRANCH  19  21
HETATM   21  O   UNL     1       6.887  14.657  36.770  1.00  0.00    -0.393 OA
ATOM     22  HO  UNL     1       7.239  15.278  37.397  1.00  0.00     0.210 HD
ENDBRANCH  19  21
ENDBRANCH  16  19
ENDBRANCH  14  16
BRANCH   3  23
HETATM   23  N   UNL     1       9.257  14.254  27.848  1.00  0.00    -0.234 N 
ATOM     24  HN2 UNL     1       9.590  15.179  27.575  1.00  0.00     0.174 HD
ATOM     25  HN1 UNL     1       8.974  13.574  27.142  1.00  0.00     0.174 HD
ENDBRANCH   3  23
TORSDOF 5
ENDMDL
