REMARK  12 active torsions:
REMARK  status: ('A' for Active; 'I' for Inactive)
REMARK    1  A    between atoms: C_3  and  C_4 
REMARK    2  A    between atoms: C_4  and  C_7 
REMARK    3  A    between atoms: C_4  and  C_5 
REMARK    4  A    between atoms: C_7  and  C_8 
REMARK    5  A    between atoms: C_10  and  C_19 
REMARK    6  A    between atoms: C_11  and  O_14 
REMARK    7  A    between atoms: O_14  and  C_15 
REMARK    8  A    between atoms: C_15  and  C_16 
REMARK    9  A    between atoms: C_16  and  C_17 
REMARK   10  A    between atoms: C_19  and  N_20 
REMARK       I    between atoms: N_20  and  C_22 
REMARK   11  A    between atoms: C_22  and  C_24 
REMARK   12  A    between atoms: C_27  and  C_30 
ROOT
HETATM    1  C   UNL     1      18.232   5.431  38.484  1.00  0.00    -0.057 A 
HETATM    2  C   UNL     1      18.065   4.048  38.551  1.00  0.00     0.018 A 
HETATM    3  C   UNL     1      17.472   3.323  37.519  1.00  0.00    -0.007 A 
HETATM    4  C   UNL     1      17.046   4.023  36.386  1.00  0.00     0.076 A 
HETATM    5  C   UNL     1      17.219   5.392  36.295  1.00  0.00     0.038 A 
HETATM    6  C   UNL     1      17.808   6.081  37.338  1.00  0.00     0.010 A 
ENDROOT
BRANCH   3   7
HETATM    7  C   UNL     1      17.293   1.830  37.608  1.00  0.00     0.164 C 
BRANCH   7   8
HETATM    8  N   UNL     1      15.897   1.405  37.537  1.00  0.00    -0.352 N 
HETATM    9  C   UNL     1      15.506   0.214  37.996  1.00  0.00     0.255 C 
HETATM   10  O   UNL     1      16.290  -0.594  38.488  1.00  0.00    -0.268 OA
ATOM     11  HN  UNL     1      15.205   2.033  37.127  1.00  0.00     0.163 HD
BRANCH   9  12
HETATM   12  C   UNL     1      14.050  -0.122  37.890  1.00  0.00     0.070 A 
HETATM   13  C   UNL     1      13.148   0.512  37.060  1.00  0.00     0.132 A 
HETATM   14  F   UNL     1      13.570   1.528  36.275  1.00  0.00    -0.205 F 
HETATM   15  C   UNL     1      11.819   0.166  36.992  1.00  0.00     0.059 A 
HETATM   16  C   UNL     1      11.348  -0.870  37.782  1.00  0.00     0.050 A 
HETATM   17  C   UNL     1      12.226  -1.539  38.615  1.00  0.00     0.017 A 
HETATM   18  C   UNL     1      13.559  -1.169  38.666  1.00  0.00     0.021 A 
BRANCH  16  19
HETATM   19  C   UNL     1       9.912  -1.271  37.713  1.00  0.00     0.417 C 
HETATM   20  F   UNL     1       9.237  -0.635  36.759  1.00  0.00    -0.166 F 
HETATM   21  F   UNL     1       9.760  -2.563  37.466  1.00  0.00    -0.166 F 
HETATM   22  F   UNL     1       9.261  -1.031  38.845  1.00  0.00    -0.166 F 
ENDBRANCH  16  19
ENDBRANCH   9  12
ENDBRANCH   7   8
ENDBRANCH   3   7
BRANCH   4  23
HETATM   23  O   UNL     1      16.493   3.269  35.389  1.00  0.00    -0.351 OA
BRANCH  23  24
HETATM   24  C   UNL     1      16.279   3.897  34.118  1.00  0.00     0.175 C 
BRANCH  24  25
HETATM   25  C   UNL     1      16.011   2.820  33.101  1.00  0.00     0.026 C 
BRANCH  25  26
HETATM   26  C   UNL     1      17.206   1.969  32.750  1.00  0.00    -0.002 C 
HETATM   27  C   UNL     1      18.291   2.713  32.005  1.00  0.00     0.005 C 
ENDBRANCH  25  26
ENDBRANCH  24  25
ENDBRANCH  23  24
ENDBRANCH   4  23
BRANCH   1  28
HETATM   28  C   UNL     1      18.906   6.196  39.598  1.00  0.00     0.054 C 
BRANCH  28  29
HETATM   29  C   UNL     1      18.130   6.256  40.918  1.00  0.00     0.090 C 
BRANCH  29  30
HETATM   30  C   UNL     1      16.771   6.957  40.767  1.00  0.00     0.011 C 
HETATM   31  C   UNL     1      15.927   6.902  42.028  1.00  0.00     0.006 C 
ENDBRANCH  29  30
BRANCH  29  32
HETATM   32  C   UNL     1      19.010   6.951  41.967  1.00  0.00     0.177 C 
HETATM   33  O   UNL     1      18.977   8.199  42.037  1.00  0.00    -0.648 OA
HETATM   34  O   UNL     1      19.747   6.238  42.676  1.00  0.00    -0.648 OA
ENDBRANCH  29  32
ENDBRANCH  28  29
ENDBRANCH   1  28
TORSDOF 12
