MODEL 1
REMARK VINA RESULT:    -9.540      0.000      0.000
REMARK INTER + INTRA:         -23.795
REMARK INTER:                 -19.021
REMARK INTRA:                  -4.774
REMARK UNBOUND:                -4.774
REMARK  19 active torsions:
REMARK  status: ('A' for Active; 'I' for Inactive)
REMARK    1  A    between atoms: P_1  and  O_63 
REMARK    2  A    between atoms: N_2  and  C_23 
REMARK    3  A    between atoms: C_5  and  O_8 
REMARK    4  A    between atoms: P_14  and  O_54 
REMARK    5  A    between atoms: P_14  and  O_37 
REMARK    6  A    between atoms: P_15  and  O_38 
REMARK    7  A    between atoms: P_15  and  O_37 
REMARK    8  A    between atoms: C_18  and  O_38 
REMARK    9  A    between atoms: C_24  and  N_25 
REMARK       I    between atoms: N_25  and  C_57 
REMARK   10  A    between atoms: C_31  and  O_32 
REMARK   11  A    between atoms: C_34  and  N_35 
REMARK   12  A    between atoms: C_39  and  O_40 
REMARK   13  A    between atoms: C_42  and  O_43 
REMARK   14  A    between atoms: C_45  and  C_46 
REMARK   15  A    between atoms: C_47  and  C_53 
REMARK   16  A    between atoms: C_49  and  C_55 
REMARK   17  A    between atoms: C_51  and  C_52 
REMARK   18  A    between atoms: C_52  and  O_63 
REMARK   19  A    between atoms: C_53  and  O_54 
ROOT
HETATM    1  C   UNL     1      15.400   2.901  26.122  1.00  0.00     0.298 C 
HETATM    2  C   UNL     1      16.461   3.478  25.201  1.00  0.00     0.165 C 
HETATM    3  C   UNL     1      17.898   3.195  25.635  1.00  0.00     0.140 C 
HETATM    4  C   UNL     1      18.057   3.246  27.160  1.00  0.00     0.182 C 
HETATM    5  C   UNL     1      16.881   2.637  27.942  1.00  0.00     0.256 C 
HETATM    6  O   UNL     1      15.645   3.179  27.480  1.00  0.00    -0.340 OA
ENDROOT
BRANCH   1   7
HETATM    7  O   UNL     1      15.359   1.531  25.905  1.00  0.00    -0.256 OA
BRANCH   7   8
HETATM    8  P   UNL     1      14.005   0.727  26.153  1.00  0.00     0.420 P 
HETATM    9  O   UNL     1      13.673  -0.289  25.090  1.00  0.00    -0.624 OA
HETATM   10  O   UNL     1      14.121   0.199  27.521  1.00  0.00    -0.624 OA
BRANCH   8  11
HETATM   11  O   UNL     1      13.030   1.979  26.213  1.00  0.00    -0.180 OA
BRANCH  11  12
HETATM   12  P   UNL     1      11.570   2.136  26.826  1.00  0.00     0.417 P 
HETATM   13  O   UNL     1      10.866   3.058  25.898  1.00  0.00    -0.624 OA
HETATM   14  O   UNL     1      11.001   0.774  27.052  1.00  0.00    -0.624 OA
BRANCH  12  15
HETATM   15  O   UNL     1      11.775   2.896  28.224  1.00  0.00    -0.287 OA
BRANCH  15  16
HETATM   16  C   UNL     1      11.607   4.305  28.317  1.00  0.00     0.216 C 
BRANCH  16  17
HETATM   17  C   UNL     1      12.912   4.985  27.990  1.00  0.00     0.180 C 
HETATM   18  C   UNL     1      13.508   5.802  29.145  1.00  0.00     0.182 C 
HETATM   19  C   UNL     1      13.141   7.243  28.790  1.00  0.00     0.198 C 
HETATM   20  C   UNL     1      13.159   7.206  27.263  1.00  0.00     0.263 C 
HETATM   21  O   UNL     1      12.734   5.913  26.886  1.00  0.00    -0.353 OA
BRANCH  18  22
HETATM   22  O   UNL     1      14.907   5.615  29.242  1.00  0.00    -0.390 OA
ATOM     23  HO  UNL     1      15.176   5.472  30.142  1.00  0.00     0.210 HD
ENDBRANCH  18  22
BRANCH  19  24
HETATM   24  O   UNL     1      14.067   8.197  29.254  1.00  0.00    -0.388 OA
ATOM     25  HO  UNL     1      14.653   8.445  28.549  1.00  0.00     0.210 HD
ENDBRANCH  19  24
BRANCH  20  26
HETATM   26  N   UNL     1      12.217   8.198  26.738  1.00  0.00    -0.280 N 
HETATM   27  C   UNL     1      10.877   8.081  27.016  1.00  0.00     0.104 A 
HETATM   28  C   UNL     1       9.978   8.980  26.615  1.00  0.00     0.092 A 
HETATM   29  C   UNL     1      10.425  10.122  25.882  1.00  0.00     0.250 A 
HETATM   30  O   UNL     1       9.714  11.019  25.458  1.00  0.00    -0.268 OA
HETATM   31  N   UNL     1      11.786  10.198  25.679  1.00  0.00    -0.275 N 
HETATM   32  C   UNL     1      12.732   9.298  26.067  1.00  0.00     0.331 A 
ATOM     33  HN  UNL     1      12.123  11.022  25.181  1.00  0.00     0.173 HD
HETATM   34  O   UNL     1      13.923   9.450  25.802  1.00  0.00    -0.246 OA
ENDBRANCH  20  26
ENDBRANCH  16  17
ENDBRANCH  15  16
ENDBRANCH  12  15
ENDBRANCH  11  12
ENDBRANCH   8  11
ENDBRANCH   7   8
ENDBRANCH   1   7
BRANCH   2  35
HETATM   35  N   UNL     1      16.242   3.004  23.853  1.00  0.00    -0.350 N 
HETATM   36  C   UNL     1      16.135   3.798  22.798  1.00  0.00     0.214 C 
HETATM   37  O   UNL     1      16.378   4.987  22.867  1.00  0.00    -0.274 OA
HETATM   38  C   UNL     1      15.722   3.127  21.522  1.00  0.00     0.117 C 
ATOM     39  HN  UNL     1      16.164   1.998  23.705  1.00  0.00     0.163 HD
ENDBRANCH   2  35
BRANCH   5  40
HETATM   40  C   UNL     1      16.916   2.833  29.464  1.00  0.00     0.206 C 
HETATM   41  O   UNL     1      17.351   3.800  29.941  1.00  0.00    -0.646 OA
HETATM   42  O   UNL     1      16.526   1.949  30.150  1.00  0.00    -0.646 OA
ENDBRANCH   5  40
BRANCH   3  43
HETATM   43  N   UNL     1      18.674   4.261  24.993  1.00  0.00    -0.389 N 
HETATM   44  C   UNL     1      19.937   4.243  24.849  1.00  0.00     0.098 C 
ATOM     45  HN  UNL     1      18.166   5.071  24.639  1.00  0.00     0.159 HD
BRANCH  44  46
HETATM   46  C   UNL     1      20.601   5.367  24.148  1.00  0.00     0.024 A 
HETATM   47  C   UNL     1      20.133   5.765  22.876  1.00  0.00     0.100 A 
HETATM   48  C   UNL     1      20.711   6.881  22.242  1.00  0.00     0.039 A 
HETATM   49  N   UNL     1      21.731   7.522  22.809  1.00  0.00    -0.367 N 
HETATM   50  C   UNL     1      20.250   7.365  20.895  1.00  0.00     0.071 C 
HETATM   51  C   UNL     1      22.201   7.128  24.017  1.00  0.00     0.098 A 
ATOM     52  HN  UNL     1      22.160   8.314  22.331  1.00  0.00     0.165 HD
HETATM   53  C   UNL     1      21.674   6.079  24.716  1.00  0.00    -0.004 A 
BRANCH  47  54
HETATM   54  O   UNL     1      19.169   5.092  22.258  1.00  0.00    -0.358 OA
ATOM     55  HO  UNL     1      19.353   4.570  21.486  1.00  0.00     0.217 HD
ENDBRANCH  47  54
BRANCH  53  56
HETATM   56  C   UNL     1      22.216   5.767  26.084  1.00  0.00     0.223 C 
BRANCH  56  57
HETATM   57  O   UNL     1      22.906   4.482  26.062  1.00  0.00    -0.278 OA
BRANCH  57  58
HETATM   58  P   UNL     1      23.235   3.798  27.485  1.00  0.00     0.422 P 
HETATM   59  O   UNL     1      24.256   2.741  27.238  1.00  0.00    -0.617 OA
HETATM   60  O   UNL     1      21.944   3.188  28.025  1.00  0.00    -0.617 OA
HETATM   61  O   UNL     1      23.723   4.948  28.316  1.00  0.00    -0.617 OA
ENDBRANCH  57  58
ENDBRANCH  56  57
ENDBRANCH  53  56
ENDBRANCH  44  46
ENDBRANCH   3  43
BRANCH   4  62
HETATM   62  O   UNL     1      19.197   2.498  27.553  1.00  0.00    -0.390 OA
ATOM     63  HO  UNL     1      19.293   1.822  26.893  1.00  0.00     0.210 HD
ENDBRANCH   4  62
TORSDOF 19
ENDMDL
MODEL 2
REMARK VINA RESULT:    -9.311      5.008      8.166
REMARK INTER + INTRA:         -23.338
REMARK INTER:                 -19.537
REMARK INTRA:                  -3.801
REMARK UNBOUND:                -4.774
REMARK  19 active torsions:
REMARK  status: ('A' for Active; 'I' for Inactive)
REMARK    1  A    between atoms: P_1  and  O_63 
REMARK    2  A    between atoms: N_2  and  C_23 
REMARK    3  A    between atoms: C_5  and  O_8 
REMARK    4  A    between atoms: P_14  and  O_54 
REMARK    5  A    between atoms: P_14  and  O_37 
REMARK    6  A    between atoms: P_15  and  O_38 
REMARK    7  A    between atoms: P_15  and  O_37 
REMARK    8  A    between atoms: C_18  and  O_38 
REMARK    9  A    between atoms: C_24  and  N_25 
REMARK       I    between atoms: N_25  and  C_57 
REMARK   10  A    between atoms: C_31  and  O_32 
REMARK   11  A    between atoms: C_34  and  N_35 
REMARK   12  A    between atoms: C_39  and  O_40 
REMARK   13  A    between atoms: C_42  and  O_43 
REMARK   14  A    between atoms: C_45  and  C_46 
REMARK   15  A    between atoms: C_47  and  C_53 
REMARK   16  A    between atoms: C_49  and  C_55 
REMARK   17  A    between atoms: C_51  and  C_52 
REMARK   18  A    between atoms: C_52  and  O_63 
REMARK   19  A    between atoms: C_53  and  O_54 
ROOT
HETATM    1  C   UNL     1      15.368   2.945  26.120  1.00  0.00     0.298 C 
HETATM    2  C   UNL     1      16.432   3.490  25.182  1.00  0.00     0.165 C 
HETATM    3  C   UNL     1      17.867   3.192  25.612  1.00  0.00     0.140 C 
HETATM    4  C   UNL     1      18.037   3.266  27.135  1.00  0.00     0.182 C 
HETATM    5  C   UNL     1      16.857   2.688  27.934  1.00  0.00     0.256 C 
HETATM    6  O   UNL     1      15.627   3.243  27.471  1.00  0.00    -0.340 OA
ENDROOT
BRANCH   1   7
HETATM    7  O   UNL     1      15.304   1.573  25.927  1.00  0.00    -0.256 OA
BRANCH   7   8
HETATM    8  P   UNL     1      13.964   0.782  26.274  1.00  0.00     0.420 P 
HETATM    9  O   UNL     1      14.112  -0.268  27.344  1.00  0.00    -0.624 OA
HETATM   10  O   UNL     1      12.965   1.827  26.543  1.00  0.00    -0.624 OA
BRANCH   8  11
HETATM   11  O   UNL     1      13.675   0.219  24.817  1.00  0.00    -0.180 OA
BRANCH  11  12
HETATM   12  P   UNL     1      14.457  -0.851  23.937  1.00  0.00     0.417 P 
HETATM   13  O   UNL     1      13.437  -1.392  23.001  1.00  0.00    -0.624 OA
HETATM   14  O   UNL     1      15.675  -0.199  23.370  1.00  0.00    -0.624 OA
BRANCH  12  15
HETATM   15  O   UNL     1      14.869  -2.020  24.955  1.00  0.00    -0.287 OA
BRANCH  15  16
HETATM   16  C   UNL     1      13.992  -3.112  25.203  1.00  0.00     0.216 C 
BRANCH  16  17
HETATM   17  C   UNL     1      14.176  -3.586  26.622  1.00  0.00     0.180 C 
HETATM   18  C   UNL     1      15.419  -4.459  26.841  1.00  0.00     0.182 C 
HETATM   19  C   UNL     1      14.857  -5.880  26.874  1.00  0.00     0.198 C 
HETATM   20  C   UNL     1      13.472  -5.657  27.480  1.00  0.00     0.263 C 
HETATM   21  O   UNL     1      13.038  -4.388  27.037  1.00  0.00    -0.353 OA
BRANCH  18  22
HETATM   22  O   UNL     1      16.083  -4.120  28.044  1.00  0.00    -0.390 OA
ATOM     23  HO  UNL     1      15.937  -4.774  28.717  1.00  0.00     0.210 HD
ENDBRANCH  18  22
BRANCH  19  24
HETATM   24  O   UNL     1      15.593  -6.767  27.684  1.00  0.00    -0.388 OA
ATOM     25  HO  UNL     1      15.535  -7.646  27.332  1.00  0.00     0.210 HD
ENDBRANCH  19  24
BRANCH  20  26
HETATM   26  N   UNL     1      12.550  -6.684  26.986  1.00  0.00    -0.280 N 
HETATM   27  C   UNL     1      11.899  -6.499  25.792  1.00  0.00     0.104 A 
HETATM   28  C   UNL     1      11.092  -7.419  25.262  1.00  0.00     0.092 A 
HETATM   29  C   UNL     1      10.910  -8.657  25.953  1.00  0.00     0.250 A 
HETATM   30  O   UNL     1      10.205  -9.582  25.584  1.00  0.00    -0.268 OA
HETATM   31  N   UNL     1      11.629  -8.792  27.121  1.00  0.00    -0.275 N 
HETATM   32  C   UNL     1      12.456  -7.873  27.695  1.00  0.00     0.331 A 
ATOM     33  HN  UNL     1      11.531  -9.681  27.612  1.00  0.00     0.173 HD
HETATM   34  O   UNL     1      13.026  -8.088  28.763  1.00  0.00    -0.246 OA
ENDBRANCH  20  26
ENDBRANCH  16  17
ENDBRANCH  15  16
ENDBRANCH  12  15
ENDBRANCH  11  12
ENDBRANCH   8  11
ENDBRANCH   7   8
ENDBRANCH   1   7
BRANCH   2  35
HETATM   35  N   UNL     1      16.196   2.997  23.844  1.00  0.00    -0.350 N 
HETATM   36  C   UNL     1      16.102   3.774  22.775  1.00  0.00     0.214 C 
HETATM   37  O   UNL     1      16.370   4.959  22.822  1.00  0.00    -0.274 OA
HETATM   38  C   UNL     1      15.668   3.090  21.514  1.00  0.00     0.117 C 
ATOM     39  HN  UNL     1      16.096   1.990  23.715  1.00  0.00     0.163 HD
ENDBRANCH   2  35
BRANCH   5  40
HETATM   40  C   UNL     1      16.905   2.909  29.453  1.00  0.00     0.206 C 
HETATM   41  O   UNL     1      16.263   2.268  30.180  1.00  0.00    -0.646 OA
HETATM   42  O   UNL     1      17.586   3.785  29.868  1.00  0.00    -0.646 OA
ENDBRANCH   5  40
BRANCH   3  43
HETATM   43  N   UNL     1      18.655   4.234  24.948  1.00  0.00    -0.389 N 
HETATM   44  C   UNL     1      19.926   4.265  24.917  1.00  0.00     0.098 C 
ATOM     45  HN  UNL     1      18.150   4.985  24.478  1.00  0.00     0.159 HD
BRANCH  44  46
HETATM   46  C   UNL     1      20.606   5.355  24.179  1.00  0.00     0.024 A 
HETATM   47  C   UNL     1      20.127   5.734  22.905  1.00  0.00     0.100 A 
HETATM   48  C   UNL     1      20.723   6.820  22.235  1.00  0.00     0.039 A 
HETATM   49  N   UNL     1      21.766   7.448  22.770  1.00  0.00    -0.367 N 
HETATM   50  C   UNL     1      20.251   7.283  20.885  1.00  0.00     0.071 C 
HETATM   51  C   UNL     1      22.246   7.072  23.980  1.00  0.00     0.098 A 
ATOM     52  HN  UNL     1      22.208   8.217  22.266  1.00  0.00     0.165 HD
HETATM   53  C   UNL     1      21.706   6.053  24.713  1.00  0.00    -0.004 A 
BRANCH  47  54
HETATM   54  O   UNL     1      19.137   5.070  22.319  1.00  0.00    -0.358 OA
ATOM     55  HO  UNL     1      18.697   5.421  21.554  1.00  0.00     0.217 HD
ENDBRANCH  47  54
BRANCH  53  56
HETATM   56  C   UNL     1      22.262   5.761  26.080  1.00  0.00     0.223 C 
BRANCH  56  57
HETATM   57  O   UNL     1      22.864   4.432  26.094  1.00  0.00    -0.278 OA
BRANCH  57  58
HETATM   58  P   UNL     1      23.181   3.784  27.537  1.00  0.00     0.422 P 
HETATM   59  O   UNL     1      24.233   2.748  27.330  1.00  0.00    -0.617 OA
HETATM   60  O   UNL     1      21.895   3.152  28.063  1.00  0.00    -0.617 OA
HETATM   61  O   UNL     1      23.624   4.962  28.355  1.00  0.00    -0.617 OA
ENDBRANCH  57  58
ENDBRANCH  56  57
ENDBRANCH  53  56
ENDBRANCH  44  46
ENDBRANCH   3  43
BRANCH   4  62
HETATM   62  O   UNL     1      19.168   2.507  27.533  1.00  0.00    -0.390 OA
ATOM     63  HO  UNL     1      19.391   1.975  26.779  1.00  0.00     0.210 HD
ENDBRANCH   4  62
TORSDOF 19
ENDMDL
MODEL 3
REMARK VINA RESULT:    -9.268      3.546      5.621
REMARK INTER + INTRA:         -23.252
REMARK INTER:                 -19.486
REMARK INTRA:                  -3.766
REMARK UNBOUND:                -4.774
REMARK  19 active torsions:
REMARK  status: ('A' for Active; 'I' for Inactive)
REMARK    1  A    between atoms: P_1  and  O_63 
REMARK    2  A    between atoms: N_2  and  C_23 
REMARK    3  A    between atoms: C_5  and  O_8 
REMARK    4  A    between atoms: P_14  and  O_54 
REMARK    5  A    between atoms: P_14  and  O_37 
REMARK    6  A    between atoms: P_15  and  O_38 
REMARK    7  A    between atoms: P_15  and  O_37 
REMARK    8  A    between atoms: C_18  and  O_38 
REMARK    9  A    between atoms: C_24  and  N_25 
REMARK       I    between atoms: N_25  and  C_57 
REMARK   10  A    between atoms: C_31  and  O_32 
REMARK   11  A    between atoms: C_34  and  N_35 
REMARK   12  A    between atoms: C_39  and  O_40 
REMARK   13  A    between atoms: C_42  and  O_43 
REMARK   14  A    between atoms: C_45  and  C_46 
REMARK   15  A    between atoms: C_47  and  C_53 
REMARK   16  A    between atoms: C_49  and  C_55 
REMARK   17  A    between atoms: C_51  and  C_52 
REMARK   18  A    between atoms: C_52  and  O_63 
REMARK   19  A    between atoms: C_53  and  O_54 
ROOT
HETATM    1  C   UNL     1      15.433   2.850  26.062  1.00  0.00     0.298 C 
HETATM    2  C   UNL     1      16.483   3.440  25.136  1.00  0.00     0.165 C 
HETATM    3  C   UNL     1      17.925   3.156  25.552  1.00  0.00     0.140 C 
HETATM    4  C   UNL     1      18.100   3.194  27.076  1.00  0.00     0.182 C 
HETATM    5  C   UNL     1      16.933   2.573  27.864  1.00  0.00     0.256 C 
HETATM    6  O   UNL     1      15.692   3.116  27.420  1.00  0.00    -0.340 OA
ENDROOT
BRANCH   1   7
HETATM    7  O   UNL     1      15.394   1.483  25.832  1.00  0.00    -0.256 OA
BRANCH   7   8
HETATM    8  P   UNL     1      14.064   0.661  26.145  1.00  0.00     0.420 P 
HETATM    9  O   UNL     1      14.187  -0.331  27.272  1.00  0.00    -0.624 OA
HETATM   10  O   UNL     1      13.017   1.681  26.307  1.00  0.00    -0.624 OA
BRANCH   8  11
HETATM   11  O   UNL     1      13.875   0.020  24.704  1.00  0.00    -0.180 OA
BRANCH  11  12
HETATM   12  P   UNL     1      13.405  -1.434  24.263  1.00  0.00     0.417 P 
HETATM   13  O   UNL     1      12.987  -1.284  22.844  1.00  0.00    -0.624 OA
HETATM   14  O   UNL     1      14.491  -2.404  24.591  1.00  0.00    -0.624 OA
BRANCH  12  15
HETATM   15  O   UNL     1      12.096  -1.742  25.137  1.00  0.00    -0.287 OA
BRANCH  15  16
HETATM   16  C   UNL     1      12.098  -2.776  26.114  1.00  0.00     0.216 C 
BRANCH  16  17
HETATM   17  C   UNL     1      10.677  -3.178  26.416  1.00  0.00     0.180 C 
HETATM   18  C   UNL     1       9.901  -3.719  25.208  1.00  0.00     0.182 C 
HETATM   19  C   UNL     1       9.040  -2.533  24.775  1.00  0.00     0.198 C 
HETATM   20  C   UNL     1       8.775  -1.833  26.107  1.00  0.00     0.263 C 
HETATM   21  O   UNL     1       9.924  -2.035  26.904  1.00  0.00    -0.353 OA
BRANCH  18  22
HETATM   22  O   UNL     1       9.121  -4.847  25.559  1.00  0.00    -0.390 OA
ATOM     23  HO  UNL     1       8.267  -4.589  25.884  1.00  0.00     0.210 HD
ENDBRANCH  18  22
BRANCH  19  24
HETATM   24  O   UNL     1       7.818  -2.903  24.180  1.00  0.00    -0.388 OA
ATOM     25  HO  UNL     1       7.785  -3.846  24.075  1.00  0.00     0.210 HD
ENDBRANCH  19  24
BRANCH  20  26
HETATM   26  N   UNL     1       8.590  -0.398  25.877  1.00  0.00    -0.280 N 
HETATM   27  C   UNL     1       9.682   0.402  25.645  1.00  0.00     0.104 A 
HETATM   28  C   UNL     1       9.575   1.704  25.375  1.00  0.00     0.092 A 
HETATM   29  C   UNL     1       8.274   2.289  25.303  1.00  0.00     0.250 A 
HETATM   30  O   UNL     1       8.032   3.461  25.064  1.00  0.00    -0.268 OA
HETATM   31  N   UNL     1       7.224   1.419  25.501  1.00  0.00    -0.275 N 
HETATM   32  C   UNL     1       7.294   0.088  25.786  1.00  0.00     0.331 A 
ATOM     33  HN  UNL     1       6.287   1.816  25.425  1.00  0.00     0.173 HD
HETATM   34  O   UNL     1       6.287  -0.590  25.976  1.00  0.00    -0.246 OA
ENDBRANCH  20  26
ENDBRANCH  16  17
ENDBRANCH  15  16
ENDBRANCH  12  15
ENDBRANCH  11  12
ENDBRANCH   8  11
ENDBRANCH   7   8
ENDBRANCH   1   7
BRANCH   2  35
HETATM   35  N   UNL     1      16.251   2.978  23.785  1.00  0.00    -0.350 N 
HETATM   36  C   UNL     1      16.137   3.781  22.738  1.00  0.00     0.214 C 
HETATM   37  O   UNL     1      16.382   4.970  22.816  1.00  0.00    -0.274 OA
HETATM   38  C   UNL     1      15.712   3.123  21.460  1.00  0.00     0.117 C 
ATOM     39  HN  UNL     1      16.171   1.973  23.630  1.00  0.00     0.163 HD
ENDBRANCH   2  35
BRANCH   5  40
HETATM   40  C   UNL     1      16.984   2.754  29.387  1.00  0.00     0.206 C 
HETATM   41  O   UNL     1      16.505   1.977  30.107  1.00  0.00    -0.646 OA
HETATM   42  O   UNL     1      17.489   3.736  29.816  1.00  0.00    -0.646 OA
ENDBRANCH   5  40
BRANCH   3  43
HETATM   43  N   UNL     1      18.691   4.231  24.913  1.00  0.00    -0.389 N 
HETATM   44  C   UNL     1      19.961   4.268  24.848  1.00  0.00     0.098 C 
ATOM     45  HN  UNL     1      18.171   5.001  24.493  1.00  0.00     0.159 HD
BRANCH  44  46
HETATM   46  C   UNL     1      20.616   5.393  24.140  1.00  0.00     0.024 A 
HETATM   47  C   UNL     1      20.151   5.774  22.862  1.00  0.00     0.100 A 
HETATM   48  C   UNL     1      20.721   6.890  22.221  1.00  0.00     0.039 A 
HETATM   49  N   UNL     1      21.730   7.547  22.787  1.00  0.00    -0.367 N 
HETATM   50  C   UNL     1      20.261   7.358  20.868  1.00  0.00     0.071 C 
HETATM   51  C   UNL     1      22.198   7.169  24.001  1.00  0.00     0.098 A 
ATOM     52  HN  UNL     1      22.154   8.339  22.304  1.00  0.00     0.165 HD
HETATM   53  C   UNL     1      21.679   6.120  24.707  1.00  0.00    -0.004 A 
BRANCH  47  54
HETATM   54  O   UNL     1      19.197   5.085  22.246  1.00  0.00    -0.358 OA
ATOM     55  HO  UNL     1      19.391   4.266  21.805  1.00  0.00     0.217 HD
ENDBRANCH  47  54
BRANCH  53  56
HETATM   56  C   UNL     1      22.217   5.827  26.081  1.00  0.00     0.223 C 
BRANCH  56  57
HETATM   57  O   UNL     1      22.940   4.559  26.068  1.00  0.00    -0.278 OA
BRANCH  57  58
HETATM   58  P   UNL     1      23.199   3.846  27.491  1.00  0.00     0.422 P 
HETATM   59  O   UNL     1      24.237   2.799  27.274  1.00  0.00    -0.617 OA
HETATM   60  O   UNL     1      21.886   3.219  27.952  1.00  0.00    -0.617 OA
HETATM   61  O   UNL     1      23.639   4.980  28.371  1.00  0.00    -0.617 OA
ENDBRANCH  57  58
ENDBRANCH  56  57
ENDBRANCH  53  56
ENDBRANCH  44  46
ENDBRANCH   3  43
BRANCH   4  62
HETATM   62  O   UNL     1      19.246   2.445  27.450  1.00  0.00    -0.390 OA
ATOM     63  HO  UNL     1      19.324   2.560  28.389  1.00  0.00     0.210 HD
ENDBRANCH   4  62
TORSDOF 19
ENDMDL
MODEL 4
REMARK VINA RESULT:    -9.208      5.387      8.627
REMARK INTER + INTRA:         -23.132
REMARK INTER:                 -19.649
REMARK INTRA:                  -3.483
REMARK UNBOUND:                -4.774
REMARK  19 active torsions:
REMARK  status: ('A' for Active; 'I' for Inactive)
REMARK    1  A    between atoms: P_1  and  O_63 
REMARK    2  A    between atoms: N_2  and  C_23 
REMARK    3  A    between atoms: C_5  and  O_8 
REMARK    4  A    between atoms: P_14  and  O_54 
REMARK    5  A    between atoms: P_14  and  O_37 
REMARK    6  A    between atoms: P_15  and  O_38 
REMARK    7  A    between atoms: P_15  and  O_37 
REMARK    8  A    between atoms: C_18  and  O_38 
REMARK    9  A    between atoms: C_24  and  N_25 
REMARK       I    between atoms: N_25  and  C_57 
REMARK   10  A    between atoms: C_31  and  O_32 
REMARK   11  A    between atoms: C_34  and  N_35 
REMARK   12  A    between atoms: C_39  and  O_40 
REMARK   13  A    between atoms: C_42  and  O_43 
REMARK   14  A    between atoms: C_45  and  C_46 
REMARK   15  A    between atoms: C_47  and  C_53 
REMARK   16  A    between atoms: C_49  and  C_55 
REMARK   17  A    between atoms: C_51  and  C_52 
REMARK   18  A    between atoms: C_52  and  O_63 
REMARK   19  A    between atoms: C_53  and  O_54 
ROOT
HETATM    1  C   UNL     1      15.380   2.955  26.048  1.00  0.00     0.298 C 
HETATM    2  C   UNL     1      16.438   3.514  25.111  1.00  0.00     0.165 C 
HETATM    3  C   UNL     1      17.876   3.217  25.533  1.00  0.00     0.140 C 
HETATM    4  C   UNL     1      18.052   3.278  27.055  1.00  0.00     0.182 C 
HETATM    5  C   UNL     1      16.877   2.687  27.854  1.00  0.00     0.256 C 
HETATM    6  O   UNL     1      15.643   3.241  27.401  1.00  0.00    -0.340 OA
ENDROOT
BRANCH   1   7
HETATM    7  O   UNL     1      15.321   1.585  25.842  1.00  0.00    -0.256 OA
BRANCH   7   8
HETATM    8  P   UNL     1      14.001   0.778  26.227  1.00  0.00     0.420 P 
HETATM    9  O   UNL     1      14.107  -0.035  27.491  1.00  0.00    -0.624 OA
HETATM   10  O   UNL     1      12.924   1.779  26.204  1.00  0.00    -0.624 OA
BRANCH   8  11
HETATM   11  O   UNL     1      13.882  -0.071  24.891  1.00  0.00    -0.180 OA
BRANCH  11  12
HETATM   12  P   UNL     1      13.737  -1.639  24.660  1.00  0.00     0.417 P 
HETATM   13  O   UNL     1      13.632  -1.798  23.186  1.00  0.00    -0.624 OA
HETATM   14  O   UNL     1      14.849  -2.329  25.378  1.00  0.00    -0.624 OA
BRANCH  12  15
HETATM   15  O   UNL     1      12.323  -2.035  25.305  1.00  0.00    -0.287 OA
BRANCH  15  16
HETATM   16  C   UNL     1      12.178  -3.228  26.068  1.00  0.00     0.216 C 
BRANCH  16  17
HETATM   17  C   UNL     1      11.183  -4.134  25.389  1.00  0.00     0.180 C 
HETATM   18  C   UNL     1       9.959  -4.485  26.246  1.00  0.00     0.182 C 
HETATM   19  C   UNL     1      10.272  -5.891  26.758  1.00  0.00     0.198 C 
HETATM   20  C   UNL     1      11.087  -6.472  25.604  1.00  0.00     0.263 C 
HETATM   21  O   UNL     1      11.810  -5.398  25.040  1.00  0.00    -0.353 OA
BRANCH  18  22
HETATM   22  O   UNL     1       8.767  -4.446  25.485  1.00  0.00    -0.390 OA
ATOM     23  HO  UNL     1       8.094  -4.996  25.867  1.00  0.00     0.210 HD
ENDBRANCH  18  22
BRANCH  19  24
HETATM   24  O   UNL     1       9.129  -6.684  26.980  1.00  0.00    -0.388 OA
ATOM     25  HO  UNL     1       9.358  -7.432  27.519  1.00  0.00     0.210 HD
ENDBRANCH  19  24
BRANCH  20  26
HETATM   26  N   UNL     1      12.027  -7.469  26.123  1.00  0.00    -0.280 N 
HETATM   27  C   UNL     1      13.092  -7.068  26.892  1.00  0.00     0.104 A 
HETATM   28  C   UNL     1      13.950  -7.930  27.438  1.00  0.00     0.092 A 
HETATM   29  C   UNL     1      13.746  -9.330  27.233  1.00  0.00     0.250 A 
HETATM   30  O   UNL     1      14.449 -10.224  27.675  1.00  0.00    -0.268 OA
HETATM   31  N   UNL     1      12.634  -9.661  26.490  1.00  0.00    -0.275 N 
HETATM   32  C   UNL     1      11.741  -8.810  25.912  1.00  0.00     0.331 A 
ATOM     33  HN  UNL     1      12.459 -10.658  26.359  1.00  0.00     0.173 HD
HETATM   34  O   UNL     1      10.796  -9.217  25.238  1.00  0.00    -0.246 OA
ENDBRANCH  20  26
ENDBRANCH  16  17
ENDBRANCH  15  16
ENDBRANCH  12  15
ENDBRANCH  11  12
ENDBRANCH   8  11
ENDBRANCH   7   8
ENDBRANCH   1   7
BRANCH   2  35
HETATM   35  N   UNL     1      16.199   3.032  23.769  1.00  0.00    -0.350 N 
HETATM   36  C   UNL     1      16.124   3.816  22.705  1.00  0.00     0.214 C 
HETATM   37  O   UNL     1      16.412   4.996  22.759  1.00  0.00    -0.274 OA
HETATM   38  C   UNL     1      15.683   3.147  21.437  1.00  0.00     0.117 C 
ATOM     39  HN  UNL     1      16.082   2.028  23.634  1.00  0.00     0.163 HD
ENDBRANCH   2  35
BRANCH   5  40
HETATM   40  C   UNL     1      16.930   2.894  29.374  1.00  0.00     0.206 C 
HETATM   41  O   UNL     1      17.698   3.618  29.862  1.00  0.00    -0.646 OA
HETATM   42  O   UNL     1      16.192   2.260  30.050  1.00  0.00    -0.646 OA
ENDBRANCH   5  40
BRANCH   3  43
HETATM   43  N   UNL     1      18.657   4.268  24.875  1.00  0.00    -0.389 N 
HETATM   44  C   UNL     1      19.928   4.316  24.857  1.00  0.00     0.098 C 
ATOM     45  HN  UNL     1      18.148   5.013  24.400  1.00  0.00     0.159 HD
BRANCH  44  46
HETATM   46  C   UNL     1      20.601   5.414  24.125  1.00  0.00     0.024 A 
HETATM   47  C   UNL     1      20.129   5.787  22.847  1.00  0.00     0.100 A 
HETATM   48  C   UNL     1      20.717   6.880  22.182  1.00  0.00     0.039 A 
HETATM   49  N   UNL     1      21.749   7.521  22.726  1.00  0.00    -0.367 N 
HETATM   50  C   UNL     1      20.251   7.338  20.828  1.00  0.00     0.071 C 
HETATM   51  C   UNL     1      22.223   7.150  23.939  1.00  0.00     0.098 A 
ATOM     52  HN  UNL     1      22.185   8.295  22.226  1.00  0.00     0.165 HD
HETATM   53  C   UNL     1      21.688   6.125  24.668  1.00  0.00    -0.004 A 
BRANCH  47  54
HETATM   54  O   UNL     1      19.152   5.112  22.253  1.00  0.00    -0.358 OA
ATOM     55  HO  UNL     1      18.823   4.300  22.620  1.00  0.00     0.217 HD
ENDBRANCH  47  54
BRANCH  53  56
HETATM   56  C   UNL     1      22.236   5.839  26.039  1.00  0.00     0.223 C 
BRANCH  56  57
HETATM   57  O   UNL     1      22.881   4.530  26.051  1.00  0.00    -0.278 OA
BRANCH  57  58
HETATM   58  P   UNL     1      23.162   3.861  27.491  1.00  0.00     0.422 P 
HETATM   59  O   UNL     1      23.682   4.939  28.380  1.00  0.00    -0.617 OA
HETATM   60  O   UNL     1      24.205   2.762  27.306  1.00  0.00    -0.617 OA
HETATM   61  O   UNL     1      21.819   3.324  27.891  1.00  0.00    -0.617 OA
ENDBRANCH  57  58
ENDBRANCH  56  57
ENDBRANCH  53  56
ENDBRANCH  44  46
ENDBRANCH   3  43
BRANCH   4  62
HETATM   62  O   UNL     1      19.187   2.519  27.442  1.00  0.00    -0.390 OA
ATOM     63  HO  UNL     1      18.912   2.029  28.208  1.00  0.00     0.210 HD
ENDBRANCH   4  62
TORSDOF 19
ENDMDL
MODEL 5
REMARK VINA RESULT:    -9.178      4.829      7.753
REMARK INTER + INTRA:         -23.074
REMARK INTER:                 -19.343
REMARK INTRA:                  -3.730
REMARK UNBOUND:                -4.774
REMARK  19 active torsions:
REMARK  status: ('A' for Active; 'I' for Inactive)
REMARK    1  A    between atoms: P_1  and  O_63 
REMARK    2  A    between atoms: N_2  and  C_23 
REMARK    3  A    between atoms: C_5  and  O_8 
REMARK    4  A    between atoms: P_14  and  O_54 
REMARK    5  A    between atoms: P_14  and  O_37 
REMARK    6  A    between atoms: P_15  and  O_38 
REMARK    7  A    between atoms: P_15  and  O_37 
REMARK    8  A    between atoms: C_18  and  O_38 
REMARK    9  A    between atoms: C_24  and  N_25 
REMARK       I    between atoms: N_25  and  C_57 
REMARK   10  A    between atoms: C_31  and  O_32 
REMARK   11  A    between atoms: C_34  and  N_35 
REMARK   12  A    between atoms: C_39  and  O_40 
REMARK   13  A    between atoms: C_42  and  O_43 
REMARK   14  A    between atoms: C_45  and  C_46 
REMARK   15  A    between atoms: C_47  and  C_53 
REMARK   16  A    between atoms: C_49  and  C_55 
REMARK   17  A    between atoms: C_51  and  C_52 
REMARK   18  A    between atoms: C_52  and  O_63 
REMARK   19  A    between atoms: C_53  and  O_54 
ROOT
HETATM    1  C   UNL     1      15.303   3.023  26.052  1.00  0.00     0.298 C 
HETATM    2  C   UNL     1      16.376   3.553  25.116  1.00  0.00     0.165 C 
HETATM    3  C   UNL     1      17.807   3.261  25.565  1.00  0.00     0.140 C 
HETATM    4  C   UNL     1      17.962   3.361  27.088  1.00  0.00     0.182 C 
HETATM    5  C   UNL     1      16.774   2.797  27.885  1.00  0.00     0.256 C 
HETATM    6  O   UNL     1      15.549   3.344  27.401  1.00  0.00    -0.340 OA
ENDROOT
BRANCH   1   7
HETATM    7  O   UNL     1      15.241   1.648  25.882  1.00  0.00    -0.256 OA
BRANCH   7   8
HETATM    8  P   UNL     1      13.901   0.862  26.242  1.00  0.00     0.420 P 
HETATM    9  O   UNL     1      14.045  -0.152  27.347  1.00  0.00    -0.624 OA
HETATM   10  O   UNL     1      12.894   1.910  26.467  1.00  0.00    -0.624 OA
BRANCH   8  11
HETATM   11  O   UNL     1      13.628   0.250  24.802  1.00  0.00    -0.180 OA
BRANCH  11  12
HETATM   12  P   UNL     1      14.406  -0.867  23.978  1.00  0.00     0.417 P 
HETATM   13  O   UNL     1      13.445  -1.305  22.932  1.00  0.00    -0.624 OA
HETATM   14  O   UNL     1      15.725  -0.311  23.552  1.00  0.00    -0.624 OA
BRANCH  12  15
HETATM   15  O   UNL     1      14.614  -2.083  25.003  1.00  0.00    -0.287 OA
BRANCH  15  16
HETATM   16  C   UNL     1      13.769  -3.226  24.959  1.00  0.00     0.216 C 
BRANCH  16  17
HETATM   17  C   UNL     1      12.364  -2.821  25.327  1.00  0.00     0.180 C 
HETATM   18  C   UNL     1      12.133  -2.637  26.833  1.00  0.00     0.182 C 
HETATM   19  C   UNL     1      11.430  -3.929  27.248  1.00  0.00     0.198 C 
HETATM   20  C   UNL     1      10.642  -4.278  25.986  1.00  0.00     0.263 C 
HETATM   21  O   UNL     1      11.417  -3.833  24.892  1.00  0.00    -0.353 OA
BRANCH  18  22
HETATM   22  O   UNL     1      11.346  -1.491  27.098  1.00  0.00    -0.390 OA
ATOM     23  HO  UNL     1      11.608  -1.070  27.909  1.00  0.00     0.210 HD
ENDBRANCH  18  22
BRANCH  19  24
HETATM   24  O   UNL     1      10.545  -3.773  28.333  1.00  0.00    -0.388 OA
ATOM     25  HO  UNL     1      10.584  -4.540  28.891  1.00  0.00     0.210 HD
ENDBRANCH  19  24
BRANCH  20  26
HETATM   26  N   UNL     1      10.474  -5.732  25.901  1.00  0.00    -0.280 N 
HETATM   27  C   UNL     1      11.526  -6.518  25.500  1.00  0.00     0.104 A 
HETATM   28  C   UNL     1      11.453  -7.849  25.456  1.00  0.00     0.092 A 
HETATM   29  C   UNL     1      10.239  -8.486  25.859  1.00  0.00     0.250 A 
HETATM   30  O   UNL     1      10.036  -9.690  25.870  1.00  0.00    -0.268 OA
HETATM   31  N   UNL     1       9.243  -7.639  26.293  1.00  0.00    -0.275 N 
HETATM   32  C   UNL     1       9.279  -6.278  26.345  1.00  0.00     0.331 A 
ATOM     33  HN  UNL     1       8.380  -8.081  26.610  1.00  0.00     0.173 HD
HETATM   34  O   UNL     1       8.314  -5.616  26.721  1.00  0.00    -0.246 OA
ENDBRANCH  20  26
ENDBRANCH  16  17
ENDBRANCH  15  16
ENDBRANCH  12  15
ENDBRANCH  11  12
ENDBRANCH   8  11
ENDBRANCH   7   8
ENDBRANCH   1   7
BRANCH   2  35
HETATM   35  N   UNL     1      16.154   3.037  23.784  1.00  0.00    -0.350 N 
HETATM   36  C   UNL     1      16.092   3.793  22.699  1.00  0.00     0.214 C 
HETATM   37  O   UNL     1      16.382   4.974  22.726  1.00  0.00    -0.274 OA
HETATM   38  C   UNL     1      15.667   3.092  21.443  1.00  0.00     0.117 C 
ATOM     39  HN  UNL     1      16.037   2.029  23.673  1.00  0.00     0.163 HD
ENDBRANCH   2  35
BRANCH   5  40
HETATM   40  C   UNL     1      16.807   3.044  29.400  1.00  0.00     0.206 C 
HETATM   41  O   UNL     1      16.224   3.925  29.885  1.00  0.00    -0.646 OA
HETATM   42  O   UNL     1      17.483   2.334  30.066  1.00  0.00    -0.646 OA
ENDBRANCH   5  40
BRANCH   3  43
HETATM   43  N   UNL     1      18.602   4.291  24.891  1.00  0.00    -0.389 N 
HETATM   44  C   UNL     1      19.873   4.331  24.887  1.00  0.00     0.098 C 
ATOM     45  HN  UNL     1      18.102   5.027  24.391  1.00  0.00     0.159 HD
BRANCH  44  46
HETATM   46  C   UNL     1      20.561   5.407  24.135  1.00  0.00     0.024 A 
HETATM   47  C   UNL     1      20.107   5.749  22.842  1.00  0.00     0.100 A 
HETATM   48  C   UNL     1      20.710   6.822  22.157  1.00  0.00     0.039 A 
HETATM   49  N   UNL     1      21.738   7.472  22.698  1.00  0.00    -0.367 N 
HETATM   50  C   UNL     1      20.263   7.248  20.786  1.00  0.00     0.071 C 
HETATM   51  C   UNL     1      22.194   7.129  23.926  1.00  0.00     0.098 A 
ATOM     52  HN  UNL     1      22.184   8.231  22.184  1.00  0.00     0.165 HD
HETATM   53  C   UNL     1      21.645   6.126  24.674  1.00  0.00    -0.004 A 
BRANCH  47  54
HETATM   54  O   UNL     1      19.134   5.064  22.253  1.00  0.00    -0.358 OA
ATOM     55  HO  UNL     1      18.958   5.162  21.325  1.00  0.00     0.217 HD
ENDBRANCH  47  54
BRANCH  53  56
HETATM   56  C   UNL     1      22.174   5.872  26.059  1.00  0.00     0.223 C 
BRANCH  56  57
HETATM   57  O   UNL     1      22.932   4.626  26.078  1.00  0.00    -0.278 OA
BRANCH  57  58
HETATM   58  P   UNL     1      23.104   3.891  27.503  1.00  0.00     0.422 P 
HETATM   59  O   UNL     1      23.516   4.934  28.487  1.00  0.00    -0.617 OA
HETATM   60  O   UNL     1      24.187   2.826  27.358  1.00  0.00    -0.617 OA
HETATM   61  O   UNL     1      21.745   3.305  27.756  1.00  0.00    -0.617 OA
ENDBRANCH  57  58
ENDBRANCH  56  57
ENDBRANCH  53  56
ENDBRANCH  44  46
ENDBRANCH   3  43
BRANCH   4  62
HETATM   62  O   UNL     1      19.088   2.608  27.510  1.00  0.00    -0.390 OA
ATOM     63  HO  UNL     1      19.674   2.592  26.762  1.00  0.00     0.210 HD
ENDBRANCH   4  62
TORSDOF 19
ENDMDL
MODEL 6
REMARK VINA RESULT:    -9.165      3.495      5.807
REMARK INTER + INTRA:         -23.046
REMARK INTER:                 -18.427
REMARK INTRA:                  -4.620
REMARK UNBOUND:                -4.774
REMARK  19 active torsions:
REMARK  status: ('A' for Active; 'I' for Inactive)
REMARK    1  A    between atoms: P_1  and  O_63 
REMARK    2  A    between atoms: N_2  and  C_23 
REMARK    3  A    between atoms: C_5  and  O_8 
REMARK    4  A    between atoms: P_14  and  O_54 
REMARK    5  A    between atoms: P_14  and  O_37 
REMARK    6  A    between atoms: P_15  and  O_38 
REMARK    7  A    between atoms: P_15  and  O_37 
REMARK    8  A    between atoms: C_18  and  O_38 
REMARK    9  A    between atoms: C_24  and  N_25 
REMARK       I    between atoms: N_25  and  C_57 
REMARK   10  A    between atoms: C_31  and  O_32 
REMARK   11  A    between atoms: C_34  and  N_35 
REMARK   12  A    between atoms: C_39  and  O_40 
REMARK   13  A    between atoms: C_42  and  O_43 
REMARK   14  A    between atoms: C_45  and  C_46 
REMARK   15  A    between atoms: C_47  and  C_53 
REMARK   16  A    between atoms: C_49  and  C_55 
REMARK   17  A    between atoms: C_51  and  C_52 
REMARK   18  A    between atoms: C_52  and  O_63 
REMARK   19  A    between atoms: C_53  and  O_54 
ROOT
HETATM    1  C   UNL     1      15.574   2.895  26.182  1.00  0.00     0.298 C 
HETATM    2  C   UNL     1      16.563   3.485  25.190  1.00  0.00     0.165 C 
HETATM    3  C   UNL     1      18.030   3.222  25.526  1.00  0.00     0.140 C 
HETATM    4  C   UNL     1      18.291   3.279  27.037  1.00  0.00     0.182 C 
HETATM    5  C   UNL     1      17.178   2.656  27.897  1.00  0.00     0.256 C 
HETATM    6  O   UNL     1      15.907   3.181  27.519  1.00  0.00    -0.340 OA
ENDROOT
BRANCH   1   7
HETATM    7  O   UNL     1      15.537   1.525  25.970  1.00  0.00    -0.256 OA
BRANCH   7   8
HETATM    8  P   UNL     1      14.241   0.692  26.378  1.00  0.00     0.420 P 
HETATM    9  O   UNL     1      14.506  -0.479  27.289  1.00  0.00    -0.624 OA
HETATM   10  O   UNL     1      13.291   1.692  26.888  1.00  0.00    -0.624 OA
BRANCH   8  11
HETATM   11  O   UNL     1      13.773   0.307  24.910  1.00  0.00    -0.180 OA
BRANCH  11  12
HETATM   12  P   UNL     1      14.357  -0.748  23.872  1.00  0.00     0.417 P 
HETATM   13  O   UNL     1      13.246  -0.994  22.915  1.00  0.00    -0.624 OA
HETATM   14  O   UNL     1      15.654  -0.229  23.345  1.00  0.00    -0.624 OA
BRANCH  12  15
HETATM   15  O   UNL     1      14.592  -2.091  24.717  1.00  0.00    -0.287 OA
BRANCH  15  16
HETATM   16  C   UNL     1      14.039  -3.329  24.287  1.00  0.00     0.216 C 
BRANCH  16  17
HETATM   17  C   UNL     1      13.190  -3.905  25.391  1.00  0.00     0.180 C 
HETATM   18  C   UNL     1      11.876  -4.537  24.915  1.00  0.00     0.182 C 
HETATM   19  C   UNL     1      10.830  -3.467  25.227  1.00  0.00     0.198 C 
HETATM   20  C   UNL     1      11.417  -2.807  26.474  1.00  0.00     0.263 C 
HETATM   21  O   UNL     1      12.821  -2.865  26.337  1.00  0.00    -0.353 OA
BRANCH  18  22
HETATM   22  O   UNL     1      11.614  -5.753  25.590  1.00  0.00    -0.390 OA
ATOM     23  HO  UNL     1      10.764  -5.737  26.015  1.00  0.00     0.210 HD
ENDBRANCH  18  22
BRANCH  19  24
HETATM   24  O   UNL     1       9.553  -3.985  25.520  1.00  0.00    -0.388 OA
ATOM     25  HO  UNL     1       9.098  -4.190  24.713  1.00  0.00     0.210 HD
ENDBRANCH  19  24
BRANCH  20  26
HETATM   26  N   UNL     1      10.993  -1.405  26.531  1.00  0.00    -0.280 N 
HETATM   27  C   UNL     1      10.590  -0.766  25.385  1.00  0.00     0.104 A 
HETATM   28  C   UNL     1      10.142   0.489  25.380  1.00  0.00     0.092 A 
HETATM   29  C   UNL     1      10.058   1.195  26.620  1.00  0.00     0.250 A 
HETATM   30  O   UNL     1       9.665   2.343  26.760  1.00  0.00    -0.268 OA
HETATM   31  N   UNL     1      10.435   0.479  27.734  1.00  0.00    -0.275 N 
HETATM   32  C   UNL     1      10.904  -0.800  27.776  1.00  0.00     0.331 A 
ATOM     33  HN  UNL     1      10.354   0.961  28.630  1.00  0.00     0.173 HD
HETATM   34  O   UNL     1      11.245  -1.334  28.830  1.00  0.00    -0.246 OA
ENDBRANCH  20  26
ENDBRANCH  16  17
ENDBRANCH  15  16
ENDBRANCH  12  15
ENDBRANCH  11  12
ENDBRANCH   8  11
ENDBRANCH   7   8
ENDBRANCH   1   7
BRANCH   2  35
HETATM   35  N   UNL     1      16.259   3.005  23.860  1.00  0.00    -0.350 N 
HETATM   36  C   UNL     1      16.141   3.789  22.800  1.00  0.00     0.214 C 
HETATM   37  O   UNL     1      16.441   4.967  22.841  1.00  0.00    -0.274 OA
HETATM   38  C   UNL     1      15.638   3.123  21.554  1.00  0.00     0.117 C 
ATOM     39  HN  UNL     1      16.128   2.001  23.731  1.00  0.00     0.163 HD
ENDBRANCH   2  35
BRANCH   5  40
HETATM   40  C   UNL     1      17.314   2.855  29.413  1.00  0.00     0.206 C 
HETATM   41  O   UNL     1      16.687   2.229  30.166  1.00  0.00    -0.646 OA
HETATM   42  O   UNL     1      18.048   3.701  29.802  1.00  0.00    -0.646 OA
ENDBRANCH   5  40
BRANCH   3  43
HETATM   43  N   UNL     1      18.746   4.296  24.832  1.00  0.00    -0.389 N 
HETATM   44  C   UNL     1      20.012   4.418  24.807  1.00  0.00     0.098 C 
ATOM     45  HN  UNL     1      18.192   4.994  24.336  1.00  0.00     0.159 HD
BRANCH  44  46
HETATM   46  C   UNL     1      20.617   5.529  24.037  1.00  0.00     0.024 A 
HETATM   47  C   UNL     1      20.121   5.832  22.750  1.00  0.00     0.100 A 
HETATM   48  C   UNL     1      20.642   6.937  22.048  1.00  0.00     0.039 A 
HETATM   49  N   UNL     1      21.635   7.654  22.567  1.00  0.00    -0.367 N 
HETATM   50  C   UNL     1      20.147   7.322  20.682  1.00  0.00     0.071 C 
HETATM   51  C   UNL     1      22.132   7.351  23.790  1.00  0.00     0.098 A 
ATOM     52  HN  UNL     1      22.023   8.436  22.040  1.00  0.00     0.165 HD
HETATM   53  C   UNL     1      21.661   6.320  24.553  1.00  0.00    -0.004 A 
BRANCH  47  54
HETATM   54  O   UNL     1      19.184   5.082  22.182  1.00  0.00    -0.358 OA
ATOM     55  HO  UNL     1      18.269   5.337  22.208  1.00  0.00     0.217 HD
ENDBRANCH  47  54
BRANCH  53  56
HETATM   56  C   UNL     1      22.228   6.112  25.930  1.00  0.00     0.223 C 
BRANCH  56  57
HETATM   57  O   UNL     1      22.756   4.756  26.047  1.00  0.00    -0.278 OA
BRANCH  57  58
HETATM   58  P   UNL     1      22.863   4.134  27.531  1.00  0.00     0.422 P 
HETATM   59  O   UNL     1      23.284   2.712  27.381  1.00  0.00    -0.617 OA
HETATM   60  O   UNL     1      21.485   4.225  28.182  1.00  0.00    -0.617 OA
HETATM   61  O   UNL     1      23.879   5.012  28.202  1.00  0.00    -0.617 OA
ENDBRANCH  57  58
ENDBRANCH  56  57
ENDBRANCH  53  56
ENDBRANCH  44  46
ENDBRANCH   3  43
BRANCH   4  62
HETATM   62  O   UNL     1      19.465   2.547  27.353  1.00  0.00    -0.390 OA
ATOM     63  HO  UNL     1      20.095   2.783  26.683  1.00  0.00     0.210 HD
ENDBRANCH   4  62
TORSDOF 19
ENDMDL
MODEL 7
REMARK VINA RESULT:    -9.157      4.468      6.869
REMARK INTER + INTRA:         -23.030
REMARK INTER:                 -19.297
REMARK INTRA:                  -3.733
REMARK UNBOUND:                -4.774
REMARK  19 active torsions:
REMARK  status: ('A' for Active; 'I' for Inactive)
REMARK    1  A    between atoms: P_1  and  O_63 
REMARK    2  A    between atoms: N_2  and  C_23 
REMARK    3  A    between atoms: C_5  and  O_8 
REMARK    4  A    between atoms: P_14  and  O_54 
REMARK    5  A    between atoms: P_14  and  O_37 
REMARK    6  A    between atoms: P_15  and  O_38 
REMARK    7  A    between atoms: P_15  and  O_37 
REMARK    8  A    between atoms: C_18  and  O_38 
REMARK    9  A    between atoms: C_24  and  N_25 
REMARK       I    between atoms: N_25  and  C_57 
REMARK   10  A    between atoms: C_31  and  O_32 
REMARK   11  A    between atoms: C_34  and  N_35 
REMARK   12  A    between atoms: C_39  and  O_40 
REMARK   13  A    between atoms: C_42  and  O_43 
REMARK   14  A    between atoms: C_45  and  C_46 
REMARK   15  A    between atoms: C_47  and  C_53 
REMARK   16  A    between atoms: C_49  and  C_55 
REMARK   17  A    between atoms: C_51  and  C_52 
REMARK   18  A    between atoms: C_52  and  O_63 
REMARK   19  A    between atoms: C_53  and  O_54 
ROOT
HETATM    1  C   UNL     1      15.342   2.948  26.091  1.00  0.00     0.298 C 
HETATM    2  C   UNL     1      16.409   3.499  25.160  1.00  0.00     0.165 C 
HETATM    3  C   UNL     1      17.843   3.224  25.608  1.00  0.00     0.140 C 
HETATM    4  C   UNL     1      17.996   3.316  27.131  1.00  0.00     0.182 C 
HETATM    5  C   UNL     1      16.815   2.730  27.924  1.00  0.00     0.256 C 
HETATM    6  O   UNL     1      15.583   3.263  27.442  1.00  0.00    -0.340 OA
ENDROOT
BRANCH   1   7
HETATM    7  O   UNL     1      15.299   1.574  25.911  1.00  0.00    -0.256 OA
BRANCH   7   8
HETATM    8  P   UNL     1      13.922   0.791  26.090  1.00  0.00     0.420 P 
HETATM    9  O   UNL     1      13.890  -0.170  27.250  1.00  0.00    -0.624 OA
HETATM   10  O   UNL     1      12.889   1.838  26.103  1.00  0.00    -0.624 OA
BRANCH   8  11
HETATM   11  O   UNL     1      13.884   0.111  24.655  1.00  0.00    -0.180 OA
BRANCH  11  12
HETATM   12  P   UNL     1      14.294  -1.351  24.182  1.00  0.00     0.417 P 
HETATM   13  O   UNL     1      15.186  -1.136  23.012  1.00  0.00    -0.624 OA
HETATM   14  O   UNL     1      14.825  -2.099  25.360  1.00  0.00    -0.624 OA
BRANCH  12  15
HETATM   15  O   UNL     1      12.937  -2.024  23.655  1.00  0.00    -0.287 OA
BRANCH  15  16
HETATM   16  C   UNL     1      11.933  -2.450  24.569  1.00  0.00     0.216 C 
BRANCH  16  17
HETATM   17  C   UNL     1      10.741  -1.534  24.460  1.00  0.00     0.180 C 
HETATM   18  C   UNL     1      10.455  -0.714  25.725  1.00  0.00     0.182 C 
HETATM   19  C   UNL     1       9.300  -1.466  26.386  1.00  0.00     0.198 C 
HETATM   20  C   UNL     1       8.558  -2.031  25.176  1.00  0.00     0.263 C 
HETATM   21  O   UNL     1       9.537  -2.304  24.195  1.00  0.00    -0.353 OA
BRANCH  18  22
HETATM   22  O   UNL     1      10.111   0.622  25.408  1.00  0.00    -0.390 OA
ATOM     23  HO  UNL     1      10.868   1.113  25.113  1.00  0.00     0.210 HD
ENDBRANCH  18  22
BRANCH  19  24
HETATM   24  O   UNL     1       8.435  -0.642  27.132  1.00  0.00    -0.388 OA
ATOM     25  HO  UNL     1       8.892  -0.300  27.890  1.00  0.00     0.210 HD
ENDBRANCH  19  24
BRANCH  20  26
HETATM   26  N   UNL     1       7.888  -3.279  25.551  1.00  0.00    -0.280 N 
HETATM   27  C   UNL     1       8.588  -4.460  25.543  1.00  0.00     0.104 A 
HETATM   28  C   UNL     1       8.051  -5.618  25.927  1.00  0.00     0.092 A 
HETATM   29  C   UNL     1       6.697  -5.632  26.384  1.00  0.00     0.250 A 
HETATM   30  O   UNL     1       6.084  -6.616  26.765  1.00  0.00    -0.268 OA
HETATM   31  N   UNL     1       6.070  -4.405  26.409  1.00  0.00    -0.275 N 
HETATM   32  C   UNL     1       6.583  -3.205  26.019  1.00  0.00     0.331 A 
ATOM     33  HN  UNL     1       5.111  -4.395  26.759  1.00  0.00     0.173 HD
HETATM   34  O   UNL     1       5.919  -2.171  26.053  1.00  0.00    -0.246 OA
ENDBRANCH  20  26
ENDBRANCH  16  17
ENDBRANCH  15  16
ENDBRANCH  12  15
ENDBRANCH  11  12
ENDBRANCH   8  11
ENDBRANCH   7   8
ENDBRANCH   1   7
BRANCH   2  35
HETATM   35  N   UNL     1      16.195   2.989  23.824  1.00  0.00    -0.350 N 
HETATM   36  C   UNL     1      16.102   3.754  22.747  1.00  0.00     0.214 C 
HETATM   37  O   UNL     1      16.354   4.943  22.784  1.00  0.00    -0.274 OA
HETATM   38  C   UNL     1      15.691   3.052  21.487  1.00  0.00     0.117 C 
ATOM     39  HN  UNL     1      16.109   1.980  23.704  1.00  0.00     0.163 HD
ENDBRANCH   2  35
BRANCH   5  40
HETATM   40  C   UNL     1      16.844   2.966  29.441  1.00  0.00     0.206 C 
HETATM   41  O   UNL     1      16.429   3.946  29.910  1.00  0.00    -0.646 OA
HETATM   42  O   UNL     1      17.343   2.138  30.125  1.00  0.00    -0.646 OA
ENDBRANCH   5  40
BRANCH   3  43
HETATM   43  N   UNL     1      18.624   4.270  24.941  1.00  0.00    -0.389 N 
HETATM   44  C   UNL     1      19.895   4.304  24.903  1.00  0.00     0.098 C 
ATOM     45  HN  UNL     1      18.115   5.021  24.477  1.00  0.00     0.159 HD
BRANCH  44  46
HETATM   46  C   UNL     1      20.567   5.398  24.163  1.00  0.00     0.024 A 
HETATM   47  C   UNL     1      20.079   5.781  22.894  1.00  0.00     0.100 A 
HETATM   48  C   UNL     1      20.667   6.870  22.224  1.00  0.00     0.039 A 
HETATM   49  N   UNL     1      21.713   7.499  22.753  1.00  0.00    -0.367 N 
HETATM   50  C   UNL     1      20.184   7.338  20.879  1.00  0.00     0.071 C 
HETATM   51  C   UNL     1      22.203   7.119  23.958  1.00  0.00     0.098 A 
ATOM     52  HN  UNL     1      22.149   8.270  22.249  1.00  0.00     0.165 HD
HETATM   53  C   UNL     1      21.670   6.096  24.691  1.00  0.00    -0.004 A 
BRANCH  47  54
HETATM   54  O   UNL     1      19.085   5.118  22.314  1.00  0.00    -0.358 OA
ATOM     55  HO  UNL     1      18.392   5.577  21.854  1.00  0.00     0.217 HD
ENDBRANCH  47  54
BRANCH  53  56
HETATM   56  C   UNL     1      22.237   5.800  26.052  1.00  0.00     0.223 C 
BRANCH  56  57
HETATM   57  O   UNL     1      22.730   4.427  26.094  1.00  0.00    -0.278 OA
BRANCH  57  58
HETATM   58  P   UNL     1      23.124   3.831  27.540  1.00  0.00     0.422 P 
HETATM   59  O   UNL     1      21.896   3.199  28.103  1.00  0.00    -0.617 OA
HETATM   60  O   UNL     1      23.586   4.990  28.419  1.00  0.00    -0.617 OA
HETATM   61  O   UNL     1      24.229   2.865  27.226  1.00  0.00    -0.617 OA
ENDBRANCH  57  58
ENDBRANCH  56  57
ENDBRANCH  53  56
ENDBRANCH  44  46
ENDBRANCH   3  43
BRANCH   4  62
HETATM   62  O   UNL     1      19.132   2.576  27.549  1.00  0.00    -0.390 OA
ATOM     63  HO  UNL     1      18.785   1.792  27.959  1.00  0.00     0.210 HD
ENDBRANCH   4  62
TORSDOF 19
ENDMDL
MODEL 8
REMARK VINA RESULT:    -9.147      1.429      2.658
REMARK INTER + INTRA:         -23.011
REMARK INTER:                 -18.021
REMARK INTRA:                  -4.990
REMARK UNBOUND:                -4.774
REMARK  19 active torsions:
REMARK  status: ('A' for Active; 'I' for Inactive)
REMARK    1  A    between atoms: P_1  and  O_63 
REMARK    2  A    between atoms: N_2  and  C_23 
REMARK    3  A    between atoms: C_5  and  O_8 
REMARK    4  A    between atoms: P_14  and  O_54 
REMARK    5  A    between atoms: P_14  and  O_37 
REMARK    6  A    between atoms: P_15  and  O_38 
REMARK    7  A    between atoms: P_15  and  O_37 
REMARK    8  A    between atoms: C_18  and  O_38 
REMARK    9  A    between atoms: C_24  and  N_25 
REMARK       I    between atoms: N_25  and  C_57 
REMARK   10  A    between atoms: C_31  and  O_32 
REMARK   11  A    between atoms: C_34  and  N_35 
REMARK   12  A    between atoms: C_39  and  O_40 
REMARK   13  A    between atoms: C_42  and  O_43 
REMARK   14  A    between atoms: C_45  and  C_46 
REMARK   15  A    between atoms: C_47  and  C_53 
REMARK   16  A    between atoms: C_49  and  C_55 
REMARK   17  A    between atoms: C_51  and  C_52 
REMARK   18  A    between atoms: C_52  and  O_63 
REMARK   19  A    between atoms: C_53  and  O_54 
ROOT
HETATM    1  C   UNL     1      15.423   2.816  26.031  1.00  0.00     0.298 C 
HETATM    2  C   UNL     1      16.478   3.415  25.115  1.00  0.00     0.165 C 
HETATM    3  C   UNL     1      17.918   3.163  25.558  1.00  0.00     0.140 C 
HETATM    4  C   UNL     1      18.067   3.222  27.084  1.00  0.00     0.182 C 
HETATM    5  C   UNL     1      16.899   2.589  27.860  1.00  0.00     0.256 C 
HETATM    6  O   UNL     1      15.655   3.104  27.389  1.00  0.00    -0.340 OA
ENDROOT
BRANCH   1   7
HETATM    7  O   UNL     1      15.414   1.446  25.817  1.00  0.00    -0.256 OA
BRANCH   7   8
HETATM    8  P   UNL     1      14.070   0.616  26.036  1.00  0.00     0.420 P 
HETATM    9  O   UNL     1      13.513  -0.021  24.789  1.00  0.00    -0.624 OA
HETATM   10  O   UNL     1      14.368  -0.306  27.142  1.00  0.00    -0.624 OA
BRANCH   8  11
HETATM   11  O   UNL     1      13.193   1.798  26.634  1.00  0.00    -0.180 OA
BRANCH  11  12
HETATM   12  P   UNL     1      12.075   1.799  27.765  1.00  0.00     0.417 P 
HETATM   13  O   UNL     1      11.163   0.683  27.399  1.00  0.00    -0.624 OA
HETATM   14  O   UNL     1      12.748   1.767  29.097  1.00  0.00    -0.624 OA
BRANCH  12  15
HETATM   15  O   UNL     1      11.276   3.177  27.573  1.00  0.00    -0.287 OA
BRANCH  15  16
HETATM   16  C   UNL     1      11.015   3.693  26.273  1.00  0.00     0.216 C 
BRANCH  16  17
HETATM   17  C   UNL     1      10.708   5.165  26.374  1.00  0.00     0.180 C 
HETATM   18  C   UNL     1      11.460   6.040  25.363  1.00  0.00     0.182 C 
HETATM   19  C   UNL     1      12.599   6.640  26.186  1.00  0.00     0.198 C 
HETATM   20  C   UNL     1      11.963   6.751  27.571  1.00  0.00     0.263 C 
HETATM   21  O   UNL     1      11.068   5.665  27.691  1.00  0.00    -0.353 OA
BRANCH  18  22
HETATM   22  O   UNL     1      10.616   7.034  24.813  1.00  0.00    -0.390 OA
ATOM     23  HO  UNL     1      10.066   6.680  24.125  1.00  0.00     0.210 HD
ENDBRANCH  18  22
BRANCH  19  24
HETATM   24  O   UNL     1      13.009   7.914  25.749  1.00  0.00    -0.388 OA
ATOM     25  HO  UNL     1      12.261   8.395  25.416  1.00  0.00     0.210 HD
ENDBRANCH  19  24
BRANCH  20  26
HETATM   26  N   UNL     1      13.003   6.636  28.597  1.00  0.00    -0.280 N 
HETATM   27  C   UNL     1      13.363   5.398  29.070  1.00  0.00     0.104 A 
HETATM   28  C   UNL     1      14.338   5.224  29.962  1.00  0.00     0.092 A 
HETATM   29  C   UNL     1      15.054   6.367  30.433  1.00  0.00     0.250 A 
HETATM   30  O   UNL     1      15.966   6.352  31.243  1.00  0.00    -0.268 OA
HETATM   31  N   UNL     1      14.671   7.571  29.883  1.00  0.00    -0.275 N 
HETATM   32  C   UNL     1      13.676   7.788  28.977  1.00  0.00     0.331 A 
ATOM     33  HN  UNL     1      15.191   8.394  30.189  1.00  0.00     0.173 HD
HETATM   34  O   UNL     1      13.396   8.916  28.576  1.00  0.00    -0.246 OA
ENDBRANCH  20  26
ENDBRANCH  16  17
ENDBRANCH  15  16
ENDBRANCH  12  15
ENDBRANCH  11  12
ENDBRANCH   8  11
ENDBRANCH   7   8
ENDBRANCH   1   7
BRANCH   2  35
HETATM   35  N   UNL     1      16.277   2.933  23.766  1.00  0.00    -0.350 N 
HETATM   36  C   UNL     1      16.143   3.722  22.711  1.00  0.00     0.214 C 
HETATM   37  O   UNL     1      16.342   4.919  22.780  1.00  0.00    -0.274 OA
HETATM   38  C   UNL     1      15.755   3.036  21.435  1.00  0.00     0.117 C 
ATOM     39  HN  UNL     1      16.236   1.924  23.619  1.00  0.00     0.163 HD
ENDBRANCH   2  35
BRANCH   5  40
HETATM   40  C   UNL     1      16.920   2.789  29.382  1.00  0.00     0.206 C 
HETATM   41  O   UNL     1      17.556   3.629  29.874  1.00  0.00    -0.646 OA
HETATM   42  O   UNL     1      16.303   2.033  30.053  1.00  0.00    -0.646 OA
ENDBRANCH   5  40
BRANCH   3  43
HETATM   43  N   UNL     1      18.674   4.244  24.918  1.00  0.00    -0.389 N 
HETATM   44  C   UNL     1      19.942   4.276  24.824  1.00  0.00     0.098 C 
ATOM     45  HN  UNL     1      18.148   5.023  24.522  1.00  0.00     0.159 HD
BRANCH  44  46
HETATM   46  C   UNL     1      20.587   5.409  24.120  1.00  0.00     0.024 A 
HETATM   47  C   UNL     1      20.122   5.785  22.840  1.00  0.00     0.100 A 
HETATM   48  C   UNL     1      20.681   6.908  22.201  1.00  0.00     0.039 A 
HETATM   49  N   UNL     1      21.680   7.577  22.771  1.00  0.00    -0.367 N 
HETATM   50  C   UNL     1      20.220   7.371  20.846  1.00  0.00     0.071 C 
HETATM   51  C   UNL     1      22.147   7.204  23.987  1.00  0.00     0.098 A 
ATOM     52  HN  UNL     1      22.096   8.374  22.290  1.00  0.00     0.165 HD
HETATM   53  C   UNL     1      21.639   6.150  24.691  1.00  0.00    -0.004 A 
BRANCH  47  54
HETATM   54  O   UNL     1      19.179   5.085  22.220  1.00  0.00    -0.358 OA
ATOM     55  HO  UNL     1      19.361   4.632  21.404  1.00  0.00     0.217 HD
ENDBRANCH  47  54
BRANCH  53  56
HETATM   56  C   UNL     1      22.174   5.862  26.067  1.00  0.00     0.223 C 
BRANCH  56  57
HETATM   57  O   UNL     1      22.917   4.606  26.056  1.00  0.00    -0.278 OA
BRANCH  57  58
HETATM   58  P   UNL     1      23.185   3.897  27.479  1.00  0.00     0.422 P 
HETATM   59  O   UNL     1      24.215   2.842  27.256  1.00  0.00    -0.617 OA
HETATM   60  O   UNL     1      21.872   3.280  27.954  1.00  0.00    -0.617 OA
HETATM   61  O   UNL     1      23.640   5.032  28.350  1.00  0.00    -0.617 OA
ENDBRANCH  57  58
ENDBRANCH  56  57
ENDBRANCH  53  56
ENDBRANCH  44  46
ENDBRANCH   3  43
BRANCH   4  62
HETATM   62  O   UNL     1      19.220   2.500  27.486  1.00  0.00    -0.390 OA
ATOM     63  HO  UNL     1      19.936   3.121  27.433  1.00  0.00     0.210 HD
ENDBRANCH   4  62
TORSDOF 19
ENDMDL
MODEL 9
REMARK VINA RESULT:    -9.114      1.418      2.304
REMARK INTER + INTRA:         -22.946
REMARK INTER:                 -18.717
REMARK INTRA:                  -4.229
REMARK UNBOUND:                -4.774
REMARK  19 active torsions:
REMARK  status: ('A' for Active; 'I' for Inactive)
REMARK    1  A    between atoms: P_1  and  O_63 
REMARK    2  A    between atoms: N_2  and  C_23 
REMARK    3  A    between atoms: C_5  and  O_8 
REMARK    4  A    between atoms: P_14  and  O_54 
REMARK    5  A    between atoms: P_14  and  O_37 
REMARK    6  A    between atoms: P_15  and  O_38 
REMARK    7  A    between atoms: P_15  and  O_37 
REMARK    8  A    between atoms: C_18  and  O_38 
REMARK    9  A    between atoms: C_24  and  N_25 
REMARK       I    between atoms: N_25  and  C_57 
REMARK   10  A    between atoms: C_31  and  O_32 
REMARK   11  A    between atoms: C_34  and  N_35 
REMARK   12  A    between atoms: C_39  and  O_40 
REMARK   13  A    between atoms: C_42  and  O_43 
REMARK   14  A    between atoms: C_45  and  C_46 
REMARK   15  A    between atoms: C_47  and  C_53 
REMARK   16  A    between atoms: C_49  and  C_55 
REMARK   17  A    between atoms: C_51  and  C_52 
REMARK   18  A    between atoms: C_52  and  O_63 
REMARK   19  A    between atoms: C_53  and  O_54 
ROOT
HETATM    1  C   UNL     1      15.377   2.927  26.068  1.00  0.00     0.298 C 
HETATM    2  C   UNL     1      16.425   3.497  25.127  1.00  0.00     0.165 C 
HETATM    3  C   UNL     1      17.868   3.234  25.555  1.00  0.00     0.140 C 
HETATM    4  C   UNL     1      18.040   3.315  27.077  1.00  0.00     0.182 C 
HETATM    5  C   UNL     1      16.875   2.710  27.880  1.00  0.00     0.256 C 
HETATM    6  O   UNL     1      15.631   3.233  27.418  1.00  0.00    -0.340 OA
ENDROOT
BRANCH   1   7
HETATM    7  O   UNL     1      15.346   1.554  25.877  1.00  0.00    -0.256 OA
BRANCH   7   8
HETATM    8  P   UNL     1      13.985   0.752  26.088  1.00  0.00     0.420 P 
HETATM    9  O   UNL     1      13.662  -0.237  24.998  1.00  0.00    -0.624 OA
HETATM   10  O   UNL     1      14.079   0.193  27.445  1.00  0.00    -0.624 OA
BRANCH   8  11
HETATM   11  O   UNL     1      13.016   2.007  26.163  1.00  0.00    -0.180 OA
BRANCH  11  12
HETATM   12  P   UNL     1      11.514   2.138  26.674  1.00  0.00     0.417 P 
HETATM   13  O   UNL     1      10.747   1.167  25.851  1.00  0.00    -0.624 OA
HETATM   14  O   UNL     1      11.504   1.984  28.159  1.00  0.00    -0.624 OA
BRANCH  12  15
HETATM   15  O   UNL     1      11.051   3.616  26.261  1.00  0.00    -0.287 OA
BRANCH  15  16
HETATM   16  C   UNL     1       9.671   3.957  26.199  1.00  0.00     0.216 C 
BRANCH  16  17
HETATM   17  C   UNL     1       9.305   4.770  27.415  1.00  0.00     0.180 C 
HETATM   18  C   UNL     1       8.154   5.760  27.191  1.00  0.00     0.182 C 
HETATM   19  C   UNL     1       8.864   7.102  27.014  1.00  0.00     0.198 C 
HETATM   20  C   UNL     1      10.090   6.930  27.909  1.00  0.00     0.263 C 
HETATM   21  O   UNL     1      10.443   5.563  27.851  1.00  0.00    -0.353 OA
BRANCH  18  22
HETATM   22  O   UNL     1       7.260   5.769  28.289  1.00  0.00    -0.390 OA
ATOM     23  HO  UNL     1       6.735   4.978  28.314  1.00  0.00     0.210 HD
ENDBRANCH  18  22
BRANCH  19  24
HETATM   24  O   UNL     1       8.109   8.208  27.450  1.00  0.00    -0.388 OA
ATOM     25  HO  UNL     1       7.287   7.910  27.820  1.00  0.00     0.210 HD
ENDBRANCH  19  24
BRANCH  20  26
HETATM   26  N   UNL     1      11.195   7.737  27.385  1.00  0.00    -0.280 N 
HETATM   27  C   UNL     1      11.986   7.241  26.378  1.00  0.00     0.104 A 
HETATM   28  C   UNL     1      12.971   7.947  25.822  1.00  0.00     0.092 A 
HETATM   29  C   UNL     1      13.203   9.282  26.276  1.00  0.00     0.250 A 
HETATM   30  O   UNL     1      14.064  10.038  25.855  1.00  0.00    -0.268 OA
HETATM   31  N   UNL     1      12.344   9.730  27.255  1.00  0.00    -0.275 N 
HETATM   32  C   UNL     1      11.334   9.036  27.851  1.00  0.00     0.331 A 
ATOM     33  HN  UNL     1      12.480  10.691  27.571  1.00  0.00     0.173 HD
HETATM   34  O   UNL     1      10.646   9.527  28.744  1.00  0.00    -0.246 OA
ENDBRANCH  20  26
ENDBRANCH  16  17
ENDBRANCH  15  16
ENDBRANCH  12  15
ENDBRANCH  11  12
ENDBRANCH   8  11
ENDBRANCH   7   8
ENDBRANCH   1   7
BRANCH   2  35
HETATM   35  N   UNL     1      16.199   2.996  23.790  1.00  0.00    -0.350 N 
HETATM   36  C   UNL     1      16.107   3.767  22.718  1.00  0.00     0.214 C 
HETATM   37  O   UNL     1      16.369   4.954  22.760  1.00  0.00    -0.274 OA
HETATM   38  C   UNL     1      15.683   3.075  21.457  1.00  0.00     0.117 C 
ATOM     39  HN  UNL     1      16.104   1.988  23.666  1.00  0.00     0.163 HD
ENDBRANCH   2  35
BRANCH   5  40
HETATM   40  C   UNL     1      16.921   2.934  29.398  1.00  0.00     0.206 C 
HETATM   41  O   UNL     1      17.640   3.714  29.874  1.00  0.00    -0.646 OA
HETATM   42  O   UNL     1      16.232   2.258  30.083  1.00  0.00    -0.646 OA
ENDBRANCH   5  40
BRANCH   3  43
HETATM   43  N   UNL     1      18.629   4.294  24.887  1.00  0.00    -0.389 N 
HETATM   44  C   UNL     1      19.899   4.349  24.842  1.00  0.00     0.098 C 
ATOM     45  HN  UNL     1      18.105   5.039  24.427  1.00  0.00     0.159 HD
BRANCH  44  46
HETATM   46  C   UNL     1      20.550   5.455  24.102  1.00  0.00     0.024 A 
HETATM   47  C   UNL     1      20.079   5.801  22.816  1.00  0.00     0.100 A 
HETATM   48  C   UNL     1      20.645   6.901  22.143  1.00  0.00     0.039 A 
HETATM   49  N   UNL     1      21.656   7.574  22.687  1.00  0.00    -0.367 N 
HETATM   50  C   UNL     1      20.178   7.332  20.780  1.00  0.00     0.071 C 
HETATM   51  C   UNL     1      22.129   7.229  23.909  1.00  0.00     0.098 A 
ATOM     52  HN  UNL     1      22.076   8.353  22.182  1.00  0.00     0.165 HD
HETATM   53  C   UNL     1      21.615   6.199  24.645  1.00  0.00    -0.004 A 
BRANCH  47  54
HETATM   54  O   UNL     1      19.124   5.095  22.223  1.00  0.00    -0.358 OA
ATOM     55  HO  UNL     1      19.336   4.397  21.615  1.00  0.00     0.217 HD
ENDBRANCH  47  54
BRANCH  53  56
HETATM   56  C   UNL     1      22.158   5.943  26.024  1.00  0.00     0.223 C 
BRANCH  56  57
HETATM   57  O   UNL     1      22.932   4.705  26.028  1.00  0.00    -0.278 OA
BRANCH  57  58
HETATM   58  P   UNL     1      23.151   3.980  27.452  1.00  0.00     0.422 P 
HETATM   59  O   UNL     1      23.655   5.016  28.398  1.00  0.00    -0.617 OA
HETATM   60  O   UNL     1      24.184   2.872  27.263  1.00  0.00    -0.617 OA
HETATM   61  O   UNL     1      21.787   3.450  27.783  1.00  0.00    -0.617 OA
ENDBRANCH  57  58
ENDBRANCH  56  57
ENDBRANCH  53  56
ENDBRANCH  44  46
ENDBRANCH   3  43
BRANCH   4  62
HETATM   62  O   UNL     1      19.189   2.584  27.474  1.00  0.00    -0.390 OA
ATOM     63  HO  UNL     1      18.868   1.724  27.717  1.00  0.00     0.210 HD
ENDBRANCH   4  62
TORSDOF 19
ENDMDL
MODEL 10
REMARK VINA RESULT:    -8.946      4.435      7.127
REMARK INTER + INTRA:         -22.611
REMARK INTER:                 -18.778
REMARK INTRA:                  -3.833
REMARK UNBOUND:                -4.774
REMARK  19 active torsions:
REMARK  status: ('A' for Active; 'I' for Inactive)
REMARK    1  A    between atoms: P_1  and  O_63 
REMARK    2  A    between atoms: N_2  and  C_23 
REMARK    3  A    between atoms: C_5  and  O_8 
REMARK    4  A    between atoms: P_14  and  O_54 
REMARK    5  A    between atoms: P_14  and  O_37 
REMARK    6  A    between atoms: P_15  and  O_38 
REMARK    7  A    between atoms: P_15  and  O_37 
REMARK    8  A    between atoms: C_18  and  O_38 
REMARK    9  A    between atoms: C_24  and  N_25 
REMARK       I    between atoms: N_25  and  C_57 
REMARK   10  A    between atoms: C_31  and  O_32 
REMARK   11  A    between atoms: C_34  and  N_35 
REMARK   12  A    between atoms: C_39  and  O_40 
REMARK   13  A    between atoms: C_42  and  O_43 
REMARK   14  A    between atoms: C_45  and  C_46 
REMARK   15  A    between atoms: C_47  and  C_53 
REMARK   16  A    between atoms: C_49  and  C_55 
REMARK   17  A    between atoms: C_51  and  C_52 
REMARK   18  A    between atoms: C_52  and  O_63 
REMARK   19  A    between atoms: C_53  and  O_54 
ROOT
HETATM    1  C   UNL     1      15.410   2.979  26.158  1.00  0.00     0.298 C 
HETATM    2  C   UNL     1      16.474   3.526  25.222  1.00  0.00     0.165 C 
HETATM    3  C   UNL     1      17.910   3.258  25.671  1.00  0.00     0.140 C 
HETATM    4  C   UNL     1      18.063   3.362  27.193  1.00  0.00     0.182 C 
HETATM    5  C   UNL     1      16.884   2.778  27.991  1.00  0.00     0.256 C 
HETATM    6  O   UNL     1      15.650   3.304  27.506  1.00  0.00    -0.340 OA
ENDROOT
BRANCH   1   7
HETATM    7  O   UNL     1      15.371   1.603  25.988  1.00  0.00    -0.256 OA
BRANCH   7   8
HETATM    8  P   UNL     1      14.123   0.770  26.526  1.00  0.00     0.420 P 
HETATM    9  O   UNL     1      14.130   0.514  28.012  1.00  0.00    -0.624 OA
HETATM   10  O   UNL     1      12.942   1.478  26.010  1.00  0.00    -0.624 OA
BRANCH   8  11
HETATM   11  O   UNL     1      14.330  -0.519  25.622  1.00  0.00    -0.180 OA
BRANCH  11  12
HETATM   12  P   UNL     1      14.083  -0.754  24.068  1.00  0.00     0.417 P 
HETATM   13  O   UNL     1      12.611  -0.639  23.896  1.00  0.00    -0.624 OA
HETATM   14  O   UNL     1      14.969   0.171  23.302  1.00  0.00    -0.624 OA
BRANCH  12  15
HETATM   15  O   UNL     1      14.497  -2.280  23.798  1.00  0.00    -0.287 OA
BRANCH  15  16
HETATM   16  C   UNL     1      13.530  -3.321  23.865  1.00  0.00     0.216 C 
BRANCH  16  17
HETATM   17  C   UNL     1      13.389  -3.777  25.295  1.00  0.00     0.180 C 
HETATM   18  C   UNL     1      13.316  -5.300  25.470  1.00  0.00     0.182 C 
HETATM   19  C   UNL     1      11.824  -5.567  25.668  1.00  0.00     0.198 C 
HETATM   20  C   UNL     1      11.368  -4.293  26.378  1.00  0.00     0.263 C 
HETATM   21  O   UNL     1      12.168  -3.243  25.875  1.00  0.00    -0.353 OA
BRANCH  18  22
HETATM   22  O   UNL     1      14.088  -5.730  26.575  1.00  0.00    -0.390 OA
ATOM     23  HO  UNL     1      14.858  -5.186  26.692  1.00  0.00     0.210 HD
ENDBRANCH  18  22
BRANCH  19  24
HETATM   24  O   UNL     1      11.548  -6.687  26.476  1.00  0.00    -0.388 OA
ATOM     25  HO  UNL     1      12.129  -7.400  26.245  1.00  0.00     0.210 HD
ENDBRANCH  19  24
BRANCH  20  26
HETATM   26  N   UNL     1       9.963  -4.029  26.054  1.00  0.00    -0.280 N 
HETATM   27  C   UNL     1       9.645  -3.318  24.924  1.00  0.00     0.104 A 
HETATM   28  C   UNL     1       8.386  -3.093  24.546  1.00  0.00     0.092 A 
HETATM   29  C   UNL     1       7.323  -3.628  25.336  1.00  0.00     0.250 A 
HETATM   30  O   UNL     1       6.131  -3.501  25.106  1.00  0.00    -0.268 OA
HETATM   31  N   UNL     1       7.715  -4.369  26.430  1.00  0.00    -0.275 N 
HETATM   32  C   UNL     1       8.988  -4.613  26.850  1.00  0.00     0.331 A 
ATOM     33  HN  UNL     1       6.967  -4.781  26.989  1.00  0.00     0.173 HD
HETATM   34  O   UNL     1       9.224  -5.265  27.866  1.00  0.00    -0.246 OA
ENDBRANCH  20  26
ENDBRANCH  16  17
ENDBRANCH  15  16
ENDBRANCH  12  15
ENDBRANCH  11  12
ENDBRANCH   8  11
ENDBRANCH   7   8
ENDBRANCH   1   7
BRANCH   2  35
HETATM   35  N   UNL     1      16.261   3.006  23.890  1.00  0.00    -0.350 N 
HETATM   36  C   UNL     1      16.191   3.761  22.804  1.00  0.00     0.214 C 
HETATM   37  O   UNL     1      16.465   4.945  22.831  1.00  0.00    -0.274 OA
HETATM   38  C   UNL     1      15.776   3.052  21.548  1.00  0.00     0.117 C 
ATOM     39  HN  UNL     1      16.157   1.997  23.780  1.00  0.00     0.163 HD
ENDBRANCH   2  35
BRANCH   5  40
HETATM   40  C   UNL     1      16.913   3.026  29.506  1.00  0.00     0.206 C 
HETATM   41  O   UNL     1      17.497   2.322  30.225  1.00  0.00    -0.646 OA
HETATM   42  O   UNL     1      16.286   3.935  29.935  1.00  0.00    -0.646 OA
ENDBRANCH   5  40
BRANCH   3  43
HETATM   43  N   UNL     1      18.687   4.302  24.996  1.00  0.00    -0.389 N 
HETATM   44  C   UNL     1      19.954   4.292  24.879  1.00  0.00     0.098 C 
ATOM     45  HN  UNL     1      18.179   5.089  24.594  1.00  0.00     0.159 HD
BRANCH  44  46
HETATM   46  C   UNL     1      20.620   5.391  24.140  1.00  0.00     0.024 A 
HETATM   47  C   UNL     1      20.148   5.751  22.859  1.00  0.00     0.100 A 
HETATM   48  C   UNL     1      20.729   6.844  22.187  1.00  0.00     0.039 A 
HETATM   49  N   UNL     1      21.755   7.496  22.729  1.00  0.00    -0.367 N 
HETATM   50  C   UNL     1      20.263   7.289  20.829  1.00  0.00     0.071 C 
HETATM   51  C   UNL     1      22.229   7.138  23.946  1.00  0.00     0.098 A 
ATOM     52  HN  UNL     1      22.186   8.270  22.224  1.00  0.00     0.165 HD
HETATM   53  C   UNL     1      21.701   6.113  24.681  1.00  0.00    -0.004 A 
BRANCH  47  54
HETATM   54  O   UNL     1      19.177   5.065  22.267  1.00  0.00    -0.358 OA
ATOM     55  HO  UNL     1      19.171   4.115  22.278  1.00  0.00     0.217 HD
ENDBRANCH  47  54
BRANCH  53  56
HETATM   56  C   UNL     1      22.247   5.841  26.055  1.00  0.00     0.223 C 
BRANCH  56  57
HETATM   57  O   UNL     1      22.920   4.547  26.072  1.00  0.00    -0.278 OA
BRANCH  57  58
HETATM   58  P   UNL     1      23.158   3.860  27.512  1.00  0.00     0.422 P 
HETATM   59  O   UNL     1      21.856   3.270  27.936  1.00  0.00    -0.617 OA
HETATM   60  O   UNL     1      23.603   4.948  28.486  1.00  0.00    -0.617 OA
HETATM   61  O   UNL     1      24.235   2.851  27.239  1.00  0.00    -0.617 OA
ENDBRANCH  57  58
ENDBRANCH  56  57
ENDBRANCH  53  56
ENDBRANCH  44  46
ENDBRANCH   3  43
BRANCH   4  62
HETATM   62  O   UNL     1      19.202   2.628  27.616  1.00  0.00    -0.390 OA
ATOM     63  HO  UNL     1      19.790   2.626  26.870  1.00  0.00     0.210 HD
ENDBRANCH   4  62
TORSDOF 19
ENDMDL
MODEL 11
REMARK VINA RESULT:    -8.861      2.142      3.576
REMARK INTER + INTRA:         -22.442
REMARK INTER:                 -18.625
REMARK INTRA:                  -3.816
REMARK UNBOUND:                -4.774
REMARK  19 active torsions:
REMARK  status: ('A' for Active; 'I' for Inactive)
REMARK    1  A    between atoms: P_1  and  O_63 
REMARK    2  A    between atoms: N_2  and  C_23 
REMARK    3  A    between atoms: C_5  and  O_8 
REMARK    4  A    between atoms: P_14  and  O_54 
REMARK    5  A    between atoms: P_14  and  O_37 
REMARK    6  A    between atoms: P_15  and  O_38 
REMARK    7  A    between atoms: P_15  and  O_37 
REMARK    8  A    between atoms: C_18  and  O_38 
REMARK    9  A    between atoms: C_24  and  N_25 
REMARK       I    between atoms: N_25  and  C_57 
REMARK   10  A    between atoms: C_31  and  O_32 
REMARK   11  A    between atoms: C_34  and  N_35 
REMARK   12  A    between atoms: C_39  and  O_40 
REMARK   13  A    between atoms: C_42  and  O_43 
REMARK   14  A    between atoms: C_45  and  C_46 
REMARK   15  A    between atoms: C_47  and  C_53 
REMARK   16  A    between atoms: C_49  and  C_55 
REMARK   17  A    between atoms: C_51  and  C_52 
REMARK   18  A    between atoms: C_52  and  O_63 
REMARK   19  A    between atoms: C_53  and  O_54 
ROOT
HETATM    1  C   UNL     1      15.436   3.009  26.214  1.00  0.00     0.298 C 
HETATM    2  C   UNL     1      16.481   3.562  25.258  1.00  0.00     0.165 C 
HETATM    3  C   UNL     1      17.925   3.260  25.656  1.00  0.00     0.140 C 
HETATM    4  C   UNL     1      18.127   3.323  27.175  1.00  0.00     0.182 C 
HETATM    5  C   UNL     1      16.963   2.740  27.995  1.00  0.00     0.256 C 
HETATM    6  O   UNL     1      15.724   3.297  27.562  1.00  0.00    -0.340 OA
ENDROOT
BRANCH   1   7
HETATM    7  O   UNL     1      15.369   1.639  26.012  1.00  0.00    -0.256 OA
BRANCH   7   8
HETATM    8  P   UNL     1      14.199   0.792  26.687  1.00  0.00     0.420 P 
HETATM    9  O   UNL     1      14.644  -0.121  27.800  1.00  0.00    -0.624 OA
HETATM   10  O   UNL     1      13.173   1.782  27.048  1.00  0.00    -0.624 OA
BRANCH   8  11
HETATM   11  O   UNL     1      13.697   0.053  25.374  1.00  0.00    -0.180 OA
BRANCH  11  12
HETATM   12  P   UNL     1      12.595  -1.077  25.169  1.00  0.00     0.417 P 
HETATM   13  O   UNL     1      12.411  -1.166  23.697  1.00  0.00    -0.624 OA
HETATM   14  O   UNL     1      13.024  -2.298  25.913  1.00  0.00    -0.624 OA
BRANCH  12  15
HETATM   15  O   UNL     1      11.249  -0.479  25.803  1.00  0.00    -0.287 OA
BRANCH  15  16
HETATM   16  C   UNL     1      10.564   0.598  25.175  1.00  0.00     0.216 C 
BRANCH  16  17
HETATM   17  C   UNL     1       9.430   1.050  26.059  1.00  0.00     0.180 C 
HETATM   18  C   UNL     1       8.130   1.369  25.308  1.00  0.00     0.182 C 
HETATM   19  C   UNL     1       8.130   2.895  25.225  1.00  0.00     0.198 C 
HETATM   20  C   UNL     1       8.850   3.282  26.515  1.00  0.00     0.263 C 
HETATM   21  O   UNL     1       9.798   2.265  26.768  1.00  0.00    -0.353 OA
BRANCH  18  22
HETATM   22  O   UNL     1       6.999   0.872  25.999  1.00  0.00    -0.390 OA
ATOM     23  HO  UNL     1       6.209   1.334  25.747  1.00  0.00     0.210 HD
ENDBRANCH  18  22
BRANCH  19  24
HETATM   24  O   UNL     1       6.842   3.466  25.210  1.00  0.00    -0.388 OA
ATOM     25  HO  UNL     1       6.268   2.949  24.658  1.00  0.00     0.210 HD
ENDBRANCH  19  24
BRANCH  20  26
HETATM   26  N   UNL     1       9.548   4.556  26.323  1.00  0.00    -0.280 N 
HETATM   27  C   UNL     1      10.815   4.569  25.794  1.00  0.00     0.104 A 
HETATM   28  C   UNL     1      11.479   5.697  25.544  1.00  0.00     0.092 A 
HETATM   29  C   UNL     1      10.843   6.947  25.819  1.00  0.00     0.250 A 
HETATM   30  O   UNL     1      11.333   8.050  25.637  1.00  0.00    -0.268 OA
HETATM   31  N   UNL     1       9.557   6.860  26.305  1.00  0.00    -0.275 N 
HETATM   32  C   UNL     1       8.850   5.728  26.579  1.00  0.00     0.331 A 
ATOM     33  HN  UNL     1       9.080   7.745  26.480  1.00  0.00     0.173 HD
HETATM   34  O   UNL     1       7.713   5.767  27.045  1.00  0.00    -0.246 OA
ENDBRANCH  20  26
ENDBRANCH  16  17
ENDBRANCH  15  16
ENDBRANCH  12  15
ENDBRANCH  11  12
ENDBRANCH   8  11
ENDBRANCH   7   8
ENDBRANCH   1   7
BRANCH   2  35
HETATM   35  N   UNL     1      16.218   3.078  23.922  1.00  0.00    -0.350 N 
HETATM   36  C   UNL     1      16.171   3.855  22.850  1.00  0.00     0.214 C 
HETATM   37  O   UNL     1      16.508   5.023  22.893  1.00  0.00    -0.274 OA
HETATM   38  C   UNL     1      15.698   3.193  21.590  1.00  0.00     0.117 C 
ATOM     39  HN  UNL     1      16.058   2.078  23.796  1.00  0.00     0.163 HD
ENDBRANCH   2  35
BRANCH   5  40
HETATM   40  C   UNL     1      17.043   2.949  29.514  1.00  0.00     0.206 C 
HETATM   41  O   UNL     1      16.288   2.440  30.237  1.00  0.00    -0.646 OA
HETATM   42  O   UNL     1      17.873   3.683  29.933  1.00  0.00    -0.646 OA
ENDBRANCH   5  40
BRANCH   3  43
HETATM   43  N   UNL     1      18.699   4.307  24.983  1.00  0.00    -0.389 N 
HETATM   44  C   UNL     1      19.964   4.294  24.852  1.00  0.00     0.098 C 
ATOM     45  HN  UNL     1      18.189   5.100  24.594  1.00  0.00     0.159 HD
BRANCH  44  46
HETATM   46  C   UNL     1      20.626   5.397  24.116  1.00  0.00     0.024 A 
HETATM   47  C   UNL     1      20.152   5.761  22.837  1.00  0.00     0.100 A 
HETATM   48  C   UNL     1      20.729   6.858  22.169  1.00  0.00     0.039 A 
HETATM   49  N   UNL     1      21.753   7.512  22.712  1.00  0.00    -0.367 N 
HETATM   50  C   UNL     1      20.260   7.306  20.812  1.00  0.00     0.071 C 
HETATM   51  C   UNL     1      22.229   7.150  23.927  1.00  0.00     0.098 A 
ATOM     52  HN  UNL     1      22.181   8.289  22.209  1.00  0.00     0.165 HD
HETATM   53  C   UNL     1      21.705   6.121  24.658  1.00  0.00    -0.004 A 
BRANCH  47  54
HETATM   54  O   UNL     1      19.182   5.074  22.243  1.00  0.00    -0.358 OA
ATOM     55  HO  UNL     1      18.281   5.372  22.273  1.00  0.00     0.217 HD
ENDBRANCH  47  54
BRANCH  53  56
HETATM   56  C   UNL     1      22.254   5.846  26.031  1.00  0.00     0.223 C 
BRANCH  56  57
HETATM   57  O   UNL     1      22.846   4.513  26.068  1.00  0.00    -0.278 OA
BRANCH  57  58
HETATM   58  P   UNL     1      23.161   3.888  27.521  1.00  0.00     0.422 P 
HETATM   59  O   UNL     1      21.886   3.311  28.036  1.00  0.00    -0.617 OA
HETATM   60  O   UNL     1      23.647   5.017  28.426  1.00  0.00    -0.617 OA
HETATM   61  O   UNL     1      24.229   2.873  27.237  1.00  0.00    -0.617 OA
ENDBRANCH  57  58
ENDBRANCH  56  57
ENDBRANCH  53  56
ENDBRANCH  44  46
ENDBRANCH   3  43
BRANCH   4  62
HETATM   62  O   UNL     1      19.265   2.561  27.545  1.00  0.00    -0.390 OA
ATOM     63  HO  UNL     1      20.012   3.112  27.342  1.00  0.00     0.210 HD
ENDBRANCH   4  62
TORSDOF 19
ENDMDL
MODEL 12
REMARK VINA RESULT:    -8.737      4.575      8.199
REMARK INTER + INTRA:         -22.194
REMARK INTER:                 -18.949
REMARK INTRA:                  -3.245
REMARK UNBOUND:                -4.774
REMARK  19 active torsions:
REMARK  status: ('A' for Active; 'I' for Inactive)
REMARK    1  A    between atoms: P_1  and  O_63 
REMARK    2  A    between atoms: N_2  and  C_23 
REMARK    3  A    between atoms: C_5  and  O_8 
REMARK    4  A    between atoms: P_14  and  O_54 
REMARK    5  A    between atoms: P_14  and  O_37 
REMARK    6  A    between atoms: P_15  and  O_38 
REMARK    7  A    between atoms: P_15  and  O_37 
REMARK    8  A    between atoms: C_18  and  O_38 
REMARK    9  A    between atoms: C_24  and  N_25 
REMARK       I    between atoms: N_25  and  C_57 
REMARK   10  A    between atoms: C_31  and  O_32 
REMARK   11  A    between atoms: C_34  and  N_35 
REMARK   12  A    between atoms: C_39  and  O_40 
REMARK   13  A    between atoms: C_42  and  O_43 
REMARK   14  A    between atoms: C_45  and  C_46 
REMARK   15  A    between atoms: C_47  and  C_53 
REMARK   16  A    between atoms: C_49  and  C_55 
REMARK   17  A    between atoms: C_51  and  C_52 
REMARK   18  A    between atoms: C_52  and  O_63 
REMARK   19  A    between atoms: C_53  and  O_54 
ROOT
HETATM    1  C   UNL     1      15.204   2.980  26.015  1.00  0.00     0.298 C 
HETATM    2  C   UNL     1      16.289   3.515  25.096  1.00  0.00     0.165 C 
HETATM    3  C   UNL     1      17.714   3.210  25.554  1.00  0.00     0.140 C 
HETATM    4  C   UNL     1      17.856   3.290  27.079  1.00  0.00     0.182 C 
HETATM    5  C   UNL     1      16.657   2.723  27.858  1.00  0.00     0.256 C 
HETATM    6  O   UNL     1      15.440   3.282  27.370  1.00  0.00    -0.340 OA
ENDROOT
BRANCH   1   7
HETATM    7  O   UNL     1      15.137   1.608  25.827  1.00  0.00    -0.256 OA
BRANCH   7   8
HETATM    8  P   UNL     1      13.864   0.796  26.340  1.00  0.00     0.420 P 
HETATM    9  O   UNL     1      14.164  -0.253  27.380  1.00  0.00    -0.624 OA
HETATM   10  O   UNL     1      12.892   1.826  26.739  1.00  0.00    -0.624 OA
BRANCH   8  11
HETATM   11  O   UNL     1      13.398   0.231  24.931  1.00  0.00    -0.180 OA
BRANCH  11  12
HETATM   12  P   UNL     1      13.834  -1.076  24.135  1.00  0.00     0.417 P 
HETATM   13  O   UNL     1      12.933  -1.120  22.954  1.00  0.00    -0.624 OA
HETATM   14  O   UNL     1      15.309  -1.025  23.910  1.00  0.00    -0.624 OA
BRANCH  12  15
HETATM   15  O   UNL     1      13.456  -2.305  25.095  1.00  0.00    -0.287 OA
BRANCH  15  16
HETATM   16  C   UNL     1      14.468  -3.027  25.786  1.00  0.00     0.216 C 
BRANCH  16  17
HETATM   17  C   UNL     1      14.169  -4.502  25.705  1.00  0.00     0.180 C 
HETATM   18  C   UNL     1      12.998  -4.960  26.585  1.00  0.00     0.182 C 
HETATM   19  C   UNL     1      13.685  -5.584  27.800  1.00  0.00     0.198 C 
HETATM   20  C   UNL     1      14.964  -6.147  27.184  1.00  0.00     0.263 C 
HETATM   21  O   UNL     1      15.324  -5.274  26.133  1.00  0.00    -0.353 OA
BRANCH  18  22
HETATM   22  O   UNL     1      12.172  -5.886  25.904  1.00  0.00    -0.390 OA
ATOM     23  HO  UNL     1      12.683  -6.594  25.527  1.00  0.00     0.210 HD
ENDBRANCH  18  22
BRANCH  19  24
HETATM   24  O   UNL     1      12.948  -6.624  28.400  1.00  0.00    -0.388 OA
ATOM     25  HO  UNL     1      12.887  -6.474  29.335  1.00  0.00     0.210 HD
ENDBRANCH  19  24
BRANCH  20  26
HETATM   26  N   UNL     1      16.029  -6.157  28.191  1.00  0.00    -0.280 N 
HETATM   27  C   UNL     1      16.698  -4.996  28.489  1.00  0.00     0.104 A 
HETATM   28  C   UNL     1      17.637  -4.929  29.433  1.00  0.00     0.092 A 
HETATM   29  C   UNL     1      17.948  -6.106  30.181  1.00  0.00     0.250 A 
HETATM   30  O   UNL     1      18.780  -6.185  31.071  1.00  0.00    -0.268 OA
HETATM   31  N   UNL     1      17.207  -7.222  29.860  1.00  0.00    -0.275 N 
HETATM   32  C   UNL     1      16.247  -7.330  28.899  1.00  0.00     0.331 A 
ATOM     33  HN  UNL     1      17.399  -8.064  30.405  1.00  0.00     0.173 HD
HETATM   34  O   UNL     1      15.668  -8.391  28.675  1.00  0.00    -0.246 OA
ENDBRANCH  20  26
ENDBRANCH  16  17
ENDBRANCH  15  16
ENDBRANCH  12  15
ENDBRANCH  11  12
ENDBRANCH   8  11
ENDBRANCH   7   8
ENDBRANCH   1   7
BRANCH   2  35
HETATM   35  N   UNL     1      16.076   3.018  23.755  1.00  0.00    -0.350 N 
HETATM   36  C   UNL     1      16.046   3.786  22.677  1.00  0.00     0.214 C 
HETATM   37  O   UNL     1      16.358   4.960  22.721  1.00  0.00    -0.274 OA
HETATM   38  C   UNL     1      15.625   3.106  21.408  1.00  0.00     0.117 C 
ATOM     39  HN  UNL     1      15.941   2.014  23.632  1.00  0.00     0.163 HD
ENDBRANCH   2  35
BRANCH   5  40
HETATM   40  C   UNL     1      16.678   2.950  29.377  1.00  0.00     0.206 C 
HETATM   41  O   UNL     1      16.264   3.928  29.850  1.00  0.00    -0.646 OA
HETATM   42  O   UNL     1      17.171   2.116  30.059  1.00  0.00    -0.646 OA
ENDBRANCH   5  40
BRANCH   3  43
HETATM   43  N   UNL     1      18.521   4.245  24.900  1.00  0.00    -0.389 N 
HETATM   44  C   UNL     1      19.792   4.265  24.888  1.00  0.00     0.098 C 
ATOM     45  HN  UNL     1      18.029   5.000  24.422  1.00  0.00     0.159 HD
BRANCH  44  46
HETATM   46  C   UNL     1      20.492   5.349  24.159  1.00  0.00     0.024 A 
HETATM   47  C   UNL     1      20.035   5.731  22.878  1.00  0.00     0.100 A 
HETATM   48  C   UNL     1      20.649   6.811  22.216  1.00  0.00     0.039 A 
HETATM   49  N   UNL     1      21.691   7.431  22.765  1.00  0.00    -0.367 N 
HETATM   50  C   UNL     1      20.200   7.278  20.859  1.00  0.00     0.071 C 
HETATM   51  C   UNL     1      22.151   7.050  23.981  1.00  0.00     0.098 A 
ATOM     52  HN  UNL     1      22.146   8.195  22.267  1.00  0.00     0.165 HD
HETATM   53  C   UNL     1      21.591   6.037  24.707  1.00  0.00    -0.004 A 
BRANCH  47  54
HETATM   54  O   UNL     1      19.047   5.076  22.279  1.00  0.00    -0.358 OA
ATOM     55  HO  UNL     1      19.155   4.717  21.407  1.00  0.00     0.217 HD
ENDBRANCH  47  54
BRANCH  53  56
HETATM   56  C   UNL     1      22.125   5.740  26.082  1.00  0.00     0.223 C 
BRANCH  56  57
HETATM   57  O   UNL     1      22.765   4.429  26.091  1.00  0.00    -0.278 OA
BRANCH  57  58
HETATM   58  P   UNL     1      23.125   3.797  27.530  1.00  0.00     0.422 P 
HETATM   59  O   UNL     1      24.189   2.776  27.306  1.00  0.00    -0.617 OA
HETATM   60  O   UNL     1      21.862   3.148  28.090  1.00  0.00    -0.617 OA
HETATM   61  O   UNL     1      23.568   4.987  28.329  1.00  0.00    -0.617 OA
ENDBRANCH  57  58
ENDBRANCH  56  57
ENDBRANCH  53  56
ENDBRANCH  44  46
ENDBRANCH   3  43
BRANCH   4  62
HETATM   62  O   UNL     1      18.974   2.526  27.502  1.00  0.00    -0.390 OA
ATOM     63  HO  UNL     1      19.290   2.089  26.720  1.00  0.00     0.210 HD
ENDBRANCH   4  62
TORSDOF 19
ENDMDL
MODEL 13
REMARK VINA RESULT:    -8.405      5.561      9.016
REMARK INTER + INTRA:         -21.532
REMARK INTER:                 -17.834
REMARK INTRA:                  -3.699
REMARK UNBOUND:                -4.774
REMARK  19 active torsions:
REMARK  status: ('A' for Active; 'I' for Inactive)
REMARK    1  A    between atoms: P_1  and  O_63 
REMARK    2  A    between atoms: N_2  and  C_23 
REMARK    3  A    between atoms: C_5  and  O_8 
REMARK    4  A    between atoms: P_14  and  O_54 
REMARK    5  A    between atoms: P_14  and  O_37 
REMARK    6  A    between atoms: P_15  and  O_38 
REMARK    7  A    between atoms: P_15  and  O_37 
REMARK    8  A    between atoms: C_18  and  O_38 
REMARK    9  A    between atoms: C_24  and  N_25 
REMARK       I    between atoms: N_25  and  C_57 
REMARK   10  A    between atoms: C_31  and  O_32 
REMARK   11  A    between atoms: C_34  and  N_35 
REMARK   12  A    between atoms: C_39  and  O_40 
REMARK   13  A    between atoms: C_42  and  O_43 
REMARK   14  A    between atoms: C_45  and  C_46 
REMARK   15  A    between atoms: C_47  and  C_53 
REMARK   16  A    between atoms: C_49  and  C_55 
REMARK   17  A    between atoms: C_51  and  C_52 
REMARK   18  A    between atoms: C_52  and  O_63 
REMARK   19  A    between atoms: C_53  and  O_54 
ROOT
HETATM    1  C   UNL     1      15.723   2.874  26.263  1.00  0.00     0.298 C 
HETATM    2  C   UNL     1      16.681   3.484  25.253  1.00  0.00     0.165 C 
HETATM    3  C   UNL     1      18.159   3.269  25.574  1.00  0.00     0.140 C 
HETATM    4  C   UNL     1      18.437   3.351  27.080  1.00  0.00     0.182 C 
HETATM    5  C   UNL     1      17.355   2.702  27.961  1.00  0.00     0.256 C 
HETATM    6  O   UNL     1      16.064   3.184  27.594  1.00  0.00    -0.340 OA
ENDROOT
BRANCH   1   7
HETATM    7  O   UNL     1      15.727   1.501  26.066  1.00  0.00    -0.256 OA
BRANCH   7   8
HETATM    8  P   UNL     1      14.374   0.750  25.684  1.00  0.00     0.420 P 
HETATM    9  O   UNL     1      13.116   1.449  26.132  1.00  0.00    -0.624 OA
HETATM   10  O   UNL     1      14.477   0.492  24.240  1.00  0.00    -0.624 OA
BRANCH   8  11
HETATM   11  O   UNL     1      14.681  -0.619  26.429  1.00  0.00    -0.180 OA
BRANCH  11  12
HETATM   12  P   UNL     1      14.062  -2.072  26.239  1.00  0.00     0.417 P 
HETATM   13  O   UNL     1      12.599  -1.847  26.103  1.00  0.00    -0.624 OA
HETATM   14  O   UNL     1      14.789  -2.756  25.128  1.00  0.00    -0.624 OA
BRANCH  12  15
HETATM   15  O   UNL     1      14.322  -2.830  27.628  1.00  0.00    -0.287 OA
BRANCH  15  16
HETATM   16  C   UNL     1      14.503  -4.241  27.666  1.00  0.00     0.216 C 
BRANCH  16  17
HETATM   17  C   UNL     1      15.024  -4.639  29.023  1.00  0.00     0.180 C 
HETATM   18  C   UNL     1      16.552  -4.574  29.158  1.00  0.00     0.182 C 
HETATM   19  C   UNL     1      16.987  -6.032  29.017  1.00  0.00     0.198 C 
HETATM   20  C   UNL     1      15.798  -6.776  29.623  1.00  0.00     0.263 C 
HETATM   21  O   UNL     1      14.649  -6.011  29.324  1.00  0.00    -0.353 OA
BRANCH  18  22
HETATM   22  O   UNL     1      16.936  -4.020  30.402  1.00  0.00    -0.390 OA
ATOM     23  HO  UNL     1      16.245  -4.106  31.048  1.00  0.00     0.210 HD
ENDBRANCH  18  22
BRANCH  19  24
HETATM   24  O   UNL     1      18.159  -6.350  29.730  1.00  0.00    -0.388 OA
ATOM     25  HO  UNL     1      18.857  -6.559  29.121  1.00  0.00     0.210 HD
ENDBRANCH  19  24
BRANCH  20  26
HETATM   26  N   UNL     1      15.676  -8.096  28.999  1.00  0.00    -0.280 N 
HETATM   27  C   UNL     1      14.958  -8.239  27.837  1.00  0.00     0.104 A 
HETATM   28  C   UNL     1      14.856  -9.401  27.192  1.00  0.00     0.092 A 
HETATM   29  C   UNL     1      15.537 -10.542  27.717  1.00  0.00     0.250 A 
HETATM   30  O   UNL     1      15.532 -11.662  27.229  1.00  0.00    -0.268 OA
HETATM   31  N   UNL     1      16.275 -10.317  28.858  1.00  0.00    -0.275 N 
HETATM   32  C   UNL     1      16.396  -9.148  29.548  1.00  0.00     0.331 A 
ATOM     33  HN  UNL     1      16.789 -11.116  29.230  1.00  0.00     0.173 HD
HETATM   34  O   UNL     1      17.059  -9.066  30.580  1.00  0.00    -0.246 OA
ENDBRANCH  20  26
ENDBRANCH  16  17
ENDBRANCH  15  16
ENDBRANCH  12  15
ENDBRANCH  11  12
ENDBRANCH   8  11
ENDBRANCH   7   8
ENDBRANCH   1   7
BRANCH   2  35
HETATM   35  N   UNL     1      16.377   2.980  23.933  1.00  0.00    -0.350 N 
HETATM   36  C   UNL     1      16.217   3.750  22.867  1.00  0.00     0.214 C 
HETATM   37  O   UNL     1      16.477   4.937  22.892  1.00  0.00    -0.274 OA
HETATM   38  C   UNL     1      15.721   3.054  21.634  1.00  0.00     0.117 C 
ATOM     39  HN  UNL     1      16.278   1.972  23.815  1.00  0.00     0.163 HD
ENDBRANCH   2  35
BRANCH   5  40
HETATM   40  C   UNL     1      17.502   2.922  29.473  1.00  0.00     0.206 C 
HETATM   41  O   UNL     1      16.610   3.286  30.123  1.00  0.00    -0.646 OA
HETATM   42  O   UNL     1      18.569   2.753  29.961  1.00  0.00    -0.646 OA
ENDBRANCH   5  40
BRANCH   3  43
HETATM   43  N   UNL     1      18.833   4.358  24.860  1.00  0.00    -0.389 N 
HETATM   44  C   UNL     1      20.095   4.472  24.749  1.00  0.00     0.098 C 
ATOM     45  HN  UNL     1      18.252   5.073  24.423  1.00  0.00     0.159 HD
BRANCH  44  46
HETATM   46  C   UNL     1      20.654   5.601  23.968  1.00  0.00     0.024 A 
HETATM   47  C   UNL     1      20.146   5.870  22.678  1.00  0.00     0.100 A 
HETATM   48  C   UNL     1      20.620   6.988  21.965  1.00  0.00     0.039 A 
HETATM   49  N   UNL     1      21.582   7.752  22.477  1.00  0.00    -0.367 N 
HETATM   50  C   UNL     1      20.110   7.339  20.595  1.00  0.00     0.071 C 
HETATM   51  C   UNL     1      22.091   7.482  23.703  1.00  0.00     0.098 A 
ATOM     52  HN  UNL     1      21.938   8.545  21.943  1.00  0.00     0.165 HD
HETATM   53  C   UNL     1      21.663   6.440  24.476  1.00  0.00    -0.004 A 
BRANCH  47  54
HETATM   54  O   UNL     1      19.242   5.075  22.116  1.00  0.00    -0.358 OA
ATOM     55  HO  UNL     1      18.325   5.127  22.360  1.00  0.00     0.217 HD
ENDBRANCH  47  54
BRANCH  53  56
HETATM   56  C   UNL     1      22.237   6.269  25.855  1.00  0.00     0.223 C 
BRANCH  56  57
HETATM   57  O   UNL     1      22.797   4.928  25.995  1.00  0.00    -0.278 OA
BRANCH  57  58
HETATM   58  P   UNL     1      22.743   4.258  27.461  1.00  0.00     0.422 P 
HETATM   59  O   UNL     1      23.952   4.723  28.200  1.00  0.00    -0.617 OA
HETATM   60  O   UNL     1      22.764   2.742  27.289  1.00  0.00    -0.617 OA
HETATM   61  O   UNL     1      21.445   4.759  28.023  1.00  0.00    -0.617 OA
ENDBRANCH  57  58
ENDBRANCH  56  57
ENDBRANCH  53  56
ENDBRANCH  44  46
ENDBRANCH   3  43
BRANCH   4  62
HETATM   62  O   UNL     1      19.637   2.659  27.389  1.00  0.00    -0.390 OA
ATOM     63  HO  UNL     1      19.837   2.893  28.288  1.00  0.00     0.210 HD
ENDBRANCH   4  62
TORSDOF 19
ENDMDL
MODEL 14
REMARK VINA RESULT:    -8.145      3.617      6.414
REMARK INTER + INTRA:         -21.012
REMARK INTER:                 -16.595
REMARK INTRA:                  -4.418
REMARK UNBOUND:                -4.774
REMARK  19 active torsions:
REMARK  status: ('A' for Active; 'I' for Inactive)
REMARK    1  A    between atoms: P_1  and  O_63 
REMARK    2  A    between atoms: N_2  and  C_23 
REMARK    3  A    between atoms: C_5  and  O_8 
REMARK    4  A    between atoms: P_14  and  O_54 
REMARK    5  A    between atoms: P_14  and  O_37 
REMARK    6  A    between atoms: P_15  and  O_38 
REMARK    7  A    between atoms: P_15  and  O_37 
REMARK    8  A    between atoms: C_18  and  O_38 
REMARK    9  A    between atoms: C_24  and  N_25 
REMARK       I    between atoms: N_25  and  C_57 
REMARK   10  A    between atoms: C_31  and  O_32 
REMARK   11  A    between atoms: C_34  and  N_35 
REMARK   12  A    between atoms: C_39  and  O_40 
REMARK   13  A    between atoms: C_42  and  O_43 
REMARK   14  A    between atoms: C_45  and  C_46 
REMARK   15  A    between atoms: C_47  and  C_53 
REMARK   16  A    between atoms: C_49  and  C_55 
REMARK   17  A    between atoms: C_51  and  C_52 
REMARK   18  A    between atoms: C_52  and  O_63 
REMARK   19  A    between atoms: C_53  and  O_54 
ROOT
HETATM    1  C   UNL     1      15.553   2.630  25.925  1.00  0.00     0.298 C 
HETATM    2  C   UNL     1      16.624   3.262  25.052  1.00  0.00     0.165 C 
HETATM    3  C   UNL     1      18.041   3.155  25.612  1.00  0.00     0.140 C 
HETATM    4  C   UNL     1      18.069   3.309  27.138  1.00  0.00     0.182 C 
HETATM    5  C   UNL     1      16.898   2.625  27.866  1.00  0.00     0.256 C 
HETATM    6  O   UNL     1      15.657   3.009  27.277  1.00  0.00    -0.340 OA
ENDROOT
BRANCH   1   7
HETATM    7  O   UNL     1      15.667   1.254  25.795  1.00  0.00    -0.256 OA
BRANCH   7   8
HETATM    8  P   UNL     1      14.482   0.417  25.133  1.00  0.00     0.420 P 
HETATM    9  O   UNL     1      14.475   0.419  23.626  1.00  0.00    -0.624 OA
HETATM   10  O   UNL     1      14.553  -0.909  25.767  1.00  0.00    -0.624 OA
BRANCH   8  11
HETATM   11  O   UNL     1      13.276   1.197  25.811  1.00  0.00    -0.180 OA
BRANCH  11  12
HETATM   12  P   UNL     1      11.777   0.750  26.104  1.00  0.00     0.417 P 
HETATM   13  O   UNL     1      11.033   2.022  26.299  1.00  0.00    -0.624 OA
HETATM   14  O   UNL     1      11.338  -0.178  25.019  1.00  0.00    -0.624 OA
BRANCH  12  15
HETATM   15  O   UNL     1      11.829  -0.017  27.511  1.00  0.00    -0.287 OA
BRANCH  15  16
HETATM   16  C   UNL     1      12.748   0.379  28.523  1.00  0.00     0.216 C 
BRANCH  16  17
HETATM   17  C   UNL     1      12.948  -0.762  29.487  1.00  0.00     0.180 C 
HETATM   18  C   UNL     1      14.410  -1.195  29.662  1.00  0.00     0.182 C 
HETATM   19  C   UNL     1      14.519  -2.449  28.795  1.00  0.00     0.198 C 
HETATM   20  C   UNL     1      13.113  -3.035  28.910  1.00  0.00     0.263 C 
HETATM   21  O   UNL     1      12.228  -1.940  29.030  1.00  0.00    -0.353 OA
BRANCH  18  22
HETATM   22  O   UNL     1      14.712  -1.456  31.020  1.00  0.00    -0.390 OA
ATOM     23  HO  UNL     1      13.982  -1.233  31.586  1.00  0.00     0.210 HD
ENDBRANCH  18  22
BRANCH  19  24
HETATM   24  O   UNL     1      15.463  -3.384  29.261  1.00  0.00    -0.388 OA
ATOM     25  HO  UNL     1      16.195  -3.428  28.658  1.00  0.00     0.210 HD
ENDBRANCH  19  24
BRANCH  20  26
HETATM   26  N   UNL     1      12.793  -3.783  27.691  1.00  0.00    -0.280 N 
HETATM   27  C   UNL     1      12.232  -3.135  26.619  1.00  0.00     0.104 A 
HETATM   28  C   UNL     1      11.970  -3.748  25.464  1.00  0.00     0.092 A 
HETATM   29  C   UNL     1      12.302  -5.131  25.327  1.00  0.00     0.250 A 
HETATM   30  O   UNL     1      12.120  -5.812  24.330  1.00  0.00    -0.268 OA
HETATM   31  N   UNL     1      12.903  -5.706  26.426  1.00  0.00    -0.275 N 
HETATM   32  C   UNL     1      13.179  -5.114  27.622  1.00  0.00     0.331 A 
ATOM     33  HN  UNL     1      13.172  -6.686  26.333  1.00  0.00     0.173 HD
HETATM   34  O   UNL     1      13.692  -5.734  28.551  1.00  0.00    -0.246 OA
ENDBRANCH  20  26
ENDBRANCH  16  17
ENDBRANCH  15  16
ENDBRANCH  12  15
ENDBRANCH  11  12
ENDBRANCH   8  11
ENDBRANCH   7   8
ENDBRANCH   1   7
BRANCH   2  35
HETATM   35  N   UNL     1      16.565   2.692  23.725  1.00  0.00    -0.350 N 
HETATM   36  C   UNL     1      16.281   3.387  22.634  1.00  0.00     0.214 C 
HETATM   37  O   UNL     1      16.206   4.600  22.651  1.00  0.00    -0.274 OA
HETATM   38  C   UNL     1      16.083   2.580  21.385  1.00  0.00     0.117 C 
ATOM     39  HN  UNL     1      16.753   1.695  23.622  1.00  0.00     0.163 HD
ENDBRANCH   2  35
BRANCH   5  40
HETATM   40  C   UNL     1      16.788   2.909  29.370  1.00  0.00     0.206 C 
HETATM   41  O   UNL     1      17.663   3.396  29.961  1.00  0.00    -0.646 OA
HETATM   42  O   UNL     1      15.797   2.578  29.930  1.00  0.00    -0.646 OA
ENDBRANCH   5  40
BRANCH   3  43
HETATM   43  N   UNL     1      18.758   4.257  24.964  1.00  0.00    -0.389 N 
HETATM   44  C   UNL     1      20.014   4.281  24.766  1.00  0.00     0.098 C 
ATOM     45  HN  UNL     1      18.212   5.060  24.651  1.00  0.00     0.159 HD
BRANCH  44  46
HETATM   46  C   UNL     1      20.614   5.440  24.065  1.00  0.00     0.024 A 
HETATM   47  C   UNL     1      20.133   5.803  22.788  1.00  0.00     0.100 A 
HETATM   48  C   UNL     1      20.648   6.950  22.153  1.00  0.00     0.039 A 
HETATM   49  N   UNL     1      21.623   7.653  22.724  1.00  0.00    -0.367 N 
HETATM   50  C   UNL     1      20.168   7.400  20.801  1.00  0.00     0.071 C 
HETATM   51  C   UNL     1      22.107   7.293  23.937  1.00  0.00     0.098 A 
ATOM     52  HN  UNL     1      22.008   8.467  22.245  1.00  0.00     0.165 HD
HETATM   53  C   UNL     1      21.639   6.217  24.638  1.00  0.00    -0.004 A 
BRANCH  47  54
HETATM   54  O   UNL     1      19.216   5.071  22.166  1.00  0.00    -0.358 OA
ATOM     55  HO  UNL     1      18.693   4.435  22.639  1.00  0.00     0.217 HD
ENDBRANCH  47  54
BRANCH  53  56
HETATM   56  C   UNL     1      22.188   5.944  26.011  1.00  0.00     0.223 C 
BRANCH  56  57
HETATM   57  O   UNL     1      22.794   4.617  26.046  1.00  0.00    -0.278 OA
BRANCH  57  58
HETATM   58  P   UNL     1      23.098   3.986  27.499  1.00  0.00     0.422 P 
HETATM   59  O   UNL     1      24.026   2.837  27.292  1.00  0.00    -0.617 OA
HETATM   60  O   UNL     1      21.775   3.512  28.094  1.00  0.00    -0.617 OA
HETATM   61  O   UNL     1      23.695   5.134  28.257  1.00  0.00    -0.617 OA
ENDBRANCH  57  58
ENDBRANCH  56  57
ENDBRANCH  53  56
ENDBRANCH  44  46
ENDBRANCH   3  43
BRANCH   4  62
HETATM   62  O   UNL     1      19.241   2.706  27.664  1.00  0.00    -0.390 OA
ATOM     63  HO  UNL     1      19.392   1.939  27.126  1.00  0.00     0.210 HD
ENDBRANCH   4  62
TORSDOF 19
ENDMDL
MODEL 15
REMARK VINA RESULT:    -7.911      2.472      3.716
REMARK INTER + INTRA:         -20.547
REMARK INTER:                 -16.651
REMARK INTRA:                  -3.896
REMARK UNBOUND:                -4.774
REMARK  19 active torsions:
REMARK  status: ('A' for Active; 'I' for Inactive)
REMARK    1  A    between atoms: P_1  and  O_63 
REMARK    2  A    between atoms: N_2  and  C_23 
REMARK    3  A    between atoms: C_5  and  O_8 
REMARK    4  A    between atoms: P_14  and  O_54 
REMARK    5  A    between atoms: P_14  and  O_37 
REMARK    6  A    between atoms: P_15  and  O_38 
REMARK    7  A    between atoms: P_15  and  O_37 
REMARK    8  A    between atoms: C_18  and  O_38 
REMARK    9  A    between atoms: C_24  and  N_25 
REMARK       I    between atoms: N_25  and  C_57 
REMARK   10  A    between atoms: C_31  and  O_32 
REMARK   11  A    between atoms: C_34  and  N_35 
REMARK   12  A    between atoms: C_39  and  O_40 
REMARK   13  A    between atoms: C_42  and  O_43 
REMARK   14  A    between atoms: C_45  and  C_46 
REMARK   15  A    between atoms: C_47  and  C_53 
REMARK   16  A    between atoms: C_49  and  C_55 
REMARK   17  A    between atoms: C_51  and  C_52 
REMARK   18  A    between atoms: C_52  and  O_63 
REMARK   19  A    between atoms: C_53  and  O_54 
ROOT
HETATM    1  C   UNL     1      14.831   1.083  25.040  1.00  0.00     0.298 C 
HETATM    2  C   UNL     1      16.243   1.457  24.622  1.00  0.00     0.165 C 
HETATM    3  C   UNL     1      17.208   1.684  25.785  1.00  0.00     0.140 C 
HETATM    4  C   UNL     1      16.524   2.371  26.973  1.00  0.00     0.182 C 
HETATM    5  C   UNL     1      15.088   1.889  27.245  1.00  0.00     0.256 C 
HETATM    6  O   UNL     1      14.318   1.925  26.045  1.00  0.00    -0.340 OA
ENDROOT
BRANCH   1   7
HETATM    7  O   UNL     1      14.859  -0.234  25.476  1.00  0.00    -0.256 OA
BRANCH   7   8
HETATM    8  P   UNL     1      13.941  -1.326  24.766  1.00  0.00     0.420 P 
HETATM    9  O   UNL     1      13.861  -1.203  23.266  1.00  0.00    -0.624 OA
HETATM   10  O   UNL     1      14.428  -2.619  25.272  1.00  0.00    -0.624 OA
BRANCH   8  11
HETATM   11  O   UNL     1      12.594  -0.997  25.539  1.00  0.00    -0.180 OA
BRANCH  11  12
HETATM   12  P   UNL     1      11.178  -1.723  25.525  1.00  0.00     0.417 P 
HETATM   13  O   UNL     1      10.836  -1.860  24.085  1.00  0.00    -0.624 OA
HETATM   14  O   UNL     1      11.270  -2.957  26.361  1.00  0.00    -0.624 OA
BRANCH  12  15
HETATM   15  O   UNL     1      10.156  -0.676  26.182  1.00  0.00    -0.287 OA
BRANCH  15  16
HETATM   16  C   UNL     1      10.541   0.676  26.405  1.00  0.00     0.216 C 
BRANCH  16  17
HETATM   17  C   UNL     1       9.333   1.474  26.824  1.00  0.00     0.180 C 
HETATM   18  C   UNL     1       8.379   1.828  25.675  1.00  0.00     0.182 C 
HETATM   19  C   UNL     1       8.723   3.284  25.360  1.00  0.00     0.198 C 
HETATM   20  C   UNL     1       9.136   3.814  26.732  1.00  0.00     0.263 C 
HETATM   21  O   UNL     1       9.745   2.737  27.414  1.00  0.00    -0.353 OA
BRANCH  18  22
HETATM   22  O   UNL     1       7.027   1.669  26.060  1.00  0.00    -0.390 OA
ATOM     23  HO  UNL     1       6.473   2.329  25.659  1.00  0.00     0.210 HD
ENDBRANCH  18  22
BRANCH  19  24
HETATM   24  O   UNL     1       7.636   4.033  24.868  1.00  0.00    -0.388 OA
ATOM     25  HO  UNL     1       7.920   4.915  24.665  1.00  0.00     0.210 HD
ENDBRANCH  19  24
BRANCH  20  26
HETATM   26  N   UNL     1      10.111   4.895  26.565  1.00  0.00    -0.280 N 
HETATM   27  C   UNL     1      11.441   4.596  26.404  1.00  0.00     0.104 A 
HETATM   28  C   UNL     1      12.369   5.530  26.193  1.00  0.00     0.092 A 
HETATM   29  C   UNL     1      11.963   6.898  26.111  1.00  0.00     0.250 A 
HETATM   30  O   UNL     1      12.703   7.850  25.920  1.00  0.00    -0.268 OA
HETATM   31  N   UNL     1      10.609   7.121  26.236  1.00  0.00    -0.275 N 
HETATM   32  C   UNL     1       9.636   6.194  26.459  1.00  0.00     0.331 A 
ATOM     33  HN  UNL     1      10.301   8.090  26.152  1.00  0.00     0.173 HD
HETATM   34  O   UNL     1       8.454   6.510  26.588  1.00  0.00    -0.246 OA
ENDBRANCH  20  26
ENDBRANCH  16  17
ENDBRANCH  15  16
ENDBRANCH  12  15
ENDBRANCH  11  12
ENDBRANCH   8  11
ENDBRANCH   7   8
ENDBRANCH   1   7
BRANCH   2  35
HETATM   35  N   UNL     1      16.765   0.450  23.726  1.00  0.00    -0.350 N 
HETATM   36  C   UNL     1      16.786   0.573  22.408  1.00  0.00     0.214 C 
HETATM   37  O   UNL     1      16.510   1.623  21.860  1.00  0.00    -0.274 OA
HETATM   38  C   UNL     1      17.192  -0.656  21.649  1.00  0.00     0.117 C 
ATOM     39  HN  UNL     1      17.140  -0.407  24.134  1.00  0.00     0.163 HD
ENDBRANCH   2  35
BRANCH   5  40
HETATM   40  C   UNL     1      14.306   2.678  28.305  1.00  0.00     0.206 C 
HETATM   41  O   UNL     1      14.565   3.784  28.551  1.00  0.00    -0.646 OA
HETATM   42  O   UNL     1      13.453   2.114  28.903  1.00  0.00    -0.646 OA
ENDBRANCH   5  40
BRANCH   3  43
HETATM   43  N   UNL     1      18.248   2.544  25.213  1.00  0.00    -0.389 N 
HETATM   44  C   UNL     1      18.225   3.815  25.240  1.00  0.00     0.098 C 
ATOM     45  HN  UNL     1      19.044   2.093  24.762  1.00  0.00     0.159 HD
BRANCH  44  46
HETATM   46  C   UNL     1      19.359   4.572  24.658  1.00  0.00     0.024 A 
HETATM   47  C   UNL     1      19.211   5.177  23.391  1.00  0.00     0.100 A 
HETATM   48  C   UNL     1      20.258   5.961  22.870  1.00  0.00     0.039 A 
HETATM   49  N   UNL     1      21.402   6.083  23.538  1.00  0.00    -0.367 N 
HETATM   50  C   UNL     1      20.158   6.645  21.534  1.00  0.00     0.071 C 
HETATM   51  C   UNL     1      21.559   5.483  24.742  1.00  0.00     0.098 A 
ATOM     52  HN  UNL     1      22.164   6.632  23.142  1.00  0.00     0.165 HD
HETATM   53  C   UNL     1      20.581   4.735  25.337  1.00  0.00    -0.004 A 
BRANCH  47  54
HETATM   54  O   UNL     1      18.107   5.004  22.672  1.00  0.00    -0.358 OA
ATOM     55  HO  UNL     1      18.070   4.355  21.979  1.00  0.00     0.217 HD
ENDBRANCH  47  54
BRANCH  53  56
HETATM   56  C   UNL     1      20.824   4.172  26.710  1.00  0.00     0.223 C 
BRANCH  56  57
HETATM   57  O   UNL     1      21.988   3.292  26.685  1.00  0.00    -0.278 OA
BRANCH  57  58
HETATM   58  P   UNL     1      23.117   3.533  27.810  1.00  0.00     0.422 P 
HETATM   59  O   UNL     1      24.206   2.546  27.557  1.00  0.00    -0.617 OA
HETATM   60  O   UNL     1      22.480   3.298  29.177  1.00  0.00    -0.617 OA
HETATM   61  O   UNL     1      23.517   4.964  27.597  1.00  0.00    -0.617 OA
ENDBRANCH  57  58
ENDBRANCH  56  57
ENDBRANCH  53  56
ENDBRANCH  44  46
ENDBRANCH   3  43
BRANCH   4  62
HETATM   62  O   UNL     1      17.242   2.103  28.167  1.00  0.00    -0.390 OA
ATOM     63  HO  UNL     1      16.640   2.308  28.873  1.00  0.00     0.210 HD
ENDBRANCH   4  62
TORSDOF 19
ENDMDL
MODEL 16
REMARK VINA RESULT:    -7.871      2.353      4.613
REMARK INTER + INTRA:         -20.467
REMARK INTER:                 -17.207
REMARK INTRA:                  -3.260
REMARK UNBOUND:                -4.774
REMARK  19 active torsions:
REMARK  status: ('A' for Active; 'I' for Inactive)
REMARK    1  A    between atoms: P_1  and  O_63 
REMARK    2  A    between atoms: N_2  and  C_23 
REMARK    3  A    between atoms: C_5  and  O_8 
REMARK    4  A    between atoms: P_14  and  O_54 
REMARK    5  A    between atoms: P_14  and  O_37 
REMARK    6  A    between atoms: P_15  and  O_38 
REMARK    7  A    between atoms: P_15  and  O_37 
REMARK    8  A    between atoms: C_18  and  O_38 
REMARK    9  A    between atoms: C_24  and  N_25 
REMARK       I    between atoms: N_25  and  C_57 
REMARK   10  A    between atoms: C_31  and  O_32 
REMARK   11  A    between atoms: C_34  and  N_35 
REMARK   12  A    between atoms: C_39  and  O_40 
REMARK   13  A    between atoms: C_42  and  O_43 
REMARK   14  A    between atoms: C_45  and  C_46 
REMARK   15  A    between atoms: C_47  and  C_53 
REMARK   16  A    between atoms: C_49  and  C_55 
REMARK   17  A    between atoms: C_51  and  C_52 
REMARK   18  A    between atoms: C_52  and  O_63 
REMARK   19  A    between atoms: C_53  and  O_54 
ROOT
HETATM    1  C   UNL     1      16.552   1.134  24.463  1.00  0.00     0.298 C 
HETATM    2  C   UNL     1      17.455   2.100  25.211  1.00  0.00     0.165 C 
HETATM    3  C   UNL     1      17.216   3.573  24.882  1.00  0.00     0.140 C 
HETATM    4  C   UNL     1      16.883   3.784  23.400  1.00  0.00     0.182 C 
HETATM    5  C   UNL     1      15.974   2.701  22.794  1.00  0.00     0.256 C 
HETATM    6  O   UNL     1      16.489   1.403  23.083  1.00  0.00    -0.340 OA
ENDROOT
BRANCH   1   7
HETATM    7  O   UNL     1      15.290   1.216  25.033  1.00  0.00    -0.256 OA
BRANCH   7   8
HETATM    8  P   UNL     1      14.583  -0.098  25.593  1.00  0.00     0.420 P 
HETATM    9  O   UNL     1      15.014  -1.378  24.925  1.00  0.00    -0.624 OA
HETATM   10  O   UNL     1      14.780  -0.044  27.050  1.00  0.00    -0.624 OA
BRANCH   8  11
HETATM   11  O   UNL     1      13.083   0.336  25.305  1.00  0.00    -0.180 OA
BRANCH  11  12
HETATM   12  P   UNL     1      11.739  -0.515  25.264  1.00  0.00     0.417 P 
HETATM   13  O   UNL     1      11.654  -1.021  23.869  1.00  0.00    -0.624 OA
HETATM   14  O   UNL     1      11.769  -1.502  26.383  1.00  0.00    -0.624 OA
BRANCH  12  15
HETATM   15  O   UNL     1      10.556   0.546  25.482  1.00  0.00    -0.287 OA
BRANCH  15  16
HETATM   16  C   UNL     1      10.245   1.032  26.782  1.00  0.00     0.216 C 
BRANCH  16  17
HETATM   17  C   UNL     1       9.500   2.336  26.660  1.00  0.00     0.180 C 
HETATM   18  C   UNL     1       9.738   3.080  25.339  1.00  0.00     0.182 C 
HETATM   19  C   UNL     1      10.748   4.164  25.716  1.00  0.00     0.198 C 
HETATM   20  C   UNL     1      10.364   4.463  27.164  1.00  0.00     0.263 C 
HETATM   21  O   UNL     1       9.904   3.248  27.718  1.00  0.00    -0.353 OA
BRANCH  18  22
HETATM   22  O   UNL     1       8.536   3.624  24.828  1.00  0.00    -0.390 OA
ATOM     23  HO  UNL     1       8.180   4.286  25.410  1.00  0.00     0.210 HD
ENDBRANCH  18  22
BRANCH  19  24
HETATM   24  O   UNL     1      10.640   5.337  24.944  1.00  0.00    -0.388 OA
ATOM     25  HO  UNL     1      10.601   6.095  25.515  1.00  0.00     0.210 HD
ENDBRANCH  19  24
BRANCH  20  26
HETATM   26  N   UNL     1      11.548   4.913  27.901  1.00  0.00    -0.280 N 
HETATM   27  C   UNL     1      12.367   3.992  28.505  1.00  0.00     0.104 A 
HETATM   28  C   UNL     1      13.488   4.334  29.143  1.00  0.00     0.092 A 
HETATM   29  C   UNL     1      13.864   5.712  29.184  1.00  0.00     0.250 A 
HETATM   30  O   UNL     1      14.859   6.162  29.728  1.00  0.00    -0.268 OA
HETATM   31  N   UNL     1      13.020   6.574  28.519  1.00  0.00    -0.275 N 
HETATM   32  C   UNL     1      11.866   6.263  27.865  1.00  0.00     0.331 A 
ATOM     33  HN  UNL     1      13.290   7.558  28.516  1.00  0.00     0.173 HD
HETATM   34  O   UNL     1      11.169   7.123  27.330  1.00  0.00    -0.246 OA
ENDBRANCH  20  26
ENDBRANCH  16  17
ENDBRANCH  15  16
ENDBRANCH  12  15
ENDBRANCH  11  12
ENDBRANCH   8  11
ENDBRANCH   7   8
ENDBRANCH   1   7
BRANCH   2  35
HETATM   35  N   UNL     1      17.330   1.877  26.634  1.00  0.00    -0.350 N 
HETATM   36  C   UNL     1      16.706   2.702  27.460  1.00  0.00     0.214 C 
HETATM   37  O   UNL     1      16.046   3.638  27.050  1.00  0.00    -0.274 OA
HETATM   38  C   UNL     1      16.850   2.390  28.919  1.00  0.00     0.117 C 
ATOM     39  HN  UNL     1      17.749   1.033  27.025  1.00  0.00     0.163 HD
ENDBRANCH   2  35
BRANCH   5  40
HETATM   40  C   UNL     1      15.767   2.774  21.274  1.00  0.00     0.206 C 
HETATM   41  O   UNL     1      15.117   3.608  20.790  1.00  0.00    -0.646 OA
HETATM   42  O   UNL     1      16.255   1.928  20.603  1.00  0.00    -0.646 OA
ENDBRANCH   5  40
BRANCH   3  43
HETATM   43  N   UNL     1      18.486   4.219  25.229  1.00  0.00    -0.389 N 
HETATM   44  C   UNL     1      19.607   3.621  25.275  1.00  0.00     0.098 C 
ATOM     45  HN  UNL     1      18.469   5.215  25.448  1.00  0.00     0.159 HD
BRANCH  44  46
HETATM   46  C   UNL     1      20.827   4.396  25.603  1.00  0.00     0.024 A 
HETATM   47  C   UNL     1      21.269   5.402  24.716  1.00  0.00     0.100 A 
HETATM   48  C   UNL     1      22.383   6.192  25.062  1.00  0.00     0.039 A 
HETATM   49  N   UNL     1      23.051   5.953  26.188  1.00  0.00    -0.367 N 
HETATM   50  C   UNL     1      22.894   7.289  24.170  1.00  0.00     0.071 C 
HETATM   51  C   UNL     1      22.647   4.971  27.029  1.00  0.00     0.098 A 
ATOM     52  HN  UNL     1      23.872   6.513  26.418  1.00  0.00     0.165 HD
HETATM   53  C   UNL     1      21.557   4.183  26.788  1.00  0.00    -0.004 A 
BRANCH  47  54
HETATM   54  O   UNL     1      20.663   5.605  23.552  1.00  0.00    -0.358 OA
ATOM     55  HO  UNL     1      21.158   5.647  22.742  1.00  0.00     0.217 HD
ENDBRANCH  47  54
BRANCH  53  56
HETATM   56  C   UNL     1      21.144   3.170  27.819  1.00  0.00     0.223 C 
BRANCH  56  57
HETATM   57  O   UNL     1      21.824   3.444  29.081  1.00  0.00    -0.278 OA
BRANCH  57  58
HETATM   58  P   UNL     1      21.023   4.321  30.173  1.00  0.00     0.422 P 
HETATM   59  O   UNL     1      19.653   4.552  29.629  1.00  0.00    -0.617 OA
HETATM   60  O   UNL     1      21.763   5.643  30.353  1.00  0.00    -0.617 OA
HETATM   61  O   UNL     1      21.063   3.462  31.403  1.00  0.00    -0.617 OA
ENDBRANCH  57  58
ENDBRANCH  56  57
ENDBRANCH  53  56
ENDBRANCH  44  46
ENDBRANCH   3  43
BRANCH   4  62
HETATM   62  O   UNL     1      16.178   5.003  23.231  1.00  0.00    -0.390 OA
ATOM     63  HO  UNL     1      16.157   5.403  24.092  1.00  0.00     0.210 HD
ENDBRANCH   4  62
TORSDOF 19
ENDMDL
MODEL 17
REMARK VINA RESULT:    -7.816      2.724      5.105
REMARK INTER + INTRA:         -20.358
REMARK INTER:                 -16.447
REMARK INTRA:                  -3.911
REMARK UNBOUND:                -4.774
REMARK  19 active torsions:
REMARK  status: ('A' for Active; 'I' for Inactive)
REMARK    1  A    between atoms: P_1  and  O_63 
REMARK    2  A    between atoms: N_2  and  C_23 
REMARK    3  A    between atoms: C_5  and  O_8 
REMARK    4  A    between atoms: P_14  and  O_54 
REMARK    5  A    between atoms: P_14  and  O_37 
REMARK    6  A    between atoms: P_15  and  O_38 
REMARK    7  A    between atoms: P_15  and  O_37 
REMARK    8  A    between atoms: C_18  and  O_38 
REMARK    9  A    between atoms: C_24  and  N_25 
REMARK       I    between atoms: N_25  and  C_57 
REMARK   10  A    between atoms: C_31  and  O_32 
REMARK   11  A    between atoms: C_34  and  N_35 
REMARK   12  A    between atoms: C_39  and  O_40 
REMARK   13  A    between atoms: C_42  and  O_43 
REMARK   14  A    between atoms: C_45  and  C_46 
REMARK   15  A    between atoms: C_47  and  C_53 
REMARK   16  A    between atoms: C_49  and  C_55 
REMARK   17  A    between atoms: C_51  and  C_52 
REMARK   18  A    between atoms: C_52  and  O_63 
REMARK   19  A    between atoms: C_53  and  O_54 
ROOT
HETATM    1  C   UNL     1      14.980   1.762  27.018  1.00  0.00     0.298 C 
HETATM    2  C   UNL     1      16.061   2.695  27.537  1.00  0.00     0.165 C 
HETATM    3  C   UNL     1      16.895   3.365  26.446  1.00  0.00     0.140 C 
HETATM    4  C   UNL     1      17.160   2.422  25.266  1.00  0.00     0.182 C 
HETATM    5  C   UNL     1      15.965   1.530  24.885  1.00  0.00     0.256 C 
HETATM    6  O   UNL     1      15.454   0.868  26.040  1.00  0.00    -0.340 OA
ENDROOT
BRANCH   1   7
HETATM    7  O   UNL     1      13.959   2.549  26.505  1.00  0.00    -0.256 OA
BRANCH   7   8
HETATM    8  P   UNL     1      12.546   2.597  27.240  1.00  0.00     0.420 P 
HETATM    9  O   UNL     1      11.413   1.970  26.468  1.00  0.00    -0.624 OA
HETATM   10  O   UNL     1      12.793   2.034  28.576  1.00  0.00    -0.624 OA
BRANCH   8  11
HETATM   11  O   UNL     1      12.453   4.174  27.405  1.00  0.00    -0.180 OA
BRANCH  11  12
HETATM   12  P   UNL     1      11.313   5.201  26.986  1.00  0.00     0.417 P 
HETATM   13  O   UNL     1      11.014   4.880  25.566  1.00  0.00    -0.624 OA
HETATM   14  O   UNL     1      10.208   5.118  27.987  1.00  0.00    -0.624 OA
BRANCH  12  15
HETATM   15  O   UNL     1      12.005   6.647  27.034  1.00  0.00    -0.287 OA
BRANCH  15  16
HETATM   16  C   UNL     1      12.023   7.485  25.884  1.00  0.00     0.216 C 
BRANCH  16  17
HETATM   17  C   UNL     1      11.530   8.859  26.262  1.00  0.00     0.180 C 
HETATM   18  C   UNL     1      12.271  10.010  25.568  1.00  0.00     0.182 C 
HETATM   19  C   UNL     1      13.238  10.510  26.641  1.00  0.00     0.198 C 
HETATM   20  C   UNL     1      12.454  10.240  27.924  1.00  0.00     0.263 C 
HETATM   21  O   UNL     1      11.689   9.075  27.690  1.00  0.00    -0.353 OA
BRANCH  18  22
HETATM   22  O   UNL     1      11.375  11.019  25.143  1.00  0.00    -0.390 OA
ATOM     23  HO  UNL     1      11.010  10.821  24.289  1.00  0.00     0.210 HD
ENDBRANCH  18  22
BRANCH  19  24
HETATM   24  O   UNL     1      13.534  11.884  26.545  1.00  0.00    -0.388 OA
ATOM     25  HO  UNL     1      14.190  12.025  25.873  1.00  0.00     0.210 HD
ENDBRANCH  19  24
BRANCH  20  26
HETATM   26  N   UNL     1      13.388   9.992  29.025  1.00  0.00    -0.280 N 
HETATM   27  C   UNL     1      13.940   8.745  29.186  1.00  0.00     0.104 A 
HETATM   28  C   UNL     1      14.837   8.471  30.133  1.00  0.00     0.092 A 
HETATM   29  C   UNL     1      15.258   9.520  31.007  1.00  0.00     0.250 A 
HETATM   30  O   UNL     1      16.070   9.411  31.912  1.00  0.00    -0.268 OA
HETATM   31  N   UNL     1      14.699  10.755  30.760  1.00  0.00    -0.275 N 
HETATM   32  C   UNL     1      13.776  11.070  29.808  1.00  0.00     0.331 A 
ATOM     33  HN  UNL     1      15.011  11.521  31.358  1.00  0.00     0.173 HD
HETATM   34  O   UNL     1      13.317  12.205  29.697  1.00  0.00    -0.246 OA
ENDBRANCH  20  26
ENDBRANCH  16  17
ENDBRANCH  15  16
ENDBRANCH  12  15
ENDBRANCH  11  12
ENDBRANCH   8  11
ENDBRANCH   7   8
ENDBRANCH   1   7
BRANCH   2  35
HETATM   35  N   UNL     1      15.466   3.693  28.397  1.00  0.00    -0.350 N 
HETATM   36  C   UNL     1      15.669   3.759  29.704  1.00  0.00     0.214 C 
HETATM   37  O   UNL     1      16.507   3.071  30.255  1.00  0.00    -0.274 OA
HETATM   38  C   UNL     1      14.816   4.746  30.444  1.00  0.00     0.117 C 
ATOM     39  HN  UNL     1      14.853   4.389  27.972  1.00  0.00     0.163 HD
ENDBRANCH   2  35
BRANCH   5  40
HETATM   40  C   UNL     1      16.247   0.447  23.834  1.00  0.00     0.206 C 
HETATM   41  O   UNL     1      17.270   0.387  23.284  1.00  0.00    -0.646 OA
HETATM   42  O   UNL     1      15.374  -0.306  23.561  1.00  0.00    -0.646 OA
ENDBRANCH   5  40
BRANCH   3  43
HETATM   43  N   UNL     1      18.145   3.713  27.127  1.00  0.00    -0.389 N 
HETATM   44  C   UNL     1      19.299   3.333  26.750  1.00  0.00     0.098 C 
ATOM     45  HN  UNL     1      18.087   4.300  27.959  1.00  0.00     0.159 HD
BRANCH  44  46
HETATM   46  C   UNL     1      20.492   3.784  27.505  1.00  0.00     0.024 A 
HETATM   47  C   UNL     1      20.531   3.617  28.907  1.00  0.00     0.100 A 
HETATM   48  C   UNL     1      21.693   3.974  29.616  1.00  0.00     0.039 A 
HETATM   49  N   UNL     1      22.727   4.520  28.980  1.00  0.00    -0.367 N 
HETATM   50  C   UNL     1      21.805   3.806  31.106  1.00  0.00     0.071 C 
HETATM   51  C   UNL     1      22.685   4.707  27.640  1.00  0.00     0.098 A 
ATOM     52  HN  UNL     1      23.555   4.799  29.506  1.00  0.00     0.165 HD
HETATM   53  C   UNL     1      21.611   4.357  26.870  1.00  0.00    -0.004 A 
BRANCH  47  54
HETATM   54  O   UNL     1      19.481   3.146  29.570  1.00  0.00    -0.358 OA
ATOM     55  HO  UNL     1      18.659   3.622  29.591  1.00  0.00     0.217 HD
ENDBRANCH  47  54
BRANCH  53  56
HETATM   56  C   UNL     1      21.690   4.535  25.379  1.00  0.00     0.223 C 
BRANCH  56  57
HETATM   57  O   UNL     1      22.963   5.153  25.022  1.00  0.00    -0.278 OA
BRANCH  57  58
HETATM   58  P   UNL     1      22.917   6.673  24.486  1.00  0.00     0.422 P 
HETATM   59  O   UNL     1      21.616   6.850  23.779  1.00  0.00    -0.617 OA
HETATM   60  O   UNL     1      24.086   6.871  23.525  1.00  0.00    -0.617 OA
HETATM   61  O   UNL     1      23.055   7.486  25.740  1.00  0.00    -0.617 OA
ENDBRANCH  57  58
ENDBRANCH  56  57
ENDBRANCH  53  56
ENDBRANCH  44  46
ENDBRANCH   3  43
BRANCH   4  62
HETATM   62  O   UNL     1      17.453   3.176  24.100  1.00  0.00    -0.390 OA
ATOM     63  HO  UNL     1      17.891   2.571  23.514  1.00  0.00     0.210 HD
ENDBRANCH   4  62
TORSDOF 19
ENDMDL
MODEL 18
REMARK VINA RESULT:    -7.805      2.662      4.633
REMARK INTER + INTRA:         -20.336
REMARK INTER:                 -14.879
REMARK INTRA:                  -5.457
REMARK UNBOUND:                -4.774
REMARK  19 active torsions:
REMARK  status: ('A' for Active; 'I' for Inactive)
REMARK    1  A    between atoms: P_1  and  O_63 
REMARK    2  A    between atoms: N_2  and  C_23 
REMARK    3  A    between atoms: C_5  and  O_8 
REMARK    4  A    between atoms: P_14  and  O_54 
REMARK    5  A    between atoms: P_14  and  O_37 
REMARK    6  A    between atoms: P_15  and  O_38 
REMARK    7  A    between atoms: P_15  and  O_37 
REMARK    8  A    between atoms: C_18  and  O_38 
REMARK    9  A    between atoms: C_24  and  N_25 
REMARK       I    between atoms: N_25  and  C_57 
REMARK   10  A    between atoms: C_31  and  O_32 
REMARK   11  A    between atoms: C_34  and  N_35 
REMARK   12  A    between atoms: C_39  and  O_40 
REMARK   13  A    between atoms: C_42  and  O_43 
REMARK   14  A    between atoms: C_45  and  C_46 
REMARK   15  A    between atoms: C_47  and  C_53 
REMARK   16  A    between atoms: C_49  and  C_55 
REMARK   17  A    between atoms: C_51  and  C_52 
REMARK   18  A    between atoms: C_52  and  O_63 
REMARK   19  A    between atoms: C_53  and  O_54 
ROOT
HETATM    1  C   UNL     1      14.761  -0.251  25.352  1.00  0.00     0.298 C 
HETATM    2  C   UNL     1      15.195   0.773  26.387  1.00  0.00     0.165 C 
HETATM    3  C   UNL     1      15.675   2.100  25.802  1.00  0.00     0.140 C 
HETATM    4  C   UNL     1      16.464   1.902  24.502  1.00  0.00     0.182 C 
HETATM    5  C   UNL     1      15.899   0.810  23.577  1.00  0.00     0.256 C 
HETATM    6  O   UNL     1      15.691  -0.398  24.306  1.00  0.00    -0.340 OA
ENDROOT
BRANCH   1   7
HETATM    7  O   UNL     1      13.530   0.152  24.857  1.00  0.00    -0.256 OA
BRANCH   7   8
HETATM    8  P   UNL     1      12.317  -0.880  24.804  1.00  0.00     0.420 P 
HETATM    9  O   UNL     1      12.334  -1.812  23.619  1.00  0.00    -0.624 OA
HETATM   10  O   UNL     1      12.313  -1.530  26.123  1.00  0.00    -0.624 OA
BRANCH   8  11
HETATM   11  O   UNL     1      11.139   0.185  24.802  1.00  0.00    -0.180 OA
BRANCH  11  12
HETATM   12  P   UNL     1      10.529   1.068  25.977  1.00  0.00     0.417 P 
HETATM   13  O   UNL     1       9.376   1.776  25.360  1.00  0.00    -0.624 OA
HETATM   14  O   UNL     1      10.280   0.184  27.154  1.00  0.00    -0.624 OA
BRANCH  12  15
HETATM   15  O   UNL     1      11.655   2.156  26.320  1.00  0.00    -0.287 OA
BRANCH  15  16
HETATM   16  C   UNL     1      11.440   3.537  26.053  1.00  0.00     0.216 C 
BRANCH  16  17
HETATM   17  C   UNL     1      12.705   4.303  26.345  1.00  0.00     0.180 C 
HETATM   18  C   UNL     1      13.017   4.466  27.838  1.00  0.00     0.182 C 
HETATM   19  C   UNL     1      12.568   5.894  28.145  1.00  0.00     0.198 C 
HETATM   20  C   UNL     1      12.840   6.601  26.818  1.00  0.00     0.263 C 
HETATM   21  O   UNL     1      12.616   5.648  25.800  1.00  0.00    -0.353 OA
BRANCH  18  22
HETATM   22  O   UNL     1      14.394   4.270  28.103  1.00  0.00    -0.390 OA
ATOM     23  HO  UNL     1      14.934   4.626  27.407  1.00  0.00     0.210 HD
ENDBRANCH  18  22
BRANCH  19  24
HETATM   24  O   UNL     1      13.304   6.515  29.173  1.00  0.00    -0.388 OA
ATOM     25  HO  UNL     1      13.795   7.247  28.820  1.00  0.00     0.210 HD
ENDBRANCH  19  24
BRANCH  20  26
HETATM   26  N   UNL     1      11.900   7.714  26.655  1.00  0.00    -0.280 N 
HETATM   27  C   UNL     1      10.597   7.572  27.062  1.00  0.00     0.104 A 
HETATM   28  C   UNL     1       9.708   8.563  26.991  1.00  0.00     0.092 A 
HETATM   29  C   UNL     1      10.131   9.833  26.490  1.00  0.00     0.250 A 
HETATM   30  O   UNL     1       9.427  10.823  26.373  1.00  0.00    -0.268 OA
HETATM   31  N   UNL     1      11.462   9.917  26.142  1.00  0.00    -0.275 N 
HETATM   32  C   UNL     1      12.395   8.925  26.194  1.00  0.00     0.331 A 
ATOM     33  HN  UNL     1      11.785  10.825  25.808  1.00  0.00     0.173 HD
HETATM   34  O   UNL     1      13.554   9.103  25.826  1.00  0.00    -0.246 OA
ENDBRANCH  20  26
ENDBRANCH  16  17
ENDBRANCH  15  16
ENDBRANCH  12  15
ENDBRANCH  11  12
ENDBRANCH   8  11
ENDBRANCH   7   8
ENDBRANCH   1   7
BRANCH   2  35
HETATM   35  N   UNL     1      14.120   0.998  27.326  1.00  0.00    -0.350 N 
HETATM   36  C   UNL     1      14.216   0.777  28.629  1.00  0.00     0.214 C 
HETATM   37  O   UNL     1      15.281   0.517  29.155  1.00  0.00    -0.274 OA
HETATM   38  C   UNL     1      12.936   0.891  29.401  1.00  0.00     0.117 C 
ATOM     39  HN  UNL     1      13.232   1.348  26.964  1.00  0.00     0.163 HD
ENDBRANCH   2  35
BRANCH   5  40
HETATM   40  C   UNL     1      16.761   0.455  22.357  1.00  0.00     0.206 C 
HETATM   41  O   UNL     1      17.382  -0.527  22.317  1.00  0.00    -0.646 OA
HETATM   42  O   UNL     1      16.813   1.234  21.465  1.00  0.00    -0.646 OA
ENDBRANCH   5  40
BRANCH   3  43
HETATM   43  N   UNL     1      16.532   2.656  26.853  1.00  0.00    -0.389 N 
HETATM   44  C   UNL     1      17.697   2.228  27.133  1.00  0.00     0.098 C 
ATOM     45  HN  UNL     1      16.170   3.439  27.398  1.00  0.00     0.159 HD
BRANCH  44  46
HETATM   46  C   UNL     1      18.479   2.901  28.196  1.00  0.00     0.024 A 
HETATM   47  C   UNL     1      17.882   3.136  29.454  1.00  0.00     0.100 A 
HETATM   48  C   UNL     1      18.647   3.705  30.490  1.00  0.00     0.039 A 
HETATM   49  N   UNL     1      19.906   4.074  30.270  1.00  0.00    -0.367 N 
HETATM   50  C   UNL     1      18.076   3.966  31.856  1.00  0.00     0.071 C 
HETATM   51  C   UNL     1      20.476   3.876  29.057  1.00  0.00     0.098 A 
ATOM     52  HN  UNL     1      20.445   4.509  31.018  1.00  0.00     0.165 HD
HETATM   53  C   UNL     1      19.817   3.298  28.008  1.00  0.00    -0.004 A 
BRANCH  47  54
HETATM   54  O   UNL     1      16.604   2.846  29.671  1.00  0.00    -0.358 OA
ATOM     55  HO  UNL     1      16.098   2.353  29.037  1.00  0.00     0.217 HD
ENDBRANCH  47  54
BRANCH  53  56
HETATM   56  C   UNL     1      20.560   3.051  26.724  1.00  0.00     0.223 C 
BRANCH  56  57
HETATM   57  O   UNL     1      20.678   4.297  25.974  1.00  0.00    -0.278 OA
BRANCH  57  58
HETATM   58  P   UNL     1      22.121   5.017  25.965  1.00  0.00     0.422 P 
HETATM   59  O   UNL     1      22.003   6.246  26.802  1.00  0.00    -0.617 OA
HETATM   60  O   UNL     1      22.462   5.376  24.521  1.00  0.00    -0.617 OA
HETATM   61  O   UNL     1      23.033   3.968  26.532  1.00  0.00    -0.617 OA
ENDBRANCH  57  58
ENDBRANCH  56  57
ENDBRANCH  53  56
ENDBRANCH  44  46
ENDBRANCH   3  43
BRANCH   4  62
HETATM   62  O   UNL     1      16.439   3.095  23.734  1.00  0.00    -0.390 OA
ATOM     63  HO  UNL     1      15.518   3.289  23.604  1.00  0.00     0.210 HD
ENDBRANCH   4  62
TORSDOF 19
ENDMDL
MODEL 19
REMARK VINA RESULT:    -7.623      1.970      2.921
REMARK INTER + INTRA:         -19.973
REMARK INTER:                 -15.123
REMARK INTRA:                  -4.850
REMARK UNBOUND:                -4.774
REMARK  19 active torsions:
REMARK  status: ('A' for Active; 'I' for Inactive)
REMARK    1  A    between atoms: P_1  and  O_63 
REMARK    2  A    between atoms: N_2  and  C_23 
REMARK    3  A    between atoms: C_5  and  O_8 
REMARK    4  A    between atoms: P_14  and  O_54 
REMARK    5  A    between atoms: P_14  and  O_37 
REMARK    6  A    between atoms: P_15  and  O_38 
REMARK    7  A    between atoms: P_15  and  O_37 
REMARK    8  A    between atoms: C_18  and  O_38 
REMARK    9  A    between atoms: C_24  and  N_25 
REMARK       I    between atoms: N_25  and  C_57 
REMARK   10  A    between atoms: C_31  and  O_32 
REMARK   11  A    between atoms: C_34  and  N_35 
REMARK   12  A    between atoms: C_39  and  O_40 
REMARK   13  A    between atoms: C_42  and  O_43 
REMARK   14  A    between atoms: C_45  and  C_46 
REMARK   15  A    between atoms: C_47  and  C_53 
REMARK   16  A    between atoms: C_49  and  C_55 
REMARK   17  A    between atoms: C_51  and  C_52 
REMARK   18  A    between atoms: C_52  and  O_63 
REMARK   19  A    between atoms: C_53  and  O_54 
ROOT
HETATM    1  C   UNL     1      15.722   2.564  28.299  1.00  0.00     0.298 C 
HETATM    2  C   UNL     1      16.930   2.859  27.425  1.00  0.00     0.165 C 
HETATM    3  C   UNL     1      18.272   2.764  28.148  1.00  0.00     0.140 C 
HETATM    4  C   UNL     1      18.188   3.288  29.587  1.00  0.00     0.182 C 
HETATM    5  C   UNL     1      16.888   2.916  30.322  1.00  0.00     0.256 C 
HETATM    6  O   UNL     1      15.755   3.254  29.526  1.00  0.00    -0.340 OA
ENDROOT
BRANCH   1   7
HETATM    7  O   UNL     1      15.686   1.194  28.513  1.00  0.00    -0.256 OA
BRANCH   7   8
HETATM    8  P   UNL     1      14.432   0.344  28.016  1.00  0.00     0.420 P 
HETATM    9  O   UNL     1      14.513  -0.120  26.585  1.00  0.00    -0.624 OA
HETATM   10  O   UNL     1      14.271  -0.718  29.020  1.00  0.00    -0.624 OA
BRANCH   8  11
HETATM   11  O   UNL     1      13.316   1.437  28.305  1.00  0.00    -0.180 OA
BRANCH  11  12
HETATM   12  P   UNL     1      12.294   1.589  29.515  1.00  0.00     0.417 P 
HETATM   13  O   UNL     1      11.310   0.492  29.321  1.00  0.00    -0.624 OA
HETATM   14  O   UNL     1      13.070   1.640  30.789  1.00  0.00    -0.624 OA
BRANCH  12  15
HETATM   15  O   UNL     1      11.540   2.982  29.262  1.00  0.00    -0.287 OA
BRANCH  15  16
HETATM   16  C   UNL     1      12.027   3.909  28.298  1.00  0.00     0.216 C 
BRANCH  16  17
HETATM   17  C   UNL     1      10.875   4.413  27.467  1.00  0.00     0.180 C 
HETATM   18  C   UNL     1      11.092   4.303  25.951  1.00  0.00     0.182 C 
HETATM   19  C   UNL     1      11.475   5.724  25.540  1.00  0.00     0.198 C 
HETATM   20  C   UNL     1      10.686   6.566  26.543  1.00  0.00     0.263 C 
HETATM   21  O   UNL     1      10.633   5.819  27.741  1.00  0.00    -0.353 OA
BRANCH  18  22
HETATM   22  O   UNL     1       9.922   3.853  25.294  1.00  0.00    -0.390 OA
ATOM     23  HO  UNL     1       9.603   4.499  24.675  1.00  0.00     0.210 HD
ENDBRANCH  18  22
BRANCH  19  24
HETATM   24  O   UNL     1      11.089   6.062  24.228  1.00  0.00    -0.388 OA
ATOM     25  HO  UNL     1      10.144   6.139  24.182  1.00  0.00     0.210 HD
ENDBRANCH  19  24
BRANCH  20  26
HETATM   26  N   UNL     1      11.394   7.825  26.788  1.00  0.00    -0.280 N 
HETATM   27  C   UNL     1      12.722   7.938  26.458  1.00  0.00     0.104 A 
HETATM   28  C   UNL     1      13.407   9.073  26.605  1.00  0.00     0.092 A 
HETATM   29  C   UNL     1      12.729  10.226  27.108  1.00  0.00     0.250 A 
HETATM   30  O   UNL     1      13.231  11.324  27.289  1.00  0.00    -0.268 OA
HETATM   31  N   UNL     1      11.388  10.053  27.375  1.00  0.00    -0.275 N 
HETATM   32  C   UNL     1      10.659   8.910  27.244  1.00  0.00     0.331 A 
ATOM     33  HN  UNL     1      10.885  10.875  27.708  1.00  0.00     0.173 HD
HETATM   34  O   UNL     1       9.468   8.860  27.544  1.00  0.00    -0.246 OA
ENDBRANCH  20  26
ENDBRANCH  16  17
ENDBRANCH  15  16
ENDBRANCH  12  15
ENDBRANCH  11  12
ENDBRANCH   8  11
ENDBRANCH   7   8
ENDBRANCH   1   7
BRANCH   2  35
HETATM   35  N   UNL     1      16.917   1.986  26.273  1.00  0.00    -0.350 N 
HETATM   36  C   UNL     1      16.576   2.375  25.054  1.00  0.00     0.214 C 
HETATM   37  O   UNL     1      16.399   3.548  24.784  1.00  0.00    -0.274 OA
HETATM   38  C   UNL     1      16.445   1.281  24.037  1.00  0.00     0.117 C 
ATOM     39  HN  UNL     1      17.188   1.011  26.406  1.00  0.00     0.163 HD
ENDBRANCH   2  35
BRANCH   5  40
HETATM   40  C   UNL     1      16.685   3.573  31.695  1.00  0.00     0.206 C 
HETATM   41  O   UNL     1      17.388   3.336  32.590  1.00  0.00    -0.646 OA
HETATM   42  O   UNL     1      15.760   4.300  31.834  1.00  0.00    -0.646 OA
ENDBRANCH   5  40
BRANCH   3  43
HETATM   43  N   UNL     1      19.164   3.601  27.339  1.00  0.00    -0.389 N 
HETATM   44  C   UNL     1      20.224   3.185  26.774  1.00  0.00     0.098 C 
ATOM     45  HN  UNL     1      18.918   4.584  27.223  1.00  0.00     0.159 HD
BRANCH  44  46
HETATM   46  C   UNL     1      21.022   4.124  25.951  1.00  0.00     0.024 A 
HETATM   47  C   UNL     1      20.428   4.739  24.827  1.00  0.00     0.100 A 
HETATM   48  C   UNL     1      21.159   5.690  24.089  1.00  0.00     0.039 A 
HETATM   49  N   UNL     1      22.420   5.965  24.411  1.00  0.00    -0.367 N 
HETATM   50  C   UNL     1      20.579   6.391  22.892  1.00  0.00     0.071 C 
HETATM   51  C   UNL     1      23.003   5.359  25.473  1.00  0.00     0.098 A 
ATOM     52  HN  UNL     1      22.950   6.636  23.856  1.00  0.00     0.165 HD
HETATM   53  C   UNL     1      22.355   4.451  26.263  1.00  0.00    -0.004 A 
BRANCH  47  54
HETATM   54  O   UNL     1      19.197   4.421  24.441  1.00  0.00    -0.358 OA
ATOM     55  HO  UNL     1      18.977   4.339  23.521  1.00  0.00     0.217 HD
ENDBRANCH  47  54
BRANCH  53  56
HETATM   56  C   UNL     1      23.064   3.890  27.465  1.00  0.00     0.223 C 
BRANCH  56  57
HETATM   57  O   UNL     1      23.246   4.937  28.465  1.00  0.00    -0.278 OA
BRANCH  57  58
HETATM   58  P   UNL     1      22.195   4.978  29.687  1.00  0.00     0.422 P 
HETATM   59  O   UNL     1      21.869   3.564  30.032  1.00  0.00    -0.617 OA
HETATM   60  O   UNL     1      20.948   5.720  29.213  1.00  0.00    -0.617 OA
HETATM   61  O   UNL     1      22.938   5.720  30.759  1.00  0.00    -0.617 OA
ENDBRANCH  57  58
ENDBRANCH  56  57
ENDBRANCH  53  56
ENDBRANCH  44  46
ENDBRANCH   3  43
BRANCH   4  62
HETATM   62  O   UNL     1      19.233   2.730  30.367  1.00  0.00    -0.390 OA
ATOM     63  HO  UNL     1      18.971   1.832  30.532  1.00  0.00     0.210 HD
ENDBRANCH   4  62
TORSDOF 19
ENDMDL
MODEL 20
REMARK VINA RESULT:    -7.560      2.495      4.677
REMARK INTER + INTRA:         -19.847
REMARK INTER:                 -15.729
REMARK INTRA:                  -4.118
REMARK UNBOUND:                -4.774
REMARK  19 active torsions:
REMARK  status: ('A' for Active; 'I' for Inactive)
REMARK    1  A    between atoms: P_1  and  O_63 
REMARK    2  A    between atoms: N_2  and  C_23 
REMARK    3  A    between atoms: C_5  and  O_8 
REMARK    4  A    between atoms: P_14  and  O_54 
REMARK    5  A    between atoms: P_14  and  O_37 
REMARK    6  A    between atoms: P_15  and  O_38 
REMARK    7  A    between atoms: P_15  and  O_37 
REMARK    8  A    between atoms: C_18  and  O_38 
REMARK    9  A    between atoms: C_24  and  N_25 
REMARK       I    between atoms: N_25  and  C_57 
REMARK   10  A    between atoms: C_31  and  O_32 
REMARK   11  A    between atoms: C_34  and  N_35 
REMARK   12  A    between atoms: C_39  and  O_40 
REMARK   13  A    between atoms: C_42  and  O_43 
REMARK   14  A    between atoms: C_45  and  C_46 
REMARK   15  A    between atoms: C_47  and  C_53 
REMARK   16  A    between atoms: C_49  and  C_55 
REMARK   17  A    between atoms: C_51  and  C_52 
REMARK   18  A    between atoms: C_52  and  O_63 
REMARK   19  A    between atoms: C_53  and  O_54 
ROOT
HETATM    1  C   UNL     1      14.770   1.654  26.418  1.00  0.00     0.298 C 
HETATM    2  C   UNL     1      15.802   2.750  26.623  1.00  0.00     0.165 C 
HETATM    3  C   UNL     1      16.405   3.300  25.331  1.00  0.00     0.140 C 
HETATM    4  C   UNL     1      16.612   2.202  24.281  1.00  0.00     0.182 C 
HETATM    5  C   UNL     1      15.481   1.160  24.221  1.00  0.00     0.256 C 
HETATM    6  O   UNL     1      15.204   0.655  25.526  1.00  0.00    -0.340 OA
ENDROOT
BRANCH   1   7
HETATM    7  O   UNL     1      13.610   2.254  25.949  1.00  0.00    -0.256 OA
BRANCH   7   8
HETATM    8  P   UNL     1      12.337   2.375  26.901  1.00  0.00     0.420 P 
HETATM    9  O   UNL     1      11.092   1.708  26.376  1.00  0.00    -0.624 OA
HETATM   10  O   UNL     1      12.801   1.910  28.217  1.00  0.00    -0.624 OA
BRANCH   8  11
HETATM   11  O   UNL     1      12.275   3.961  26.960  1.00  0.00    -0.180 OA
BRANCH  11  12
HETATM   12  P   UNL     1      11.034   4.958  26.949  1.00  0.00     0.417 P 
HETATM   13  O   UNL     1      10.469   4.846  25.579  1.00  0.00    -0.624 OA
HETATM   14  O   UNL     1      10.157   4.636  28.114  1.00  0.00    -0.624 OA
BRANCH  12  15
HETATM   15  O   UNL     1      11.665   6.424  27.110  1.00  0.00    -0.287 OA
BRANCH  15  16
HETATM   16  C   UNL     1      11.839   7.270  25.979  1.00  0.00     0.216 C 
BRANCH  16  17
HETATM   17  C   UNL     1      11.320   8.647  26.304  1.00  0.00     0.180 C 
HETATM   18  C   UNL     1      12.017   9.782  25.542  1.00  0.00     0.182 C 
HETATM   19  C   UNL     1      12.993  10.356  26.569  1.00  0.00     0.198 C 
HETATM   20  C   UNL     1      12.243  10.126  27.880  1.00  0.00     0.263 C 
HETATM   21  O   UNL     1      11.503   8.934  27.717  1.00  0.00    -0.353 OA
BRANCH  18  22
HETATM   22  O   UNL     1      11.086  10.749  25.092  1.00  0.00    -0.390 OA
ATOM     23  HO  UNL     1      10.349  10.341  24.652  1.00  0.00     0.210 HD
ENDBRANCH  18  22
BRANCH  19  24
HETATM   24  O   UNL     1      13.252  11.730  26.404  1.00  0.00    -0.388 OA
ATOM     25  HO  UNL     1      14.125  11.932  26.717  1.00  0.00     0.210 HD
ENDBRANCH  19  24
BRANCH  20  26
HETATM   26  N   UNL     1      13.207   9.953  28.970  1.00  0.00    -0.280 N 
HETATM   27  C   UNL     1      13.784   8.725  29.183  1.00  0.00     0.104 A 
HETATM   28  C   UNL     1      14.707   8.517  30.123  1.00  0.00     0.092 A 
HETATM   29  C   UNL     1      15.130   9.618  30.929  1.00  0.00     0.250 A 
HETATM   30  O   UNL     1      15.964   9.570  31.819  1.00  0.00    -0.268 OA
HETATM   31  N   UNL     1      14.543  10.828  30.631  1.00  0.00    -0.275 N 
HETATM   32  C   UNL     1      13.593  11.077  29.686  1.00  0.00     0.331 A 
ATOM     33  HN  UNL     1      14.855  11.629  31.180  1.00  0.00     0.173 HD
HETATM   34  O   UNL     1      13.112  12.197  29.526  1.00  0.00    -0.246 OA
ENDBRANCH  20  26
ENDBRANCH  16  17
ENDBRANCH  15  16
ENDBRANCH  12  15
ENDBRANCH  11  12
ENDBRANCH   8  11
ENDBRANCH   7   8
ENDBRANCH   1   7
BRANCH   2  35
HETATM   35  N   UNL     1      15.222   3.821  27.402  1.00  0.00    -0.350 N 
HETATM   36  C   UNL     1      15.335   3.923  28.717  1.00  0.00     0.214 C 
HETATM   37  O   UNL     1      16.078   3.200  29.352  1.00  0.00    -0.274 OA
HETATM   38  C   UNL     1      14.506   4.996  29.357  1.00  0.00     0.117 C 
ATOM     39  HN  UNL     1      14.694   4.541  26.908  1.00  0.00     0.163 HD
ENDBRANCH   2  35
BRANCH   5  40
HETATM   40  C   UNL     1      15.736  -0.053  23.315  1.00  0.00     0.206 C 
HETATM   41  O   UNL     1      16.629  -0.076  22.570  1.00  0.00    -0.646 OA
HETATM   42  O   UNL     1      14.970  -0.955  23.361  1.00  0.00    -0.646 OA
ENDBRANCH   5  40
BRANCH   3  43
HETATM   43  N   UNL     1      17.690   3.863  25.758  1.00  0.00    -0.389 N 
HETATM   44  C   UNL     1      18.746   3.180  25.946  1.00  0.00     0.098 C 
ATOM     45  HN  UNL     1      17.740   4.869  25.915  1.00  0.00     0.159 HD
BRANCH  44  46
HETATM   46  C   UNL     1      19.995   3.874  26.342  1.00  0.00     0.024 A 
HETATM   47  C   UNL     1      20.719   4.605  25.375  1.00  0.00     0.100 A 
HETATM   48  C   UNL     1      21.862   5.328  25.765  1.00  0.00     0.039 A 
HETATM   49  N   UNL     1      22.293   5.276  27.023  1.00  0.00    -0.367 N 
HETATM   50  C   UNL     1      22.669   6.138  24.788  1.00  0.00     0.071 C 
HETATM   51  C   UNL     1      21.617   4.554  27.949  1.00  0.00     0.098 A 
ATOM     52  HN  UNL     1      23.137   5.782  27.291  1.00  0.00     0.165 HD
HETATM   53  C   UNL     1      20.479   3.853  27.664  1.00  0.00    -0.004 A 
BRANCH  47  54
HETATM   54  O   UNL     1      20.350   4.607  24.099  1.00  0.00    -0.358 OA
ATOM     55  HO  UNL     1      20.191   3.795  23.633  1.00  0.00     0.217 HD
ENDBRANCH  47  54
BRANCH  53  56
HETATM   56  C   UNL     1      19.758   3.145  28.777  1.00  0.00     0.223 C 
BRANCH  56  57
HETATM   57  O   UNL     1      20.544   3.224  30.004  1.00  0.00    -0.278 OA
BRANCH  57  58
HETATM   58  P   UNL     1      19.894   4.026  31.244  1.00  0.00     0.422 P 
HETATM   59  O   UNL     1      19.540   3.015  32.281  1.00  0.00    -0.617 OA
HETATM   60  O   UNL     1      18.645   4.744  30.739  1.00  0.00    -0.617 OA
HETATM   61  O   UNL     1      20.983   4.974  31.651  1.00  0.00    -0.617 OA
ENDBRANCH  57  58
ENDBRANCH  56  57
ENDBRANCH  53  56
ENDBRANCH  44  46
ENDBRANCH   3  43
BRANCH   4  62
HETATM   62  O   UNL     1      16.662   2.776  22.984  1.00  0.00    -0.390 OA
ATOM     63  HO  UNL     1      15.945   3.398  22.957  1.00  0.00     0.210 HD
ENDBRANCH   4  62
TORSDOF 19
ENDMDL
