REMARK  7 active torsions:
REMARK  status: ('A' for Active; 'I' for Inactive)
REMARK       I    between atoms: N_1  and  C_5 
REMARK    1  A    between atoms: N_1  and  C_6 
REMARK    2  A    between atoms: C_3  and  C_5 
REMARK    3  A    between atoms: C_10  and  O_29 
REMARK    4  A    between atoms: C_11  and  O_29 
REMARK    5  A    between atoms: C_20  and  S_21 
REMARK    6  A    between atoms: S_21  and  N_22 
REMARK    7  A    between atoms: N_22  and  C_25 
ROOT
HETATM    1  C   UNL     1      -1.747   0.105   1.390  1.00  0.00     0.036 A 
HETATM    2  C   UNL     1      -1.651  -0.319   3.783  1.00  0.00     0.004 A 
HETATM    3  C   UNL     1      -0.601   0.907   1.501  1.00  0.00     0.054 A 
HETATM    4  C   UNL     1      -2.278  -0.494   2.546  1.00  0.00     0.029 A 
HETATM    5  C   UNL     1      -0.496   0.461   3.880  1.00  0.00     0.025 A 
HETATM    6  C   UNL     1       0.034   1.076   2.739  1.00  0.00     0.082 A 
ENDROOT
BRANCH   6   7
HETATM    7  S   UNL     1       1.495   2.053   2.854  1.00  0.00     0.263 S 
HETATM    8  O   UNL     1       1.100   3.493   3.028  1.00  0.00    -0.200 OA
HETATM    9  O   UNL     1       2.326   1.627   4.032  1.00  0.00    -0.200 OA
BRANCH   7  10
HETATM   10  N   UNL     1       2.439   1.891   1.406  1.00  0.00    -0.281 N 
HETATM   11  H   UNL     1       2.646   2.768   0.877  1.00  0.00     0.179 HD
BRANCH  10  12
HETATM   12  C   UNL     1       2.861   0.629   0.857  1.00  0.00     0.042 A 
HETATM   13  C   UNL     1       2.712  -0.578   1.563  1.00  0.00     0.033 A 
HETATM   14  C   UNL     1       3.123  -1.786   0.994  1.00  0.00     0.039 A 
HETATM   15  C   UNL     1       3.696  -1.816  -0.282  1.00  0.00     0.078 A 
HETATM   16  C   UNL     1       3.855  -0.608  -0.988  1.00  0.00     0.039 A 
HETATM   17  C   UNL     1       3.442   0.600  -0.419  1.00  0.00     0.033 A 
BRANCH  15  18
HETATM   18  O   UNL     1       4.090  -3.059  -0.804  1.00  0.00    -0.255 OA
BRANCH  18  19
HETATM   19  C   UNL     1       4.692  -3.263  -2.080  1.00  0.00     0.530 C 
HETATM   20  F   UNL     1       3.840  -2.839  -3.084  1.00  0.00    -0.144 F 
HETATM   21  F   UNL     1       4.942  -4.611  -2.247  1.00  0.00    -0.144 F 
HETATM   22  F   UNL     1       5.890  -2.575  -2.157  1.00  0.00    -0.144 F 
ENDBRANCH  18  19
ENDBRANCH  15  18
ENDBRANCH  10  12
ENDBRANCH   7  10
ENDBRANCH   6   7
BRANCH   1  23
HETATM   23  N   UNL     1      -2.383  -0.044   0.109  1.00  0.00    -0.323 N 
HETATM   24  C   UNL     1      -3.097  -1.224  -0.296  1.00  0.00     0.256 C 
HETATM   25  O   UNL     1      -2.877  -2.319   0.290  1.00  0.00    -0.267 OA
HETATM   26  H   UNL     1      -2.214   0.698  -0.608  1.00  0.00     0.169 HD
BRANCH  24  27
HETATM   27  C   UNL     1      -4.054  -1.183  -1.429  1.00  0.00     0.038 A 
HETATM   28  C   UNL     1      -4.623   0.034  -1.851  1.00  0.00     0.059 A 
HETATM   29  C   UNL     1      -5.529   0.059  -2.917  1.00  0.00     0.120 A 
HETATM   30  C   UNL     1      -5.878  -1.126  -3.569  1.00  0.00     0.084 A 
HETATM   31  F   UNL     1      -6.073   1.236  -3.315  1.00  0.00    -0.206 F 
HETATM   32  C   UNL     1      -5.328  -2.340  -3.153  1.00  0.00     0.120 A 
HETATM   33  C   UNL     1      -4.423  -2.371  -2.087  1.00  0.00     0.059 A 
HETATM   34  F   UNL     1      -5.671  -3.490  -3.784  1.00  0.00    -0.206 F 
ENDBRANCH  24  27
ENDBRANCH   1  23
TORSDOF 7
