REMARK  7 active torsions:
REMARK  status: ('A' for Active; 'I' for Inactive)
REMARK    1  A    between atoms: N_1  and  C_7 
REMARK       I    between atoms: N_1  and  C_6 
REMARK    2  A    between atoms: C_4  and  C_6 
REMARK    3  A    between atoms: C_11  and  O_31 
REMARK    4  A    between atoms: C_12  and  O_31 
REMARK    5  A    between atoms: C_21  and  S_22 
REMARK    6  A    between atoms: S_22  and  N_23 
REMARK    7  A    between atoms: N_23  and  C_27 
ROOT
HETATM    1  C   UNL     1      23.363 -41.607   5.224  1.00  0.00     0.036 A 
HETATM    2  C   UNL     1      22.310 -43.113   6.779  1.00  0.00     0.004 A 
HETATM    3  C   UNL     1      22.287 -40.719   5.351  1.00  0.00     0.054 A 
HETATM    4  C   UNL     1      23.362 -42.804   5.941  1.00  0.00     0.029 A 
HETATM    5  C   UNL     1      21.225 -42.260   6.895  1.00  0.00     0.025 A 
HETATM    6  C   UNL     1      21.228 -41.066   6.180  1.00  0.00     0.082 A 
ENDROOT
BRANCH   6   7
HETATM    7  S   UNL     1      19.822 -39.996   6.275  1.00  0.00     0.263 S 
HETATM    8  O   UNL     1      18.699 -40.839   5.960  1.00  0.00    -0.200 OA
HETATM    9  O   UNL     1      20.069 -38.797   5.471  1.00  0.00    -0.200 OA
BRANCH   7  10
HETATM   10  N   UNL     1      19.715 -39.506   7.799  1.00  0.00    -0.281 N 
ATOM     11  HN  UNL     1      18.910 -39.825   8.338  1.00  0.00     0.179 HD
BRANCH  10  12
HETATM   12  C   UNL     1      20.649 -38.665   8.458  1.00  0.00     0.042 A 
HETATM   13  C   UNL     1      21.745 -38.129   7.798  1.00  0.00     0.033 A 
HETATM   14  C   UNL     1      22.642 -37.340   8.485  1.00  0.00     0.039 A 
HETATM   15  C   UNL     1      22.421 -37.056   9.829  1.00  0.00     0.078 A 
HETATM   16  C   UNL     1      21.336 -37.606  10.496  1.00  0.00     0.039 A 
HETATM   17  C   UNL     1      20.449 -38.403   9.804  1.00  0.00     0.033 A 
BRANCH  15  18
HETATM   18  O   UNL     1      23.323 -36.216  10.533  1.00  0.00    -0.255 OA
BRANCH  18  19
HETATM   19  C   UNL     1      24.421 -36.805  10.987  1.00  0.00     0.530 C 
HETATM   20  F   UNL     1      25.185 -35.946  11.653  1.00  0.00    -0.144 F 
HETATM   21  F   UNL     1      24.066 -37.769  11.823  1.00  0.00    -0.144 F 
HETATM   22  F   UNL     1      25.133 -37.354   9.983  1.00  0.00    -0.144 F 
ENDBRANCH  18  19
ENDBRANCH  15  18
ENDBRANCH  10  12
ENDBRANCH   7  10
ENDBRANCH   6   7
BRANCH   1  23
HETATM   23  N   UNL     1      24.490 -41.293   4.428  1.00  0.00    -0.323 N 
HETATM   24  C   UNL     1      24.679 -40.233   3.586  1.00  0.00     0.256 C 
HETATM   25  O   UNL     1      23.820 -39.376   3.375  1.00  0.00    -0.267 OA
ATOM     26  HN  UNL     1      25.269 -41.948   4.491  1.00  0.00     0.169 HD
BRANCH  24  27
HETATM   27  C   UNL     1      26.038 -40.136   2.939  1.00  0.00     0.038 A 
HETATM   28  C   UNL     1      26.880 -41.227   2.666  1.00  0.00     0.059 A 
HETATM   29  C   UNL     1      28.116 -40.990   2.091  1.00  0.00     0.120 A 
HETATM   30  F   UNL     1      28.950 -42.036   1.822  1.00  0.00    -0.206 F 
HETATM   31  C   UNL     1      28.567 -39.738   1.758  1.00  0.00     0.084 A 
HETATM   32  C   UNL     1      27.716 -38.700   2.038  1.00  0.00     0.120 A 
HETATM   33  F   UNL     1      28.136 -37.443   1.739  1.00  0.00    -0.206 F 
HETATM   34  C   UNL     1      26.472 -38.855   2.606  1.00  0.00     0.059 A 
ENDBRANCH  24  27
ENDBRANCH   1  23
TORSDOF 7
