REMARK  15 active torsions:
REMARK  status: ('A' for Active; 'I' for Inactive)
REMARK    1  A    between atoms: P_1  and  O_2 
REMARK    2  A    between atoms: P_1  and  O_4 
REMARK    3  A    between atoms: P_1  and  O_5 
REMARK    4  A    between atoms: O_4  and  P_6 
REMARK    5  A    between atoms: O_5  and  C_14 
REMARK    6  A    between atoms: P_6  and  O_7 
REMARK    7  A    between atoms: P_6  and  O_9 
REMARK    8  A    between atoms: O_9  and  P_10 
REMARK    9  A    between atoms: P_10  and  O_11 
REMARK   10  A    between atoms: P_10  and  O_13 
REMARK   11  A    between atoms: C_14  and  C_15 
REMARK   12  A    between atoms: C_17  and  O_18 
REMARK   13  A    between atoms: C_19  and  O_20 
REMARK   14  A    between atoms: C_21  and  N_22 
REMARK   15  A    between atoms: C_30  and  N_31 
ROOT
HETATM    1  C   UNL     1       0.474   0.243  -1.012  1.00  0.00     0.180 C 
HETATM    2  O   UNL     1       1.185  -0.862  -1.537  1.00  0.00    -0.353 OA
HETATM    3  C   UNL     1      -0.873   0.358  -1.735  1.00  0.00     0.182 C 
HETATM    4  C   UNL     1      -1.116  -1.067  -2.166  1.00  0.00     0.198 C 
HETATM    5  C   UNL     1       0.299  -1.623  -2.333  1.00  0.00     0.262 C 
ENDROOT
BRANCH   1   6
HETATM    6  C   UNL     1       0.300   0.056   0.501  1.00  0.00     0.215 C 
BRANCH   6   7
HETATM    7  O   UNL     1      -0.307   1.198   1.055  1.00  0.00    -0.294 OA
BRANCH   7   8
HETATM    8  P   UNL     1      -0.467   0.963   2.738  1.00  0.00     0.401 P 
HETATM    9  O   UNL     1       0.897   0.937   3.390  1.00  0.00    -0.631 OA
BRANCH   8  10
HETATM   10  O   UNL     1      -1.242  -0.511   3.035  1.00  0.00    -0.307 OA
HETATM   11  H   UNL     1      -1.381  -0.531   4.016  1.00  0.00     0.222 HD
ENDBRANCH   8  10
BRANCH   8  12
HETATM   12  O   UNL     1      -1.404   2.200   3.437  1.00  0.00    -0.195 OA
BRANCH  12  13
HETATM   13  P   UNL     1      -0.877   3.686   2.796  1.00  0.00     0.410 P 
HETATM   14  O   UNL     1      -1.579   4.783   3.561  1.00  0.00    -0.631 OA
BRANCH  13  15
HETATM   15  O   UNL     1       0.797   3.862   3.009  1.00  0.00    -0.307 OA
HETATM   16  H   UNL     1       1.210   3.379   2.249  1.00  0.00     0.222 HD
ENDBRANCH  13  15
BRANCH  13  17
HETATM   17  O   UNL     1      -1.307   3.769   1.148  1.00  0.00    -0.195 OA
BRANCH  17  18
HETATM   18  P   UNL     1      -0.763   5.263   0.532  1.00  0.00     0.399 P 
HETATM   19  O   UNL     1       0.749   5.320   0.541  1.00  0.00    -0.631 OA
BRANCH  18  20
HETATM   20  O   UNL     1      -1.303   5.416  -1.062  1.00  0.00    -0.307 OA
HETATM   21  H   UNL     1      -0.906   4.646  -1.541  1.00  0.00     0.222 HD
ENDBRANCH  18  20
BRANCH  18  22
HETATM   22  O   UNL     1      -1.385   6.551   1.438  1.00  0.00    -0.307 OA
HETATM   23  H   UNL     1      -1.064   7.364   0.974  1.00  0.00     0.222 HD
ENDBRANCH  18  22
ENDBRANCH  17  18
ENDBRANCH  13  17
ENDBRANCH  12  13
ENDBRANCH   8  12
ENDBRANCH   7   8
ENDBRANCH   6   7
ENDBRANCH   1   6
BRANCH   3  24
HETATM   24  O   UNL     1      -0.748   1.204  -2.850  1.00  0.00    -0.390 OA
HETATM   25  H   UNL     1      -0.769   2.133  -2.503  1.00  0.00     0.210 HD
ENDBRANCH   3  24
BRANCH   5  26
HETATM   26  N   UNL     1       0.346  -3.039  -1.957  1.00  0.00    -0.296 N 
HETATM   27  C   UNL     1      -0.097  -4.087  -2.702  1.00  0.00     0.190 A 
HETATM   28  N   UNL     1       0.017  -5.269  -2.043  1.00  0.00    -0.340 N 
HETATM   29  C   UNL     1      -0.311  -6.595  -2.557  1.00  0.00     0.157 C 
HETATM   30  C   UNL     1       0.558  -4.944  -0.852  1.00  0.00     0.149 A 
HETATM   31  C   UNL     1       0.948  -5.739   0.225  1.00  0.00     0.290 A 
HETATM   32  C   UNL     1       0.742  -3.603  -0.801  1.00  0.00     0.159 A 
HETATM   33  O   UNL     1       0.801  -6.990   0.207  1.00  0.00    -0.265 OA
HETATM   34  N   UNL     1       1.504  -5.119   1.312  1.00  0.00    -0.154 N 
HETATM   35  C   UNL     1       1.677  -3.755   1.341  1.00  0.00     0.680 A 
HETATM   36  H   UNL     1       1.808  -5.696   2.134  1.00  0.00     0.187 HD
HETATM   37  N   UNL     1       1.299  -2.989   0.272  1.00  0.00    -0.174 N 
ATOM     38  HN  UNL     1       1.433  -1.978   0.282  1.00  0.00     0.186 HD
BRANCH  35  39
HETATM   39  N   UNL     1       2.265  -3.130   2.485  1.00  0.00    -0.234 N 
HETATM   40  H   UNL     1       2.385  -2.093   2.512  1.00  0.00     0.174 HD
HETATM   41  H   UNL     1       2.594  -3.699   3.297  1.00  0.00     0.174 HD
ENDBRANCH  35  39
ENDBRANCH   5  26
BRANCH   4  42
HETATM   42  O   UNL     1      -1.903  -1.174  -3.330  1.00  0.00    -0.388 OA
HETATM   43  H   UNL     1      -1.387  -0.817  -4.097  1.00  0.00     0.210 HD
ENDBRANCH   4  42
TORSDOF 15
