MODEL 1
REMARK VINA RESULT:    -6.659      0.000      0.000
REMARK INTER + INTRA:          -7.078
REMARK INTER:                  -7.048
REMARK INTRA:                  -0.030
REMARK UNBOUND:                -0.030
REMARK  1 active torsions:
REMARK  status: ('A' for Active; 'I' for Inactive)
REMARK    1  A    between atoms: C_4  and  C_8 
REMARK       I    between atoms: C_8  and  N_10 
ROOT
HETATM    1  N   UNL     1      13.453  10.229   7.598  1.00  0.00    -0.374 N 
ATOM      2  HN  UNL     1      12.647  10.752   7.937  1.00  0.00     0.164 HD
HETATM    3  C   UNL     1      13.746  10.237   6.288  1.00  0.00     0.104 A 
HETATM    4  C   UNL     1      14.823   9.521   5.786  1.00  0.00     0.047 A 
HETATM    5  C   UNL     1      15.622   8.813   6.684  1.00  0.00     0.020 A 
HETATM    6  C   UNL     1      15.287   8.813   8.027  1.00  0.00     0.018 A 
HETATM    7  C   UNL     1      14.211   9.542   8.463  1.00  0.00     0.087 A 
ENDROOT
BRANCH   4   8
HETATM    8  C   UNL     1      15.095   9.549   4.308  1.00  0.00     0.250 C 
HETATM    9  O   UNL     1      14.344  10.245   3.601  1.00  0.00    -0.268 OA
HETATM   10  N   UNL     1      16.093   8.843   3.818  1.00  0.00    -0.366 N 
ATOM     11  HN2 UNL     1      16.709   8.273   4.397  1.00  0.00     0.159 HD
ATOM     12  HN1 UNL     1      16.278   8.861   2.815  1.00  0.00     0.159 HD
ENDBRANCH   4   8
TORSDOF 1
ENDMDL
MODEL 2
REMARK VINA RESULT:    -6.449      2.309      4.004
REMARK INTER + INTRA:          -6.856
REMARK INTER:                  -6.831
REMARK INTRA:                  -0.024
REMARK UNBOUND:                -0.030
REMARK  1 active torsions:
REMARK  status: ('A' for Active; 'I' for Inactive)
REMARK    1  A    between atoms: C_4  and  C_8 
REMARK       I    between atoms: C_8  and  N_10 
ROOT
HETATM    1  N   UNL     1      15.987   8.583   6.554  1.00  0.00    -0.374 N 
ATOM      2  HN  UNL     1      16.795   7.969   6.656  1.00  0.00     0.164 HD
HETATM    3  C   UNL     1      15.278   8.933   7.639  1.00  0.00     0.104 A 
HETATM    4  C   UNL     1      14.161   9.750   7.537  1.00  0.00     0.047 A 
HETATM    5  C   UNL     1      13.806  10.230   6.276  1.00  0.00     0.020 A 
HETATM    6  C   UNL     1      14.549   9.841   5.174  1.00  0.00     0.018 A 
HETATM    7  C   UNL     1      15.644   9.032   5.340  1.00  0.00     0.087 A 
ENDROOT
BRANCH   4   8
HETATM    8  C   UNL     1      13.392  10.097   8.781  1.00  0.00     0.250 C 
HETATM    9  O   UNL     1      13.031  11.280   8.919  1.00  0.00    -0.268 OA
HETATM   10  N   UNL     1      13.140   9.159   9.671  1.00  0.00    -0.366 N 
ATOM     11  HN2 UNL     1      13.435   8.190   9.558  1.00  0.00     0.159 HD
ATOM     12  HN1 UNL     1      12.618   9.394  10.516  1.00  0.00     0.159 HD
ENDBRANCH   4   8
TORSDOF 1
ENDMDL
MODEL 3
REMARK VINA RESULT:    -6.339      2.318      3.799
REMARK INTER + INTRA:          -6.740
REMARK INTER:                  -6.715
REMARK INTRA:                  -0.025
REMARK UNBOUND:                -0.030
REMARK  1 active torsions:
REMARK  status: ('A' for Active; 'I' for Inactive)
REMARK    1  A    between atoms: C_4  and  C_8 
REMARK       I    between atoms: C_8  and  N_10 
ROOT
HETATM    1  N   UNL     1      14.382   9.904   5.422  1.00  0.00    -0.374 N 
ATOM      2  HN  UNL     1      14.101  10.269   4.512  1.00  0.00     0.164 HD
HETATM    3  C   UNL     1      13.653  10.197   6.509  1.00  0.00     0.104 A 
HETATM    4  C   UNL     1      14.015   9.736   7.767  1.00  0.00     0.047 A 
HETATM    5  C   UNL     1      15.146   8.926   7.873  1.00  0.00     0.020 A 
HETATM    6  C   UNL     1      15.886   8.652   6.735  1.00  0.00     0.018 A 
HETATM    7  C   UNL     1      15.476   9.136   5.519  1.00  0.00     0.087 A 
ENDROOT
BRANCH   4   8
HETATM    8  C   UNL     1      13.172  10.109   8.954  1.00  0.00     0.250 C 
HETATM    9  O   UNL     1      12.735  11.273   9.002  1.00  0.00    -0.268 OA
HETATM   10  N   UNL     1      12.937   9.213   9.891  1.00  0.00    -0.366 N 
ATOM     11  HN2 UNL     1      13.295   8.259   9.851  1.00  0.00     0.159 HD
ATOM     12  HN1 UNL     1      12.365   9.466  10.697  1.00  0.00     0.159 HD
ENDBRANCH   4   8
TORSDOF 1
ENDMDL
MODEL 4
REMARK VINA RESULT:    -6.338      2.525      3.619
REMARK INTER + INTRA:          -6.738
REMARK INTER:                  -6.715
REMARK INTRA:                  -0.024
REMARK UNBOUND:                -0.030
REMARK  1 active torsions:
REMARK  status: ('A' for Active; 'I' for Inactive)
REMARK    1  A    between atoms: C_4  and  C_8 
REMARK       I    between atoms: C_8  and  N_10 
ROOT
HETATM    1  N   UNL     1      15.498   8.479   8.813  1.00  0.00    -0.374 N 
ATOM      2  HN  UNL     1      15.882   8.052   9.656  1.00  0.00     0.164 HD
HETATM    3  C   UNL     1      14.380   9.216   8.891  1.00  0.00     0.104 A 
HETATM    4  C   UNL     1      13.817   9.795   7.763  1.00  0.00     0.047 A 
HETATM    5  C   UNL     1      14.463   9.619   6.538  1.00  0.00     0.020 A 
HETATM    6  C   UNL     1      15.608   8.842   6.487  1.00  0.00     0.018 A 
HETATM    7  C   UNL     1      16.116   8.297   7.638  1.00  0.00     0.087 A 
ENDROOT
BRANCH   4   8
HETATM    8  C   UNL     1      12.554  10.596   7.904  1.00  0.00     0.250 C 
HETATM    9  O   UNL     1      11.656  10.401   7.064  1.00  0.00    -0.268 OA
HETATM   10  N   UNL     1      12.444  11.468   8.884  1.00  0.00    -0.366 N 
ATOM     11  HN2 UNL     1      13.179  11.629   9.572  1.00  0.00     0.159 HD
ATOM     12  HN1 UNL     1      11.586  12.013   8.980  1.00  0.00     0.159 HD
ENDBRANCH   4   8
TORSDOF 1
ENDMDL
MODEL 5
REMARK VINA RESULT:    -6.204      2.778      3.835
REMARK INTER + INTRA:          -6.596
REMARK INTER:                  -6.576
REMARK INTRA:                  -0.021
REMARK UNBOUND:                -0.030
REMARK  1 active torsions:
REMARK  status: ('A' for Active; 'I' for Inactive)
REMARK    1  A    between atoms: C_4  and  C_8 
REMARK       I    between atoms: C_8  and  N_10 
ROOT
HETATM    1  N   UNL     1      15.527   8.489   8.581  1.00  0.00    -0.374 N 
ATOM      2  HN  UNL     1      16.013   7.990   9.325  1.00  0.00     0.164 HD
HETATM    3  C   UNL     1      14.435   9.214   8.872  1.00  0.00     0.104 A 
HETATM    4  C   UNL     1      13.735   9.891   7.883  1.00  0.00     0.047 A 
HETATM    5  C   UNL     1      14.212   9.827   6.574  1.00  0.00     0.020 A 
HETATM    6  C   UNL     1      15.333   9.060   6.303  1.00  0.00     0.018 A 
HETATM    7  C   UNL     1      15.983   8.415   7.324  1.00  0.00     0.087 A 
ENDROOT
BRANCH   4   8
HETATM    8  C   UNL     1      12.509  10.673   8.261  1.00  0.00     0.250 C 
HETATM    9  O   UNL     1      12.654  11.609   9.068  1.00  0.00    -0.268 OA
HETATM   10  N   UNL     1      11.343  10.344   7.744  1.00  0.00    -0.366 N 
ATOM     11  HN2 UNL     1      11.224   9.577   7.082  1.00  0.00     0.159 HD
ATOM     12  HN1 UNL     1      10.511  10.875   8.000  1.00  0.00     0.159 HD
ENDBRANCH   4   8
TORSDOF 1
ENDMDL
MODEL 6
REMARK VINA RESULT:    -5.858      3.087      4.186
REMARK INTER + INTRA:          -6.231
REMARK INTER:                  -6.213
REMARK INTRA:                  -0.018
REMARK UNBOUND:                -0.030
REMARK  1 active torsions:
REMARK  status: ('A' for Active; 'I' for Inactive)
REMARK    1  A    between atoms: C_4  and  C_8 
REMARK       I    between atoms: C_8  and  N_10 
ROOT
HETATM    1  N   UNL     1      14.425   8.949   9.083  1.00  0.00    -0.374 N 
ATOM      2  HN  UNL     1      14.797   8.450   9.891  1.00  0.00     0.164 HD
HETATM    3  C   UNL     1      13.240   9.571   9.175  1.00  0.00     0.104 A 
HETATM    4  C   UNL     1      12.691  10.243   8.092  1.00  0.00     0.047 A 
HETATM    5  C   UNL     1      13.420  10.285   6.903  1.00  0.00     0.020 A 
HETATM    6  C   UNL     1      14.634   9.622   6.835  1.00  0.00     0.018 A 
HETATM    7  C   UNL     1      15.124   8.977   7.941  1.00  0.00     0.087 A 
ENDROOT
BRANCH   4   8
HETATM    8  C   UNL     1      11.352  10.907   8.244  1.00  0.00     0.250 C 
HETATM    9  O   UNL     1      11.329  12.032   8.776  1.00  0.00    -0.268 OA
HETATM   10  N   UNL     1      10.268  10.286   7.827  1.00  0.00    -0.366 N 
ATOM     11  HN2 UNL     1      10.287   9.365   7.391  1.00  0.00     0.159 HD
ATOM     12  HN1 UNL     1       9.358  10.737   7.931  1.00  0.00     0.159 HD
ENDBRANCH   4   8
TORSDOF 1
ENDMDL
MODEL 7
REMARK VINA RESULT:    -5.730      1.491      2.234
REMARK INTER + INTRA:          -6.095
REMARK INTER:                  -6.065
REMARK INTRA:                  -0.030
REMARK UNBOUND:                -0.030
REMARK  1 active torsions:
REMARK  status: ('A' for Active; 'I' for Inactive)
REMARK    1  A    between atoms: C_4  and  C_8 
REMARK       I    between atoms: C_8  and  N_10 
ROOT
HETATM    1  N   UNL     1      14.012   9.193   9.360  1.00  0.00    -0.374 N 
ATOM      2  HN  UNL     1      14.452   8.737  10.158  1.00  0.00     0.164 HD
HETATM    3  C   UNL     1      14.594   9.123   8.152  1.00  0.00     0.104 A 
HETATM    4  C   UNL     1      14.036   9.749   7.046  1.00  0.00     0.047 A 
HETATM    5  C   UNL     1      12.830  10.431   7.211  1.00  0.00     0.020 A 
HETATM    6  C   UNL     1      12.262  10.497   8.472  1.00  0.00     0.018 A 
HETATM    7  C   UNL     1      12.861   9.857   9.526  1.00  0.00     0.087 A 
ENDROOT
BRANCH   4   8
HETATM    8  C   UNL     1      14.738   9.654   5.721  1.00  0.00     0.250 C 
HETATM    9  O   UNL     1      14.211  10.231   4.752  1.00  0.00    -0.268 OA
HETATM   10  N   UNL     1      15.858   8.967   5.627  1.00  0.00    -0.366 N 
ATOM     11  HN2 UNL     1      16.290   8.494   6.420  1.00  0.00     0.159 HD
ATOM     12  HN1 UNL     1      16.335   8.903   4.727  1.00  0.00     0.159 HD
ENDBRANCH   4   8
TORSDOF 1
ENDMDL
MODEL 8
REMARK VINA RESULT:    -5.649      4.235      5.183
REMARK INTER + INTRA:          -6.009
REMARK INTER:                  -5.983
REMARK INTRA:                  -0.026
REMARK UNBOUND:                -0.030
REMARK  1 active torsions:
REMARK  status: ('A' for Active; 'I' for Inactive)
REMARK    1  A    between atoms: C_4  and  C_8 
REMARK       I    between atoms: C_8  and  N_10 
ROOT
HETATM    1  N   UNL     1      13.997   9.187   1.808  1.00  0.00    -0.374 N 
ATOM      2  HN  UNL     1      13.134   9.620   1.482  1.00  0.00     0.164 HD
HETATM    3  C   UNL     1      14.487   8.116   1.165  1.00  0.00     0.104 A 
HETATM    4  C   UNL     1      15.648   7.487   1.591  1.00  0.00     0.047 A 
HETATM    5  C   UNL     1      16.319   8.016   2.694  1.00  0.00     0.020 A 
HETATM    6  C   UNL     1      15.782   9.113   3.346  1.00  0.00     0.018 A 
HETATM    7  C   UNL     1      14.631   9.692   2.875  1.00  0.00     0.087 A 
ENDROOT
BRANCH   4   8
HETATM    8  C   UNL     1      16.144   6.281   0.845  1.00  0.00     0.250 C 
HETATM    9  O   UNL     1      17.376   6.141   0.736  1.00  0.00    -0.268 OA
HETATM   10  N   UNL     1      15.276   5.433   0.332  1.00  0.00    -0.366 N 
ATOM     11  HN2 UNL     1      14.267   5.547   0.421  1.00  0.00     0.159 HD
ATOM     12  HN1 UNL     1      15.612   4.613  -0.176  1.00  0.00     0.159 HD
ENDBRANCH   4   8
TORSDOF 1
ENDMDL
MODEL 9
REMARK VINA RESULT:    -5.516      3.760      5.817
REMARK INTER + INTRA:          -5.869
REMARK INTER:                  -5.841
REMARK INTRA:                  -0.028
REMARK UNBOUND:                -0.030
REMARK  1 active torsions:
REMARK  status: ('A' for Active; 'I' for Inactive)
REMARK    1  A    between atoms: C_4  and  C_8 
REMARK       I    between atoms: C_8  and  N_10 
ROOT
HETATM    1  N   UNL     1      17.055   6.548   1.447  1.00  0.00    -0.374 N 
ATOM      2  HN  UNL     1      17.971   6.160   1.668  1.00  0.00     0.164 HD
HETATM    3  C   UNL     1      16.596   7.601   2.140  1.00  0.00     0.104 A 
HETATM    4  C   UNL     1      15.345   8.145   1.882  1.00  0.00     0.047 A 
HETATM    5  C   UNL     1      14.582   7.588   0.855  1.00  0.00     0.020 A 
HETATM    6  C   UNL     1      15.077   6.493   0.167  1.00  0.00     0.018 A 
HETATM    7  C   UNL     1      16.321   6.002   0.468  1.00  0.00     0.087 A 
ENDROOT
BRANCH   4   8
HETATM    8  C   UNL     1      14.872   9.314   2.699  1.00  0.00     0.250 C 
HETATM    9  O   UNL     1      14.055  10.089   2.170  1.00  0.00    -0.268 OA
HETATM   10  N   UNL     1      15.336   9.482   3.920  1.00  0.00    -0.366 N 
ATOM     11  HN2 UNL     1      16.006   8.847   4.354  1.00  0.00     0.159 HD
ATOM     12  HN1 UNL     1      15.015  10.276   4.476  1.00  0.00     0.159 HD
ENDBRANCH   4   8
TORSDOF 1
ENDMDL
MODEL 10
REMARK VINA RESULT:    -5.274      5.347      6.655
REMARK INTER + INTRA:          -5.613
REMARK INTER:                  -5.585
REMARK INTRA:                  -0.027
REMARK UNBOUND:                -0.030
REMARK  1 active torsions:
REMARK  status: ('A' for Active; 'I' for Inactive)
REMARK    1  A    between atoms: C_4  and  C_8 
REMARK       I    between atoms: C_8  and  N_10 
ROOT
HETATM    1  N   UNL     1      17.036   6.913   1.915  1.00  0.00    -0.374 N 
ATOM      2  HN  UNL     1      17.940   6.681   2.326  1.00  0.00     0.164 HD
HETATM    3  C   UNL     1      16.535   6.144   0.937  1.00  0.00     0.104 A 
HETATM    4  C   UNL     1      15.317   6.439   0.340  1.00  0.00     0.047 A 
HETATM    5  C   UNL     1      14.604   7.544   0.805  1.00  0.00     0.020 A 
HETATM    6  C   UNL     1      15.154   8.326   1.807  1.00  0.00     0.018 A 
HETATM    7  C   UNL     1      16.361   7.982   2.358  1.00  0.00     0.087 A 
ENDROOT
BRANCH   4   8
HETATM    8  C   UNL     1      14.810   5.554  -0.764  1.00  0.00     0.250 C 
HETATM    9  O   UNL     1      14.074   6.075  -1.622  1.00  0.00    -0.268 OA
HETATM   10  N   UNL     1      15.146   4.281  -0.782  1.00  0.00    -0.366 N 
ATOM     11  HN2 UNL     1      15.749   3.854  -0.079  1.00  0.00     0.159 HD
ATOM     12  HN1 UNL     1      14.801   3.680  -1.531  1.00  0.00     0.159 HD
ENDBRANCH   4   8
TORSDOF 1
ENDMDL
MODEL 11
REMARK VINA RESULT:    -5.091      5.168      6.813
REMARK INTER + INTRA:          -5.419
REMARK INTER:                  -5.394
REMARK INTRA:                  -0.025
REMARK UNBOUND:                -0.030
REMARK  1 active torsions:
REMARK  status: ('A' for Active; 'I' for Inactive)
REMARK    1  A    between atoms: C_4  and  C_8 
REMARK       I    between atoms: C_8  and  N_10 
ROOT
HETATM    1  N   UNL     1      15.938   5.242  -0.242  1.00  0.00    -0.374 N 
ATOM      2  HN  UNL     1      16.339   4.357  -0.551  1.00  0.00     0.164 HD
HETATM    3  C   UNL     1      16.582   5.978   0.676  1.00  0.00     0.104 A 
HETATM    4  C   UNL     1      16.058   7.178   1.136  1.00  0.00     0.047 A 
HETATM    5  C   UNL     1      14.851   7.622   0.594  1.00  0.00     0.020 A 
HETATM    6  C   UNL     1      14.204   6.834  -0.342  1.00  0.00     0.018 A 
HETATM    7  C   UNL     1      14.774   5.658  -0.758  1.00  0.00     0.087 A 
ENDROOT
BRANCH   4   8
HETATM    8  C   UNL     1      16.812   7.954   2.179  1.00  0.00     0.250 C 
HETATM    9  O   UNL     1      16.144   8.526   3.060  1.00  0.00    -0.268 OA
HETATM   10  N   UNL     1      18.126   8.011   2.122  1.00  0.00    -0.366 N 
ATOM     11  HN2 UNL     1      18.673   7.542   1.400  1.00  0.00     0.159 HD
ATOM     12  HN1 UNL     1      18.638   8.538   2.830  1.00  0.00     0.159 HD
ENDBRANCH   4   8
TORSDOF 1
ENDMDL
MODEL 12
REMARK VINA RESULT:    -5.010      4.148      5.613
REMARK INTER + INTRA:          -5.333
REMARK INTER:                  -5.304
REMARK INTRA:                  -0.028
REMARK UNBOUND:                -0.030
REMARK  1 active torsions:
REMARK  status: ('A' for Active; 'I' for Inactive)
REMARK    1  A    between atoms: C_4  and  C_8 
REMARK       I    between atoms: C_8  and  N_10 
ROOT
HETATM    1  N   UNL     1      13.514   9.158   9.634  1.00  0.00    -0.374 N 
ATOM      2  HN  UNL     1      14.165   8.666  10.244  1.00  0.00     0.164 HD
HETATM    3  C   UNL     1      12.248   9.353  10.034  1.00  0.00     0.104 A 
HETATM    4  C   UNL     1      11.327  10.000   9.223  1.00  0.00     0.047 A 
HETATM    5  C   UNL     1      11.757  10.477   7.984  1.00  0.00     0.020 A 
HETATM    6  C   UNL     1      13.066  10.249   7.594  1.00  0.00     0.018 A 
HETATM    7  C   UNL     1      13.930   9.603   8.441  1.00  0.00     0.087 A 
ENDROOT
BRANCH   4   8
HETATM    8  C   UNL     1       9.917  10.177   9.712  1.00  0.00     0.250 C 
HETATM    9  O   UNL     1       9.726  10.116  10.941  1.00  0.00    -0.268 OA
HETATM   10  N   UNL     1       8.948  10.375   8.843  1.00  0.00    -0.366 N 
ATOM     11  HN2 UNL     1       9.104  10.426   7.837  1.00  0.00     0.159 HD
ATOM     12  HN1 UNL     1       7.990  10.495   9.175  1.00  0.00     0.159 HD
ENDBRANCH   4   8
TORSDOF 1
ENDMDL
MODEL 13
REMARK VINA RESULT:    -4.799      3.259      4.248
REMARK INTER + INTRA:          -5.110
REMARK INTER:                  -5.080
REMARK INTRA:                  -0.030
REMARK UNBOUND:                -0.030
REMARK  1 active torsions:
REMARK  status: ('A' for Active; 'I' for Inactive)
REMARK    1  A    between atoms: C_4  and  C_8 
REMARK       I    between atoms: C_8  and  N_10 
ROOT
HETATM    1  N   UNL     1       9.899  10.299   8.475  1.00  0.00    -0.374 N 
ATOM      2  HN  UNL     1       9.072  10.629   7.980  1.00  0.00     0.164 HD
HETATM    3  C   UNL     1      11.107  10.419   7.903  1.00  0.00     0.104 A 
HETATM    4  C   UNL     1      12.254   9.964   8.538  1.00  0.00     0.047 A 
HETATM    5  C   UNL     1      12.128   9.403   9.809  1.00  0.00     0.020 A 
HETATM    6  C   UNL     1      10.866   9.281  10.368  1.00  0.00     0.018 A 
HETATM    7  C   UNL     1       9.771   9.752   9.691  1.00  0.00     0.087 A 
ENDROOT
BRANCH   4   8
HETATM    8  C   UNL     1      13.580  10.106   7.844  1.00  0.00     0.250 C 
HETATM    9  O   UNL     1      14.594   9.748   8.470  1.00  0.00    -0.268 OA
HETATM   10  N   UNL     1      13.625  10.604   6.626  1.00  0.00    -0.366 N 
ATOM     11  HN2 UNL     1      12.794  10.897   6.113  1.00  0.00     0.159 HD
ATOM     12  HN1 UNL     1      14.525  10.700   6.155  1.00  0.00     0.159 HD
ENDBRANCH   4   8
TORSDOF 1
ENDMDL
MODEL 14
REMARK VINA RESULT:    -4.762      6.016      7.199
REMARK INTER + INTRA:          -5.070
REMARK INTER:                  -5.047
REMARK INTRA:                  -0.023
REMARK UNBOUND:                -0.030
REMARK  1 active torsions:
REMARK  status: ('A' for Active; 'I' for Inactive)
REMARK    1  A    between atoms: C_4  and  C_8 
REMARK       I    between atoms: C_8  and  N_10 
ROOT
HETATM    1  N   UNL     1      10.029   8.611   9.269  1.00  0.00    -0.374 N 
ATOM      2  HN  UNL     1       9.261   8.357   8.649  1.00  0.00     0.164 HD
HETATM    3  C   UNL     1      10.136   8.021  10.470  1.00  0.00     0.104 A 
HETATM    4  C   UNL     1      11.157   8.355  11.349  1.00  0.00     0.047 A 
HETATM    5  C   UNL     1      12.097   9.302  10.941  1.00  0.00     0.020 A 
HETATM    6  C   UNL     1      11.952   9.902   9.702  1.00  0.00     0.018 A 
HETATM    7  C   UNL     1      10.923   9.529   8.877  1.00  0.00     0.087 A 
ENDROOT
BRANCH   4   8
HETATM    8  C   UNL     1      11.219   7.677  12.688  1.00  0.00     0.250 C 
HETATM    9  O   UNL     1      10.167   7.621  13.351  1.00  0.00    -0.268 OA
HETATM   10  N   UNL     1      12.364   7.183  13.114  1.00  0.00    -0.366 N 
ATOM     11  HN2 UNL     1      13.226   7.229  12.571  1.00  0.00     0.159 HD
ATOM     12  HN1 UNL     1      12.407   6.723  14.024  1.00  0.00     0.159 HD
ENDBRANCH   4   8
TORSDOF 1
ENDMDL
MODEL 15
REMARK VINA RESULT:    -4.635      5.931      7.150
REMARK INTER + INTRA:          -4.936
REMARK INTER:                  -4.906
REMARK INTRA:                  -0.030
REMARK UNBOUND:                -0.030
REMARK  1 active torsions:
REMARK  status: ('A' for Active; 'I' for Inactive)
REMARK    1  A    between atoms: C_4  and  C_8 
REMARK       I    between atoms: C_8  and  N_10 
ROOT
HETATM    1  N   UNL     1      12.155   8.803  11.373  1.00  0.00    -0.374 N 
ATOM      2  HN  UNL     1      12.826   8.799  12.140  1.00  0.00     0.164 HD
HETATM    3  C   UNL     1      11.001   8.131  11.497  1.00  0.00     0.104 A 
HETATM    4  C   UNL     1      10.072   8.095  10.467  1.00  0.00     0.047 A 
HETATM    5  C   UNL     1      10.353   8.807   9.300  1.00  0.00     0.020 A 
HETATM    6  C   UNL     1      11.559   9.480   9.196  1.00  0.00     0.018 A 
HETATM    7  C   UNL     1      12.435   9.479  10.250  1.00  0.00     0.087 A 
ENDROOT
BRANCH   4   8
HETATM    8  C   UNL     1       8.803   7.313  10.652  1.00  0.00     0.250 C 
HETATM    9  O   UNL     1       8.692   6.640  11.693  1.00  0.00    -0.268 OA
HETATM   10  N   UNL     1       7.872   7.355   9.721  1.00  0.00    -0.366 N 
ATOM     11  HN2 UNL     1       7.962   7.906   8.867  1.00  0.00     0.159 HD
ATOM     12  HN1 UNL     1       7.010   6.823   9.846  1.00  0.00     0.159 HD
ENDBRANCH   4   8
TORSDOF 1
ENDMDL
MODEL 16
REMARK VINA RESULT:    -4.618      3.797      4.938
REMARK INTER + INTRA:          -4.918
REMARK INTER:                  -4.891
REMARK INTRA:                  -0.027
REMARK UNBOUND:                -0.030
REMARK  1 active torsions:
REMARK  status: ('A' for Active; 'I' for Inactive)
REMARK    1  A    between atoms: C_4  and  C_8 
REMARK       I    between atoms: C_8  and  N_10 
ROOT
HETATM    1  N   UNL     1      12.108   8.769  11.478  1.00  0.00    -0.374 N 
ATOM      2  HN  UNL     1      12.657   8.752  12.337  1.00  0.00     0.164 HD
HETATM    3  C   UNL     1      12.496   9.548  10.457  1.00  0.00     0.104 A 
HETATM    4  C   UNL     1      11.764   9.612   9.280  1.00  0.00     0.047 A 
HETATM    5  C   UNL     1      10.623   8.817   9.168  1.00  0.00     0.020 A 
HETATM    6  C   UNL     1      10.240   8.033  10.244  1.00  0.00     0.018 A 
HETATM    7  C   UNL     1      11.007   8.012  11.380  1.00  0.00     0.087 A 
ENDROOT
BRANCH   4   8
HETATM    8  C   UNL     1      12.234  10.514   8.174  1.00  0.00     0.250 C 
HETATM    9  O   UNL     1      11.368  10.987   7.415  1.00  0.00    -0.268 OA
HETATM   10  N   UNL     1      13.520  10.762   8.040  1.00  0.00    -0.366 N 
ATOM     11  HN2 UNL     1      14.230  10.375   8.662  1.00  0.00     0.159 HD
ATOM     12  HN1 UNL     1      13.840  11.375   7.289  1.00  0.00     0.159 HD
ENDBRANCH   4   8
TORSDOF 1
ENDMDL
MODEL 17
REMARK VINA RESULT:    -4.611      5.173      6.298
REMARK INTER + INTRA:          -4.910
REMARK INTER:                  -4.882
REMARK INTRA:                  -0.028
REMARK UNBOUND:                -0.030
REMARK  1 active torsions:
REMARK  status: ('A' for Active; 'I' for Inactive)
REMARK    1  A    between atoms: C_4  and  C_8 
REMARK       I    between atoms: C_8  and  N_10 
ROOT
HETATM    1  N   UNL     1       9.610  10.281   8.932  1.00  0.00    -0.374 N 
ATOM      2  HN  UNL     1       8.698   9.825   8.923  1.00  0.00     0.164 HD
HETATM    3  C   UNL     1       9.703  11.574   9.278  1.00  0.00     0.104 A 
HETATM    4  C   UNL     1      10.923  12.234   9.284  1.00  0.00     0.047 A 
HETATM    5  C   UNL     1      12.068  11.509   8.949  1.00  0.00     0.020 A 
HETATM    6  C   UNL     1      11.939  10.180   8.583  1.00  0.00     0.018 A 
HETATM    7  C   UNL     1      10.704   9.583   8.599  1.00  0.00     0.087 A 
ENDROOT
BRANCH   4   8
HETATM    8  C   UNL     1      10.968  13.687   9.662  1.00  0.00     0.250 C 
HETATM    9  O   UNL     1      12.054  14.140  10.068  1.00  0.00    -0.268 OA
HETATM   10  N   UNL     1       9.876  14.418   9.564  1.00  0.00    -0.366 N 
ATOM     11  HN2 UNL     1       8.987  14.048   9.231  1.00  0.00     0.159 HD
ATOM     12  HN1 UNL     1       9.906  15.405   9.821  1.00  0.00     0.159 HD
ENDBRANCH   4   8
TORSDOF 1
ENDMDL
MODEL 18
REMARK VINA RESULT:    -4.596      5.567      7.689
REMARK INTER + INTRA:          -4.895
REMARK INTER:                  -4.870
REMARK INTRA:                  -0.024
REMARK UNBOUND:                -0.030
REMARK  1 active torsions:
REMARK  status: ('A' for Active; 'I' for Inactive)
REMARK    1  A    between atoms: C_4  and  C_8 
REMARK       I    between atoms: C_8  and  N_10 
ROOT
HETATM    1  N   UNL     1      14.833   4.458  -0.447  1.00  0.00    -0.374 N 
ATOM      2  HN  UNL     1      15.078   3.494  -0.224  1.00  0.00     0.164 HD
HETATM    3  C   UNL     1      15.149   5.439   0.413  1.00  0.00     0.104 A 
HETATM    4  C   UNL     1      14.814   6.760   0.153  1.00  0.00     0.047 A 
HETATM    5  C   UNL     1      14.164   7.054  -1.046  1.00  0.00     0.020 A 
HETATM    6  C   UNL     1      13.839   6.018  -1.906  1.00  0.00     0.018 A 
HETATM    7  C   UNL     1      14.199   4.733  -1.594  1.00  0.00     0.087 A 
ENDROOT
BRANCH   4   8
HETATM    8  C   UNL     1      15.176   7.817   1.158  1.00  0.00     0.250 C 
HETATM    9  O   UNL     1      16.308   7.755   1.672  1.00  0.00    -0.268 OA
HETATM   10  N   UNL     1      14.298   8.751   1.463  1.00  0.00    -0.366 N 
ATOM     11  HN2 UNL     1      13.371   8.803   1.042  1.00  0.00     0.159 HD
ATOM     12  HN1 UNL     1      14.544   9.469   2.145  1.00  0.00     0.159 HD
ENDBRANCH   4   8
TORSDOF 1
ENDMDL
MODEL 19
REMARK VINA RESULT:    -4.423      5.597      6.689
REMARK INTER + INTRA:          -4.712
REMARK INTER:                  -4.683
REMARK INTRA:                  -0.029
REMARK UNBOUND:                -0.030
REMARK  1 active torsions:
REMARK  status: ('A' for Active; 'I' for Inactive)
REMARK    1  A    between atoms: C_4  and  C_8 
REMARK       I    between atoms: C_8  and  N_10 
ROOT
HETATM    1  N   UNL     1       9.497  10.325   8.858  1.00  0.00    -0.374 N 
ATOM      2  HN  UNL     1       8.620  10.750   8.561  1.00  0.00     0.164 HD
HETATM    3  C   UNL     1       9.507   9.493   9.911  1.00  0.00     0.104 A 
HETATM    4  C   UNL     1      10.685   8.910  10.358  1.00  0.00     0.047 A 
HETATM    5  C   UNL     1      11.863   9.186   9.664  1.00  0.00     0.020 A 
HETATM    6  C   UNL     1      11.823  10.059   8.590  1.00  0.00     0.018 A 
HETATM    7  C   UNL     1      10.627  10.601   8.195  1.00  0.00     0.087 A 
ENDROOT
BRANCH   4   8
HETATM    8  C   UNL     1      10.643   8.000  11.553  1.00  0.00     0.250 C 
HETATM    9  O   UNL     1       9.546   7.494  11.849  1.00  0.00    -0.268 OA
HETATM   10  N   UNL     1      11.745   7.780  12.241  1.00  0.00    -0.366 N 
ATOM     11  HN2 UNL     1      12.645   8.195  11.999  1.00  0.00     0.159 HD
ATOM     12  HN1 UNL     1      11.717   7.162  13.053  1.00  0.00     0.159 HD
ENDBRANCH   4   8
TORSDOF 1
ENDMDL
MODEL 20
REMARK VINA RESULT:    -4.420      9.821     11.371
REMARK INTER + INTRA:          -4.708
REMARK INTER:                  -4.681
REMARK INTRA:                  -0.028
REMARK UNBOUND:                -0.030
REMARK  1 active torsions:
REMARK  status: ('A' for Active; 'I' for Inactive)
REMARK    1  A    between atoms: C_4  and  C_8 
REMARK       I    between atoms: C_8  and  N_10 
ROOT
HETATM    1  N   UNL     1      12.713   2.649  -4.611  1.00  0.00    -0.374 N 
ATOM      2  HN  UNL     1      12.795   1.929  -5.328  1.00  0.00     0.164 HD
HETATM    3  C   UNL     1      13.407   2.531  -3.469  1.00  0.00     0.104 A 
HETATM    4  C   UNL     1      13.305   3.480  -2.462  1.00  0.00     0.047 A 
HETATM    5  C   UNL     1      12.483   4.586  -2.677  1.00  0.00     0.020 A 
HETATM    6  C   UNL     1      11.769   4.673  -3.861  1.00  0.00     0.018 A 
HETATM    7  C   UNL     1      11.913   3.704  -4.819  1.00  0.00     0.087 A 
ENDROOT
BRANCH   4   8
HETATM    8  C   UNL     1      14.090   3.289  -1.195  1.00  0.00     0.250 C 
HETATM    9  O   UNL     1      14.411   4.312  -0.562  1.00  0.00    -0.268 OA
HETATM   10  N   UNL     1      14.416   2.073  -0.809  1.00  0.00    -0.366 N 
ATOM     11  HN2 UNL     1      14.153   1.235  -1.328  1.00  0.00     0.159 HD
ATOM     12  HN1 UNL     1      14.950   1.943   0.051  1.00  0.00     0.159 HD
ENDBRANCH   4   8
TORSDOF 1
ENDMDL
