MODEL 1
REMARK VINA RESULT:    -9.849      0.000      0.000
REMARK INTER + INTRA:         -14.990
REMARK INTER:                 -13.880
REMARK INTRA:                  -1.110
REMARK UNBOUND:                -1.110
REMARK  8 active torsions:
REMARK  status: ('A' for Active; 'I' for Inactive)
REMARK    1  A    between atoms: N_13  and  C_16 
REMARK    2  A    between atoms: P_14  and  O_27 
REMARK    3  A    between atoms: P_14  and  O_31 
REMARK    4  A    between atoms: C_15  and  O_27 
REMARK    5  A    between atoms: C_19  and  O_20 
REMARK    6  A    between atoms: C_24  and  O_25 
REMARK    7  A    between atoms: C_28  and  C_30 
REMARK    8  A    between atoms: C_30  and  O_31 
ROOT
HETATM    1  C   UNL     1      55.123 -45.362  26.232  1.00  0.00     0.262 C 
HETATM    2  C   UNL     1      55.020 -45.568  24.577  1.00  0.00     0.198 C 
HETATM    3  C   UNL     1      55.504 -46.737  24.359  1.00  0.00     0.182 C 
HETATM    4  C   UNL     1      56.572 -46.939  25.502  1.00  0.00     0.180 C 
HETATM    5  O   UNL     1      56.309 -45.774  26.490  1.00  0.00    -0.353 OA
ENDROOT
BRANCH   1   6
HETATM    6  N   UNL     1      54.959 -43.973  26.557  1.00  0.00    -0.297 N 
HETATM    7  C   UNL     1      55.777 -42.968  26.174  1.00  0.00     0.142 A 
HETATM    8  N   UNL     1      56.890 -42.925  25.422  1.00  0.00    -0.336 N 
HETATM    9  C   UNL     1      55.263 -41.790  26.707  1.00  0.00     0.119 A 
HETATM   10  C   UNL     1      57.507 -41.759  25.185  1.00  0.00     0.183 A 
ATOM     11  HN  UNL     1      57.267 -43.787  25.028  1.00  0.00     0.168 HD
HETATM   12  N   UNL     1      57.061 -40.613  25.696  1.00  0.00    -0.339 N 
HETATM   13  C   UNL     1      55.952 -40.586  26.444  1.00  0.00     0.148 A 
ATOM     14  HN  UNL     1      57.569 -39.747  25.515  1.00  0.00     0.167 HD
HETATM   15  N   UNL     1      55.460 -39.328  26.991  1.00  0.00    -0.080 NA
HETATM   16  N   UNL     1      54.151 -42.115  27.400  1.00  0.00    -0.346 N 
HETATM   17  C   UNL     1      53.992 -43.438  27.309  1.00  0.00     0.188 A 
ATOM     18  HN  UNL     1      53.542 -41.468  27.901  1.00  0.00     0.167 HD
ENDBRANCH   1   6
BRANCH   2  19
HETATM   19  O   UNL     1      53.626 -45.412  24.165  1.00  0.00    -0.388 OA
ATOM     20  HO  UNL     1      53.460 -45.641  23.259  1.00  0.00     0.210 HD
ENDBRANCH   2  19
BRANCH   3  21
HETATM   21  O   UNL     1      54.471 -47.804  24.525  1.00  0.00    -0.390 OA
ATOM     22  HO  UNL     1      53.909 -47.636  25.272  1.00  0.00     0.210 HD
ENDBRANCH   3  21
BRANCH   4  23
HETATM   23  C   UNL     1      57.883 -46.885  25.035  1.00  0.00     0.216 C 
BRANCH  23  24
HETATM   24  O   UNL     1      58.602 -47.893  25.699  1.00  0.00    -0.287 OA
BRANCH  24  25
HETATM   25  P   UNL     1      59.944 -48.544  24.980  1.00  0.00     0.416 P 
HETATM   26  O   UNL     1      60.519 -47.596  23.972  1.00  0.00    -0.624 OA
HETATM   27  O   UNL     1      60.969 -48.746  26.071  1.00  0.00    -0.624 OA
BRANCH  25  28
HETATM   28  O   UNL     1      59.449 -49.915  24.179  1.00  0.00    -0.197 OA
BRANCH  28  29
HETATM   29  C   UNL     1      58.232 -50.581  24.366  1.00  0.00     0.382 C 
HETATM   30  O   UNL     1      58.074 -51.432  25.218  1.00  0.00    -0.242 OA
HETATM   31  N   UNL     1      57.164 -50.093  23.503  1.00  0.00    -0.032 NA
ENDBRANCH  28  29
ENDBRANCH  25  28
ENDBRANCH  24  25
ENDBRANCH  23  24
ENDBRANCH   4  23
TORSDOF 8
ENDMDL
MODEL 2
REMARK VINA RESULT:    -9.566      2.210      3.836
REMARK INTER + INTRA:         -14.591
REMARK INTER:                 -12.966
REMARK INTRA:                  -1.625
REMARK UNBOUND:                -1.110
REMARK  8 active torsions:
REMARK  status: ('A' for Active; 'I' for Inactive)
REMARK    1  A    between atoms: N_13  and  C_16 
REMARK    2  A    between atoms: P_14  and  O_27 
REMARK    3  A    between atoms: P_14  and  O_31 
REMARK    4  A    between atoms: C_15  and  O_27 
REMARK    5  A    between atoms: C_19  and  O_20 
REMARK    6  A    between atoms: C_24  and  O_25 
REMARK    7  A    between atoms: C_28  and  C_30 
REMARK    8  A    between atoms: C_30  and  O_31 
ROOT
HETATM    1  C   UNL     1      57.926 -43.202  23.812  1.00  0.00     0.262 C 
HETATM    2  C   UNL     1      59.234 -43.918  24.568  1.00  0.00     0.198 C 
HETATM    3  C   UNL     1      59.689 -44.759  23.712  1.00  0.00     0.182 C 
HETATM    4  C   UNL     1      58.420 -45.207  22.888  1.00  0.00     0.180 C 
HETATM    5  O   UNL     1      57.312 -44.207  23.309  1.00  0.00    -0.353 OA
ENDROOT
BRANCH   1   6
HETATM    6  N   UNL     1      57.121 -42.520  24.786  1.00  0.00    -0.297 N 
HETATM    7  C   UNL     1      56.064 -43.042  25.447  1.00  0.00     0.142 A 
HETATM    8  N   UNL     1      55.481 -44.253  25.436  1.00  0.00    -0.336 N 
HETATM    9  C   UNL     1      55.567 -42.048  26.285  1.00  0.00     0.119 A 
HETATM   10  C   UNL     1      54.427 -44.508  26.224  1.00  0.00     0.183 A 
ATOM     11  HN  UNL     1      55.845 -44.983  24.824  1.00  0.00     0.168 HD
HETATM   12  N   UNL     1      53.907 -43.578  27.023  1.00  0.00    -0.339 N 
HETATM   13  C   UNL     1      54.446 -42.356  27.088  1.00  0.00     0.148 A 
ATOM     14  HN  UNL     1      53.089 -43.800  27.590  1.00  0.00     0.167 HD
HETATM   15  N   UNL     1      53.883 -41.345  27.972  1.00  0.00    -0.080 NA
HETATM   16  N   UNL     1      56.335 -40.953  26.107  1.00  0.00    -0.346 N 
HETATM   17  C   UNL     1      57.258 -41.252  25.189  1.00  0.00     0.188 A 
ATOM     18  HN  UNL     1      56.230 -40.058  26.587  1.00  0.00     0.167 HD
ENDBRANCH   1   6
BRANCH   2  19
HETATM   19  O   UNL     1      60.189 -42.878  24.949  1.00  0.00    -0.388 OA
ATOM     20  HO  UNL     1      60.889 -42.744  24.321  1.00  0.00     0.210 HD
ENDBRANCH   2  19
BRANCH   3  21
HETATM   21  O   UNL     1      60.635 -44.115  22.751  1.00  0.00    -0.390 OA
ATOM     22  HO  UNL     1      60.747 -43.190  22.933  1.00  0.00     0.210 HD
ENDBRANCH   3  21
BRANCH   4  23
HETATM   23  C   UNL     1      58.022 -46.511  23.173  1.00  0.00     0.216 C 
BRANCH  23  24
HETATM   24  O   UNL     1      56.893 -46.428  24.005  1.00  0.00    -0.287 OA
BRANCH  24  25
HETATM   25  P   UNL     1      56.633 -47.601  25.144  1.00  0.00     0.416 P 
HETATM   26  O   UNL     1      56.789 -47.043  26.526  1.00  0.00    -0.624 OA
HETATM   27  O   UNL     1      55.203 -48.058  24.982  1.00  0.00    -0.624 OA
BRANCH  25  28
HETATM   28  O   UNL     1      57.801 -48.764  24.920  1.00  0.00    -0.197 OA
BRANCH  28  29
HETATM   29  C   UNL     1      57.641 -49.964  24.219  1.00  0.00     0.382 C 
HETATM   30  O   UNL     1      57.272 -50.005  23.063  1.00  0.00    -0.242 OA
HETATM   31  N   UNL     1      58.039 -51.141  24.982  1.00  0.00    -0.032 NA
ENDBRANCH  28  29
ENDBRANCH  25  28
ENDBRANCH  24  25
ENDBRANCH  23  24
ENDBRANCH   4  23
TORSDOF 8
ENDMDL
MODEL 3
REMARK VINA RESULT:    -9.534      2.834      4.186
REMARK INTER + INTRA:         -14.546
REMARK INTER:                 -12.843
REMARK INTRA:                  -1.703
REMARK UNBOUND:                -1.110
REMARK  8 active torsions:
REMARK  status: ('A' for Active; 'I' for Inactive)
REMARK    1  A    between atoms: N_13  and  C_16 
REMARK    2  A    between atoms: P_14  and  O_27 
REMARK    3  A    between atoms: P_14  and  O_31 
REMARK    4  A    between atoms: C_15  and  O_27 
REMARK    5  A    between atoms: C_19  and  O_20 
REMARK    6  A    between atoms: C_24  and  O_25 
REMARK    7  A    between atoms: C_28  and  C_30 
REMARK    8  A    between atoms: C_30  and  O_31 
ROOT
HETATM    1  C   UNL     1      55.477 -44.893  26.121  1.00  0.00     0.262 C 
HETATM    2  C   UNL     1      54.988 -45.171  24.547  1.00  0.00     0.198 C 
HETATM    3  C   UNL     1      55.574 -46.261  24.207  1.00  0.00     0.182 C 
HETATM    4  C   UNL     1      56.917 -46.260  25.036  1.00  0.00     0.180 C 
HETATM    5  O   UNL     1      56.737 -45.112  26.063  1.00  0.00    -0.353 OA
ENDROOT
BRANCH   1   6
HETATM    6  N   UNL     1      55.189 -43.533  26.483  1.00  0.00    -0.297 N 
HETATM    7  C   UNL     1      55.830 -42.437  26.021  1.00  0.00     0.142 A 
HETATM    8  N   UNL     1      56.834 -42.262  25.145  1.00  0.00    -0.336 N 
HETATM    9  C   UNL     1      55.247 -41.330  26.628  1.00  0.00     0.119 A 
HETATM   10  C   UNL     1      57.277 -41.030  24.855  1.00  0.00     0.183 A 
ATOM     11  HN  UNL     1      57.263 -43.072  24.698  1.00  0.00     0.168 HD
HETATM   12  N   UNL     1      56.761 -39.946  25.430  1.00  0.00    -0.339 N 
HETATM   13  C   UNL     1      55.753 -40.051  26.303  1.00  0.00     0.148 A 
ATOM     14  HN  UNL     1      57.139 -39.026  25.204  1.00  0.00     0.167 HD
HETATM   15  N   UNL     1      55.183 -38.862  26.922  1.00  0.00    -0.080 NA
HETATM   16  N   UNL     1      54.270 -41.785  27.440  1.00  0.00    -0.346 N 
HETATM   17  C   UNL     1      54.259 -43.118  27.350  1.00  0.00     0.188 A 
ATOM     18  HN  UNL     1      53.652 -41.215  28.019  1.00  0.00     0.167 HD
ENDBRANCH   1   6
BRANCH   2  19
HETATM   19  O   UNL     1      53.527 -45.242  24.510  1.00  0.00    -0.388 OA
ATOM     20  HO  UNL     1      53.182 -46.126  24.478  1.00  0.00     0.210 HD
ENDBRANCH   2  19
BRANCH   3  21
HETATM   21  O   UNL     1      54.795 -47.465  24.630  1.00  0.00    -0.390 OA
ATOM     22  HO  UNL     1      53.878 -47.390  24.397  1.00  0.00     0.210 HD
ENDBRANCH   3  21
BRANCH   4  23
HETATM   23  C   UNL     1      58.040 -46.026  24.247  1.00  0.00     0.216 C 
BRANCH  23  24
HETATM   24  O   UNL     1      58.472 -44.717  24.516  1.00  0.00    -0.287 OA
BRANCH  24  25
HETATM   25  P   UNL     1      59.381 -43.912  23.391  1.00  0.00     0.416 P 
HETATM   26  O   UNL     1      60.260 -44.864  22.639  1.00  0.00    -0.624 OA
HETATM   27  O   UNL     1      58.414 -43.294  22.409  1.00  0.00    -0.624 OA
BRANCH  25  28
HETATM   28  O   UNL     1      60.356 -42.852  24.222  1.00  0.00    -0.197 OA
BRANCH  28  29
HETATM   29  C   UNL     1      60.983 -41.721  23.687  1.00  0.00     0.382 C 
HETATM   30  O   UNL     1      60.625 -40.589  23.943  1.00  0.00    -0.242 OA
HETATM   31  N   UNL     1      62.148 -42.033  22.868  1.00  0.00    -0.032 NA
ENDBRANCH  28  29
ENDBRANCH  25  28
ENDBRANCH  24  25
ENDBRANCH  23  24
ENDBRANCH   4  23
TORSDOF 8
ENDMDL
MODEL 4
REMARK VINA RESULT:    -9.488      2.247      3.447
REMARK INTER + INTRA:         -14.481
REMARK INTER:                 -13.464
REMARK INTRA:                  -1.017
REMARK UNBOUND:                -1.110
REMARK  8 active torsions:
REMARK  status: ('A' for Active; 'I' for Inactive)
REMARK    1  A    between atoms: N_13  and  C_16 
REMARK    2  A    between atoms: P_14  and  O_27 
REMARK    3  A    between atoms: P_14  and  O_31 
REMARK    4  A    between atoms: C_15  and  O_27 
REMARK    5  A    between atoms: C_19  and  O_20 
REMARK    6  A    between atoms: C_24  and  O_25 
REMARK    7  A    between atoms: C_28  and  C_30 
REMARK    8  A    between atoms: C_30  and  O_31 
ROOT
HETATM    1  C   UNL     1      57.565 -43.791  23.819  1.00  0.00     0.262 C 
HETATM    2  C   UNL     1      59.037 -44.057  24.565  1.00  0.00     0.198 C 
HETATM    3  C   UNL     1      59.746 -44.668  23.686  1.00  0.00     0.182 C 
HETATM    4  C   UNL     1      58.699 -45.483  22.833  1.00  0.00     0.180 C 
HETATM    5  O   UNL     1      57.321 -44.924  23.274  1.00  0.00    -0.353 OA
ENDROOT
BRANCH   1   6
HETATM    6  N   UNL     1      56.578 -43.452  24.806  1.00  0.00    -0.297 N 
HETATM    7  C   UNL     1      56.404 -42.235  25.367  1.00  0.00     0.142 A 
HETATM    8  N   UNL     1      57.015 -41.050  25.197  1.00  0.00    -0.336 N 
HETATM    9  C   UNL     1      55.354 -42.343  26.272  1.00  0.00     0.119 A 
HETATM   10  C   UNL     1      56.619 -39.974  25.894  1.00  0.00     0.183 A 
ATOM     11  HN  UNL     1      57.784 -40.968  24.532  1.00  0.00     0.168 HD
HETATM   12  N   UNL     1      55.634 -40.040  26.787  1.00  0.00    -0.339 N 
HETATM   13  C   UNL     1      54.979 -41.188  26.995  1.00  0.00     0.148 A 
ATOM     14  HN  UNL     1      55.376 -39.209  27.317  1.00  0.00     0.167 HD
HETATM   15  N   UNL     1      53.893 -41.254  27.964  1.00  0.00    -0.080 NA
HETATM   16  N   UNL     1      54.922 -43.621  26.236  1.00  0.00    -0.346 N 
HETATM   17  C   UNL     1      55.682 -44.278  25.355  1.00  0.00     0.188 A 
ATOM     18  HN  UNL     1      54.155 -44.014  26.782  1.00  0.00     0.167 HD
ENDBRANCH   1   6
BRANCH   2  19
HETATM   19  O   UNL     1      59.590 -42.773  24.992  1.00  0.00    -0.388 OA
ATOM     20  HO  UNL     1      59.716 -42.150  24.286  1.00  0.00     0.210 HD
ENDBRANCH   2  19
BRANCH   3  21
HETATM   21  O   UNL     1      60.423 -43.711  22.758  1.00  0.00    -0.390 OA
ATOM     22  HO  UNL     1      59.797 -43.239  22.222  1.00  0.00     0.210 HD
ENDBRANCH   3  21
BRANCH   4  23
HETATM   23  C   UNL     1      58.758 -46.854  23.069  1.00  0.00     0.216 C 
BRANCH  23  24
HETATM   24  O   UNL     1      57.457 -47.359  22.913  1.00  0.00    -0.287 OA
BRANCH  24  25
HETATM   25  P   UNL     1      56.910 -48.533  23.945  1.00  0.00     0.416 P 
HETATM   26  O   UNL     1      57.045 -48.091  25.371  1.00  0.00    -0.624 OA
HETATM   27  O   UNL     1      55.441 -48.723  23.651  1.00  0.00    -0.624 OA
BRANCH  25  28
HETATM   28  O   UNL     1      57.879 -49.866  23.722  1.00  0.00    -0.197 OA
BRANCH  28  29
HETATM   29  C   UNL     1      58.670 -50.479  24.701  1.00  0.00     0.382 C 
HETATM   30  O   UNL     1      59.654 -49.949  25.176  1.00  0.00    -0.242 OA
HETATM   31  N   UNL     1      58.150 -51.766  25.147  1.00  0.00    -0.032 NA
ENDBRANCH  28  29
ENDBRANCH  25  28
ENDBRANCH  24  25
ENDBRANCH  23  24
ENDBRANCH   4  23
TORSDOF 8
ENDMDL
MODEL 5
REMARK VINA RESULT:    -9.471      4.366      7.856
REMARK INTER + INTRA:         -14.457
REMARK INTER:                 -13.432
REMARK INTRA:                  -1.025
REMARK UNBOUND:                -1.110
REMARK  8 active torsions:
REMARK  status: ('A' for Active; 'I' for Inactive)
REMARK    1  A    between atoms: N_13  and  C_16 
REMARK    2  A    between atoms: P_14  and  O_27 
REMARK    3  A    between atoms: P_14  and  O_31 
REMARK    4  A    between atoms: C_15  and  O_27 
REMARK    5  A    between atoms: C_19  and  O_20 
REMARK    6  A    between atoms: C_24  and  O_25 
REMARK    7  A    between atoms: C_28  and  C_30 
REMARK    8  A    between atoms: C_30  and  O_31 
ROOT
HETATM    1  C   UNL     1      57.449 -45.389  23.315  1.00  0.00     0.262 C 
HETATM    2  C   UNL     1      57.494 -44.510  24.736  1.00  0.00     0.198 C 
HETATM    3  C   UNL     1      57.956 -43.360  24.399  1.00  0.00     0.182 C 
HETATM    4  C   UNL     1      58.905 -43.662  23.175  1.00  0.00     0.180 C 
HETATM    5  O   UNL     1      58.591 -45.132  22.793  1.00  0.00    -0.353 OA
ENDROOT
BRANCH   1   6
HETATM    6  N   UNL     1      57.304 -46.785  23.616  1.00  0.00    -0.297 N 
HETATM    7  C   UNL     1      58.279 -47.605  24.065  1.00  0.00     0.142 A 
HETATM    8  N   UNL     1      59.573 -47.411  24.371  1.00  0.00    -0.336 N 
HETATM    9  C   UNL     1      57.720 -48.870  24.218  1.00  0.00     0.119 A 
HETATM   10  C   UNL     1      60.326 -48.426  24.820  1.00  0.00     0.183 A 
ATOM     11  HN  UNL     1      59.985 -46.485  24.262  1.00  0.00     0.168 HD
HETATM   12  N   UNL     1      59.835 -49.656  24.959  1.00  0.00    -0.339 N 
HETATM   13  C   UNL     1      58.552 -49.913  24.681  1.00  0.00     0.148 A 
ATOM     14  HN  UNL     1      60.443 -50.409  25.279  1.00  0.00     0.167 HD
HETATM   15  N   UNL     1      58.015 -51.257  24.846  1.00  0.00    -0.080 NA
HETATM   16  N   UNL     1      56.422 -48.781  23.856  1.00  0.00    -0.346 N 
HETATM   17  C   UNL     1      56.193 -47.519  23.482  1.00  0.00     0.188 A 
ATOM     18  HN  UNL     1      55.740 -49.540  23.866  1.00  0.00     0.167 HD
ENDBRANCH   1   6
BRANCH   2  19
HETATM   19  O   UNL     1      56.150 -44.469  25.311  1.00  0.00    -0.388 OA
ATOM     20  HO  UNL     1      55.922 -43.636  25.707  1.00  0.00     0.210 HD
ENDBRANCH   2  19
BRANCH   3  21
HETATM   21  O   UNL     1      56.875 -42.452  23.907  1.00  0.00    -0.390 OA
ATOM     22  HO  UNL     1      56.873 -41.624  24.372  1.00  0.00     0.210 HD
ENDBRANCH   3  21
BRANCH   4  23
HETATM   23  C   UNL     1      60.255 -43.526  23.490  1.00  0.00     0.216 C 
BRANCH  23  24
HETATM   24  O   UNL     1      60.443 -42.212  23.950  1.00  0.00    -0.287 OA
BRANCH  24  25
HETATM   25  P   UNL     1      61.070 -41.073  22.925  1.00  0.00     0.416 P 
HETATM   26  O   UNL     1      62.380 -41.532  22.360  1.00  0.00    -0.624 OA
HETATM   27  O   UNL     1      60.093 -40.928  21.782  1.00  0.00    -0.624 OA
BRANCH  25  28
HETATM   28  O   UNL     1      61.346 -39.705  23.829  1.00  0.00    -0.197 OA
BRANCH  28  29
HETATM   29  C   UNL     1      60.553 -38.552  23.834  1.00  0.00     0.382 C 
HETATM   30  O   UNL     1      59.718 -38.333  24.688  1.00  0.00    -0.242 OA
HETATM   31  N   UNL     1      60.889 -37.610  22.773  1.00  0.00    -0.032 NA
ENDBRANCH  28  29
ENDBRANCH  25  28
ENDBRANCH  24  25
ENDBRANCH  23  24
ENDBRANCH   4  23
TORSDOF 8
ENDMDL
MODEL 6
REMARK VINA RESULT:    -9.228      3.120      7.479
REMARK INTER + INTRA:         -14.114
REMARK INTER:                 -12.655
REMARK INTRA:                  -1.458
REMARK UNBOUND:                -1.110
REMARK  8 active torsions:
REMARK  status: ('A' for Active; 'I' for Inactive)
REMARK    1  A    between atoms: N_13  and  C_16 
REMARK    2  A    between atoms: P_14  and  O_27 
REMARK    3  A    between atoms: P_14  and  O_31 
REMARK    4  A    between atoms: C_15  and  O_27 
REMARK    5  A    between atoms: C_19  and  O_20 
REMARK    6  A    between atoms: C_24  and  O_25 
REMARK    7  A    between atoms: C_28  and  C_30 
REMARK    8  A    between atoms: C_30  and  O_31 
ROOT
HETATM    1  C   UNL     1      59.175 -46.056  24.241  1.00  0.00     0.262 C 
HETATM    2  C   UNL     1      59.148 -45.369  22.717  1.00  0.00     0.198 C 
HETATM    3  C   UNL     1      59.129 -44.102  22.927  1.00  0.00     0.182 C 
HETATM    4  C   UNL     1      58.367 -43.944  24.300  1.00  0.00     0.180 C 
HETATM    5  O   UNL     1      58.279 -45.385  24.864  1.00  0.00    -0.353 OA
ENDROOT
BRANCH   1   6
HETATM    6  N   UNL     1      58.830 -47.447  24.148  1.00  0.00    -0.297 N 
HETATM    7  C   UNL     1      57.617 -47.943  23.819  1.00  0.00     0.142 A 
HETATM    8  N   UNL     1      56.451 -47.367  23.482  1.00  0.00    -0.336 N 
HETATM    9  C   UNL     1      57.713 -49.330  23.855  1.00  0.00     0.119 A 
HETATM   10  C   UNL     1      55.381 -48.119  23.183  1.00  0.00     0.183 A 
ATOM     11  HN  UNL     1      56.378 -46.350  23.453  1.00  0.00     0.168 HD
HETATM   12  N   UNL     1      55.425 -49.449  23.228  1.00  0.00    -0.339 N 
HETATM   13  C   UNL     1      56.558 -50.084  23.546  1.00  0.00     0.148 A 
ATOM     14  HN  UNL     1      54.586 -49.990  23.018  1.00  0.00     0.167 HD
HETATM   15  N   UNL     1      56.606 -51.540  23.583  1.00  0.00    -0.080 NA
HETATM   16  N   UNL     1      58.980 -49.636  24.206  1.00  0.00    -0.346 N 
HETATM   17  C   UNL     1      59.635 -48.487  24.393  1.00  0.00     0.188 A 
ATOM     18  HN  UNL     1      59.367 -50.574  24.311  1.00  0.00     0.167 HD
ENDBRANCH   1   6
BRANCH   2  19
HETATM   19  O   UNL     1      60.315 -45.832  21.967  1.00  0.00    -0.388 OA
ATOM     20  HO  UNL     1      60.978 -46.253  22.501  1.00  0.00     0.210 HD
ENDBRANCH   2  19
BRANCH   3  21
HETATM   21  O   UNL     1      60.505 -43.551  23.119  1.00  0.00    -0.390 OA
ATOM     22  HO  UNL     1      60.606 -43.148  23.973  1.00  0.00     0.210 HD
ENDBRANCH   3  21
BRANCH   4  23
HETATM   23  C   UNL     1      57.090 -43.408  24.152  1.00  0.00     0.216 C 
BRANCH  23  24
HETATM   24  O   UNL     1      56.175 -44.408  24.520  1.00  0.00    -0.287 OA
BRANCH  24  25
HETATM   25  P   UNL     1      55.143 -44.141  25.787  1.00  0.00     0.416 P 
HETATM   26  O   UNL     1      53.736 -44.486  25.407  1.00  0.00    -0.624 OA
HETATM   27  O   UNL     1      55.569 -45.070  26.900  1.00  0.00    -0.624 OA
BRANCH  25  28
HETATM   28  O   UNL     1      55.204 -42.515  26.129  1.00  0.00    -0.197 OA
BRANCH  28  29
HETATM   29  C   UNL     1      55.474 -41.949  27.380  1.00  0.00     0.382 C 
HETATM   30  O   UNL     1      56.500 -41.344  27.620  1.00  0.00    -0.242 OA
HETATM   31  N   UNL     1      54.374 -42.082  28.328  1.00  0.00    -0.032 NA
ENDBRANCH  28  29
ENDBRANCH  25  28
ENDBRANCH  24  25
ENDBRANCH  23  24
ENDBRANCH   4  23
TORSDOF 8
ENDMDL
MODEL 7
REMARK VINA RESULT:    -9.186      4.525      7.638
REMARK INTER + INTRA:         -14.054
REMARK INTER:                 -12.962
REMARK INTRA:                  -1.092
REMARK UNBOUND:                -1.110
REMARK  8 active torsions:
REMARK  status: ('A' for Active; 'I' for Inactive)
REMARK    1  A    between atoms: N_13  and  C_16 
REMARK    2  A    between atoms: P_14  and  O_27 
REMARK    3  A    between atoms: P_14  and  O_31 
REMARK    4  A    between atoms: C_15  and  O_27 
REMARK    5  A    between atoms: C_19  and  O_20 
REMARK    6  A    between atoms: C_24  and  O_25 
REMARK    7  A    between atoms: C_28  and  C_30 
REMARK    8  A    between atoms: C_30  and  O_31 
ROOT
HETATM    1  C   UNL     1      57.191 -45.480  23.454  1.00  0.00     0.262 C 
HETATM    2  C   UNL     1      57.351 -44.641  24.891  1.00  0.00     0.198 C 
HETATM    3  C   UNL     1      57.751 -43.471  24.547  1.00  0.00     0.182 C 
HETATM    4  C   UNL     1      58.586 -43.713  23.230  1.00  0.00     0.180 C 
HETATM    5  O   UNL     1      58.271 -45.179  22.835  1.00  0.00    -0.353 OA
ENDROOT
BRANCH   1   6
HETATM    6  N   UNL     1      57.108 -46.888  23.724  1.00  0.00    -0.297 N 
HETATM    7  C   UNL     1      58.131 -47.684  24.107  1.00  0.00     0.142 A 
HETATM    8  N   UNL     1      59.430 -47.452  24.357  1.00  0.00    -0.336 N 
HETATM    9  C   UNL     1      57.622 -48.971  24.252  1.00  0.00     0.119 A 
HETATM   10  C   UNL     1      60.238 -48.450  24.744  1.00  0.00     0.183 A 
ATOM     11  HN  UNL     1      59.805 -46.509  24.253  1.00  0.00     0.168 HD
HETATM   12  N   UNL     1      59.796 -49.700  24.873  1.00  0.00    -0.339 N 
HETATM   13  C   UNL     1      58.511 -49.995  24.648  1.00  0.00     0.148 A 
ATOM     14  HN  UNL     1      60.444 -50.439  25.145  1.00  0.00     0.167 HD
HETATM   15  N   UNL     1      58.028 -51.361  24.802  1.00  0.00    -0.080 NA
HETATM   16  N   UNL     1      56.307 -48.919  23.953  1.00  0.00    -0.346 N 
HETATM   17  C   UNL     1      56.018 -47.657  23.623  1.00  0.00     0.188 A 
ATOM     18  HN  UNL     1      55.652 -49.701  23.975  1.00  0.00     0.167 HD
ENDBRANCH   1   6
BRANCH   2  19
HETATM   19  O   UNL     1      56.067 -44.651  25.591  1.00  0.00    -0.388 OA
ATOM     20  HO  UNL     1      56.084 -45.101  26.427  1.00  0.00     0.210 HD
ENDBRANCH   2  19
BRANCH   3  21
HETATM   21  O   UNL     1      56.608 -42.578  24.187  1.00  0.00    -0.390 OA
ATOM     22  HO  UNL     1      56.489 -42.520  23.246  1.00  0.00     0.210 HD
ENDBRANCH   3  21
BRANCH   4  23
HETATM   23  C   UNL     1      59.956 -43.550  23.420  1.00  0.00     0.216 C 
BRANCH  23  24
HETATM   24  O   UNL     1      60.149 -42.276  23.979  1.00  0.00    -0.287 OA
BRANCH  24  25
HETATM   25  P   UNL     1      61.182 -41.212  23.242  1.00  0.00     0.416 P 
HETATM   26  O   UNL     1      61.170 -39.889  23.946  1.00  0.00    -0.624 OA
HETATM   27  O   UNL     1      62.569 -41.795  23.363  1.00  0.00    -0.624 OA
BRANCH  25  28
HETATM   28  O   UNL     1      60.618 -40.981  21.695  1.00  0.00    -0.197 OA
BRANCH  28  29
HETATM   29  C   UNL     1      61.086 -40.025  20.785  1.00  0.00     0.382 C 
HETATM   30  O   UNL     1      60.675 -38.883  20.764  1.00  0.00    -0.242 OA
HETATM   31  N   UNL     1      62.164 -40.512  19.933  1.00  0.00    -0.032 NA
ENDBRANCH  28  29
ENDBRANCH  25  28
ENDBRANCH  24  25
ENDBRANCH  23  24
ENDBRANCH   4  23
TORSDOF 8
ENDMDL
MODEL 8
REMARK VINA RESULT:    -9.171      3.370      7.832
REMARK INTER + INTRA:         -14.034
REMARK INTER:                 -12.616
REMARK INTRA:                  -1.417
REMARK UNBOUND:                -1.110
REMARK  8 active torsions:
REMARK  status: ('A' for Active; 'I' for Inactive)
REMARK    1  A    between atoms: N_13  and  C_16 
REMARK    2  A    between atoms: P_14  and  O_27 
REMARK    3  A    between atoms: P_14  and  O_31 
REMARK    4  A    between atoms: C_15  and  O_27 
REMARK    5  A    between atoms: C_19  and  O_20 
REMARK    6  A    between atoms: C_24  and  O_25 
REMARK    7  A    between atoms: C_28  and  C_30 
REMARK    8  A    between atoms: C_30  and  O_31 
ROOT
HETATM    1  C   UNL     1      57.353 -46.178  25.013  1.00  0.00     0.262 C 
HETATM    2  C   UNL     1      57.012 -44.986  23.891  1.00  0.00     0.198 C 
HETATM    3  C   UNL     1      56.715 -43.951  24.589  1.00  0.00     0.182 C 
HETATM    4  C   UNL     1      56.079 -44.537  25.909  1.00  0.00     0.180 C 
HETATM    5  O   UNL     1      56.391 -46.055  25.849  1.00  0.00    -0.353 OA
ENDROOT
BRANCH   1   6
HETATM    6  N   UNL     1      57.339 -47.463  24.371  1.00  0.00    -0.297 N 
HETATM    7  C   UNL     1      56.240 -48.126  23.949  1.00  0.00     0.142 A 
HETATM    8  N   UNL     1      54.929 -47.834  23.965  1.00  0.00    -0.336 N 
HETATM    9  C   UNL     1      56.669 -49.328  23.395  1.00  0.00     0.119 A 
HETATM   10  C   UNL     1      54.033 -48.691  23.453  1.00  0.00     0.183 A 
ATOM     11  HN  UNL     1      54.612 -46.953  24.369  1.00  0.00     0.168 HD
HETATM   12  N   UNL     1      54.400 -49.862  22.935  1.00  0.00    -0.339 N 
HETATM   13  C   UNL     1      55.691 -50.208  22.880  1.00  0.00     0.148 A 
ATOM     14  HN  UNL     1      53.691 -50.500  22.577  1.00  0.00     0.167 HD
HETATM   15  N   UNL     1      56.091 -51.484  22.301  1.00  0.00    -0.080 NA
HETATM   16  N   UNL     1      58.014 -49.360  23.498  1.00  0.00    -0.346 N 
HETATM   17  C   UNL     1      58.399 -48.232  24.102  1.00  0.00     0.188 A 
ATOM     18  HN  UNL     1      58.627 -50.109  23.174  1.00  0.00     0.167 HD
ENDBRANCH   1   6
BRANCH   2  19
HETATM   19  O   UNL     1      58.174 -44.807  23.022  1.00  0.00    -0.388 OA
ATOM     20  HO  UNL     1      58.040 -44.184  22.317  1.00  0.00     0.210 HD
ENDBRANCH   2  19
BRANCH   3  21
HETATM   21  O   UNL     1      57.934 -43.184  24.989  1.00  0.00    -0.390 OA
ATOM     22  HO  UNL     1      58.548 -43.098  24.269  1.00  0.00     0.210 HD
ENDBRANCH   3  21
BRANCH   4  23
HETATM   23  C   UNL     1      54.703 -44.333  25.984  1.00  0.00     0.216 C 
BRANCH  23  24
HETATM   24  O   UNL     1      54.483 -42.950  25.874  1.00  0.00    -0.287 OA
BRANCH  24  25
HETATM   25  P   UNL     1      54.872 -41.959  27.142  1.00  0.00     0.416 P 
HETATM   26  O   UNL     1      53.816 -40.916  27.344  1.00  0.00    -0.624 OA
HETATM   27  O   UNL     1      54.914 -42.828  28.377  1.00  0.00    -0.624 OA
BRANCH  25  28
HETATM   28  O   UNL     1      56.291 -41.190  26.741  1.00  0.00    -0.197 OA
BRANCH  28  29
HETATM   29  C   UNL     1      56.402 -40.003  26.008  1.00  0.00     0.382 C 
HETATM   30  O   UNL     1      56.150 -38.913  26.480  1.00  0.00    -0.242 OA
HETATM   31  N   UNL     1      56.928 -40.198  24.662  1.00  0.00    -0.032 NA
ENDBRANCH  28  29
ENDBRANCH  25  28
ENDBRANCH  24  25
ENDBRANCH  23  24
ENDBRANCH   4  23
TORSDOF 8
ENDMDL
MODEL 9
REMARK VINA RESULT:    -9.160      2.427      3.410
REMARK INTER + INTRA:         -14.019
REMARK INTER:                 -13.071
REMARK INTRA:                  -0.949
REMARK UNBOUND:                -1.110
REMARK  8 active torsions:
REMARK  status: ('A' for Active; 'I' for Inactive)
REMARK    1  A    between atoms: N_13  and  C_16 
REMARK    2  A    between atoms: P_14  and  O_27 
REMARK    3  A    between atoms: P_14  and  O_31 
REMARK    4  A    between atoms: C_15  and  O_27 
REMARK    5  A    between atoms: C_19  and  O_20 
REMARK    6  A    between atoms: C_24  and  O_25 
REMARK    7  A    between atoms: C_28  and  C_30 
REMARK    8  A    between atoms: C_30  and  O_31 
ROOT
HETATM    1  C   UNL     1      57.348 -44.113  24.074  1.00  0.00     0.262 C 
HETATM    2  C   UNL     1      58.928 -44.122  24.620  1.00  0.00     0.198 C 
HETATM    3  C   UNL     1      59.603 -44.652  23.665  1.00  0.00     0.182 C 
HETATM    4  C   UNL     1      58.594 -45.650  22.977  1.00  0.00     0.180 C 
HETATM    5  O   UNL     1      57.215 -45.291  23.588  1.00  0.00    -0.353 OA
ENDROOT
BRANCH   1   6
HETATM    6  N   UNL     1      56.457 -43.889  25.178  1.00  0.00    -0.297 N 
HETATM    7  C   UNL     1      56.179 -42.693  25.742  1.00  0.00     0.142 A 
HETATM    8  N   UNL     1      56.581 -41.438  25.478  1.00  0.00    -0.336 N 
HETATM    9  C   UNL     1      55.282 -42.923  26.780  1.00  0.00     0.119 A 
HETATM   10  C   UNL     1      56.124 -40.409  26.208  1.00  0.00     0.183 A 
ATOM     11  HN  UNL     1      57.237 -41.266  24.717  1.00  0.00     0.168 HD
HETATM   12  N   UNL     1      55.282 -40.589  27.224  1.00  0.00    -0.339 N 
HETATM   13  C   UNL     1      54.837 -41.813  27.532  1.00  0.00     0.148 A 
ATOM     14  HN  UNL     1      54.975 -39.787  27.773  1.00  0.00     0.167 HD
HETATM   15  N   UNL     1      53.907 -42.005  28.636  1.00  0.00    -0.080 NA
HETATM   16  N   UNL     1      55.043 -44.251  26.817  1.00  0.00    -0.346 N 
HETATM   17  C   UNL     1      55.772 -44.819  25.852  1.00  0.00     0.188 A 
ATOM     18  HN  UNL     1      54.419 -44.734  27.464  1.00  0.00     0.167 HD
ENDBRANCH   1   6
BRANCH   2  19
HETATM   19  O   UNL     1      59.325 -42.753  24.944  1.00  0.00    -0.388 OA
ATOM     20  HO  UNL     1      60.176 -42.683  25.360  1.00  0.00     0.210 HD
ENDBRANCH   2  19
BRANCH   3  21
HETATM   21  O   UNL     1      59.996 -43.641  22.637  1.00  0.00    -0.390 OA
ATOM     22  HO  UNL     1      59.282 -43.047  22.436  1.00  0.00     0.210 HD
ENDBRANCH   3  21
BRANCH   4  23
HETATM   23  C   UNL     1      58.897 -46.986  23.228  1.00  0.00     0.216 C 
BRANCH  23  24
HETATM   24  O   UNL     1      57.723 -47.726  23.009  1.00  0.00    -0.287 OA
BRANCH  24  25
HETATM   25  P   UNL     1      57.391 -49.030  23.974  1.00  0.00     0.416 P 
HETATM   26  O   UNL     1      58.533 -50.000  23.966  1.00  0.00    -0.624 OA
HETATM   27  O   UNL     1      57.234 -48.503  25.381  1.00  0.00    -0.624 OA
BRANCH  25  28
HETATM   28  O   UNL     1      56.061 -49.789  23.325  1.00  0.00    -0.197 OA
BRANCH  28  29
HETATM   29  C   UNL     1      56.085 -50.826  22.386  1.00  0.00     0.382 C 
HETATM   30  O   UNL     1      56.087 -50.628  21.188  1.00  0.00    -0.242 OA
HETATM   31  N   UNL     1      56.193 -52.151  22.986  1.00  0.00    -0.032 NA
ENDBRANCH  28  29
ENDBRANCH  25  28
ENDBRANCH  24  25
ENDBRANCH  23  24
ENDBRANCH   4  23
TORSDOF 8
ENDMDL
MODEL 10
REMARK VINA RESULT:    -9.064      4.881      7.556
REMARK INTER + INTRA:         -13.883
REMARK INTER:                 -12.614
REMARK INTRA:                  -1.269
REMARK UNBOUND:                -1.110
REMARK  8 active torsions:
REMARK  status: ('A' for Active; 'I' for Inactive)
REMARK    1  A    between atoms: N_13  and  C_16 
REMARK    2  A    between atoms: P_14  and  O_27 
REMARK    3  A    between atoms: P_14  and  O_31 
REMARK    4  A    between atoms: C_15  and  O_27 
REMARK    5  A    between atoms: C_19  and  O_20 
REMARK    6  A    between atoms: C_24  and  O_25 
REMARK    7  A    between atoms: C_28  and  C_30 
REMARK    8  A    between atoms: C_30  and  O_31 
ROOT
HETATM    1  C   UNL     1      56.165 -42.057  25.365  1.00  0.00     0.262 C 
HETATM    2  C   UNL     1      56.967 -41.295  26.618  1.00  0.00     0.198 C 
HETATM    3  C   UNL     1      57.131 -40.086  26.219  1.00  0.00     0.182 C 
HETATM    4  C   UNL     1      57.249 -40.203  24.650  1.00  0.00     0.180 C 
HETATM    5  O   UNL     1      56.817 -41.659  24.336  1.00  0.00    -0.353 OA
ENDROOT
BRANCH   1   6
HETATM    6  N   UNL     1      56.251 -43.480  25.532  1.00  0.00    -0.297 N 
HETATM    7  C   UNL     1      57.166 -44.292  24.958  1.00  0.00     0.142 A 
HETATM    8  N   UNL     1      58.208 -44.068  24.140  1.00  0.00    -0.336 N 
HETATM    9  C   UNL     1      56.887 -45.590  25.374  1.00  0.00     0.119 A 
HETATM   10  C   UNL     1      58.978 -45.084  23.723  1.00  0.00     0.183 A 
ATOM     11  HN  UNL     1      58.415 -43.117  23.835  1.00  0.00     0.168 HD
HETATM   12  N   UNL     1      58.731 -46.343  24.080  1.00  0.00    -0.339 N 
HETATM   13  C   UNL     1      57.715 -46.632  24.900  1.00  0.00     0.148 A 
ATOM     14  HN  UNL     1      59.322 -47.093  23.725  1.00  0.00     0.167 HD
HETATM   15  N   UNL     1      57.455 -48.009  25.299  1.00  0.00    -0.080 NA
HETATM   16  N   UNL     1      55.811 -45.528  26.187  1.00  0.00    -0.346 N 
HETATM   17  C   UNL     1      55.433 -44.249  26.259  1.00  0.00     0.188 A 
ATOM     18  HN  UNL     1      55.367 -46.315  26.661  1.00  0.00     0.167 HD
ENDBRANCH   1   6
BRANCH   2  19
HETATM   19  O   UNL     1      56.168 -41.419  27.837  1.00  0.00    -0.388 OA
ATOM     20  HO  UNL     1      55.608 -42.185  27.858  1.00  0.00     0.210 HD
ENDBRANCH   2  19
BRANCH   3  21
HETATM   21  O   UNL     1      55.934 -39.239  26.510  1.00  0.00    -0.390 OA
ATOM     22  HO  UNL     1      56.179 -38.356  26.756  1.00  0.00     0.210 HD
ENDBRANCH   3  21
BRANCH   4  23
HETATM   23  C   UNL     1      58.542 -39.975  24.186  1.00  0.00     0.216 C 
BRANCH  23  24
HETATM   24  O   UNL     1      58.513 -40.123  22.789  1.00  0.00    -0.287 OA
BRANCH  24  25
HETATM   25  P   UNL     1      59.859 -40.680  22.001  1.00  0.00     0.416 P 
HETATM   26  O   UNL     1      60.300 -41.995  22.569  1.00  0.00    -0.624 OA
HETATM   27  O   UNL     1      59.461 -40.901  20.561  1.00  0.00    -0.624 OA
BRANCH  25  28
HETATM   28  O   UNL     1      61.069 -39.570  22.263  1.00  0.00    -0.197 OA
BRANCH  28  29
HETATM   29  C   UNL     1      61.027 -38.214  21.921  1.00  0.00     0.382 C 
HETATM   30  O   UNL     1      60.770 -37.341  22.725  1.00  0.00    -0.242 OA
HETATM   31  N   UNL     1      61.403 -37.951  20.537  1.00  0.00    -0.032 NA
ENDBRANCH  28  29
ENDBRANCH  25  28
ENDBRANCH  24  25
ENDBRANCH  23  24
ENDBRANCH   4  23
TORSDOF 8
ENDMDL
MODEL 11
REMARK VINA RESULT:    -9.051      2.183      3.719
REMARK INTER + INTRA:         -13.865
REMARK INTER:                 -12.734
REMARK INTRA:                  -1.130
REMARK UNBOUND:                -1.110
REMARK  8 active torsions:
REMARK  status: ('A' for Active; 'I' for Inactive)
REMARK    1  A    between atoms: N_13  and  C_16 
REMARK    2  A    between atoms: P_14  and  O_27 
REMARK    3  A    between atoms: P_14  and  O_31 
REMARK    4  A    between atoms: C_15  and  O_27 
REMARK    5  A    between atoms: C_19  and  O_20 
REMARK    6  A    between atoms: C_24  and  O_25 
REMARK    7  A    between atoms: C_28  and  C_30 
REMARK    8  A    between atoms: C_30  and  O_31 
ROOT
HETATM    1  C   UNL     1      58.320 -43.161  23.212  1.00  0.00     0.262 C 
HETATM    2  C   UNL     1      59.519 -43.898  24.113  1.00  0.00     0.198 C 
HETATM    3  C   UNL     1      59.679 -45.050  23.570  1.00  0.00     0.182 C 
HETATM    4  C   UNL     1      58.257 -45.411  22.990  1.00  0.00     0.180 C 
HETATM    5  O   UNL     1      57.449 -44.092  23.094  1.00  0.00    -0.353 OA
ENDROOT
BRANCH   1   6
HETATM    6  N   UNL     1      57.799 -42.033  23.933  1.00  0.00    -0.297 N 
HETATM    7  C   UNL     1      56.968 -42.087  24.998  1.00  0.00     0.142 A 
HETATM    8  N   UNL     1      56.422 -43.105  25.684  1.00  0.00    -0.336 N 
HETATM    9  C   UNL     1      56.704 -40.777  25.384  1.00  0.00     0.119 A 
HETATM   10  C   UNL     1      55.624 -42.866  26.735  1.00  0.00     0.183 A 
ATOM     11  HN  UNL     1      56.616 -44.066  25.404  1.00  0.00     0.168 HD
HETATM   12  N   UNL     1      55.327 -41.627  27.123  1.00  0.00    -0.339 N 
HETATM   13  C   UNL     1      55.847 -40.571  26.488  1.00  0.00     0.148 A 
ATOM     14  HN  UNL     1      54.697 -41.482  27.912  1.00  0.00     0.167 HD
HETATM   15  N   UNL     1      55.530 -39.217  26.922  1.00  0.00    -0.080 NA
HETATM   16  N   UNL     1      57.379 -39.967  24.542  1.00  0.00    -0.346 N 
HETATM   17  C   UNL     1      58.023 -40.742  23.665  1.00  0.00     0.188 A 
ATOM     18  HN  UNL     1      57.395 -38.947  24.570  1.00  0.00     0.167 HD
ENDBRANCH   1   6
BRANCH   2  19
HETATM   19  O   UNL     1      60.714 -43.056  24.091  1.00  0.00    -0.388 OA
ATOM     20  HO  UNL     1      60.968 -42.764  23.224  1.00  0.00     0.210 HD
ENDBRANCH   2  19
BRANCH   3  21
HETATM   21  O   UNL     1      60.625 -44.991  22.414  1.00  0.00    -0.390 OA
ATOM     22  HO  UNL     1      60.883 -44.098  22.216  1.00  0.00     0.210 HD
ENDBRANCH   3  21
BRANCH   4  23
HETATM   23  C   UNL     1      57.620 -46.422  23.707  1.00  0.00     0.216 C 
BRANCH  23  24
HETATM   24  O   UNL     1      58.167 -47.643  23.277  1.00  0.00    -0.287 OA
BRANCH  24  25
HETATM   25  P   UNL     1      58.264 -48.910  24.338  1.00  0.00     0.416 P 
HETATM   26  O   UNL     1      59.691 -49.310  24.557  1.00  0.00    -0.624 OA
HETATM   27  O   UNL     1      57.707 -48.420  25.654  1.00  0.00    -0.624 OA
BRANCH  25  28
HETATM   28  O   UNL     1      57.468 -50.191  23.639  1.00  0.00    -0.197 OA
BRANCH  28  29
HETATM   29  C   UNL     1      56.254 -50.124  22.945  1.00  0.00     0.382 C 
HETATM   30  O   UNL     1      55.385 -49.322  23.219  1.00  0.00    -0.242 OA
HETATM   31  N   UNL     1      56.176 -51.046  21.818  1.00  0.00    -0.032 NA
ENDBRANCH  28  29
ENDBRANCH  25  28
ENDBRANCH  24  25
ENDBRANCH  23  24
ENDBRANCH   4  23
TORSDOF 8
ENDMDL
MODEL 12
REMARK VINA RESULT:    -9.014      2.295      3.997
REMARK INTER + INTRA:         -13.812
REMARK INTER:                 -12.696
REMARK INTRA:                  -1.117
REMARK UNBOUND:                -1.110
REMARK  8 active torsions:
REMARK  status: ('A' for Active; 'I' for Inactive)
REMARK    1  A    between atoms: N_13  and  C_16 
REMARK    2  A    between atoms: P_14  and  O_27 
REMARK    3  A    between atoms: P_14  and  O_31 
REMARK    4  A    between atoms: C_15  and  O_27 
REMARK    5  A    between atoms: C_19  and  O_20 
REMARK    6  A    between atoms: C_24  and  O_25 
REMARK    7  A    between atoms: C_28  and  C_30 
REMARK    8  A    between atoms: C_30  and  O_31 
ROOT
HETATM    1  C   UNL     1      58.341 -43.029  23.303  1.00  0.00     0.262 C 
HETATM    2  C   UNL     1      59.596 -43.692  24.186  1.00  0.00     0.198 C 
HETATM    3  C   UNL     1      59.787 -44.851  23.669  1.00  0.00     0.182 C 
HETATM    4  C   UNL     1      58.364 -45.286  23.143  1.00  0.00     0.180 C 
HETATM    5  O   UNL     1      57.506 -43.998  23.237  1.00  0.00    -0.353 OA
ENDROOT
BRANCH   1   6
HETATM    6  N   UNL     1      57.796 -41.903  24.009  1.00  0.00    -0.297 N 
HETATM    7  C   UNL     1      56.969 -41.962  25.076  1.00  0.00     0.142 A 
HETATM    8  N   UNL     1      56.449 -42.982  25.779  1.00  0.00    -0.336 N 
HETATM    9  C   UNL     1      56.675 -40.653  25.444  1.00  0.00     0.119 A 
HETATM   10  C   UNL     1      55.648 -42.746  26.829  1.00  0.00     0.183 A 
ATOM     11  HN  UNL     1      56.664 -43.942  25.513  1.00  0.00     0.168 HD
HETATM   12  N   UNL     1      55.323 -41.509  27.200  1.00  0.00    -0.339 N 
HETATM   13  C   UNL     1      55.816 -40.450  26.548  1.00  0.00     0.148 A 
ATOM     14  HN  UNL     1      54.692 -41.367  27.988  1.00  0.00     0.167 HD
HETATM   15  N   UNL     1      55.469 -39.098  26.963  1.00  0.00    -0.080 NA
HETATM   16  N   UNL     1      57.329 -39.839  24.589  1.00  0.00    -0.346 N 
HETATM   17  C   UNL     1      57.988 -40.612  23.721  1.00  0.00     0.188 A 
ATOM     18  HN  UNL     1      57.321 -38.819  24.602  1.00  0.00     0.167 HD
ENDBRANCH   1   6
BRANCH   2  19
HETATM   19  O   UNL     1      60.754 -42.803  24.105  1.00  0.00    -0.388 OA
ATOM     20  HO  UNL     1      60.968 -42.524  23.223  1.00  0.00     0.210 HD
ENDBRANCH   2  19
BRANCH   3  21
HETATM   21  O   UNL     1      60.695 -44.786  22.484  1.00  0.00    -0.390 OA
ATOM     22  HO  UNL     1      61.444 -45.362  22.583  1.00  0.00     0.210 HD
ENDBRANCH   3  21
BRANCH   4  23
HETATM   23  C   UNL     1      57.791 -46.301  23.906  1.00  0.00     0.216 C 
BRANCH  23  24
HETATM   24  O   UNL     1      57.197 -47.206  23.012  1.00  0.00    -0.287 OA
BRANCH  24  25
HETATM   25  P   UNL     1      56.440 -48.555  23.603  1.00  0.00     0.416 P 
HETATM   26  O   UNL     1      56.044 -48.357  25.035  1.00  0.00    -0.624 OA
HETATM   27  O   UNL     1      55.180 -48.740  22.790  1.00  0.00    -0.624 OA
BRANCH  25  28
HETATM   28  O   UNL     1      57.541 -49.799  23.537  1.00  0.00    -0.197 OA
BRANCH  28  29
HETATM   29  C   UNL     1      58.418 -50.174  24.562  1.00  0.00     0.382 C 
HETATM   30  O   UNL     1      59.269 -49.429  25.004  1.00  0.00    -0.242 OA
HETATM   31  N   UNL     1      58.153 -51.504  25.097  1.00  0.00    -0.032 NA
ENDBRANCH  28  29
ENDBRANCH  25  28
ENDBRANCH  24  25
ENDBRANCH  23  24
ENDBRANCH   4  23
TORSDOF 8
ENDMDL
MODEL 13
REMARK VINA RESULT:    -9.002      4.516      6.432
REMARK INTER + INTRA:         -13.795
REMARK INTER:                 -12.109
REMARK INTRA:                  -1.686
REMARK UNBOUND:                -1.110
REMARK  8 active torsions:
REMARK  status: ('A' for Active; 'I' for Inactive)
REMARK    1  A    between atoms: N_13  and  C_16 
REMARK    2  A    between atoms: P_14  and  O_27 
REMARK    3  A    between atoms: P_14  and  O_31 
REMARK    4  A    between atoms: C_15  and  O_27 
REMARK    5  A    between atoms: C_19  and  O_20 
REMARK    6  A    between atoms: C_24  and  O_25 
REMARK    7  A    between atoms: C_28  and  C_30 
REMARK    8  A    between atoms: C_30  and  O_31 
ROOT
HETATM    1  C   UNL     1      58.087 -44.066  24.686  1.00  0.00     0.262 C 
HETATM    2  C   UNL     1      57.922 -44.076  23.023  1.00  0.00     0.198 C 
HETATM    3  C   UNL     1      59.060 -44.469  22.580  1.00  0.00     0.182 C 
HETATM    4  C   UNL     1      60.097 -43.957  23.654  1.00  0.00     0.180 C 
HETATM    5  O   UNL     1      59.223 -43.498  24.849  1.00  0.00    -0.353 OA
ENDROOT
BRANCH   1   6
HETATM    6  N   UNL     1      57.021 -43.304  25.273  1.00  0.00    -0.297 N 
HETATM    7  C   UNL     1      57.009 -41.965  25.451  1.00  0.00     0.142 A 
HETATM    8  N   UNL     1      57.886 -40.991  25.153  1.00  0.00    -0.336 N 
HETATM    9  C   UNL     1      55.800 -41.638  26.057  1.00  0.00     0.119 A 
HETATM   10  C   UNL     1      57.605 -39.711  25.437  1.00  0.00     0.183 A 
ATOM     11  HN  UNL     1      58.772 -41.228  24.708  1.00  0.00     0.168 HD
HETATM   12  N   UNL     1      56.469 -39.359  26.037  1.00  0.00    -0.339 N 
HETATM   13  C   UNL     1      55.550 -40.279  26.351  1.00  0.00     0.148 A 
ATOM     14  HN  UNL     1      56.299 -38.379  26.261  1.00  0.00     0.167 HD
HETATM   15  N   UNL     1      54.304 -39.889  26.996  1.00  0.00    -0.080 NA
HETATM   16  N   UNL     1      55.115 -42.788  26.231  1.00  0.00    -0.346 N 
HETATM   17  C   UNL     1      55.874 -43.784  25.765  1.00  0.00     0.188 A 
ATOM     18  HN  UNL     1      54.186 -42.880  26.643  1.00  0.00     0.167 HD
ENDBRANCH   1   6
BRANCH   2  19
HETATM   19  O   UNL     1      56.806 -44.950  22.663  1.00  0.00    -0.388 OA
ATOM     20  HO  UNL     1      56.002 -44.767  23.134  1.00  0.00     0.210 HD
ENDBRANCH   2  19
BRANCH   3  21
HETATM   21  O   UNL     1      59.157 -45.960  22.549  1.00  0.00    -0.390 OA
ATOM     22  HO  UNL     1      58.317 -46.371  22.713  1.00  0.00     0.210 HD
ENDBRANCH   3  21
BRANCH   4  23
HETATM   23  C   UNL     1      60.875 -42.897  23.193  1.00  0.00     0.216 C 
BRANCH  23  24
HETATM   24  O   UNL     1      60.087 -41.737  23.275  1.00  0.00    -0.287 OA
BRANCH  24  25
HETATM   25  P   UNL     1      59.994 -40.721  21.972  1.00  0.00     0.416 P 
HETATM   26  O   UNL     1      61.311 -40.651  21.259  1.00  0.00    -0.624 OA
HETATM   27  O   UNL     1      58.980 -41.317  21.024  1.00  0.00    -0.624 OA
BRANCH  25  28
HETATM   28  O   UNL     1      59.642 -39.206  22.560  1.00  0.00    -0.197 OA
BRANCH  28  29
HETATM   29  C   UNL     1      60.533 -38.356  23.225  1.00  0.00     0.382 C 
HETATM   30  O   UNL     1      60.882 -38.540  24.374  1.00  0.00    -0.242 OA
HETATM   31  N   UNL     1      61.061 -37.291  22.381  1.00  0.00    -0.032 NA
ENDBRANCH  28  29
ENDBRANCH  25  28
ENDBRANCH  24  25
ENDBRANCH  23  24
ENDBRANCH   4  23
TORSDOF 8
ENDMDL
MODEL 14
REMARK VINA RESULT:    -8.999      3.808      7.626
REMARK INTER + INTRA:         -13.792
REMARK INTER:                 -12.842
REMARK INTRA:                  -0.950
REMARK UNBOUND:                -1.110
REMARK  8 active torsions:
REMARK  status: ('A' for Active; 'I' for Inactive)
REMARK    1  A    between atoms: N_13  and  C_16 
REMARK    2  A    between atoms: P_14  and  O_27 
REMARK    3  A    between atoms: P_14  and  O_31 
REMARK    4  A    between atoms: C_15  and  O_27 
REMARK    5  A    between atoms: C_19  and  O_20 
REMARK    6  A    between atoms: C_24  and  O_25 
REMARK    7  A    between atoms: C_28  and  C_30 
REMARK    8  A    between atoms: C_30  and  O_31 
ROOT
HETATM    1  C   UNL     1      58.427 -44.956  24.399  1.00  0.00     0.262 C 
HETATM    2  C   UNL     1      58.913 -44.137  23.025  1.00  0.00     0.198 C 
HETATM    3  C   UNL     1      59.206 -42.955  23.432  1.00  0.00     0.182 C 
HETATM    4  C   UNL     1      58.250 -42.716  24.664  1.00  0.00     0.180 C 
HETATM    5  O   UNL     1      57.646 -44.112  24.963  1.00  0.00    -0.353 OA
ENDROOT
BRANCH   1   6
HETATM    6  N   UNL     1      57.733 -46.156  24.025  1.00  0.00    -0.297 N 
HETATM    7  C   UNL     1      58.196 -47.417  24.169  1.00  0.00     0.142 A 
HETATM    8  N   UNL     1      59.333 -47.925  24.676  1.00  0.00    -0.336 N 
HETATM    9  C   UNL     1      57.220 -48.276  23.676  1.00  0.00     0.119 A 
HETATM   10  C   UNL     1      59.531 -49.251  24.707  1.00  0.00     0.183 A 
ATOM     11  HN  UNL     1      60.049 -47.298  25.040  1.00  0.00     0.168 HD
HETATM   12  N   UNL     1      58.631 -50.107  24.225  1.00  0.00    -0.339 N 
HETATM   13  C   UNL     1      57.475 -49.665  23.716  1.00  0.00     0.148 A 
ATOM     14  HN  UNL     1      58.825 -51.107  24.242  1.00  0.00     0.167 HD
HETATM   15  N   UNL     1      56.488 -50.604  23.200  1.00  0.00    -0.080 NA
HETATM   16  N   UNL     1      56.194 -47.512  23.246  1.00  0.00    -0.346 N 
HETATM   17  C   UNL     1      56.527 -46.235  23.452  1.00  0.00     0.188 A 
ATOM     18  HN  UNL     1      55.321 -47.849  22.837  1.00  0.00     0.167 HD
ENDBRANCH   1   6
BRANCH   2  19
HETATM   19  O   UNL     1      60.033 -44.855  22.417  1.00  0.00    -0.388 OA
ATOM     20  HO  UNL     1      60.773 -44.302  22.193  1.00  0.00     0.210 HD
ENDBRANCH   2  19
BRANCH   3  21
HETATM   21  O   UNL     1      60.610 -42.876  23.939  1.00  0.00    -0.390 OA
ATOM     22  HO  UNL     1      60.810 -43.590  24.533  1.00  0.00     0.210 HD
ENDBRANCH   3  21
BRANCH   4  23
HETATM   23  C   UNL     1      57.236 -41.801  24.393  1.00  0.00     0.216 C 
BRANCH  23  24
HETATM   24  O   UNL     1      56.163 -42.106  25.247  1.00  0.00    -0.287 OA
BRANCH  24  25
HETATM   25  P   UNL     1      55.812 -41.092  26.508  1.00  0.00     0.416 P 
HETATM   26  O   UNL     1      56.770 -41.304  27.640  1.00  0.00    -0.624 OA
HETATM   27  O   UNL     1      55.994 -39.682  25.998  1.00  0.00    -0.624 OA
BRANCH  25  28
HETATM   28  O   UNL     1      54.287 -41.486  27.039  1.00  0.00    -0.197 OA
BRANCH  28  29
HETATM   29  C   UNL     1      53.969 -42.517  27.930  1.00  0.00     0.382 C 
HETATM   30  O   UNL     1      54.136 -43.690  27.664  1.00  0.00    -0.242 OA
HETATM   31  N   UNL     1      53.502 -42.042  29.227  1.00  0.00    -0.032 NA
ENDBRANCH  28  29
ENDBRANCH  25  28
ENDBRANCH  24  25
ENDBRANCH  23  24
ENDBRANCH   4  23
TORSDOF 8
ENDMDL
MODEL 15
REMARK VINA RESULT:    -8.894      2.348      4.083
REMARK INTER + INTRA:         -13.643
REMARK INTER:                 -12.451
REMARK INTRA:                  -1.192
REMARK UNBOUND:                -1.110
REMARK  8 active torsions:
REMARK  status: ('A' for Active; 'I' for Inactive)
REMARK    1  A    between atoms: N_13  and  C_16 
REMARK    2  A    between atoms: P_14  and  O_27 
REMARK    3  A    between atoms: P_14  and  O_31 
REMARK    4  A    between atoms: C_15  and  O_27 
REMARK    5  A    between atoms: C_19  and  O_20 
REMARK    6  A    between atoms: C_24  and  O_25 
REMARK    7  A    between atoms: C_28  and  C_30 
REMARK    8  A    between atoms: C_30  and  O_31 
ROOT
HETATM    1  C   UNL     1      55.908 -45.652  25.450  1.00  0.00     0.262 C 
HETATM    2  C   UNL     1      55.335 -46.029  23.925  1.00  0.00     0.198 C 
HETATM    3  C   UNL     1      55.717 -47.238  23.719  1.00  0.00     0.182 C 
HETATM    4  C   UNL     1      57.062 -47.369  24.533  1.00  0.00     0.180 C 
HETATM    5  O   UNL     1      57.111 -46.092  25.411  1.00  0.00    -0.353 OA
ENDROOT
BRANCH   1   6
HETATM    6  N   UNL     1      55.867 -44.230  25.642  1.00  0.00    -0.297 N 
HETATM    7  C   UNL     1      55.122 -43.575  26.560  1.00  0.00     0.142 A 
HETATM    8  N   UNL     1      54.272 -43.987  27.516  1.00  0.00    -0.336 N 
HETATM    9  C   UNL     1      55.370 -42.215  26.402  1.00  0.00     0.119 A 
HETATM   10  C   UNL     1      53.663 -43.099  28.315  1.00  0.00     0.183 A 
ATOM     11  HN  UNL     1      54.089 -44.984  27.635  1.00  0.00     0.168 HD
HETATM   12  N   UNL     1      53.856 -41.788  28.182  1.00  0.00    -0.339 N 
HETATM   13  C   UNL     1      54.698 -41.314  27.256  1.00  0.00     0.148 A 
ATOM     14  HN  UNL     1      53.358 -41.140  28.791  1.00  0.00     0.167 HD
HETATM   15  N   UNL     1      54.916 -39.880  27.121  1.00  0.00    -0.080 NA
HETATM   16  N   UNL     1      56.258 -42.084  25.393  1.00  0.00    -0.346 N 
HETATM   17  C   UNL     1      56.535 -43.309  24.938  1.00  0.00     0.188 A 
ATOM     18  HN  UNL     1      56.646 -41.209  25.042  1.00  0.00     0.167 HD
ENDBRANCH   1   6
BRANCH   2  19
HETATM   19  O   UNL     1      53.884 -45.849  23.906  1.00  0.00    -0.388 OA
ATOM     20  HO  UNL     1      53.554 -45.285  24.594  1.00  0.00     0.210 HD
ENDBRANCH   2  19
BRANCH   3  21
HETATM   21  O   UNL     1      54.755 -48.228  24.292  1.00  0.00    -0.390 OA
ATOM     22  HO  UNL     1      55.204 -48.944  24.726  1.00  0.00     0.210 HD
ENDBRANCH   3  21
BRANCH   4  23
HETATM   23  C   UNL     1      58.187 -47.431  23.714  1.00  0.00     0.216 C 
BRANCH  23  24
HETATM   24  O   UNL     1      59.093 -46.463  24.179  1.00  0.00    -0.287 OA
BRANCH  24  25
HETATM   25  P   UNL     1      59.453 -45.159  23.223  1.00  0.00     0.416 P 
HETATM   26  O   UNL     1      60.588 -45.478  22.298  1.00  0.00    -0.624 OA
HETATM   27  O   UNL     1      58.229 -44.882  22.383  1.00  0.00    -0.624 OA
BRANCH  25  28
HETATM   28  O   UNL     1      59.938 -43.933  24.236  1.00  0.00    -0.197 OA
BRANCH  28  29
HETATM   29  C   UNL     1      60.126 -42.595  23.873  1.00  0.00     0.382 C 
HETATM   30  O   UNL     1      59.366 -41.710  24.211  1.00  0.00    -0.242 OA
HETATM   31  N   UNL     1      61.358 -42.361  23.129  1.00  0.00    -0.032 NA
ENDBRANCH  28  29
ENDBRANCH  25  28
ENDBRANCH  24  25
ENDBRANCH  23  24
ENDBRANCH   4  23
TORSDOF 8
ENDMDL
MODEL 16
REMARK VINA RESULT:    -8.866      6.450      8.586
REMARK INTER + INTRA:         -13.604
REMARK INTER:                 -12.601
REMARK INTRA:                  -1.004
REMARK UNBOUND:                -1.110
REMARK  8 active torsions:
REMARK  status: ('A' for Active; 'I' for Inactive)
REMARK    1  A    between atoms: N_13  and  C_16 
REMARK    2  A    between atoms: P_14  and  O_27 
REMARK    3  A    between atoms: P_14  and  O_31 
REMARK    4  A    between atoms: C_15  and  O_27 
REMARK    5  A    between atoms: C_19  and  O_20 
REMARK    6  A    between atoms: C_24  and  O_25 
REMARK    7  A    between atoms: C_28  and  C_30 
REMARK    8  A    between atoms: C_30  and  O_31 
ROOT
HETATM    1  C   UNL     1      58.379 -39.396  23.655  1.00  0.00     0.262 C 
HETATM    2  C   UNL     1      59.968 -39.330  24.169  1.00  0.00     0.198 C 
HETATM    3  C   UNL     1      60.633 -38.956  23.136  1.00  0.00     0.182 C 
HETATM    4  C   UNL     1      59.818 -39.532  21.914  1.00  0.00     0.180 C 
HETATM    5  O   UNL     1      58.475 -40.003  22.531  1.00  0.00    -0.353 OA
ENDROOT
BRANCH   1   6
HETATM    6  N   UNL     1      57.597 -40.145  24.599  1.00  0.00    -0.297 N 
HETATM    7  C   UNL     1      57.344 -41.471  24.544  1.00  0.00     0.142 A 
HETATM    8  N   UNL     1      57.715 -42.441  23.691  1.00  0.00    -0.336 N 
HETATM    9  C   UNL     1      56.548 -41.787  25.639  1.00  0.00     0.119 A 
HETATM   10  C   UNL     1      57.320 -43.708  23.888  1.00  0.00     0.183 A 
ATOM     11  HN  UNL     1      58.300 -42.213  22.888  1.00  0.00     0.168 HD
HETATM   12  N   UNL     1      56.539 -44.048  24.911  1.00  0.00    -0.339 N 
HETATM   13  C   UNL     1      56.144 -43.131  25.801  1.00  0.00     0.148 A 
ATOM     14  HN  UNL     1      56.238 -45.016  25.017  1.00  0.00     0.167 HD
HETATM   15  N   UNL     1      55.299 -43.509  26.927  1.00  0.00    -0.080 NA
HETATM   16  N   UNL     1      56.339 -40.644  26.327  1.00  0.00    -0.346 N 
HETATM   17  C   UNL     1      56.968 -39.662  25.676  1.00  0.00     0.188 A 
ATOM     18  HN  UNL     1      55.799 -40.548  27.187  1.00  0.00     0.167 HD
ENDBRANCH   1   6
BRANCH   2  19
HETATM   19  O   UNL     1      60.062 -38.413  25.304  1.00  0.00    -0.388 OA
ATOM     20  HO  UNL     1      59.236 -38.254  25.744  1.00  0.00     0.210 HD
ENDBRANCH   2  19
BRANCH   3  21
HETATM   21  O   UNL     1      60.648 -37.468  22.996  1.00  0.00    -0.390 OA
ATOM     22  HO  UNL     1      61.237 -37.062  23.620  1.00  0.00     0.210 HD
ENDBRANCH   3  21
BRANCH   4  23
HETATM   23  C   UNL     1      60.459 -40.599  21.290  1.00  0.00     0.216 C 
BRANCH  23  24
HETATM   24  O   UNL     1      60.410 -40.360  19.906  1.00  0.00    -0.287 OA
BRANCH  24  25
HETATM   25  P   UNL     1      61.775 -39.847  19.121  1.00  0.00     0.416 P 
HETATM   26  O   UNL     1      62.166 -38.475  19.579  1.00  0.00    -0.624 OA
HETATM   27  O   UNL     1      62.882 -40.801  19.500  1.00  0.00    -0.624 OA
BRANCH  25  28
HETATM   28  O   UNL     1      61.402 -39.766  17.502  1.00  0.00    -0.197 OA
BRANCH  28  29
HETATM   29  C   UNL     1      60.192 -39.318  16.960  1.00  0.00     0.382 C 
HETATM   30  O   UNL     1      59.293 -40.072  16.647  1.00  0.00    -0.242 OA
HETATM   31  N   UNL     1      60.089 -37.866  16.889  1.00  0.00    -0.032 NA
ENDBRANCH  28  29
ENDBRANCH  25  28
ENDBRANCH  24  25
ENDBRANCH  23  24
ENDBRANCH   4  23
TORSDOF 8
ENDMDL
MODEL 17
REMARK VINA RESULT:    -8.860      5.937      8.281
REMARK INTER + INTRA:         -13.596
REMARK INTER:                 -12.762
REMARK INTRA:                  -0.834
REMARK UNBOUND:                -1.110
REMARK  8 active torsions:
REMARK  status: ('A' for Active; 'I' for Inactive)
REMARK    1  A    between atoms: N_13  and  C_16 
REMARK    2  A    between atoms: P_14  and  O_27 
REMARK    3  A    between atoms: P_14  and  O_31 
REMARK    4  A    between atoms: C_15  and  O_27 
REMARK    5  A    between atoms: C_19  and  O_20 
REMARK    6  A    between atoms: C_24  and  O_25 
REMARK    7  A    between atoms: C_28  and  C_30 
REMARK    8  A    between atoms: C_30  and  O_31 
ROOT
HETATM    1  C   UNL     1      58.233 -42.939  22.698  1.00  0.00     0.262 C 
HETATM    2  C   UNL     1      58.120 -41.796  23.912  1.00  0.00     0.198 C 
HETATM    3  C   UNL     1      58.295 -40.669  23.323  1.00  0.00     0.182 C 
HETATM    4  C   UNL     1      59.249 -41.004  22.112  1.00  0.00     0.180 C 
HETATM    5  O   UNL     1      59.269 -42.553  22.050  1.00  0.00    -0.353 OA
ENDROOT
BRANCH   1   6
HETATM    6  N   UNL     1      58.421 -44.240  23.276  1.00  0.00    -0.297 N 
HETATM    7  C   UNL     1      57.458 -45.008  23.831  1.00  0.00     0.142 A 
HETATM    8  N   UNL     1      56.134 -44.843  23.996  1.00  0.00    -0.336 N 
HETATM    9  C   UNL     1      58.064 -46.178  24.274  1.00  0.00     0.119 A 
HETATM   10  C   UNL     1      55.398 -45.797  24.583  1.00  0.00     0.183 A 
ATOM     11  HN  UNL     1      55.687 -43.986  23.670  1.00  0.00     0.168 HD
HETATM   12  N   UNL     1      55.943 -46.922  25.042  1.00  0.00    -0.339 N 
HETATM   13  C   UNL     1      57.253 -47.151  24.899  1.00  0.00     0.148 A 
ATOM     14  HN  UNL     1      55.357 -47.615  25.505  1.00  0.00     0.167 HD
HETATM   15  N   UNL     1      57.845 -48.388  25.391  1.00  0.00    -0.080 NA
HETATM   16  N   UNL     1      59.378 -46.087  23.976  1.00  0.00    -0.346 N 
HETATM   17  C   UNL     1      59.577 -44.905  23.387  1.00  0.00     0.188 A 
ATOM     18  HN  UNL     1      60.090 -46.793  24.166  1.00  0.00     0.167 HD
ENDBRANCH   1   6
BRANCH   2  19
HETATM   19  O   UNL     1      56.821 -41.931  24.570  1.00  0.00    -0.388 OA
ATOM     20  HO  UNL     1      56.587 -41.195  25.123  1.00  0.00     0.210 HD
ENDBRANCH   2  19
BRANCH   3  21
HETATM   21  O   UNL     1      57.020 -40.141  22.748  1.00  0.00    -0.390 OA
ATOM     22  HO  UNL     1      57.180 -39.495  22.071  1.00  0.00     0.210 HD
ENDBRANCH   3  21
BRANCH   4  23
HETATM   23  C   UNL     1      60.541 -40.514  22.289  1.00  0.00     0.216 C 
BRANCH  23  24
HETATM   24  O   UNL     1      60.626 -39.303  21.582  1.00  0.00    -0.287 OA
BRANCH  24  25
HETATM   25  P   UNL     1      61.177 -39.309  20.021  1.00  0.00     0.416 P 
HETATM   26  O   UNL     1      60.053 -39.558  19.062  1.00  0.00    -0.624 OA
HETATM   27  O   UNL     1      61.728 -37.929  19.748  1.00  0.00    -0.624 OA
BRANCH  25  28
HETATM   28  O   UNL     1      62.258 -40.566  19.891  1.00  0.00    -0.197 OA
BRANCH  28  29
HETATM   29  C   UNL     1      63.321 -40.644  18.985  1.00  0.00     0.382 C 
HETATM   30  O   UNL     1      64.409 -41.094  19.286  1.00  0.00    -0.242 OA
HETATM   31  N   UNL     1      62.970 -40.215  17.637  1.00  0.00    -0.032 NA
ENDBRANCH  28  29
ENDBRANCH  25  28
ENDBRANCH  24  25
ENDBRANCH  23  24
ENDBRANCH   4  23
TORSDOF 8
ENDMDL
MODEL 18
REMARK VINA RESULT:    -8.847      3.658      7.337
REMARK INTER + INTRA:         -13.578
REMARK INTER:                 -12.379
REMARK INTRA:                  -1.199
REMARK UNBOUND:                -1.110
REMARK  8 active torsions:
REMARK  status: ('A' for Active; 'I' for Inactive)
REMARK    1  A    between atoms: N_13  and  C_16 
REMARK    2  A    between atoms: P_14  and  O_27 
REMARK    3  A    between atoms: P_14  and  O_31 
REMARK    4  A    between atoms: C_15  and  O_27 
REMARK    5  A    between atoms: C_19  and  O_20 
REMARK    6  A    between atoms: C_24  and  O_25 
REMARK    7  A    between atoms: C_28  and  C_30 
REMARK    8  A    between atoms: C_30  and  O_31 
ROOT
HETATM    1  C   UNL     1      58.564 -45.542  24.171  1.00  0.00     0.262 C 
HETATM    2  C   UNL     1      58.811 -44.708  22.744  1.00  0.00     0.198 C 
HETATM    3  C   UNL     1      59.099 -43.510  23.107  1.00  0.00     0.182 C 
HETATM    4  C   UNL     1      58.315 -43.312  24.461  1.00  0.00     0.180 C 
HETATM    5  O   UNL     1      57.829 -44.734  24.840  1.00  0.00    -0.353 OA
ENDROOT
BRANCH   1   6
HETATM    6  N   UNL     1      57.885 -46.777  23.896  1.00  0.00    -0.297 N 
HETATM    7  C   UNL     1      56.549 -46.935  23.766  1.00  0.00     0.142 A 
HETATM    8  N   UNL     1      55.514 -46.081  23.822  1.00  0.00    -0.336 N 
HETATM    9  C   UNL     1      56.314 -48.283  23.514  1.00  0.00     0.119 A 
HETATM   10  C   UNL     1      54.259 -46.518  23.639  1.00  0.00     0.183 A 
ATOM     11  HN  UNL     1      55.683 -45.092  24.005  1.00  0.00     0.168 HD
HETATM   12  N   UNL     1      53.990 -47.804  23.418  1.00  0.00    -0.339 N 
HETATM   13  C   UNL     1      54.977 -48.703  23.340  1.00  0.00     0.148 A 
ATOM     14  HN  UNL     1      53.022 -48.105  23.307  1.00  0.00     0.167 HD
HETATM   15  N   UNL     1      54.680 -50.107  23.086  1.00  0.00    -0.080 NA
HETATM   16  N   UNL     1      57.513 -48.903  23.500  1.00  0.00    -0.346 N 
HETATM   17  C   UNL     1      58.448 -47.981  23.746  1.00  0.00     0.188 A 
ATOM     18  HN  UNL     1      57.677 -49.896  23.331  1.00  0.00     0.167 HD
ENDBRANCH   1   6
BRANCH   2  19
HETATM   19  O   UNL     1      59.869 -45.372  21.983  1.00  0.00    -0.388 OA
ATOM     20  HO  UNL     1      60.048 -44.976  21.139  1.00  0.00     0.210 HD
ENDBRANCH   2  19
BRANCH   3  21
HETATM   21  O   UNL     1      60.555 -43.359  23.412  1.00  0.00    -0.390 OA
ATOM     22  HO  UNL     1      60.819 -43.905  24.143  1.00  0.00     0.210 HD
ENDBRANCH   3  21
BRANCH   4  23
HETATM   23  C   UNL     1      57.228 -42.450  24.336  1.00  0.00     0.216 C 
BRANCH  23  24
HETATM   24  O   UNL     1      56.395 -42.670  25.446  1.00  0.00    -0.287 OA
BRANCH  24  25
HETATM   25  P   UNL     1      55.976 -41.394  26.415  1.00  0.00     0.416 P 
HETATM   26  O   UNL     1      56.836 -41.356  27.642  1.00  0.00    -0.624 OA
HETATM   27  O   UNL     1      56.239 -40.137  25.620  1.00  0.00    -0.624 OA
BRANCH  25  28
HETATM   28  O   UNL     1      54.403 -41.642  26.892  1.00  0.00    -0.197 OA
BRANCH  28  29
HETATM   29  C   UNL     1      53.956 -42.644  27.760  1.00  0.00     0.382 C 
HETATM   30  O   UNL     1      53.996 -43.824  27.476  1.00  0.00    -0.242 OA
HETATM   31  N   UNL     1      53.524 -42.140  29.058  1.00  0.00    -0.032 NA
ENDBRANCH  28  29
ENDBRANCH  25  28
ENDBRANCH  24  25
ENDBRANCH  23  24
ENDBRANCH   4  23
TORSDOF 8
ENDMDL
MODEL 19
REMARK VINA RESULT:    -8.799      4.675      6.974
REMARK INTER + INTRA:         -13.509
REMARK INTER:                 -12.473
REMARK INTRA:                  -1.036
REMARK UNBOUND:                -1.110
REMARK  8 active torsions:
REMARK  status: ('A' for Active; 'I' for Inactive)
REMARK    1  A    between atoms: N_13  and  C_16 
REMARK    2  A    between atoms: P_14  and  O_27 
REMARK    3  A    between atoms: P_14  and  O_31 
REMARK    4  A    between atoms: C_15  and  O_27 
REMARK    5  A    between atoms: C_19  and  O_20 
REMARK    6  A    between atoms: C_24  and  O_25 
REMARK    7  A    between atoms: C_28  and  C_30 
REMARK    8  A    between atoms: C_30  and  O_31 
ROOT
HETATM    1  C   UNL     1      55.963 -42.084  25.371  1.00  0.00     0.262 C 
HETATM    2  C   UNL     1      56.300 -41.258  26.785  1.00  0.00     0.198 C 
HETATM    3  C   UNL     1      56.479 -40.040  26.421  1.00  0.00     0.182 C 
HETATM    4  C   UNL     1      57.060 -40.148  24.958  1.00  0.00     0.180 C 
HETATM    5  O   UNL     1      56.855 -41.635  24.568  1.00  0.00    -0.353 OA
ENDROOT
BRANCH   1   6
HETATM    6  N   UNL     1      56.107 -43.495  25.591  1.00  0.00    -0.297 N 
HETATM    7  C   UNL     1      56.858 -44.341  24.851  1.00  0.00     0.142 A 
HETATM    8  N   UNL     1      57.657 -44.165  23.785  1.00  0.00    -0.336 N 
HETATM    9  C   UNL     1      56.711 -45.612  25.396  1.00  0.00     0.119 A 
HETATM   10  C   UNL     1      58.310 -45.204  23.244  1.00  0.00     0.183 A 
ATOM     11  HN  UNL     1      57.768 -43.234  23.384  1.00  0.00     0.168 HD
HETATM   12  N   UNL     1      58.178 -46.440  23.722  1.00  0.00    -0.339 N 
HETATM   13  C   UNL     1      57.406 -46.680  24.788  1.00  0.00     0.148 A 
ATOM     14  HN  UNL     1      58.671 -47.211  23.271  1.00  0.00     0.167 HD
HETATM   15  N   UNL     1      57.274 -48.032  25.316  1.00  0.00    -0.080 NA
HETATM   16  N   UNL     1      55.874 -45.502  26.450  1.00  0.00    -0.346 N 
HETATM   17  C   UNL     1      55.509 -44.220  26.543  1.00  0.00     0.188 A 
ATOM     18  HN  UNL     1      55.575 -46.259  27.064  1.00  0.00     0.167 HD
ENDBRANCH   1   6
BRANCH   2  19
HETATM   19  O   UNL     1      55.192 -41.446  27.719  1.00  0.00    -0.388 OA
ATOM     20  HO  UNL     1      54.552 -42.090  27.439  1.00  0.00     0.210 HD
ENDBRANCH   2  19
BRANCH   3  21
HETATM   21  O   UNL     1      55.187 -39.294  26.329  1.00  0.00    -0.390 OA
ATOM     22  HO  UNL     1      55.209 -38.634  25.646  1.00  0.00     0.210 HD
ENDBRANCH   3  21
BRANCH   4  23
HETATM   23  C   UNL     1      58.411 -39.815  24.886  1.00  0.00     0.216 C 
BRANCH  23  24
HETATM   24  O   UNL     1      58.715 -39.607  23.530  1.00  0.00    -0.287 OA
BRANCH  24  25
HETATM   25  P   UNL     1      60.274 -39.265  23.089  1.00  0.00     0.416 P 
HETATM   26  O   UNL     1      60.451 -39.416  21.609  1.00  0.00    -0.624 OA
HETATM   27  O   UNL     1      60.521 -37.819  23.446  1.00  0.00    -0.624 OA
BRANCH  25  28
HETATM   28  O   UNL     1      61.249 -40.381  23.844  1.00  0.00    -0.197 OA
BRANCH  28  29
HETATM   29  C   UNL     1      61.383 -41.728  23.487  1.00  0.00     0.382 C 
HETATM   30  O   UNL     1      62.192 -42.113  22.668  1.00  0.00    -0.242 OA
HETATM   31  N   UNL     1      60.522 -42.621  24.253  1.00  0.00    -0.032 NA
ENDBRANCH  28  29
ENDBRANCH  25  28
ENDBRANCH  24  25
ENDBRANCH  23  24
ENDBRANCH   4  23
TORSDOF 8
ENDMDL
MODEL 20
REMARK VINA RESULT:    -8.765      2.999      4.716
REMARK INTER + INTRA:         -13.461
REMARK INTER:                 -12.084
REMARK INTRA:                  -1.377
REMARK UNBOUND:                -1.110
REMARK  8 active torsions:
REMARK  status: ('A' for Active; 'I' for Inactive)
REMARK    1  A    between atoms: N_13  and  C_16 
REMARK    2  A    between atoms: P_14  and  O_27 
REMARK    3  A    between atoms: P_14  and  O_31 
REMARK    4  A    between atoms: C_15  and  O_27 
REMARK    5  A    between atoms: C_19  and  O_20 
REMARK    6  A    between atoms: C_24  and  O_25 
REMARK    7  A    between atoms: C_28  and  C_30 
REMARK    8  A    between atoms: C_30  and  O_31 
ROOT
HETATM    1  C   UNL     1      56.843 -46.768  23.512  1.00  0.00     0.262 C 
HETATM    2  C   UNL     1      57.098 -47.997  24.617  1.00  0.00     0.198 C 
HETATM    3  C   UNL     1      56.654 -49.055  24.043  1.00  0.00     0.182 C 
HETATM    4  C   UNL     1      55.489 -48.537  23.112  1.00  0.00     0.180 C 
HETATM    5  O   UNL     1      55.645 -46.994  23.119  1.00  0.00    -0.353 OA
ENDROOT
BRANCH   1   6
HETATM    6  N   UNL     1      56.956 -45.497  24.170  1.00  0.00    -0.297 N 
HETATM    7  C   UNL     1      55.957 -44.837  24.797  1.00  0.00     0.142 A 
HETATM    8  N   UNL     1      54.663 -45.123  25.015  1.00  0.00    -0.336 N 
HETATM    9  C   UNL     1      56.489 -43.648  25.286  1.00  0.00     0.119 A 
HETATM   10  C   UNL     1      53.883 -44.272  25.698  1.00  0.00     0.183 A 
ATOM     11  HN  UNL     1      54.271 -45.995  24.659  1.00  0.00     0.168 HD
HETATM   12  N   UNL     1      54.347 -43.114  26.162  1.00  0.00    -0.339 N 
HETATM   13  C   UNL     1      55.629 -42.775  25.988  1.00  0.00     0.148 A 
ATOM     14  HN  UNL     1      53.720 -42.480  26.656  1.00  0.00     0.167 HD
HETATM   15  N   UNL     1      56.137 -41.512  26.508  1.00  0.00    -0.080 NA
HETATM   16  N   UNL     1      57.794 -43.620  24.940  1.00  0.00    -0.346 N 
HETATM   17  C   UNL     1      58.054 -44.737  24.255  1.00  0.00     0.188 A 
ATOM     18  HN  UNL     1      58.461 -42.880  25.162  1.00  0.00     0.167 HD
ENDBRANCH   1   6
BRANCH   2  19
HETATM   19  O   UNL     1      58.522 -48.049  24.947  1.00  0.00    -0.388 OA
ATOM     20  HO  UNL     1      58.758 -48.751  25.542  1.00  0.00     0.210 HD
ENDBRANCH   2  19
BRANCH   3  21
HETATM   21  O   UNL     1      57.684 -49.678  23.157  1.00  0.00    -0.390 OA
ATOM     22  HO  UNL     1      57.609 -50.625  23.142  1.00  0.00     0.210 HD
ENDBRANCH   3  21
BRANCH   4  23
HETATM   23  C   UNL     1      54.226 -48.894  23.576  1.00  0.00     0.216 C 
BRANCH  23  24
HETATM   24  O   UNL     1      53.479 -49.315  22.464  1.00  0.00    -0.287 OA
BRANCH  24  25
HETATM   25  P   UNL     1      53.686 -50.849  21.877  1.00  0.00     0.416 P 
HETATM   26  O   UNL     1      52.365 -51.477  21.554  1.00  0.00    -0.624 OA
HETATM   27  O   UNL     1      54.471 -50.723  20.593  1.00  0.00    -0.624 OA
BRANCH  25  28
HETATM   28  O   UNL     1      54.401 -51.739  23.086  1.00  0.00    -0.197 OA
BRANCH  28  29
HETATM   29  C   UNL     1      55.326 -52.774  22.907  1.00  0.00     0.382 C 
HETATM   30  O   UNL     1      55.150 -53.682  22.119  1.00  0.00    -0.242 OA
HETATM   31  N   UNL     1      56.545 -52.608  23.689  1.00  0.00    -0.032 NA
ENDBRANCH  28  29
ENDBRANCH  25  28
ENDBRANCH  24  25
ENDBRANCH  23  24
ENDBRANCH   4  23
TORSDOF 8
ENDMDL
