MODEL 1
REMARK VINA RESULT:    -6.295      0.000      0.000
REMARK INTER + INTRA:          -7.440
REMARK INTER:                  -7.399
REMARK INTRA:                  -0.041
REMARK UNBOUND:                -0.041
REMARK  3 active torsions:
REMARK  status: ('A' for Active; 'I' for Inactive)
REMARK    1  A    between atoms: P_1  and  O_2 
REMARK    2  A    between atoms: O_2  and  C_6 
REMARK    3  A    between atoms: C_6  and  C_7 
ROOT
HETATM    1  O   UNL     1      38.071  35.378 114.970  1.00  0.00    -0.272 OA
ENDROOT
BRANCH   1   2
HETATM    2  P   UNL     1      37.019  34.816 116.056  1.00  0.00     0.422 P 
HETATM    3  O   UNL     1      36.762  33.345 115.861  1.00  0.00    -0.617 OA
HETATM    4  O   UNL     1      37.748  35.076 117.340  1.00  0.00    -0.617 OA
HETATM    5  O   UNL     1      35.725  35.588 115.921  1.00  0.00    -0.617 OA
ENDBRANCH   1   2
BRANCH   1   6
HETATM    6  C   UNL     1      37.743  36.192 113.850  1.00  0.00     0.295 C 
BRANCH   6   7
HETATM    7  C   UNL     1      39.014  36.877 113.399  1.00  0.00     0.198 C 
HETATM    8  O   UNL     1      39.904  36.224 112.842  1.00  0.00    -0.646 OA
HETATM    9  O   UNL     1      39.190  38.100 113.535  1.00  0.00    -0.646 OA
ENDBRANCH   6   7
ENDBRANCH   1   6
TORSDOF 3
ENDMDL
MODEL 2
REMARK VINA RESULT:    -6.237      0.716      1.653
REMARK INTER + INTRA:          -7.373
REMARK INTER:                  -7.288
REMARK INTRA:                  -0.085
REMARK UNBOUND:                -0.041
REMARK  3 active torsions:
REMARK  status: ('A' for Active; 'I' for Inactive)
REMARK    1  A    between atoms: P_1  and  O_2 
REMARK    2  A    between atoms: O_2  and  C_6 
REMARK    3  A    between atoms: C_6  and  C_7 
ROOT
HETATM    1  O   UNL     1      38.054  35.097 114.811  1.00  0.00    -0.272 OA
ENDROOT
BRANCH   1   2
HETATM    2  P   UNL     1      37.046  34.801 116.036  1.00  0.00     0.422 P 
HETATM    3  O   UNL     1      35.794  35.633 115.929  1.00  0.00    -0.617 OA
HETATM    4  O   UNL     1      36.751  33.346 115.835  1.00  0.00    -0.617 OA
HETATM    5  O   UNL     1      37.759  35.107 117.335  1.00  0.00    -0.617 OA
ENDBRANCH   1   2
BRANCH   1   6
HETATM    6  C   UNL     1      37.712  35.778 113.609  1.00  0.00     0.295 C 
BRANCH   6   7
HETATM    7  C   UNL     1      38.753  36.849 113.382  1.00  0.00     0.198 C 
HETATM    8  O   UNL     1      39.506  37.186 114.304  1.00  0.00    -0.646 OA
HETATM    9  O   UNL     1      38.913  37.392 112.274  1.00  0.00    -0.646 OA
ENDBRANCH   6   7
ENDBRANCH   1   6
TORSDOF 3
ENDMDL
MODEL 3
REMARK VINA RESULT:    -5.752      1.961      4.235
REMARK INTER + INTRA:          -6.802
REMARK INTER:                  -6.734
REMARK INTRA:                  -0.068
REMARK UNBOUND:                -0.041
REMARK  3 active torsions:
REMARK  status: ('A' for Active; 'I' for Inactive)
REMARK    1  A    between atoms: P_1  and  O_2 
REMARK    2  A    between atoms: O_2  and  C_6 
REMARK    3  A    between atoms: C_6  and  C_7 
ROOT
HETATM    1  O   UNL     1      38.302  36.029 114.664  1.00  0.00    -0.272 OA
ENDROOT
BRANCH   1   2
HETATM    2  P   UNL     1      38.811  36.378 113.173  1.00  0.00     0.422 P 
HETATM    3  O   UNL     1      40.305  36.222 113.054  1.00  0.00    -0.617 OA
HETATM    4  O   UNL     1      38.089  35.345 112.362  1.00  0.00    -0.617 OA
HETATM    5  O   UNL     1      38.413  37.800 112.846  1.00  0.00    -0.617 OA
ENDBRANCH   1   2
BRANCH   1   6
HETATM    6  C   UNL     1      37.010  35.534 114.999  1.00  0.00     0.295 C 
BRANCH   6   7
HETATM    7  C   UNL     1      37.148  34.732 116.272  1.00  0.00     0.198 C 
HETATM    8  O   UNL     1      38.004  33.842 116.354  1.00  0.00    -0.646 OA
HETATM    9  O   UNL     1      36.448  34.958 117.275  1.00  0.00    -0.646 OA
ENDBRANCH   6   7
ENDBRANCH   1   6
TORSDOF 3
ENDMDL
MODEL 4
REMARK VINA RESULT:    -5.669      1.146      1.468
REMARK INTER + INTRA:          -6.705
REMARK INTER:                  -6.622
REMARK INTRA:                  -0.083
REMARK UNBOUND:                -0.041
REMARK  3 active torsions:
REMARK  status: ('A' for Active; 'I' for Inactive)
REMARK    1  A    between atoms: P_1  and  O_2 
REMARK    2  A    between atoms: O_2  and  C_6 
REMARK    3  A    between atoms: C_6  and  C_7 
ROOT
HETATM    1  O   UNL     1      37.206  35.113 113.961  1.00  0.00    -0.272 OA
ENDROOT
BRANCH   1   2
HETATM    2  P   UNL     1      36.614  34.476 115.319  1.00  0.00     0.422 P 
HETATM    3  O   UNL     1      35.802  33.239 115.035  1.00  0.00    -0.617 OA
HETATM    4  O   UNL     1      37.870  34.142 116.065  1.00  0.00    -0.617 OA
HETATM    5  O   UNL     1      35.752  35.512 116.006  1.00  0.00    -0.617 OA
ENDBRANCH   1   2
BRANCH   1   6
HETATM    6  C   UNL     1      37.892  36.357 113.866  1.00  0.00     0.295 C 
BRANCH   6   7
HETATM    7  C   UNL     1      38.950  36.211 112.797  1.00  0.00     0.198 C 
HETATM    8  O   UNL     1      39.384  37.211 112.213  1.00  0.00    -0.646 OA
HETATM    9  O   UNL     1      39.440  35.107 112.498  1.00  0.00    -0.646 OA
ENDBRANCH   6   7
ENDBRANCH   1   6
TORSDOF 3
ENDMDL
MODEL 5
REMARK VINA RESULT:    -5.646      3.929      5.261
REMARK INTER + INTRA:          -6.677
REMARK INTER:                  -6.630
REMARK INTRA:                  -0.048
REMARK UNBOUND:                -0.041
REMARK  3 active torsions:
REMARK  status: ('A' for Active; 'I' for Inactive)
REMARK    1  A    between atoms: P_1  and  O_2 
REMARK    2  A    between atoms: O_2  and  C_6 
REMARK    3  A    between atoms: C_6  and  C_7 
ROOT
HETATM    1  O   UNL     1      40.974  34.446 112.297  1.00  0.00    -0.272 OA
ENDROOT
BRANCH   1   2
HETATM    2  P   UNL     1      41.845  33.143 111.913  1.00  0.00     0.422 P 
HETATM    3  O   UNL     1      41.149  32.307 110.871  1.00  0.00    -0.617 OA
HETATM    4  O   UNL     1      43.092  33.768 111.366  1.00  0.00    -0.617 OA
HETATM    5  O   UNL     1      42.069  32.325 113.165  1.00  0.00    -0.617 OA
ENDBRANCH   1   2
BRANCH   1   6
HETATM    6  C   UNL     1      39.740  34.820 111.693  1.00  0.00     0.295 C 
BRANCH   6   7
HETATM    7  C   UNL     1      39.484  36.268 112.044  1.00  0.00     0.198 C 
HETATM    8  O   UNL     1      39.757  36.688 113.175  1.00  0.00    -0.646 OA
HETATM    9  O   UNL     1      39.035  37.079 111.216  1.00  0.00    -0.646 OA
ENDBRANCH   6   7
ENDBRANCH   1   6
TORSDOF 3
ENDMDL
MODEL 6
REMARK VINA RESULT:    -5.576      1.993      4.292
REMARK INTER + INTRA:          -6.595
REMARK INTER:                  -6.499
REMARK INTRA:                  -0.096
REMARK UNBOUND:                -0.041
REMARK  3 active torsions:
REMARK  status: ('A' for Active; 'I' for Inactive)
REMARK    1  A    between atoms: P_1  and  O_2 
REMARK    2  A    between atoms: O_2  and  C_6 
REMARK    3  A    between atoms: C_6  and  C_7 
ROOT
HETATM    1  O   UNL     1      37.583  36.050 113.726  1.00  0.00    -0.272 OA
ENDROOT
BRANCH   1   2
HETATM    2  P   UNL     1      38.977  36.399 112.994  1.00  0.00     0.422 P 
HETATM    3  O   UNL     1      38.762  37.297 111.804  1.00  0.00    -0.617 OA
HETATM    4  O   UNL     1      39.718  37.111 114.086  1.00  0.00    -0.617 OA
HETATM    5  O   UNL     1      39.630  35.108 112.554  1.00  0.00    -0.617 OA
ENDBRANCH   1   2
BRANCH   1   6
HETATM    6  C   UNL     1      37.228  34.779 114.261  1.00  0.00     0.295 C 
BRANCH   6   7
HETATM    7  C   UNL     1      37.039  34.950 115.750  1.00  0.00     0.198 C 
HETATM    8  O   UNL     1      36.051  35.557 116.184  1.00  0.00    -0.646 OA
HETATM    9  O   UNL     1      37.831  34.466 116.578  1.00  0.00    -0.646 OA
ENDBRANCH   6   7
ENDBRANCH   1   6
TORSDOF 3
ENDMDL
MODEL 7
REMARK VINA RESULT:    -5.506      2.615      4.577
REMARK INTER + INTRA:          -6.513
REMARK INTER:                  -6.355
REMARK INTRA:                  -0.158
REMARK UNBOUND:                -0.041
REMARK  3 active torsions:
REMARK  status: ('A' for Active; 'I' for Inactive)
REMARK    1  A    between atoms: P_1  and  O_2 
REMARK    2  A    between atoms: O_2  and  C_6 
REMARK    3  A    between atoms: C_6  and  C_7 
ROOT
HETATM    1  O   UNL     1      35.573  35.184 114.908  1.00  0.00    -0.272 OA
ENDROOT
BRANCH   1   2
HETATM    2  P   UNL     1      36.912  34.607 115.597  1.00  0.00     0.422 P 
HETATM    3  O   UNL     1      36.696  34.320 117.060  1.00  0.00    -0.617 OA
HETATM    4  O   UNL     1      37.127  33.344 114.820  1.00  0.00    -0.617 OA
HETATM    5  O   UNL     1      38.020  35.624 115.429  1.00  0.00    -0.617 OA
ENDBRANCH   1   2
BRANCH   1   6
HETATM    6  C   UNL     1      34.811  34.522 113.904  1.00  0.00     0.295 C 
BRANCH   6   7
HETATM    7  C   UNL     1      33.653  33.836 114.591  1.00  0.00     0.198 C 
HETATM    8  O   UNL     1      33.727  32.636 114.879  1.00  0.00    -0.646 OA
HETATM    9  O   UNL     1      32.622  34.450 114.920  1.00  0.00    -0.646 OA
ENDBRANCH   6   7
ENDBRANCH   1   6
TORSDOF 3
ENDMDL
MODEL 8
REMARK VINA RESULT:    -5.501      4.669      5.562
REMARK INTER + INTRA:          -6.507
REMARK INTER:                  -6.359
REMARK INTRA:                  -0.148
REMARK UNBOUND:                -0.041
REMARK  3 active torsions:
REMARK  status: ('A' for Active; 'I' for Inactive)
REMARK    1  A    between atoms: P_1  and  O_2 
REMARK    2  A    between atoms: O_2  and  C_6 
REMARK    3  A    between atoms: C_6  and  C_7 
ROOT
HETATM    1  O   UNL     1      40.568  34.210 112.157  1.00  0.00    -0.272 OA
ENDROOT
BRANCH   1   2
HETATM    2  P   UNL     1      41.644  33.027 111.946  1.00  0.00     0.422 P 
HETATM    3  O   UNL     1      41.857  32.246 113.217  1.00  0.00    -0.617 OA
HETATM    4  O   UNL     1      40.969  32.193 110.900  1.00  0.00    -0.617 OA
HETATM    5  O   UNL     1      42.952  33.637 111.491  1.00  0.00    -0.617 OA
ENDBRANCH   1   2
BRANCH   1   6
HETATM    6  C   UNL     1      39.385  34.396 111.387  1.00  0.00     0.295 C 
BRANCH   6   7
HETATM    7  C   UNL     1      39.602  35.605 110.507  1.00  0.00     0.198 C 
HETATM    8  O   UNL     1      39.225  36.721 110.885  1.00  0.00    -0.646 OA
HETATM    9  O   UNL     1      40.187  35.530 109.413  1.00  0.00    -0.646 OA
ENDBRANCH   6   7
ENDBRANCH   1   6
TORSDOF 3
ENDMDL
MODEL 9
REMARK VINA RESULT:    -5.436      4.739      5.724
REMARK INTER + INTRA:          -6.430
REMARK INTER:                  -6.330
REMARK INTRA:                  -0.100
REMARK UNBOUND:                -0.041
REMARK  3 active torsions:
REMARK  status: ('A' for Active; 'I' for Inactive)
REMARK    1  A    between atoms: P_1  and  O_2 
REMARK    2  A    between atoms: O_2  and  C_6 
REMARK    3  A    between atoms: C_6  and  C_7 
ROOT
HETATM    1  O   UNL     1      40.069  33.220 111.338  1.00  0.00    -0.272 OA
ENDROOT
BRANCH   1   2
HETATM    2  P   UNL     1      39.601  32.293 112.573  1.00  0.00     0.422 P 
HETATM    3  O   UNL     1      38.649  33.029 113.481  1.00  0.00    -0.617 OA
HETATM    4  O   UNL     1      38.914  31.169 111.860  1.00  0.00    -0.617 OA
HETATM    5  O   UNL     1      40.827  31.867 113.350  1.00  0.00    -0.617 OA
ENDBRANCH   1   2
BRANCH   1   6
HETATM    6  C   UNL     1      41.331  33.868 111.226  1.00  0.00     0.295 C 
BRANCH   6   7
HETATM    7  C   UNL     1      42.183  33.043 110.290  1.00  0.00     0.198 C 
HETATM    8  O   UNL     1      43.341  33.394 110.034  1.00  0.00    -0.646 OA
HETATM    9  O   UNL     1      41.774  31.983 109.784  1.00  0.00    -0.646 OA
ENDBRANCH   6   7
ENDBRANCH   1   6
TORSDOF 3
ENDMDL
MODEL 10
REMARK VINA RESULT:    -5.423      4.781      5.605
REMARK INTER + INTRA:          -6.415
REMARK INTER:                  -6.346
REMARK INTRA:                  -0.069
REMARK UNBOUND:                -0.041
REMARK  3 active torsions:
REMARK  status: ('A' for Active; 'I' for Inactive)
REMARK    1  A    between atoms: P_1  and  O_2 
REMARK    2  A    between atoms: O_2  and  C_6 
REMARK    3  A    between atoms: C_6  and  C_7 
ROOT
HETATM    1  O   UNL     1      40.658  33.594 111.585  1.00  0.00    -0.272 OA
ENDROOT
BRANCH   1   2
HETATM    2  P   UNL     1      39.871  32.460 112.421  1.00  0.00     0.422 P 
HETATM    3  O   UNL     1      39.366  31.365 111.517  1.00  0.00    -0.617 OA
HETATM    4  O   UNL     1      40.950  31.959 113.333  1.00  0.00    -0.617 OA
HETATM    5  O   UNL     1      38.711  33.108 113.143  1.00  0.00    -0.617 OA
ENDBRANCH   1   2
BRANCH   1   6
HETATM    6  C   UNL     1      42.060  33.833 111.638  1.00  0.00     0.295 C 
BRANCH   6   7
HETATM    7  C   UNL     1      42.663  33.282 110.367  1.00  0.00     0.198 C 
HETATM    8  O   UNL     1      42.190  32.264 109.847  1.00  0.00    -0.646 OA
HETATM    9  O   UNL     1      43.611  33.842 109.788  1.00  0.00    -0.646 OA
ENDBRANCH   6   7
ENDBRANCH   1   6
TORSDOF 3
ENDMDL
MODEL 11
REMARK VINA RESULT:    -5.405      3.405      4.302
REMARK INTER + INTRA:          -6.394
REMARK INTER:                  -6.274
REMARK INTRA:                  -0.120
REMARK UNBOUND:                -0.041
REMARK  3 active torsions:
REMARK  status: ('A' for Active; 'I' for Inactive)
REMARK    1  A    between atoms: P_1  and  O_2 
REMARK    2  A    between atoms: O_2  and  C_6 
REMARK    3  A    between atoms: C_6  and  C_7 
ROOT
HETATM    1  O   UNL     1      39.926  33.827 111.593  1.00  0.00    -0.272 OA
ENDROOT
BRANCH   1   2
HETATM    2  P   UNL     1      39.838  32.457 112.440  1.00  0.00     0.422 P 
HETATM    3  O   UNL     1      41.147  32.148 113.119  1.00  0.00    -0.617 OA
HETATM    4  O   UNL     1      38.773  32.792 113.439  1.00  0.00    -0.617 OA
HETATM    5  O   UNL     1      39.465  31.330 111.503  1.00  0.00    -0.617 OA
ENDBRANCH   1   2
BRANCH   1   6
HETATM    6  C   UNL     1      38.849  34.731 111.374  1.00  0.00     0.295 C 
BRANCH   6   7
HETATM    7  C   UNL     1      39.313  36.103 111.807  1.00  0.00     0.198 C 
HETATM    8  O   UNL     1      39.054  37.093 111.111  1.00  0.00    -0.646 OA
HETATM    9  O   UNL     1      39.925  36.288 112.873  1.00  0.00    -0.646 OA
ENDBRANCH   6   7
ENDBRANCH   1   6
TORSDOF 3
ENDMDL
MODEL 12
REMARK VINA RESULT:    -5.309      2.419      4.719
REMARK INTER + INTRA:          -6.281
REMARK INTER:                  -6.233
REMARK INTRA:                  -0.048
REMARK UNBOUND:                -0.041
REMARK  3 active torsions:
REMARK  status: ('A' for Active; 'I' for Inactive)
REMARK    1  A    between atoms: P_1  and  O_2 
REMARK    2  A    between atoms: O_2  and  C_6 
REMARK    3  A    between atoms: C_6  and  C_7 
ROOT
HETATM    1  O   UNL     1      38.026  34.139 113.449  1.00  0.00    -0.272 OA
ENDROOT
BRANCH   1   2
HETATM    2  P   UNL     1      38.700  34.827 112.155  1.00  0.00     0.422 P 
HETATM    3  O   UNL     1      38.658  36.330 112.249  1.00  0.00    -0.617 OA
HETATM    4  O   UNL     1      40.106  34.315 112.242  1.00  0.00    -0.617 OA
HETATM    5  O   UNL     1      37.958  34.367 110.919  1.00  0.00    -0.617 OA
ENDBRANCH   1   2
BRANCH   1   6
HETATM    6  C   UNL     1      37.308  34.826 114.467  1.00  0.00     0.295 C 
BRANCH   6   7
HETATM    7  C   UNL     1      36.878  33.799 115.490  1.00  0.00     0.198 C 
HETATM    8  O   UNL     1      36.686  34.138 116.664  1.00  0.00    -0.646 OA
HETATM    9  O   UNL     1      36.669  32.611 115.187  1.00  0.00    -0.646 OA
ENDBRANCH   6   7
ENDBRANCH   1   6
TORSDOF 3
ENDMDL
MODEL 13
REMARK VINA RESULT:    -5.280      5.457      6.678
REMARK INTER + INTRA:          -6.247
REMARK INTER:                  -6.110
REMARK INTRA:                  -0.137
REMARK UNBOUND:                -0.041
REMARK  3 active torsions:
REMARK  status: ('A' for Active; 'I' for Inactive)
REMARK    1  A    between atoms: P_1  and  O_2 
REMARK    2  A    between atoms: O_2  and  C_6 
REMARK    3  A    between atoms: C_6  and  C_7 
ROOT
HETATM    1  O   UNL     1      41.582  32.201 110.751  1.00  0.00    -0.272 OA
ENDROOT
BRANCH   1   2
HETATM    2  P   UNL     1      41.911  33.227 111.952  1.00  0.00     0.422 P 
HETATM    3  O   UNL     1      40.833  34.269 112.094  1.00  0.00    -0.617 OA
HETATM    4  O   UNL     1      41.937  32.305 113.133  1.00  0.00    -0.617 OA
HETATM    5  O   UNL     1      43.239  33.894 111.668  1.00  0.00    -0.617 OA
ENDBRANCH   1   2
BRANCH   1   6
HETATM    6  C   UNL     1      40.505  32.331 109.829  1.00  0.00     0.295 C 
BRANCH   6   7
HETATM    7  C   UNL     1      39.319  31.596 110.410  1.00  0.00     0.198 C 
HETATM    8  O   UNL     1      38.172  31.893 110.056  1.00  0.00    -0.646 OA
HETATM    9  O   UNL     1      39.453  30.660 111.218  1.00  0.00    -0.646 OA
ENDBRANCH   6   7
ENDBRANCH   1   6
TORSDOF 3
ENDMDL
MODEL 14
REMARK VINA RESULT:    -5.275      4.043      5.135
REMARK INTER + INTRA:          -6.241
REMARK INTER:                  -6.138
REMARK INTRA:                  -0.104
REMARK UNBOUND:                -0.041
REMARK  3 active torsions:
REMARK  status: ('A' for Active; 'I' for Inactive)
REMARK    1  A    between atoms: P_1  and  O_2 
REMARK    2  A    between atoms: O_2  and  C_6 
REMARK    3  A    between atoms: C_6  and  C_7 
ROOT
HETATM    1  O   UNL     1      40.581  34.590 111.160  1.00  0.00    -0.272 OA
ENDROOT
BRANCH   1   2
HETATM    2  P   UNL     1      39.368  35.487 111.731  1.00  0.00     0.422 P 
HETATM    3  O   UNL     1      38.224  34.626 112.201  1.00  0.00    -0.617 OA
HETATM    4  O   UNL     1      40.029  36.189 112.878  1.00  0.00    -0.617 OA
HETATM    5  O   UNL     1      38.896  36.417 110.635  1.00  0.00    -0.617 OA
ENDBRANCH   1   2
BRANCH   1   6
HETATM    6  C   UNL     1      40.741  33.191 111.367  1.00  0.00     0.295 C 
BRANCH   6   7
HETATM    7  C   UNL     1      41.986  32.995 112.201  1.00  0.00     0.198 C 
HETATM    8  O   UNL     1      43.030  33.588 111.903  1.00  0.00    -0.646 OA
HETATM    9  O   UNL     1      41.996  32.278 113.217  1.00  0.00    -0.646 OA
ENDBRANCH   6   7
ENDBRANCH   1   6
TORSDOF 3
ENDMDL
MODEL 15
REMARK VINA RESULT:    -5.238      4.363      6.340
REMARK INTER + INTRA:          -6.197
REMARK INTER:                  -6.114
REMARK INTRA:                  -0.084
REMARK UNBOUND:                -0.041
REMARK  3 active torsions:
REMARK  status: ('A' for Active; 'I' for Inactive)
REMARK    1  A    between atoms: P_1  and  O_2 
REMARK    2  A    between atoms: O_2  and  C_6 
REMARK    3  A    between atoms: C_6  and  C_7 
ROOT
HETATM    1  O   UNL     1      41.023  34.365 111.029  1.00  0.00    -0.272 OA
ENDROOT
BRANCH   1   2
HETATM    2  P   UNL     1      41.841  33.950 109.701  1.00  0.00     0.422 P 
HETATM    3  O   UNL     1      43.318  33.848 109.977  1.00  0.00    -0.617 OA
HETATM    4  O   UNL     1      41.251  32.607 109.395  1.00  0.00    -0.617 OA
HETATM    5  O   UNL     1      41.586  34.988 108.631  1.00  0.00    -0.617 OA
ENDBRANCH   1   2
BRANCH   1   6
HETATM    6  C   UNL     1      39.639  34.693 111.075  1.00  0.00     0.295 C 
BRANCH   6   7
HETATM    7  C   UNL     1      39.520  36.077 111.670  1.00  0.00     0.198 C 
HETATM    8  O   UNL     1      39.912  36.291 112.823  1.00  0.00    -0.646 OA
HETATM    9  O   UNL     1      39.071  37.039 111.022  1.00  0.00    -0.646 OA
ENDBRANCH   6   7
ENDBRANCH   1   6
TORSDOF 3
ENDMDL
MODEL 16
REMARK VINA RESULT:    -5.213      9.186     10.201
REMARK INTER + INTRA:          -6.169
REMARK INTER:                  -6.041
REMARK INTRA:                  -0.128
REMARK UNBOUND:                -0.041
REMARK  3 active torsions:
REMARK  status: ('A' for Active; 'I' for Inactive)
REMARK    1  A    between atoms: P_1  and  O_2 
REMARK    2  A    between atoms: O_2  and  C_6 
REMARK    3  A    between atoms: C_6  and  C_7 
ROOT
HETATM    1  O   UNL     1      35.306  29.690 121.996  1.00  0.00    -0.272 OA
ENDROOT
BRANCH   1   2
HETATM    2  P   UNL     1      34.276  30.411 120.986  1.00  0.00     0.422 P 
HETATM    3  O   UNL     1      32.847  30.083 121.333  1.00  0.00    -0.617 OA
HETATM    4  O   UNL     1      34.578  31.858 121.233  1.00  0.00    -0.617 OA
HETATM    5  O   UNL     1      34.581  29.956 119.576  1.00  0.00    -0.617 OA
ENDBRANCH   1   2
BRANCH   1   6
HETATM    6  C   UNL     1      35.145  29.592 123.407  1.00  0.00     0.295 C 
BRANCH   6   7
HETATM    7  C   UNL     1      36.292  30.337 124.048  1.00  0.00     0.198 C 
HETATM    8  O   UNL     1      36.543  30.174 125.248  1.00  0.00    -0.646 OA
HETATM    9  O   UNL     1      37.034  31.094 123.398  1.00  0.00    -0.646 OA
ENDBRANCH   6   7
ENDBRANCH   1   6
TORSDOF 3
ENDMDL
MODEL 17
REMARK VINA RESULT:    -5.190      9.131     10.214
REMARK INTER + INTRA:          -6.142
REMARK INTER:                  -6.026
REMARK INTRA:                  -0.115
REMARK UNBOUND:                -0.041
REMARK  3 active torsions:
REMARK  status: ('A' for Active; 'I' for Inactive)
REMARK    1  A    between atoms: P_1  and  O_2 
REMARK    2  A    between atoms: O_2  and  C_6 
REMARK    3  A    between atoms: C_6  and  C_7 
ROOT
HETATM    1  O   UNL     1      35.259  29.611 122.021  1.00  0.00    -0.272 OA
ENDROOT
BRANCH   1   2
HETATM    2  P   UNL     1      34.347  30.437 120.978  1.00  0.00     0.422 P 
HETATM    3  O   UNL     1      34.567  29.964 119.564  1.00  0.00    -0.617 OA
HETATM    4  O   UNL     1      32.967  30.100 121.456  1.00  0.00    -0.617 OA
HETATM    5  O   UNL     1      34.692  31.905 121.090  1.00  0.00    -0.617 OA
ENDBRANCH   1   2
BRANCH   1   6
HETATM    6  C   UNL     1      35.079  29.586 123.433  1.00  0.00     0.295 C 
BRANCH   6   7
HETATM    7  C   UNL     1      36.263  30.291 124.054  1.00  0.00     0.198 C 
HETATM    8  O   UNL     1      36.523  30.127 125.252  1.00  0.00    -0.646 OA
HETATM    9  O   UNL     1      37.025  31.014 123.388  1.00  0.00    -0.646 OA
ENDBRANCH   6   7
ENDBRANCH   1   6
TORSDOF 3
ENDMDL
MODEL 18
REMARK VINA RESULT:    -5.142      4.200      5.711
REMARK INTER + INTRA:          -6.085
REMARK INTER:                  -6.046
REMARK INTRA:                  -0.039
REMARK UNBOUND:                -0.041
REMARK  3 active torsions:
REMARK  status: ('A' for Active; 'I' for Inactive)
REMARK    1  A    between atoms: P_1  and  O_2 
REMARK    2  A    between atoms: O_2  and  C_6 
REMARK    3  A    between atoms: C_6  and  C_7 
ROOT
HETATM    1  O   UNL     1      40.254  34.269 111.075  1.00  0.00    -0.272 OA
ENDROOT
BRANCH   1   2
HETATM    2  P   UNL     1      39.301  35.453 111.618  1.00  0.00     0.422 P 
HETATM    3  O   UNL     1      38.934  36.410 110.515  1.00  0.00    -0.617 OA
HETATM    4  O   UNL     1      38.107  34.682 112.091  1.00  0.00    -0.617 OA
HETATM    5  O   UNL     1      40.028  36.192 112.721  1.00  0.00    -0.617 OA
ENDBRANCH   1   2
BRANCH   1   6
HETATM    6  C   UNL     1      41.075  34.339 109.914  1.00  0.00     0.295 C 
BRANCH   6   7
HETATM    7  C   UNL     1      42.057  33.193 109.984  1.00  0.00     0.198 C 
HETATM    8  O   UNL     1      43.259  33.418 110.168  1.00  0.00    -0.646 OA
HETATM    9  O   UNL     1      41.695  32.006 109.899  1.00  0.00    -0.646 OA
ENDBRANCH   6   7
ENDBRANCH   1   6
TORSDOF 3
ENDMDL
MODEL 19
REMARK VINA RESULT:    -5.081      4.154      5.699
REMARK INTER + INTRA:          -6.013
REMARK INTER:                  -5.820
REMARK INTRA:                  -0.193
REMARK UNBOUND:                -0.041
REMARK  3 active torsions:
REMARK  status: ('A' for Active; 'I' for Inactive)
REMARK    1  A    between atoms: P_1  and  O_2 
REMARK    2  A    between atoms: O_2  and  C_6 
REMARK    3  A    between atoms: C_6  and  C_7 
ROOT
HETATM    1  O   UNL     1      40.105  33.469 110.817  1.00  0.00    -0.272 OA
ENDROOT
BRANCH   1   2
HETATM    2  P   UNL     1      39.322  34.879 110.784  1.00  0.00     0.422 P 
HETATM    3  O   UNL     1      39.726  35.702 109.588  1.00  0.00    -0.617 OA
HETATM    4  O   UNL     1      37.897  34.427 110.677  1.00  0.00    -0.617 OA
HETATM    5  O   UNL     1      39.631  35.635 112.057  1.00  0.00    -0.617 OA
ENDBRANCH   1   2
BRANCH   1   6
HETATM    6  C   UNL     1      39.567  32.239 111.289  1.00  0.00     0.295 C 
BRANCH   6   7
HETATM    7  C   UNL     1      39.762  32.205 112.788  1.00  0.00     0.198 C 
HETATM    8  O   UNL     1      38.812  32.450 113.541  1.00  0.00    -0.646 OA
HETATM    9  O   UNL     1      40.850  31.898 113.307  1.00  0.00    -0.646 OA
ENDBRANCH   6   7
ENDBRANCH   1   6
TORSDOF 3
ENDMDL
MODEL 20
REMARK VINA RESULT:    -5.031      2.319      4.526
REMARK INTER + INTRA:          -5.954
REMARK INTER:                  -5.905
REMARK INTRA:                  -0.049
REMARK UNBOUND:                -0.041
REMARK  3 active torsions:
REMARK  status: ('A' for Active; 'I' for Inactive)
REMARK    1  A    between atoms: P_1  and  O_2 
REMARK    2  A    between atoms: O_2  and  C_6 
REMARK    3  A    between atoms: C_6  and  C_7 
ROOT
HETATM    1  O   UNL     1      37.783  35.538 112.966  1.00  0.00    -0.272 OA
ENDROOT
BRANCH   1   2
HETATM    2  P   UNL     1      39.127  35.903 112.152  1.00  0.00     0.422 P 
HETATM    3  O   UNL     1      40.253  36.263 113.086  1.00  0.00    -0.617 OA
HETATM    4  O   UNL     1      39.402  34.614 111.438  1.00  0.00    -0.617 OA
HETATM    5  O   UNL     1      38.833  37.063 111.227  1.00  0.00    -0.617 OA
ENDBRANCH   1   2
BRANCH   1   6
HETATM    6  C   UNL     1      37.703  35.324 114.372  1.00  0.00     0.295 C 
BRANCH   6   7
HETATM    7  C   UNL     1      36.238  35.254 114.737  1.00  0.00     0.198 C 
HETATM    8  O   UNL     1      35.423  34.776 113.940  1.00  0.00    -0.646 OA
HETATM    9  O   UNL     1      35.814  35.632 115.844  1.00  0.00    -0.646 OA
ENDBRANCH   6   7
ENDBRANCH   1   6
TORSDOF 3
ENDMDL
