MODEL 1
REMARK VINA RESULT:    -9.409      0.000      0.000
REMARK INTER + INTRA:         -16.495
REMARK INTER:                 -14.634
REMARK INTRA:                  -1.860
REMARK UNBOUND:                -1.860
REMARK  11 active torsions:
REMARK  status: ('A' for Active; 'I' for Inactive)
REMARK    1  A    between atoms: P_1  and  N_8 
REMARK    2  A    between atoms: P_5  and  N_8 
REMARK    3  A    between atoms: P_5  and  O_13 
REMARK    4  A    between atoms: P_10  and  O_14 
REMARK    5  A    between atoms: P_10  and  O_13 
REMARK    6  A    between atoms: O_14  and  C_15 
REMARK    7  A    between atoms: C_15  and  C_16 
REMARK    8  A    between atoms: C_18  and  O_19 
REMARK    9  A    between atoms: C_21  and  O_22 
REMARK   10  A    between atoms: C_24  and  N_25 
REMARK   11  A    between atoms: C_30  and  N_31 
ROOT
HETATM    1  C   UNL     1     -30.093  -4.661  16.987  1.00  0.00     0.180 C 
HETATM    2  O   UNL     1     -30.605  -4.981  18.296  1.00  0.00    -0.353 OA
HETATM    3  C   UNL     1     -31.286  -4.884  16.071  1.00  0.00     0.182 C 
HETATM    4  C   UNL     1     -31.916  -6.139  16.672  1.00  0.00     0.198 C 
HETATM    5  C   UNL     1     -31.604  -5.979  18.165  1.00  0.00     0.262 C 
ENDROOT
BRANCH   1   6
HETATM    6  C   UNL     1     -29.574  -3.252  16.985  1.00  0.00     0.216 C 
BRANCH   6   7
HETATM    7  O   UNL     1     -28.752  -3.130  15.811  1.00  0.00    -0.287 OA
BRANCH   7   8
HETATM    8  P   UNL     1     -28.937  -1.958  14.799  1.00  0.00     0.417 P 
HETATM    9  O   UNL     1     -30.120  -2.209  13.960  1.00  0.00    -0.624 OA
HETATM   10  O   UNL     1     -28.961  -0.641  15.577  1.00  0.00    -0.624 OA
BRANCH   8  11
HETATM   11  O   UNL     1     -27.618  -1.949  13.906  1.00  0.00    -0.186 OA
BRANCH  11  12
HETATM   12  P   UNL     1     -26.835  -3.183  13.285  1.00  0.00     0.379 P 
HETATM   13  O   UNL     1     -26.018  -3.820  14.302  1.00  0.00    -0.629 OA
HETATM   14  O   UNL     1     -25.909  -2.537  12.182  1.00  0.00    -0.629 OA
BRANCH  12  15
HETATM   15  N   UNL     1     -27.981  -4.230  12.710  1.00  0.00    -0.218 N 
ATOM     16  HN  UNL     1     -28.835  -4.285  13.265  1.00  0.00     0.179 HD
BRANCH  15  17
HETATM   17  P   UNL     1     -27.951  -5.210  11.357  1.00  0.00     0.381 P 
HETATM   18  O   UNL     1     -29.369  -5.217  10.661  1.00  0.00    -0.622 OA
HETATM   19  O   UNL     1     -27.584  -6.657  11.846  1.00  0.00    -0.622 OA
HETATM   20  O   UNL     1     -26.975  -4.846  10.340  1.00  0.00    -0.622 OA
ENDBRANCH  15  17
ENDBRANCH  12  15
ENDBRANCH  11  12
ENDBRANCH   8  11
ENDBRANCH   7   8
ENDBRANCH   6   7
ENDBRANCH   1   6
BRANCH   3  21
HETATM   21  O   UNL     1     -30.858  -5.052  14.727  1.00  0.00    -0.390 OA
ATOM     22  HO  UNL     1     -31.600  -5.227  14.161  1.00  0.00     0.210 HD
ENDBRANCH   3  21
BRANCH   5  23
HETATM   23  N   UNL     1     -32.757  -5.618  18.982  1.00  0.00    -0.297 N 
HETATM   24  C   UNL     1     -33.046  -4.366  19.472  1.00  0.00     0.142 A 
HETATM   25  N   UNL     1     -32.344  -3.228  19.291  1.00  0.00    -0.336 N 
HETATM   26  C   UNL     1     -34.213  -4.509  20.203  1.00  0.00     0.122 A 
HETATM   27  C   UNL     1     -32.924  -2.195  19.919  1.00  0.00     0.183 A 
ATOM     28  HN  UNL     1     -31.483  -3.162  18.746  1.00  0.00     0.168 HD
HETATM   29  N   UNL     1     -34.051  -2.186  20.647  1.00  0.00    -0.337 N 
HETATM   30  C   UNL     1     -34.723  -3.349  20.825  1.00  0.00     0.131 A 
ATOM     31  HN  UNL     1     -34.396  -1.319  21.059  1.00  0.00     0.168 HD
HETATM   32  N   UNL     1     -34.655  -5.825  20.172  1.00  0.00    -0.346 N 
HETATM   33  C   UNL     1     -33.758  -6.436  19.436  1.00  0.00     0.188 A 
ATOM     34  HN  UNL     1     -35.482  -6.223  20.617  1.00  0.00     0.167 HD
BRANCH  30  35
HETATM   35  N   UNL     1     -35.790  -3.351  21.621  1.00  0.00    -0.383 N 
ATOM     36  HN2 UNL     1     -35.920  -2.693  22.389  1.00  0.00     0.157 HD
ATOM     37  HN1 UNL     1     -36.541  -4.014  21.427  1.00  0.00     0.157 HD
ENDBRANCH  30  35
ENDBRANCH   5  23
BRANCH   4  38
HETATM   38  O   UNL     1     -31.261  -7.296  16.182  1.00  0.00    -0.388 OA
ATOM     39  HO  UNL     1     -31.039  -7.860  16.913  1.00  0.00     0.210 HD
ENDBRANCH   4  38
TORSDOF 11
ENDMDL
MODEL 2
REMARK VINA RESULT:    -9.317      1.842      3.233
REMARK INTER + INTRA:         -16.351
REMARK INTER:                 -15.425
REMARK INTRA:                  -0.926
REMARK UNBOUND:                -1.860
REMARK  11 active torsions:
REMARK  status: ('A' for Active; 'I' for Inactive)
REMARK    1  A    between atoms: P_1  and  N_8 
REMARK    2  A    between atoms: P_5  and  N_8 
REMARK    3  A    between atoms: P_5  and  O_13 
REMARK    4  A    between atoms: P_10  and  O_14 
REMARK    5  A    between atoms: P_10  and  O_13 
REMARK    6  A    between atoms: O_14  and  C_15 
REMARK    7  A    between atoms: C_15  and  C_16 
REMARK    8  A    between atoms: C_18  and  O_19 
REMARK    9  A    between atoms: C_21  and  O_22 
REMARK   10  A    between atoms: C_24  and  N_25 
REMARK   11  A    between atoms: C_30  and  N_31 
ROOT
HETATM    1  C   UNL     1     -30.522  -2.274  16.517  1.00  0.00     0.180 C 
HETATM    2  O   UNL     1     -31.613  -3.216  16.492  1.00  0.00    -0.353 OA
HETATM    3  C   UNL     1     -30.521  -1.763  17.949  1.00  0.00     0.182 C 
HETATM    4  C   UNL     1     -32.015  -1.644  18.243  1.00  0.00     0.198 C 
HETATM    5  C   UNL     1     -32.605  -2.791  17.412  1.00  0.00     0.262 C 
ENDROOT
BRANCH   1   6
HETATM    6  C   UNL     1     -29.253  -2.968  16.114  1.00  0.00     0.216 C 
BRANCH   6   7
HETATM    7  O   UNL     1     -29.631  -3.966  15.150  1.00  0.00    -0.287 OA
BRANCH   7   8
HETATM    8  P   UNL     1     -29.550  -3.696  13.616  1.00  0.00     0.417 P 
HETATM    9  O   UNL     1     -30.904  -3.486  13.077  1.00  0.00    -0.624 OA
HETATM   10  O   UNL     1     -28.571  -2.546  13.374  1.00  0.00    -0.624 OA
BRANCH   8  11
HETATM   11  O   UNL     1     -28.900  -5.004  12.982  1.00  0.00    -0.186 OA
BRANCH  11  12
HETATM   12  P   UNL     1     -28.232  -5.185  11.554  1.00  0.00     0.379 P 
HETATM   13  O   UNL     1     -29.136  -4.722  10.516  1.00  0.00    -0.629 OA
HETATM   14  O   UNL     1     -28.020  -6.744  11.421  1.00  0.00    -0.629 OA
BRANCH  12  15
HETATM   15  N   UNL     1     -26.840  -4.289  11.565  1.00  0.00    -0.218 N 
ATOM     16  HN  UNL     1     -26.860  -3.467  12.168  1.00  0.00     0.179 HD
BRANCH  15  17
HETATM   17  P   UNL     1     -25.408  -4.528  10.738  1.00  0.00     0.381 P 
HETATM   18  O   UNL     1     -25.698  -5.181   9.329  1.00  0.00    -0.622 OA
HETATM   19  O   UNL     1     -24.529  -5.496  11.610  1.00  0.00    -0.622 OA
HETATM   20  O   UNL     1     -24.614  -3.332  10.502  1.00  0.00    -0.622 OA
ENDBRANCH  15  17
ENDBRANCH  12  15
ENDBRANCH  11  12
ENDBRANCH   8  11
ENDBRANCH   7   8
ENDBRANCH   6   7
ENDBRANCH   1   6
BRANCH   3  21
HETATM   21  O   UNL     1     -29.825  -0.528  18.037  1.00  0.00    -0.390 OA
ATOM     22  HO  UNL     1     -29.874  -0.181  18.921  1.00  0.00     0.210 HD
ENDBRANCH   3  21
BRANCH   5  23
HETATM   23  N   UNL     1     -33.052  -3.934  18.201  1.00  0.00    -0.297 N 
HETATM   24  C   UNL     1     -33.814  -3.884  19.344  1.00  0.00     0.142 A 
HETATM   25  N   UNL     1     -34.311  -2.789  19.956  1.00  0.00    -0.336 N 
HETATM   26  C   UNL     1     -33.967  -5.198  19.750  1.00  0.00     0.122 A 
HETATM   27  C   UNL     1     -35.008  -3.121  21.052  1.00  0.00     0.183 A 
ATOM     28  HN  UNL     1     -34.174  -1.833  19.627  1.00  0.00     0.168 HD
HETATM   29  N   UNL     1     -35.246  -4.342  21.554  1.00  0.00    -0.337 N 
HETATM   30  C   UNL     1     -34.718  -5.420  20.926  1.00  0.00     0.131 A 
ATOM     31  HN  UNL     1     -35.813  -4.457  22.393  1.00  0.00     0.168 HD
HETATM   32  N   UNL     1     -33.317  -6.062  18.878  1.00  0.00    -0.346 N 
HETATM   33  C   UNL     1     -32.794  -5.262  17.981  1.00  0.00     0.188 A 
ATOM     34  HN  UNL     1     -33.260  -7.080  18.925  1.00  0.00     0.167 HD
BRANCH  30  35
HETATM   35  N   UNL     1     -34.881  -6.621  21.477  1.00  0.00    -0.383 N 
ATOM     36  HN2 UNL     1     -34.661  -7.494  20.999  1.00  0.00     0.157 HD
ATOM     37  HN1 UNL     1     -35.200  -6.674  22.444  1.00  0.00     0.157 HD
ENDBRANCH  30  35
ENDBRANCH   5  23
BRANCH   4  38
HETATM   38  O   UNL     1     -32.513  -0.412  17.752  1.00  0.00    -0.388 OA
ATOM     39  HO  UNL     1     -33.371  -0.252  18.125  1.00  0.00     0.210 HD
ENDBRANCH   4  38
TORSDOF 11
ENDMDL
MODEL 3
REMARK VINA RESULT:    -9.030      1.782      2.993
REMARK INTER + INTRA:         -15.905
REMARK INTER:                 -14.827
REMARK INTRA:                  -1.078
REMARK UNBOUND:                -1.860
REMARK  11 active torsions:
REMARK  status: ('A' for Active; 'I' for Inactive)
REMARK    1  A    between atoms: P_1  and  N_8 
REMARK    2  A    between atoms: P_5  and  N_8 
REMARK    3  A    between atoms: P_5  and  O_13 
REMARK    4  A    between atoms: P_10  and  O_14 
REMARK    5  A    between atoms: P_10  and  O_13 
REMARK    6  A    between atoms: O_14  and  C_15 
REMARK    7  A    between atoms: C_15  and  C_16 
REMARK    8  A    between atoms: C_18  and  O_19 
REMARK    9  A    between atoms: C_21  and  O_22 
REMARK   10  A    between atoms: C_24  and  N_25 
REMARK   11  A    between atoms: C_30  and  N_31 
ROOT
HETATM    1  C   UNL     1     -30.769  -2.153  16.401  1.00  0.00     0.180 C 
HETATM    2  O   UNL     1     -31.866  -3.087  16.445  1.00  0.00    -0.353 OA
HETATM    3  C   UNL     1     -30.607  -1.723  17.851  1.00  0.00     0.182 C 
HETATM    4  C   UNL     1     -32.059  -1.612  18.312  1.00  0.00     0.198 C 
HETATM    5  C   UNL     1     -32.748  -2.709  17.489  1.00  0.00     0.262 C 
ENDROOT
BRANCH   1   6
HETATM    6  C   UNL     1     -29.559  -2.831  15.826  1.00  0.00     0.216 C 
BRANCH   6   7
HETATM    7  O   UNL     1     -29.636  -2.646  14.402  1.00  0.00    -0.287 OA
BRANCH   7   8
HETATM    8  P   UNL     1     -29.604  -3.854  13.415  1.00  0.00     0.417 P 
HETATM    9  O   UNL     1     -29.539  -5.113  14.175  1.00  0.00    -0.624 OA
HETATM   10  O   UNL     1     -30.793  -3.734  12.460  1.00  0.00    -0.624 OA
BRANCH   8  11
HETATM   11  O   UNL     1     -28.284  -3.665  12.545  1.00  0.00    -0.186 OA
BRANCH  11  12
HETATM   12  P   UNL     1     -26.785  -4.013  12.933  1.00  0.00     0.379 P 
HETATM   13  O   UNL     1     -26.544  -3.705  14.332  1.00  0.00    -0.629 OA
HETATM   14  O   UNL     1     -25.918  -3.062  12.019  1.00  0.00    -0.629 OA
BRANCH  12  15
HETATM   15  N   UNL     1     -26.585  -5.631  12.644  1.00  0.00    -0.218 N 
ATOM     16  HN  UNL     1     -26.269  -6.178  13.445  1.00  0.00     0.179 HD
BRANCH  15  17
HETATM   17  P   UNL     1     -26.822  -6.504  11.239  1.00  0.00     0.381 P 
HETATM   18  O   UNL     1     -26.295  -5.684   9.996  1.00  0.00    -0.622 OA
HETATM   19  O   UNL     1     -28.368  -6.751  11.106  1.00  0.00    -0.622 OA
HETATM   20  O   UNL     1     -26.180  -7.810  11.197  1.00  0.00    -0.622 OA
ENDBRANCH  15  17
ENDBRANCH  12  15
ENDBRANCH  11  12
ENDBRANCH   8  11
ENDBRANCH   7   8
ENDBRANCH   6   7
ENDBRANCH   1   6
BRANCH   3  21
HETATM   21  O   UNL     1     -29.892  -0.497  17.929  1.00  0.00    -0.390 OA
ATOM     22  HO  UNL     1     -29.724  -0.268  18.836  1.00  0.00     0.210 HD
ENDBRANCH   3  21
BRANCH   5  23
HETATM   23  N   UNL     1     -33.120  -3.890  18.258  1.00  0.00    -0.297 N 
HETATM   24  C   UNL     1     -33.869  -3.908  19.411  1.00  0.00     0.142 A 
HETATM   25  N   UNL     1     -34.420  -2.855  20.051  1.00  0.00    -0.336 N 
HETATM   26  C   UNL     1     -33.942  -5.236  19.791  1.00  0.00     0.122 A 
HETATM   27  C   UNL     1     -35.083  -3.248  21.148  1.00  0.00     0.183 A 
ATOM     28  HN  UNL     1     -34.341  -1.886  19.741  1.00  0.00     0.168 HD
HETATM   29  N   UNL     1     -35.245  -4.491  21.627  1.00  0.00    -0.337 N 
HETATM   30  C   UNL     1     -34.664  -5.524  20.970  1.00  0.00     0.131 A 
ATOM     31  HN  UNL     1     -35.794  -4.655  22.470  1.00  0.00     0.168 HD
HETATM   32  N   UNL     1     -33.256  -6.044  18.894  1.00  0.00    -0.346 N 
HETATM   33  C   UNL     1     -32.790  -5.197  18.008  1.00  0.00     0.188 A 
ATOM     34  HN  UNL     1     -33.141  -7.057  18.919  1.00  0.00     0.167 HD
BRANCH  30  35
HETATM   35  N   UNL     1     -34.753  -6.743  21.498  1.00  0.00    -0.383 N 
ATOM     36  HN2 UNL     1     -35.234  -6.943  22.374  1.00  0.00     0.157 HD
ATOM     37  HN1 UNL     1     -34.360  -7.528  20.980  1.00  0.00     0.157 HD
ENDBRANCH  30  35
ENDBRANCH   5  23
BRANCH   4  38
HETATM   38  O   UNL     1     -32.593  -0.352  17.945  1.00  0.00    -0.388 OA
ATOM     39  HO  UNL     1     -33.534  -0.429  17.850  1.00  0.00     0.210 HD
ENDBRANCH   4  38
TORSDOF 11
ENDMDL
MODEL 4
REMARK VINA RESULT:    -8.889      1.921      3.598
REMARK INTER + INTRA:         -15.685
REMARK INTER:                 -14.792
REMARK INTRA:                  -0.893
REMARK UNBOUND:                -1.860
REMARK  11 active torsions:
REMARK  status: ('A' for Active; 'I' for Inactive)
REMARK    1  A    between atoms: P_1  and  N_8 
REMARK    2  A    between atoms: P_5  and  N_8 
REMARK    3  A    between atoms: P_5  and  O_13 
REMARK    4  A    between atoms: P_10  and  O_14 
REMARK    5  A    between atoms: P_10  and  O_13 
REMARK    6  A    between atoms: O_14  and  C_15 
REMARK    7  A    between atoms: C_15  and  C_16 
REMARK    8  A    between atoms: C_18  and  O_19 
REMARK    9  A    between atoms: C_21  and  O_22 
REMARK   10  A    between atoms: C_24  and  N_25 
REMARK   11  A    between atoms: C_30  and  N_31 
ROOT
HETATM    1  C   UNL     1     -30.701  -2.121  16.491  1.00  0.00     0.180 C 
HETATM    2  O   UNL     1     -31.786  -3.070  16.488  1.00  0.00    -0.353 OA
HETATM    3  C   UNL     1     -30.617  -1.678  17.943  1.00  0.00     0.182 C 
HETATM    4  C   UNL     1     -32.091  -1.585  18.332  1.00  0.00     0.198 C 
HETATM    5  C   UNL     1     -32.723  -2.698  17.485  1.00  0.00     0.262 C 
ENDROOT
BRANCH   1   6
HETATM    6  C   UNL     1     -29.455  -2.785  15.981  1.00  0.00     0.216 C 
BRANCH   6   7
HETATM    7  O   UNL     1     -29.565  -2.795  14.547  1.00  0.00    -0.287 OA
BRANCH   7   8
HETATM    8  P   UNL     1     -29.796  -4.117  13.752  1.00  0.00     0.417 P 
HETATM    9  O   UNL     1     -30.557  -5.067  14.579  1.00  0.00    -0.624 OA
HETATM   10  O   UNL     1     -30.436  -3.770  12.406  1.00  0.00    -0.624 OA
BRANCH   8  11
HETATM   11  O   UNL     1     -28.344  -4.692  13.444  1.00  0.00    -0.186 OA
BRANCH  11  12
HETATM   12  P   UNL     1     -27.128  -3.974  12.718  1.00  0.00     0.379 P 
HETATM   13  O   UNL     1     -27.314  -4.006  11.278  1.00  0.00    -0.629 OA
HETATM   14  O   UNL     1     -25.872  -4.845  13.115  1.00  0.00    -0.629 OA
BRANCH  12  15
HETATM   15  N   UNL     1     -27.100  -2.415  13.273  1.00  0.00    -0.218 N 
ATOM     16  HN  UNL     1     -27.883  -2.154  13.873  1.00  0.00     0.179 HD
BRANCH  15  17
HETATM   17  P   UNL     1     -25.983  -1.202  13.000  1.00  0.00     0.381 P 
HETATM   18  O   UNL     1     -26.723   0.176  12.781  1.00  0.00    -0.622 OA
HETATM   19  O   UNL     1     -25.182  -1.596  11.707  1.00  0.00    -0.622 OA
HETATM   20  O   UNL     1     -25.005  -1.001  14.059  1.00  0.00    -0.622 OA
ENDBRANCH  15  17
ENDBRANCH  12  15
ENDBRANCH  11  12
ENDBRANCH   8  11
ENDBRANCH   7   8
ENDBRANCH   6   7
ENDBRANCH   1   6
BRANCH   3  21
HETATM   21  O   UNL     1     -29.924  -0.441  18.047  1.00  0.00    -0.390 OA
ATOM     22  HO  UNL     1     -30.450   0.196  18.517  1.00  0.00     0.210 HD
ENDBRANCH   3  21
BRANCH   5  23
HETATM   23  N   UNL     1     -33.115  -3.879  18.245  1.00  0.00    -0.297 N 
HETATM   24  C   UNL     1     -33.873  -3.894  19.392  1.00  0.00     0.142 A 
HETATM   25  N   UNL     1     -34.415  -2.839  20.035  1.00  0.00    -0.336 N 
HETATM   26  C   UNL     1     -33.965  -5.224  19.764  1.00  0.00     0.122 A 
HETATM   27  C   UNL     1     -35.091  -3.229  21.125  1.00  0.00     0.183 A 
ATOM     28  HN  UNL     1     -34.322  -1.869  19.731  1.00  0.00     0.168 HD
HETATM   29  N   UNL     1     -35.271  -4.473  21.595  1.00  0.00    -0.337 N 
HETATM   30  C   UNL     1     -34.699  -5.510  20.936  1.00  0.00     0.131 A 
ATOM     31  HN  UNL     1     -35.829  -4.636  22.433  1.00  0.00     0.168 HD
HETATM   32  N   UNL     1     -33.283  -6.035  18.867  1.00  0.00    -0.346 N 
HETATM   33  C   UNL     1     -32.800  -5.188  17.989  1.00  0.00     0.188 A 
ATOM     34  HN  UNL     1     -33.180  -7.049  18.886  1.00  0.00     0.167 HD
BRANCH  30  35
HETATM   35  N   UNL     1     -34.807  -6.731  21.455  1.00  0.00    -0.383 N 
ATOM     36  HN2 UNL     1     -34.521  -6.964  22.406  1.00  0.00     0.157 HD
ATOM     37  HN1 UNL     1     -35.240  -7.463  20.893  1.00  0.00     0.157 HD
ENDBRANCH  30  35
ENDBRANCH   5  23
BRANCH   4  38
HETATM   38  O   UNL     1     -32.625  -0.336  17.930  1.00  0.00    -0.388 OA
ATOM     39  HO  UNL     1     -33.285  -0.063  18.555  1.00  0.00     0.210 HD
ENDBRANCH   4  38
TORSDOF 11
ENDMDL
MODEL 5
REMARK VINA RESULT:    -8.819      1.191      1.714
REMARK INTER + INTRA:         -15.578
REMARK INTER:                 -13.916
REMARK INTRA:                  -1.662
REMARK UNBOUND:                -1.860
REMARK  11 active torsions:
REMARK  status: ('A' for Active; 'I' for Inactive)
REMARK    1  A    between atoms: P_1  and  N_8 
REMARK    2  A    between atoms: P_5  and  N_8 
REMARK    3  A    between atoms: P_5  and  O_13 
REMARK    4  A    between atoms: P_10  and  O_14 
REMARK    5  A    between atoms: P_10  and  O_13 
REMARK    6  A    between atoms: O_14  and  C_15 
REMARK    7  A    between atoms: C_15  and  C_16 
REMARK    8  A    between atoms: C_18  and  O_19 
REMARK    9  A    between atoms: C_21  and  O_22 
REMARK   10  A    between atoms: C_24  and  N_25 
REMARK   11  A    between atoms: C_30  and  N_31 
ROOT
HETATM    1  C   UNL     1     -29.949  -4.572  16.810  1.00  0.00     0.180 C 
HETATM    2  O   UNL     1     -30.446  -4.729  18.155  1.00  0.00    -0.353 OA
HETATM    3  C   UNL     1     -31.156  -4.895  15.943  1.00  0.00     0.182 C 
HETATM    4  C   UNL     1     -31.785  -6.064  16.697  1.00  0.00     0.198 C 
HETATM    5  C   UNL     1     -31.452  -5.729  18.157  1.00  0.00     0.262 C 
ENDROOT
BRANCH   1   6
HETATM    6  C   UNL     1     -29.422  -3.178  16.632  1.00  0.00     0.216 C 
BRANCH   6   7
HETATM    7  O   UNL     1     -28.399  -3.262  15.626  1.00  0.00    -0.287 OA
BRANCH   7   8
HETATM    8  P   UNL     1     -28.479  -2.438  14.304  1.00  0.00     0.417 P 
HETATM    9  O   UNL     1     -29.832  -2.542  13.735  1.00  0.00    -0.624 OA
HETATM   10  O   UNL     1     -28.003  -1.012  14.590  1.00  0.00    -0.624 OA
BRANCH   8  11
HETATM   11  O   UNL     1     -27.413  -3.097  13.321  1.00  0.00    -0.186 OA
BRANCH  11  12
HETATM   12  P   UNL     1     -27.250  -4.624  12.918  1.00  0.00     0.379 P 
HETATM   13  O   UNL     1     -28.502  -5.332  13.121  1.00  0.00    -0.629 OA
HETATM   14  O   UNL     1     -26.157  -5.172  13.917  1.00  0.00    -0.629 OA
BRANCH  12  15
HETATM   15  N   UNL     1     -26.812  -4.648  11.322  1.00  0.00    -0.218 N 
ATOM     16  HN  UNL     1     -27.586  -4.732  10.662  1.00  0.00     0.179 HD
BRANCH  15  17
HETATM   17  P   UNL     1     -25.295  -4.556  10.628  1.00  0.00     0.381 P 
HETATM   18  O   UNL     1     -24.756  -3.073  10.699  1.00  0.00    -0.622 OA
HETATM   19  O   UNL     1     -25.447  -5.003   9.129  1.00  0.00    -0.622 OA
HETATM   20  O   UNL     1     -24.280  -5.411  11.224  1.00  0.00    -0.622 OA
ENDBRANCH  15  17
ENDBRANCH  12  15
ENDBRANCH  11  12
ENDBRANCH   8  11
ENDBRANCH   7   8
ENDBRANCH   6   7
ENDBRANCH   1   6
BRANCH   3  21
HETATM   21  O   UNL     1     -30.746  -5.226  14.623  1.00  0.00    -0.390 OA
ATOM     22  HO  UNL     1     -31.331  -5.873  14.246  1.00  0.00     0.210 HD
ENDBRANCH   3  21
BRANCH   5  23
HETATM   23  N   UNL     1     -32.592  -5.264  18.940  1.00  0.00    -0.297 N 
HETATM   24  C   UNL     1     -32.790  -3.986  19.408  1.00  0.00     0.142 A 
HETATM   25  N   UNL     1     -31.992  -2.912  19.232  1.00  0.00    -0.336 N 
HETATM   26  C   UNL     1     -33.982  -4.023  20.109  1.00  0.00     0.122 A 
HETATM   27  C   UNL     1     -32.501  -1.827  19.833  1.00  0.00     0.183 A 
ATOM     28  HN  UNL     1     -31.115  -2.924  18.709  1.00  0.00     0.168 HD
HETATM   29  N   UNL     1     -33.641  -1.715  20.531  1.00  0.00    -0.337 N 
HETATM   30  C   UNL     1     -34.411  -2.817  20.704  1.00  0.00     0.131 A 
ATOM     31  HN  UNL     1     -33.924  -0.818  20.924  1.00  0.00     0.168 HD
HETATM   32  N   UNL     1     -34.530  -5.299  20.081  1.00  0.00    -0.346 N 
HETATM   33  C   UNL     1     -33.667  -5.991  19.376  1.00  0.00     0.188 A 
ATOM     34  HN  UNL     1     -35.398  -5.622  20.508  1.00  0.00     0.167 HD
BRANCH  30  35
HETATM   35  N   UNL     1     -35.494  -2.721  21.472  1.00  0.00    -0.383 N 
ATOM     36  HN2 UNL     1     -35.601  -2.026  22.210  1.00  0.00     0.157 HD
ATOM     37  HN1 UNL     1     -36.280  -3.344  21.285  1.00  0.00     0.157 HD
ENDBRANCH  30  35
ENDBRANCH   5  23
BRANCH   4  38
HETATM   38  O   UNL     1     -31.143  -7.276  16.342  1.00  0.00    -0.388 OA
ATOM     39  HO  UNL     1     -30.376  -7.394  16.889  1.00  0.00     0.210 HD
ENDBRANCH   4  38
TORSDOF 11
ENDMDL
MODEL 6
REMARK VINA RESULT:    -8.812      2.005      3.070
REMARK INTER + INTRA:         -15.567
REMARK INTER:                 -13.068
REMARK INTRA:                  -2.498
REMARK UNBOUND:                -1.860
REMARK  11 active torsions:
REMARK  status: ('A' for Active; 'I' for Inactive)
REMARK    1  A    between atoms: P_1  and  N_8 
REMARK    2  A    between atoms: P_5  and  N_8 
REMARK    3  A    between atoms: P_5  and  O_13 
REMARK    4  A    between atoms: P_10  and  O_14 
REMARK    5  A    between atoms: P_10  and  O_13 
REMARK    6  A    between atoms: O_14  and  C_15 
REMARK    7  A    between atoms: C_15  and  C_16 
REMARK    8  A    between atoms: C_18  and  O_19 
REMARK    9  A    between atoms: C_21  and  O_22 
REMARK   10  A    between atoms: C_24  and  N_25 
REMARK   11  A    between atoms: C_30  and  N_31 
ROOT
HETATM    1  C   UNL     1     -30.657  -2.271  17.500  1.00  0.00     0.180 C 
HETATM    2  O   UNL     1     -30.909  -3.167  18.600  1.00  0.00    -0.353 OA
HETATM    3  C   UNL     1     -31.455  -2.877  16.355  1.00  0.00     0.182 C 
HETATM    4  C   UNL     1     -31.222  -4.372  16.563  1.00  0.00     0.198 C 
HETATM    5  C   UNL     1     -31.107  -4.476  18.090  1.00  0.00     0.262 C 
ENDROOT
BRANCH   1   6
HETATM    6  C   UNL     1     -31.086  -0.883  17.877  1.00  0.00     0.216 C 
BRANCH   6   7
HETATM    7  O   UNL     1     -29.931  -0.045  17.699  1.00  0.00    -0.287 OA
BRANCH   7   8
HETATM    8  P   UNL     1     -29.810   0.938  16.494  1.00  0.00     0.417 P 
HETATM    9  O   UNL     1     -30.695   0.497  15.403  1.00  0.00    -0.624 OA
HETATM   10  O   UNL     1     -30.060   2.360  16.998  1.00  0.00    -0.624 OA
BRANCH   8  11
HETATM   11  O   UNL     1     -28.287   0.866  16.033  1.00  0.00    -0.186 OA
BRANCH  11  12
HETATM   12  P   UNL     1     -27.704   0.563  14.588  1.00  0.00     0.379 P 
HETATM   13  O   UNL     1     -26.258   0.439  14.647  1.00  0.00    -0.629 OA
HETATM   14  O   UNL     1     -28.097   1.834  13.737  1.00  0.00    -0.629 OA
BRANCH  12  15
HETATM   15  N   UNL     1     -28.396  -0.854  14.086  1.00  0.00    -0.218 N 
ATOM     16  HN  UNL     1     -29.274  -0.751  13.577  1.00  0.00     0.179 HD
BRANCH  15  17
HETATM   17  P   UNL     1     -27.875  -2.429  14.287  1.00  0.00     0.381 P 
HETATM   18  O   UNL     1     -26.383  -2.574  13.787  1.00  0.00    -0.622 OA
HETATM   19  O   UNL     1     -28.822  -3.341  13.427  1.00  0.00    -0.622 OA
HETATM   20  O   UNL     1     -27.922  -2.936  15.650  1.00  0.00    -0.622 OA
ENDBRANCH  15  17
ENDBRANCH  12  15
ENDBRANCH  11  12
ENDBRANCH   8  11
ENDBRANCH   7   8
ENDBRANCH   6   7
ENDBRANCH   1   6
BRANCH   3  21
HETATM   21  O   UNL     1     -30.977  -2.397  15.106  1.00  0.00    -0.390 OA
ATOM     22  HO  UNL     1     -30.070  -2.123  15.181  1.00  0.00     0.210 HD
ENDBRANCH   3  21
BRANCH   5  23
HETATM   23  N   UNL     1     -32.267  -5.076  18.738  1.00  0.00    -0.297 N 
HETATM   24  C   UNL     1     -33.109  -4.458  19.633  1.00  0.00     0.142 A 
HETATM   25  N   UNL     1     -33.048  -3.186  20.078  1.00  0.00    -0.336 N 
HETATM   26  C   UNL     1     -34.041  -5.415  19.994  1.00  0.00     0.122 A 
HETATM   27  C   UNL     1     -34.035  -2.928  20.948  1.00  0.00     0.183 A 
ATOM     28  HN  UNL     1     -32.342  -2.508  19.790  1.00  0.00     0.168 HD
HETATM   29  N   UNL     1     -35.006  -3.749  21.377  1.00  0.00    -0.337 N 
HETATM   30  C   UNL     1     -35.029  -5.026  20.925  1.00  0.00     0.131 A 
ATOM     31  HN  UNL     1     -35.713  -3.418  22.033  1.00  0.00     0.168 HD
HETATM   32  N   UNL     1     -33.795  -6.615  19.338  1.00  0.00    -0.346 N 
HETATM   33  C   UNL     1     -32.736  -6.357  18.608  1.00  0.00     0.188 A 
ATOM     34  HN  UNL     1     -34.315  -7.489  19.407  1.00  0.00     0.167 HD
BRANCH  30  35
HETATM   35  N   UNL     1     -35.939  -5.860  21.422  1.00  0.00    -0.383 N 
ATOM     36  HN2 UNL     1     -36.445  -5.689  22.290  1.00  0.00     0.157 HD
ATOM     37  HN1 UNL     1     -36.180  -6.694  20.886  1.00  0.00     0.157 HD
ENDBRANCH  30  35
ENDBRANCH   5  23
BRANCH   4  38
HETATM   38  O   UNL     1     -29.992  -4.761  15.978  1.00  0.00    -0.388 OA
ATOM     39  HO  UNL     1     -29.439  -3.995  15.878  1.00  0.00     0.210 HD
ENDBRANCH   4  38
TORSDOF 11
ENDMDL
MODEL 7
REMARK VINA RESULT:    -8.742      1.694      3.292
REMARK INTER + INTRA:         -15.458
REMARK INTER:                 -13.465
REMARK INTRA:                  -1.993
REMARK UNBOUND:                -1.860
REMARK  11 active torsions:
REMARK  status: ('A' for Active; 'I' for Inactive)
REMARK    1  A    between atoms: P_1  and  N_8 
REMARK    2  A    between atoms: P_5  and  N_8 
REMARK    3  A    between atoms: P_5  and  O_13 
REMARK    4  A    between atoms: P_10  and  O_14 
REMARK    5  A    between atoms: P_10  and  O_13 
REMARK    6  A    between atoms: O_14  and  C_15 
REMARK    7  A    between atoms: C_15  and  C_16 
REMARK    8  A    between atoms: C_18  and  O_19 
REMARK    9  A    between atoms: C_21  and  O_22 
REMARK   10  A    between atoms: C_24  and  N_25 
REMARK   11  A    between atoms: C_30  and  N_31 
ROOT
HETATM    1  C   UNL     1     -31.006  -2.037  15.762  1.00  0.00     0.180 C 
HETATM    2  O   UNL     1     -32.140  -1.844  16.632  1.00  0.00    -0.353 OA
HETATM    3  C   UNL     1     -29.970  -2.689  16.665  1.00  0.00     0.182 C 
HETATM    4  C   UNL     1     -30.168  -1.929  17.975  1.00  0.00     0.198 C 
HETATM    5  C   UNL     1     -31.672  -1.626  17.953  1.00  0.00     0.262 C 
ENDROOT
BRANCH   1   6
HETATM    6  C   UNL     1     -31.414  -2.880  14.590  1.00  0.00     0.216 C 
BRANCH   6   7
HETATM    7  O   UNL     1     -30.372  -2.735  13.610  1.00  0.00    -0.287 OA
BRANCH   7   8
HETATM    8  P   UNL     1     -29.643  -3.972  12.999  1.00  0.00     0.417 P 
HETATM    9  O   UNL     1     -29.512  -5.025  14.019  1.00  0.00    -0.624 OA
HETATM   10  O   UNL     1     -30.379  -4.391  11.725  1.00  0.00    -0.624 OA
BRANCH   8  11
HETATM   11  O   UNL     1     -28.205  -3.449  12.557  1.00  0.00    -0.186 OA
BRANCH  11  12
HETATM   12  P   UNL     1     -26.778  -4.002  12.979  1.00  0.00     0.379 P 
HETATM   13  O   UNL     1     -26.546  -3.763  14.392  1.00  0.00    -0.629 OA
HETATM   14  O   UNL     1     -25.764  -3.151  12.119  1.00  0.00    -0.629 OA
BRANCH  12  15
HETATM   15  N   UNL     1     -26.783  -5.624  12.649  1.00  0.00    -0.218 N 
ATOM     16  HN  UNL     1     -26.641  -6.231  13.457  1.00  0.00     0.179 HD
BRANCH  15  17
HETATM   17  P   UNL     1     -26.985  -6.419  11.193  1.00  0.00     0.381 P 
HETATM   18  O   UNL     1     -26.094  -7.723  11.160  1.00  0.00    -0.622 OA
HETATM   19  O   UNL     1     -26.532  -5.428  10.061  1.00  0.00    -0.622 OA
HETATM   20  O   UNL     1     -28.348  -6.822  10.883  1.00  0.00    -0.622 OA
ENDBRANCH  15  17
ENDBRANCH  12  15
ENDBRANCH  11  12
ENDBRANCH   8  11
ENDBRANCH   7   8
ENDBRANCH   6   7
ENDBRANCH   1   6
BRANCH   3  21
HETATM   21  O   UNL     1     -28.668  -2.541  16.115  1.00  0.00    -0.390 OA
ATOM     22  HO  UNL     1     -28.320  -1.680  16.310  1.00  0.00     0.210 HD
ENDBRANCH   3  21
BRANCH   5  23
HETATM   23  N   UNL     1     -32.458  -2.429  18.882  1.00  0.00    -0.297 N 
HETATM   24  C   UNL     1     -32.797  -3.753  18.727  1.00  0.00     0.142 A 
HETATM   25  N   UNL     1     -32.466  -4.574  17.709  1.00  0.00    -0.336 N 
HETATM   26  C   UNL     1     -33.559  -4.077  19.836  1.00  0.00     0.122 A 
HETATM   27  C   UNL     1     -32.973  -5.801  17.892  1.00  0.00     0.183 A 
ATOM     28  HN  UNL     1     -31.903  -4.297  16.904  1.00  0.00     0.168 HD
HETATM   29  N   UNL     1     -33.714  -6.256  18.914  1.00  0.00    -0.337 N 
HETATM   30  C   UNL     1     -34.044  -5.401  19.912  1.00  0.00     0.131 A 
ATOM     31  HN  UNL     1     -34.023  -7.227  18.940  1.00  0.00     0.168 HD
HETATM   32  N   UNL     1     -33.697  -2.981  20.677  1.00  0.00    -0.346 N 
HETATM   33  C   UNL     1     -33.026  -2.035  20.065  1.00  0.00     0.188 A 
ATOM     34  HN  UNL     1     -34.201  -2.924  21.562  1.00  0.00     0.167 HD
BRANCH  30  35
HETATM   35  N   UNL     1     -34.852  -5.833  20.878  1.00  0.00    -0.383 N 
ATOM     36  HN2 UNL     1     -35.756  -6.270  20.701  1.00  0.00     0.157 HD
ATOM     37  HN1 UNL     1     -34.535  -5.766  21.845  1.00  0.00     0.157 HD
ENDBRANCH  30  35
ENDBRANCH   5  23
BRANCH   4  38
HETATM   38  O   UNL     1     -29.448  -0.709  17.945  1.00  0.00    -0.388 OA
ATOM     39  HO  UNL     1     -29.518  -0.286  18.792  1.00  0.00     0.210 HD
ENDBRANCH   4  38
TORSDOF 11
ENDMDL
MODEL 8
REMARK VINA RESULT:    -8.726      1.690      3.301
REMARK INTER + INTRA:         -15.433
REMARK INTER:                 -14.234
REMARK INTRA:                  -1.198
REMARK UNBOUND:                -1.860
REMARK  11 active torsions:
REMARK  status: ('A' for Active; 'I' for Inactive)
REMARK    1  A    between atoms: P_1  and  N_8 
REMARK    2  A    between atoms: P_5  and  N_8 
REMARK    3  A    between atoms: P_5  and  O_13 
REMARK    4  A    between atoms: P_10  and  O_14 
REMARK    5  A    between atoms: P_10  and  O_13 
REMARK    6  A    between atoms: O_14  and  C_15 
REMARK    7  A    between atoms: C_15  and  C_16 
REMARK    8  A    between atoms: C_18  and  O_19 
REMARK    9  A    between atoms: C_21  and  O_22 
REMARK   10  A    between atoms: C_24  and  N_25 
REMARK   11  A    between atoms: C_30  and  N_31 
ROOT
HETATM    1  C   UNL     1     -30.666  -2.658  16.684  1.00  0.00     0.180 C 
HETATM    2  O   UNL     1     -32.009  -3.122  16.924  1.00  0.00    -0.353 OA
HETATM    3  C   UNL     1     -30.323  -1.884  17.947  1.00  0.00     0.182 C 
HETATM    4  C   UNL     1     -31.639  -1.170  18.248  1.00  0.00     0.198 C 
HETATM    5  C   UNL     1     -32.680  -2.177  17.742  1.00  0.00     0.262 C 
ENDROOT
BRANCH   1   6
HETATM    6  C   UNL     1     -29.770  -3.834  16.425  1.00  0.00     0.216 C 
BRANCH   6   7
HETATM    7  O   UNL     1     -30.240  -4.435  15.205  1.00  0.00    -0.287 OA
BRANCH   7   8
HETATM    8  P   UNL     1     -29.703  -3.986  13.811  1.00  0.00     0.417 P 
HETATM    9  O   UNL     1     -29.088  -5.133  13.124  1.00  0.00    -0.624 OA
HETATM   10  O   UNL     1     -30.840  -3.305  13.048  1.00  0.00    -0.624 OA
BRANCH   8  11
HETATM   11  O   UNL     1     -28.608  -2.869  14.111  1.00  0.00    -0.186 OA
BRANCH  11  12
HETATM   12  P   UNL     1     -27.077  -2.847  13.692  1.00  0.00     0.379 P 
HETATM   13  O   UNL     1     -26.319  -3.774  14.513  1.00  0.00    -0.629 OA
HETATM   14  O   UNL     1     -26.616  -1.367  13.991  1.00  0.00    -0.629 OA
BRANCH  12  15
HETATM   15  N   UNL     1     -27.016  -3.288  12.098  1.00  0.00    -0.218 N 
ATOM     16  HN  UNL     1     -27.811  -2.988  11.534  1.00  0.00     0.179 HD
BRANCH  15  17
HETATM   17  P   UNL     1     -25.849  -4.153  11.271  1.00  0.00     0.381 P 
HETATM   18  O   UNL     1     -24.705  -3.181  10.776  1.00  0.00    -0.622 OA
HETATM   19  O   UNL     1     -26.558  -4.822  10.039  1.00  0.00    -0.622 OA
HETATM   20  O   UNL     1     -25.209  -5.221  12.024  1.00  0.00    -0.622 OA
ENDBRANCH  15  17
ENDBRANCH  12  15
ENDBRANCH  11  12
ENDBRANCH   8  11
ENDBRANCH   7   8
ENDBRANCH   6   7
ENDBRANCH   1   6
BRANCH   3  21
HETATM   21  O   UNL     1     -29.238  -0.997  17.708  1.00  0.00    -0.390 OA
ATOM     22  HO  UNL     1     -29.431  -0.426  16.974  1.00  0.00     0.210 HD
ENDBRANCH   3  21
BRANCH   5  23
HETATM   23  N   UNL     1     -33.398  -2.879  18.800  1.00  0.00    -0.297 N 
HETATM   24  C   UNL     1     -33.488  -4.242  18.956  1.00  0.00     0.142 A 
HETATM   25  N   UNL     1     -32.929  -5.198  18.185  1.00  0.00    -0.336 N 
HETATM   26  C   UNL     1     -34.281  -4.441  20.072  1.00  0.00     0.122 A 
HETATM   27  C   UNL     1     -33.232  -6.423  18.636  1.00  0.00     0.183 A 
ATOM     28  HN  UNL     1     -32.351  -5.012  17.364  1.00  0.00     0.168 HD
HETATM   29  N   UNL     1     -33.973  -6.762  19.702  1.00  0.00    -0.337 N 
HETATM   30  C   UNL     1     -34.535  -5.779  20.445  1.00  0.00     0.131 A 
ATOM     31  HN  UNL     1     -34.112  -7.742  19.947  1.00  0.00     0.168 HD
HETATM   32  N   UNL     1     -34.681  -3.226  20.615  1.00  0.00    -0.346 N 
HETATM   33  C   UNL     1     -34.130  -2.337  19.824  1.00  0.00     0.188 A 
ATOM     34  HN  UNL     1     -35.266  -3.064  21.435  1.00  0.00     0.167 HD
BRANCH  30  35
HETATM   35  N   UNL     1     -35.342  -6.121  21.447  1.00  0.00    -0.383 N 
ATOM     36  HN2 UNL     1     -35.231  -6.976  21.991  1.00  0.00     0.157 HD
ATOM     37  HN1 UNL     1     -36.083  -5.475  21.719  1.00  0.00     0.157 HD
ENDBRANCH  30  35
ENDBRANCH   5  23
BRANCH   4  38
HETATM   38  O   UNL     1     -31.735   0.020  17.485  1.00  0.00    -0.388 OA
ATOM     39  HO  UNL     1     -32.418  -0.083  16.833  1.00  0.00     0.210 HD
ENDBRANCH   4  38
TORSDOF 11
ENDMDL
MODEL 9
REMARK VINA RESULT:    -8.702      2.150      4.081
REMARK INTER + INTRA:         -15.395
REMARK INTER:                 -13.541
REMARK INTRA:                  -1.855
REMARK UNBOUND:                -1.860
REMARK  11 active torsions:
REMARK  status: ('A' for Active; 'I' for Inactive)
REMARK    1  A    between atoms: P_1  and  N_8 
REMARK    2  A    between atoms: P_5  and  N_8 
REMARK    3  A    between atoms: P_5  and  O_13 
REMARK    4  A    between atoms: P_10  and  O_14 
REMARK    5  A    between atoms: P_10  and  O_13 
REMARK    6  A    between atoms: O_14  and  C_15 
REMARK    7  A    between atoms: C_15  and  C_16 
REMARK    8  A    between atoms: C_18  and  O_19 
REMARK    9  A    between atoms: C_21  and  O_22 
REMARK   10  A    between atoms: C_24  and  N_25 
REMARK   11  A    between atoms: C_30  and  N_31 
ROOT
HETATM    1  C   UNL     1     -29.945  -2.972  14.159  1.00  0.00     0.180 C 
HETATM    2  O   UNL     1     -31.194  -2.499  14.700  1.00  0.00    -0.353 OA
HETATM    3  C   UNL     1     -29.018  -2.995  15.364  1.00  0.00     0.182 C 
HETATM    4  C   UNL     1     -29.425  -1.720  16.100  1.00  0.00     0.198 C 
HETATM    5  C   UNL     1     -30.922  -1.621  15.780  1.00  0.00     0.262 C 
ENDROOT
BRANCH   1   6
HETATM    6  C   UNL     1     -30.153  -4.315  13.522  1.00  0.00     0.216 C 
BRANCH   6   7
HETATM    7  O   UNL     1     -28.871  -4.721  13.013  1.00  0.00    -0.287 OA
BRANCH   7   8
HETATM    8  P   UNL     1     -28.648  -5.023  11.499  1.00  0.00     0.417 P 
HETATM    9  O   UNL     1     -28.335  -6.450  11.319  1.00  0.00    -0.624 OA
HETATM   10  O   UNL     1     -29.864  -4.522  10.718  1.00  0.00    -0.624 OA
BRANCH   8  11
HETATM   11  O   UNL     1     -27.408  -4.126  11.059  1.00  0.00    -0.186 OA
BRANCH  11  12
HETATM   12  P   UNL     1     -25.921  -4.153  11.613  1.00  0.00     0.379 P 
HETATM   13  O   UNL     1     -25.901  -3.768  13.013  1.00  0.00    -0.629 OA
HETATM   14  O   UNL     1     -25.166  -3.069  10.748  1.00  0.00    -0.629 OA
BRANCH  12  15
HETATM   15  N   UNL     1     -25.373  -5.704  11.422  1.00  0.00    -0.218 N 
ATOM     16  HN  UNL     1     -25.306  -6.248  12.282  1.00  0.00     0.179 HD
BRANCH  15  17
HETATM   17  P   UNL     1     -24.912  -6.512  10.034  1.00  0.00     0.381 P 
HETATM   18  O   UNL     1     -23.337  -6.606   9.960  1.00  0.00    -0.622 OA
HETATM   19  O   UNL     1     -25.460  -5.685   8.816  1.00  0.00    -0.622 OA
HETATM   20  O   UNL     1     -25.430  -7.865   9.895  1.00  0.00    -0.622 OA
ENDBRANCH  15  17
ENDBRANCH  12  15
ENDBRANCH  11  12
ENDBRANCH   8  11
ENDBRANCH   7   8
ENDBRANCH   6   7
ENDBRANCH   1   6
BRANCH   3  21
HETATM   21  O   UNL     1     -27.659  -3.000  14.948  1.00  0.00    -0.390 OA
ATOM     22  HO  UNL     1     -27.542  -3.579  14.203  1.00  0.00     0.210 HD
ENDBRANCH   3  21
BRANCH   5  23
HETATM   23  N   UNL     1     -31.797  -1.948  16.900  1.00  0.00    -0.297 N 
HETATM   24  C   UNL     1     -32.078  -3.209  17.371  1.00  0.00     0.142 A 
HETATM   25  N   UNL     1     -31.600  -4.385  16.912  1.00  0.00    -0.336 N 
HETATM   26  C   UNL     1     -32.964  -3.030  18.418  1.00  0.00     0.122 A 
HETATM   27  C   UNL     1     -32.093  -5.415  17.614  1.00  0.00     0.183 A 
ATOM     28  HN  UNL     1     -30.948  -4.478  16.133  1.00  0.00     0.168 HD
HETATM   29  N   UNL     1     -32.943  -5.389  18.652  1.00  0.00    -0.337 N 
HETATM   30  C   UNL     1     -33.418  -4.194  19.077  1.00  0.00     0.131 A 
ATOM     31  HN  UNL     1     -33.227  -6.254  19.112  1.00  0.00     0.168 HD
HETATM   32  N   UNL     1     -33.235  -1.681  18.609  1.00  0.00    -0.346 N 
HETATM   33  C   UNL     1     -32.519  -1.088  17.685  1.00  0.00     0.188 A 
ATOM     34  HN  UNL     1     -33.847  -1.253  19.304  1.00  0.00     0.167 HD
BRANCH  30  35
HETATM   35  N   UNL     1     -34.330  -4.180  20.047  1.00  0.00    -0.383 N 
ATOM     36  HN2 UNL     1     -34.964  -4.956  20.234  1.00  0.00     0.157 HD
ATOM     37  HN1 UNL     1     -34.368  -3.372  20.668  1.00  0.00     0.157 HD
ENDBRANCH  30  35
ENDBRANCH   5  23
BRANCH   4  38
HETATM   38  O   UNL     1     -28.756  -0.601  15.545  1.00  0.00    -0.388 OA
ATOM     39  HO  UNL     1     -29.210   0.192  15.803  1.00  0.00     0.210 HD
ENDBRANCH   4  38
TORSDOF 11
ENDMDL
MODEL 10
REMARK VINA RESULT:    -8.683      1.458      1.887
REMARK INTER + INTRA:         -15.365
REMARK INTER:                 -14.010
REMARK INTRA:                  -1.355
REMARK UNBOUND:                -1.860
REMARK  11 active torsions:
REMARK  status: ('A' for Active; 'I' for Inactive)
REMARK    1  A    between atoms: P_1  and  N_8 
REMARK    2  A    between atoms: P_5  and  N_8 
REMARK    3  A    between atoms: P_5  and  O_13 
REMARK    4  A    between atoms: P_10  and  O_14 
REMARK    5  A    between atoms: P_10  and  O_13 
REMARK    6  A    between atoms: O_14  and  C_15 
REMARK    7  A    between atoms: C_15  and  C_16 
REMARK    8  A    between atoms: C_18  and  O_19 
REMARK    9  A    between atoms: C_21  and  O_22 
REMARK   10  A    between atoms: C_24  and  N_25 
REMARK   11  A    between atoms: C_30  and  N_31 
ROOT
HETATM    1  C   UNL     1     -30.850  -3.022  16.191  1.00  0.00     0.180 C 
HETATM    2  O   UNL     1     -31.443  -3.053  17.505  1.00  0.00    -0.353 OA
HETATM    3  C   UNL     1     -30.848  -4.481  15.764  1.00  0.00     0.182 C 
HETATM    4  C   UNL     1     -30.477  -5.191  17.064  1.00  0.00     0.198 C 
HETATM    5  C   UNL     1     -31.115  -4.286  18.126  1.00  0.00     0.262 C 
ENDROOT
BRANCH   1   6
HETATM    6  C   UNL     1     -31.658  -2.124  15.300  1.00  0.00     0.216 C 
BRANCH   6   7
HETATM    7  O   UNL     1     -31.060  -0.820  15.397  1.00  0.00    -0.287 OA
BRANCH   7   8
HETATM    8  P   UNL     1     -29.516  -0.618  15.308  1.00  0.00     0.417 P 
HETATM    9  O   UNL     1     -29.218   0.776  14.940  1.00  0.00    -0.624 OA
HETATM   10  O   UNL     1     -28.886  -1.092  16.619  1.00  0.00    -0.624 OA
BRANCH   8  11
HETATM   11  O   UNL     1     -29.017  -1.609  14.165  1.00  0.00    -0.186 OA
BRANCH  11  12
HETATM   12  P   UNL     1     -27.631  -2.374  14.055  1.00  0.00     0.379 P 
HETATM   13  O   UNL     1     -27.489  -3.315  15.151  1.00  0.00    -0.629 OA
HETATM   14  O   UNL     1     -26.548  -1.233  14.185  1.00  0.00    -0.629 OA
BRANCH  12  15
HETATM   15  N   UNL     1     -27.641  -3.163  12.600  1.00  0.00    -0.218 N 
ATOM     16  HN  UNL     1     -28.130  -2.679  11.847  1.00  0.00     0.179 HD
BRANCH  15  17
HETATM   17  P   UNL     1     -26.971  -4.635  12.176  1.00  0.00     0.381 P 
HETATM   18  O   UNL     1     -26.960  -4.792  10.604  1.00  0.00    -0.622 OA
HETATM   19  O   UNL     1     -27.866  -5.751  12.824  1.00  0.00    -0.622 OA
HETATM   20  O   UNL     1     -25.610  -4.860  12.640  1.00  0.00    -0.622 OA
ENDBRANCH  15  17
ENDBRANCH  12  15
ENDBRANCH  11  12
ENDBRANCH   8  11
ENDBRANCH   7   8
ENDBRANCH   6   7
ENDBRANCH   1   6
BRANCH   3  21
HETATM   21  O   UNL     1     -29.913  -4.692  14.715  1.00  0.00    -0.390 OA
ATOM     22  HO  UNL     1     -30.133  -5.476  14.227  1.00  0.00     0.210 HD
ENDBRANCH   3  21
BRANCH   5  23
HETATM   23  N   UNL     1     -32.309  -4.844  18.749  1.00  0.00    -0.297 N 
HETATM   24  C   UNL     1     -33.128  -4.208  19.653  1.00  0.00     0.142 A 
HETATM   25  N   UNL     1     -33.007  -2.953  20.132  1.00  0.00    -0.336 N 
HETATM   26  C   UNL     1     -34.109  -5.127  19.981  1.00  0.00     0.122 A 
HETATM   27  C   UNL     1     -33.988  -2.669  21.001  1.00  0.00     0.183 A 
ATOM     28  HN  UNL     1     -32.265  -2.303  19.868  1.00  0.00     0.168 HD
HETATM   29  N   UNL     1     -35.002  -3.451  21.401  1.00  0.00    -0.337 N 
HETATM   30  C   UNL     1     -35.085  -4.713  20.914  1.00  0.00     0.131 A 
ATOM     31  HN  UNL     1     -35.698  -3.102  22.060  1.00  0.00     0.168 HD
HETATM   32  N   UNL     1     -33.918  -6.319  19.295  1.00  0.00    -0.346 N 
HETATM   33  C   UNL     1     -32.841  -6.096  18.581  1.00  0.00     0.188 A 
ATOM     34  HN  UNL     1     -34.481  -7.168  19.337  1.00  0.00     0.167 HD
BRANCH  30  35
HETATM   35  N   UNL     1     -36.040  -5.513  21.382  1.00  0.00    -0.383 N 
ATOM     36  HN2 UNL     1     -36.177  -5.706  22.374  1.00  0.00     0.157 HD
ATOM     37  HN1 UNL     1     -36.702  -5.920  20.721  1.00  0.00     0.157 HD
ENDBRANCH  30  35
ENDBRANCH   5  23
BRANCH   4  38
HETATM   38  O   UNL     1     -29.070  -5.189  17.237  1.00  0.00    -0.388 OA
ATOM     39  HO  UNL     1     -28.715  -6.005  16.906  1.00  0.00     0.210 HD
ENDBRANCH   4  38
TORSDOF 11
ENDMDL
MODEL 11
REMARK VINA RESULT:    -8.679      1.755      3.534
REMARK INTER + INTRA:         -15.359
REMARK INTER:                 -13.793
REMARK INTRA:                  -1.566
REMARK UNBOUND:                -1.860
REMARK  11 active torsions:
REMARK  status: ('A' for Active; 'I' for Inactive)
REMARK    1  A    between atoms: P_1  and  N_8 
REMARK    2  A    between atoms: P_5  and  N_8 
REMARK    3  A    between atoms: P_5  and  O_13 
REMARK    4  A    between atoms: P_10  and  O_14 
REMARK    5  A    between atoms: P_10  and  O_13 
REMARK    6  A    between atoms: O_14  and  C_15 
REMARK    7  A    between atoms: C_15  and  C_16 
REMARK    8  A    between atoms: C_18  and  O_19 
REMARK    9  A    between atoms: C_21  and  O_22 
REMARK   10  A    between atoms: C_24  and  N_25 
REMARK   11  A    between atoms: C_30  and  N_31 
ROOT
HETATM    1  C   UNL     1     -30.926  -2.416  16.163  1.00  0.00     0.180 C 
HETATM    2  O   UNL     1     -32.276  -2.740  16.553  1.00  0.00    -0.353 OA
HETATM    3  C   UNL     1     -30.310  -1.858  17.436  1.00  0.00     0.182 C 
HETATM    4  C   UNL     1     -31.461  -1.034  18.010  1.00  0.00     0.198 C 
HETATM    5  C   UNL     1     -32.691  -1.834  17.562  1.00  0.00     0.262 C 
ENDROOT
BRANCH   1   6
HETATM    6  C   UNL     1     -30.246  -3.650  15.644  1.00  0.00     0.216 C 
BRANCH   6   7
HETATM    7  O   UNL     1     -28.842  -3.346  15.602  1.00  0.00    -0.287 OA
BRANCH   7   8
HETATM    8  P   UNL     1     -28.077  -3.190  14.251  1.00  0.00     0.417 P 
HETATM    9  O   UNL     1     -28.304  -1.841  13.706  1.00  0.00    -0.624 OA
HETATM   10  O   UNL     1     -26.611  -3.561  14.475  1.00  0.00    -0.624 OA
BRANCH   8  11
HETATM   11  O   UNL     1     -28.694  -4.289  13.278  1.00  0.00    -0.186 OA
BRANCH  11  12
HETATM   12  P   UNL     1     -28.116  -4.829  11.902  1.00  0.00     0.379 P 
HETATM   13  O   UNL     1     -29.047  -4.548  10.823  1.00  0.00    -0.629 OA
HETATM   14  O   UNL     1     -28.000  -6.389  12.116  1.00  0.00    -0.629 OA
BRANCH  12  15
HETATM   15  N   UNL     1     -26.677  -4.050  11.655  1.00  0.00    -0.218 N 
ATOM     16  HN  UNL     1     -26.592  -3.141  12.111  1.00  0.00     0.179 HD
BRANCH  15  17
HETATM   17  P   UNL     1     -25.341  -4.525  10.771  1.00  0.00     0.381 P 
HETATM   18  O   UNL     1     -24.445  -3.270  10.427  1.00  0.00    -0.622 OA
HETATM   19  O   UNL     1     -25.875  -5.185   9.449  1.00  0.00    -0.622 OA
HETATM   20  O   UNL     1     -24.479  -5.505  11.415  1.00  0.00    -0.622 OA
ENDBRANCH  15  17
ENDBRANCH  12  15
ENDBRANCH  11  12
ENDBRANCH   8  11
ENDBRANCH   7   8
ENDBRANCH   6   7
ENDBRANCH   1   6
BRANCH   3  21
HETATM   21  O   UNL     1     -29.156  -1.086  17.134  1.00  0.00    -0.390 OA
ATOM     22  HO  UNL     1     -28.420  -1.365  17.666  1.00  0.00     0.210 HD
ENDBRANCH   3  21
BRANCH   5  23
HETATM   23  N   UNL     1     -33.348  -2.572  18.633  1.00  0.00    -0.297 N 
HETATM   24  C   UNL     1     -33.408  -3.940  18.760  1.00  0.00     0.142 A 
HETATM   25  N   UNL     1     -32.868  -4.868  17.942  1.00  0.00    -0.336 N 
HETATM   26  C   UNL     1     -34.146  -4.179  19.906  1.00  0.00     0.122 A 
HETATM   27  C   UNL     1     -33.130  -6.109  18.376  1.00  0.00     0.183 A 
ATOM     28  HN  UNL     1     -32.331  -4.652  17.101  1.00  0.00     0.168 HD
HETATM   29  N   UNL     1     -33.817  -6.486  19.466  1.00  0.00    -0.337 N 
HETATM   30  C   UNL     1     -34.361  -5.530  20.257  1.00  0.00     0.131 A 
ATOM     31  HN  UNL     1     -33.927  -7.473  19.694  1.00  0.00     0.168 HD
HETATM   32  N   UNL     1     -34.543  -2.986  20.495  1.00  0.00    -0.346 N 
HETATM   33  C   UNL     1     -34.043  -2.069  19.702  1.00  0.00     0.188 A 
ATOM     34  HN  UNL     1     -35.092  -2.853  21.344  1.00  0.00     0.167 HD
BRANCH  30  35
HETATM   35  N   UNL     1     -35.116  -5.910  21.286  1.00  0.00    -0.383 N 
ATOM     36  HN2 UNL     1     -34.961  -5.596  22.243  1.00  0.00     0.157 HD
ATOM     37  HN1 UNL     1     -35.920  -6.511  21.104  1.00  0.00     0.157 HD
ENDBRANCH  30  35
ENDBRANCH   5  23
BRANCH   4  38
HETATM   38  O   UNL     1     -31.494   0.247  17.405  1.00  0.00    -0.388 OA
ATOM     39  HO  UNL     1     -30.737   0.343  16.839  1.00  0.00     0.210 HD
ENDBRANCH   4  38
TORSDOF 11
ENDMDL
MODEL 12
REMARK VINA RESULT:    -8.601      1.874      2.990
REMARK INTER + INTRA:         -15.239
REMARK INTER:                 -13.335
REMARK INTRA:                  -1.903
REMARK UNBOUND:                -1.860
REMARK  11 active torsions:
REMARK  status: ('A' for Active; 'I' for Inactive)
REMARK    1  A    between atoms: P_1  and  N_8 
REMARK    2  A    between atoms: P_5  and  N_8 
REMARK    3  A    between atoms: P_5  and  O_13 
REMARK    4  A    between atoms: P_10  and  O_14 
REMARK    5  A    between atoms: P_10  and  O_13 
REMARK    6  A    between atoms: O_14  and  C_15 
REMARK    7  A    between atoms: C_15  and  C_16 
REMARK    8  A    between atoms: C_18  and  O_19 
REMARK    9  A    between atoms: C_21  and  O_22 
REMARK   10  A    between atoms: C_24  and  N_25 
REMARK   11  A    between atoms: C_30  and  N_31 
ROOT
HETATM    1  C   UNL     1     -29.485  -1.781  16.079  1.00  0.00     0.180 C 
HETATM    2  O   UNL     1     -29.709  -2.060  17.475  1.00  0.00    -0.353 OA
HETATM    3  C   UNL     1     -30.748  -2.294  15.404  1.00  0.00     0.182 C 
HETATM    4  C   UNL     1     -31.025  -3.577  16.185  1.00  0.00     0.198 C 
HETATM    5  C   UNL     1     -30.510  -3.225  17.587  1.00  0.00     0.262 C 
ENDROOT
BRANCH   1   6
HETATM    6  C   UNL     1     -29.247  -0.310  15.895  1.00  0.00     0.216 C 
BRANCH   6   7
HETATM    7  O   UNL     1     -28.576  -0.167  14.632  1.00  0.00    -0.287 OA
BRANCH   7   8
HETATM    8  P   UNL     1     -27.541   0.972  14.377  1.00  0.00     0.417 P 
HETATM    9  O   UNL     1     -28.235   2.172  13.885  1.00  0.00    -0.624 OA
HETATM   10  O   UNL     1     -26.717   1.174  15.650  1.00  0.00    -0.624 OA
BRANCH   8  11
HETATM   11  O   UNL     1     -26.549   0.411  13.264  1.00  0.00    -0.186 OA
BRANCH  11  12
HETATM   12  P   UNL     1     -25.718  -0.941  13.270  1.00  0.00     0.379 P 
HETATM   13  O   UNL     1     -24.617  -0.849  14.213  1.00  0.00    -0.629 OA
HETATM   14  O   UNL     1     -25.154  -1.055  11.799  1.00  0.00    -0.629 OA
BRANCH  12  15
HETATM   15  N   UNL     1     -26.769  -2.142  13.709  1.00  0.00    -0.218 N 
ATOM     16  HN  UNL     1     -27.418  -1.897  14.457  1.00  0.00     0.179 HD
BRANCH  15  17
HETATM   17  P   UNL     1     -26.930  -3.694  13.112  1.00  0.00     0.381 P 
HETATM   18  O   UNL     1     -26.750  -3.692  11.542  1.00  0.00    -0.622 OA
HETATM   19  O   UNL     1     -28.374  -4.185  13.488  1.00  0.00    -0.622 OA
HETATM   20  O   UNL     1     -25.996  -4.672  13.650  1.00  0.00    -0.622 OA
ENDBRANCH  15  17
ENDBRANCH  12  15
ENDBRANCH  11  12
ENDBRANCH   8  11
ENDBRANCH   7   8
ENDBRANCH   6   7
ENDBRANCH   1   6
BRANCH   3  21
HETATM   21  O   UNL     1     -30.519  -2.510  14.019  1.00  0.00    -0.390 OA
ATOM     22  HO  UNL     1     -29.763  -2.016  13.725  1.00  0.00     0.210 HD
ENDBRANCH   3  21
BRANCH   5  23
HETATM   23  N   UNL     1     -31.562  -2.994  18.570  1.00  0.00    -0.297 N 
HETATM   24  C   UNL     1     -32.488  -3.914  19.001  1.00  0.00     0.142 A 
HETATM   25  N   UNL     1     -32.606  -5.204  18.622  1.00  0.00    -0.336 N 
HETATM   26  C   UNL     1     -33.289  -3.244  19.909  1.00  0.00     0.122 A 
HETATM   27  C   UNL     1     -33.629  -5.802  19.249  1.00  0.00     0.183 A 
ATOM     28  HN  UNL     1     -31.996  -5.664  17.944  1.00  0.00     0.168 HD
HETATM   29  N   UNL     1     -34.473  -5.283  20.153  1.00  0.00    -0.337 N 
HETATM   30  C   UNL     1     -34.339  -3.981  20.500  1.00  0.00     0.131 A 
ATOM     31  HN  UNL     1     -35.204  -5.859  20.572  1.00  0.00     0.168 HD
HETATM   32  N   UNL     1     -32.875  -1.926  20.053  1.00  0.00    -0.346 N 
HETATM   33  C   UNL     1     -31.850  -1.834  19.239  1.00  0.00     0.188 A 
ATOM     34  HN  UNL     1     -33.273  -1.202  20.650  1.00  0.00     0.167 HD
BRANCH  30  35
HETATM   35  N   UNL     1     -35.234  -3.448  21.329  1.00  0.00    -0.383 N 
ATOM     36  HN2 UNL     1     -35.657  -3.957  22.104  1.00  0.00     0.157 HD
ATOM     37  HN1 UNL     1     -35.479  -2.464  21.215  1.00  0.00     0.157 HD
ENDBRANCH  30  35
ENDBRANCH   5  23
BRANCH   4  38
HETATM   38  O   UNL     1     -30.252  -4.643  15.661  1.00  0.00    -0.388 OA
ATOM     39  HO  UNL     1     -29.916  -5.165  16.379  1.00  0.00     0.210 HD
ENDBRANCH   4  38
TORSDOF 11
ENDMDL
MODEL 13
REMARK VINA RESULT:    -8.589      1.729      3.125
REMARK INTER + INTRA:         -15.219
REMARK INTER:                 -13.760
REMARK INTRA:                  -1.459
REMARK UNBOUND:                -1.860
REMARK  11 active torsions:
REMARK  status: ('A' for Active; 'I' for Inactive)
REMARK    1  A    between atoms: P_1  and  N_8 
REMARK    2  A    between atoms: P_5  and  N_8 
REMARK    3  A    between atoms: P_5  and  O_13 
REMARK    4  A    between atoms: P_10  and  O_14 
REMARK    5  A    between atoms: P_10  and  O_13 
REMARK    6  A    between atoms: O_14  and  C_15 
REMARK    7  A    between atoms: C_15  and  C_16 
REMARK    8  A    between atoms: C_18  and  O_19 
REMARK    9  A    between atoms: C_21  and  O_22 
REMARK   10  A    between atoms: C_24  and  N_25 
REMARK   11  A    between atoms: C_30  and  N_31 
ROOT
HETATM    1  C   UNL     1     -29.257  -2.871  15.052  1.00  0.00     0.180 C 
HETATM    2  O   UNL     1     -29.362  -2.755  16.485  1.00  0.00    -0.353 OA
HETATM    3  C   UNL     1     -30.637  -3.350  14.629  1.00  0.00     0.182 C 
HETATM    4  C   UNL     1     -30.982  -4.342  15.738  1.00  0.00     0.198 C 
HETATM    5  C   UNL     1     -30.281  -3.726  16.957  1.00  0.00     0.262 C 
ENDROOT
BRANCH   1   6
HETATM    6  C   UNL     1     -28.865  -1.544  14.470  1.00  0.00     0.216 C 
BRANCH   6   7
HETATM    7  O   UNL     1     -27.428  -1.523  14.452  1.00  0.00    -0.287 OA
BRANCH   7   8
HETATM    8  P   UNL     1     -26.604  -2.534  13.596  1.00  0.00     0.417 P 
HETATM    9  O   UNL     1     -25.572  -1.813  12.833  1.00  0.00    -0.624 OA
HETATM   10  O   UNL     1     -26.079  -3.637  14.516  1.00  0.00    -0.624 OA
BRANCH   8  11
HETATM   11  O   UNL     1     -27.651  -3.212  12.606  1.00  0.00    -0.186 OA
BRANCH  11  12
HETATM   12  P   UNL     1     -27.599  -4.655  11.947  1.00  0.00     0.379 P 
HETATM   13  O   UNL     1     -28.238  -4.634  10.643  1.00  0.00    -0.629 OA
HETATM   14  O   UNL     1     -28.430  -5.562  12.936  1.00  0.00    -0.629 OA
BRANCH  12  15
HETATM   15  N   UNL     1     -25.999  -5.056  11.811  1.00  0.00    -0.218 N 
ATOM     16  HN  UNL     1     -25.596  -5.514  12.628  1.00  0.00     0.179 HD
BRANCH  15  17
HETATM   17  P   UNL     1     -24.942  -4.823  10.537  1.00  0.00     0.381 P 
HETATM   18  O   UNL     1     -25.589  -5.349   9.194  1.00  0.00    -0.622 OA
HETATM   19  O   UNL     1     -23.641  -5.639  10.863  1.00  0.00    -0.622 OA
HETATM   20  O   UNL     1     -24.532  -3.446  10.306  1.00  0.00    -0.622 OA
ENDBRANCH  15  17
ENDBRANCH  12  15
ENDBRANCH  11  12
ENDBRANCH   8  11
ENDBRANCH   7   8
ENDBRANCH   6   7
ENDBRANCH   1   6
BRANCH   3  21
HETATM   21  O   UNL     1     -30.586  -3.939  13.337  1.00  0.00    -0.390 OA
ATOM     22  HO  UNL     1     -30.409  -4.870  13.402  1.00  0.00     0.210 HD
ENDBRANCH   3  21
BRANCH   5  23
HETATM   23  N   UNL     1     -31.187  -3.107  17.918  1.00  0.00    -0.297 N 
HETATM   24  C   UNL     1     -32.185  -3.741  18.619  1.00  0.00     0.142 A 
HETATM   25  N   UNL     1     -32.520  -5.047  18.577  1.00  0.00    -0.336 N 
HETATM   26  C   UNL     1     -32.789  -2.758  19.383  1.00  0.00     0.122 A 
HETATM   27  C   UNL     1     -33.549  -5.311  19.396  1.00  0.00     0.183 A 
ATOM     28  HN  UNL     1     -32.052  -5.744  17.996  1.00  0.00     0.168 HD
HETATM   29  N   UNL     1     -34.218  -4.467  20.196  1.00  0.00    -0.337 N 
HETATM   30  C   UNL     1     -33.868  -3.158  20.202  1.00  0.00     0.131 A 
ATOM     31  HN  UNL     1     -34.976  -4.804  20.788  1.00  0.00     0.168 HD
HETATM   32  N   UNL     1     -32.181  -1.527  19.172  1.00  0.00    -0.346 N 
HETATM   33  C   UNL     1     -31.241  -1.792  18.298  1.00  0.00     0.188 A 
ATOM     34  HN  UNL     1     -32.412  -0.629  19.597  1.00  0.00     0.167 HD
BRANCH  30  35
HETATM   35  N   UNL     1     -34.592  -2.310  20.930  1.00  0.00    -0.383 N 
ATOM     36  HN2 UNL     1     -34.642  -1.309  20.741  1.00  0.00     0.157 HD
ATOM     37  HN1 UNL     1     -35.164  -2.683  21.687  1.00  0.00     0.157 HD
ENDBRANCH  30  35
ENDBRANCH   5  23
BRANCH   4  38
HETATM   38  O   UNL     1     -30.404  -5.605  15.459  1.00  0.00    -0.388 OA
ATOM     39  HO  UNL     1     -29.610  -5.704  15.972  1.00  0.00     0.210 HD
ENDBRANCH   4  38
TORSDOF 11
ENDMDL
MODEL 14
REMARK VINA RESULT:    -8.532      2.850      5.127
REMARK INTER + INTRA:         -15.131
REMARK INTER:                 -12.852
REMARK INTRA:                  -2.278
REMARK UNBOUND:                -1.860
REMARK  11 active torsions:
REMARK  status: ('A' for Active; 'I' for Inactive)
REMARK    1  A    between atoms: P_1  and  N_8 
REMARK    2  A    between atoms: P_5  and  N_8 
REMARK    3  A    between atoms: P_5  and  O_13 
REMARK    4  A    between atoms: P_10  and  O_14 
REMARK    5  A    between atoms: P_10  and  O_13 
REMARK    6  A    between atoms: O_14  and  C_15 
REMARK    7  A    between atoms: C_15  and  C_16 
REMARK    8  A    between atoms: C_18  and  O_19 
REMARK    9  A    between atoms: C_21  and  O_22 
REMARK   10  A    between atoms: C_24  and  N_25 
REMARK   11  A    between atoms: C_30  and  N_31 
ROOT
HETATM    1  C   UNL     1     -28.417   0.539  14.502  1.00  0.00     0.180 C 
HETATM    2  O   UNL     1     -29.160  -0.693  14.596  1.00  0.00    -0.353 OA
HETATM    3  C   UNL     1     -28.790   1.280  15.777  1.00  0.00     0.182 C 
HETATM    4  C   UNL     1     -30.278   0.961  15.905  1.00  0.00     0.198 C 
HETATM    5  C   UNL     1     -30.364  -0.449  15.306  1.00  0.00     0.262 C 
ENDROOT
BRANCH   1   6
HETATM    6  C   UNL     1     -26.953   0.231  14.379  1.00  0.00     0.216 C 
BRANCH   6   7
HETATM    7  O   UNL     1     -26.749  -0.211  13.026  1.00  0.00    -0.287 OA
BRANCH   7   8
HETATM    8  P   UNL     1     -25.589  -1.183  12.648  1.00  0.00     0.417 P 
HETATM    9  O   UNL     1     -25.813  -1.720  11.296  1.00  0.00    -0.624 OA
HETATM   10  O   UNL     1     -24.259  -0.454  12.845  1.00  0.00    -0.624 OA
BRANCH   8  11
HETATM   11  O   UNL     1     -25.643  -2.356  13.724  1.00  0.00    -0.186 OA
BRANCH  11  12
HETATM   12  P   UNL     1     -26.697  -3.536  13.850  1.00  0.00     0.379 P 
HETATM   13  O   UNL     1     -27.527  -3.343  15.025  1.00  0.00    -0.629 OA
HETATM   14  O   UNL     1     -25.810  -4.830  14.028  1.00  0.00    -0.629 OA
BRANCH  12  15
HETATM   15  N   UNL     1     -27.612  -3.502  12.471  1.00  0.00    -0.218 N 
ATOM     16  HN  UNL     1     -27.999  -2.590  12.231  1.00  0.00     0.179 HD
BRANCH  15  17
HETATM   17  P   UNL     1     -27.999  -4.737  11.413  1.00  0.00     0.381 P 
HETATM   18  O   UNL     1     -28.078  -6.110  12.190  1.00  0.00    -0.622 OA
HETATM   19  O   UNL     1     -26.858  -4.793  10.335  1.00  0.00    -0.622 OA
HETATM   20  O   UNL     1     -29.254  -4.576  10.694  1.00  0.00    -0.622 OA
ENDBRANCH  15  17
ENDBRANCH  12  15
ENDBRANCH  11  12
ENDBRANCH   8  11
ENDBRANCH   7   8
ENDBRANCH   6   7
ENDBRANCH   1   6
BRANCH   3  21
HETATM   21  O   UNL     1     -28.517   2.668  15.643  1.00  0.00    -0.390 OA
ATOM     22  HO  UNL     1     -27.589   2.812  15.501  1.00  0.00     0.210 HD
ENDBRANCH   3  21
BRANCH   5  23
HETATM   23  N   UNL     1     -30.565  -1.506  16.291  1.00  0.00    -0.297 N 
HETATM   24  C   UNL     1     -30.627  -2.855  16.034  1.00  0.00     0.142 A 
HETATM   25  N   UNL     1     -30.501  -3.473  14.841  1.00  0.00    -0.336 N 
HETATM   26  C   UNL     1     -30.852  -3.460  17.258  1.00  0.00     0.122 A 
HETATM   27  C   UNL     1     -30.618  -4.803  14.969  1.00  0.00     0.183 A 
ATOM     28  HN  UNL     1     -30.338  -2.991  13.956  1.00  0.00     0.168 HD
HETATM   29  N   UNL     1     -30.824  -5.520  16.085  1.00  0.00    -0.337 N 
HETATM   30  C   UNL     1     -30.964  -4.868  17.264  1.00  0.00     0.131 A 
ATOM     31  HN  UNL     1     -30.876  -6.538  16.045  1.00  0.00     0.168 HD
HETATM   32  N   UNL     1     -30.927  -2.512  18.270  1.00  0.00    -0.346 N 
HETATM   33  C   UNL     1     -30.750  -1.374  17.642  1.00  0.00     0.188 A 
ATOM     34  HN  UNL     1     -31.084  -2.664  19.266  1.00  0.00     0.167 HD
BRANCH  30  35
HETATM   35  N   UNL     1     -31.257  -5.577  18.352  1.00  0.00    -0.383 N 
ATOM     36  HN2 UNL     1     -31.027  -6.564  18.458  1.00  0.00     0.157 HD
ATOM     37  HN1 UNL     1     -31.693  -5.100  19.141  1.00  0.00     0.157 HD
ENDBRANCH  30  35
ENDBRANCH   5  23
BRANCH   4  38
HETATM   38  O   UNL     1     -31.039   1.851  15.105  1.00  0.00    -0.388 OA
ATOM     39  HO  UNL     1     -30.675   2.725  15.181  1.00  0.00     0.210 HD
ENDBRANCH   4  38
TORSDOF 11
ENDMDL
MODEL 15
REMARK VINA RESULT:    -8.247      1.416      2.549
REMARK INTER + INTRA:         -14.687
REMARK INTER:                 -13.119
REMARK INTRA:                  -1.568
REMARK UNBOUND:                -1.860
REMARK  11 active torsions:
REMARK  status: ('A' for Active; 'I' for Inactive)
REMARK    1  A    between atoms: P_1  and  N_8 
REMARK    2  A    between atoms: P_5  and  N_8 
REMARK    3  A    between atoms: P_5  and  O_13 
REMARK    4  A    between atoms: P_10  and  O_14 
REMARK    5  A    between atoms: P_10  and  O_13 
REMARK    6  A    between atoms: O_14  and  C_15 
REMARK    7  A    between atoms: C_15  and  C_16 
REMARK    8  A    between atoms: C_18  and  O_19 
REMARK    9  A    between atoms: C_21  and  O_22 
REMARK   10  A    between atoms: C_24  and  N_25 
REMARK   11  A    between atoms: C_30  and  N_31 
ROOT
HETATM    1  C   UNL     1     -30.102  -4.422  16.906  1.00  0.00     0.180 C 
HETATM    2  O   UNL     1     -30.596  -4.727  18.225  1.00  0.00    -0.353 OA
HETATM    3  C   UNL     1     -31.276  -4.756  15.998  1.00  0.00     0.182 C 
HETATM    4  C   UNL     1     -31.823  -6.027  16.644  1.00  0.00     0.198 C 
HETATM    5  C   UNL     1     -31.526  -5.793  18.131  1.00  0.00     0.262 C 
ENDROOT
BRANCH   1   6
HETATM    6  C   UNL     1     -29.677  -2.983  16.851  1.00  0.00     0.216 C 
BRANCH   6   7
HETATM    7  O   UNL     1     -28.680  -2.899  15.819  1.00  0.00    -0.287 OA
BRANCH   7   8
HETATM    8  P   UNL     1     -28.886  -2.015  14.550  1.00  0.00     0.417 P 
HETATM    9  O   UNL     1     -30.317  -1.966  14.207  1.00  0.00    -0.624 OA
HETATM   10  O   UNL     1     -28.230  -0.655  14.792  1.00  0.00    -0.624 OA
BRANCH   8  11
HETATM   11  O   UNL     1     -28.064  -2.730  13.389  1.00  0.00    -0.186 OA
BRANCH  11  12
HETATM   12  P   UNL     1     -26.492  -2.905  13.253  1.00  0.00     0.379 P 
HETATM   13  O   UNL     1     -26.151  -3.345  11.912  1.00  0.00    -0.629 OA
HETATM   14  O   UNL     1     -26.137  -4.037  14.294  1.00  0.00    -0.629 OA
BRANCH  12  15
HETATM   15  N   UNL     1     -25.821  -1.426  13.575  1.00  0.00    -0.218 N 
ATOM     16  HN  UNL     1     -25.767  -1.181  14.564  1.00  0.00     0.179 HD
BRANCH  15  17
HETATM   17  P   UNL     1     -25.221  -0.272  12.525  1.00  0.00     0.381 P 
HETATM   18  O   UNL     1     -25.199   1.142  13.230  1.00  0.00    -0.622 OA
HETATM   19  O   UNL     1     -26.179  -0.240  11.281  1.00  0.00    -0.622 OA
HETATM   20  O   UNL     1     -23.879  -0.522  12.020  1.00  0.00    -0.622 OA
ENDBRANCH  15  17
ENDBRANCH  12  15
ENDBRANCH  11  12
ENDBRANCH   8  11
ENDBRANCH   7   8
ENDBRANCH   6   7
ENDBRANCH   1   6
BRANCH   3  21
HETATM   21  O   UNL     1     -30.833  -4.945  14.661  1.00  0.00    -0.390 OA
ATOM     22  HO  UNL     1     -30.713  -4.107  14.229  1.00  0.00     0.210 HD
ENDBRANCH   3  21
BRANCH   5  23
HETATM   23  N   UNL     1     -32.703  -5.478  18.934  1.00  0.00    -0.297 N 
HETATM   24  C   UNL     1     -33.008  -4.256  19.486  1.00  0.00     0.142 A 
HETATM   25  N   UNL     1     -32.303  -3.110  19.389  1.00  0.00    -0.336 N 
HETATM   26  C   UNL     1     -34.194  -4.440  20.173  1.00  0.00     0.122 A 
HETATM   27  C   UNL     1     -32.902  -2.114  20.058  1.00  0.00     0.183 A 
ATOM     28  HN  UNL     1     -31.427  -3.013  18.874  1.00  0.00     0.168 HD
HETATM   29  N   UNL     1     -34.049  -2.146  20.753  1.00  0.00    -0.337 N 
HETATM   30  C   UNL     1     -34.724  -3.317  20.845  1.00  0.00     0.131 A 
ATOM     31  HN  UNL     1     -34.407  -1.304  21.203  1.00  0.00     0.168 HD
HETATM   32  N   UNL     1     -34.634  -5.753  20.055  1.00  0.00    -0.346 N 
HETATM   33  C   UNL     1     -33.715  -6.321  19.312  1.00  0.00     0.188 A 
ATOM     34  HN  UNL     1     -35.473  -6.175  20.452  1.00  0.00     0.167 HD
BRANCH  30  35
HETATM   35  N   UNL     1     -35.814  -3.364  21.608  1.00  0.00    -0.383 N 
ATOM     36  HN2 UNL     1     -35.811  -3.697  22.572  1.00  0.00     0.157 HD
ATOM     37  HN1 UNL     1     -36.691  -3.008  21.229  1.00  0.00     0.157 HD
ENDBRANCH  30  35
ENDBRANCH   5  23
BRANCH   4  38
HETATM   38  O   UNL     1     -31.092  -7.156  16.198  1.00  0.00    -0.388 OA
ATOM     39  HO  UNL     1     -30.170  -7.021  16.381  1.00  0.00     0.210 HD
ENDBRANCH   4  38
TORSDOF 11
ENDMDL
MODEL 16
REMARK VINA RESULT:    -8.102      1.907      4.013
REMARK INTER + INTRA:         -14.462
REMARK INTER:                 -13.184
REMARK INTRA:                  -1.278
REMARK UNBOUND:                -1.860
REMARK  11 active torsions:
REMARK  status: ('A' for Active; 'I' for Inactive)
REMARK    1  A    between atoms: P_1  and  N_8 
REMARK    2  A    between atoms: P_5  and  N_8 
REMARK    3  A    between atoms: P_5  and  O_13 
REMARK    4  A    between atoms: P_10  and  O_14 
REMARK    5  A    between atoms: P_10  and  O_13 
REMARK    6  A    between atoms: O_14  and  C_15 
REMARK    7  A    between atoms: C_15  and  C_16 
REMARK    8  A    between atoms: C_18  and  O_19 
REMARK    9  A    between atoms: C_21  and  O_22 
REMARK   10  A    between atoms: C_24  and  N_25 
REMARK   11  A    between atoms: C_30  and  N_31 
ROOT
HETATM    1  C   UNL     1     -30.106  -1.644  16.026  1.00  0.00     0.180 C 
HETATM    2  O   UNL     1     -31.380  -2.301  16.176  1.00  0.00    -0.353 OA
HETATM    3  C   UNL     1     -29.927  -0.904  17.342  1.00  0.00     0.182 C 
HETATM    4  C   UNL     1     -31.342  -0.397  17.615  1.00  0.00     0.198 C 
HETATM    5  C   UNL     1     -32.210  -1.507  17.007  1.00  0.00     0.262 C 
ENDROOT
BRANCH   1   6
HETATM    6  C   UNL     1     -29.044  -2.669  15.750  1.00  0.00     0.216 C 
BRANCH   6   7
HETATM    7  O   UNL     1     -29.053  -2.883  14.329  1.00  0.00    -0.287 OA
BRANCH   7   8
HETATM    8  P   UNL     1     -29.668  -4.170  13.697  1.00  0.00     0.417 P 
HETATM    9  O   UNL     1     -30.253  -5.010  14.754  1.00  0.00    -0.624 OA
HETATM   10  O   UNL     1     -30.636  -3.754  12.589  1.00  0.00    -0.624 OA
BRANCH   8  11
HETATM   11  O   UNL     1     -28.455  -4.928  12.997  1.00  0.00    -0.186 OA
BRANCH  11  12
HETATM   12  P   UNL     1     -27.191  -4.307  12.264  1.00  0.00     0.379 P 
HETATM   13  O   UNL     1     -27.350  -4.405  10.823  1.00  0.00    -0.629 OA
HETATM   14  O   UNL     1     -25.987  -5.214  12.732  1.00  0.00    -0.629 OA
BRANCH  12  15
HETATM   15  N   UNL     1     -27.099  -2.724  12.739  1.00  0.00    -0.218 N 
ATOM     16  HN  UNL     1     -27.893  -2.388  13.283  1.00  0.00     0.179 HD
BRANCH  15  17
HETATM   17  P   UNL     1     -25.901  -1.592  12.460  1.00  0.00     0.381 P 
HETATM   18  O   UNL     1     -24.873  -2.142  11.395  1.00  0.00    -0.622 OA
HETATM   19  O   UNL     1     -25.176  -1.343  13.831  1.00  0.00    -0.622 OA
HETATM   20  O   UNL     1     -26.362  -0.296  11.984  1.00  0.00    -0.622 OA
ENDBRANCH  15  17
ENDBRANCH  12  15
ENDBRANCH  11  12
ENDBRANCH   8  11
ENDBRANCH   7   8
ENDBRANCH   6   7
ENDBRANCH   1   6
BRANCH   3  21
HETATM   21  O   UNL     1     -28.969   0.136  17.203  1.00  0.00    -0.390 OA
ATOM     22  HO  UNL     1     -28.123  -0.222  16.959  1.00  0.00     0.210 HD
ENDBRANCH   3  21
BRANCH   5  23
HETATM   23  N   UNL     1     -32.866  -2.360  17.991  1.00  0.00    -0.297 N 
HETATM   24  C   UNL     1     -32.787  -3.732  18.059  1.00  0.00     0.142 A 
HETATM   25  N   UNL     1     -32.088  -4.557  17.252  1.00  0.00    -0.336 N 
HETATM   26  C   UNL     1     -33.582  -4.101  19.129  1.00  0.00     0.122 A 
HETATM   27  C   UNL     1     -32.248  -5.838  17.614  1.00  0.00     0.183 A 
ATOM     28  HN  UNL     1     -31.514  -4.247  16.468  1.00  0.00     0.168 HD
HETATM   29  N   UNL     1     -32.973  -6.336  18.628  1.00  0.00    -0.337 N 
HETATM   30  C   UNL     1     -33.677  -5.482  19.408  1.00  0.00     0.131 A 
ATOM     31  HN  UNL     1     -32.994  -7.340  18.807  1.00  0.00     0.168 HD
HETATM   32  N   UNL     1     -34.150  -2.984  19.730  1.00  0.00    -0.346 N 
HETATM   33  C   UNL     1     -33.692  -1.983  19.017  1.00  0.00     0.188 A 
ATOM     34  HN  UNL     1     -34.775  -2.951  20.535  1.00  0.00     0.167 HD
BRANCH  30  35
HETATM   35  N   UNL     1     -34.464  -5.988  20.355  1.00  0.00    -0.383 N 
ATOM     36  HN2 UNL     1     -34.919  -5.421  21.071  1.00  0.00     0.157 HD
ATOM     37  HN1 UNL     1     -34.664  -6.988  20.341  1.00  0.00     0.157 HD
ENDBRANCH  30  35
ENDBRANCH   5  23
BRANCH   4  38
HETATM   38  O   UNL     1     -31.572   0.810  16.910  1.00  0.00    -0.388 OA
ATOM     39  HO  UNL     1     -30.991   0.848  16.160  1.00  0.00     0.210 HD
ENDBRANCH   4  38
TORSDOF 11
ENDMDL
MODEL 17
REMARK VINA RESULT:    -8.035      3.577      5.367
REMARK INTER + INTRA:         -14.358
REMARK INTER:                 -13.681
REMARK INTRA:                  -0.677
REMARK UNBOUND:                -1.860
REMARK  11 active torsions:
REMARK  status: ('A' for Active; 'I' for Inactive)
REMARK    1  A    between atoms: P_1  and  N_8 
REMARK    2  A    between atoms: P_5  and  N_8 
REMARK    3  A    between atoms: P_5  and  O_13 
REMARK    4  A    between atoms: P_10  and  O_14 
REMARK    5  A    between atoms: P_10  and  O_13 
REMARK    6  A    between atoms: O_14  and  C_15 
REMARK    7  A    between atoms: C_15  and  C_16 
REMARK    8  A    between atoms: C_18  and  O_19 
REMARK    9  A    between atoms: C_21  and  O_22 
REMARK   10  A    between atoms: C_24  and  N_25 
REMARK   11  A    between atoms: C_30  and  N_31 
ROOT
HETATM    1  C   UNL     1     -28.685  -2.872  14.726  1.00  0.00     0.180 C 
HETATM    2  O   UNL     1     -28.811  -2.728  16.155  1.00  0.00    -0.353 OA
HETATM    3  C   UNL     1     -30.113  -3.113  14.263  1.00  0.00     0.182 C 
HETATM    4  C   UNL     1     -30.654  -4.024  15.364  1.00  0.00     0.198 C 
HETATM    5  C   UNL     1     -29.896  -3.526  16.602  1.00  0.00     0.262 C 
ENDROOT
BRANCH   1   6
HETATM    6  C   UNL     1     -28.056  -1.635  14.153  1.00  0.00     0.216 C 
BRANCH   6   7
HETATM    7  O   UNL     1     -26.905  -2.077  13.413  1.00  0.00    -0.287 OA
BRANCH   7   8
HETATM    8  P   UNL     1     -25.857  -1.069  12.849  1.00  0.00     0.417 P 
HETATM    9  O   UNL     1     -25.173  -1.662  11.689  1.00  0.00    -0.624 OA
HETATM   10  O   UNL     1     -26.559   0.263  12.578  1.00  0.00    -0.624 OA
BRANCH   8  11
HETATM   11  O   UNL     1     -24.821  -0.818  14.033  1.00  0.00    -0.186 OA
BRANCH  11  12
HETATM   12  P   UNL     1     -23.673   0.274  14.129  1.00  0.00     0.379 P 
HETATM   13  O   UNL     1     -24.081   1.490  13.447  1.00  0.00    -0.629 OA
HETATM   14  O   UNL     1     -22.453  -0.380  13.371  1.00  0.00    -0.629 OA
BRANCH  12  15
HETATM   15  N   UNL     1     -23.423   0.558  15.740  1.00  0.00    -0.218 N 
ATOM     16  HN  UNL     1     -23.572  -0.246  16.350  1.00  0.00     0.179 HD
BRANCH  15  17
HETATM   17  P   UNL     1     -22.965   1.963  16.520  1.00  0.00     0.381 P 
HETATM   18  O   UNL     1     -24.157   3.000  16.513  1.00  0.00    -0.622 OA
HETATM   19  O   UNL     1     -21.738   2.547  15.733  1.00  0.00    -0.622 OA
HETATM   20  O   UNL     1     -22.543   1.803  17.904  1.00  0.00    -0.622 OA
ENDBRANCH  15  17
ENDBRANCH  12  15
ENDBRANCH  11  12
ENDBRANCH   8  11
ENDBRANCH   7   8
ENDBRANCH   6   7
ENDBRANCH   1   6
BRANCH   3  21
HETATM   21  O   UNL     1     -30.124  -3.713  12.975  1.00  0.00    -0.390 OA
ATOM     22  HO  UNL     1     -29.872  -3.081  12.312  1.00  0.00     0.210 HD
ENDBRANCH   3  21
BRANCH   5  23
HETATM   23  N   UNL     1     -30.710  -2.755  17.533  1.00  0.00    -0.297 N 
HETATM   24  C   UNL     1     -31.738  -3.239  18.308  1.00  0.00     0.142 A 
HETATM   25  N   UNL     1     -32.188  -4.509  18.379  1.00  0.00    -0.336 N 
HETATM   26  C   UNL     1     -32.227  -2.149  19.006  1.00  0.00     0.122 A 
HETATM   27  C   UNL     1     -33.209  -4.613  19.243  1.00  0.00     0.183 A 
ATOM     28  HN  UNL     1     -31.803  -5.288  17.845  1.00  0.00     0.168 HD
HETATM   29  N   UNL     1     -33.774  -3.652  19.989  1.00  0.00    -0.337 N 
HETATM   30  C   UNL     1     -33.309  -2.384  19.882  1.00  0.00     0.131 A 
ATOM     31  HN  UNL     1     -34.539  -3.873  20.626  1.00  0.00     0.168 HD
HETATM   32  N   UNL     1     -31.520  -0.998  18.682  1.00  0.00    -0.346 N 
HETATM   33  C   UNL     1     -30.636  -1.414  17.808  1.00  0.00     0.188 A 
ATOM     34  HN  UNL     1     -31.657  -0.052  19.039  1.00  0.00     0.167 HD
BRANCH  30  35
HETATM   35  N   UNL     1     -33.931  -1.420  20.557  1.00  0.00    -0.383 N 
ATOM     36  HN2 UNL     1     -34.764  -0.942  20.216  1.00  0.00     0.157 HD
ATOM     37  HN1 UNL     1     -33.587  -1.175  21.486  1.00  0.00     0.157 HD
ENDBRANCH  30  35
ENDBRANCH   5  23
BRANCH   4  38
HETATM   38  O   UNL     1     -30.290  -5.369  15.107  1.00  0.00    -0.388 OA
ATOM     39  HO  UNL     1     -29.410  -5.391  14.751  1.00  0.00     0.210 HD
ENDBRANCH   4  38
TORSDOF 11
ENDMDL
MODEL 18
REMARK VINA RESULT:    -8.022      3.254      4.773
REMARK INTER + INTRA:         -14.337
REMARK INTER:                 -13.155
REMARK INTRA:                  -1.182
REMARK UNBOUND:                -1.860
REMARK  11 active torsions:
REMARK  status: ('A' for Active; 'I' for Inactive)
REMARK    1  A    between atoms: P_1  and  N_8 
REMARK    2  A    between atoms: P_5  and  N_8 
REMARK    3  A    between atoms: P_5  and  O_13 
REMARK    4  A    between atoms: P_10  and  O_14 
REMARK    5  A    between atoms: P_10  and  O_13 
REMARK    6  A    between atoms: O_14  and  C_15 
REMARK    7  A    between atoms: C_15  and  C_16 
REMARK    8  A    between atoms: C_18  and  O_19 
REMARK    9  A    between atoms: C_21  and  O_22 
REMARK   10  A    between atoms: C_24  and  N_25 
REMARK   11  A    between atoms: C_30  and  N_31 
ROOT
HETATM    1  C   UNL     1     -28.756  -2.889  14.733  1.00  0.00     0.180 C 
HETATM    2  O   UNL     1     -28.863  -2.758  16.165  1.00  0.00    -0.353 OA
HETATM    3  C   UNL     1     -30.186  -3.153  14.290  1.00  0.00     0.182 C 
HETATM    4  C   UNL     1     -30.693  -4.081  15.392  1.00  0.00     0.198 C 
HETATM    5  C   UNL     1     -29.925  -3.579  16.622  1.00  0.00     0.262 C 
ENDROOT
BRANCH   1   6
HETATM    6  C   UNL     1     -28.159  -1.636  14.160  1.00  0.00     0.216 C 
BRANCH   6   7
HETATM    7  O   UNL     1     -26.753  -1.896  14.007  1.00  0.00    -0.287 OA
BRANCH   7   8
HETATM    8  P   UNL     1     -25.832  -0.954  13.172  1.00  0.00     0.417 P 
HETATM    9  O   UNL     1     -25.488  -1.602  11.895  1.00  0.00    -0.624 OA
HETATM   10  O   UNL     1     -26.514   0.409  13.045  1.00  0.00    -0.624 OA
BRANCH   8  11
HETATM   11  O   UNL     1     -24.523  -0.741  14.053  1.00  0.00    -0.186 OA
BRANCH  11  12
HETATM   12  P   UNL     1     -23.732   0.606  14.341  1.00  0.00     0.379 P 
HETATM   13  O   UNL     1     -22.371   0.309  14.753  1.00  0.00    -0.629 OA
HETATM   14  O   UNL     1     -24.521   1.270  15.536  1.00  0.00    -0.629 OA
BRANCH  12  15
HETATM   15  N   UNL     1     -23.743   1.472  12.930  1.00  0.00    -0.218 N 
ATOM     16  HN  UNL     1     -24.335   2.302  12.936  1.00  0.00     0.179 HD
BRANCH  15  17
HETATM   17  P   UNL     1     -22.932   1.191  11.496  1.00  0.00     0.381 P 
HETATM   18  O   UNL     1     -21.631   2.085  11.426  1.00  0.00    -0.622 OA
HETATM   19  O   UNL     1     -23.913   1.575  10.330  1.00  0.00    -0.622 OA
HETATM   20  O   UNL     1     -22.521  -0.186  11.268  1.00  0.00    -0.622 OA
ENDBRANCH  15  17
ENDBRANCH  12  15
ENDBRANCH  11  12
ENDBRANCH   8  11
ENDBRANCH   7   8
ENDBRANCH   6   7
ENDBRANCH   1   6
BRANCH   3  21
HETATM   21  O   UNL     1     -30.206  -3.744  12.997  1.00  0.00    -0.390 OA
ATOM     22  HO  UNL     1     -31.003  -4.247  12.874  1.00  0.00     0.210 HD
ENDBRANCH   3  21
BRANCH   5  23
HETATM   23  N   UNL     1     -30.740  -2.829  17.571  1.00  0.00    -0.297 N 
HETATM   24  C   UNL     1     -31.779  -3.327  18.321  1.00  0.00     0.142 A 
HETATM   25  N   UNL     1     -32.244  -4.593  18.346  1.00  0.00    -0.336 N 
HETATM   26  C   UNL     1     -32.262  -2.255  19.051  1.00  0.00     0.122 A 
HETATM   27  C   UNL     1     -33.273  -4.715  19.197  1.00  0.00     0.183 A 
ATOM     28  HN  UNL     1     -31.863  -5.359  17.789  1.00  0.00     0.168 HD
HETATM   29  N   UNL     1     -33.834  -3.773  19.970  1.00  0.00    -0.337 N 
HETATM   30  C   UNL     1     -33.355  -2.507  19.909  1.00  0.00     0.131 A 
ATOM     31  HN  UNL     1     -34.608  -4.006  20.593  1.00  0.00     0.168 HD
HETATM   32  N   UNL     1     -31.540  -1.102  18.771  1.00  0.00    -0.346 N 
HETATM   33  C   UNL     1     -30.652  -1.500  17.891  1.00  0.00     0.188 A 
ATOM     34  HN  UNL     1     -31.669  -0.168  19.158  1.00  0.00     0.167 HD
BRANCH  30  35
HETATM   35  N   UNL     1     -33.972  -1.559  20.610  1.00  0.00    -0.383 N 
ATOM     36  HN2 UNL     1     -33.947  -1.506  21.628  1.00  0.00     0.157 HD
ATOM     37  HN1 UNL     1     -34.458  -0.818  20.106  1.00  0.00     0.157 HD
ENDBRANCH  30  35
ENDBRANCH   5  23
BRANCH   4  38
HETATM   38  O   UNL     1     -30.308  -5.418  15.120  1.00  0.00    -0.388 OA
ATOM     39  HO  UNL     1     -29.364  -5.489  15.185  1.00  0.00     0.210 HD
ENDBRANCH   4  38
TORSDOF 11
ENDMDL
MODEL 19
REMARK VINA RESULT:    -7.993      2.198      4.290
REMARK INTER + INTRA:         -14.292
REMARK INTER:                 -12.761
REMARK INTRA:                  -1.531
REMARK UNBOUND:                -1.860
REMARK  11 active torsions:
REMARK  status: ('A' for Active; 'I' for Inactive)
REMARK    1  A    between atoms: P_1  and  N_8 
REMARK    2  A    between atoms: P_5  and  N_8 
REMARK    3  A    between atoms: P_5  and  O_13 
REMARK    4  A    between atoms: P_10  and  O_14 
REMARK    5  A    between atoms: P_10  and  O_13 
REMARK    6  A    between atoms: O_14  and  C_15 
REMARK    7  A    between atoms: C_15  and  C_16 
REMARK    8  A    between atoms: C_18  and  O_19 
REMARK    9  A    between atoms: C_21  and  O_22 
REMARK   10  A    between atoms: C_24  and  N_25 
REMARK   11  A    between atoms: C_30  and  N_31 
ROOT
HETATM    1  C   UNL     1     -29.338  -0.474  14.944  1.00  0.00     0.180 C 
HETATM    2  O   UNL     1     -30.234  -1.592  14.783  1.00  0.00    -0.353 OA
HETATM    3  C   UNL     1     -29.217  -0.325  16.452  1.00  0.00     0.182 C 
HETATM    4  C   UNL     1     -30.648  -0.596  16.913  1.00  0.00     0.198 C 
HETATM    5  C   UNL     1     -31.139  -1.614  15.875  1.00  0.00     0.262 C 
ENDROOT
BRANCH   1   6
HETATM    6  C   UNL     1     -28.040  -0.771  14.251  1.00  0.00     0.216 C 
BRANCH   6   7
HETATM    7  O   UNL     1     -27.702  -2.125  14.597  1.00  0.00    -0.287 OA
BRANCH   7   8
HETATM    8  P   UNL     1     -26.912  -3.048  13.619  1.00  0.00     0.417 P 
HETATM    9  O   UNL     1     -26.066  -2.228  12.737  1.00  0.00    -0.624 OA
HETATM   10  O   UNL     1     -26.165  -4.101  14.439  1.00  0.00    -0.624 OA
BRANCH   8  11
HETATM   11  O   UNL     1     -28.016  -3.817  12.767  1.00  0.00    -0.186 OA
BRANCH  11  12
HETATM   12  P   UNL     1     -27.812  -4.780  11.521  1.00  0.00     0.379 P 
HETATM   13  O   UNL     1     -28.976  -4.730  10.654  1.00  0.00    -0.629 OA
HETATM   14  O   UNL     1     -27.683  -6.217  12.161  1.00  0.00    -0.629 OA
BRANCH  12  15
HETATM   15  N   UNL     1     -26.462  -4.245  10.726  1.00  0.00    -0.218 N 
ATOM     16  HN  UNL     1     -26.507  -3.281  10.397  1.00  0.00     0.179 HD
BRANCH  15  17
HETATM   17  P   UNL     1     -25.037  -5.046  10.381  1.00  0.00     0.381 P 
HETATM   18  O   UNL     1     -24.046  -4.082   9.617  1.00  0.00    -0.622 OA
HETATM   19  O   UNL     1     -25.406  -6.272   9.471  1.00  0.00    -0.622 OA
HETATM   20  O   UNL     1     -24.320  -5.574  11.533  1.00  0.00    -0.622 OA
ENDBRANCH  15  17
ENDBRANCH  12  15
ENDBRANCH  11  12
ENDBRANCH   8  11
ENDBRANCH   7   8
ENDBRANCH   6   7
ENDBRANCH   1   6
BRANCH   3  21
HETATM   21  O   UNL     1     -28.748   0.973  16.789  1.00  0.00    -0.390 OA
ATOM     22  HO  UNL     1     -29.127   1.624  16.209  1.00  0.00     0.210 HD
ENDBRANCH   3  21
BRANCH   5  23
HETATM   23  N   UNL     1     -31.252  -2.977  16.381  1.00  0.00    -0.297 N 
HETATM   24  C   UNL     1     -32.175  -3.432  17.292  1.00  0.00     0.142 A 
HETATM   25  N   UNL     1     -33.161  -2.729  17.887  1.00  0.00    -0.336 N 
HETATM   26  C   UNL     1     -31.885  -4.771  17.484  1.00  0.00     0.122 A 
HETATM   27  C   UNL     1     -33.871  -3.501  18.723  1.00  0.00     0.183 A 
ATOM     28  HN  UNL     1     -33.343  -1.739  17.722  1.00  0.00     0.168 HD
HETATM   29  N   UNL     1     -33.710  -4.805  18.996  1.00  0.00    -0.337 N 
HETATM   30  C   UNL     1     -32.699  -5.478  18.395  1.00  0.00     0.131 A 
ATOM     31  HN  UNL     1     -34.337  -5.280  19.645  1.00  0.00     0.168 HD
HETATM   32  N   UNL     1     -30.801  -5.157  16.706  1.00  0.00    -0.346 N 
HETATM   33  C   UNL     1     -30.467  -4.057  16.074  1.00  0.00     0.188 A 
ATOM     34  HN  UNL     1     -30.366  -6.077  16.641  1.00  0.00     0.167 HD
BRANCH  30  35
HETATM   35  N   UNL     1     -32.489  -6.747  18.737  1.00  0.00    -0.383 N 
ATOM     36  HN2 UNL     1     -31.679  -7.059  19.272  1.00  0.00     0.157 HD
ATOM     37  HN1 UNL     1     -33.196  -7.441  18.494  1.00  0.00     0.157 HD
ENDBRANCH  30  35
ENDBRANCH   5  23
BRANCH   4  38
HETATM   38  O   UNL     1     -31.425   0.584  16.810  1.00  0.00    -0.388 OA
ATOM     39  HO  UNL     1     -32.198   0.496  17.354  1.00  0.00     0.210 HD
ENDBRANCH   4  38
TORSDOF 11
ENDMDL
MODEL 20
REMARK VINA RESULT:    -7.856      2.715      4.382
REMARK INTER + INTRA:         -14.079
REMARK INTER:                 -12.572
REMARK INTRA:                  -1.507
REMARK UNBOUND:                -1.860
REMARK  11 active torsions:
REMARK  status: ('A' for Active; 'I' for Inactive)
REMARK    1  A    between atoms: P_1  and  N_8 
REMARK    2  A    between atoms: P_5  and  N_8 
REMARK    3  A    between atoms: P_5  and  O_13 
REMARK    4  A    between atoms: P_10  and  O_14 
REMARK    5  A    between atoms: P_10  and  O_13 
REMARK    6  A    between atoms: O_14  and  C_15 
REMARK    7  A    between atoms: C_15  and  C_16 
REMARK    8  A    between atoms: C_18  and  O_19 
REMARK    9  A    between atoms: C_21  and  O_22 
REMARK   10  A    between atoms: C_24  and  N_25 
REMARK   11  A    between atoms: C_30  and  N_31 
ROOT
HETATM    1  C   UNL     1     -29.519  -1.280  16.436  1.00  0.00     0.180 C 
HETATM    2  O   UNL     1     -29.758  -1.725  17.786  1.00  0.00    -0.353 OA
HETATM    3  C   UNL     1     -30.758  -1.738  15.683  1.00  0.00     0.182 C 
HETATM    4  C   UNL     1     -31.017  -3.110  16.304  1.00  0.00     0.198 C 
HETATM    5  C   UNL     1     -30.533  -2.912  17.746  1.00  0.00     0.262 C 
ENDROOT
BRANCH   1   6
HETATM    6  C   UNL     1     -29.313   0.207  16.429  1.00  0.00     0.216 C 
BRANCH   6   7
HETATM    7  O   UNL     1     -29.135   0.580  15.052  1.00  0.00    -0.287 OA
BRANCH   7   8
HETATM    8  P   UNL     1     -27.728   0.925  14.472  1.00  0.00     0.417 P 
HETATM    9  O   UNL     1     -27.850   2.015  13.490  1.00  0.00    -0.624 OA
HETATM   10  O   UNL     1     -26.776   1.204  15.637  1.00  0.00    -0.624 OA
BRANCH   8  11
HETATM   11  O   UNL     1     -27.218  -0.405  13.761  1.00  0.00    -0.186 OA
BRANCH  11  12
HETATM   12  P   UNL     1     -25.770  -0.736  13.201  1.00  0.00     0.379 P 
HETATM   13  O   UNL     1     -25.500   0.053  12.013  1.00  0.00    -0.629 OA
HETATM   14  O   UNL     1     -25.842  -2.267  12.822  1.00  0.00    -0.629 OA
BRANCH  12  15
HETATM   15  N   UNL     1     -24.700  -0.365  14.409  1.00  0.00    -0.218 N 
ATOM     16  HN  UNL     1     -24.976  -0.673  15.342  1.00  0.00     0.179 HD
BRANCH  15  17
HETATM   17  P   UNL     1     -23.237   0.438  14.332  1.00  0.00     0.381 P 
HETATM   18  O   UNL     1     -23.467   1.945  13.920  1.00  0.00    -0.622 OA
HETATM   19  O   UNL     1     -22.368  -0.292  13.246  1.00  0.00    -0.622 OA
HETATM   20  O   UNL     1     -22.459   0.443  15.563  1.00  0.00    -0.622 OA
ENDBRANCH  15  17
ENDBRANCH  12  15
ENDBRANCH  11  12
ENDBRANCH   8  11
ENDBRANCH   7   8
ENDBRANCH   6   7
ENDBRANCH   1   6
BRANCH   3  21
HETATM   21  O   UNL     1     -30.502  -1.787  14.286  1.00  0.00    -0.390 OA
ATOM     22  HO  UNL     1     -31.227  -1.410  13.802  1.00  0.00     0.210 HD
ENDBRANCH   3  21
BRANCH   5  23
HETATM   23  N   UNL     1     -31.606  -2.821  18.730  1.00  0.00    -0.297 N 
HETATM   24  C   UNL     1     -32.465  -3.832  19.092  1.00  0.00     0.142 A 
HETATM   25  N   UNL     1     -32.486  -5.100  18.631  1.00  0.00    -0.336 N 
HETATM   26  C   UNL     1     -33.319  -3.280  20.031  1.00  0.00     0.122 A 
HETATM   27  C   UNL     1     -33.467  -5.809  19.208  1.00  0.00     0.183 A 
ATOM     28  HN  UNL     1     -31.840  -5.470  17.933  1.00  0.00     0.168 HD
HETATM   29  N   UNL     1     -34.354  -5.411  20.132  1.00  0.00    -0.337 N 
HETATM   30  C   UNL     1     -34.317  -4.127  20.562  1.00  0.00     0.131 A 
ATOM     31  HN  UNL     1     -35.043  -6.063  20.505  1.00  0.00     0.168 HD
HETATM   32  N   UNL     1     -33.003  -1.948  20.262  1.00  0.00    -0.346 N 
HETATM   33  C   UNL     1     -31.983  -1.729  19.467  1.00  0.00     0.188 A 
ATOM     34  HN  UNL     1     -33.457  -1.293  20.898  1.00  0.00     0.167 HD
BRANCH  30  35
HETATM   35  N   UNL     1     -35.254  -3.713  21.412  1.00  0.00    -0.383 N 
ATOM     36  HN2 UNL     1     -35.869  -2.921  21.229  1.00  0.00     0.157 HD
ATOM     37  HN1 UNL     1     -35.400  -4.242  22.272  1.00  0.00     0.157 HD
ENDBRANCH  30  35
ENDBRANCH   5  23
BRANCH   4  38
HETATM   38  O   UNL     1     -30.210  -4.090  15.674  1.00  0.00    -0.388 OA
ATOM     39  HO  UNL     1     -29.480  -3.663  15.244  1.00  0.00     0.210 HD
ENDBRANCH   4  38
TORSDOF 11
ENDMDL
