REMARK  10 active torsions:
REMARK  status: ('A' for Active; 'I' for Inactive)
REMARK    1  A    between atoms: N_1  and  C_12 
REMARK    2  A    between atoms: C_13  and  O_14 
REMARK    3  A    between atoms: C_16  and  O_19 
REMARK    4  A    between atoms: C_17  and  C_21 
REMARK    5  A    between atoms: C_21  and  O_22 
REMARK    6  A    between atoms: O_22  and  P_23 
REMARK    7  A    between atoms: P_23  and  O_26 
REMARK    8  A    between atoms: O_26  and  P_27 
REMARK    9  A    between atoms: P_27  and  O_30 
REMARK   10  A    between atoms: O_30  and  P_31 
ROOT
HETATM    1  C   UNL     1      13.430  53.527 157.197  1.00  0.00     0.263 C 
HETATM    2  C   UNL     1      14.942  53.262 157.021  1.00  0.00     0.198 C 
HETATM    3  C   UNL     1      14.969  52.404 155.755  1.00  0.00     0.182 C 
HETATM    4  C   UNL     1      13.641  51.635 155.750  1.00  0.00     0.180 C 
HETATM    5  O   UNL     1      12.870  52.241 156.792  1.00  0.00    -0.353 OA
ENDROOT
BRANCH   4   6
HETATM    6  C   UNL     1      13.835  50.196 156.210  1.00  0.00     0.216 C 
BRANCH   6   7
HETATM    7  O   UNL     1      14.429  49.504 155.139  1.00  0.00    -0.287 OA
BRANCH   7   8
HETATM    8  P   UNL     1      15.577  48.419 155.340  1.00  0.00     0.417 P 
HETATM    9  O   UNL     1      15.586  47.541 154.182  1.00  0.00    -0.624 OA
HETATM   10  O   UNL     1      15.403  47.807 156.701  1.00  0.00    -0.624 OA
BRANCH   8  11
HETATM   11  O   UNL     1      16.930  49.362 155.372  1.00  0.00    -0.180 OA
BRANCH  11  12
HETATM   12  P   UNL     1      18.467  48.978 155.252  1.00  0.00     0.428 P 
HETATM   13  O   UNL     1      18.862  48.781 153.811  1.00  0.00    -0.624 OA
HETATM   14  O   UNL     1      19.183  50.017 156.075  1.00  0.00    -0.624 OA
BRANCH  12  15
HETATM   15  O   UNL     1      18.436  47.613 156.054  1.00  0.00    -0.173 OA
BRANCH  15  16
HETATM   16  P   UNL     1      19.600  46.475 156.284  1.00  0.00     0.431 P 
HETATM   17  O   UNL     1      19.370  45.419 155.229  1.00  0.00    -0.616 OA
HETATM   18  O   UNL     1      19.362  46.008 157.702  1.00  0.00    -0.616 OA
HETATM   19  O   UNL     1      20.917  47.179 156.139  1.00  0.00    -0.616 OA
ENDBRANCH  15  16
ENDBRANCH  12  15
ENDBRANCH  11  12
ENDBRANCH   8  11
ENDBRANCH   7   8
ENDBRANCH   6   7
ENDBRANCH   4   6
BRANCH   3  20
HETATM   20  O   UNL     1      14.989  53.249 154.592  1.00  0.00    -0.390 OA
ATOM     21  HO  UNL     1      15.006  52.716 153.806  1.00  0.00     0.210 HD
ENDBRANCH   3  20
BRANCH   2  22
HETATM   22  O   UNL     1      15.713  54.461 157.041  1.00  0.00    -0.388 OA
ATOM     23  HO  UNL     1      16.643  54.298 156.933  1.00  0.00     0.210 HD
ENDBRANCH   2  22
BRANCH   1  24
HETATM   24  N   UNL     1      12.990  53.829 158.554  1.00  0.00    -0.280 N 
HETATM   25  C   UNL     1      12.227  54.960 158.719  1.00  0.00     0.330 A 
HETATM   26  N   UNL     1      11.825  55.280 159.972  1.00  0.00    -0.295 N 
HETATM   27  O   UNL     1      11.936  55.722 157.754  1.00  0.00    -0.246 OA
HETATM   28  C   UNL     1      12.183  54.453 161.013  1.00  0.00     0.103 A 
ATOM     29  HN  UNL     1      11.268  56.117 160.141  1.00  0.00     0.172 HD
HETATM   30  C   UNL     1      12.858  53.253 160.826  1.00  0.00     0.065 A 
HETATM   31  N   UNL     1      11.792  54.892 162.232  1.00  0.00    -0.385 N 
HETATM   32  C   UNL     1      13.292  52.980 159.563  1.00  0.00     0.102 A 
ATOM     33  HN2 UNL     1      11.296  55.773 162.369  1.00  0.00     0.157 HD
ATOM     34  HN1 UNL     1      12.057  54.279 163.003  1.00  0.00     0.157 HD
ENDBRANCH   1  24
TORSDOF 10
