REMARK  4 active torsions:
REMARK  status: ('A' for Active; 'I' for Inactive)
REMARK    1  A    between atoms: C_3  and  N_8 
REMARK    2  A    between atoms: N_15  and  C_26 
REMARK    3  A    between atoms: C_17  and  C_18 
REMARK    4  A    between atoms: C_30  and  C_33 
ROOT
HETATM    1  C   UNL     1      -3.602 -16.611  18.019  1.00  0.00    -0.049 A 
HETATM    2  C   UNL     1      -4.665 -16.390  18.868  1.00  0.00     0.009 A 
HETATM    3  C   UNL     1      -5.452 -15.255  18.699  1.00  0.00     0.023 A 
HETATM    4  C   UNL     1      -5.174 -14.338  17.702  1.00  0.00     0.044 A 
HETATM    5  C   UNL     1      -4.084 -14.551  16.851  1.00  0.00     0.023 A 
HETATM    6  C   UNL     1      -3.313 -15.686  17.039  1.00  0.00     0.009 A 
HETATM    7  C   UNL     1      -6.067 -13.102  17.576  1.00  0.00     0.099 C 
HETATM    8  N   UNL     1      -6.716 -12.213  17.475  1.00  0.00    -0.191 NA
ENDROOT
BRANCH   1   9
HETATM    9  C   UNL     1      -2.759 -17.940  18.235  1.00  0.00     0.076 C 
HETATM   10  C   UNL     1      -1.229 -17.693  17.811  1.00  0.00     0.137 C 
HETATM   11  N   UNL     1      -0.894 -19.203  17.500  1.00  0.00    -0.364 N 
HETATM   12  C   UNL     1      -1.924 -20.078  17.512  1.00  0.00     0.166 C 
HETATM   13  C   UNL     1      -3.194 -19.021  17.484  1.00  0.00     0.143 A 
HETATM   14  N   UNL     1      -4.388 -19.602  18.111  1.00  0.00    -0.317 N 
HETATM   15  C   UNL     1      -3.615 -18.571  16.087  1.00  0.00     0.263 A 
HETATM   16  C   UNL     1      -4.495 -20.176  19.431  1.00  0.00     0.156 C 
HETATM   17  C   UNL     1      -5.553 -19.400  17.247  1.00  0.00     0.333 A 
HETATM   18  N   UNL     1      -5.030 -18.776  16.016  1.00  0.00    -0.232 N 
HETATM   19  O   UNL     1      -6.691 -19.668  17.434  1.00  0.00    -0.246 OA
HETATM   20  O   UNL     1      -3.032 -18.086  15.200  1.00  0.00    -0.270 OA
BRANCH  11  21
HETATM   21  C   UNL     1       0.431 -19.747  17.702  1.00  0.00     0.103 A 
HETATM   22  N   UNL     1       0.532 -21.064  17.577  1.00  0.00    -0.351 N 
HETATM   23  C   UNL     1       1.753 -21.624  17.735  1.00  0.00     0.108 A 
ATOM     24  HN  UNL     1      -0.286 -21.637  17.368  1.00  0.00     0.166 HD
HETATM   25  C   UNL     1       2.829 -20.832  18.023  1.00  0.00     0.056 A 
HETATM   26  C   UNL     1       2.729 -19.477  18.120  1.00  0.00     0.023 A 
HETATM   27  C   UNL     1       1.517 -18.908  17.961  1.00  0.00     0.049 A 
BRANCH  25  28
HETATM   28  C   UNL     1       4.197 -21.491  18.174  1.00  0.00     0.210 C 
HETATM   29  O   UNL     1       4.300 -22.737  18.070  1.00  0.00    -0.644 OA
HETATM   30  O   UNL     1       5.184 -20.751  18.358  1.00  0.00    -0.644 OA
ENDBRANCH  25  28
ENDBRANCH  11  21
BRANCH  18  31
HETATM   31  C   UNL     1      -5.930 -18.353  14.951  1.00  0.00     0.050 A 
HETATM   32  C   UNL     1      -6.983 -19.146  14.486  1.00  0.00     0.054 A 
HETATM   33  C   UNL     1      -7.800 -18.631  13.508  1.00  0.00     0.037 A 
HETATM   34 CL   UNL     1      -9.078 -19.648  12.911  1.00  0.00    -0.084 Cl
HETATM   35  C   UNL     1      -7.663 -17.362  13.040  1.00  0.00     0.048 A 
HETATM   36  C   UNL     1      -6.615 -16.594  13.513  1.00  0.00     0.037 A 
HETATM   37 CL   UNL     1      -6.436 -14.965  12.865  1.00  0.00    -0.084 Cl
HETATM   38  C   UNL     1      -5.755 -17.066  14.486  1.00  0.00     0.054 A 
ENDBRANCH  18  31
ENDBRANCH   1   9
TORSDOF 4
