REMARK  8 active torsions:
REMARK  status: ('A' for Active; 'I' for Inactive)
REMARK    1  A    between atoms: C_1  and  O_2 
REMARK    2  A    between atoms: C_3  and  O_4 
REMARK    3  A    between atoms: C_5  and  N_10 
REMARK    4  A    between atoms: C_7  and  C_8 
REMARK    5  A    between atoms: C_8  and  O_9 
REMARK    6  A    between atoms: O_9  and  P_15 
REMARK       I    between atoms: N_10  and  C_11 
REMARK    7  A    between atoms: C_11  and  C_13 
REMARK    8  A    between atoms: C_13  and  N_14 
ROOT
HETATM    1  C   UNL     1      -1.525   0.592   1.377  1.00  0.00     0.182 C 
HETATM    2  C   UNL     1      -0.851   1.279   0.210  1.00  0.00     0.198 C 
HETATM    3  C   UNL     1       0.567   0.728   0.279  1.00  0.00     0.255 C 
HETATM    4  O   UNL     1       0.513  -0.572   0.826  1.00  0.00    -0.354 OA
HETATM    5  C   UNL     1      -0.699  -0.694   1.544  1.00  0.00     0.180 C 
ENDROOT
BRANCH   3   6
HETATM    6  N   UNL     1       1.192   0.683  -1.045  1.00  0.00    -0.331 N 
HETATM    7  C   UNL     1       2.547   0.248  -1.224  1.00  0.00     0.247 C 
HETATM    8  O   UNL     1       3.237  -0.114  -0.233  1.00  0.00    -0.272 OA
HETATM    9  H   UNL     1       0.658   0.994  -1.889  1.00  0.00     0.165 HD
BRANCH   7  10
HETATM   10  C   UNL     1       3.138   0.183  -2.598  1.00  0.00     0.368 C 
BRANCH  10  11
HETATM   11  N   UNL     1       2.619  -0.983  -3.306  1.00  0.00     0.087 N 
HETATM   12  H   UNL     1       3.016  -1.840  -2.857  1.00  0.00     0.313 HD
HETATM   13  H   UNL     1       2.996  -0.956  -4.281  1.00  0.00     0.313 HD
ENDBRANCH  10  11
ENDBRANCH   7  10
ENDBRANCH   3   6
BRANCH   2  14
HETATM   14  O   UNL     1      -0.855   2.678   0.331  1.00  0.00    -0.389 OA
HETATM   15  H   UNL     1      -1.783   2.972   0.136  1.00  0.00     0.210 HD
ENDBRANCH   2  14
BRANCH   1  16
HETATM   16  O   UNL     1      -1.492   1.377   2.547  1.00  0.00    -0.390 OA
HETATM   17  H   UNL     1      -0.542   1.561   2.773  1.00  0.00     0.210 HD
ENDBRANCH   1  16
BRANCH   5  18
HETATM   18  C   UNL     1      -1.453  -1.935   1.049  1.00  0.00     0.217 C 
BRANCH  18  19
HETATM   19  O   UNL     1      -1.714  -1.817  -0.331  1.00  0.00    -0.280 OA
BRANCH  19  20
HETATM   20  P   UNL     1      -2.587  -3.191  -0.835  1.00  0.00     0.422 P 
HETATM   21  O   UNL     1      -3.945  -3.215  -0.170  1.00  0.00    -0.617 OA
HETATM   22  O   UNL     1      -1.740  -4.603  -0.446  1.00  0.00    -0.617 OA
HETATM   23  O   UNL     1      -2.797  -3.121  -2.512  1.00  0.00    -0.617 OA
ENDBRANCH  19  20
ENDBRANCH  18  19
ENDBRANCH   5  18
TORSDOF 8
