MODEL 1
REMARK VINA RESULT:    -7.640      0.000      0.000
REMARK INTER + INTRA:         -11.074
REMARK INTER:                 -10.097
REMARK INTRA:                  -0.977
REMARK UNBOUND:                -0.977
REMARK  6 active torsions:
REMARK  status: ('A' for Active; 'I' for Inactive)
REMARK    1  A    between atoms: P_2  and  O_5 
REMARK    2  A    between atoms: O_5  and  C_6 
REMARK    3  A    between atoms: C_6  and  C_7 
REMARK    4  A    between atoms: C_13  and  O_14 
REMARK    5  A    between atoms: C_16  and  C_17 
REMARK    6  A    between atoms: C_23  and  C_24 
ROOT
HETATM    1  C   UNK     1      33.277 -32.391 -36.369  1.00  0.00    -0.007 A 
HETATM    2  C   UNK     1      32.663 -31.666 -35.386  1.00  0.00     0.098 A 
HETATM    3  N   UNK     1      33.326 -31.301 -34.231  1.00  0.00    -0.367 N 
ATOM      4  HN  UNK     1      32.827 -30.730 -33.548  1.00  0.00     0.165 HD
HETATM    5  C   UNK     1      34.606 -31.661 -33.954  1.00  0.00     0.039 A 
HETATM    6  C   UNK     1      35.173 -31.280 -32.653  1.00  0.00     0.071 C 
HETATM    7  C   UNK     1      35.237 -32.453 -34.912  1.00  0.00     0.097 A 
HETATM    8  C   UNK     1      34.619 -32.806 -36.157  1.00  0.00     0.027 A 
ENDROOT
BRANCH   8   9
HETATM    9  C   UNK     1      35.270 -33.457 -37.240  1.00  0.00     0.284 C 
HETATM   10  S   UNK     1      35.703 -35.217 -37.334  1.00  0.00    -0.129 SA
HETATM   11  C   UNK     1      37.001 -35.109 -38.609  1.00  0.00     0.120 C 
HETATM   12  C   UNK     1      37.483 -33.520 -38.488  1.00  0.00     0.296 C 
HETATM   13  N   UNK     1      36.626 -32.806 -37.491  1.00  0.00    -0.043 N 
ATOM     14  HN2 UNK     1      36.507 -31.830 -37.761  1.00  0.00     0.280 HD
ATOM     15  HN1 UNK     1      37.130 -32.685 -36.612  1.00  0.00     0.280 HD
BRANCH  12  16
HETATM   16  C   UNK     1      38.973 -33.331 -38.060  1.00  0.00     0.205 C 
HETATM   17  O   UNK     1      39.249 -33.036 -36.881  1.00  0.00    -0.646 OA
HETATM   18  O   UNK     1      39.870 -33.515 -38.897  1.00  0.00    -0.646 OA
ENDBRANCH  12  16
ENDBRANCH   8   9
BRANCH   1  19
HETATM   19  C   UNK     1      32.517 -32.707 -37.615  1.00  0.00     0.223 C 
BRANCH  19  20
HETATM   20  O   UNK     1      31.776 -33.954 -37.207  1.00  0.00    -0.278 OA
BRANCH  20  21
HETATM   21  P   UNK     1      31.450 -35.069 -38.440  1.00  0.00     0.422 P 
HETATM   22  O   UNK     1      29.944 -35.334 -38.341  1.00  0.00    -0.617 OA
HETATM   23  O   UNK     1      31.957 -34.357 -39.687  1.00  0.00    -0.617 OA
HETATM   24  O   UNK     1      32.174 -36.328 -38.001  1.00  0.00    -0.617 OA
ENDBRANCH  20  21
ENDBRANCH  19  20
ENDBRANCH   1  19
BRANCH   7  25
HETATM   25  O   UNK     1      36.470 -32.875 -34.683  1.00  0.00    -0.358 OA
ATOM     26  HO  UNK     1      37.001 -32.418 -34.043  1.00  0.00     0.217 HD
ENDBRANCH   7  25
TORSDOF 6
ENDMDL
MODEL 2
REMARK VINA RESULT:    -7.447      2.926      6.008
REMARK INTER + INTRA:         -10.819
REMARK INTER:                  -9.861
REMARK INTRA:                  -0.958
REMARK UNBOUND:                -0.977
REMARK  6 active torsions:
REMARK  status: ('A' for Active; 'I' for Inactive)
REMARK    1  A    between atoms: P_2  and  O_5 
REMARK    2  A    between atoms: O_5  and  C_6 
REMARK    3  A    between atoms: C_6  and  C_7 
REMARK    4  A    between atoms: C_13  and  O_14 
REMARK    5  A    between atoms: C_16  and  C_17 
REMARK    6  A    between atoms: C_23  and  C_24 
ROOT
HETATM    1  C   UNK     1      35.123 -33.926 -36.841  1.00  0.00    -0.007 A 
HETATM    2  C   UNK     1      35.356 -33.130 -35.754  1.00  0.00     0.098 A 
HETATM    3  N   UNK     1      34.378 -32.307 -35.232  1.00  0.00    -0.367 N 
ATOM      4  HN  UNK     1      34.600 -31.762 -34.398  1.00  0.00     0.165 HD
HETATM    5  C   UNK     1      33.136 -32.184 -35.768  1.00  0.00     0.039 A 
HETATM    6  C   UNK     1      32.210 -31.213 -35.170  1.00  0.00     0.071 C 
HETATM    7  C   UNK     1      32.889 -32.939 -36.914  1.00  0.00     0.097 A 
HETATM    8  C   UNK     1      33.846 -33.858 -37.460  1.00  0.00     0.027 A 
ENDROOT
BRANCH   8   9
HETATM    9  C   UNK     1      33.592 -34.777 -38.513  1.00  0.00     0.284 C 
HETATM   10  S   UNK     1      33.493 -34.387 -40.282  1.00  0.00    -0.129 SA
HETATM   11  C   UNK     1      32.539 -35.839 -40.829  1.00  0.00     0.120 C 
HETATM   12  C   UNK     1      31.784 -36.314 -39.423  1.00  0.00     0.296 C 
HETATM   13  N   UNK     1      32.246 -35.458 -38.287  1.00  0.00    -0.043 N 
ATOM     14  HN2 UNK     1      32.261 -35.996 -37.421  1.00  0.00     0.280 HD
ATOM     15  HN1 UNK     1      31.533 -34.767 -38.051  1.00  0.00     0.280 HD
BRANCH  12  16
HETATM   16  C   UNK     1      30.225 -36.241 -39.475  1.00  0.00     0.205 C 
HETATM   17  O   UNK     1      29.587 -37.044 -40.184  1.00  0.00    -0.646 OA
HETATM   18  O   UNK     1      29.636 -35.403 -38.776  1.00  0.00    -0.646 OA
ENDBRANCH  12  16
ENDBRANCH   8   9
BRANCH   1  19
HETATM   19  C   UNK     1      36.210 -34.829 -37.321  1.00  0.00     0.223 C 
BRANCH  19  20
HETATM   20  O   UNK     1      37.437 -34.000 -37.040  1.00  0.00    -0.278 OA
BRANCH  20  21
HETATM   21  P   UNK     1      38.195 -33.304 -38.384  1.00  0.00     0.422 P 
HETATM   22  O   UNK     1      39.652 -33.772 -38.299  1.00  0.00    -0.617 OA
HETATM   23  O   UNK     1      37.361 -33.815 -39.551  1.00  0.00    -0.617 OA
HETATM   24  O   UNK     1      38.168 -31.815 -38.095  1.00  0.00    -0.617 OA
ENDBRANCH  20  21
ENDBRANCH  19  20
ENDBRANCH   1  19
BRANCH   7  25
HETATM   25  O   UNK     1      31.714 -32.831 -37.511  1.00  0.00    -0.358 OA
ATOM     26  HO  UNK     1      31.495 -33.436 -38.210  1.00  0.00     0.217 HD
ENDBRANCH   7  25
TORSDOF 6
ENDMDL
MODEL 3
REMARK VINA RESULT:    -7.358      3.012      6.020
REMARK INTER + INTRA:         -10.701
REMARK INTER:                  -9.853
REMARK INTRA:                  -0.849
REMARK UNBOUND:                -0.977
REMARK  6 active torsions:
REMARK  status: ('A' for Active; 'I' for Inactive)
REMARK    1  A    between atoms: P_2  and  O_5 
REMARK    2  A    between atoms: O_5  and  C_6 
REMARK    3  A    between atoms: C_6  and  C_7 
REMARK    4  A    between atoms: C_13  and  O_14 
REMARK    5  A    between atoms: C_16  and  C_17 
REMARK    6  A    between atoms: C_23  and  C_24 
ROOT
HETATM    1  C   UNK     1      35.132 -34.131 -37.020  1.00  0.00    -0.007 A 
HETATM    2  C   UNK     1      35.411 -33.325 -35.951  1.00  0.00     0.098 A 
HETATM    3  N   UNK     1      34.461 -32.482 -35.409  1.00  0.00    -0.367 N 
ATOM      4  HN  UNK     1      34.717 -31.930 -34.589  1.00  0.00     0.165 HD
HETATM    5  C   UNK     1      33.204 -32.348 -35.907  1.00  0.00     0.039 A 
HETATM    6  C   UNK     1      32.312 -31.356 -35.292  1.00  0.00     0.071 C 
HETATM    7  C   UNK     1      32.911 -33.113 -37.035  1.00  0.00     0.097 A 
HETATM    8  C   UNK     1      33.837 -34.052 -37.599  1.00  0.00     0.027 A 
ENDROOT
BRANCH   8   9
HETATM    9  C   UNK     1      33.537 -34.980 -38.632  1.00  0.00     0.284 C 
HETATM   10  S   UNK     1      33.452 -34.623 -40.409  1.00  0.00    -0.129 SA
HETATM   11  C   UNK     1      32.429 -36.040 -40.922  1.00  0.00     0.120 C 
HETATM   12  C   UNK     1      31.655 -36.448 -39.506  1.00  0.00     0.296 C 
HETATM   13  N   UNK     1      32.160 -35.592 -38.389  1.00  0.00    -0.043 N 
ATOM     14  HN2 UNK     1      32.153 -36.111 -37.512  1.00  0.00     0.280 HD
ATOM     15  HN1 UNK     1      31.482 -34.862 -38.166  1.00  0.00     0.280 HD
BRANCH  12  16
HETATM   16  C   UNK     1      30.102 -36.302 -39.557  1.00  0.00     0.205 C 
HETATM   17  O   UNK     1      29.535 -35.433 -38.865  1.00  0.00    -0.646 OA
HETATM   18  O   UNK     1      29.450 -37.033 -40.318  1.00  0.00    -0.646 OA
ENDBRANCH  12  16
ENDBRANCH   8   9
BRANCH   1  19
HETATM   19  C   UNK     1      36.191 -35.055 -37.522  1.00  0.00     0.223 C 
BRANCH  19  20
HETATM   20  O   UNK     1      37.444 -34.283 -37.198  1.00  0.00    -0.278 OA
BRANCH  20  21
HETATM   21  P   UNK     1      38.296 -33.649 -38.517  1.00  0.00     0.422 P 
HETATM   22  O   UNK     1      37.481 -32.429 -38.961  1.00  0.00    -0.617 OA
HETATM   23  O   UNK     1      39.682 -33.396 -37.940  1.00  0.00    -0.617 OA
HETATM   24  O   UNK     1      38.160 -34.713 -39.591  1.00  0.00    -0.617 OA
ENDBRANCH  20  21
ENDBRANCH  19  20
ENDBRANCH   1  19
BRANCH   7  25
HETATM   25  O   UNK     1      31.719 -32.995 -37.596  1.00  0.00    -0.358 OA
ATOM     26  HO  UNK     1      31.575 -33.375 -38.455  1.00  0.00     0.217 HD
ENDBRANCH   7  25
TORSDOF 6
ENDMDL
MODEL 4
REMARK VINA RESULT:    -6.962      1.558      1.939
REMARK INTER + INTRA:         -10.178
REMARK INTER:                  -9.294
REMARK INTRA:                  -0.884
REMARK UNBOUND:                -0.977
REMARK  6 active torsions:
REMARK  status: ('A' for Active; 'I' for Inactive)
REMARK    1  A    between atoms: P_2  and  O_5 
REMARK    2  A    between atoms: O_5  and  C_6 
REMARK    3  A    between atoms: C_6  and  C_7 
REMARK    4  A    between atoms: C_13  and  O_14 
REMARK    5  A    between atoms: C_16  and  C_17 
REMARK    6  A    between atoms: C_23  and  C_24 
ROOT
HETATM    1  C   UNK     1      34.076 -33.537 -37.799  1.00  0.00    -0.007 A 
HETATM    2  C   UNK     1      33.253 -33.216 -36.755  1.00  0.00     0.098 A 
HETATM    3  N   UNK     1      33.751 -32.790 -35.540  1.00  0.00    -0.367 N 
ATOM      4  HN  UNK     1      33.087 -32.531 -34.810  1.00  0.00     0.165 HD
HETATM    5  C   UNK     1      35.079 -32.697 -35.265  1.00  0.00     0.039 A 
HETATM    6  C   UNK     1      35.484 -32.309 -33.907  1.00  0.00     0.071 C 
HETATM    7  C   UNK     1      35.942 -33.076 -36.291  1.00  0.00     0.097 A 
HETATM    8  C   UNK     1      35.479 -33.464 -37.592  1.00  0.00     0.027 A 
ENDROOT
BRANCH   8   9
HETATM    9  C   UNK     1      36.309 -33.690 -38.724  1.00  0.00     0.284 C 
HETATM   10  S   UNK     1      37.302 -35.173 -39.051  1.00  0.00    -0.129 SA
HETATM   11  C   UNK     1      38.490 -34.450 -40.228  1.00  0.00     0.120 C 
HETATM   12  C   UNK     1      38.417 -32.830 -39.853  1.00  0.00     0.296 C 
HETATM   13  N   UNK     1      37.372 -32.599 -38.809  1.00  0.00    -0.043 N 
ATOM     14  HN2 UNK     1      36.935 -31.687 -38.939  1.00  0.00     0.280 HD
ATOM     15  HN1 UNK     1      37.807 -32.456 -37.897  1.00  0.00     0.280 HD
BRANCH  12  16
HETATM   16  C   UNK     1      39.759 -32.230 -39.328  1.00  0.00     0.205 C 
HETATM   17  O   UNK     1      40.672 -31.951 -40.130  1.00  0.00    -0.646 OA
HETATM   18  O   UNK     1      39.887 -32.004 -38.116  1.00  0.00    -0.646 OA
ENDBRANCH  12  16
ENDBRANCH   8   9
BRANCH   1  19
HETATM   19  C   UNK     1      33.467 -33.941 -39.101  1.00  0.00     0.223 C 
BRANCH  19  20
HETATM   20  O   UNK     1      32.847 -35.268 -38.744  1.00  0.00    -0.278 OA
BRANCH  20  21
HETATM   21  P   UNK     1      31.239 -35.496 -39.221  1.00  0.00     0.422 P 
HETATM   22  O   UNK     1      30.405 -35.039 -38.019  1.00  0.00    -0.617 OA
HETATM   23  O   UNK     1      31.140 -34.672 -40.498  1.00  0.00    -0.617 OA
HETATM   24  O   UNK     1      31.098 -37.002 -39.339  1.00  0.00    -0.617 OA
ENDBRANCH  20  21
ENDBRANCH  19  20
ENDBRANCH   1  19
BRANCH   7  25
HETATM   25  O   UNK     1      37.247 -33.052 -36.072  1.00  0.00    -0.358 OA
ATOM     26  HO  UNK     1      37.828 -33.441 -36.715  1.00  0.00     0.217 HD
ENDBRANCH   7  25
TORSDOF 6
ENDMDL
MODEL 5
REMARK VINA RESULT:    -6.364      3.064      6.407
REMARK INTER + INTRA:          -9.388
REMARK INTER:                  -8.530
REMARK INTRA:                  -0.857
REMARK UNBOUND:                -0.977
REMARK  6 active torsions:
REMARK  status: ('A' for Active; 'I' for Inactive)
REMARK    1  A    between atoms: P_2  and  O_5 
REMARK    2  A    between atoms: O_5  and  C_6 
REMARK    3  A    between atoms: C_6  and  C_7 
REMARK    4  A    between atoms: C_13  and  O_14 
REMARK    5  A    between atoms: C_16  and  C_17 
REMARK    6  A    between atoms: C_23  and  C_24 
ROOT
HETATM    1  C   UNK     1      36.560 -33.875 -38.714  1.00  0.00    -0.007 A 
HETATM    2  C   UNK     1      37.433 -33.503 -37.729  1.00  0.00     0.098 A 
HETATM    3  N   UNK     1      37.000 -33.169 -36.461  1.00  0.00    -0.367 N 
ATOM      4  HN  UNK     1      37.700 -32.935 -35.758  1.00  0.00     0.165 HD
HETATM    5  C   UNK     1      35.690 -33.136 -36.101  1.00  0.00     0.039 A 
HETATM    6  C   UNK     1      35.351 -32.684 -34.745  1.00  0.00     0.071 C 
HETATM    7  C   UNK     1      34.774 -33.451 -37.103  1.00  0.00     0.097 A 
HETATM    8  C   UNK     1      35.171 -33.868 -38.416  1.00  0.00     0.027 A 
ENDROOT
BRANCH   8   9
HETATM    9  C   UNK     1      34.296 -34.367 -39.418  1.00  0.00     0.284 C 
HETATM   10  S   UNK     1      33.179 -33.386 -40.458  1.00  0.00    -0.129 SA
HETATM   11  C   UNK     1      32.021 -34.708 -40.937  1.00  0.00     0.120 C 
HETATM   12  C   UNK     1      32.233 -35.821 -39.718  1.00  0.00     0.296 C 
HETATM   13  N   UNK     1      33.321 -35.364 -38.799  1.00  0.00    -0.043 N 
ATOM     14  HN2 UNK     1      33.826 -36.165 -38.420  1.00  0.00     0.280 HD
ATOM     15  HN1 UNK     1      32.924 -34.984 -37.939  1.00  0.00     0.280 HD
BRANCH  12  16
HETATM   16  C   UNK     1      30.957 -36.082 -38.856  1.00  0.00     0.205 C 
HETATM   17  O   UNK     1      30.421 -37.207 -38.862  1.00  0.00    -0.646 OA
HETATM   18  O   UNK     1      30.512 -35.169 -38.144  1.00  0.00    -0.646 OA
ENDBRANCH  12  16
ENDBRANCH   8   9
BRANCH   1  19
HETATM   19  C   UNK     1      37.102 -34.273 -40.046  1.00  0.00     0.223 C 
BRANCH  19  20
HETATM   20  O   UNK     1      37.984 -33.096 -40.377  1.00  0.00    -0.278 OA
BRANCH  20  21
HETATM   21  P   UNK     1      39.555 -33.459 -40.893  1.00  0.00     0.422 P 
HETATM   22  O   UNK     1      40.414 -33.378 -39.626  1.00  0.00    -0.617 OA
HETATM   23  O   UNK     1      39.394 -34.825 -41.547  1.00  0.00    -0.617 OA
HETATM   24  O   UNK     1      39.931 -32.289 -41.784  1.00  0.00    -0.617 OA
ENDBRANCH  20  21
ENDBRANCH  19  20
ENDBRANCH   1  19
BRANCH   7  25
HETATM   25  O   UNK     1      33.480 -33.393 -36.829  1.00  0.00    -0.358 OA
ATOM     26  HO  UNK     1      32.873 -33.882 -37.372  1.00  0.00     0.217 HD
ENDBRANCH   7  25
TORSDOF 6
ENDMDL
MODEL 6
REMARK VINA RESULT:    -6.195      1.769      2.205
REMARK INTER + INTRA:          -9.164
REMARK INTER:                  -8.190
REMARK INTRA:                  -0.973
REMARK UNBOUND:                -0.977
REMARK  6 active torsions:
REMARK  status: ('A' for Active; 'I' for Inactive)
REMARK    1  A    between atoms: P_2  and  O_5 
REMARK    2  A    between atoms: O_5  and  C_6 
REMARK    3  A    between atoms: C_6  and  C_7 
REMARK    4  A    between atoms: C_13  and  O_14 
REMARK    5  A    between atoms: C_16  and  C_17 
REMARK    6  A    between atoms: C_23  and  C_24 
ROOT
HETATM    1  C   UNK     1      33.528 -33.264 -37.038  1.00  0.00    -0.007 A 
HETATM    2  C   UNK     1      32.719 -32.687 -36.099  1.00  0.00     0.098 A 
HETATM    3  N   UNK     1      33.235 -32.059 -34.982  1.00  0.00    -0.367 N 
ATOM      4  HN  UNK     1      32.583 -31.616 -34.334  1.00  0.00     0.165 HD
HETATM    5  C   UNK     1      34.563 -32.002 -34.699  1.00  0.00     0.039 A 
HETATM    6  C   UNK     1      34.981 -31.378 -33.437  1.00  0.00     0.071 C 
HETATM    7  C   UNK     1      35.407 -32.635 -35.609  1.00  0.00     0.097 A 
HETATM    8  C   UNK     1      34.931 -33.244 -36.817  1.00  0.00     0.027 A 
ENDROOT
BRANCH   8   9
HETATM    9  C   UNK     1      35.754 -33.747 -37.862  1.00  0.00     0.284 C 
HETATM   10  S   UNK     1      36.686 -35.304 -37.842  1.00  0.00    -0.129 SA
HETATM   11  C   UNK     1      37.906 -34.906 -39.136  1.00  0.00     0.120 C 
HETATM   12  C   UNK     1      37.899 -33.241 -39.128  1.00  0.00     0.296 C 
HETATM   13  N   UNK     1      36.861 -32.745 -38.172  1.00  0.00    -0.043 N 
ATOM     14  HN2 UNK     1      36.463 -31.868 -38.505  1.00  0.00     0.280 HD
ATOM     15  HN1 UNK     1      37.299 -32.422 -37.309  1.00  0.00     0.280 HD
BRANCH  12  16
HETATM   16  C   UNK     1      39.264 -32.595 -38.731  1.00  0.00     0.205 C 
HETATM   17  O   UNK     1      40.024 -32.155 -39.616  1.00  0.00    -0.646 OA
HETATM   18  O   UNK     1      39.558 -32.493 -37.531  1.00  0.00    -0.646 OA
ENDBRANCH  12  16
ENDBRANCH   8   9
BRANCH   1  19
HETATM   19  C   UNK     1      32.905 -33.879 -38.247  1.00  0.00     0.223 C 
BRANCH  19  20
HETATM   20  O   UNK     1      32.727 -32.678 -39.139  1.00  0.00    -0.278 OA
BRANCH  20  21
HETATM   21  P   UNK     1      32.997 -32.925 -40.792  1.00  0.00     0.422 P 
HETATM   22  O   UNK     1      33.395 -31.547 -41.335  1.00  0.00    -0.617 OA
HETATM   23  O   UNK     1      34.058 -34.017 -40.806  1.00  0.00    -0.617 OA
HETATM   24  O   UNK     1      31.626 -33.264 -41.345  1.00  0.00    -0.617 OA
ENDBRANCH  20  21
ENDBRANCH  19  20
ENDBRANCH   1  19
BRANCH   7  25
HETATM   25  O   UNK     1      36.708 -32.654 -35.369  1.00  0.00    -0.358 OA
ATOM     26  HO  UNK     1      37.290 -32.175 -35.947  1.00  0.00     0.217 HD
ENDBRANCH   7  25
TORSDOF 6
ENDMDL
MODEL 7
REMARK VINA RESULT:    -5.932      1.967      2.552
REMARK INTER + INTRA:          -8.816
REMARK INTER:                  -7.916
REMARK INTRA:                  -0.900
REMARK UNBOUND:                -0.977
REMARK  6 active torsions:
REMARK  status: ('A' for Active; 'I' for Inactive)
REMARK    1  A    between atoms: P_2  and  O_5 
REMARK    2  A    between atoms: O_5  and  C_6 
REMARK    3  A    between atoms: C_6  and  C_7 
REMARK    4  A    between atoms: C_13  and  O_14 
REMARK    5  A    between atoms: C_16  and  C_17 
REMARK    6  A    between atoms: C_23  and  C_24 
ROOT
HETATM    1  C   UNK     1      33.662 -33.690 -38.299  1.00  0.00    -0.007 A 
HETATM    2  C   UNK     1      33.071 -33.249 -37.148  1.00  0.00     0.098 A 
HETATM    3  N   UNK     1      33.812 -32.910 -36.033  1.00  0.00    -0.367 N 
ATOM      4  HN  UNK     1      33.318 -32.553 -35.215  1.00  0.00     0.165 HD
HETATM    5  C   UNK     1      35.165 -33.026 -35.968  1.00  0.00     0.039 A 
HETATM    6  C   UNK     1      35.831 -32.712 -34.697  1.00  0.00     0.071 C 
HETATM    7  C   UNK     1      35.788 -33.532 -37.107  1.00  0.00     0.097 A 
HETATM    8  C   UNK     1      35.075 -33.838 -38.313  1.00  0.00     0.027 A 
ENDROOT
BRANCH   8   9
HETATM    9  C   UNK     1      35.672 -34.187 -39.554  1.00  0.00     0.284 C 
HETATM   10  S   UNK     1      36.500 -35.753 -39.948  1.00  0.00    -0.129 SA
HETATM   11  C   UNK     1      37.499 -35.185 -41.361  1.00  0.00     0.120 C 
HETATM   12  C   UNK     1      37.593 -33.545 -41.091  1.00  0.00     0.296 C 
HETATM   13  N   UNK     1      36.768 -33.181 -39.897  1.00  0.00    -0.043 N 
ATOM     14  HN2 UNK     1      36.370 -32.249 -40.011  1.00  0.00     0.280 HD
ATOM     15  HN1 UNK     1      37.366 -33.019 -39.088  1.00  0.00     0.280 HD
BRANCH  12  16
HETATM   16  C   UNK     1      39.041 -33.015 -40.851  1.00  0.00     0.205 C 
HETATM   17  O   UNK     1      39.288 -32.307 -39.854  1.00  0.00    -0.646 OA
HETATM   18  O   UNK     1      39.942 -33.338 -41.639  1.00  0.00    -0.646 OA
ENDBRANCH  12  16
ENDBRANCH   8   9
BRANCH   1  19
HETATM   19  C   UNK     1      32.803 -33.989 -39.482  1.00  0.00     0.223 C 
BRANCH  19  20
HETATM   20  O   UNK     1      32.441 -35.431 -39.235  1.00  0.00    -0.278 OA
BRANCH  20  21
HETATM   21  P   UNK     1      30.802 -35.829 -39.382  1.00  0.00     0.422 P 
HETATM   22  O   UNK     1      30.313 -35.035 -40.599  1.00  0.00    -0.617 OA
HETATM   23  O   UNK     1      30.826 -37.347 -39.498  1.00  0.00    -0.617 OA
HETATM   24  O   UNK     1      30.162 -35.224 -38.146  1.00  0.00    -0.617 OA
ENDBRANCH  20  21
ENDBRANCH  19  20
ENDBRANCH   1  19
BRANCH   7  25
HETATM   25  O   UNK     1      37.099 -33.712 -37.092  1.00  0.00    -0.358 OA
ATOM     26  HO  UNK     1      37.465 -34.378 -36.523  1.00  0.00     0.217 HD
ENDBRANCH   7  25
TORSDOF 6
ENDMDL
MODEL 8
REMARK VINA RESULT:    -5.856      4.196      6.353
REMARK INTER + INTRA:          -8.716
REMARK INTER:                  -7.602
REMARK INTRA:                  -1.114
REMARK UNBOUND:                -0.977
REMARK  6 active torsions:
REMARK  status: ('A' for Active; 'I' for Inactive)
REMARK    1  A    between atoms: P_2  and  O_5 
REMARK    2  A    between atoms: O_5  and  C_6 
REMARK    3  A    between atoms: C_6  and  C_7 
REMARK    4  A    between atoms: C_13  and  O_14 
REMARK    5  A    between atoms: C_16  and  C_17 
REMARK    6  A    between atoms: C_23  and  C_24 
ROOT
HETATM    1  C   UNK     1      32.980 -37.343 -41.517  1.00  0.00    -0.007 A 
HETATM    2  C   UNK     1      32.754 -38.653 -41.835  1.00  0.00     0.098 A 
HETATM    3  N   UNK     1      33.790 -39.556 -41.975  1.00  0.00    -0.367 N 
ATOM      4  HN  UNK     1      33.558 -40.529 -42.179  1.00  0.00     0.165 HD
HETATM    5  C   UNK     1      35.101 -39.218 -41.858  1.00  0.00     0.039 A 
HETATM    6  C   UNK     1      36.113 -40.252 -42.112  1.00  0.00     0.071 C 
HETATM    7  C   UNK     1      35.363 -37.875 -41.594  1.00  0.00     0.097 A 
HETATM    8  C   UNK     1      34.325 -36.909 -41.375  1.00  0.00     0.027 A 
ENDROOT
BRANCH   8   9
HETATM    9  C   UNK     1      34.527 -35.574 -40.933  1.00  0.00     0.284 C 
HETATM   10  S   UNK     1      35.571 -34.323 -41.730  1.00  0.00    -0.129 SA
HETATM   11  C   UNK     1      35.814 -33.220 -40.299  1.00  0.00     0.120 C 
HETATM   12  C   UNK     1      35.531 -34.241 -39.015  1.00  0.00     0.296 C 
HETATM   13  N   UNK     1      35.105 -35.582 -39.520  1.00  0.00    -0.043 N 
ATOM     14  HN2 UNK     1      34.447 -36.014 -38.871  1.00  0.00     0.280 HD
ATOM     15  HN1 UNK     1      35.876 -36.247 -39.456  1.00  0.00     0.280 HD
BRANCH  12  16
HETATM   16  C   UNK     1      36.761 -34.451 -38.077  1.00  0.00     0.205 C 
HETATM   17  O   UNK     1      36.601 -34.492 -36.841  1.00  0.00    -0.646 OA
HETATM   18  O   UNK     1      37.883 -34.612 -38.579  1.00  0.00    -0.646 OA
ENDBRANCH  12  16
ENDBRANCH   8   9
BRANCH   1  19
HETATM   19  C   UNK     1      31.810 -36.434 -41.330  1.00  0.00     0.223 C 
BRANCH  19  20
HETATM   20  O   UNK     1      31.461 -36.686 -39.885  1.00  0.00    -0.278 OA
BRANCH  20  21
HETATM   21  P   UNK     1      31.387 -35.322 -38.884  1.00  0.00     0.422 P 
HETATM   22  O   UNK     1      32.396 -35.602 -37.765  1.00  0.00    -0.617 OA
HETATM   23  O   UNK     1      31.698 -34.178 -39.840  1.00  0.00    -0.617 OA
HETATM   24  O   UNK     1      29.996 -35.381 -38.280  1.00  0.00    -0.617 OA
ENDBRANCH  20  21
ENDBRANCH  19  20
ENDBRANCH   1  19
BRANCH   7  25
HETATM   25  O   UNK     1      36.620 -37.472 -41.513  1.00  0.00    -0.358 OA
ATOM     26  HO  UNK     1      37.254 -37.815 -42.131  1.00  0.00     0.217 HD
ENDBRANCH   7  25
TORSDOF 6
ENDMDL
MODEL 9
REMARK VINA RESULT:    -5.816      3.349      6.712
REMARK INTER + INTRA:          -8.664
REMARK INTER:                  -7.590
REMARK INTRA:                  -1.074
REMARK UNBOUND:                -0.977
REMARK  6 active torsions:
REMARK  status: ('A' for Active; 'I' for Inactive)
REMARK    1  A    between atoms: P_2  and  O_5 
REMARK    2  A    between atoms: O_5  and  C_6 
REMARK    3  A    between atoms: C_6  and  C_7 
REMARK    4  A    between atoms: C_13  and  O_14 
REMARK    5  A    between atoms: C_16  and  C_17 
REMARK    6  A    between atoms: C_23  and  C_24 
ROOT
HETATM    1  C   UNK     1      35.848 -33.835 -40.782  1.00  0.00    -0.007 A 
HETATM    2  C   UNK     1      36.189 -33.262 -41.976  1.00  0.00     0.098 A 
HETATM    3  N   UNK     1      35.310 -32.460 -42.676  1.00  0.00    -0.367 N 
ATOM      4  HN  UNK     1      35.633 -32.031 -43.543  1.00  0.00     0.165 HD
HETATM    5  C   UNK     1      34.036 -32.212 -42.271  1.00  0.00     0.039 A 
HETATM    6  C   UNK     1      33.170 -31.409 -43.146  1.00  0.00     0.071 C 
HETATM    7  C   UNK     1      33.641 -32.833 -41.088  1.00  0.00     0.097 A 
HETATM    8  C   UNK     1      34.533 -33.622 -40.289  1.00  0.00     0.027 A 
ENDROOT
BRANCH   8   9
HETATM    9  C   UNK     1      34.241 -34.132 -38.995  1.00  0.00     0.284 C 
HETATM   10  S   UNK     1      32.866 -35.231 -38.556  1.00  0.00    -0.129 SA
HETATM   11  C   UNK     1      32.799 -34.882 -36.769  1.00  0.00     0.120 C 
HETATM   12  C   UNK     1      33.521 -33.385 -36.675  1.00  0.00     0.296 C 
HETATM   13  N   UNK     1      34.014 -32.976 -38.026  1.00  0.00    -0.043 N 
ATOM     14  HN2 UNK     1      34.861 -32.414 -37.940  1.00  0.00     0.280 HD
ATOM     15  HN1 UNK     1      33.387 -32.285 -38.439  1.00  0.00     0.280 HD
BRANCH  12  16
HETATM   16  C   UNK     1      32.587 -32.253 -36.143  1.00  0.00     0.205 C 
HETATM   17  O   UNK     1      32.971 -31.514 -35.215  1.00  0.00    -0.646 OA
HETATM   18  O   UNK     1      31.483 -32.079 -36.679  1.00  0.00    -0.646 OA
ENDBRANCH  12  16
ENDBRANCH   8   9
BRANCH   1  19
HETATM   19  C   UNK     1      36.866 -34.648 -40.055  1.00  0.00     0.223 C 
BRANCH  19  20
HETATM   20  O   UNK     1      37.979 -33.647 -39.875  1.00  0.00    -0.278 OA
BRANCH  20  21
HETATM   21  P   UNK     1      38.272 -33.128 -38.290  1.00  0.00     0.422 P 
HETATM   22  O   UNK     1      38.255 -31.598 -38.369  1.00  0.00    -0.617 OA
HETATM   23  O   UNK     1      37.159 -33.803 -37.498  1.00  0.00    -0.617 OA
HETATM   24  O   UNK     1      39.699 -33.564 -38.016  1.00  0.00    -0.617 OA
ENDBRANCH  20  21
ENDBRANCH  19  20
ENDBRANCH   1  19
BRANCH   7  25
HETATM   25  O   UNK     1      32.399 -32.669 -40.663  1.00  0.00    -0.358 OA
ATOM     26  HO  UNK     1      32.232 -32.644 -39.728  1.00  0.00     0.217 HD
ENDBRANCH   7  25
TORSDOF 6
ENDMDL
MODEL 10
REMARK VINA RESULT:    -5.806      4.423      7.550
REMARK INTER + INTRA:          -8.650
REMARK INTER:                  -7.410
REMARK INTRA:                  -1.239
REMARK UNBOUND:                -0.977
REMARK  6 active torsions:
REMARK  status: ('A' for Active; 'I' for Inactive)
REMARK    1  A    between atoms: P_2  and  O_5 
REMARK    2  A    between atoms: O_5  and  C_6 
REMARK    3  A    between atoms: C_6  and  C_7 
REMARK    4  A    between atoms: C_13  and  O_14 
REMARK    5  A    between atoms: C_16  and  C_17 
REMARK    6  A    between atoms: C_23  and  C_24 
ROOT
HETATM    1  C   UNK     1      33.906 -34.102 -40.149  1.00  0.00    -0.007 A 
HETATM    2  C   UNK     1      34.681 -33.083 -40.630  1.00  0.00     0.098 A 
HETATM    3  N   UNK     1      34.417 -32.480 -41.844  1.00  0.00    -0.367 N 
ATOM      4  HN  UNK     1      35.008 -31.700 -42.134  1.00  0.00     0.165 HD
HETATM    5  C   UNK     1      33.412 -32.868 -42.672  1.00  0.00     0.039 A 
HETATM    6  C   UNK     1      33.285 -32.202 -43.975  1.00  0.00     0.071 C 
HETATM    7  C   UNK     1      32.644 -33.946 -42.235  1.00  0.00     0.097 A 
HETATM    8  C   UNK     1      32.833 -34.567 -40.956  1.00  0.00     0.027 A 
ENDROOT
BRANCH   8   9
HETATM    9  C   UNK     1      31.976 -35.546 -40.384  1.00  0.00     0.284 C 
HETATM   10  S   UNK     1      31.771 -37.258 -40.948  1.00  0.00    -0.129 SA
HETATM   11  C   UNK     1      30.145 -37.598 -40.201  1.00  0.00     0.120 C 
HETATM   12  C   UNK     1      29.516 -36.068 -40.013  1.00  0.00     0.296 C 
HETATM   13  N   UNK     1      30.533 -35.050 -40.420  1.00  0.00    -0.043 N 
ATOM     14  HN2 UNK     1      30.435 -34.205 -39.858  1.00  0.00     0.280 HD
ATOM     15  HN1 UNK     1      30.311 -34.674 -41.342  1.00  0.00     0.280 HD
BRANCH  12  16
HETATM   16  C   UNK     1      28.216 -35.801 -40.836  1.00  0.00     0.205 C 
HETATM   17  O   UNK     1      28.222 -35.949 -42.073  1.00  0.00    -0.646 OA
HETATM   18  O   UNK     1      27.179 -35.480 -40.238  1.00  0.00    -0.646 OA
ENDBRANCH  12  16
ENDBRANCH   8   9
BRANCH   1  19
HETATM   19  C   UNK     1      34.218 -34.674 -38.806  1.00  0.00     0.223 C 
BRANCH  19  20
HETATM   20  O   UNK     1      33.806 -33.546 -37.895  1.00  0.00    -0.278 OA
BRANCH  20  21
HETATM   21  P   UNK     1      32.568 -33.887 -36.792  1.00  0.00     0.422 P 
HETATM   22  O   UNK     1      31.274 -33.771 -37.606  1.00  0.00    -0.617 OA
HETATM   23  O   UNK     1      32.947 -35.266 -36.268  1.00  0.00    -0.617 OA
HETATM   24  O   UNK     1      32.609 -32.725 -35.817  1.00  0.00    -0.617 OA
ENDBRANCH  20  21
ENDBRANCH  19  20
ENDBRANCH   1  19
BRANCH   7  25
HETATM   25  O   UNK     1      31.678 -34.403 -43.016  1.00  0.00    -0.358 OA
ATOM     26  HO  UNK     1      30.797 -34.067 -42.902  1.00  0.00     0.217 HD
ENDBRANCH   7  25
TORSDOF 6
ENDMDL
MODEL 11
REMARK VINA RESULT:    -5.677      3.995      6.923
REMARK INTER + INTRA:          -8.480
REMARK INTER:                  -7.594
REMARK INTRA:                  -0.885
REMARK UNBOUND:                -0.977
REMARK  6 active torsions:
REMARK  status: ('A' for Active; 'I' for Inactive)
REMARK    1  A    between atoms: P_2  and  O_5 
REMARK    2  A    between atoms: O_5  and  C_6 
REMARK    3  A    between atoms: C_6  and  C_7 
REMARK    4  A    between atoms: C_13  and  O_14 
REMARK    5  A    between atoms: C_16  and  C_17 
REMARK    6  A    between atoms: C_23  and  C_24 
ROOT
HETATM    1  C   UNK     1      36.982 -34.899 -40.705  1.00  0.00    -0.007 A 
HETATM    2  C   UNK     1      38.249 -34.743 -40.215  1.00  0.00     0.098 A 
HETATM    3  N   UNK     1      38.485 -34.191 -38.971  1.00  0.00    -0.367 N 
ATOM      4  HN  UNK     1      39.449 -34.133 -38.644  1.00  0.00     0.165 HD
HETATM    5  C   UNK     1      37.500 -33.722 -38.160  1.00  0.00     0.039 A 
HETATM    6  C   UNK     1      37.885 -33.082 -36.895  1.00  0.00     0.071 C 
HETATM    7  C   UNK     1      36.203 -33.813 -38.661  1.00  0.00     0.097 A 
HETATM    8  C   UNK     1      35.896 -34.435 -39.916  1.00  0.00     0.027 A 
ENDROOT
BRANCH   8   9
HETATM    9  C   UNK     1      34.588 -34.713 -40.396  1.00  0.00     0.284 C 
HETATM   10  S   UNK     1      33.423 -33.515 -41.101  1.00  0.00    -0.129 SA
HETATM   11  C   UNK     1      31.881 -34.450 -40.843  1.00  0.00     0.120 C 
HETATM   12  C   UNK     1      32.298 -35.483 -39.606  1.00  0.00     0.296 C 
HETATM   13  N   UNK     1      33.747 -35.317 -39.275  1.00  0.00    -0.043 N 
ATOM     14  HN2 UNK     1      34.146 -36.204 -38.970  1.00  0.00     0.280 HD
ATOM     15  HN1 UNK     1      33.855 -34.773 -38.419  1.00  0.00     0.280 HD
BRANCH  12  16
HETATM   16  C   UNK     1      31.480 -35.278 -38.293  1.00  0.00     0.205 C 
HETATM   17  O   UNK     1      30.234 -35.297 -38.326  1.00  0.00    -0.646 OA
HETATM   18  O   UNK     1      32.085 -35.134 -37.220  1.00  0.00    -0.646 OA
ENDBRANCH  12  16
ENDBRANCH   8   9
BRANCH   1  19
HETATM   19  C   UNK     1      36.799 -35.551 -42.036  1.00  0.00     0.223 C 
BRANCH  19  20
HETATM   20  O   UNK     1      37.600 -36.816 -41.865  1.00  0.00    -0.278 OA
BRANCH  20  21
HETATM   21  P   UNK     1      38.590 -37.258 -43.165  1.00  0.00     0.422 P 
HETATM   22  O   UNK     1      39.957 -37.549 -42.537  1.00  0.00    -0.617 OA
HETATM   23  O   UNK     1      37.839 -38.429 -43.786  1.00  0.00    -0.617 OA
HETATM   24  O   UNK     1      38.716 -35.986 -43.984  1.00  0.00    -0.617 OA
ENDBRANCH  20  21
ENDBRANCH  19  20
ENDBRANCH   1  19
BRANCH   7  25
HETATM   25  O   UNK     1      35.203 -33.333 -37.939  1.00  0.00    -0.358 OA
ATOM     26  HO  UNK     1      34.516 -32.843 -38.375  1.00  0.00     0.217 HD
ENDBRANCH   7  25
TORSDOF 6
ENDMDL
MODEL 12
REMARK VINA RESULT:    -5.646      3.582      7.788
REMARK INTER + INTRA:          -8.439
REMARK INTER:                  -7.829
REMARK INTRA:                  -0.610
REMARK UNBOUND:                -0.977
REMARK  6 active torsions:
REMARK  status: ('A' for Active; 'I' for Inactive)
REMARK    1  A    between atoms: P_2  and  O_5 
REMARK    2  A    between atoms: O_5  and  C_6 
REMARK    3  A    between atoms: C_6  and  C_7 
REMARK    4  A    between atoms: C_13  and  O_14 
REMARK    5  A    between atoms: C_16  and  C_17 
REMARK    6  A    between atoms: C_23  and  C_24 
ROOT
HETATM    1  C   UNK     1      36.966 -34.605 -41.106  1.00  0.00    -0.007 A 
HETATM    2  C   UNK     1      37.712 -35.145 -42.116  1.00  0.00     0.098 A 
HETATM    3  N   UNK     1      37.324 -36.298 -42.771  1.00  0.00    -0.367 N 
ATOM      4  HN  UNK     1      37.903 -36.634 -43.541  1.00  0.00     0.165 HD
HETATM    5  C   UNK     1      36.213 -37.008 -42.444  1.00  0.00     0.039 A 
HETATM    6  C   UNK     1      35.951 -38.264 -43.160  1.00  0.00     0.071 C 
HETATM    7  C   UNK     1      35.466 -36.513 -41.376  1.00  0.00     0.097 A 
HETATM    8  C   UNK     1      35.787 -35.287 -40.705  1.00  0.00     0.027 A 
ENDROOT
BRANCH   8   9
HETATM    9  C   UNK     1      34.971 -34.646 -39.733  1.00  0.00     0.284 C 
HETATM   10  S   UNK     1      35.047 -34.886 -37.937  1.00  0.00    -0.129 SA
HETATM   11  C   UNK     1      33.377 -34.293 -37.513  1.00  0.00     0.120 C 
HETATM   12  C   UNK     1      32.559 -34.485 -38.950  1.00  0.00     0.296 C 
HETATM   13  N   UNK     1      33.503 -34.955 -40.010  1.00  0.00    -0.043 N 
ATOM     14  HN2 UNK     1      33.228 -34.585 -40.920  1.00  0.00     0.280 HD
ATOM     15  HN1 UNK     1      33.377 -35.953 -40.182  1.00  0.00     0.280 HD
BRANCH  12  16
HETATM   16  C   UNK     1      31.372 -35.498 -38.883  1.00  0.00     0.205 C 
HETATM   17  O   UNK     1      31.447 -36.585 -39.489  1.00  0.00    -0.646 OA
HETATM   18  O   UNK     1      30.379 -35.221 -38.194  1.00  0.00    -0.646 OA
ENDBRANCH  12  16
ENDBRANCH   8   9
BRANCH   1  19
HETATM   19  C   UNK     1      37.419 -33.329 -40.477  1.00  0.00     0.223 C 
BRANCH  19  20
HETATM   20  O   UNK     1      38.316 -33.836 -39.377  1.00  0.00    -0.278 OA
BRANCH  20  21
HETATM   21  P   UNK     1      39.215 -32.668 -38.545  1.00  0.00     0.422 P 
HETATM   22  O   UNK     1      39.394 -33.241 -37.135  1.00  0.00    -0.617 OA
HETATM   23  O   UNK     1      40.462 -32.518 -39.406  1.00  0.00    -0.617 OA
HETATM   24  O   UNK     1      38.277 -31.479 -38.447  1.00  0.00    -0.617 OA
ENDBRANCH  20  21
ENDBRANCH  19  20
ENDBRANCH   1  19
BRANCH   7  25
HETATM   25  O   UNK     1      34.396 -37.183 -40.978  1.00  0.00    -0.358 OA
ATOM     26  HO  UNK     1      34.504 -37.895 -40.358  1.00  0.00     0.217 HD
ENDBRANCH   7  25
TORSDOF 6
ENDMDL
MODEL 13
REMARK VINA RESULT:    -5.610      3.911      6.051
REMARK INTER + INTRA:          -8.391
REMARK INTER:                  -7.493
REMARK INTRA:                  -0.898
REMARK UNBOUND:                -0.977
REMARK  6 active torsions:
REMARK  status: ('A' for Active; 'I' for Inactive)
REMARK    1  A    between atoms: P_2  and  O_5 
REMARK    2  A    between atoms: O_5  and  C_6 
REMARK    3  A    between atoms: C_6  and  C_7 
REMARK    4  A    between atoms: C_13  and  O_14 
REMARK    5  A    between atoms: C_16  and  C_17 
REMARK    6  A    between atoms: C_23  and  C_24 
ROOT
HETATM    1  C   UNK     1      31.709 -36.522 -40.315  1.00  0.00    -0.007 A 
HETATM    2  C   UNK     1      31.870 -37.376 -41.371  1.00  0.00     0.098 A 
HETATM    3  N   UNK     1      33.089 -37.531 -42.001  1.00  0.00    -0.367 N 
ATOM      4  HN  UNK     1      33.157 -38.209 -42.761  1.00  0.00     0.165 HD
HETATM    5  C   UNK     1      34.202 -36.828 -41.665  1.00  0.00     0.039 A 
HETATM    6  C   UNK     1      35.418 -37.022 -42.466  1.00  0.00     0.071 C 
HETATM    7  C   UNK     1      34.051 -35.905 -40.632  1.00  0.00     0.097 A 
HETATM    8  C   UNK     1      32.827 -35.751 -39.901  1.00  0.00     0.027 A 
ENDROOT
BRANCH   8   9
HETATM    9  C   UNK     1      32.664 -34.958 -38.732  1.00  0.00     0.284 C 
HETATM   10  S   UNK     1      32.533 -33.150 -38.667  1.00  0.00    -0.129 SA
HETATM   11  C   UNK     1      33.004 -32.906 -36.924  1.00  0.00     0.120 C 
HETATM   12  C   UNK     1      33.866 -34.291 -36.594  1.00  0.00     0.296 C 
HETATM   13  N   UNK     1      33.831 -35.203 -37.779  1.00  0.00    -0.043 N 
ATOM     14  HN2 UNK     1      33.844 -36.177 -37.477  1.00  0.00     0.280 HD
ATOM     15  HN1 UNK     1      34.716 -35.164 -38.284  1.00  0.00     0.280 HD
BRANCH  12  16
HETATM   16  C   UNK     1      35.363 -34.044 -36.225  1.00  0.00     0.205 C 
HETATM   17  O   UNK     1      36.264 -34.629 -36.857  1.00  0.00    -0.646 OA
HETATM   18  O   UNK     1      35.638 -33.236 -35.326  1.00  0.00    -0.646 OA
ENDBRANCH  12  16
ENDBRANCH   8   9
BRANCH   1  19
HETATM   19  C   UNK     1      30.376 -36.443 -39.648  1.00  0.00     0.223 C 
BRANCH  19  20
HETATM   20  O   UNK     1      29.712 -35.340 -40.430  1.00  0.00    -0.278 OA
BRANCH  20  21
HETATM   21  P   UNK     1      28.251 -35.734 -41.190  1.00  0.00     0.422 P 
HETATM   22  O   UNK     1      28.405 -37.204 -41.597  1.00  0.00    -0.617 OA
HETATM   23  O   UNK     1      27.212 -35.405 -40.126  1.00  0.00    -0.617 OA
HETATM   24  O   UNK     1      28.255 -34.899 -42.457  1.00  0.00    -0.617 OA
ENDBRANCH  20  21
ENDBRANCH  19  20
ENDBRANCH   1  19
BRANCH   7  25
HETATM   25  O   UNK     1      35.086 -35.156 -40.286  1.00  0.00    -0.358 OA
ATOM     26  HO  UNK     1      35.744 -34.951 -40.940  1.00  0.00     0.217 HD
ENDBRANCH   7  25
TORSDOF 6
ENDMDL
MODEL 14
REMARK VINA RESULT:    -5.587      2.513      3.776
REMARK INTER + INTRA:          -8.360
REMARK INTER:                  -8.153
REMARK INTRA:                  -0.207
REMARK UNBOUND:                -0.977
REMARK  6 active torsions:
REMARK  status: ('A' for Active; 'I' for Inactive)
REMARK    1  A    between atoms: P_2  and  O_5 
REMARK    2  A    between atoms: O_5  and  C_6 
REMARK    3  A    between atoms: C_6  and  C_7 
REMARK    4  A    between atoms: C_13  and  O_14 
REMARK    5  A    between atoms: C_16  and  C_17 
REMARK    6  A    between atoms: C_23  and  C_24 
ROOT
HETATM    1  C   UNK     1      33.836 -33.711 -38.117  1.00  0.00    -0.007 A 
HETATM    2  C   UNK     1      33.204 -33.169 -37.032  1.00  0.00     0.098 A 
HETATM    3  N   UNK     1      33.899 -32.789 -35.901  1.00  0.00    -0.367 N 
ATOM      4  HN  UNK     1      33.379 -32.357 -35.137  1.00  0.00     0.165 HD
HETATM    5  C   UNK     1      35.239 -32.960 -35.751  1.00  0.00     0.039 A 
HETATM    6  C   UNK     1      35.850 -32.591 -34.467  1.00  0.00     0.071 C 
HETATM    7  C   UNK     1      35.899 -33.567 -36.818  1.00  0.00     0.097 A 
HETATM    8  C   UNK     1      35.239 -33.921 -38.040  1.00  0.00     0.027 A 
ENDROOT
BRANCH   8   9
HETATM    9  C   UNK     1      35.886 -34.378 -39.220  1.00  0.00     0.284 C 
HETATM   10  S   UNK     1      35.987 -33.496 -40.803  1.00  0.00    -0.129 SA
HETATM   11  C   UNK     1      36.337 -34.920 -41.885  1.00  0.00     0.120 C 
HETATM   12  C   UNK     1      35.749 -36.195 -40.992  1.00  0.00     0.296 C 
HETATM   13  N   UNK     1      35.275 -35.704 -39.661  1.00  0.00    -0.043 N 
ATOM     14  HN2 UNK     1      35.422 -36.417 -38.947  1.00  0.00     0.280 HD
ATOM     15  HN1 UNK     1      34.256 -35.648 -39.645  1.00  0.00     0.280 HD
BRANCH  12  16
HETATM   16  C   UNK     1      34.568 -36.962 -41.667  1.00  0.00     0.205 C 
HETATM   17  O   UNK     1      34.591 -38.207 -41.731  1.00  0.00    -0.646 OA
HETATM   18  O   UNK     1      33.600 -36.321 -42.101  1.00  0.00    -0.646 OA
ENDBRANCH  12  16
ENDBRANCH   8   9
BRANCH   1  19
HETATM   19  C   UNK     1      33.029 -34.051 -39.326  1.00  0.00     0.223 C 
BRANCH  19  20
HETATM   20  O   UNK     1      32.560 -35.444 -38.994  1.00  0.00    -0.278 OA
BRANCH  20  21
HETATM   21  P   UNK     1      30.894 -35.722 -39.111  1.00  0.00     0.422 P 
HETATM   22  O   UNK     1      30.750 -37.248 -39.114  1.00  0.00    -0.617 OA
HETATM   23  O   UNK     1      30.336 -34.966 -37.913  1.00  0.00    -0.617 OA
HETATM   24  O   UNK     1      30.532 -35.219 -40.496  1.00  0.00    -0.617 OA
ENDBRANCH  20  21
ENDBRANCH  19  20
ENDBRANCH   1  19
BRANCH   7  25
HETATM   25  O   UNK     1      37.197 -33.803 -36.716  1.00  0.00    -0.358 OA
ATOM     26  HO  UNK     1      37.810 -33.154 -37.043  1.00  0.00     0.217 HD
ENDBRANCH   7  25
TORSDOF 6
ENDMDL
MODEL 15
REMARK VINA RESULT:    -5.574      3.736      6.559
REMARK INTER + INTRA:          -8.343
REMARK INTER:                  -7.486
REMARK INTRA:                  -0.857
REMARK UNBOUND:                -0.977
REMARK  6 active torsions:
REMARK  status: ('A' for Active; 'I' for Inactive)
REMARK    1  A    between atoms: P_2  and  O_5 
REMARK    2  A    between atoms: O_5  and  C_6 
REMARK    3  A    between atoms: C_6  and  C_7 
REMARK    4  A    between atoms: C_13  and  O_14 
REMARK    5  A    between atoms: C_16  and  C_17 
REMARK    6  A    between atoms: C_23  and  C_24 
ROOT
HETATM    1  C   UNK     1      36.119 -35.173 -39.388  1.00  0.00    -0.007 A 
HETATM    2  C   UNK     1      37.094 -34.945 -38.457  1.00  0.00     0.098 A 
HETATM    3  N   UNK     1      36.820 -34.323 -37.255  1.00  0.00    -0.367 N 
ATOM      4  HN  UNK     1      37.581 -34.212 -36.584  1.00  0.00     0.165 HD
HETATM    5  C   UNK     1      35.592 -33.849 -36.918  1.00  0.00     0.039 A 
HETATM    6  C   UNK     1      35.446 -33.131 -35.645  1.00  0.00     0.071 C 
HETATM    7  C   UNK     1      34.592 -34.013 -37.875  1.00  0.00     0.097 A 
HETATM    8  C   UNK     1      34.805 -34.709 -39.111  1.00  0.00     0.027 A 
ENDROOT
BRANCH   8   9
HETATM    9  C   UNK     1      33.790 -35.059 -40.042  1.00  0.00     0.284 C 
HETATM   10  S   UNK     1      32.974 -33.941 -41.215  1.00  0.00    -0.129 SA
HETATM   11  C   UNK     1      31.465 -34.918 -41.516  1.00  0.00     0.120 C 
HETATM   12  C   UNK     1      31.384 -35.870 -40.153  1.00  0.00     0.296 C 
HETATM   13  N   UNK     1      32.588 -35.634 -39.298  1.00  0.00    -0.043 N 
ATOM     14  HN2 UNK     1      32.849 -36.489 -38.809  1.00  0.00     0.280 HD
ATOM     15  HN1 UNK     1      32.347 -35.042 -38.502  1.00  0.00     0.280 HD
BRANCH  12  16
HETATM   16  C   UNK     1      30.117 -35.627 -39.274  1.00  0.00     0.205 C 
HETATM   17  O   UNK     1      28.980 -35.771 -39.766  1.00  0.00    -0.646 OA
HETATM   18  O   UNK     1      30.259 -35.327 -38.079  1.00  0.00    -0.646 OA
ENDBRANCH  12  16
ENDBRANCH   8   9
BRANCH   1  19
HETATM   19  C   UNK     1      36.476 -35.897 -40.644  1.00  0.00     0.223 C 
BRANCH  19  20
HETATM   20  O   UNK     1      37.104 -34.796 -41.459  1.00  0.00    -0.278 OA
BRANCH  20  21
HETATM   21  P   UNK     1      37.364 -35.133 -43.098  1.00  0.00     0.422 P 
HETATM   22  O   UNK     1      37.414 -36.663 -43.182  1.00  0.00    -0.617 OA
HETATM   23  O   UNK     1      36.199 -34.431 -43.782  1.00  0.00    -0.617 OA
HETATM   24  O   UNK     1      38.762 -34.607 -43.367  1.00  0.00    -0.617 OA
ENDBRANCH  20  21
ENDBRANCH  19  20
ENDBRANCH   1  19
BRANCH   7  25
HETATM   25  O   UNK     1      33.384 -33.533 -37.628  1.00  0.00    -0.358 OA
ATOM     26  HO  UNK     1      33.264 -32.593 -37.577  1.00  0.00     0.217 HD
ENDBRANCH   7  25
TORSDOF 6
ENDMDL
MODEL 16
REMARK VINA RESULT:    -5.555      3.369      4.578
REMARK INTER + INTRA:          -8.318
REMARK INTER:                  -7.411
REMARK INTRA:                  -0.907
REMARK UNBOUND:                -0.977
REMARK  6 active torsions:
REMARK  status: ('A' for Active; 'I' for Inactive)
REMARK    1  A    between atoms: P_2  and  O_5 
REMARK    2  A    between atoms: O_5  and  C_6 
REMARK    3  A    between atoms: C_6  and  C_7 
REMARK    4  A    between atoms: C_13  and  O_14 
REMARK    5  A    between atoms: C_16  and  C_17 
REMARK    6  A    between atoms: C_23  and  C_24 
ROOT
HETATM    1  C   UNK     1      33.974 -34.407 -39.511  1.00  0.00    -0.007 A 
HETATM    2  C   UNK     1      33.916 -33.707 -38.338  1.00  0.00     0.098 A 
HETATM    3  N   UNK     1      35.052 -33.411 -37.611  1.00  0.00    -0.367 N 
ATOM      4  HN  UNK     1      34.950 -32.854 -36.762  1.00  0.00     0.165 HD
HETATM    5  C   UNK     1      36.298 -33.821 -37.965  1.00  0.00     0.039 A 
HETATM    6  C   UNK     1      37.417 -33.513 -37.065  1.00  0.00     0.071 C 
HETATM    7  C   UNK     1      36.379 -34.590 -39.125  1.00  0.00     0.097 A 
HETATM    8  C   UNK     1      35.242 -34.871 -39.952  1.00  0.00     0.027 A 
ENDROOT
BRANCH   8   9
HETATM    9  C   UNK     1      35.290 -35.495 -41.228  1.00  0.00     0.284 C 
HETATM   10  S   UNK     1      35.535 -37.263 -41.553  1.00  0.00    -0.129 SA
HETATM   11  C   UNK     1      36.112 -37.145 -43.277  1.00  0.00     0.120 C 
HETATM   12  C   UNK     1      36.684 -35.584 -43.352  1.00  0.00     0.296 C 
HETATM   13  N   UNK     1      36.417 -34.885 -42.057  1.00  0.00    -0.043 N 
ATOM     14  HN2 UNK     1      36.241 -33.894 -42.218  1.00  0.00     0.280 HD
ATOM     15  HN1 UNK     1      37.271 -34.825 -41.503  1.00  0.00     0.280 HD
BRANCH  12  16
HETATM   16  C   UNK     1      38.212 -35.472 -43.649  1.00  0.00     0.205 C 
HETATM   17  O   UNK     1      38.910 -36.503 -43.717  1.00  0.00    -0.646 OA
HETATM   18  O   UNK     1      38.708 -34.354 -43.853  1.00  0.00    -0.646 OA
ENDBRANCH  12  16
ENDBRANCH   8   9
BRANCH   1  19
HETATM   19  C   UNK     1      32.712 -34.647 -40.271  1.00  0.00     0.223 C 
BRANCH  19  20
HETATM   20  O   UNK     1      32.226 -35.932 -39.651  1.00  0.00    -0.278 OA
BRANCH  20  21
HETATM   21  P   UNK     1      30.606 -35.961 -39.160  1.00  0.00     0.422 P 
HETATM   22  O   UNK     1      29.832 -35.325 -40.320  1.00  0.00    -0.617 OA
HETATM   23  O   UNK     1      30.360 -37.437 -38.878  1.00  0.00    -0.617 OA
HETATM   24  O   UNK     1      30.557 -35.000 -37.987  1.00  0.00    -0.617 OA
ENDBRANCH  20  21
ENDBRANCH  19  20
ENDBRANCH   1  19
BRANCH   7  25
HETATM   25  O   UNK     1      37.558 -35.059 -39.501  1.00  0.00    -0.358 OA
ATOM     26  HO  UNK     1      37.965 -35.745 -38.986  1.00  0.00     0.217 HD
ENDBRANCH   7  25
TORSDOF 6
ENDMDL
MODEL 17
REMARK VINA RESULT:    -5.485      4.188      6.820
REMARK INTER + INTRA:          -8.226
REMARK INTER:                  -7.980
REMARK INTRA:                  -0.245
REMARK UNBOUND:                -0.977
REMARK  6 active torsions:
REMARK  status: ('A' for Active; 'I' for Inactive)
REMARK    1  A    between atoms: P_2  and  O_5 
REMARK    2  A    between atoms: O_5  and  C_6 
REMARK    3  A    between atoms: C_6  and  C_7 
REMARK    4  A    between atoms: C_13  and  O_14 
REMARK    5  A    between atoms: C_16  and  C_17 
REMARK    6  A    between atoms: C_23  and  C_24 
ROOT
HETATM    1  C   UNK     1      32.981 -34.167 -40.241  1.00  0.00    -0.007 A 
HETATM    2  C   UNK     1      33.960 -33.244 -39.997  1.00  0.00     0.098 A 
HETATM    3  N   UNK     1      34.621 -33.188 -38.786  1.00  0.00    -0.367 N 
ATOM      4  HN  UNK     1      35.367 -32.500 -38.675  1.00  0.00     0.165 HD
HETATM    5  C   UNK     1      34.332 -33.999 -37.735  1.00  0.00     0.039 A 
HETATM    6  C   UNK     1      35.049 -33.786 -36.471  1.00  0.00     0.071 C 
HETATM    7  C   UNK     1      33.296 -34.910 -37.935  1.00  0.00     0.097 A 
HETATM    8  C   UNK     1      32.620 -35.054 -39.192  1.00  0.00     0.027 A 
ENDROOT
BRANCH   8   9
HETATM    9  C   UNK     1      31.684 -36.076 -39.508  1.00  0.00     0.284 C 
HETATM   10  S   UNK     1      31.689 -37.119 -40.992  1.00  0.00    -0.129 SA
HETATM   11  C   UNK     1      29.941 -37.633 -40.970  1.00  0.00     0.120 C 
HETATM   12  C   UNK     1      29.231 -36.425 -40.072  1.00  0.00     0.296 C 
HETATM   13  N   UNK     1      30.279 -35.484 -39.569  1.00  0.00    -0.043 N 
ATOM     14  HN2 UNK     1      30.013 -35.108 -38.660  1.00  0.00     0.280 HD
ATOM     15  HN1 UNK     1      30.280 -34.626 -40.121  1.00  0.00     0.280 HD
BRANCH  12  16
HETATM   16  C   UNK     1      28.168 -35.586 -40.850  1.00  0.00     0.205 C 
HETATM   17  O   UNK     1      27.008 -35.483 -40.404  1.00  0.00    -0.646 OA
HETATM   18  O   UNK     1      28.504 -34.999 -41.889  1.00  0.00    -0.646 OA
ENDBRANCH  12  16
ENDBRANCH   8   9
BRANCH   1  19
HETATM   19  C   UNK     1      32.344 -34.204 -41.591  1.00  0.00     0.223 C 
BRANCH  19  20
HETATM   20  O   UNK     1      31.218 -33.216 -41.420  1.00  0.00    -0.278 OA
BRANCH  20  21
HETATM   21  P   UNK     1      31.308 -31.808 -42.355  1.00  0.00     0.422 P 
HETATM   22  O   UNK     1      30.101 -31.883 -43.296  1.00  0.00    -0.617 OA
HETATM   23  O   UNK     1      31.314 -30.702 -41.308  1.00  0.00    -0.617 OA
HETATM   24  O   UNK     1      32.561 -31.997 -43.190  1.00  0.00    -0.617 OA
ENDBRANCH  20  21
ENDBRANCH  19  20
ENDBRANCH   1  19
BRANCH   7  25
HETATM   25  O   UNK     1      32.934 -35.698 -36.936  1.00  0.00    -0.358 OA
ATOM     26  HO  UNK     1      32.092 -35.556 -36.520  1.00  0.00     0.217 HD
ENDBRANCH   7  25
TORSDOF 6
ENDMDL
MODEL 18
REMARK VINA RESULT:    -5.432      3.412      4.066
REMARK INTER + INTRA:          -8.155
REMARK INTER:                  -7.243
REMARK INTRA:                  -0.912
REMARK UNBOUND:                -0.977
REMARK  6 active torsions:
REMARK  status: ('A' for Active; 'I' for Inactive)
REMARK    1  A    between atoms: P_2  and  O_5 
REMARK    2  A    between atoms: O_5  and  C_6 
REMARK    3  A    between atoms: C_6  and  C_7 
REMARK    4  A    between atoms: C_13  and  O_14 
REMARK    5  A    between atoms: C_16  and  C_17 
REMARK    6  A    between atoms: C_23  and  C_24 
ROOT
HETATM    1  C   UNK     1      33.891 -34.625 -39.960  1.00  0.00    -0.007 A 
HETATM    2  C   UNK     1      32.752 -34.970 -39.287  1.00  0.00     0.098 A 
HETATM    3  N   UNK     1      32.757 -35.222 -37.929  1.00  0.00    -0.367 N 
ATOM      4  HN  UNK     1      31.870 -35.440 -37.475  1.00  0.00     0.165 HD
HETATM    5  C   UNK     1      33.881 -35.195 -37.166  1.00  0.00     0.039 A 
HETATM    6  C   UNK     1      33.769 -35.563 -35.748  1.00  0.00     0.071 C 
HETATM    7  C   UNK     1      35.067 -34.906 -37.837  1.00  0.00     0.097 A 
HETATM    8  C   UNK     1      35.110 -34.573 -39.232  1.00  0.00     0.027 A 
ENDROOT
BRANCH   8   9
HETATM    9  C   UNK     1      36.256 -34.102 -39.928  1.00  0.00     0.284 C 
HETATM   10  S   UNK     1      37.611 -35.116 -40.581  1.00  0.00    -0.129 SA
HETATM   11  C   UNK     1      38.888 -33.822 -40.697  1.00  0.00     0.120 C 
HETATM   12  C   UNK     1      38.345 -32.692 -39.602  1.00  0.00     0.296 C 
HETATM   13  N   UNK     1      37.022 -33.118 -39.049  1.00  0.00    -0.043 N 
ATOM     14  HN2 UNK     1      36.445 -32.303 -38.843  1.00  0.00     0.280 HD
ATOM     15  HN1 UNK     1      37.135 -33.496 -38.109  1.00  0.00     0.280 HD
BRANCH  12  16
HETATM   16  C   UNK     1      39.310 -32.447 -38.399  1.00  0.00     0.205 C 
HETATM   17  O   UNK     1      40.429 -31.933 -38.593  1.00  0.00    -0.646 OA
HETATM   18  O   UNK     1      38.933 -32.736 -37.254  1.00  0.00    -0.646 OA
ENDBRANCH  12  16
ENDBRANCH   8   9
BRANCH   1  19
HETATM   19  C   UNK     1      33.803 -34.317 -41.418  1.00  0.00     0.223 C 
BRANCH  19  20
HETATM   20  O   UNK     1      32.506 -33.552 -41.486  1.00  0.00    -0.278 OA
BRANCH  20  21
HETATM   21  P   UNK     1      32.630 -31.893 -41.801  1.00  0.00     0.422 P 
HETATM   22  O   UNK     1      31.812 -31.221 -40.693  1.00  0.00    -0.617 OA
HETATM   23  O   UNK     1      34.134 -31.657 -41.805  1.00  0.00    -0.617 OA
HETATM   24  O   UNK     1      31.882 -31.708 -43.109  1.00  0.00    -0.617 OA
ENDBRANCH  20  21
ENDBRANCH  19  20
ENDBRANCH   1  19
BRANCH   7  25
HETATM   25  O   UNK     1      36.203 -34.909 -37.159  1.00  0.00    -0.358 OA
ATOM     26  HO  UNK     1      36.426 -35.671 -36.637  1.00  0.00     0.217 HD
ENDBRANCH   7  25
TORSDOF 6
ENDMDL
MODEL 19
REMARK VINA RESULT:    -5.402      4.669      6.866
REMARK INTER + INTRA:          -8.116
REMARK INTER:                  -7.155
REMARK INTRA:                  -0.961
REMARK UNBOUND:                -0.977
REMARK  6 active torsions:
REMARK  status: ('A' for Active; 'I' for Inactive)
REMARK    1  A    between atoms: P_2  and  O_5 
REMARK    2  A    between atoms: O_5  and  C_6 
REMARK    3  A    between atoms: C_6  and  C_7 
REMARK    4  A    between atoms: C_13  and  O_14 
REMARK    5  A    between atoms: C_16  and  C_17 
REMARK    6  A    between atoms: C_23  and  C_24 
ROOT
HETATM    1  C   UNK     1      33.307 -33.955 -40.602  1.00  0.00    -0.007 A 
HETATM    2  C   UNK     1      34.286 -33.358 -39.858  1.00  0.00     0.098 A 
HETATM    3  N   UNK     1      34.535 -33.729 -38.551  1.00  0.00    -0.367 N 
ATOM      4  HN  UNK     1      35.302 -33.272 -38.057  1.00  0.00     0.165 HD
HETATM    5  C   UNK     1      33.813 -34.671 -37.889  1.00  0.00     0.039 A 
HETATM    6  C   UNK     1      34.122 -34.919 -36.474  1.00  0.00     0.071 C 
HETATM    7  C   UNK     1      32.769 -35.254 -38.605  1.00  0.00     0.097 A 
HETATM    8  C   UNK     1      32.508 -34.953 -39.982  1.00  0.00     0.027 A 
ENDROOT
BRANCH   8   9
HETATM    9  C   UNK     1      31.577 -35.637 -40.810  1.00  0.00     0.284 C 
HETATM   10  S   UNK     1      29.784 -35.738 -40.557  1.00  0.00    -0.129 SA
HETATM   11  C   UNK     1      29.451 -37.225 -41.556  1.00  0.00     0.120 C 
HETATM   12  C   UNK     1      30.938 -37.973 -41.580  1.00  0.00     0.296 C 
HETATM   13  N   UNK     1      31.947 -37.115 -40.886  1.00  0.00    -0.043 N 
ATOM     14  HN2 UNK     1      32.865 -37.230 -41.315  1.00  0.00     0.280 HD
ATOM     15  HN1 UNK     1      32.143 -37.480 -39.953  1.00  0.00     0.280 HD
BRANCH  12  16
HETATM   16  C   UNK     1      30.960 -39.381 -40.904  1.00  0.00     0.205 C 
HETATM   17  O   UNK     1      31.741 -40.259 -41.320  1.00  0.00    -0.646 OA
HETATM   18  O   UNK     1      30.222 -39.596 -39.931  1.00  0.00    -0.646 OA
ENDBRANCH  12  16
ENDBRANCH   8   9
BRANCH   1  19
HETATM   19  C   UNK     1      33.128 -33.540 -42.025  1.00  0.00     0.223 C 
BRANCH  19  20
HETATM   20  O   UNK     1      33.087 -32.038 -41.897  1.00  0.00    -0.278 OA
BRANCH  20  21
HETATM   21  P   UNK     1      31.571 -31.310 -42.095  1.00  0.00     0.422 P 
HETATM   22  O   UNK     1      30.595 -32.478 -42.274  1.00  0.00    -0.617 OA
HETATM   23  O   UNK     1      31.431 -30.464 -40.836  1.00  0.00    -0.617 OA
HETATM   24  O   UNK     1      31.678 -30.587 -43.424  1.00  0.00    -0.617 OA
ENDBRANCH  20  21
ENDBRANCH  19  20
ENDBRANCH   1  19
BRANCH   7  25
HETATM   25  O   UNK     1      31.999 -36.146 -38.002  1.00  0.00    -0.358 OA
ATOM     26  HO  UNK     1      32.040 -36.225 -37.057  1.00  0.00     0.217 HD
ENDBRANCH   7  25
TORSDOF 6
ENDMDL
MODEL 20
REMARK VINA RESULT:    -5.358      3.194      5.309
REMARK INTER + INTRA:          -8.057
REMARK INTER:                  -7.001
REMARK INTRA:                  -1.056
REMARK UNBOUND:                -0.977
REMARK  6 active torsions:
REMARK  status: ('A' for Active; 'I' for Inactive)
REMARK    1  A    between atoms: P_2  and  O_5 
REMARK    2  A    between atoms: O_5  and  C_6 
REMARK    3  A    between atoms: C_6  and  C_7 
REMARK    4  A    between atoms: C_13  and  O_14 
REMARK    5  A    between atoms: C_16  and  C_17 
REMARK    6  A    between atoms: C_23  and  C_24 
ROOT
HETATM    1  C   UNK     1      36.407 -33.808 -37.639  1.00  0.00    -0.007 A 
HETATM    2  C   UNK     1      37.507 -33.418 -36.927  1.00  0.00     0.098 A 
HETATM    3  N   UNK     1      38.609 -32.857 -37.540  1.00  0.00    -0.367 N 
ATOM      4  HN  UNK     1      39.386 -32.552 -36.953  1.00  0.00     0.165 HD
HETATM    5  C   UNK     1      38.715 -32.688 -38.885  1.00  0.00     0.039 A 
HETATM    6  C   UNK     1      39.973 -32.156 -39.424  1.00  0.00     0.071 C 
HETATM    7  C   UNK     1      37.633 -33.134 -39.642  1.00  0.00     0.097 A 
HETATM    8  C   UNK     1      36.438 -33.663 -39.052  1.00  0.00     0.027 A 
ENDROOT
BRANCH   8   9
HETATM    9  C   UNK     1      35.241 -33.968 -39.756  1.00  0.00     0.284 C 
HETATM   10  S   UNK     1      35.076 -35.117 -41.150  1.00  0.00    -0.129 SA
HETATM   11  C   UNK     1      33.524 -34.470 -41.853  1.00  0.00     0.120 C 
HETATM   12  C   UNK     1      33.498 -32.910 -41.273  1.00  0.00     0.296 C 
HETATM   13  N   UNK     1      34.659 -32.692 -40.356  1.00  0.00    -0.043 N 
ATOM     14  HN2 UNK     1      34.409 -32.034 -39.618  1.00  0.00     0.280 HD
ATOM     15  HN1 UNK     1      35.388 -32.157 -40.828  1.00  0.00     0.280 HD
BRANCH  12  16
HETATM   16  C   UNK     1      33.549 -31.812 -42.381  1.00  0.00     0.205 C 
HETATM   17  O   UNK     1      33.589 -32.141 -43.583  1.00  0.00    -0.646 OA
HETATM   18  O   UNK     1      33.513 -30.617 -42.050  1.00  0.00    -0.646 OA
ENDBRANCH  12  16
ENDBRANCH   8   9
BRANCH   1  19
HETATM   19  C   UNK     1      35.230 -34.359 -36.905  1.00  0.00     0.223 C 
BRANCH  19  20
HETATM   20  O   UNK     1      34.525 -33.098 -36.476  1.00  0.00    -0.278 OA
BRANCH  20  21
HETATM   21  P   UNK     1      32.834 -33.119 -36.562  1.00  0.00     0.422 P 
HETATM   22  O   UNK     1      32.446 -34.583 -36.328  1.00  0.00    -0.617 OA
HETATM   23  O   UNK     1      32.424 -32.105 -35.502  1.00  0.00    -0.617 OA
HETATM   24  O   UNK     1      32.533 -32.785 -38.012  1.00  0.00    -0.617 OA
ENDBRANCH  20  21
ENDBRANCH  19  20
ENDBRANCH   1  19
BRANCH   7  25
HETATM   25  O   UNK     1      37.692 -33.040 -40.960  1.00  0.00    -0.358 OA
ATOM     26  HO  UNK     1      37.466 -33.798 -41.486  1.00  0.00     0.217 HD
ENDBRANCH   7  25
TORSDOF 6
ENDMDL
