MODEL 1
REMARK VINA RESULT:    -6.090      0.000      0.000
REMARK INTER + INTRA:          -6.899
REMARK INTER:                  -6.802
REMARK INTRA:                  -0.097
REMARK UNBOUND:                -0.097
REMARK  2 active torsions:
REMARK  status: ('A' for Active; 'I' for Inactive)
REMARK    1  A    between atoms: C_3  and  N_9 
REMARK    2  A    between atoms: C_6  and  N_15 
ROOT
HETATM    1  C   UNL     1      17.175  26.638   3.413  1.00  0.00     0.147 A 
HETATM    2  C   UNL     1      15.802  26.992   3.187  1.00  0.00     0.123 A 
HETATM    3  C   UNL     1      15.400  28.257   3.549  1.00  0.00     0.154 A 
HETATM    4  C   UNL     1      17.558  28.742   4.304  1.00  0.00     0.681 A 
HETATM    5  C   UNL     1      13.666  27.209   2.713  1.00  0.00     0.184 A 
HETATM    6  C   UNL     1      13.276  29.562   3.517  1.00  0.00     0.158 C 
HETATM    7  N   UNL     1      16.296  29.107   4.107  1.00  0.00    -0.174 N 
ATOM      8  HN  UNL     1      15.997  30.042   4.379  1.00  0.00     0.186 HD
HETATM    9  N   UNL     1      17.993  27.530   3.953  1.00  0.00    -0.175 N 
ATOM     10  HN  UNL     1      18.972  27.286   4.102  1.00  0.00     0.186 HD
HETATM   11  N   UNL     1      14.080  28.368   3.259  1.00  0.00    -0.331 N 
HETATM   12  N   UNL     1      14.705  26.354   2.664  1.00  0.00    -0.346 N 
ATOM     13  HN  UNL     1      14.681  25.401   2.302  1.00  0.00     0.167 HD
ENDROOT
BRANCH   1  14
HETATM   14  N   UNL     1      17.669  25.319   3.066  1.00  0.00    -0.378 N 
HETATM   15  C   UNL     1      17.851  24.286   4.085  1.00  0.00     0.147 C 
ATOM     16  HN  UNL     1      17.894  25.108   2.093  1.00  0.00     0.160 HD
ENDBRANCH   1  14
BRANCH   4  17
HETATM   17  N   UNL     1      18.487  29.669   4.922  1.00  0.00    -0.230 N 
HETATM   18  C   UNL     1      18.184  30.257   6.219  1.00  0.00     0.165 C 
ATOM     19  HN  UNL     1      19.357  29.909   4.446  1.00  0.00     0.177 HD
ENDBRANCH   4  17
TORSDOF 2
ENDMDL
MODEL 2
REMARK VINA RESULT:    -5.207      9.563     11.995
REMARK INTER + INTRA:          -5.913
REMARK INTER:                  -5.812
REMARK INTRA:                  -0.101
REMARK UNBOUND:                -0.097
REMARK  2 active torsions:
REMARK  status: ('A' for Active; 'I' for Inactive)
REMARK    1  A    between atoms: C_3  and  N_9 
REMARK    2  A    between atoms: C_6  and  N_15 
ROOT
HETATM    1  C   UNL     1      10.440  36.002   2.013  1.00  0.00     0.147 A 
HETATM    2  C   UNL     1      10.527  37.004   3.036  1.00  0.00     0.123 A 
HETATM    3  C   UNL     1      10.481  38.323   2.646  1.00  0.00     0.154 A 
HETATM    4  C   UNL     1      10.292  37.668   0.410  1.00  0.00     0.681 A 
HETATM    5  C   UNL     1      10.685  38.270   4.827  1.00  0.00     0.184 A 
HETATM    6  C   UNL     1      10.603  40.549   3.762  1.00  0.00     0.158 C 
HETATM    7  N   UNL     1      10.366  38.624   1.330  1.00  0.00    -0.174 N 
ATOM      8  HN  UNL     1      10.337  39.601   1.040  1.00  0.00     0.186 HD
HETATM    9  N   UNL     1      10.318  36.377   0.748  1.00  0.00    -0.175 N 
ATOM     10  HN  UNL     1      10.242  35.667   0.020  1.00  0.00     0.186 HD
HETATM   11  N   UNL     1      10.589  39.086   3.761  1.00  0.00    -0.331 N 
HETATM   12  N   UNL     1      10.652  36.993   4.403  1.00  0.00    -0.346 N 
ATOM     13  HN  UNL     1      10.710  36.163   4.993  1.00  0.00     0.167 HD
ENDROOT
BRANCH   1  14
HETATM   14  N   UNL     1      10.492  34.591   2.348  1.00  0.00    -0.378 N 
HETATM   15  C   UNL     1       9.371  33.929   3.013  1.00  0.00     0.147 C 
ATOM     16  HN  UNL     1      11.326  34.051   2.114  1.00  0.00     0.160 HD
ENDBRANCH   1  14
BRANCH   4  17
HETATM   17  N   UNL     1      10.191  38.025  -0.992  1.00  0.00    -0.230 N 
HETATM   18  C   UNL     1      10.784  39.263  -1.480  1.00  0.00     0.165 C 
ATOM     19  HN  UNL     1       9.702  37.406  -1.639  1.00  0.00     0.177 HD
ENDBRANCH   4  17
TORSDOF 2
ENDMDL
MODEL 3
REMARK VINA RESULT:    -5.043     10.613     11.531
REMARK INTER + INTRA:          -5.729
REMARK INTER:                  -5.643
REMARK INTRA:                  -0.086
REMARK UNBOUND:                -0.097
REMARK  2 active torsions:
REMARK  status: ('A' for Active; 'I' for Inactive)
REMARK    1  A    between atoms: C_3  and  N_9 
REMARK    2  A    between atoms: C_6  and  N_15 
ROOT
HETATM    1  C   UNL     1      26.671  27.183   9.021  1.00  0.00     0.147 A 
HETATM    2  C   UNL     1      26.594  26.253   7.930  1.00  0.00     0.123 A 
HETATM    3  C   UNL     1      26.549  26.767   6.654  1.00  0.00     0.154 A 
HETATM    4  C   UNL     1      26.637  28.940   7.511  1.00  0.00     0.681 A 
HETATM    5  C   UNL     1      26.479  24.581   6.507  1.00  0.00     0.184 A 
HETATM    6  C   UNL     1      26.381  25.857   4.340  1.00  0.00     0.158 C 
HETATM    7  N   UNL     1      26.569  28.110   6.476  1.00  0.00    -0.174 N 
ATOM      8  HN  UNL     1      26.531  28.490   5.531  1.00  0.00     0.186 HD
HETATM    9  N   UNL     1      26.698  28.483   8.763  1.00  0.00    -0.175 N 
ATOM     10  HN  UNL     1      26.767  29.145   9.535  1.00  0.00     0.186 HD
HETATM   11  N   UNL     1      26.469  25.722   5.794  1.00  0.00    -0.331 N 
HETATM   12  N   UNL     1      26.552  24.887   7.816  1.00  0.00    -0.346 N 
ATOM     13  HN  UNL     1      26.572  24.220   8.588  1.00  0.00     0.167 HD
ENDROOT
BRANCH   1  14
HETATM   14  N   UNL     1      26.711  26.716  10.394  1.00  0.00    -0.378 N 
HETATM   15  C   UNL     1      26.801  27.656  11.511  1.00  0.00     0.147 C 
ATOM     16  HN  UNL     1      26.676  25.715  10.584  1.00  0.00     0.160 HD
ENDBRANCH   1  14
BRANCH   4  17
HETATM   17  N   UNL     1      26.636  30.373   7.286  1.00  0.00    -0.230 N 
HETATM   18  C   UNL     1      27.795  31.174   7.652  1.00  0.00     0.165 C 
ATOM     19  HN  UNL     1      25.819  30.820   6.869  1.00  0.00     0.177 HD
ENDBRANCH   4  17
TORSDOF 2
ENDMDL
MODEL 4
REMARK VINA RESULT:    -4.920     11.137     12.290
REMARK INTER + INTRA:          -5.592
REMARK INTER:                  -5.501
REMARK INTRA:                  -0.091
REMARK UNBOUND:                -0.097
REMARK  2 active torsions:
REMARK  status: ('A' for Active; 'I' for Inactive)
REMARK    1  A    between atoms: C_3  and  N_9 
REMARK    2  A    between atoms: C_6  and  N_15 
ROOT
HETATM    1  C   UNL     1      19.687  28.698  14.685  1.00  0.00     0.147 A 
HETATM    2  C   UNL     1      19.916  30.098  14.904  1.00  0.00     0.123 A 
HETATM    3  C   UNL     1      21.156  30.601  14.583  1.00  0.00     0.154 A 
HETATM    4  C   UNL     1      21.857  28.478  13.904  1.00  0.00     0.681 A 
HETATM    5  C   UNL     1      19.936  32.249  15.357  1.00  0.00     0.184 A 
HETATM    6  C   UNL     1      22.298  32.814  14.698  1.00  0.00     0.158 C 
HETATM    7  N   UNL     1      22.104  29.769  14.089  1.00  0.00    -0.174 N 
ATOM      8  HN  UNL     1      23.025  30.142  13.856  1.00  0.00     0.186 HD
HETATM    9  N   UNL     1      20.663  27.953  14.187  1.00  0.00    -0.175 N 
ATOM     10  HN  UNL     1      20.499  26.961  14.017  1.00  0.00     0.186 HD
HETATM   11  N   UNL     1      21.151  31.924  14.878  1.00  0.00    -0.331 N 
HETATM   12  N   UNL     1      19.168  31.144  15.383  1.00  0.00    -0.346 N 
ATOM     13  HN  UNL     1      18.200  31.093  15.702  1.00  0.00     0.167 HD
ENDROOT
BRANCH   1  14
HETATM   14  N   UNL     1      18.408  28.094  15.009  1.00  0.00    -0.378 N 
HETATM   15  C   UNL     1      17.872  26.987  14.218  1.00  0.00     0.147 C 
ATOM     16  HN  UNL     1      17.873  28.448  15.802  1.00  0.00     0.160 HD
ENDBRANCH   1  14
BRANCH   4  17
HETATM   17  N   UNL     1      22.901  27.611  13.392  1.00  0.00    -0.230 N 
HETATM   18  C   UNL     1      22.938  26.204  13.768  1.00  0.00     0.165 C 
ATOM     19  HN  UNL     1      23.613  27.988  12.766  1.00  0.00     0.177 HD
ENDBRANCH   4  17
TORSDOF 2
ENDMDL
MODEL 5
REMARK VINA RESULT:    -4.893      9.659     12.400
REMARK INTER + INTRA:          -5.561
REMARK INTER:                  -5.471
REMARK INTRA:                  -0.090
REMARK UNBOUND:                -0.097
REMARK  2 active torsions:
REMARK  status: ('A' for Active; 'I' for Inactive)
REMARK    1  A    between atoms: C_3  and  N_9 
REMARK    2  A    between atoms: C_6  and  N_15 
ROOT
HETATM    1  C   UNL     1      10.080  37.658   0.565  1.00  0.00     0.147 A 
HETATM    2  C   UNL     1      10.235  38.584   1.651  1.00  0.00     0.123 A 
HETATM    3  C   UNL     1      10.517  38.069   2.895  1.00  0.00     0.154 A 
HETATM    4  C   UNL     1      10.472  35.901   2.023  1.00  0.00     0.681 A 
HETATM    5  C   UNL     1      10.407  40.250   3.075  1.00  0.00     0.184 A 
HETATM    6  C   UNL     1      10.877  38.971   5.191  1.00  0.00     0.158 C 
HETATM    7  N   UNL     1      10.626  36.727   3.052  1.00  0.00    -0.174 N 
ATOM      8  HN  UNL     1      10.830  36.345   3.975  1.00  0.00     0.186 HD
HETATM    9  N   UNL     1      10.214  36.360   0.797  1.00  0.00    -0.175 N 
ATOM     10  HN  UNL     1      10.119  35.701   0.025  1.00  0.00     0.186 HD
HETATM   11  N   UNL     1      10.608  39.109   3.760  1.00  0.00    -0.331 N 
HETATM   12  N   UNL     1      10.174  39.948   1.784  1.00  0.00    -0.346 N 
ATOM     13  HN  UNL     1       9.985  40.616   1.036  1.00  0.00     0.167 HD
ENDROOT
BRANCH   1  14
HETATM   14  N   UNL     1       9.773  38.126  -0.774  1.00  0.00    -0.378 N 
HETATM   15  C   UNL     1      10.766  38.847  -1.569  1.00  0.00     0.147 C 
ATOM     16  HN  UNL     1       8.849  37.950  -1.166  1.00  0.00     0.160 HD
ENDBRANCH   1  14
BRANCH   4  17
HETATM   17  N   UNL     1      10.576  34.469   2.229  1.00  0.00    -0.230 N 
HETATM   18  C   UNL     1       9.516  33.747   2.920  1.00  0.00     0.165 C 
ATOM     19  HN  UNL     1      11.394  33.965   1.888  1.00  0.00     0.177 HD
ENDBRANCH   4  17
TORSDOF 2
ENDMDL
MODEL 6
REMARK VINA RESULT:    -4.890     14.654     15.941
REMARK INTER + INTRA:          -5.559
REMARK INTER:                  -5.500
REMARK INTRA:                  -0.058
REMARK UNBOUND:                -0.097
REMARK  2 active torsions:
REMARK  status: ('A' for Active; 'I' for Inactive)
REMARK    1  A    between atoms: C_3  and  N_9 
REMARK    2  A    between atoms: C_6  and  N_15 
ROOT
HETATM    1  C   UNL     1      24.397  35.697  -5.032  1.00  0.00     0.147 A 
HETATM    2  C   UNL     1      25.495  35.396  -5.906  1.00  0.00     0.123 A 
HETATM    3  C   UNL     1      26.594  36.223  -5.860  1.00  0.00     0.154 A 
HETATM    4  C   UNL     1      25.560  37.530  -4.221  1.00  0.00     0.681 A 
HETATM    5  C   UNL     1      26.980  34.666  -7.353  1.00  0.00     0.184 A 
HETATM    6  C   UNL     1      28.788  36.387  -7.032  1.00  0.00     0.158 C 
HETATM    7  N   UNL     1      26.597  37.280  -5.013  1.00  0.00    -0.174 N 
ATOM      8  HN  UNL     1      27.409  37.896  -4.982  1.00  0.00     0.186 HD
HETATM    9  N   UNL     1      24.481  36.743  -4.223  1.00  0.00    -0.175 N 
ATOM     10  HN  UNL     1      23.708  36.951  -3.591  1.00  0.00     0.186 HD
HETATM   11  N   UNL     1      27.493  35.763  -6.765  1.00  0.00    -0.331 N 
HETATM   12  N   UNL     1      25.758  34.428  -6.843  1.00  0.00    -0.346 N 
ATOM     13  HN  UNL     1      25.136  33.664  -7.106  1.00  0.00     0.167 HD
ENDROOT
BRANCH   1  14
HETATM   14  N   UNL     1      23.201  34.875  -5.031  1.00  0.00    -0.378 N 
HETATM   15  C   UNL     1      23.248  33.470  -4.630  1.00  0.00     0.147 C 
ATOM     16  HN  UNL     1      22.311  35.286  -5.316  1.00  0.00     0.160 HD
ENDBRANCH   1  14
BRANCH   4  17
HETATM   17  N   UNL     1      25.586  38.682  -3.341  1.00  0.00    -0.230 N 
HETATM   18  C   UNL     1      25.046  39.959  -3.786  1.00  0.00     0.165 C 
ATOM     19  HN  UNL     1      25.985  38.597  -2.406  1.00  0.00     0.177 HD
ENDBRANCH   4  17
TORSDOF 2
ENDMDL
MODEL 7
REMARK VINA RESULT:    -4.861     10.237     11.662
REMARK INTER + INTRA:          -5.526
REMARK INTER:                  -5.426
REMARK INTRA:                  -0.101
REMARK UNBOUND:                -0.097
REMARK  2 active torsions:
REMARK  status: ('A' for Active; 'I' for Inactive)
REMARK    1  A    between atoms: C_3  and  N_9 
REMARK    2  A    between atoms: C_6  and  N_15 
ROOT
HETATM    1  C   UNL     1      26.138  26.450   6.125  1.00  0.00     0.147 A 
HETATM    2  C   UNL     1      26.465  25.495   7.145  1.00  0.00     0.123 A 
HETATM    3  C   UNL     1      26.969  25.973   8.332  1.00  0.00     0.154 A 
HETATM    4  C   UNL     1      26.835  28.162   7.522  1.00  0.00     0.681 A 
HETATM    5  C   UNL     1      26.858  23.789   8.476  1.00  0.00     0.184 A 
HETATM    6  C   UNL     1      27.777  25.001  10.481  1.00  0.00     0.158 C 
HETATM    7  N   UNL     1      27.145  27.307   8.491  1.00  0.00    -0.174 N 
ATOM      8  HN  UNL     1      27.523  27.662   9.369  1.00  0.00     0.186 HD
HETATM    9  N   UNL     1      26.329  27.740   6.362  1.00  0.00    -0.175 N 
ATOM     10  HN  UNL     1      26.084  28.422   5.644  1.00  0.00     0.186 HD
HETATM   11  N   UNL     1      27.214  24.908   9.134  1.00  0.00    -0.331 N 
HETATM   12  N   UNL     1      26.401  24.128   7.256  1.00  0.00    -0.346 N 
ATOM     13  HN  UNL     1      26.066  23.483   6.540  1.00  0.00     0.167 HD
ENDROOT
BRANCH   1  14
HETATM   14  N   UNL     1      25.611  26.019   4.843  1.00  0.00    -0.378 N 
HETATM   15  C   UNL     1      26.465  25.355   3.859  1.00  0.00     0.147 C 
ATOM     16  HN  UNL     1      24.628  26.182   4.625  1.00  0.00     0.160 HD
ENDBRANCH   1  14
BRANCH   4  17
HETATM   17  N   UNL     1      27.055  29.582   7.717  1.00  0.00    -0.230 N 
HETATM   18  C   UNL     1      28.323  30.062   8.250  1.00  0.00     0.165 C 
ATOM     19  HN  UNL     1      26.319  30.247   7.480  1.00  0.00     0.177 HD
ENDBRANCH   4  17
TORSDOF 2
ENDMDL
MODEL 8
REMARK VINA RESULT:    -4.844     13.677     14.768
REMARK INTER + INTRA:          -5.507
REMARK INTER:                  -5.471
REMARK INTRA:                  -0.036
REMARK UNBOUND:                -0.097
REMARK  2 active torsions:
REMARK  status: ('A' for Active; 'I' for Inactive)
REMARK    1  A    between atoms: C_3  and  N_9 
REMARK    2  A    between atoms: C_6  and  N_15 
ROOT
HETATM    1  C   UNL     1      24.309  33.015  -5.502  1.00  0.00     0.147 A 
HETATM    2  C   UNL     1      25.485  33.605  -6.074  1.00  0.00     0.123 A 
HETATM    3  C   UNL     1      25.658  34.962  -5.923  1.00  0.00     0.154 A 
HETATM    4  C   UNL     1      23.645  35.101  -4.743  1.00  0.00     0.681 A 
HETATM    5  C   UNL     1      27.363  34.185  -7.059  1.00  0.00     0.184 A 
HETATM    6  C   UNL     1      27.340  36.663  -6.623  1.00  0.00     0.158 C 
HETATM    7  N   UNL     1      24.723  35.682  -5.257  1.00  0.00    -0.174 N 
ATOM      8  HN  UNL     1      24.850  36.688  -5.148  1.00  0.00     0.186 HD
HETATM    9  N   UNL     1      23.447  33.785  -4.855  1.00  0.00    -0.175 N 
ATOM     10  HN  UNL     1      22.618  33.366  -4.435  1.00  0.00     0.186 HD
HETATM   11  N   UNL     1      26.815  35.300  -6.544  1.00  0.00    -0.331 N 
HETATM   12  N   UNL     1      26.562  33.138  -6.785  1.00  0.00    -0.346 N 
ATOM     13  HN  UNL     1      26.727  32.169  -7.057  1.00  0.00     0.167 HD
ENDROOT
BRANCH   1  14
HETATM   14  N   UNL     1      24.053  31.592  -5.630  1.00  0.00    -0.378 N 
HETATM   15  C   UNL     1      23.923  30.962  -6.943  1.00  0.00     0.147 C 
ATOM     16  HN  UNL     1      23.963  31.021  -4.790  1.00  0.00     0.160 HD
ENDBRANCH   1  14
BRANCH   4  17
HETATM   17  N   UNL     1      22.653  35.904  -4.054  1.00  0.00    -0.230 N 
HETATM   18  C   UNL     1      23.052  36.790  -2.968  1.00  0.00     0.165 C 
ATOM     19  HN  UNL     1      21.673  35.848  -4.331  1.00  0.00     0.177 HD
ENDBRANCH   4  17
TORSDOF 2
ENDMDL
MODEL 9
REMARK VINA RESULT:    -4.794      5.112      7.854
REMARK INTER + INTRA:          -5.451
REMARK INTER:                  -5.355
REMARK INTRA:                  -0.096
REMARK UNBOUND:                -0.097
REMARK  2 active torsions:
REMARK  status: ('A' for Active; 'I' for Inactive)
REMARK    1  A    between atoms: C_3  and  N_9 
REMARK    2  A    between atoms: C_6  and  N_15 
ROOT
HETATM    1  C   UNL     1       9.317  30.230   5.059  1.00  0.00     0.147 A 
HETATM    2  C   UNL     1       9.486  30.638   6.424  1.00  0.00     0.123 A 
HETATM    3  C   UNL     1      10.761  30.931   6.851  1.00  0.00     0.154 A 
HETATM    4  C   UNL     1      11.601  30.432   4.728  1.00  0.00     0.681 A 
HETATM    5  C   UNL     1       9.398  31.222   8.542  1.00  0.00     0.184 A 
HETATM    6  C   UNL     1      11.840  31.641   8.983  1.00  0.00     0.158 C 
HETATM    7  N   UNL     1      11.796  30.817   5.984  1.00  0.00    -0.174 N 
ATOM      8  HN  UNL     1      12.741  31.029   6.301  1.00  0.00     0.186 HD
HETATM    9  N   UNL     1      10.378  30.154   4.270  1.00  0.00    -0.175 N 
ATOM     10  HN  UNL     1      10.260  29.878   3.295  1.00  0.00     0.186 HD
HETATM   11  N   UNL     1      10.687  31.278   8.159  1.00  0.00    -0.331 N 
HETATM   12  N   UNL     1       8.649  30.828   7.495  1.00  0.00    -0.346 N 
ATOM     13  HN  UNL     1       7.638  30.695   7.497  1.00  0.00     0.167 HD
ENDROOT
BRANCH   1  14
HETATM   14  N   UNL     1       8.003  29.895   4.540  1.00  0.00    -0.378 N 
HETATM   15  C   UNL     1       7.351  30.733   3.535  1.00  0.00     0.147 C 
ATOM     16  HN  UNL     1       7.527  29.061   4.883  1.00  0.00     0.160 HD
ENDBRANCH   1  14
BRANCH   4  17
HETATM   17  N   UNL     1      12.733  30.300   3.831  1.00  0.00    -0.230 N 
HETATM   18  C   UNL     1      14.077  30.621   4.293  1.00  0.00     0.165 C 
ATOM     19  HN  UNL     1      12.588  29.981   2.873  1.00  0.00     0.177 HD
ENDBRANCH   4  17
TORSDOF 2
ENDMDL
MODEL 10
REMARK VINA RESULT:    -4.780     13.975     15.156
REMARK INTER + INTRA:          -5.435
REMARK INTER:                  -5.345
REMARK INTRA:                  -0.090
REMARK UNBOUND:                -0.097
REMARK  2 active torsions:
REMARK  status: ('A' for Active; 'I' for Inactive)
REMARK    1  A    between atoms: C_3  and  N_9 
REMARK    2  A    between atoms: C_6  and  N_15 
ROOT
HETATM    1  C   UNL     1      24.071  35.099  -5.120  1.00  0.00     0.147 A 
HETATM    2  C   UNL     1      24.328  33.742  -5.512  1.00  0.00     0.123 A 
HETATM    3  C   UNL     1      25.434  33.501  -6.293  1.00  0.00     0.154 A 
HETATM    4  C   UNL     1      25.952  35.780  -6.289  1.00  0.00     0.681 A 
HETATM    5  C   UNL     1      24.430  31.587  -5.931  1.00  0.00     0.184 A 
HETATM    6  C   UNL     1      26.494  31.518  -7.369  1.00  0.00     0.158 C 
HETATM    7  N   UNL     1      26.224  34.536  -6.668  1.00  0.00    -0.174 N 
ATOM      8  HN  UNL     1      27.041  34.358  -7.250  1.00  0.00     0.186 HD
HETATM    9  N   UNL     1      24.898  36.055  -5.517  1.00  0.00    -0.175 N 
ATOM     10  HN  UNL     1      24.726  37.018  -5.229  1.00  0.00     0.186 HD
HETATM   11  N   UNL     1      25.474  32.170  -6.549  1.00  0.00    -0.331 N 
HETATM   12  N   UNL     1      23.715  32.534  -5.295  1.00  0.00    -0.346 N 
ATOM     13  HN  UNL     1      22.869  32.380  -4.747  1.00  0.00     0.167 HD
ENDROOT
BRANCH   1  14
HETATM   14  N   UNL     1      22.918  35.432  -4.304  1.00  0.00    -0.378 N 
HETATM   15  C   UNL     1      23.002  36.442  -3.250  1.00  0.00     0.147 C 
ATOM     16  HN  UNL     1      22.032  34.953  -4.469  1.00  0.00     0.160 HD
ENDBRANCH   1  14
BRANCH   4  17
HETATM   17  N   UNL     1      26.806  36.868  -6.723  1.00  0.00    -0.230 N 
HETATM   18  C   UNL     1      28.153  36.596  -7.208  1.00  0.00     0.165 C 
ATOM     19  HN  UNL     1      26.463  37.828  -6.689  1.00  0.00     0.177 HD
ENDBRANCH   4  17
TORSDOF 2
ENDMDL
MODEL 11
REMARK VINA RESULT:    -4.759     10.639     11.871
REMARK INTER + INTRA:          -5.412
REMARK INTER:                  -5.306
REMARK INTRA:                  -0.107
REMARK UNBOUND:                -0.097
REMARK  2 active torsions:
REMARK  status: ('A' for Active; 'I' for Inactive)
REMARK    1  A    between atoms: C_3  and  N_9 
REMARK    2  A    between atoms: C_6  and  N_15 
ROOT
HETATM    1  C   UNL     1      26.309  25.196   6.094  1.00  0.00     0.147 A 
HETATM    2  C   UNL     1      26.510  26.394   6.859  1.00  0.00     0.123 A 
HETATM    3  C   UNL     1      26.721  26.262   8.212  1.00  0.00     0.154 A 
HETATM    4  C   UNL     1      26.530  23.940   8.028  1.00  0.00     0.681 A 
HETATM    5  C   UNL     1      26.776  28.398   7.725  1.00  0.00     0.184 A 
HETATM    6  C   UNL     1      27.097  27.790  10.146  1.00  0.00     0.158 C 
HETATM    7  N   UNL     1      26.723  25.026   8.768  1.00  0.00    -0.174 N 
ATOM      8  HN  UNL     1      26.875  24.928   9.771  1.00  0.00     0.186 HD
HETATM    9  N   UNL     1      26.337  24.023   6.710  1.00  0.00    -0.175 N 
ATOM     10  HN  UNL     1      26.209  23.169   6.168  1.00  0.00     0.186 HD
HETATM   11  N   UNL     1      26.873  27.506   8.728  1.00  0.00    -0.331 N 
HETATM   12  N   UNL     1      26.551  27.736   6.574  1.00  0.00    -0.346 N 
ATOM     13  HN  UNL     1      26.431  28.158   5.653  1.00  0.00     0.167 HD
ENDROOT
BRANCH   1  14
HETATM   14  N   UNL     1      26.071  25.258   4.664  1.00  0.00    -0.378 N 
HETATM   15  C   UNL     1      27.174  25.427   3.720  1.00  0.00     0.147 C 
ATOM     16  HN  UNL     1      25.117  25.182   4.312  1.00  0.00     0.160 HD
ENDBRANCH   1  14
BRANCH   4  17
HETATM   17  N   UNL     1      26.518  22.633   8.658  1.00  0.00    -0.230 N 
HETATM   18  C   UNL     1      27.522  21.638   8.305  1.00  0.00     0.165 C 
ATOM     19  HN  UNL     1      25.803  22.410   9.350  1.00  0.00     0.177 HD
ENDBRANCH   4  17
TORSDOF 2
ENDMDL
MODEL 12
REMARK VINA RESULT:    -4.757     15.081     16.665
REMARK INTER + INTRA:          -5.409
REMARK INTER:                  -5.321
REMARK INTRA:                  -0.088
REMARK UNBOUND:                -0.097
REMARK  2 active torsions:
REMARK  status: ('A' for Active; 'I' for Inactive)
REMARK    1  A    between atoms: C_3  and  N_9 
REMARK    2  A    between atoms: C_6  and  N_15 
ROOT
HETATM    1  C   UNL     1      24.834  37.635  -3.791  1.00  0.00     0.147 A 
HETATM    2  C   UNL     1      25.284  38.762  -4.559  1.00  0.00     0.123 A 
HETATM    3  C   UNL     1      25.845  38.513  -5.790  1.00  0.00     0.154 A 
HETATM    4  C   UNL     1      25.535  36.217  -5.484  1.00  0.00     0.681 A 
HETATM    5  C   UNL     1      25.862  40.680  -5.463  1.00  0.00     0.184 A 
HETATM    6  C   UNL     1      26.856  39.863  -7.627  1.00  0.00     0.158 C 
HETATM    7  N   UNL     1      25.960  37.235  -6.224  1.00  0.00    -0.174 N 
ATOM      8  HN  UNL     1      26.380  37.050  -7.135  1.00  0.00     0.186 HD
HETATM    9  N   UNL     1      24.971  36.416  -4.290  1.00  0.00    -0.175 N 
ATOM     10  HN  UNL     1      24.639  35.615  -3.754  1.00  0.00     0.186 HD
HETATM   11  N   UNL     1      26.203  39.706  -6.327  1.00  0.00    -0.331 N 
HETATM   12  N   UNL     1      25.301  40.121  -4.375  1.00  0.00    -0.346 N 
ATOM     13  HN  UNL     1      24.951  40.621  -3.557  1.00  0.00     0.167 HD
ENDROOT
BRANCH   1  14
HETATM   14  N   UNL     1      24.241  37.819  -2.480  1.00  0.00    -0.378 N 
HETATM   15  C   UNL     1      22.952  37.216  -2.141  1.00  0.00     0.147 C 
ATOM     16  HN  UNL     1      24.732  38.378  -1.782  1.00  0.00     0.160 HD
ENDBRANCH   1  14
BRANCH   4  17
HETATM   17  N   UNL     1      25.692  34.859  -5.969  1.00  0.00    -0.230 N 
HETATM   18  C   UNL     1      24.612  33.894  -5.812  1.00  0.00     0.165 C 
ATOM     19  HN  UNL     1      26.562  34.579  -6.421  1.00  0.00     0.177 HD
ENDBRANCH   4  17
TORSDOF 2
ENDMDL
MODEL 13
REMARK VINA RESULT:    -4.696     14.672     16.059
REMARK INTER + INTRA:          -5.341
REMARK INTER:                  -5.253
REMARK INTRA:                  -0.089
REMARK UNBOUND:                -0.097
REMARK  2 active torsions:
REMARK  status: ('A' for Active; 'I' for Inactive)
REMARK    1  A    between atoms: C_3  and  N_9 
REMARK    2  A    between atoms: C_6  and  N_15 
ROOT
HETATM    1  C   UNL     1      25.409  37.464  -4.535  1.00  0.00     0.147 A 
HETATM    2  C   UNL     1      24.656  36.257  -4.725  1.00  0.00     0.123 A 
HETATM    3  C   UNL     1      25.149  35.328  -5.613  1.00  0.00     0.154 A 
HETATM    4  C   UNL     1      26.973  36.717  -6.072  1.00  0.00     0.681 A 
HETATM    5  C   UNL     1      23.278  34.545  -4.784  1.00  0.00     0.184 A 
HETATM    6  C   UNL     1      24.444  33.102  -6.485  1.00  0.00     0.158 C 
HETATM    7  N   UNL     1      26.305  35.586  -6.272  1.00  0.00    -0.174 N 
ATOM      8  HN  UNL     1      26.668  34.900  -6.933  1.00  0.00     0.186 HD
HETATM    9  N   UNL     1      26.537  37.636  -5.209  1.00  0.00    -0.175 N 
ATOM     10  HN  UNL     1      27.081  38.486  -5.065  1.00  0.00     0.186 HD
HETATM   11  N   UNL     1      24.282  34.287  -5.642  1.00  0.00    -0.331 N 
HETATM   12  N   UNL     1      23.488  35.747  -4.216  1.00  0.00    -0.346 N 
ATOM     13  HN  UNL     1      22.885  36.200  -3.529  1.00  0.00     0.167 HD
ENDROOT
BRANCH   1  14
HETATM   14  N   UNL     1      24.946  38.493  -3.622  1.00  0.00    -0.378 N 
HETATM   15  C   UNL     1      25.113  39.912  -3.934  1.00  0.00     0.147 C 
ATOM     16  HN  UNL     1      24.496  38.222  -2.748  1.00  0.00     0.160 HD
ENDBRANCH   1  14
BRANCH   4  17
HETATM   17  N   UNL     1      28.196  36.970  -6.809  1.00  0.00    -0.230 N 
HETATM   18  C   UNL     1      28.344  36.486  -8.175  1.00  0.00     0.165 C 
ATOM     19  HN  UNL     1      28.955  37.490  -6.369  1.00  0.00     0.177 HD
ENDBRANCH   4  17
TORSDOF 2
ENDMDL
MODEL 14
REMARK VINA RESULT:    -4.665      6.050      9.369
REMARK INTER + INTRA:          -5.307
REMARK INTER:                  -5.196
REMARK INTRA:                  -0.111
REMARK UNBOUND:                -0.097
REMARK  2 active torsions:
REMARK  status: ('A' for Active; 'I' for Inactive)
REMARK    1  A    between atoms: C_3  and  N_9 
REMARK    2  A    between atoms: C_6  and  N_15 
ROOT
HETATM    1  C   UNL     1       8.067  30.340   6.739  1.00  0.00     0.147 A 
HETATM    2  C   UNL     1       9.495  30.465   6.657  1.00  0.00     0.123 A 
HETATM    3  C   UNL     1      10.059  30.536   5.404  1.00  0.00     0.154 A 
HETATM    4  C   UNL     1       7.944  30.356   4.426  1.00  0.00     0.681 A 
HETATM    5  C   UNL     1      11.674  30.649   6.882  1.00  0.00     0.184 A 
HETATM    6  C   UNL     1      12.360  30.716   4.461  1.00  0.00     0.158 C 
HETATM    7  N   UNL     1       9.262  30.476   4.310  1.00  0.00    -0.174 N 
ATOM      8  HN  UNL     1       9.681  30.523   3.382  1.00  0.00     0.186 HD
HETATM    9  N   UNL     1       7.355  30.300   5.623  1.00  0.00    -0.175 N 
ATOM     10  HN  UNL     1       6.340  30.225   5.678  1.00  0.00     0.186 HD
HETATM   11  N   UNL     1      11.402  30.638   5.564  1.00  0.00    -0.331 N 
HETATM   12  N   UNL     1      10.520  30.540   7.566  1.00  0.00    -0.346 N 
ATOM     13  HN  UNL     1      10.424  30.518   8.581  1.00  0.00     0.167 HD
ENDROOT
BRANCH   1  14
HETATM   14  N   UNL     1       7.402  30.251   8.026  1.00  0.00    -0.378 N 
HETATM   15  C   UNL     1       7.134  31.446   8.824  1.00  0.00     0.147 C 
ATOM     16  HN  UNL     1       7.115  29.338   8.379  1.00  0.00     0.160 HD
ENDBRANCH   1  14
BRANCH   4  17
HETATM   17  N   UNL     1       7.121  30.274   3.234  1.00  0.00    -0.230 N 
HETATM   18  C   UNL     1       5.864  31.006   3.159  1.00  0.00     0.165 C 
ATOM     19  HN  UNL     1       7.424  29.701   2.447  1.00  0.00     0.177 HD
ENDBRANCH   4  17
TORSDOF 2
ENDMDL
MODEL 15
REMARK VINA RESULT:    -4.629      5.279      7.766
REMARK INTER + INTRA:          -5.267
REMARK INTER:                  -5.172
REMARK INTRA:                  -0.095
REMARK UNBOUND:                -0.097
REMARK  2 active torsions:
REMARK  status: ('A' for Active; 'I' for Inactive)
REMARK    1  A    between atoms: C_3  and  N_9 
REMARK    2  A    between atoms: C_6  and  N_15 
ROOT
HETATM    1  C   UNL     1      10.723  31.352   6.852  1.00  0.00     0.147 A 
HETATM    2  C   UNL     1       9.384  31.319   6.336  1.00  0.00     0.123 A 
HETATM    3  C   UNL     1       9.212  30.925   5.029  1.00  0.00     0.154 A 
HETATM    4  C   UNL     1      11.520  30.642   4.796  1.00  0.00     0.681 A 
HETATM    5  C   UNL     1       7.238  31.380   5.864  1.00  0.00     0.184 A 
HETATM    6  C   UNL     1       7.298  30.652   3.455  1.00  0.00     0.158 C 
HETATM    7  N   UNL     1      10.296  30.595   4.285  1.00  0.00    -0.174 N 
ATOM      8  HN  UNL     1      10.168  30.307   3.315  1.00  0.00     0.186 HD
HETATM    9  N   UNL     1      11.729  31.004   6.064  1.00  0.00    -0.175 N 
ATOM     10  HN  UNL     1      12.680  31.013   6.432  1.00  0.00     0.186 HD
HETATM   11  N   UNL     1       7.885  30.978   4.755  1.00  0.00    -0.331 N 
HETATM   12  N   UNL     1       8.139  31.597   6.840  1.00  0.00    -0.346 N 
ATOM     13  HN  UNL     1       7.932  31.912   7.788  1.00  0.00     0.167 HD
ENDROOT
BRANCH   1  14
HETATM   14  N   UNL     1      10.983  31.768   8.218  1.00  0.00    -0.378 N 
HETATM   15  C   UNL     1      12.310  31.621   8.814  1.00  0.00     0.147 C 
ATOM     16  HN  UNL     1      10.227  32.170   8.772  1.00  0.00     0.160 HD
ENDBRANCH   1  14
BRANCH   4  17
HETATM   17  N   UNL     1      12.660  30.303   3.966  1.00  0.00    -0.230 N 
HETATM   18  C   UNL     1      14.010  30.638   4.400  1.00  0.00     0.165 C 
ATOM     19  HN  UNL     1      12.516  29.828   3.075  1.00  0.00     0.177 HD
ENDBRANCH   4  17
TORSDOF 2
ENDMDL
MODEL 16
REMARK VINA RESULT:    -4.621     11.293     13.000
REMARK INTER + INTRA:          -5.258
REMARK INTER:                  -5.177
REMARK INTRA:                  -0.081
REMARK UNBOUND:                -0.097
REMARK  2 active torsions:
REMARK  status: ('A' for Active; 'I' for Inactive)
REMARK    1  A    between atoms: C_3  and  N_9 
REMARK    2  A    between atoms: C_6  and  N_15 
ROOT
HETATM    1  C   UNL     1      18.721  32.460  14.428  1.00  0.00     0.147 A 
HETATM    2  C   UNL     1      20.151  32.460  14.555  1.00  0.00     0.123 A 
HETATM    3  C   UNL     1      20.754  31.303  14.991  1.00  0.00     0.154 A 
HETATM    4  C   UNL     1      18.667  30.263  15.162  1.00  0.00     0.681 A 
HETATM    5  C   UNL     1      22.322  32.793  14.642  1.00  0.00     0.184 A 
HETATM    6  C   UNL     1      23.076  30.545  15.486  1.00  0.00     0.158 C 
HETATM    7  N   UNL     1      19.989  30.224  15.289  1.00  0.00    -0.174 N 
ATOM      8  HN  UNL     1      20.435  29.368  15.616  1.00  0.00     0.186 HD
HETATM    9  N   UNL     1      18.044  31.361  14.727  1.00  0.00    -0.175 N 
ATOM     10  HN  UNL     1      17.030  31.353  14.624  1.00  0.00     0.186 HD
HETATM   11  N   UNL     1      22.089  31.531  15.047  1.00  0.00    -0.331 N 
HETATM   12  N   UNL     1      21.148  33.378  14.340  1.00  0.00    -0.346 N 
ATOM     13  HN  UNL     1      21.021  34.334  14.010  1.00  0.00     0.167 HD
ENDROOT
BRANCH   1  14
HETATM   14  N   UNL     1      18.014  33.647  13.983  1.00  0.00    -0.378 N 
HETATM   15  C   UNL     1      17.062  33.590  12.875  1.00  0.00     0.147 C 
ATOM     16  HN  UNL     1      18.185  34.537  14.452  1.00  0.00     0.160 HD
ENDBRANCH   1  14
BRANCH   4  17
HETATM   17  N   UNL     1      17.876  29.098  15.508  1.00  0.00    -0.230 N 
HETATM   18  C   UNL     1      17.682  28.028  14.539  1.00  0.00     0.165 C 
ATOM     19  HN  UNL     1      17.454  29.028  16.434  1.00  0.00     0.177 HD
ENDBRANCH   4  17
TORSDOF 2
ENDMDL
MODEL 17
REMARK VINA RESULT:    -4.601     14.618     16.057
REMARK INTER + INTRA:          -5.235
REMARK INTER:                  -5.138
REMARK INTRA:                  -0.097
REMARK UNBOUND:                -0.097
REMARK  2 active torsions:
REMARK  status: ('A' for Active; 'I' for Inactive)
REMARK    1  A    between atoms: C_3  and  N_9 
REMARK    2  A    between atoms: C_6  and  N_15 
ROOT
HETATM    1  C   UNL     1      26.702  36.461  -6.146  1.00  0.00     0.147 A 
HETATM    2  C   UNL     1      26.025  37.215  -5.130  1.00  0.00     0.123 A 
HETATM    3  C   UNL     1      24.887  36.671  -4.580  1.00  0.00     0.154 A 
HETATM    4  C   UNL     1      25.098  34.799  -5.964  1.00  0.00     0.681 A 
HETATM    5  C   UNL     1      25.241  38.609  -3.621  1.00  0.00     0.184 A 
HETATM    6  C   UNL     1      23.200  37.341  -2.872  1.00  0.00     0.158 C 
HETATM    7  N   UNL     1      24.447  35.467  -5.018  1.00  0.00    -0.174 N 
ATOM      8  HN  UNL     1      23.601  35.065  -4.615  1.00  0.00     0.186 HD
HETATM    9  N   UNL     1      26.215  35.285  -6.512  1.00  0.00    -0.175 N 
ATOM     10  HN  UNL     1      26.701  34.740  -7.224  1.00  0.00     0.186 HD
HETATM   11  N   UNL     1      24.414  37.548  -3.662  1.00  0.00    -0.331 N 
HETATM   12  N   UNL     1      26.231  38.425  -4.515  1.00  0.00    -0.346 N 
ATOM     13  HN  UNL     1      26.998  39.070  -4.702  1.00  0.00     0.167 HD
ENDROOT
BRANCH   1  14
HETATM   14  N   UNL     1      27.903  36.976  -6.778  1.00  0.00    -0.378 N 
HETATM   15  C   UNL     1      27.844  38.094  -7.717  1.00  0.00     0.147 C 
ATOM     16  HN  UNL     1      28.804  36.549  -6.563  1.00  0.00     0.160 HD
ENDBRANCH   1  14
BRANCH   4  17
HETATM   17  N   UNL     1      24.589  33.522  -6.425  1.00  0.00    -0.230 N 
HETATM   18  C   UNL     1      24.255  32.476  -5.467  1.00  0.00     0.165 C 
ATOM     19  HN  UNL     1      24.464  33.355  -7.423  1.00  0.00     0.177 HD
ENDBRANCH   4  17
TORSDOF 2
ENDMDL
MODEL 18
REMARK VINA RESULT:    -4.601     11.536     12.100
REMARK INTER + INTRA:          -5.235
REMARK INTER:                  -5.144
REMARK INTRA:                  -0.091
REMARK UNBOUND:                -0.097
REMARK  2 active torsions:
REMARK  status: ('A' for Active; 'I' for Inactive)
REMARK    1  A    between atoms: C_3  and  N_9 
REMARK    2  A    between atoms: C_6  and  N_15 
ROOT
HETATM    1  C   UNL     1      20.892  30.221  14.287  1.00  0.00     0.147 A 
HETATM    2  C   UNL     1      19.733  29.463  14.663  1.00  0.00     0.123 A 
HETATM    3  C   UNL     1      19.819  28.091  14.601  1.00  0.00     0.154 A 
HETATM    4  C   UNL     1      22.024  28.249  13.841  1.00  0.00     0.681 A 
HETATM    5  C   UNL     1      17.807  28.612  15.295  1.00  0.00     0.184 A 
HETATM    6  C   UNL     1      18.304  26.159  15.033  1.00  0.00     0.158 C 
HETATM    7  N   UNL     1      20.973  27.514  14.185  1.00  0.00    -0.174 N 
ATOM      8  HN  UNL     1      21.035  26.497  14.135  1.00  0.00     0.186 HD
HETATM    9  N   UNL     1      21.987  29.582  13.902  1.00  0.00    -0.175 N 
ATOM     10  HN  UNL     1      22.817  30.118  13.648  1.00  0.00     0.186 HD
HETATM   11  N   UNL     1      18.621  27.586  14.985  1.00  0.00    -0.331 N 
HETATM   12  N   UNL     1      18.469  29.768  15.101  1.00  0.00    -0.346 N 
ATOM     13  HN  UNL     1      18.097  30.705  15.253  1.00  0.00     0.167 HD
ENDROOT
BRANCH   1  14
HETATM   14  N   UNL     1      20.873  31.672  14.317  1.00  0.00    -0.378 N 
HETATM   15  C   UNL     1      22.083  32.439  14.613  1.00  0.00     0.147 C 
ATOM     16  HN  UNL     1      20.001  32.165  14.128  1.00  0.00     0.160 HD
ENDBRANCH   1  14
BRANCH   4  17
HETATM   17  N   UNL     1      23.237  27.601  13.381  1.00  0.00    -0.230 N 
HETATM   18  C   UNL     1      23.385  26.156  13.493  1.00  0.00     0.165 C 
ATOM     19  HN  UNL     1      23.989  28.159  12.977  1.00  0.00     0.177 HD
ENDBRANCH   4  17
TORSDOF 2
ENDMDL
MODEL 19
REMARK VINA RESULT:    -4.573     10.489     12.250
REMARK INTER + INTRA:          -5.204
REMARK INTER:                  -5.129
REMARK INTRA:                  -0.076
REMARK UNBOUND:                -0.097
REMARK  2 active torsions:
REMARK  status: ('A' for Active; 'I' for Inactive)
REMARK    1  A    between atoms: C_3  and  N_9 
REMARK    2  A    between atoms: C_6  and  N_15 
ROOT
HETATM    1  C   UNL     1      26.746  28.047   7.799  1.00  0.00     0.147 A 
HETATM    2  C   UNL     1      26.700  27.464   9.110  1.00  0.00     0.123 A 
HETATM    3  C   UNL     1      26.545  26.099   9.197  1.00  0.00     0.154 A 
HETATM    4  C   UNL     1      26.477  25.944   6.866  1.00  0.00     0.681 A 
HETATM    5  C   UNL     1      26.666  26.898  11.234  1.00  0.00     0.184 A 
HETATM    6  C   UNL     1      26.344  24.411  11.021  1.00  0.00     0.158 C 
HETATM    7  N   UNL     1      26.434  25.368   8.062  1.00  0.00    -0.174 N 
ATOM      8  HN  UNL     1      26.315  24.357   8.127  1.00  0.00     0.186 HD
HETATM    9  N   UNL     1      26.642  27.262   6.737  1.00  0.00    -0.175 N 
ATOM     10  HN  UNL     1      26.689  27.673   5.805  1.00  0.00     0.186 HD
HETATM   11  N   UNL     1      26.517  25.772  10.513  1.00  0.00    -0.331 N 
HETATM   12  N   UNL     1      26.776  27.944  10.393  1.00  0.00    -0.346 N 
ATOM     13  HN  UNL     1      26.895  28.920  10.663  1.00  0.00     0.167 HD
ENDROOT
BRANCH   1  14
HETATM   14  N   UNL     1      26.897  29.481   7.629  1.00  0.00    -0.378 N 
HETATM   15  C   UNL     1      28.115  30.169   8.055  1.00  0.00     0.147 C 
ATOM     16  HN  UNL     1      26.141  30.017   7.204  1.00  0.00     0.160 HD
ENDBRANCH   1  14
BRANCH   4  17
HETATM   17  N   UNL     1      26.335  25.135   5.671  1.00  0.00    -0.230 N 
HETATM   18  C   UNL     1      26.037  25.762   4.390  1.00  0.00     0.165 C 
ATOM     19  HN  UNL     1      26.444  24.122   5.728  1.00  0.00     0.177 HD
ENDBRANCH   4  17
TORSDOF 2
ENDMDL
MODEL 20
REMARK VINA RESULT:    -4.377      6.238      8.921
REMARK INTER + INTRA:          -4.985
REMARK INTER:                  -4.897
REMARK INTRA:                  -0.088
REMARK UNBOUND:                -0.097
REMARK  2 active torsions:
REMARK  status: ('A' for Active; 'I' for Inactive)
REMARK    1  A    between atoms: C_3  and  N_9 
REMARK    2  A    between atoms: C_6  and  N_15 
ROOT
HETATM    1  C   UNL     1       8.366  30.250   4.725  1.00  0.00     0.147 A 
HETATM    2  C   UNL     1       7.807  30.340   6.044  1.00  0.00     0.123 A 
HETATM    3  C   UNL     1       8.670  30.568   7.091  1.00  0.00     0.154 A 
HETATM    4  C   UNL     1      10.479  30.595   5.611  1.00  0.00     0.681 A 
HETATM    5  C   UNL     1       6.641  30.420   7.906  1.00  0.00     0.184 A 
HETATM    6  C   UNL     1       8.494  30.805   9.566  1.00  0.00     0.158 C 
HETATM    7  N   UNL     1       9.997  30.688   6.846  1.00  0.00    -0.174 N 
ATOM      8  HN  UNL     1      10.637  30.852   7.622  1.00  0.00     0.186 HD
HETATM    9  N   UNL     1       9.674  30.390   4.566  1.00  0.00    -0.175 N 
ATOM     10  HN  UNL     1      10.073  30.341   3.629  1.00  0.00     0.186 HD
HETATM   11  N   UNL     1       7.935  30.604   8.229  1.00  0.00    -0.331 N 
HETATM   12  N   UNL     1       6.544  30.254   6.574  1.00  0.00    -0.346 N 
ATOM     13  HN  UNL     1       5.683  30.092   6.051  1.00  0.00     0.167 HD
ENDROOT
BRANCH   1  14
HETATM   14  N   UNL     1       7.519  30.002   3.573  1.00  0.00    -0.378 N 
HETATM   15  C   UNL     1       6.545  30.995   3.123  1.00  0.00     0.147 C 
ATOM     16  HN  UNL     1       7.605  29.120   3.069  1.00  0.00     0.160 HD
ENDBRANCH   1  14
BRANCH   4  17
HETATM   17  N   UNL     1      11.907  30.708   5.386  1.00  0.00    -0.230 N 
HETATM   18  C   UNL     1      12.492  30.245   4.134  1.00  0.00     0.165 C 
ATOM     19  HN  UNL     1      12.505  31.113   6.106  1.00  0.00     0.177 HD
ENDBRANCH   4  17
TORSDOF 2
ENDMDL
