MODEL 1
REMARK VINA RESULT:    -4.235      0.000      0.000
REMARK INTER + INTRA:          -4.235
REMARK INTER:                  -4.235
REMARK INTRA:                   0.000
REMARK UNBOUND:                 0.000
REMARK  0 active torsions:
REMARK  status: ('A' for Active; 'I' for Inactive)
ROOT
HETATM    1  N   UNL     1      35.435  14.788  58.226  1.00  0.00    -0.191 NA
HETATM    2  C   UNL     1      35.163  14.473  57.173  1.00  0.00     0.104 C 
HETATM    3  C   UNL     1      34.806  14.064  55.767  1.00  0.00     0.101 A 
HETATM    4  C   UNL     1      34.460  15.044  54.854  1.00  0.00     0.115 A 
HETATM    5  N   UNL     1      34.135  14.686  53.608  1.00  0.00    -0.360 N 
ATOM      6  HN  UNL     1      33.877  15.407  52.934  1.00  0.00     0.166 HD
HETATM    7  C   UNL     1      34.139  13.405  53.223  1.00  0.00     0.181 A 
HETATM    8  N   UNL     1      34.467  12.441  54.095  1.00  0.00    -0.340 N 
ATOM      9  HN  UNL     1      34.459  11.467  53.792  1.00  0.00     0.167 HD
HETATM   10  C   UNL     1      34.806  12.731  55.357  1.00  0.00     0.139 A 
HETATM   11  N   UNL     1      35.160  11.675  56.230  1.00  0.00    -0.081 NA
ENDROOT
TORSDOF 0
ENDMDL
MODEL 2
REMARK VINA RESULT:    -4.207      1.294      2.903
REMARK INTER + INTRA:          -4.207
REMARK INTER:                  -4.207
REMARK INTRA:                   0.000
REMARK UNBOUND:                 0.000
REMARK  0 active torsions:
REMARK  status: ('A' for Active; 'I' for Inactive)
ROOT
HETATM    1  N   UNL     1      34.208  17.268  54.734  1.00  0.00    -0.191 NA
HETATM    2  C   UNL     1      34.404  16.170  54.921  1.00  0.00     0.104 C 
HETATM    3  C   UNL     1      34.662  14.708  55.180  1.00  0.00     0.101 A 
HETATM    4  C   UNL     1      35.104  14.319  56.432  1.00  0.00     0.115 A 
HETATM    5  N   UNL     1      35.341  13.024  56.665  1.00  0.00    -0.360 N 
ATOM      6  HN  UNL     1      35.670  12.736  57.587  1.00  0.00     0.166 HD
HETATM    7  C   UNL     1      35.158  12.096  55.719  1.00  0.00     0.181 A 
HETATM    8  N   UNL     1      34.733  12.455  54.499  1.00  0.00    -0.340 N 
ATOM      9  HN  UNL     1      34.604  11.739  53.784  1.00  0.00     0.167 HD
HETATM   10  C   UNL     1      34.474  13.733  54.200  1.00  0.00     0.139 A 
HETATM   11  N   UNL     1      34.012  14.051  52.901  1.00  0.00    -0.081 NA
ENDROOT
TORSDOF 0
ENDMDL
MODEL 3
REMARK VINA RESULT:    -4.161      1.101      2.234
REMARK INTER + INTRA:          -4.161
REMARK INTER:                  -4.161
REMARK INTRA:                   0.000
REMARK UNBOUND:                 0.000
REMARK  0 active torsions:
REMARK  status: ('A' for Active; 'I' for Inactive)
ROOT
HETATM    1  N   UNL     1      36.086  13.536  58.180  1.00  0.00    -0.191 NA
HETATM    2  C   UNL     1      35.641  13.568  57.140  1.00  0.00     0.104 C 
HETATM    3  C   UNL     1      35.043  13.600  55.757  1.00  0.00     0.101 A 
HETATM    4  C   UNL     1      34.876  12.410  55.074  1.00  0.00     0.115 A 
HETATM    5  N   UNL     1      34.352  12.433  53.843  1.00  0.00    -0.360 N 
ATOM      6  HN  UNL     1      34.231  11.556  53.337  1.00  0.00     0.166 HD
HETATM    7  C   UNL     1      33.984  13.579  53.260  1.00  0.00     0.181 A 
HETATM    8  N   UNL     1      34.142  14.744  53.906  1.00  0.00    -0.340 N 
ATOM      9  HN  UNL     1      33.865  15.612  53.447  1.00  0.00     0.167 HD
HETATM   10  C   UNL     1      34.657  14.791  55.141  1.00  0.00     0.139 A 
HETATM   11  N   UNL     1      34.785  16.046  55.781  1.00  0.00    -0.081 NA
ENDROOT
TORSDOF 0
ENDMDL
MODEL 4
REMARK VINA RESULT:    -4.148      1.465      3.007
REMARK INTER + INTRA:          -4.148
REMARK INTER:                  -4.148
REMARK INTRA:                   0.000
REMARK UNBOUND:                 0.000
REMARK  0 active torsions:
REMARK  status: ('A' for Active; 'I' for Inactive)
ROOT
HETATM    1  N   UNL     1      35.108  11.789  55.872  1.00  0.00    -0.191 NA
HETATM    2  C   UNL     1      34.895  12.868  55.606  1.00  0.00     0.104 C 
HETATM    3  C   UNL     1      34.620  14.308  55.257  1.00  0.00     0.101 A 
HETATM    4  C   UNL     1      34.932  15.290  56.179  1.00  0.00     0.115 A 
HETATM    5  N   UNL     1      34.683  16.569  55.878  1.00  0.00    -0.360 N 
ATOM      6  HN  UNL     1      34.911  17.294  56.559  1.00  0.00     0.166 HD
HETATM    7  C   UNL     1      34.143  16.921  54.706  1.00  0.00     0.181 A 
HETATM    8  N   UNL     1      33.830  15.982  53.801  1.00  0.00    -0.340 N 
ATOM      9  HN  UNL     1      33.412  16.262  52.914  1.00  0.00     0.167 HD
HETATM   10  C   UNL     1      34.056  14.684  54.038  1.00  0.00     0.139 A 
HETATM   11  N   UNL     1      33.722  13.739  53.040  1.00  0.00    -0.081 NA
ENDROOT
TORSDOF 0
ENDMDL
MODEL 5
REMARK VINA RESULT:    -4.103      1.455      3.994
REMARK INTER + INTRA:          -4.103
REMARK INTER:                  -4.103
REMARK INTRA:                   0.000
REMARK UNBOUND:                 0.000
REMARK  0 active torsions:
REMARK  status: ('A' for Active; 'I' for Inactive)
ROOT
HETATM    1  N   UNL     1      35.077  13.095  53.150  1.00  0.00    -0.191 NA
HETATM    2  C   UNL     1      35.029  13.147  54.279  1.00  0.00     0.104 C 
HETATM    3  C   UNL     1      34.972  13.207  55.784  1.00  0.00     0.101 A 
HETATM    4  C   UNL     1      35.058  12.029  56.503  1.00  0.00     0.115 A 
HETATM    5  N   UNL     1      35.001  12.076  57.838  1.00  0.00    -0.360 N 
ATOM      6  HN  UNL     1      35.062  11.207  58.370  1.00  0.00     0.166 HD
HETATM    7  C   UNL     1      34.865  13.234  58.494  1.00  0.00     0.181 A 
HETATM    8  N   UNL     1      34.777  14.385  57.813  1.00  0.00    -0.340 N 
ATOM      9  HN  UNL     1      34.666  15.261  58.324  1.00  0.00     0.167 HD
HETATM   10  C   UNL     1      34.830  14.410  56.475  1.00  0.00     0.139 A 
HETATM   11  N   UNL     1      34.748  15.656  55.810  1.00  0.00    -0.081 NA
ENDROOT
TORSDOF 0
ENDMDL
MODEL 6
REMARK VINA RESULT:    -3.949      4.933      6.014
REMARK INTER + INTRA:          -3.949
REMARK INTER:                  -3.949
REMARK INTRA:                   0.000
REMARK UNBOUND:                 0.000
REMARK  0 active torsions:
REMARK  status: ('A' for Active; 'I' for Inactive)
ROOT
HETATM    1  N   UNL     1      40.775  15.080  60.715  1.00  0.00    -0.191 NA
HETATM    2  C   UNL     1      39.703  14.779  60.516  1.00  0.00     0.104 C 
HETATM    3  C   UNL     1      38.274  14.386  60.244  1.00  0.00     0.101 A 
HETATM    4  C   UNL     1      37.366  15.368  59.893  1.00  0.00     0.115 A 
HETATM    5  N   UNL     1      36.095  15.026  59.658  1.00  0.00    -0.360 N 
ATOM      6  HN  UNL     1      35.424  15.750  59.401  1.00  0.00     0.166 HD
HETATM    7  C   UNL     1      35.682  13.757  59.751  1.00  0.00     0.181 A 
HETATM    8  N   UNL     1      36.547  12.792  60.094  1.00  0.00    -0.340 N 
ATOM      9  HN  UNL     1      36.218  11.829  60.170  1.00  0.00     0.167 HD
HETATM   10  C   UNL     1      37.834  13.065  60.340  1.00  0.00     0.139 A 
HETATM   11  N   UNL     1      38.705  12.004  60.682  1.00  0.00    -0.081 NA
ENDROOT
TORSDOF 0
ENDMDL
MODEL 7
REMARK VINA RESULT:    -3.924      4.071      6.574
REMARK INTER + INTRA:          -3.924
REMARK INTER:                  -3.924
REMARK INTRA:                   0.000
REMARK UNBOUND:                 0.000
REMARK  0 active torsions:
REMARK  status: ('A' for Active; 'I' for Inactive)
ROOT
HETATM    1  N   UNL     1      35.979  12.852  57.858  1.00  0.00    -0.191 NA
HETATM    2  C   UNL     1      36.843  13.280  58.450  1.00  0.00     0.104 C 
HETATM    3  C   UNL     1      38.000  13.848  59.231  1.00  0.00     0.101 A 
HETATM    4  C   UNL     1      39.244  13.258  59.106  1.00  0.00     0.115 A 
HETATM    5  N   UNL     1      40.273  13.753  59.802  1.00  0.00    -0.360 N 
ATOM      6  HN  UNL     1      41.190  13.316  59.713  1.00  0.00     0.166 HD
HETATM    7  C   UNL     1      40.128  14.807  60.613  1.00  0.00     0.181 A 
HETATM    8  N   UNL     1      38.928  15.390  60.749  1.00  0.00    -0.340 N 
ATOM      9  HN  UNL     1      38.829  16.189  61.377  1.00  0.00     0.167 HD
HETATM   10  C   UNL     1      37.858  14.946  60.079  1.00  0.00     0.139 A 
HETATM   11  N   UNL     1      36.621  15.611  60.249  1.00  0.00    -0.081 NA
ENDROOT
TORSDOF 0
ENDMDL
MODEL 8
REMARK VINA RESULT:    -3.786      7.019      7.459
REMARK INTER + INTRA:          -3.786
REMARK INTER:                  -3.786
REMARK INTRA:                   0.000
REMARK UNBOUND:                 0.000
REMARK  0 active torsions:
REMARK  status: ('A' for Active; 'I' for Inactive)
ROOT
HETATM    1  N   UNL     1      37.554  15.394  63.869  1.00  0.00    -0.191 NA
HETATM    2  C   UNL     1      38.060  14.922  62.974  1.00  0.00     0.104 C 
HETATM    3  C   UNL     1      38.743  14.299  61.783  1.00  0.00     0.101 A 
HETATM    4  C   UNL     1      39.622  15.066  61.041  1.00  0.00     0.115 A 
HETATM    5  N   UNL     1      40.225  14.521  59.979  1.00  0.00    -0.360 N 
ATOM      6  HN  UNL     1      40.872  15.087  59.429  1.00  0.00     0.166 HD
HETATM    7  C   UNL     1      40.001  13.252  59.621  1.00  0.00     0.181 A 
HETATM    8  N   UNL     1      39.149  12.495  60.326  1.00  0.00    -0.340 N 
ATOM      9  HN  UNL     1      38.981  11.531  60.038  1.00  0.00     0.167 HD
HETATM   10  C   UNL     1      38.515  12.977  61.402  1.00  0.00     0.139 A 
HETATM   11  N   UNL     1      37.640  12.127  62.118  1.00  0.00    -0.081 NA
ENDROOT
TORSDOF 0
ENDMDL
MODEL 9
REMARK VINA RESULT:    -3.766      6.971      7.566
REMARK INTER + INTRA:          -3.766
REMARK INTER:                  -3.766
REMARK INTRA:                   0.000
REMARK UNBOUND:                 0.000
REMARK  0 active torsions:
REMARK  status: ('A' for Active; 'I' for Inactive)
ROOT
HETATM    1  N   UNL     1      38.268  17.104  62.640  1.00  0.00    -0.191 NA
HETATM    2  C   UNL     1      38.341  16.056  62.222  1.00  0.00     0.104 C 
HETATM    3  C   UNL     1      38.427  14.659  61.663  1.00  0.00     0.101 A 
HETATM    4  C   UNL     1      37.372  13.789  61.873  1.00  0.00     0.115 A 
HETATM    5  N   UNL     1      37.446  12.546  61.386  1.00  0.00    -0.360 N 
ATOM      6  HN  UNL     1      36.670  11.903  61.543  1.00  0.00     0.166 HD
HETATM    7  C   UNL     1      38.513  12.125  60.698  1.00  0.00     0.181 A 
HETATM    8  N   UNL     1      39.547  12.953  60.488  1.00  0.00    -0.340 N 
ATOM      9  HN  UNL     1      40.359  12.618  59.968  1.00  0.00     0.167 HD
HETATM   10  C   UNL     1      39.536  14.211  60.945  1.00  0.00     0.139 A 
HETATM   11  N   UNL     1      40.647  15.045  60.679  1.00  0.00    -0.081 NA
ENDROOT
TORSDOF 0
ENDMDL
MODEL 10
REMARK VINA RESULT:    -3.725      1.175      3.328
REMARK INTER + INTRA:          -3.725
REMARK INTER:                  -3.725
REMARK INTRA:                   0.000
REMARK UNBOUND:                 0.000
REMARK  0 active torsions:
REMARK  status: ('A' for Active; 'I' for Inactive)
ROOT
HETATM    1  N   UNL     1      34.932  13.177  53.093  1.00  0.00    -0.191 NA
HETATM    2  C   UNL     1      34.916  13.522  54.170  1.00  0.00     0.104 C 
HETATM    3  C   UNL     1      34.888  13.990  55.603  1.00  0.00     0.101 A 
HETATM    4  C   UNL     1      34.777  15.343  55.861  1.00  0.00     0.115 A 
HETATM    5  N   UNL     1      34.760  15.765  57.130  1.00  0.00    -0.360 N 
ATOM      6  HN  UNL     1      34.681  16.763  57.322  1.00  0.00     0.166 HD
HETATM    7  C   UNL     1      34.843  14.908  58.155  1.00  0.00     0.181 A 
HETATM    8  N   UNL     1      34.954  13.592  57.923  1.00  0.00    -0.340 N 
ATOM      9  HN  UNL     1      35.024  12.950  58.712  1.00  0.00     0.167 HD
HETATM   10  C   UNL     1      34.974  13.104  56.677  1.00  0.00     0.139 A 
HETATM   11  N   UNL     1      35.077  11.704  56.492  1.00  0.00    -0.081 NA
ENDROOT
TORSDOF 0
ENDMDL
MODEL 11
REMARK VINA RESULT:    -3.694      5.237      6.599
REMARK INTER + INTRA:          -3.694
REMARK INTER:                  -3.694
REMARK INTRA:                   0.000
REMARK UNBOUND:                 0.000
REMARK  0 active torsions:
REMARK  status: ('A' for Active; 'I' for Inactive)
ROOT
HETATM    1  N   UNL     1      36.516  16.830  61.472  1.00  0.00    -0.191 NA
HETATM    2  C   UNL     1      37.270  16.096  61.056  1.00  0.00     0.104 C 
HETATM    3  C   UNL     1      38.279  15.118  60.512  1.00  0.00     0.101 A 
HETATM    4  C   UNL     1      39.594  15.214  60.929  1.00  0.00     0.115 A 
HETATM    5  N   UNL     1      40.496  14.354  60.444  1.00  0.00    -0.360 N 
ATOM      6  HN  UNL     1      41.466  14.425  60.749  1.00  0.00     0.166 HD
HETATM    7  C   UNL     1      40.155  13.402  59.567  1.00  0.00     0.181 A 
HETATM    8  N   UNL     1      38.886  13.296  59.148  1.00  0.00    -0.340 N 
ATOM      9  HN  UNL     1      38.640  12.571  58.474  1.00  0.00     0.167 HD
HETATM   10  C   UNL     1      37.934  14.123  59.597  1.00  0.00     0.139 A 
HETATM   11  N   UNL     1      36.608  13.955  59.133  1.00  0.00    -0.081 NA
ENDROOT
TORSDOF 0
ENDMDL
MODEL 12
REMARK VINA RESULT:    -3.690      7.007      7.736
REMARK INTER + INTRA:          -3.690
REMARK INTER:                  -3.690
REMARK INTRA:                   0.000
REMARK UNBOUND:                 0.000
REMARK  0 active torsions:
REMARK  status: ('A' for Active; 'I' for Inactive)
ROOT
HETATM    1  N   UNL     1      36.492  12.087  63.184  1.00  0.00    -0.191 NA
HETATM    2  C   UNL     1      37.279  12.542  62.510  1.00  0.00     0.104 C 
HETATM    3  C   UNL     1      38.323  13.142  61.605  1.00  0.00     0.101 A 
HETATM    4  C   UNL     1      38.817  12.384  60.559  1.00  0.00     0.115 A 
HETATM    5  N   UNL     1      39.749  12.909  59.757  1.00  0.00    -0.360 N 
ATOM      6  HN  UNL     1      40.116  12.349  58.988  1.00  0.00     0.166 HD
HETATM    7  C   UNL     1      40.213  14.150  59.940  1.00  0.00     0.181 A 
HETATM    8  N   UNL     1      39.749  14.899  60.951  1.00  0.00    -0.340 N 
ATOM      9  HN  UNL     1      40.116  15.841  61.085  1.00  0.00     0.167 HD
HETATM   10  C   UNL     1      38.813  14.435  61.789  1.00  0.00     0.139 A 
HETATM   11  N   UNL     1      38.348  15.276  62.827  1.00  0.00    -0.081 NA
ENDROOT
TORSDOF 0
ENDMDL
MODEL 13
REMARK VINA RESULT:    -3.676      4.290      6.638
REMARK INTER + INTRA:          -3.676
REMARK INTER:                  -3.676
REMARK INTRA:                   0.000
REMARK UNBOUND:                 0.000
REMARK  0 active torsions:
REMARK  status: ('A' for Active; 'I' for Inactive)
ROOT
HETATM    1  N   UNL     1      36.342  12.874  57.867  1.00  0.00    -0.191 NA
HETATM    2  C   UNL     1      36.990  13.430  58.609  1.00  0.00     0.104 C 
HETATM    3  C   UNL     1      37.845  14.171  59.605  1.00  0.00     0.101 A 
HETATM    4  C   UNL     1      37.246  15.094  60.442  1.00  0.00     0.115 A 
HETATM    5  N   UNL     1      38.000  15.760  61.322  1.00  0.00    -0.360 N 
ATOM      6  HN  UNL     1      37.560  16.444  61.939  1.00  0.00     0.166 HD
HETATM    7  C   UNL     1      39.319  15.552  61.415  1.00  0.00     0.181 A 
HETATM    8  N   UNL     1      39.917  14.664  60.608  1.00  0.00    -0.340 N 
ATOM      9  HN  UNL     1      40.924  14.520  60.683  1.00  0.00     0.167 HD
HETATM   10  C   UNL     1      39.220  13.961  59.707  1.00  0.00     0.139 A 
HETATM   11  N   UNL     1      39.902  13.025  58.894  1.00  0.00    -0.081 NA
ENDROOT
TORSDOF 0
ENDMDL
MODEL 14
REMARK VINA RESULT:    -3.648      4.322      5.946
REMARK INTER + INTRA:          -3.648
REMARK INTER:                  -3.648
REMARK INTRA:                   0.000
REMARK UNBOUND:                 0.000
REMARK  0 active torsions:
REMARK  status: ('A' for Active; 'I' for Inactive)
ROOT
HETATM    1  N   UNL     1      40.439  15.106  60.721  1.00  0.00    -0.191 NA
HETATM    2  C   UNL     1      39.390  14.839  60.392  1.00  0.00     0.104 C 
HETATM    3  C   UNL     1      37.995  14.472  59.956  1.00  0.00     0.101 A 
HETATM    4  C   UNL     1      37.793  13.268  59.306  1.00  0.00     0.115 A 
HETATM    5  N   UNL     1      36.558  12.941  58.910  1.00  0.00    -0.360 N 
ATOM      6  HN  UNL     1      36.409  12.055  58.428  1.00  0.00     0.166 HD
HETATM    7  C   UNL     1      35.515  13.749  59.130  1.00  0.00     0.181 A 
HETATM    8  N   UNL     1      35.692  14.921  59.755  1.00  0.00    -0.340 N 
ATOM      9  HN  UNL     1      34.889  15.532  59.910  1.00  0.00     0.167 HD
HETATM   10  C   UNL     1      36.901  15.308  60.180  1.00  0.00     0.139 A 
HETATM   11  N   UNL     1      37.026  16.549  60.850  1.00  0.00    -0.081 NA
ENDROOT
TORSDOF 0
ENDMDL
MODEL 15
REMARK VINA RESULT:    -3.619      5.663      6.934
REMARK INTER + INTRA:          -3.619
REMARK INTER:                  -3.619
REMARK INTRA:                   0.000
REMARK UNBOUND:                 0.000
REMARK  0 active torsions:
REMARK  status: ('A' for Active; 'I' for Inactive)
ROOT
HETATM    1  N   UNL     1      35.733  16.105  60.965  1.00  0.00    -0.191 NA
HETATM    2  C   UNL     1      36.695  15.568  60.706  1.00  0.00     0.104 C 
HETATM    3  C   UNL     1      37.971  14.850  60.350  1.00  0.00     0.101 A 
HETATM    4  C   UNL     1      37.929  13.841  59.406  1.00  0.00     0.115 A 
HETATM    5  N   UNL     1      39.058  13.196  59.092  1.00  0.00    -0.360 N 
ATOM      6  HN  UNL     1      39.028  12.449  58.398  1.00  0.00     0.166 HD
HETATM    7  C   UNL     1      40.225  13.506  59.666  1.00  0.00     0.181 A 
HETATM    8  N   UNL     1      40.285  14.480  60.586  1.00  0.00    -0.340 N 
ATOM      9  HN  UNL     1      41.180  14.702  61.022  1.00  0.00     0.167 HD
HETATM   10  C   UNL     1      39.193  15.167  60.944  1.00  0.00     0.139 A 
HETATM   11  N   UNL     1      39.318  16.195  61.908  1.00  0.00    -0.081 NA
ENDROOT
TORSDOF 0
ENDMDL
MODEL 16
REMARK VINA RESULT:    -3.618      1.993      3.394
REMARK INTER + INTRA:          -3.618
REMARK INTER:                  -3.618
REMARK INTRA:                   0.000
REMARK UNBOUND:                 0.000
REMARK  0 active torsions:
REMARK  status: ('A' for Active; 'I' for Inactive)
ROOT
HETATM    1  N   UNL     1      34.780  17.396  58.202  1.00  0.00    -0.191 NA
HETATM    2  C   UNL     1      34.779  16.281  58.008  1.00  0.00     0.104 C 
HETATM    3  C   UNL     1      34.772  14.795  57.758  1.00  0.00     0.101 A 
HETATM    4  C   UNL     1      34.733  13.936  58.841  1.00  0.00     0.115 A 
HETATM    5  N   UNL     1      34.734  12.616  58.626  1.00  0.00    -0.360 N 
ATOM      6  HN  UNL     1      34.708  11.982  59.424  1.00  0.00     0.166 HD
HETATM    7  C   UNL     1      34.768  12.108  57.389  1.00  0.00     0.181 A 
HETATM    8  N   UNL     1      34.809  12.926  56.327  1.00  0.00    -0.340 N 
ATOM      9  HN  UNL     1      34.843  12.526  55.389  1.00  0.00     0.167 HD
HETATM   10  C   UNL     1      34.808  14.256  56.472  1.00  0.00     0.139 A 
HETATM   11  N   UNL     1      34.836  15.070  55.315  1.00  0.00    -0.081 NA
ENDROOT
TORSDOF 0
ENDMDL
MODEL 17
REMARK VINA RESULT:    -3.592      5.846      7.547
REMARK INTER + INTRA:          -3.592
REMARK INTER:                  -3.592
REMARK INTRA:                   0.000
REMARK UNBOUND:                 0.000
REMARK  0 active torsions:
REMARK  status: ('A' for Active; 'I' for Inactive)
ROOT
HETATM    1  N   UNL     1      40.421  15.087  60.717  1.00  0.00    -0.191 NA
HETATM    2  C   UNL     1      39.514  14.539  61.113  1.00  0.00     0.104 C 
HETATM    3  C   UNL     1      38.307  13.814  61.650  1.00  0.00     0.101 A 
HETATM    4  C   UNL     1      38.286  13.449  62.983  1.00  0.00     0.115 A 
HETATM    5  N   UNL     1      37.221  12.799  63.464  1.00  0.00    -0.360 N 
ATOM      6  HN  UNL     1      37.205  12.526  64.447  1.00  0.00     0.166 HD
HETATM    7  C   UNL     1      36.175  12.497  62.687  1.00  0.00     0.181 A 
HETATM    8  N   UNL     1      36.179  12.840  61.391  1.00  0.00    -0.340 N 
ATOM      9  HN  UNL     1      35.378  12.598  60.806  1.00  0.00     0.167 HD
HETATM   10  C   UNL     1      37.212  13.495  60.847  1.00  0.00     0.139 A 
HETATM   11  N   UNL     1      37.155  13.846  59.477  1.00  0.00    -0.081 NA
ENDROOT
TORSDOF 0
ENDMDL
MODEL 18
REMARK VINA RESULT:    -3.578      6.848      7.968
REMARK INTER + INTRA:          -3.578
REMARK INTER:                  -3.578
REMARK INTRA:                   0.000
REMARK UNBOUND:                 0.000
REMARK  0 active torsions:
REMARK  status: ('A' for Active; 'I' for Inactive)
ROOT
HETATM    1  N   UNL     1      40.117  12.921  58.894  1.00  0.00    -0.191 NA
HETATM    2  C   UNL     1      39.679  13.437  59.800  1.00  0.00     0.104 C 
HETATM    3  C   UNL     1      39.094  14.135  61.001  1.00  0.00     0.101 A 
HETATM    4  C   UNL     1      39.276  15.499  61.136  1.00  0.00     0.115 A 
HETATM    5  N   UNL     1      38.766  16.122  62.204  1.00  0.00    -0.360 N 
ATOM      6  HN  UNL     1      38.902  17.128  62.306  1.00  0.00     0.166 HD
HETATM    7  C   UNL     1      38.081  15.458  63.142  1.00  0.00     0.181 A 
HETATM    8  N   UNL     1      37.898  14.134  63.030  1.00  0.00    -0.340 N 
ATOM      9  HN  UNL     1      37.381  13.638  63.755  1.00  0.00     0.167 HD
HETATM   10  C   UNL     1      38.380  13.450  61.985  1.00  0.00     0.139 A 
HETATM   11  N   UNL     1      38.141  12.058  61.910  1.00  0.00    -0.081 NA
ENDROOT
TORSDOF 0
ENDMDL
MODEL 19
REMARK VINA RESULT:    -3.561     14.069     14.262
REMARK INTER + INTRA:          -3.561
REMARK INTER:                  -3.561
REMARK INTRA:                   0.000
REMARK UNBOUND:                 0.000
REMARK  0 active torsions:
REMARK  status: ('A' for Active; 'I' for Inactive)
ROOT
HETATM    1  N   UNL     1      28.675   5.456  45.599  1.00  0.00    -0.191 NA
HETATM    2  C   UNL     1      29.697   4.972  45.641  1.00  0.00     0.104 C 
HETATM    3  C   UNL     1      31.063   4.338  45.695  1.00  0.00     0.101 A 
HETATM    4  C   UNL     1      32.096   4.916  44.981  1.00  0.00     0.115 A 
HETATM    5  N   UNL     1      33.309   4.353  45.020  1.00  0.00    -0.360 N 
ATOM      6  HN  UNL     1      34.071   4.777  44.491  1.00  0.00     0.166 HD
HETATM    7  C   UNL     1      33.546   3.248  45.735  1.00  0.00     0.181 A 
HETATM    8  N   UNL     1      32.555   2.672  46.432  1.00  0.00    -0.340 N 
ATOM      9  HN  UNL     1      32.747   1.825  46.967  1.00  0.00     0.167 HD
HETATM   10  C   UNL     1      31.319   3.186  46.438  1.00  0.00     0.139 A 
HETATM   11  N   UNL     1      30.317   2.545  47.204  1.00  0.00    -0.081 NA
ENDROOT
TORSDOF 0
ENDMDL
MODEL 20
REMARK VINA RESULT:    -3.498      6.832      8.146
REMARK INTER + INTRA:          -3.498
REMARK INTER:                  -3.498
REMARK INTRA:                   0.000
REMARK UNBOUND:                 0.000
REMARK  0 active torsions:
REMARK  status: ('A' for Active; 'I' for Inactive)
ROOT
HETATM    1  N   UNL     1      40.074  12.863  58.955  1.00  0.00    -0.191 NA
HETATM    2  C   UNL     1      39.496  13.090  59.900  1.00  0.00     0.104 C 
HETATM    3  C   UNL     1      38.726  13.383  61.162  1.00  0.00     0.101 A 
HETATM    4  C   UNL     1      37.881  12.413  61.669  1.00  0.00     0.115 A 
HETATM    5  N   UNL     1      37.190  12.669  62.785  1.00  0.00    -0.360 N 
ATOM      6  HN  UNL     1      36.564  11.956  63.159  1.00  0.00     0.166 HD
HETATM    7  C   UNL     1      37.299  13.840  63.423  1.00  0.00     0.181 A 
HETATM    8  N   UNL     1      38.111  14.794  62.944  1.00  0.00    -0.340 N 
ATOM      9  HN  UNL     1      38.179  15.685  63.436  1.00  0.00     0.167 HD
HETATM   10  C   UNL     1      38.833  14.600  61.834  1.00  0.00     0.139 A 
HETATM   11  N   UNL     1      39.685  15.636  61.384  1.00  0.00    -0.081 NA
ENDROOT
TORSDOF 0
ENDMDL
