MODEL 1
REMARK VINA RESULT:   -10.310      0.000      0.000
REMARK INTER + INTRA:         -13.931
REMARK INTER:                 -13.022
REMARK INTRA:                  -0.908
REMARK UNBOUND:                -0.908
REMARK  5 active torsions:
REMARK  status: ('A' for Active; 'I' for Inactive)
REMARK    1  A    between atoms: N_3  and  C_15 
REMARK    2  A    between atoms: N_3  and  C_11 
REMARK    3  A    between atoms: C_6  and  C_8 
REMARK    4  A    between atoms: C_11  and  C_17 
REMARK    5  A    between atoms: C_18  and  O_26 
ROOT
HETATM    1  N   UNL     1       1.541   7.461  -4.391  1.00  0.00    -0.326 N 
ATOM      2  HN  UNL     1       1.015   8.287  -4.107  1.00  0.00     0.169 HD
HETATM    3  C   UNL     1       0.728   4.098  -5.073  1.00  0.00    -0.003 A 
HETATM    4  C   UNL     1       0.968   6.312  -4.590  1.00  0.00     0.091 A 
HETATM    5  C   UNL     1       2.859   7.493  -4.581  1.00  0.00     0.181 A 
HETATM    6  C   UNL     1       3.039   5.285  -5.147  1.00  0.00     0.117 A 
HETATM    7  C   UNL     1      -0.578   4.403  -4.835  1.00  0.00     0.065 A 
HETATM    8  C   UNL     1       1.679   5.162  -4.972  1.00  0.00     0.053 A 
HETATM    9  N   UNL     1       3.639   6.460  -4.946  1.00  0.00    -0.318 N 
ATOM     10  HN  UNL     1       4.646   6.571  -5.065  1.00  0.00     0.170 HD
HETATM   11  S   UNL     1      -0.796   6.086  -4.377  1.00  0.00    -0.082 SA
HETATM   12 CL   UNL     1       3.603   9.093  -4.322  1.00  0.00    -0.045 Cl
ENDROOT
BRANCH   6  13
HETATM   13  N   UNL     1       3.825   4.142  -5.521  1.00  0.00    -0.371 N 
ATOM     14  HN  UNL     1       3.408   3.369  -6.041  1.00  0.00     0.161 HD
BRANCH  13  15
HETATM   15  C   UNL     1       5.215   4.112  -5.144  1.00  0.00     0.160 C 
BRANCH  15  16
HETATM   16  C   UNL     1       5.990   4.003  -6.454  1.00  0.00    -0.038 A 
HETATM   17  C   UNL     1       5.272   4.227  -7.788  1.00  0.00     0.009 A 
HETATM   18  C   UNL     1       5.951   4.117  -8.918  1.00  0.00     0.003 A 
HETATM   19  C   UNL     1       7.439   3.792  -8.889  1.00  0.00     0.036 A 
HETATM   20  C   UNL     1       8.050   3.611  -7.737  1.00  0.00     0.066 A 
HETATM   21  C   UNL     1       7.266   3.732  -6.435  1.00  0.00     0.045 A 
BRANCH  20  22
HETATM   22  O   UNL     1       9.422   3.308  -7.697  1.00  0.00    -0.361 OA
ATOM     23  HO  UNL     1       9.814   2.759  -8.366  1.00  0.00     0.217 HD
ENDBRANCH  20  22
ENDBRANCH  15  16
ENDBRANCH  13  15
ENDBRANCH   6  13
BRANCH   3  24
HETATM   24  C   UNL     1       1.030   2.697  -5.545  1.00  0.00    -0.024 A 
HETATM   25  C   UNL     1       1.244   1.518  -4.621  1.00  0.00     0.012 A 
HETATM   26  C   UNL     1       1.461   0.342  -5.169  1.00  0.00     0.001 A 
HETATM   27  C   UNL     1       1.437   0.144  -6.675  1.00  0.00     0.000 A 
HETATM   28  C   UNL     1       1.219   1.161  -7.488  1.00  0.00     0.001 A 
HETATM   29  C   UNL     1       0.990   2.530  -6.860  1.00  0.00     0.012 A 
ENDBRANCH   3  24
TORSDOF 5
ENDMDL
MODEL 2
REMARK VINA RESULT:   -10.073      0.958      1.372
REMARK INTER + INTRA:         -13.631
REMARK INTER:                 -12.693
REMARK INTRA:                  -0.938
REMARK UNBOUND:                -0.908
REMARK  5 active torsions:
REMARK  status: ('A' for Active; 'I' for Inactive)
REMARK    1  A    between atoms: N_3  and  C_15 
REMARK    2  A    between atoms: N_3  and  C_11 
REMARK    3  A    between atoms: C_6  and  C_8 
REMARK    4  A    between atoms: C_11  and  C_17 
REMARK    5  A    between atoms: C_18  and  O_26 
ROOT
HETATM    1  N   UNL     1       1.542   7.446  -4.395  1.00  0.00    -0.326 N 
ATOM      2  HN  UNL     1       1.013   8.276  -4.129  1.00  0.00     0.169 HD
HETATM    3  C   UNL     1       0.729   4.083  -5.076  1.00  0.00    -0.003 A 
HETATM    4  C   UNL     1       0.968   6.298  -4.601  1.00  0.00     0.091 A 
HETATM    5  C   UNL     1       2.863   7.471  -4.553  1.00  0.00     0.181 A 
HETATM    6  C   UNL     1       3.047   5.259  -5.100  1.00  0.00     0.117 A 
HETATM    7  C   UNL     1      -0.581   4.395  -4.872  1.00  0.00     0.065 A 
HETATM    8  C   UNL     1       1.683   5.143  -4.959  1.00  0.00     0.053 A 
HETATM    9  N   UNL     1       3.647   6.432  -4.892  1.00  0.00    -0.318 N 
ATOM     10  HN  UNL     1       4.658   6.537  -4.987  1.00  0.00     0.170 HD
HETATM   11  S   UNL     1      -0.802   6.082  -4.431  1.00  0.00    -0.082 SA
HETATM   12 CL   UNL     1       3.609   9.069  -4.285  1.00  0.00    -0.045 Cl
ENDROOT
BRANCH   6  13
HETATM   13  N   UNL     1       3.836   4.109  -5.448  1.00  0.00    -0.371 N 
ATOM     14  HN  UNL     1       3.418   3.317  -5.936  1.00  0.00     0.161 HD
BRANCH  13  15
HETATM   15  C   UNL     1       5.232   4.103  -5.091  1.00  0.00     0.160 C 
BRANCH  15  16
HETATM   16  C   UNL     1       5.991   4.013  -6.412  1.00  0.00    -0.038 A 
HETATM   17  C   UNL     1       7.503   3.772  -6.410  1.00  0.00     0.009 A 
HETATM   18  C   UNL     1       8.153   3.709  -7.560  1.00  0.00     0.003 A 
HETATM   19  C   UNL     1       7.398   3.853  -8.875  1.00  0.00     0.036 A 
HETATM   20  C   UNL     1       6.096   4.050  -8.868  1.00  0.00     0.066 A 
HETATM   21  C   UNL     1       5.348   4.128  -7.541  1.00  0.00     0.045 A 
BRANCH  20  22
HETATM   22  O   UNL     1       5.388   4.188 -10.074  1.00  0.00    -0.361 OA
ATOM     23  HO  UNL     1       5.365   5.022 -10.527  1.00  0.00     0.217 HD
ENDBRANCH  20  22
ENDBRANCH  15  16
ENDBRANCH  13  15
ENDBRANCH   6  13
BRANCH   3  24
HETATM   24  C   UNL     1       1.036   2.678  -5.533  1.00  0.00    -0.024 A 
HETATM   25  C   UNL     1       1.213   1.502  -4.597  1.00  0.00     0.012 A 
HETATM   26  C   UNL     1       1.439   0.321  -5.132  1.00  0.00     0.001 A 
HETATM   27  C   UNL     1       1.461   0.116  -6.638  1.00  0.00     0.000 A 
HETATM   28  C   UNL     1       1.274   1.131  -7.462  1.00  0.00     0.001 A 
HETATM   29  C   UNL     1       1.036   2.504  -6.847  1.00  0.00     0.012 A 
ENDBRANCH   3  24
TORSDOF 5
ENDMDL
MODEL 3
REMARK VINA RESULT:    -9.610      2.797      4.816
REMARK INTER + INTRA:         -13.047
REMARK INTER:                 -11.908
REMARK INTRA:                  -1.139
REMARK UNBOUND:                -0.908
REMARK  5 active torsions:
REMARK  status: ('A' for Active; 'I' for Inactive)
REMARK    1  A    between atoms: N_3  and  C_15 
REMARK    2  A    between atoms: N_3  and  C_11 
REMARK    3  A    between atoms: C_6  and  C_8 
REMARK    4  A    between atoms: C_11  and  C_17 
REMARK    5  A    between atoms: C_18  and  O_26 
ROOT
HETATM    1  N   UNL     1       0.525   0.891  -6.775  1.00  0.00    -0.326 N 
ATOM      2  HN  UNL     1      -0.096   0.101  -6.598  1.00  0.00     0.169 HD
HETATM    3  C   UNL     1       0.924   4.109  -5.390  1.00  0.00    -0.003 A 
HETATM    4  C   UNL     1       0.460   1.989  -6.083  1.00  0.00     0.091 A 
HETATM    5  C   UNL     1       1.453   0.860  -7.729  1.00  0.00     0.181 A 
HETATM    6  C   UNL     1       2.232   2.971  -7.327  1.00  0.00     0.117 A 
HETATM    7  C   UNL     1      -0.069   3.813  -4.506  1.00  0.00     0.065 A 
HETATM    8  C   UNL     1       1.301   3.089  -6.321  1.00  0.00     0.053 A 
HETATM    9  N   UNL     1       2.309   1.848  -8.043  1.00  0.00    -0.318 N 
ATOM     10  HN  UNL     1       2.989   1.743  -8.797  1.00  0.00     0.170 HD
HETATM   11  S   UNL     1      -0.731   2.206  -4.763  1.00  0.00    -0.082 SA
HETATM   12 CL   UNL     1       1.527  -0.673  -8.638  1.00  0.00    -0.045 Cl
ENDROOT
BRANCH   6  13
HETATM   13  N   UNL     1       3.110   4.068  -7.629  1.00  0.00    -0.371 N 
ATOM     14  HN  UNL     1       2.955   4.989  -7.220  1.00  0.00     0.161 HD
BRANCH  13  15
HETATM   15  C   UNL     1       4.214   3.835  -8.524  1.00  0.00     0.160 C 
BRANCH  15  16
HETATM   16  C   UNL     1       5.457   3.800  -7.639  1.00  0.00    -0.038 A 
HETATM   17  C   UNL     1       5.340   4.114  -6.144  1.00  0.00     0.009 A 
HETATM   18  C   UNL     1       6.425   4.094  -5.389  1.00  0.00     0.003 A 
HETATM   19  C   UNL     1       7.775   3.738  -5.998  1.00  0.00     0.036 A 
HETATM   20  C   UNL     1       7.865   3.459  -7.282  1.00  0.00     0.066 A 
HETATM   21  C   UNL     1       6.614   3.489  -8.153  1.00  0.00     0.045 A 
BRANCH  20  22
HETATM   22  O   UNL     1       9.105   3.134  -7.856  1.00  0.00    -0.361 OA
ATOM     23  HO  UNL     1       9.848   2.912  -7.307  1.00  0.00     0.217 HD
ENDBRANCH  20  22
ENDBRANCH  15  16
ENDBRANCH  13  15
ENDBRANCH   6  13
BRANCH   3  24
HETATM   24  C   UNL     1       1.620   5.437  -5.220  1.00  0.00    -0.024 A 
HETATM   25  C   UNL     1       1.080   6.750  -5.741  1.00  0.00     0.012 A 
HETATM   26  C   UNL     1       1.771   7.841  -5.487  1.00  0.00     0.001 A 
HETATM   27  C   UNL     1       3.037   7.810  -4.647  1.00  0.00     0.000 A 
HETATM   28  C   UNL     1       3.497   6.672  -4.160  1.00  0.00     0.001 A 
HETATM   29  C   UNL     1       2.714   5.403  -4.470  1.00  0.00     0.012 A 
ENDBRANCH   3  24
TORSDOF 5
ENDMDL
MODEL 4
REMARK VINA RESULT:    -9.424      2.858      4.736
REMARK INTER + INTRA:         -12.811
REMARK INTER:                 -11.895
REMARK INTRA:                  -0.916
REMARK UNBOUND:                -0.908
REMARK  5 active torsions:
REMARK  status: ('A' for Active; 'I' for Inactive)
REMARK    1  A    between atoms: N_3  and  C_15 
REMARK    2  A    between atoms: N_3  and  C_11 
REMARK    3  A    between atoms: C_6  and  C_8 
REMARK    4  A    between atoms: C_11  and  C_17 
REMARK    5  A    between atoms: C_18  and  O_26 
ROOT
HETATM    1  N   UNL     1       0.520   0.870  -6.791  1.00  0.00    -0.326 N 
ATOM      2  HN  UNL     1      -0.144   0.107  -6.661  1.00  0.00     0.169 HD
HETATM    3  C   UNL     1       1.009   4.032  -5.309  1.00  0.00    -0.003 A 
HETATM    4  C   UNL     1       0.476   1.953  -6.075  1.00  0.00     0.091 A 
HETATM    5  C   UNL     1       1.488   0.816  -7.704  1.00  0.00     0.181 A 
HETATM    6  C   UNL     1       2.347   2.878  -7.216  1.00  0.00     0.117 A 
HETATM    7  C   UNL     1      -0.035   3.764  -4.476  1.00  0.00     0.065 A 
HETATM    8  C   UNL     1       1.378   3.017  -6.248  1.00  0.00     0.053 A 
HETATM    9  N   UNL     1       2.403   1.769  -7.956  1.00  0.00    -0.318 N 
ATOM     10  HN  UNL     1       3.109   1.649  -8.682  1.00  0.00     0.170 HD
HETATM   11  S   UNL     1      -0.760   2.197  -4.803  1.00  0.00    -0.082 SA
HETATM   12 CL   UNL     1       1.529  -0.697  -8.648  1.00  0.00    -0.045 Cl
ENDROOT
BRANCH   6  13
HETATM   13  N   UNL     1       3.288   3.937  -7.452  1.00  0.00    -0.371 N 
ATOM     14  HN  UNL     1       3.414   4.685  -6.770  1.00  0.00     0.161 HD
BRANCH  13  15
HETATM   15  C   UNL     1       4.050   3.918  -8.674  1.00  0.00     0.160 C 
BRANCH  15  16
HETATM   16  C   UNL     1       5.513   3.962  -8.244  1.00  0.00    -0.038 A 
HETATM   17  C   UNL     1       6.609   4.204  -9.286  1.00  0.00     0.009 A 
HETATM   18  C   UNL     1       7.875   4.227  -8.905  1.00  0.00     0.003 A 
HETATM   19  C   UNL     1       8.236   4.035  -7.438  1.00  0.00     0.036 A 
HETATM   20  C   UNL     1       7.287   3.837  -6.547  1.00  0.00     0.066 A 
HETATM   21  C   UNL     1       5.828   3.805  -6.989  1.00  0.00     0.045 A 
BRANCH  20  22
HETATM   22  O   UNL     1       7.608   3.655  -5.191  1.00  0.00    -0.361 OA
ATOM     23  HO  UNL     1       7.395   4.324  -4.551  1.00  0.00     0.217 HD
ENDBRANCH  20  22
ENDBRANCH  15  16
ENDBRANCH  13  15
ENDBRANCH   6  13
BRANCH   3  24
HETATM   24  C   UNL     1       1.759   5.320  -5.075  1.00  0.00    -0.024 A 
HETATM   25  C   UNL     1       3.184   5.392  -4.569  1.00  0.00     0.012 A 
HETATM   26  C   UNL     1       3.732   6.582  -4.448  1.00  0.00     0.001 A 
HETATM   27  C   UNL     1       2.996   7.848  -4.859  1.00  0.00     0.000 A 
HETATM   28  C   UNL     1       1.765   7.791  -5.332  1.00  0.00     0.001 A 
HETATM   29  C   UNL     1       1.117   6.417  -5.453  1.00  0.00     0.012 A 
ENDBRANCH   3  24
TORSDOF 5
ENDMDL
MODEL 5
REMARK VINA RESULT:    -9.062      3.732      6.178
REMARK INTER + INTRA:         -12.354
REMARK INTER:                 -10.702
REMARK INTRA:                  -1.652
REMARK UNBOUND:                -0.908
REMARK  5 active torsions:
REMARK  status: ('A' for Active; 'I' for Inactive)
REMARK    1  A    between atoms: N_3  and  C_15 
REMARK    2  A    between atoms: N_3  and  C_11 
REMARK    3  A    between atoms: C_6  and  C_8 
REMARK    4  A    between atoms: C_11  and  C_17 
REMARK    5  A    between atoms: C_18  and  O_26 
ROOT
HETATM    1  N   UNL     1       6.668   3.624  -7.582  1.00  0.00    -0.326 N 
ATOM      2  HN  UNL     1       7.682   3.529  -7.537  1.00  0.00     0.169 HD
HETATM    3  C   UNL     1       4.162   4.696  -5.344  1.00  0.00    -0.003 A 
HETATM    4  C   UNL     1       5.971   4.071  -6.580  1.00  0.00     0.091 A 
HETATM    5  C   UNL     1       5.975   3.298  -8.671  1.00  0.00     0.181 A 
HETATM    6  C   UNL     1       3.937   3.839  -7.788  1.00  0.00     0.117 A 
HETATM    7  C   UNL     1       5.139   4.960  -4.433  1.00  0.00     0.065 A 
HETATM    8  C   UNL     1       4.573   4.199  -6.622  1.00  0.00     0.053 A 
HETATM    9  N   UNL     1       4.641   3.379  -8.824  1.00  0.00    -0.318 N 
ATOM     10  HN  UNL     1       4.188   3.102  -9.694  1.00  0.00     0.170 HD
HETATM   11  S   UNL     1       6.739   4.554  -5.035  1.00  0.00    -0.082 SA
HETATM   12 CL   UNL     1       6.969   2.712 -10.031  1.00  0.00    -0.045 Cl
ENDROOT
BRANCH   6  13
HETATM   13  N   UNL     1       2.506   3.931  -7.887  1.00  0.00    -0.371 N 
ATOM     14  HN  UNL     1       2.016   4.775  -7.590  1.00  0.00     0.161 HD
BRANCH  13  15
HETATM   15  C   UNL     1       1.782   2.805  -8.417  1.00  0.00     0.160 C 
BRANCH  15  16
HETATM   16  C   UNL     1       1.355   1.986  -7.201  1.00  0.00    -0.038 A 
HETATM   17  C   UNL     1       2.153   0.742  -6.799  1.00  0.00     0.009 A 
HETATM   18  C   UNL     1       1.767   0.032  -5.753  1.00  0.00     0.003 A 
HETATM   19  C   UNL     1       0.551   0.463  -4.943  1.00  0.00     0.036 A 
HETATM   20  C   UNL     1      -0.124   1.539  -5.289  1.00  0.00     0.066 A 
HETATM   21  C   UNL     1       0.319   2.353  -6.500  1.00  0.00     0.045 A 
BRANCH  20  22
HETATM   22  O   UNL     1      -1.249   1.944  -4.552  1.00  0.00    -0.361 OA
ATOM     23  HO  UNL     1      -1.863   1.301  -4.216  1.00  0.00     0.217 HD
ENDBRANCH  20  22
ENDBRANCH  15  16
ENDBRANCH  13  15
ENDBRANCH   6  13
BRANCH   3  24
HETATM   24  C   UNL     1       2.751   5.073  -4.966  1.00  0.00    -0.024 A 
HETATM   25  C   UNL     1       1.892   4.285  -4.001  1.00  0.00     0.012 A 
HETATM   26  C   UNL     1       0.691   4.749  -3.729  1.00  0.00     0.001 A 
HETATM   27  C   UNL     1       0.192   6.064  -4.306  1.00  0.00     0.000 A 
HETATM   28  C   UNL     1       0.947   6.774  -5.122  1.00  0.00     0.001 A 
HETATM   29  C   UNL     1       2.330   6.230  -5.459  1.00  0.00     0.012 A 
ENDBRANCH   3  24
TORSDOF 5
ENDMDL
MODEL 6
REMARK VINA RESULT:    -7.968      3.470      5.977
REMARK INTER + INTRA:         -10.973
REMARK INTER:                  -9.726
REMARK INTRA:                  -1.246
REMARK UNBOUND:                -0.908
REMARK  5 active torsions:
REMARK  status: ('A' for Active; 'I' for Inactive)
REMARK    1  A    between atoms: N_3  and  C_15 
REMARK    2  A    between atoms: N_3  and  C_11 
REMARK    3  A    between atoms: C_6  and  C_8 
REMARK    4  A    between atoms: C_11  and  C_17 
REMARK    5  A    between atoms: C_18  and  O_26 
ROOT
HETATM    1  N   UNL     1       6.528   3.650  -7.567  1.00  0.00    -0.326 N 
ATOM      2  HN  UNL     1       7.537   3.507  -7.581  1.00  0.00     0.169 HD
HETATM    3  C   UNL     1       4.207   4.807  -5.177  1.00  0.00    -0.003 A 
HETATM    4  C   UNL     1       5.912   4.115  -6.521  1.00  0.00     0.091 A 
HETATM    5  C   UNL     1       5.759   3.371  -8.617  1.00  0.00     0.181 A 
HETATM    6  C   UNL     1       3.803   3.994  -7.612  1.00  0.00     0.117 A 
HETATM    7  C   UNL     1       5.246   5.014  -4.321  1.00  0.00     0.065 A 
HETATM    8  C   UNL     1       4.521   4.309  -6.482  1.00  0.00     0.053 A 
HETATM    9  N   UNL     1       4.424   3.516  -8.692  1.00  0.00    -0.318 N 
ATOM     10  HN  UNL     1       3.909   3.271  -9.538  1.00  0.00     0.170 HD
HETATM   11  S   UNL     1       6.788   4.542  -5.019  1.00  0.00    -0.082 SA
HETATM   12 CL   UNL     1       6.645   2.757 -10.038  1.00  0.00    -0.045 Cl
ENDROOT
BRANCH   6  13
HETATM   13  N   UNL     1       2.375   4.154  -7.628  1.00  0.00    -0.371 N 
ATOM     14  HN  UNL     1       1.928   4.908  -7.107  1.00  0.00     0.161 HD
BRANCH  13  15
HETATM   15  C   UNL     1       1.589   3.224  -8.399  1.00  0.00     0.160 C 
BRANCH  15  16
HETATM   16  C   UNL     1       1.488   1.966  -7.541  1.00  0.00    -0.038 A 
HETATM   17  C   UNL     1       1.257   2.086  -6.032  1.00  0.00     0.009 A 
HETATM   18  C   UNL     1       1.184   0.990  -5.295  1.00  0.00     0.003 A 
HETATM   19  C   UNL     1       1.309  -0.380  -5.949  1.00  0.00     0.036 A 
HETATM   20  C   UNL     1       1.497  -0.475  -7.249  1.00  0.00     0.066 A 
HETATM   21  C   UNL     1       1.587   0.790  -8.096  1.00  0.00     0.045 A 
BRANCH  20  22
HETATM   22  O   UNL     1       1.617  -1.733  -7.863  1.00  0.00    -0.361 OA
ATOM     23  HO  UNL     1       1.478  -1.829  -8.798  1.00  0.00     0.217 HD
ENDBRANCH  20  22
ENDBRANCH  15  16
ENDBRANCH  13  15
ENDBRANCH   6  13
BRANCH   3  24
HETATM   24  C   UNL     1       2.839   5.245  -4.714  1.00  0.00    -0.024 A 
HETATM   25  C   UNL     1       1.912   4.388  -3.880  1.00  0.00     0.012 A 
HETATM   26  C   UNL     1       0.762   4.909  -3.511  1.00  0.00     0.001 A 
HETATM   27  C   UNL     1       0.388   6.342  -3.849  1.00  0.00     0.000 A 
HETATM   28  C   UNL     1       1.205   7.108  -4.548  1.00  0.00     0.001 A 
HETATM   29  C   UNL     1       2.528   6.502  -4.998  1.00  0.00     0.012 A 
ENDBRANCH   3  24
TORSDOF 5
ENDMDL
MODEL 7
REMARK VINA RESULT:    -7.908      2.906      5.278
REMARK INTER + INTRA:         -10.896
REMARK INTER:                  -9.311
REMARK INTRA:                  -1.586
REMARK UNBOUND:                -0.908
REMARK  5 active torsions:
REMARK  status: ('A' for Active; 'I' for Inactive)
REMARK    1  A    between atoms: N_3  and  C_15 
REMARK    2  A    between atoms: N_3  and  C_11 
REMARK    3  A    between atoms: C_6  and  C_8 
REMARK    4  A    between atoms: C_11  and  C_17 
REMARK    5  A    between atoms: C_18  and  O_26 
ROOT
HETATM    1  N   UNL     1       1.515   6.123  -3.994  1.00  0.00    -0.326 N 
ATOM      2  HN  UNL     1       1.429   6.619  -3.107  1.00  0.00     0.169 HD
HETATM    3  C   UNL     1       4.206   4.878  -5.904  1.00  0.00    -0.003 A 
HETATM    4  C   UNL     1       2.668   5.762  -4.474  1.00  0.00     0.091 A 
HETATM    5  C   UNL     1       0.454   5.804  -4.732  1.00  0.00     0.181 A 
HETATM    6  C   UNL     1       1.655   4.797  -6.396  1.00  0.00     0.117 A 
HETATM    7  C   UNL     1       5.052   5.309  -4.927  1.00  0.00     0.065 A 
HETATM    8  C   UNL     1       2.805   5.087  -5.698  1.00  0.00     0.053 A 
HETATM    9  N   UNL     1       0.465   5.162  -5.913  1.00  0.00    -0.318 N 
ATOM     10  HN  UNL     1      -0.398   4.962  -6.418  1.00  0.00     0.170 HD
HETATM   11  S   UNL     1       4.201   6.111  -3.615  1.00  0.00    -0.082 SA
HETATM   12 CL   UNL     1      -1.109   6.295  -4.027  1.00  0.00    -0.045 Cl
ENDROOT
BRANCH   6  13
HETATM   13  N   UNL     1       1.730   4.123  -7.663  1.00  0.00    -0.371 N 
ATOM     14  HN  UNL     1       2.433   4.386  -8.353  1.00  0.00     0.161 HD
BRANCH  13  15
HETATM   15  C   UNL     1       0.789   3.066  -7.934  1.00  0.00     0.160 C 
BRANCH  15  16
HETATM   16  C   UNL     1       1.312   1.849  -7.175  1.00  0.00    -0.038 A 
HETATM   17  C   UNL     1       2.581   1.137  -7.654  1.00  0.00     0.009 A 
HETATM   18  C   UNL     1       3.017   0.075  -6.998  1.00  0.00     0.003 A 
HETATM   19  C   UNL     1       2.275  -0.419  -5.762  1.00  0.00     0.036 A 
HETATM   20  C   UNL     1       1.192   0.205  -5.352  1.00  0.00     0.066 A 
HETATM   21  C   UNL     1       0.685   1.426  -6.113  1.00  0.00     0.045 A 
BRANCH  20  22
HETATM   22  O   UNL     1       0.497  -0.243  -4.216  1.00  0.00    -0.361 OA
ATOM     23  HO  UNL     1      -0.446  -0.360  -4.242  1.00  0.00     0.217 HD
ENDBRANCH  20  22
ENDBRANCH  15  16
ENDBRANCH  13  15
ENDBRANCH   6  13
BRANCH   3  24
HETATM   24  C   UNL     1       4.815   4.108  -7.049  1.00  0.00    -0.024 A 
HETATM   25  C   UNL     1       4.698   4.515  -8.502  1.00  0.00     0.012 A 
HETATM   26  C   UNL     1       5.313   3.773  -9.398  1.00  0.00     0.001 A 
HETATM   27  C   UNL     1       6.170   2.583  -8.999  1.00  0.00     0.000 A 
HETATM   28  C   UNL     1       6.305   2.241  -7.731  1.00  0.00     0.001 A 
HETATM   29  C   UNL     1       5.576   3.082  -6.691  1.00  0.00     0.012 A 
ENDBRANCH   3  24
TORSDOF 5
ENDMDL
MODEL 8
REMARK VINA RESULT:    -7.836      2.997      5.171
REMARK INTER + INTRA:         -10.806
REMARK INTER:                  -9.226
REMARK INTRA:                  -1.580
REMARK UNBOUND:                -0.908
REMARK  5 active torsions:
REMARK  status: ('A' for Active; 'I' for Inactive)
REMARK    1  A    between atoms: N_3  and  C_15 
REMARK    2  A    between atoms: N_3  and  C_11 
REMARK    3  A    between atoms: C_6  and  C_8 
REMARK    4  A    between atoms: C_11  and  C_17 
REMARK    5  A    between atoms: C_18  and  O_26 
ROOT
HETATM    1  N   UNL     1       0.725   7.202  -4.013  1.00  0.00    -0.326 N 
ATOM      2  HN  UNL     1       0.593   8.052  -3.465  1.00  0.00     0.169 HD
HETATM    3  C   UNL     1       3.458   5.682  -5.641  1.00  0.00    -0.003 A 
HETATM    4  C   UNL     1       1.882   6.867  -4.500  1.00  0.00     0.091 A 
HETATM    5  C   UNL     1      -0.279   6.366  -4.273  1.00  0.00     0.181 A 
HETATM    6  C   UNL     1       0.985   4.897  -5.485  1.00  0.00     0.117 A 
HETATM    7  C   UNL     1       4.248   6.693  -5.183  1.00  0.00     0.065 A 
HETATM    8  C   UNL     1       2.077   5.704  -5.264  1.00  0.00     0.053 A 
HETATM    9  N   UNL     1      -0.208   5.231  -4.989  1.00  0.00    -0.318 N 
ATOM     10  HN  UNL     1      -1.031   4.649  -5.145  1.00  0.00     0.170 HD
HETATM   11  S   UNL     1       3.341   7.875  -4.251  1.00  0.00    -0.082 SA
HETATM   12 CL   UNL     1      -1.844   6.850  -3.566  1.00  0.00    -0.045 Cl
ENDROOT
BRANCH   6  13
HETATM   13  N   UNL     1       1.117   3.703  -6.273  1.00  0.00    -0.371 N 
ATOM     14  HN  UNL     1       1.778   3.660  -7.048  1.00  0.00     0.161 HD
BRANCH  13  15
HETATM   15  C   UNL     1       0.295   2.568  -5.941  1.00  0.00     0.160 C 
BRANCH  15  16
HETATM   16  C   UNL     1       0.987   1.363  -6.572  1.00  0.00    -0.038 A 
HETATM   17  C   UNL     1       2.464   1.088  -6.274  1.00  0.00     0.009 A 
HETATM   18  C   UNL     1       3.058   0.049  -6.836  1.00  0.00     0.003 A 
HETATM   19  C   UNL     1       2.272  -0.877  -7.755  1.00  0.00     0.036 A 
HETATM   20  C   UNL     1       1.001  -0.639  -7.998  1.00  0.00     0.066 A 
HETATM   21  C   UNL     1       0.318   0.563  -7.354  1.00  0.00     0.045 A 
BRANCH  20  22
HETATM   22  O   UNL     1       0.265  -1.484  -8.847  1.00  0.00    -0.361 OA
ATOM     23  HO  UNL     1      -0.006  -1.185  -9.707  1.00  0.00     0.217 HD
ENDBRANCH  20  22
ENDBRANCH  15  16
ENDBRANCH  13  15
ENDBRANCH   6  13
BRANCH   3  24
HETATM   24  C   UNL     1       4.140   4.566  -6.393  1.00  0.00    -0.024 A 
HETATM   25  C   UNL     1       4.032   4.362  -7.889  1.00  0.00     0.012 A 
HETATM   26  C   UNL     1       4.712   3.370  -8.423  1.00  0.00     0.001 A 
HETATM   27  C   UNL     1       5.630   2.490  -7.591  1.00  0.00     0.000 A 
HETATM   28  C   UNL     1       5.756   2.682  -6.291  1.00  0.00     0.001 A 
HETATM   29  C   UNL     1       4.953   3.814  -5.663  1.00  0.00     0.012 A 
ENDBRANCH   3  24
TORSDOF 5
ENDMDL
MODEL 9
REMARK VINA RESULT:    -7.452      3.569      6.357
REMARK INTER + INTRA:         -10.321
REMARK INTER:                 -10.126
REMARK INTRA:                  -0.196
REMARK UNBOUND:                -0.908
REMARK  5 active torsions:
REMARK  status: ('A' for Active; 'I' for Inactive)
REMARK    1  A    between atoms: N_3  and  C_15 
REMARK    2  A    between atoms: N_3  and  C_11 
REMARK    3  A    between atoms: C_6  and  C_8 
REMARK    4  A    between atoms: C_11  and  C_17 
REMARK    5  A    between atoms: C_18  and  O_26 
ROOT
HETATM    1  N   UNL     1       0.966   1.389  -6.048  1.00  0.00    -0.326 N 
ATOM      2  HN  UNL     1       0.364   0.574  -5.929  1.00  0.00     0.169 HD
HETATM    3  C   UNL     1       4.258   1.912  -7.198  1.00  0.00    -0.003 A 
HETATM    4  C   UNL     1       2.173   1.293  -6.520  1.00  0.00     0.091 A 
HETATM    5  C   UNL     1       0.564   2.617  -5.728  1.00  0.00     0.181 A 
HETATM    6  C   UNL     1       2.521   3.636  -6.324  1.00  0.00     0.117 A 
HETATM    7  C   UNL     1       4.345   0.576  -7.448  1.00  0.00     0.065 A 
HETATM    8  C   UNL     1       3.018   2.404  -6.680  1.00  0.00     0.053 A 
HETATM    9  N   UNL     1       1.283   3.748  -5.839  1.00  0.00    -0.318 N 
ATOM     10  HN  UNL     1       0.898   4.652  -5.564  1.00  0.00     0.170 HD
HETATM   11  S   UNL     1       2.879  -0.282  -6.999  1.00  0.00    -0.082 SA
HETATM   12 CL   UNL     1      -1.105   2.709  -5.107  1.00  0.00    -0.045 Cl
ENDROOT
BRANCH   6  13
HETATM   13  N   UNL     1       3.343   4.809  -6.449  1.00  0.00    -0.371 N 
ATOM     14  HN  UNL     1       3.469   5.264  -7.353  1.00  0.00     0.161 HD
BRANCH  13  15
HETATM   15  C   UNL     1       3.984   5.326  -5.267  1.00  0.00     0.160 C 
BRANCH  15  16
HETATM   16  C   UNL     1       3.101   6.478  -4.794  1.00  0.00    -0.038 A 
HETATM   17  C   UNL     1       3.669   7.899  -4.729  1.00  0.00     0.009 A 
HETATM   18  C   UNL     1       2.901   8.887  -4.305  1.00  0.00     0.003 A 
HETATM   19  C   UNL     1       1.455   8.616  -3.907  1.00  0.00     0.036 A 
HETATM   20  C   UNL     1       0.972   7.394  -3.976  1.00  0.00     0.066 A 
HETATM   21  C   UNL     1       1.861   6.253  -4.459  1.00  0.00     0.045 A 
BRANCH  20  22
HETATM   22  O   UNL     1      -0.359   7.130  -3.609  1.00  0.00    -0.361 OA
ATOM     23  HO  UNL     1      -1.072   7.329  -4.204  1.00  0.00     0.217 HD
ENDBRANCH  20  22
ENDBRANCH  15  16
ENDBRANCH  13  15
ENDBRANCH   6  13
BRANCH   3  24
HETATM   24  C   UNL     1       5.432   2.764  -7.611  1.00  0.00    -0.024 A 
HETATM   25  C   UNL     1       5.526   3.496  -8.933  1.00  0.00     0.012 A 
HETATM   26  C   UNL     1       6.591   4.238  -9.149  1.00  0.00     0.001 A 
HETATM   27  C   UNL     1       7.669   4.418  -8.092  1.00  0.00     0.000 A 
HETATM   28  C   UNL     1       7.579   3.810  -6.924  1.00  0.00     0.001 A 
HETATM   29  C   UNL     1       6.359   2.930  -6.677  1.00  0.00     0.012 A 
ENDBRANCH   3  24
TORSDOF 5
ENDMDL
MODEL 10
REMARK VINA RESULT:    -7.333      2.516      3.086
REMARK INTER + INTRA:         -10.171
REMARK INTER:                  -8.405
REMARK INTRA:                  -1.766
REMARK UNBOUND:                -0.908
REMARK  5 active torsions:
REMARK  status: ('A' for Active; 'I' for Inactive)
REMARK    1  A    between atoms: N_3  and  C_15 
REMARK    2  A    between atoms: N_3  and  C_11 
REMARK    3  A    between atoms: C_6  and  C_8 
REMARK    4  A    between atoms: C_11  and  C_17 
REMARK    5  A    between atoms: C_18  and  O_26 
ROOT
HETATM    1  N   UNL     1       1.606   8.008  -4.202  1.00  0.00    -0.326 N 
ATOM      2  HN  UNL     1       1.160   8.911  -4.041  1.00  0.00     0.169 HD
HETATM    3  C   UNL     1       0.494   4.665  -4.344  1.00  0.00    -0.003 A 
HETATM    4  C   UNL     1       0.933   6.897  -4.212  1.00  0.00     0.091 A 
HETATM    5  C   UNL     1       2.916   7.895  -4.415  1.00  0.00     0.181 A 
HETATM    6  C   UNL     1       2.894   5.620  -4.635  1.00  0.00     0.117 A 
HETATM    7  C   UNL     1      -0.775   5.116  -4.136  1.00  0.00     0.065 A 
HETATM    8  C   UNL     1       1.534   5.645  -4.423  1.00  0.00     0.053 A 
HETATM    9  N   UNL     1       3.596   6.755  -4.628  1.00  0.00    -0.318 N 
ATOM     10  HN  UNL     1       4.605   6.757  -4.777  1.00  0.00     0.170 HD
HETATM   11  S   UNL     1      -0.837   6.861  -3.941  1.00  0.00    -0.082 SA
HETATM   12 CL   UNL     1       3.800   9.445  -4.417  1.00  0.00    -0.045 Cl
ENDROOT
BRANCH   6  13
HETATM   13  N   UNL     1       3.569   4.369  -4.840  1.00  0.00    -0.371 N 
ATOM     14  HN  UNL     1       3.515   3.625  -4.144  1.00  0.00     0.161 HD
BRANCH  13  15
HETATM   15  C   UNL     1       4.326   4.188  -6.053  1.00  0.00     0.160 C 
BRANCH  15  16
HETATM   16  C   UNL     1       3.593   3.101  -6.834  1.00  0.00    -0.038 A 
HETATM   17  C   UNL     1       4.112   1.660  -6.808  1.00  0.00     0.009 A 
HETATM   18  C   UNL     1       3.478   0.729  -7.500  1.00  0.00     0.003 A 
HETATM   19  C   UNL     1       2.229   1.084  -8.296  1.00  0.00     0.036 A 
HETATM   20  C   UNL     1       1.783   2.322  -8.304  1.00  0.00     0.066 A 
HETATM   21  C   UNL     1       2.520   3.398  -7.511  1.00  0.00     0.045 A 
BRANCH  20  22
HETATM   22  O   UNL     1       0.634   2.663  -9.037  1.00  0.00    -0.361 OA
ATOM     23  HO  UNL     1       0.668   3.346  -9.697  1.00  0.00     0.217 HD
ENDBRANCH  20  22
ENDBRANCH  15  16
ENDBRANCH  13  15
ENDBRANCH   6  13
BRANCH   3  24
HETATM   24  C   UNL     1       0.664   3.188  -4.599  1.00  0.00    -0.024 A 
HETATM   25  C   UNL     1       1.717   2.328  -3.935  1.00  0.00     0.012 A 
HETATM   26  C   UNL     1       1.728   1.043  -4.218  1.00  0.00     0.001 A 
HETATM   27  C   UNL     1       0.686   0.416  -5.130  1.00  0.00     0.000 A 
HETATM   28  C   UNL     1      -0.256   1.153  -5.688  1.00  0.00     0.001 A 
HETATM   29  C   UNL     1      -0.260   2.645  -5.381  1.00  0.00     0.012 A 
ENDBRANCH   3  24
TORSDOF 5
ENDMDL
