MODEL 1
REMARK VINA RESULT:    -9.263      0.000      0.000
REMARK INTER + INTRA:         -12.704
REMARK INTER:                 -12.512
REMARK INTRA:                  -0.192
REMARK UNBOUND:                -0.192
REMARK  7 active torsions:
REMARK  status: ('A' for Active; 'I' for Inactive)
REMARK    1  A    between atoms: C_2  and  C_19 
REMARK    2  A    between atoms: P_4  and  O_7 
REMARK    3  A    between atoms: O_7  and  C_8 
REMARK    4  A    between atoms: C_8  and  C_9 
REMARK    5  A    between atoms: C_10  and  O_11 
REMARK    6  A    between atoms: C_13  and  O_14 
REMARK    7  A    between atoms: C_17  and  N_18 
ROOT
HETATM    1  C   UNL     1      11.937  11.857  38.334  1.00  0.00     0.180 C 
HETATM    2  C   UNL     1      11.357  10.516  38.736  1.00  0.00     0.182 C 
HETATM    3  C   UNL     1      12.457   9.535  38.412  1.00  0.00     0.198 C 
HETATM    4  O   UNL     1      12.898  11.581  37.312  1.00  0.00    -0.353 OA
HETATM    5  C   UNL     1      13.133  10.170  37.191  1.00  0.00     0.265 C 
ENDROOT
BRANCH   5   6
HETATM    6  N   UNL     1      14.590   9.941  37.054  1.00  0.00    -0.266 N 
HETATM    7  C   UNL     1      15.451   9.998  38.153  1.00  0.00     0.332 A 
HETATM    8  O   UNL     1      15.019  10.347  39.267  1.00  0.00    -0.246 OA
HETATM    9  N   UNL     1      16.751   9.729  37.996  1.00  0.00    -0.275 N 
HETATM   10  C   UNL     1      17.283   9.369  36.806  1.00  0.00     0.251 A 
ATOM     11  HN  UNL     1      17.367   9.798  38.806  1.00  0.00     0.173 HD
HETATM   12  O   UNL     1      18.532   9.182  36.789  1.00  0.00    -0.268 OA
HETATM   13  C   UNL     1      16.490   9.270  35.677  1.00  0.00     0.107 A 
HETATM   14  C   UNL     1      15.149   9.606  35.804  1.00  0.00     0.084 A 
BRANCH  14  15
HETATM   15  C   UNL     1      14.356   9.801  34.590  1.00  0.00     0.121 C 
HETATM   16  N   UNL     1      13.990   8.641  34.048  1.00  0.00    -0.388 N 
ATOM     17  HN2 UNL     1      13.437   8.776  33.202  1.00  0.00     0.157 HD
ATOM     18  HN1 UNL     1      14.167   7.729  34.470  1.00  0.00     0.157 HD
HETATM   19  S   UNL     1      14.078  11.229  33.929  1.00  0.00    -0.059 SA
ENDBRANCH  14  15
ENDBRANCH   5   6
BRANCH   3  20
HETATM   20  O   UNL     1      11.862   8.284  38.115  1.00  0.00    -0.388 OA
ATOM     21  HO  UNL     1      12.404   7.843  37.473  1.00  0.00     0.210 HD
ENDBRANCH   3  20
BRANCH   2  22
HETATM   22  O   UNL     1      10.139  10.239  38.004  1.00  0.00    -0.390 OA
ATOM     23  HO  UNL     1      10.309   9.963  37.112  1.00  0.00     0.210 HD
ENDBRANCH   2  22
BRANCH   1  24
HETATM   24  C   UNL     1      12.586  12.613  39.478  1.00  0.00     0.217 C 
BRANCH  24  25
HETATM   25  O   UNL     1      11.658  12.645  40.546  1.00  0.00    -0.280 OA
BRANCH  25  26
HETATM   26  P   UNL     1      12.101  13.090  42.012  1.00  0.00     0.422 P 
HETATM   27  O   UNL     1      12.507  14.553  41.916  1.00  0.00    -0.617 OA
HETATM   28  O   UNL     1      10.831  12.907  42.802  1.00  0.00    -0.617 OA
HETATM   29  O   UNL     1      13.225  12.205  42.484  1.00  0.00    -0.617 OA
ENDBRANCH  25  26
ENDBRANCH  24  25
ENDBRANCH   1  24
TORSDOF 7
ENDMDL
MODEL 2
REMARK VINA RESULT:    -8.167      1.257      1.330
REMARK INTER + INTRA:         -11.224
REMARK INTER:                 -11.002
REMARK INTRA:                  -0.222
REMARK UNBOUND:                -0.192
REMARK  7 active torsions:
REMARK  status: ('A' for Active; 'I' for Inactive)
REMARK    1  A    between atoms: C_2  and  C_19 
REMARK    2  A    between atoms: P_4  and  O_7 
REMARK    3  A    between atoms: O_7  and  C_8 
REMARK    4  A    between atoms: C_8  and  C_9 
REMARK    5  A    between atoms: C_10  and  O_11 
REMARK    6  A    between atoms: C_13  and  O_14 
REMARK    7  A    between atoms: C_17  and  N_18 
ROOT
HETATM    1  C   UNL     1      12.135  11.661  38.368  1.00  0.00     0.180 C 
HETATM    2  C   UNL     1      11.307  10.503  38.888  1.00  0.00     0.182 C 
HETATM    3  C   UNL     1      12.294   9.365  38.979  1.00  0.00     0.198 C 
HETATM    4  O   UNL     1      13.211  11.076  37.629  1.00  0.00    -0.353 OA
HETATM    5  C   UNL     1      13.259   9.655  37.823  1.00  0.00     0.265 C 
ENDROOT
BRANCH   5   6
HETATM    6  N   UNL     1      14.669   9.250  38.025  1.00  0.00    -0.266 N 
HETATM    7  C   UNL     1      15.248   9.211  39.296  1.00  0.00     0.332 A 
HETATM    8  O   UNL     1      14.612   9.620  40.285  1.00  0.00    -0.246 OA
HETATM    9  N   UNL     1      16.507   8.785  39.443  1.00  0.00    -0.275 N 
HETATM   10  C   UNL     1      17.256   8.353  38.402  1.00  0.00     0.251 A 
ATOM     11  HN  UNL     1      16.919   8.786  40.375  1.00  0.00     0.173 HD
HETATM   12  O   UNL     1      18.443   8.016  38.674  1.00  0.00    -0.268 OA
HETATM   13  C   UNL     1      16.744   8.341  37.118  1.00  0.00     0.107 A 
HETATM   14  C   UNL     1      15.461   8.838  36.934  1.00  0.00     0.084 A 
BRANCH  14  15
HETATM   15  C   UNL     1      15.004   9.117  35.572  1.00  0.00     0.121 C 
HETATM   16  N   UNL     1      15.069  10.415  35.287  1.00  0.00    -0.388 N 
ATOM     17  HN2 UNL     1      14.750  10.611  34.337  1.00  0.00     0.157 HD
ATOM     18  HN1 UNL     1      15.467  11.121  35.907  1.00  0.00     0.157 HD
HETATM   19  S   UNL     1      14.380   8.013  34.601  1.00  0.00    -0.059 SA
ENDBRANCH  14  15
ENDBRANCH   5   6
BRANCH   3  20
HETATM   20  O   UNL     1      11.587   8.150  38.807  1.00  0.00    -0.388 OA
ATOM     21  HO  UNL     1      11.458   8.011  37.877  1.00  0.00     0.210 HD
ENDBRANCH   3  20
BRANCH   2  22
HETATM   22  O   UNL     1      10.210  10.209  37.991  1.00  0.00    -0.390 OA
ATOM     23  HO  UNL     1      10.408   9.491  37.402  1.00  0.00     0.210 HD
ENDBRANCH   2  22
BRANCH   1  24
HETATM   24  C   UNL     1      12.675  12.568  39.458  1.00  0.00     0.217 C 
BRANCH  24  25
HETATM   25  O   UNL     1      11.740  12.559  40.520  1.00  0.00    -0.280 OA
BRANCH  25  26
HETATM   26  P   UNL     1      12.138  13.071  41.976  1.00  0.00     0.422 P 
HETATM   27  O   UNL     1      12.520  14.537  41.829  1.00  0.00    -0.617 OA
HETATM   28  O   UNL     1      10.853  12.896  42.743  1.00  0.00    -0.617 OA
HETATM   29  O   UNL     1      13.267  12.229  42.511  1.00  0.00    -0.617 OA
ENDBRANCH  25  26
ENDBRANCH  24  25
ENDBRANCH   1  24
TORSDOF 7
ENDMDL
MODEL 3
REMARK VINA RESULT:    -8.099      2.560      3.441
REMARK INTER + INTRA:         -11.132
REMARK INTER:                 -11.275
REMARK INTRA:                   0.144
REMARK UNBOUND:                -0.192
REMARK  7 active torsions:
REMARK  status: ('A' for Active; 'I' for Inactive)
REMARK    1  A    between atoms: C_2  and  C_19 
REMARK    2  A    between atoms: P_4  and  O_7 
REMARK    3  A    between atoms: O_7  and  C_8 
REMARK    4  A    between atoms: C_8  and  C_9 
REMARK    5  A    between atoms: C_10  and  O_11 
REMARK    6  A    between atoms: C_13  and  O_14 
REMARK    7  A    between atoms: C_17  and  N_18 
ROOT
HETATM    1  C   UNL     1      12.882  12.053  39.026  1.00  0.00     0.180 C 
HETATM    2  C   UNL     1      11.537  11.438  39.359  1.00  0.00     0.182 C 
HETATM    3  C   UNL     1      11.893  10.151  40.062  1.00  0.00     0.198 C 
HETATM    4  O   UNL     1      13.801  10.962  38.925  1.00  0.00    -0.353 OA
HETATM    5  C   UNL     1      13.204   9.739  39.381  1.00  0.00     0.265 C 
ENDROOT
BRANCH   5   6
HETATM    6  N   UNL     1      14.185   9.017  40.224  1.00  0.00    -0.266 N 
HETATM    7  C   UNL     1      13.981   8.830  41.593  1.00  0.00     0.332 A 
HETATM    8  O   UNL     1      13.009   9.362  42.159  1.00  0.00    -0.246 OA
HETATM    9  N   UNL     1      14.863   8.123  42.308  1.00  0.00    -0.275 N 
HETATM   10  C   UNL     1      15.952   7.542  41.754  1.00  0.00     0.251 A 
ATOM     11  HN  UNL     1      14.709   8.017  43.310  1.00  0.00     0.173 HD
HETATM   12  O   UNL     1      16.724   6.937  42.549  1.00  0.00    -0.268 OA
HETATM   13  C   UNL     1      16.208   7.664  40.400  1.00  0.00     0.107 A 
HETATM   14  C   UNL     1      15.340   8.446  39.651  1.00  0.00     0.084 A 
BRANCH  14  15
HETATM   15  C   UNL     1      15.737   8.840  38.299  1.00  0.00     0.121 C 
HETATM   16  N   UNL     1      16.438   9.972  38.301  1.00  0.00    -0.388 N 
ATOM     17  HN2 UNL     1      16.715  10.247  37.359  1.00  0.00     0.157 HD
ATOM     18  HN1 UNL     1      16.735  10.462  39.145  1.00  0.00     0.157 HD
HETATM   19  S   UNL     1      15.272   8.073  36.977  1.00  0.00    -0.059 SA
ENDBRANCH  14  15
ENDBRANCH   5   6
BRANCH   3  20
HETATM   20  O   UNL     1      10.849   9.221  39.840  1.00  0.00    -0.388 OA
ATOM     21  HO  UNL     1      11.157   8.361  40.100  1.00  0.00     0.210 HD
ENDBRANCH   3  20
BRANCH   2  22
HETATM   22  O   UNL     1      10.761  11.212  38.159  1.00  0.00    -0.390 OA
ATOM     23  HO  UNL     1       9.918  11.648  38.187  1.00  0.00     0.210 HD
ENDBRANCH   2  22
BRANCH   1  24
HETATM   24  C   UNL     1      13.368  13.059  40.053  1.00  0.00     0.217 C 
BRANCH  24  25
HETATM   25  O   UNL     1      12.237  13.508  40.775  1.00  0.00    -0.280 OA
BRANCH  25  26
HETATM   26  P   UNL     1      12.187  13.427  42.367  1.00  0.00     0.422 P 
HETATM   27  O   UNL     1      10.846  12.803  42.727  1.00  0.00    -0.617 OA
HETATM   28  O   UNL     1      13.340  12.510  42.680  1.00  0.00    -0.617 OA
HETATM   29  O   UNL     1      12.356  14.810  42.942  1.00  0.00    -0.617 OA
ENDBRANCH  25  26
ENDBRANCH  24  25
ENDBRANCH   1  24
TORSDOF 7
ENDMDL
MODEL 4
REMARK VINA RESULT:    -7.836      2.655      3.445
REMARK INTER + INTRA:         -10.776
REMARK INTER:                 -10.409
REMARK INTRA:                  -0.368
REMARK UNBOUND:                -0.192
REMARK  7 active torsions:
REMARK  status: ('A' for Active; 'I' for Inactive)
REMARK    1  A    between atoms: C_2  and  C_19 
REMARK    2  A    between atoms: P_4  and  O_7 
REMARK    3  A    between atoms: O_7  and  C_8 
REMARK    4  A    between atoms: C_8  and  C_9 
REMARK    5  A    between atoms: C_10  and  O_11 
REMARK    6  A    between atoms: C_13  and  O_14 
REMARK    7  A    between atoms: C_17  and  N_18 
ROOT
HETATM    1  C   UNL     1      11.674  11.219  39.662  1.00  0.00     0.180 C 
HETATM    2  C   UNL     1      10.783  10.044  39.311  1.00  0.00     0.182 C 
HETATM    3  C   UNL     1      11.620   8.839  39.662  1.00  0.00     0.198 C 
HETATM    4  O   UNL     1      13.017  10.742  39.550  1.00  0.00    -0.353 OA
HETATM    5  C   UNL     1      13.048   9.318  39.375  1.00  0.00     0.265 C 
ENDROOT
BRANCH   5   6
HETATM    6  N   UNL     1      14.115   8.757  40.236  1.00  0.00    -0.266 N 
HETATM    7  C   UNL     1      13.888   8.441  41.578  1.00  0.00     0.332 A 
HETATM    8  O   UNL     1      12.799   8.724  42.111  1.00  0.00    -0.246 OA
HETATM    9  N   UNL     1      14.861   7.882  42.305  1.00  0.00    -0.275 N 
HETATM   10  C   UNL     1      16.073   7.575  41.789  1.00  0.00     0.251 A 
ATOM     11  HN  UNL     1      14.683   7.680  43.289  1.00  0.00     0.173 HD
HETATM   12  O   UNL     1      16.914   7.088  42.596  1.00  0.00    -0.268 OA
HETATM   13  C   UNL     1      16.364   7.837  40.462  1.00  0.00     0.107 A 
HETATM   14  C   UNL     1      15.390   8.474  39.706  1.00  0.00     0.084 A 
BRANCH  14  15
HETATM   15  C   UNL     1      15.763   9.031  38.404  1.00  0.00     0.121 C 
HETATM   16  N   UNL     1      16.139  10.304  38.502  1.00  0.00    -0.388 N 
ATOM     17  HN2 UNL     1      16.399  10.692  37.595  1.00  0.00     0.157 HD
ATOM     18  HN1 UNL     1      16.237  10.808  39.384  1.00  0.00     0.157 HD
HETATM   19  S   UNL     1      15.609   8.242  37.023  1.00  0.00    -0.059 SA
ENDBRANCH  14  15
ENDBRANCH   5   6
BRANCH   3  20
HETATM   20  O   UNL     1      11.227   7.768  38.823  1.00  0.00    -0.388 OA
ATOM     21  HO  UNL     1      11.539   7.948  37.945  1.00  0.00     0.210 HD
ENDBRANCH   3  20
BRANCH   2  22
HETATM   22  O   UNL     1      10.418  10.073  37.911  1.00  0.00    -0.390 OA
ATOM     23  HO  UNL     1      10.887   9.423  37.403  1.00  0.00     0.210 HD
ENDBRANCH   2  22
BRANCH   1  24
HETATM   24  C   UNL     1      11.429  11.783  41.049  1.00  0.00     0.217 C 
BRANCH  24  25
HETATM   25  O   UNL     1      11.743  13.162  41.010  1.00  0.00    -0.280 OA
BRANCH  25  26
HETATM   26  P   UNL     1      12.989  13.749  41.812  1.00  0.00     0.422 P 
HETATM   27  O   UNL     1      12.491  14.992  42.536  1.00  0.00    -0.617 OA
HETATM   28  O   UNL     1      13.314  12.630  42.768  1.00  0.00    -0.617 OA
HETATM   29  O   UNL     1      14.108  14.048  40.848  1.00  0.00    -0.617 OA
ENDBRANCH  25  26
ENDBRANCH  24  25
ENDBRANCH   1  24
TORSDOF 7
ENDMDL
MODEL 5
REMARK VINA RESULT:    -7.678      1.922      2.289
REMARK INTER + INTRA:         -10.563
REMARK INTER:                 -10.670
REMARK INTRA:                   0.107
REMARK UNBOUND:                -0.192
REMARK  7 active torsions:
REMARK  status: ('A' for Active; 'I' for Inactive)
REMARK    1  A    between atoms: C_2  and  C_19 
REMARK    2  A    between atoms: P_4  and  O_7 
REMARK    3  A    between atoms: O_7  and  C_8 
REMARK    4  A    between atoms: C_8  and  C_9 
REMARK    5  A    between atoms: C_10  and  O_11 
REMARK    6  A    between atoms: C_13  and  O_14 
REMARK    7  A    between atoms: C_17  and  N_18 
ROOT
HETATM    1  C   UNL     1      11.862  10.935  39.243  1.00  0.00     0.180 C 
HETATM    2  C   UNL     1      11.182   9.701  38.684  1.00  0.00     0.182 C 
HETATM    3  C   UNL     1      12.264   9.024  37.879  1.00  0.00     0.198 C 
HETATM    4  O   UNL     1      12.915  11.253  38.329  1.00  0.00    -0.353 OA
HETATM    5  C   UNL     1      13.098  10.204  37.365  1.00  0.00     0.265 C 
ENDROOT
BRANCH   5   6
HETATM    6  N   UNL     1      14.549   9.961  37.198  1.00  0.00    -0.266 N 
HETATM    7  C   UNL     1      15.424   9.949  38.287  1.00  0.00     0.332 A 
HETATM    8  O   UNL     1      15.012  10.248  39.423  1.00  0.00    -0.246 OA
HETATM    9  N   UNL     1      16.718   9.668  38.100  1.00  0.00    -0.275 N 
HETATM   10  C   UNL     1      17.229   9.361  36.886  1.00  0.00     0.251 A 
ATOM     11  HN  UNL     1      17.345   9.687  38.904  1.00  0.00     0.173 HD
HETATM   12  O   UNL     1      18.475   9.156  36.843  1.00  0.00    -0.268 OA
HETATM   13  C   UNL     1      16.421   9.330  35.764  1.00  0.00     0.107 A 
HETATM   14  C   UNL     1      15.087   9.680  35.925  1.00  0.00     0.084 A 
BRANCH  14  15
HETATM   15  C   UNL     1      14.282   9.948  34.733  1.00  0.00     0.121 C 
HETATM   16  N   UNL     1      13.898   8.822  34.134  1.00  0.00    -0.388 N 
ATOM     17  HN2 UNL     1      13.336   9.009  33.303  1.00  0.00     0.157 HD
ATOM     18  HN1 UNL     1      14.070   7.887  34.504  1.00  0.00     0.157 HD
HETATM   19  S   UNL     1      14.012  11.412  34.153  1.00  0.00    -0.059 SA
ENDBRANCH  14  15
ENDBRANCH   5   6
BRANCH   3  20
HETATM   20  O   UNL     1      11.649   8.296  36.833  1.00  0.00    -0.388 OA
ATOM     21  HO  UNL     1      11.245   8.915  36.238  1.00  0.00     0.210 HD
ENDBRANCH   3  20
BRANCH   2  22
HETATM   22  O   UNL     1      10.039  10.065  37.873  1.00  0.00    -0.390 OA
ATOM     23  HO  UNL     1       9.549  10.788  38.244  1.00  0.00     0.210 HD
ENDBRANCH   2  22
BRANCH   1  24
HETATM   24  C   UNL     1      12.417  10.749  40.642  1.00  0.00     0.217 C 
BRANCH  24  25
HETATM   25  O   UNL     1      11.861   9.557  41.165  1.00  0.00    -0.280 OA
BRANCH  25  26
HETATM   26  P   UNL     1      12.776   8.455  41.866  1.00  0.00     0.422 P 
HETATM   27  O   UNL     1      14.017   9.179  42.366  1.00  0.00    -0.617 OA
HETATM   28  O   UNL     1      11.901   7.983  42.998  1.00  0.00    -0.617 OA
HETATM   29  O   UNL     1      13.098   7.368  40.873  1.00  0.00    -0.617 OA
ENDBRANCH  25  26
ENDBRANCH  24  25
ENDBRANCH   1  24
TORSDOF 7
ENDMDL
MODEL 6
REMARK VINA RESULT:    -7.632      2.769      3.293
REMARK INTER + INTRA:         -10.501
REMARK INTER:                 -10.228
REMARK INTRA:                  -0.272
REMARK UNBOUND:                -0.192
REMARK  7 active torsions:
REMARK  status: ('A' for Active; 'I' for Inactive)
REMARK    1  A    between atoms: C_2  and  C_19 
REMARK    2  A    between atoms: P_4  and  O_7 
REMARK    3  A    between atoms: O_7  and  C_8 
REMARK    4  A    between atoms: C_8  and  C_9 
REMARK    5  A    between atoms: C_10  and  O_11 
REMARK    6  A    between atoms: C_13  and  O_14 
REMARK    7  A    between atoms: C_17  and  N_18 
ROOT
HETATM    1  C   UNL     1      12.711  11.493  38.868  1.00  0.00     0.180 C 
HETATM    2  C   UNL     1      11.374  10.884  39.243  1.00  0.00     0.182 C 
HETATM    3  C   UNL     1      11.746   9.590  39.926  1.00  0.00     0.198 C 
HETATM    4  O   UNL     1      13.618  10.397  38.729  1.00  0.00    -0.353 OA
HETATM    5  C   UNL     1      13.029   9.174  39.198  1.00  0.00     0.265 C 
ENDROOT
BRANCH   5   6
HETATM    6  N   UNL     1      14.033   8.440  40.002  1.00  0.00    -0.266 N 
HETATM    7  C   UNL     1      14.195   8.675  41.370  1.00  0.00     0.332 A 
HETATM    8  O   UNL     1      13.561   9.591  41.926  1.00  0.00    -0.246 OA
HETATM    9  N   UNL     1      15.073   7.951  42.071  1.00  0.00    -0.275 N 
HETATM   10  C   UNL     1      15.809   6.960  41.517  1.00  0.00     0.251 A 
ATOM     11  HN  UNL     1      15.193   8.153  43.063  1.00  0.00     0.173 HD
HETATM   12  O   UNL     1      16.629   6.382  42.284  1.00  0.00    -0.268 OA
HETATM   13  C   UNL     1      15.687   6.654  40.174  1.00  0.00     0.107 A 
HETATM   14  C   UNL     1      14.828   7.435  39.414  1.00  0.00     0.084 A 
BRANCH  14  15
HETATM   15  C   UNL     1      14.896   7.340  37.955  1.00  0.00     0.121 C 
HETATM   16  N   UNL     1      15.659   8.298  37.433  1.00  0.00    -0.388 N 
ATOM     17  HN2 UNL     1      15.707   8.232  36.416  1.00  0.00     0.157 HD
ATOM     18  HN1 UNL     1      16.199   8.966  37.984  1.00  0.00     0.157 HD
HETATM   19  S   UNL     1      14.051   6.294  37.092  1.00  0.00    -0.059 SA
ENDBRANCH  14  15
ENDBRANCH   5   6
BRANCH   3  20
HETATM   20  O   UNL     1      10.688   8.669  39.735  1.00  0.00    -0.388 OA
ATOM     21  HO  UNL     1       9.868   9.148  39.759  1.00  0.00     0.210 HD
ENDBRANCH   3  20
BRANCH   2  22
HETATM   22  O   UNL     1      10.556  10.672  38.069  1.00  0.00    -0.390 OA
ATOM     23  HO  UNL     1       9.728  11.134  38.118  1.00  0.00     0.210 HD
ENDBRANCH   2  22
BRANCH   1  24
HETATM   24  C   UNL     1      13.239  12.488  39.884  1.00  0.00     0.217 C 
BRANCH  24  25
HETATM   25  O   UNL     1      12.129  12.982  40.610  1.00  0.00    -0.280 OA
BRANCH  25  26
HETATM   26  P   UNL     1      12.238  13.304  42.168  1.00  0.00     0.422 P 
HETATM   27  O   UNL     1      12.424  14.810  42.287  1.00  0.00    -0.617 OA
HETATM   28  O   UNL     1      10.895  12.857  42.685  1.00  0.00    -0.617 OA
HETATM   29  O   UNL     1      13.388  12.529  42.759  1.00  0.00    -0.617 OA
ENDBRANCH  25  26
ENDBRANCH  24  25
ENDBRANCH   1  24
TORSDOF 7
ENDMDL
MODEL 7
REMARK VINA RESULT:    -7.279      2.926      4.150
REMARK INTER + INTRA:         -10.025
REMARK INTER:                 -10.042
REMARK INTRA:                   0.017
REMARK UNBOUND:                -0.192
REMARK  7 active torsions:
REMARK  status: ('A' for Active; 'I' for Inactive)
REMARK    1  A    between atoms: C_2  and  C_19 
REMARK    2  A    between atoms: P_4  and  O_7 
REMARK    3  A    between atoms: O_7  and  C_8 
REMARK    4  A    between atoms: C_8  and  C_9 
REMARK    5  A    between atoms: C_10  and  O_11 
REMARK    6  A    between atoms: C_13  and  O_14 
REMARK    7  A    between atoms: C_17  and  N_18 
ROOT
HETATM    1  C   UNL     1      12.935  12.194  38.899  1.00  0.00     0.180 C 
HETATM    2  C   UNL     1      12.419  11.412  37.707  1.00  0.00     0.182 C 
HETATM    3  C   UNL     1      12.501   9.974  38.156  1.00  0.00     0.198 C 
HETATM    4  O   UNL     1      13.812  11.310  39.601  1.00  0.00    -0.353 OA
HETATM    5  C   UNL     1      13.722   9.973  39.084  1.00  0.00     0.265 C 
ENDROOT
BRANCH   5   6
HETATM    6  N   UNL     1      13.683   9.026  40.222  1.00  0.00    -0.266 N 
HETATM    7  C   UNL     1      12.642   9.036  41.153  1.00  0.00     0.332 A 
HETATM    8  O   UNL     1      11.768   9.921  41.103  1.00  0.00    -0.246 OA
HETATM    9  N   UNL     1      12.614   8.126  42.133  1.00  0.00    -0.275 N 
HETATM   10  C   UNL     1      13.550   7.157  42.254  1.00  0.00     0.251 A 
ATOM     11  HN  UNL     1      11.859   8.165  42.816  1.00  0.00     0.173 HD
HETATM   12  O   UNL     1      13.427   6.387  43.247  1.00  0.00    -0.268 OA
HETATM   13  C   UNL     1      14.598   7.068  41.356  1.00  0.00     0.107 A 
HETATM   14  C   UNL     1      14.681   8.040  40.369  1.00  0.00     0.084 A 
BRANCH  14  15
HETATM   15  C   UNL     1      15.920   8.156  39.598  1.00  0.00     0.121 C 
HETATM   16  N   UNL     1      16.952   8.484  40.371  1.00  0.00    -0.388 N 
ATOM     17  HN2 UNL     1      17.816   8.565  39.834  1.00  0.00     0.157 HD
ATOM     18  HN1 UNL     1      16.907   8.564  41.388  1.00  0.00     0.157 HD
HETATM   19  S   UNL     1      15.991   8.033  38.007  1.00  0.00    -0.059 SA
ENDBRANCH  14  15
ENDBRANCH   5   6
BRANCH   3  20
HETATM   20  O   UNL     1      12.688   9.162  37.011  1.00  0.00    -0.388 OA
ATOM     21  HO  UNL     1      12.208   8.353  37.139  1.00  0.00     0.210 HD
ENDBRANCH   3  20
BRANCH   2  22
HETATM   22  O   UNL     1      13.225  11.669  36.533  1.00  0.00    -0.390 OA
ATOM     23  HO  UNL     1      14.035  12.117  36.742  1.00  0.00     0.210 HD
ENDBRANCH   2  22
BRANCH   1  24
HETATM   24  C   UNL     1      11.842  12.698  39.822  1.00  0.00     0.217 C 
BRANCH  24  25
HETATM   25  O   UNL     1      12.434  13.617  40.720  1.00  0.00    -0.280 OA
BRANCH  25  26
HETATM   26  P   UNL     1      12.316  13.423  42.299  1.00  0.00     0.422 P 
HETATM   27  O   UNL     1      12.445  14.808  42.915  1.00  0.00    -0.617 OA
HETATM   28  O   UNL     1      10.925  12.863  42.452  1.00  0.00    -0.617 OA
HETATM   29  O   UNL     1      13.390  12.477  42.768  1.00  0.00    -0.617 OA
ENDBRANCH  25  26
ENDBRANCH  24  25
ENDBRANCH   1  24
TORSDOF 7
ENDMDL
MODEL 8
REMARK VINA RESULT:    -7.062      1.498      1.888
REMARK INTER + INTRA:          -9.732
REMARK INTER:                  -9.517
REMARK INTRA:                  -0.215
REMARK UNBOUND:                -0.192
REMARK  7 active torsions:
REMARK  status: ('A' for Active; 'I' for Inactive)
REMARK    1  A    between atoms: C_2  and  C_19 
REMARK    2  A    between atoms: P_4  and  O_7 
REMARK    3  A    between atoms: O_7  and  C_8 
REMARK    4  A    between atoms: C_8  and  C_9 
REMARK    5  A    between atoms: C_10  and  O_11 
REMARK    6  A    between atoms: C_13  and  O_14 
REMARK    7  A    between atoms: C_17  and  N_18 
ROOT
HETATM    1  C   UNL     1      12.170   9.778  38.275  1.00  0.00     0.180 C 
HETATM    2  C   UNL     1      12.170   8.292  38.575  1.00  0.00     0.182 C 
HETATM    3  C   UNL     1      13.499   7.816  38.040  1.00  0.00     0.198 C 
HETATM    4  O   UNL     1      13.026   9.951  37.143  1.00  0.00    -0.353 OA
HETATM    5  C   UNL     1      13.738   8.742  36.842  1.00  0.00     0.265 C 
ENDROOT
BRANCH   5   6
HETATM    6  N   UNL     1      15.148   9.082  36.544  1.00  0.00    -0.266 N 
HETATM    7  C   UNL     1      16.094   9.251  37.558  1.00  0.00     0.332 A 
HETATM    8  O   UNL     1      15.743   9.220  38.752  1.00  0.00    -0.246 OA
HETATM    9  N   UNL     1      17.370   9.501  37.245  1.00  0.00    -0.275 N 
HETATM   10  C   UNL     1      17.806   9.572  35.967  1.00  0.00     0.251 A 
ATOM     11  HN  UNL     1      18.041   9.644  38.000  1.00  0.00     0.173 HD
HETATM   12  O   UNL     1      19.028   9.854  35.812  1.00  0.00    -0.268 OA
HETATM   13  C   UNL     1      16.933   9.393  34.909  1.00  0.00     0.107 A 
HETATM   14  C   UNL     1      15.593   9.195  35.211  1.00  0.00     0.084 A 
BRANCH  14  15
HETATM   15  C   UNL     1      14.607   9.300  34.135  1.00  0.00     0.121 C 
HETATM   16  N   UNL     1      14.324   8.111  33.608  1.00  0.00    -0.388 N 
ATOM     17  HN2 UNL     1      13.636   8.184  32.857  1.00  0.00     0.157 HD
ATOM     18  HN1 UNL     1      14.683   7.225  33.963  1.00  0.00     0.157 HD
HETATM   19  S   UNL     1      14.044  10.688  33.577  1.00  0.00    -0.059 SA
ENDBRANCH  14  15
ENDBRANCH   5   6
BRANCH   3  20
HETATM   20  O   UNL     1      13.363   6.458  37.661  1.00  0.00    -0.388 OA
ATOM     21  HO  UNL     1      12.777   6.035  38.277  1.00  0.00     0.210 HD
ENDBRANCH   3  20
BRANCH   2  22
HETATM   22  O   UNL     1      11.052   7.635  37.934  1.00  0.00    -0.390 OA
ATOM     23  HO  UNL     1      10.320   7.509  38.525  1.00  0.00     0.210 HD
ENDBRANCH   2  22
BRANCH   1  24
HETATM   24  C   UNL     1      12.643  10.637  39.432  1.00  0.00     0.217 C 
BRANCH  24  25
HETATM   25  O   UNL     1      12.825  11.951  38.939  1.00  0.00    -0.280 OA
BRANCH  25  26
HETATM   26  P   UNL     1      12.967  13.193  39.928  1.00  0.00     0.422 P 
HETATM   27  O   UNL     1      14.454  13.501  40.025  1.00  0.00    -0.617 OA
HETATM   28  O   UNL     1      12.212  14.274  39.200  1.00  0.00    -0.617 OA
HETATM   29  O   UNL     1      12.360  12.842  41.262  1.00  0.00    -0.617 OA
ENDBRANCH  25  26
ENDBRANCH  24  25
ENDBRANCH   1  24
TORSDOF 7
ENDMDL
MODEL 9
REMARK VINA RESULT:    -6.993      2.468      2.988
REMARK INTER + INTRA:          -9.639
REMARK INTER:                  -9.454
REMARK INTRA:                  -0.185
REMARK UNBOUND:                -0.192
REMARK  7 active torsions:
REMARK  status: ('A' for Active; 'I' for Inactive)
REMARK    1  A    between atoms: C_2  and  C_19 
REMARK    2  A    between atoms: P_4  and  O_7 
REMARK    3  A    between atoms: O_7  and  C_8 
REMARK    4  A    between atoms: C_8  and  C_9 
REMARK    5  A    between atoms: C_10  and  O_11 
REMARK    6  A    between atoms: C_13  and  O_14 
REMARK    7  A    between atoms: C_17  and  N_18 
ROOT
HETATM    1  C   UNL     1      12.325  10.883  39.979  1.00  0.00     0.180 C 
HETATM    2  C   UNL     1      11.290  10.117  39.179  1.00  0.00     0.182 C 
HETATM    3  C   UNL     1      11.974   8.808  38.866  1.00  0.00     0.198 C 
HETATM    4  O   UNL     1      13.597  10.378  39.565  1.00  0.00    -0.353 OA
HETATM    5  C   UNL     1      13.448   9.212  38.742  1.00  0.00     0.265 C 
ENDROOT
BRANCH   5   6
HETATM    6  N   UNL     1      14.444   8.201  39.164  1.00  0.00    -0.266 N 
HETATM    7  C   UNL     1      14.208   7.339  40.238  1.00  0.00     0.332 A 
HETATM    8  O   UNL     1      13.185   7.473  40.934  1.00  0.00    -0.246 OA
HETATM    9  N   UNL     1      15.109   6.402  40.551  1.00  0.00    -0.275 N 
HETATM   10  C   UNL     1      16.251   6.224  39.848  1.00  0.00     0.251 A 
ATOM     11  HN  UNL     1      14.929   5.797  41.352  1.00  0.00     0.173 HD
HETATM   12  O   UNL     1      17.033   5.330  40.275  1.00  0.00    -0.268 OA
HETATM   13  C   UNL     1      16.543   7.024  38.758  1.00  0.00     0.107 A 
HETATM   14  C   UNL     1      15.652   8.044  38.454  1.00  0.00     0.084 A 
BRANCH  14  15
HETATM   15  C   UNL     1      16.068   9.083  37.511  1.00  0.00     0.121 C 
HETATM   16  N   UNL     1      16.484  10.181  38.139  1.00  0.00    -0.388 N 
ATOM     17  HN2 UNL     1      16.774  10.905  37.482  1.00  0.00     0.157 HD
ATOM     18  HN1 UNL     1      16.582  10.261  39.152  1.00  0.00     0.157 HD
HETATM   19  S   UNL     1      15.914   8.958  35.926  1.00  0.00    -0.059 SA
ENDBRANCH  14  15
ENDBRANCH   5   6
BRANCH   3  20
HETATM   20  O   UNL     1      11.442   8.310  37.651  1.00  0.00    -0.388 OA
ATOM     21  HO  UNL     1      10.899   7.558  37.851  1.00  0.00     0.210 HD
ENDBRANCH   3  20
BRANCH   2  22
HETATM   22  O   UNL     1      10.919  10.844  37.984  1.00  0.00    -0.390 OA
ATOM     23  HO  UNL     1      10.403  11.617  38.178  1.00  0.00     0.210 HD
ENDBRANCH   2  22
BRANCH   1  24
HETATM   24  C   UNL     1      12.165  10.745  41.481  1.00  0.00     0.217 C 
BRANCH  24  25
HETATM   25  O   UNL     1      12.739  11.893  42.077  1.00  0.00    -0.280 OA
BRANCH  25  26
HETATM   26  P   UNL     1      11.927  13.261  42.186  1.00  0.00     0.422 P 
HETATM   27  O   UNL     1      12.498  14.188  41.123  1.00  0.00    -0.617 OA
HETATM   28  O   UNL     1      10.521  12.828  41.864  1.00  0.00    -0.617 OA
HETATM   29  O   UNL     1      12.072  13.817  43.579  1.00  0.00    -0.617 OA
ENDBRANCH  25  26
ENDBRANCH  24  25
ENDBRANCH   1  24
TORSDOF 7
ENDMDL
MODEL 10
REMARK VINA RESULT:    -6.979      2.594      2.983
REMARK INTER + INTRA:          -9.619
REMARK INTER:                  -9.745
REMARK INTRA:                   0.126
REMARK UNBOUND:                -0.192
REMARK  7 active torsions:
REMARK  status: ('A' for Active; 'I' for Inactive)
REMARK    1  A    between atoms: C_2  and  C_19 
REMARK    2  A    between atoms: P_4  and  O_7 
REMARK    3  A    between atoms: O_7  and  C_8 
REMARK    4  A    between atoms: C_8  and  C_9 
REMARK    5  A    between atoms: C_10  and  O_11 
REMARK    6  A    between atoms: C_13  and  O_14 
REMARK    7  A    between atoms: C_17  and  N_18 
ROOT
HETATM    1  C   UNL     1      11.870  10.822  39.403  1.00  0.00     0.180 C 
HETATM    2  C   UNL     1      11.463   9.981  40.597  1.00  0.00     0.182 C 
HETATM    3  C   UNL     1      12.585   8.980  40.733  1.00  0.00     0.198 C 
HETATM    4  O   UNL     1      12.701   9.985  38.596  1.00  0.00    -0.353 OA
HETATM    5  C   UNL     1      13.033   8.768  39.282  1.00  0.00     0.265 C 
ENDROOT
BRANCH   5   6
HETATM    6  N   UNL     1      14.471   8.482  39.073  1.00  0.00    -0.266 N 
HETATM    7  C   UNL     1      15.420   9.503  38.990  1.00  0.00     0.332 A 
HETATM    8  O   UNL     1      15.058  10.694  38.987  1.00  0.00    -0.246 OA
HETATM    9  N   UNL     1      16.716   9.200  38.858  1.00  0.00    -0.275 N 
HETATM   10  C   UNL     1      17.167   7.925  38.829  1.00  0.00     0.251 A 
ATOM     11  HN  UNL     1      17.391   9.960  38.776  1.00  0.00     0.173 HD
HETATM   12  O   UNL     1      18.410   7.779  38.660  1.00  0.00    -0.268 OA
HETATM   13  C   UNL     1      16.290   6.861  38.929  1.00  0.00     0.107 A 
HETATM   14  C   UNL     1      14.934   7.152  39.003  1.00  0.00     0.084 A 
BRANCH  14  15
HETATM   15  C   UNL     1      13.971   6.067  38.809  1.00  0.00     0.121 C 
HETATM   16  N   UNL     1      13.681   5.455  39.955  1.00  0.00    -0.388 N 
ATOM     17  HN2 UNL     1      13.009   4.699  39.820  1.00  0.00     0.157 HD
ATOM     18  HN1 UNL     1      14.021   5.755  40.869  1.00  0.00     0.157 HD
HETATM   19  S   UNL     1      13.438   5.596  37.378  1.00  0.00    -0.059 SA
ENDBRANCH  14  15
ENDBRANCH   5   6
BRANCH   3  20
HETATM   20  O   UNL     1      12.059   7.803  41.318  1.00  0.00    -0.388 OA
ATOM     21  HO  UNL     1      11.585   8.047  42.103  1.00  0.00     0.210 HD
ENDBRANCH   3  20
BRANCH   2  22
HETATM   22  O   UNL     1      10.183   9.345  40.368  1.00  0.00    -0.390 OA
ATOM     23  HO  UNL     1       9.690   9.229  41.170  1.00  0.00     0.210 HD
ENDBRANCH   2  22
BRANCH   1  24
HETATM   24  C   UNL     1      12.606  12.096  39.773  1.00  0.00     0.217 C 
BRANCH  24  25
HETATM   25  O   UNL     1      11.757  12.847  40.621  1.00  0.00    -0.280 OA
BRANCH  25  26
HETATM   26  P   UNL     1      12.208  13.249  42.096  1.00  0.00     0.422 P 
HETATM   27  O   UNL     1      12.624  14.711  42.038  1.00  0.00    -0.617 OA
HETATM   28  O   UNL     1      10.939  13.053  42.886  1.00  0.00    -0.617 OA
HETATM   29  O   UNL     1      13.328  12.344  42.541  1.00  0.00    -0.617 OA
ENDBRANCH  25  26
ENDBRANCH  24  25
ENDBRANCH   1  24
TORSDOF 7
ENDMDL
MODEL 11
REMARK VINA RESULT:    -6.772      3.323      5.458
REMARK INTER + INTRA:          -9.340
REMARK INTER:                  -9.054
REMARK INTRA:                  -0.286
REMARK UNBOUND:                -0.192
REMARK  7 active torsions:
REMARK  status: ('A' for Active; 'I' for Inactive)
REMARK    1  A    between atoms: C_2  and  C_19 
REMARK    2  A    between atoms: P_4  and  O_7 
REMARK    3  A    between atoms: O_7  and  C_8 
REMARK    4  A    between atoms: C_8  and  C_9 
REMARK    5  A    between atoms: C_10  and  O_11 
REMARK    6  A    between atoms: C_13  and  O_14 
REMARK    7  A    between atoms: C_17  and  N_18 
ROOT
HETATM    1  C   UNL     1      14.630  10.975  39.139  1.00  0.00     0.180 C 
HETATM    2  C   UNL     1      14.912  10.292  37.815  1.00  0.00     0.182 C 
HETATM    3  C   UNL     1      13.772   9.317  37.661  1.00  0.00     0.198 C 
HETATM    4  O   UNL     1      13.870  10.041  39.909  1.00  0.00    -0.353 OA
HETATM    5  C   UNL     1      13.461   8.921  39.109  1.00  0.00     0.265 C 
ENDROOT
BRANCH   5   6
HETATM    6  N   UNL     1      12.046   8.609  39.416  1.00  0.00    -0.266 N 
HETATM    7  C   UNL     1      10.992   9.292  38.804  1.00  0.00     0.332 A 
HETATM    8  O   UNL     1      11.225  10.258  38.054  1.00  0.00    -0.246 OA
HETATM    9  N   UNL     1       9.728   8.941  39.066  1.00  0.00    -0.275 N 
HETATM   10  C   UNL     1       9.412   7.917  39.891  1.00  0.00     0.251 A 
ATOM     11  HN  UNL     1       8.973   9.466  38.627  1.00  0.00     0.173 HD
HETATM   12  O   UNL     1       8.180   7.718  40.083  1.00  0.00    -0.268 OA
HETATM   13  C   UNL     1      10.402   7.180  40.517  1.00  0.00     0.107 A 
HETATM   14  C   UNL     1      11.718   7.568  40.308  1.00  0.00     0.084 A 
BRANCH  14  15
HETATM   15  C   UNL     1      12.760   7.013  41.174  1.00  0.00     0.121 C 
HETATM   16  N   UNL     1      13.069   7.844  42.167  1.00  0.00    -0.388 N 
ATOM     17  HN2 UNL     1      13.795   7.458  42.771  1.00  0.00     0.157 HD
ATOM     18  HN1 UNL     1      12.583   8.722  42.354  1.00  0.00     0.157 HD
HETATM   19  S   UNL     1      13.520   5.639  40.882  1.00  0.00    -0.059 SA
ENDBRANCH  14  15
ENDBRANCH   5   6
BRANCH   3  20
HETATM   20  O   UNL     1      14.225   8.224  36.883  1.00  0.00    -0.388 OA
ATOM     21  HO  UNL     1      13.565   8.029  36.230  1.00  0.00     0.210 HD
ENDBRANCH   3  20
BRANCH   2  22
HETATM   22  O   UNL     1      16.201   9.634  37.838  1.00  0.00    -0.390 OA
ATOM     23  HO  UNL     1      16.203   8.865  38.395  1.00  0.00     0.210 HD
ENDBRANCH   2  22
BRANCH   1  24
HETATM   24  C   UNL     1      13.877  12.285  39.005  1.00  0.00     0.217 C 
BRANCH  24  25
HETATM   25  O   UNL     1      14.475  13.211  39.893  1.00  0.00    -0.280 OA
BRANCH  25  26
HETATM   26  P   UNL     1      13.590  14.113  40.866  1.00  0.00     0.422 P 
HETATM   27  O   UNL     1      14.356  15.412  41.067  1.00  0.00    -0.617 OA
HETATM   28  O   UNL     1      12.332  14.316  40.063  1.00  0.00    -0.617 OA
HETATM   29  O   UNL     1      13.356  13.372  42.157  1.00  0.00    -0.617 OA
ENDBRANCH  25  26
ENDBRANCH  24  25
ENDBRANCH   1  24
TORSDOF 7
ENDMDL
MODEL 12
REMARK VINA RESULT:    -6.621      3.818      6.532
REMARK INTER + INTRA:          -9.135
REMARK INTER:                  -8.935
REMARK INTRA:                  -0.201
REMARK UNBOUND:                -0.192
REMARK  7 active torsions:
REMARK  status: ('A' for Active; 'I' for Inactive)
REMARK    1  A    between atoms: C_2  and  C_19 
REMARK    2  A    between atoms: P_4  and  O_7 
REMARK    3  A    between atoms: O_7  and  C_8 
REMARK    4  A    between atoms: C_8  and  C_9 
REMARK    5  A    between atoms: C_10  and  O_11 
REMARK    6  A    between atoms: C_13  and  O_14 
REMARK    7  A    between atoms: C_17  and  N_18 
ROOT
HETATM    1  C   UNL     1      13.720   7.537  38.812  1.00  0.00     0.180 C 
HETATM    2  C   UNL     1      13.122   8.051  37.516  1.00  0.00     0.182 C 
HETATM    3  C   UNL     1      12.361   9.285  37.934  1.00  0.00     0.198 C 
HETATM    4  O   UNL     1      12.855   7.996  39.853  1.00  0.00    -0.353 OA
HETATM    5  C   UNL     1      11.892   8.936  39.351  1.00  0.00     0.265 C 
ENDROOT
BRANCH   5   6
HETATM    6  N   UNL     1      11.786  10.063  40.305  1.00  0.00    -0.266 N 
HETATM    7  C   UNL     1      12.638  11.168  40.237  1.00  0.00     0.332 A 
HETATM    8  O   UNL     1      13.582  11.180  39.425  1.00  0.00    -0.246 OA
HETATM    9  N   UNL     1      12.472  12.192  41.081  1.00  0.00    -0.275 N 
HETATM   10  C   UNL     1      11.481  12.225  42.001  1.00  0.00     0.251 A 
ATOM     11  HN  UNL     1      13.119  12.979  41.030  1.00  0.00     0.173 HD
HETATM   12  O   UNL     1      11.463  13.233  42.762  1.00  0.00    -0.268 OA
HETATM   13  C   UNL     1      10.585  11.178  42.114  1.00  0.00     0.107 A 
HETATM   14  C   UNL     1      10.777  10.078  41.290  1.00  0.00     0.084 A 
BRANCH  14  15
HETATM   15  C   UNL     1      10.045   8.844  41.582  1.00  0.00     0.121 C 
HETATM   16  N   UNL     1       8.900   8.778  40.906  1.00  0.00    -0.388 N 
ATOM     17  HN2 UNL     1       8.390   7.919  41.109  1.00  0.00     0.157 HD
ATOM     18  HN1 UNL     1       8.606   9.461  40.206  1.00  0.00     0.157 HD
HETATM   19  S   UNL     1      10.505   7.776  42.678  1.00  0.00    -0.059 SA
ENDBRANCH  14  15
ENDBRANCH   5   6
BRANCH   3  20
HETATM   20  O   UNL     1      11.283   9.466  37.033  1.00  0.00    -0.388 OA
ATOM     21  HO  UNL     1      10.521   9.028  37.390  1.00  0.00     0.210 HD
ENDBRANCH   3  20
BRANCH   2  22
HETATM   22  O   UNL     1      12.265   7.053  36.912  1.00  0.00    -0.390 OA
ATOM     23  HO  UNL     1      11.418   7.406  36.667  1.00  0.00     0.210 HD
ENDBRANCH   2  22
BRANCH   1  24
HETATM   24  C   UNL     1      15.141   8.007  39.060  1.00  0.00     0.217 C 
BRANCH  24  25
HETATM   25  O   UNL     1      15.837   7.923  37.831  1.00  0.00    -0.280 OA
BRANCH  25  26
HETATM   26  P   UNL     1      16.765   9.116  37.324  1.00  0.00     0.422 P 
HETATM   27  O   UNL     1      16.423   9.339  35.859  1.00  0.00    -0.617 OA
HETATM   28  O   UNL     1      16.317  10.265  38.191  1.00  0.00    -0.617 OA
HETATM   29  O   UNL     1      18.211   8.747  37.533  1.00  0.00    -0.617 OA
ENDBRANCH  25  26
ENDBRANCH  24  25
ENDBRANCH   1  24
TORSDOF 7
ENDMDL
MODEL 13
REMARK VINA RESULT:    -6.585      4.147      6.071
REMARK INTER + INTRA:          -9.087
REMARK INTER:                  -8.907
REMARK INTRA:                  -0.181
REMARK UNBOUND:                -0.192
REMARK  7 active torsions:
REMARK  status: ('A' for Active; 'I' for Inactive)
REMARK    1  A    between atoms: C_2  and  C_19 
REMARK    2  A    between atoms: P_4  and  O_7 
REMARK    3  A    between atoms: O_7  and  C_8 
REMARK    4  A    between atoms: C_8  and  C_9 
REMARK    5  A    between atoms: C_10  and  O_11 
REMARK    6  A    between atoms: C_13  and  O_14 
REMARK    7  A    between atoms: C_17  and  N_18 
ROOT
HETATM    1  C   UNL     1      12.976   9.996  37.423  1.00  0.00     0.180 C 
HETATM    2  C   UNL     1      12.525  11.133  38.318  1.00  0.00     0.182 C 
HETATM    3  C   UNL     1      13.057  10.754  39.679  1.00  0.00     0.198 C 
HETATM    4  O   UNL     1      13.108   8.854  38.273  1.00  0.00    -0.353 OA
HETATM    5  C   UNL     1      12.996   9.222  39.656  1.00  0.00     0.265 C 
ENDROOT
BRANCH   5   6
HETATM    6  N   UNL     1      14.044   8.510  40.423  1.00  0.00    -0.266 N 
HETATM    7  C   UNL     1      15.403   8.780  40.238  1.00  0.00     0.332 A 
HETATM    8  O   UNL     1      15.768   9.560  39.340  1.00  0.00    -0.246 OA
HETATM    9  N   UNL     1      16.315   8.156  40.992  1.00  0.00    -0.275 N 
HETATM   10  C   UNL     1      15.980   7.279  41.965  1.00  0.00     0.251 A 
ATOM     11  HN  UNL     1      17.302   8.349  40.826  1.00  0.00     0.173 HD
HETATM   12  O   UNL     1      16.941   6.732  42.575  1.00  0.00    -0.268 OA
HETATM   13  C   UNL     1      14.654   6.979  42.223  1.00  0.00     0.107 A 
HETATM   14  C   UNL     1      13.694   7.567  41.411  1.00  0.00     0.084 A 
BRANCH  14  15
HETATM   15  C   UNL     1      12.325   7.051  41.454  1.00  0.00     0.121 C 
HETATM   16  N   UNL     1      11.611   7.630  42.417  1.00  0.00    -0.388 N 
ATOM     17  HN2 UNL     1      10.657   7.270  42.448  1.00  0.00     0.157 HD
ATOM     18  HN1 UNL     1      11.947   8.397  42.999  1.00  0.00     0.157 HD
HETATM   19  S   UNL     1      11.799   5.848  40.544  1.00  0.00    -0.059 SA
ENDBRANCH  14  15
ENDBRANCH   5   6
BRANCH   3  20
HETATM   20  O   UNL     1      12.206  11.318  40.660  1.00  0.00    -0.388 OA
ATOM     21  HO  UNL     1      11.435  11.659  40.224  1.00  0.00     0.210 HD
ENDBRANCH   3  20
BRANCH   2  22
HETATM   22  O   UNL     1      11.084  11.260  38.307  1.00  0.00    -0.390 OA
ATOM     23  HO  UNL     1      10.651  10.491  38.656  1.00  0.00     0.210 HD
ENDBRANCH   2  22
BRANCH   1  24
HETATM   24  C   UNL     1      14.279  10.266  36.696  1.00  0.00     0.217 C 
BRANCH  24  25
HETATM   25  O   UNL     1      14.031  10.118  35.310  1.00  0.00    -0.280 OA
BRANCH  25  26
HETATM   26  P   UNL     1      14.755   8.981  34.458  1.00  0.00     0.422 P 
HETATM   27  O   UNL     1      16.166   8.857  35.012  1.00  0.00    -0.617 OA
HETATM   28  O   UNL     1      13.918   7.766  34.764  1.00  0.00    -0.617 OA
HETATM   29  O   UNL     1      14.736   9.362  33.000  1.00  0.00    -0.617 OA
ENDBRANCH  25  26
ENDBRANCH  24  25
ENDBRANCH   1  24
TORSDOF 7
ENDMDL
MODEL 14
REMARK VINA RESULT:    -6.496      5.248      6.943
REMARK INTER + INTRA:          -8.967
REMARK INTER:                  -8.880
REMARK INTRA:                  -0.088
REMARK UNBOUND:                -0.192
REMARK  7 active torsions:
REMARK  status: ('A' for Active; 'I' for Inactive)
REMARK    1  A    between atoms: C_2  and  C_19 
REMARK    2  A    between atoms: P_4  and  O_7 
REMARK    3  A    between atoms: O_7  and  C_8 
REMARK    4  A    between atoms: C_8  and  C_9 
REMARK    5  A    between atoms: C_10  and  O_11 
REMARK    6  A    between atoms: C_13  and  O_14 
REMARK    7  A    between atoms: C_17  and  N_18 
ROOT
HETATM    1  C   UNL     1      13.222  10.048  40.974  1.00  0.00     0.180 C 
HETATM    2  C   UNL     1      12.726   9.157  39.853  1.00  0.00     0.182 C 
HETATM    3  C   UNL     1      12.141   7.965  40.570  1.00  0.00     0.198 C 
HETATM    4  O   UNL     1      13.506   9.178  42.072  1.00  0.00    -0.353 OA
HETATM    5  C   UNL     1      13.025   7.849  41.818  1.00  0.00     0.265 C 
ENDROOT
BRANCH   5   6
HETATM    6  N   UNL     1      12.368   7.339  43.044  1.00  0.00    -0.266 N 
HETATM    7  C   UNL     1      11.134   7.832  43.477  1.00  0.00     0.332 A 
HETATM    8  O   UNL     1      10.605   8.793  42.891  1.00  0.00    -0.246 OA
HETATM    9  N   UNL     1      10.548   7.304  44.557  1.00  0.00    -0.275 N 
HETATM   10  C   UNL     1      11.087   6.276  45.251  1.00  0.00     0.251 A 
ATOM     11  HN  UNL     1       9.659   7.693  44.871  1.00  0.00     0.173 HD
HETATM   12  O   UNL     1      10.449   5.900  46.274  1.00  0.00    -0.268 OA
HETATM   13  C   UNL     1      12.295   5.720  44.869  1.00  0.00     0.107 A 
HETATM   14  C   UNL     1      12.951   6.294  43.788  1.00  0.00     0.084 A 
BRANCH  14  15
HETATM   15  C   UNL     1      14.349   5.935  43.544  1.00  0.00     0.121 C 
HETATM   16  N   UNL     1      15.180   6.649  44.301  1.00  0.00    -0.388 N 
ATOM     17  HN2 UNL     1      16.155   6.399  44.132  1.00  0.00     0.157 HD
ATOM     18  HN1 UNL     1      14.880   7.304  45.023  1.00  0.00     0.157 HD
HETATM   19  S   UNL     1      14.820   4.909  42.414  1.00  0.00    -0.059 SA
ENDBRANCH  14  15
ENDBRANCH   5   6
BRANCH   3  20
HETATM   20  O   UNL     1      12.251   6.838  39.720  1.00  0.00    -0.388 OA
ATOM     21  HO  UNL     1      11.733   7.003  38.941  1.00  0.00     0.210 HD
ENDBRANCH   3  20
BRANCH   2  22
HETATM   22  O   UNL     1      13.809   8.790  38.967  1.00  0.00    -0.390 OA
ATOM     23  HO  UNL     1      13.635   7.981  38.500  1.00  0.00     0.210 HD
ENDBRANCH   2  22
BRANCH   1  24
HETATM   24  C   UNL     1      12.232  11.119  41.392  1.00  0.00     0.217 C 
BRANCH  24  25
HETATM   25  O   UNL     1      12.959  12.134  42.057  1.00  0.00    -0.280 OA
BRANCH  25  26
HETATM   26  P   UNL     1      12.904  13.649  41.563  1.00  0.00     0.422 P 
HETATM   27  O   UNL     1      12.398  14.470  42.740  1.00  0.00    -0.617 OA
HETATM   28  O   UNL     1      14.349  13.940  41.250  1.00  0.00    -0.617 OA
HETATM   29  O   UNL     1      12.005  13.749  40.358  1.00  0.00    -0.617 OA
ENDBRANCH  25  26
ENDBRANCH  24  25
ENDBRANCH   1  24
TORSDOF 7
ENDMDL
MODEL 15
REMARK VINA RESULT:    -6.435      3.073      4.801
REMARK INTER + INTRA:          -8.884
REMARK INTER:                  -8.453
REMARK INTRA:                  -0.431
REMARK UNBOUND:                -0.192
REMARK  7 active torsions:
REMARK  status: ('A' for Active; 'I' for Inactive)
REMARK    1  A    between atoms: C_2  and  C_19 
REMARK    2  A    between atoms: P_4  and  O_7 
REMARK    3  A    between atoms: O_7  and  C_8 
REMARK    4  A    between atoms: C_8  and  C_9 
REMARK    5  A    between atoms: C_10  and  O_11 
REMARK    6  A    between atoms: C_13  and  O_14 
REMARK    7  A    between atoms: C_17  and  N_18 
ROOT
HETATM    1  C   UNL     1      12.709   7.263  40.891  1.00  0.00     0.180 C 
HETATM    2  C   UNL     1      14.194   7.343  41.185  1.00  0.00     0.182 C 
HETATM    3  C   UNL     1      14.565   8.752  40.794  1.00  0.00     0.198 C 
HETATM    4  O   UNL     1      12.460   8.220  39.858  1.00  0.00    -0.353 OA
HETATM    5  C   UNL     1      13.611   9.048  39.631  1.00  0.00     0.265 C 
ENDROOT
BRANCH   5   6
HETATM    6  N   UNL     1      13.164  10.453  39.487  1.00  0.00    -0.266 N 
HETATM    7  C   UNL     1      12.954  11.275  40.597  1.00  0.00     0.332 A 
HETATM    8  O   UNL     1      13.040  10.808  41.747  1.00  0.00    -0.246 OA
HETATM    9  N   UNL     1      12.607  12.555  40.421  1.00  0.00    -0.275 N 
HETATM   10  C   UNL     1      12.473  13.113  39.197  1.00  0.00     0.251 A 
ATOM     11  HN  UNL     1      12.435  13.133  41.244  1.00  0.00     0.173 HD
HETATM   12  O   UNL     1      12.101  14.320  39.174  1.00  0.00    -0.268 OA
HETATM   13  C   UNL     1      12.687  12.368  38.051  1.00  0.00     0.107 A 
HETATM   14  C   UNL     1      12.987  11.021  38.209  1.00  0.00     0.084 A 
BRANCH  14  15
HETATM   15  C   UNL     1      12.924  10.145  37.038  1.00  0.00     0.121 C 
HETATM   16  N   UNL     1      11.828   9.390  37.046  1.00  0.00    -0.388 N 
ATOM     17  HN2 UNL     1      11.784   8.779  36.230  1.00  0.00     0.157 HD
ATOM     18  HN1 UNL     1      11.081   9.470  37.736  1.00  0.00     0.157 HD
HETATM   19  S   UNL     1      14.095  10.021  35.958  1.00  0.00    -0.059 SA
ENDBRANCH  14  15
ENDBRANCH   5   6
BRANCH   3  20
HETATM   20  O   UNL     1      15.924   8.759  40.399  1.00  0.00    -0.388 OA
ATOM     21  HO  UNL     1      16.344   7.991  40.766  1.00  0.00     0.210 HD
ENDBRANCH   3  20
BRANCH   2  22
HETATM   22  O   UNL     1      14.924   6.351  40.426  1.00  0.00    -0.390 OA
ATOM     23  HO  UNL     1      14.606   5.470  40.582  1.00  0.00     0.210 HD
ENDBRANCH   2  22
BRANCH   1  24
HETATM   24  C   UNL     1      11.829   7.546  42.095  1.00  0.00     0.217 C 
BRANCH  24  25
HETATM   25  O   UNL     1      10.788   8.404  41.668  1.00  0.00    -0.280 OA
BRANCH  25  26
HETATM   26  P   UNL     1       9.773   9.055  42.712  1.00  0.00     0.422 P 
HETATM   27  O   UNL     1      10.041  10.553  42.699  1.00  0.00    -0.617 OA
HETATM   28  O   UNL     1       8.433   8.714  42.114  1.00  0.00    -0.617 OA
HETATM   29  O   UNL     1       9.990   8.439  44.069  1.00  0.00    -0.617 OA
ENDBRANCH  25  26
ENDBRANCH  24  25
ENDBRANCH   1  24
TORSDOF 7
ENDMDL
MODEL 16
REMARK VINA RESULT:    -6.411      3.700      4.582
REMARK INTER + INTRA:          -8.852
REMARK INTER:                  -9.035
REMARK INTRA:                   0.183
REMARK UNBOUND:                -0.192
REMARK  7 active torsions:
REMARK  status: ('A' for Active; 'I' for Inactive)
REMARK    1  A    between atoms: C_2  and  C_19 
REMARK    2  A    between atoms: P_4  and  O_7 
REMARK    3  A    between atoms: O_7  and  C_8 
REMARK    4  A    between atoms: C_8  and  C_9 
REMARK    5  A    between atoms: C_10  and  O_11 
REMARK    6  A    between atoms: C_13  and  O_14 
REMARK    7  A    between atoms: C_17  and  N_18 
ROOT
HETATM    1  C   UNL     1      12.856  11.103  39.616  1.00  0.00     0.180 C 
HETATM    2  C   UNL     1      11.650  10.472  38.949  1.00  0.00     0.182 C 
HETATM    3  C   UNL     1      11.648   9.056  39.471  1.00  0.00     0.198 C 
HETATM    4  O   UNL     1      13.761  10.030  39.890  1.00  0.00    -0.353 OA
HETATM    5  C   UNL     1      13.141   8.757  39.657  1.00  0.00     0.265 C 
ENDROOT
BRANCH   5   6
HETATM    6  N   UNL     1      13.495   7.845  40.769  1.00  0.00    -0.266 N 
HETATM    7  C   UNL     1      13.721   8.317  42.064  1.00  0.00     0.332 A 
HETATM    8  O   UNL     1      13.730   9.540  42.291  1.00  0.00    -0.246 OA
HETATM    9  N   UNL     1      13.983   7.454  43.052  1.00  0.00    -0.275 N 
HETATM   10  C   UNL     1      14.012   6.115  42.862  1.00  0.00     0.251 A 
ATOM     11  HN  UNL     1      14.168   7.819  43.986  1.00  0.00     0.173 HD
HETATM   12  O   UNL     1      14.311   5.417  43.871  1.00  0.00    -0.268 OA
HETATM   13  C   UNL     1      13.776   5.572  41.612  1.00  0.00     0.107 A 
HETATM   14  C   UNL     1      13.565   6.452  40.560  1.00  0.00     0.084 A 
BRANCH  14  15
HETATM   15  C   UNL     1      13.610   5.935  39.191  1.00  0.00     0.121 C 
HETATM   16  N   UNL     1      12.418   5.499  38.790  1.00  0.00    -0.388 N 
ATOM     17  HN2 UNL     1      12.449   5.139  37.835  1.00  0.00     0.157 HD
ATOM     18  HN1 UNL     1      11.560   5.589  39.334  1.00  0.00     0.157 HD
HETATM   19  S   UNL     1      14.954   5.794  38.338  1.00  0.00    -0.059 SA
ENDBRANCH  14  15
ENDBRANCH   5   6
BRANCH   3  20
HETATM   20  O   UNL     1      11.044   8.225  38.496  1.00  0.00    -0.388 OA
ATOM     21  HO  UNL     1      10.216   7.916  38.841  1.00  0.00     0.210 HD
ENDBRANCH   3  20
BRANCH   2  22
HETATM   22  O   UNL     1      11.770  10.527  37.508  1.00  0.00    -0.390 OA
ATOM     23  HO  UNL     1      11.817   9.663  37.116  1.00  0.00     0.210 HD
ENDBRANCH   2  22
BRANCH   1  24
HETATM   24  C   UNL     1      12.528  11.855  40.892  1.00  0.00     0.217 C 
BRANCH  24  25
HETATM   25  O   UNL     1      13.552  12.810  41.098  1.00  0.00    -0.280 OA
BRANCH  25  26
HETATM   26  P   UNL     1      13.259  14.373  40.983  1.00  0.00     0.422 P 
HETATM   27  O   UNL     1      12.449  14.569  39.711  1.00  0.00    -0.617 OA
HETATM   28  O   UNL     1      12.443  14.641  42.221  1.00  0.00    -0.617 OA
HETATM   29  O   UNL     1      14.565  15.125  40.960  1.00  0.00    -0.617 OA
ENDBRANCH  25  26
ENDBRANCH  24  25
ENDBRANCH   1  24
TORSDOF 7
ENDMDL
MODEL 17
REMARK VINA RESULT:    -6.403      2.869      3.691
REMARK INTER + INTRA:          -8.842
REMARK INTER:                  -8.415
REMARK INTRA:                  -0.426
REMARK UNBOUND:                -0.192
REMARK  7 active torsions:
REMARK  status: ('A' for Active; 'I' for Inactive)
REMARK    1  A    between atoms: C_2  and  C_19 
REMARK    2  A    between atoms: P_4  and  O_7 
REMARK    3  A    between atoms: O_7  and  C_8 
REMARK    4  A    between atoms: C_8  and  C_9 
REMARK    5  A    between atoms: C_10  and  O_11 
REMARK    6  A    between atoms: C_13  and  O_14 
REMARK    7  A    between atoms: C_17  and  N_18 
ROOT
HETATM    1  C   UNL     1      12.582   9.304  40.148  1.00  0.00     0.180 C 
HETATM    2  C   UNL     1      13.973   9.592  40.678  1.00  0.00     0.182 C 
HETATM    3  C   UNL     1      14.865   9.400  39.476  1.00  0.00     0.198 C 
HETATM    4  O   UNL     1      12.759   8.417  39.040  1.00  0.00    -0.353 OA
HETATM    5  C   UNL     1      14.146   8.298  38.688  1.00  0.00     0.265 C 
ENDROOT
BRANCH   5   6
HETATM    6  N   UNL     1      14.268   8.357  37.213  1.00  0.00    -0.266 N 
HETATM    7  C   UNL     1      14.337   9.573  36.528  1.00  0.00     0.332 A 
HETATM    8  O   UNL     1      14.191  10.645  37.143  1.00  0.00    -0.246 OA
HETATM    9  N   UNL     1      14.505   9.582  35.202  1.00  0.00    -0.275 N 
HETATM   10  C   UNL     1      14.644   8.449  34.477  1.00  0.00     0.251 A 
ATOM     11  HN  UNL     1      14.530  10.479  34.717  1.00  0.00     0.173 HD
HETATM   12  O   UNL     1      14.757   8.599  33.228  1.00  0.00    -0.268 OA
HETATM   13  C   UNL     1      14.610   7.209  35.087  1.00  0.00     0.107 A 
HETATM   14  C   UNL     1      14.373   7.173  36.455  1.00  0.00     0.084 A 
BRANCH  14  15
HETATM   15  C   UNL     1      14.035   5.892  37.077  1.00  0.00     0.121 C 
HETATM   16  N   UNL     1      12.728   5.784  37.302  1.00  0.00    -0.388 N 
ATOM     17  HN2 UNL     1      12.492   4.891  37.736  1.00  0.00     0.157 HD
ATOM     18  HN1 UNL     1      12.034   6.470  37.003  1.00  0.00     0.157 HD
HETATM   19  S   UNL     1      15.121   4.818  37.546  1.00  0.00    -0.059 SA
ENDBRANCH  14  15
ENDBRANCH   5   6
BRANCH   3  20
HETATM   20  O   UNL     1      16.143   8.997  39.933  1.00  0.00    -0.388 OA
ATOM     21  HO  UNL     1      16.776   9.189  39.252  1.00  0.00     0.210 HD
ENDBRANCH   3  20
BRANCH   2  22
HETATM   22  O   UNL     1      14.309   8.695  41.762  1.00  0.00    -0.390 OA
ATOM     23  HO  UNL     1      13.661   8.010  41.878  1.00  0.00     0.210 HD
ENDBRANCH   2  22
BRANCH   1  24
HETATM   24  C   UNL     1      11.821  10.543  39.716  1.00  0.00     0.217 C 
BRANCH  24  25
HETATM   25  O   UNL     1      12.338  11.636  40.450  1.00  0.00    -0.280 OA
BRANCH  25  26
HETATM   26  P   UNL     1      12.747  12.998  39.727  1.00  0.00     0.422 P 
HETATM   27  O   UNL     1      12.121  12.956  38.341  1.00  0.00    -0.617 OA
HETATM   28  O   UNL     1      12.103  14.037  40.608  1.00  0.00    -0.617 OA
HETATM   29  O   UNL     1      14.249  13.107  39.683  1.00  0.00    -0.617 OA
ENDBRANCH  25  26
ENDBRANCH  24  25
ENDBRANCH   1  24
TORSDOF 7
ENDMDL
MODEL 18
REMARK VINA RESULT:    -6.330      3.163      4.533
REMARK INTER + INTRA:          -8.742
REMARK INTER:                  -8.381
REMARK INTRA:                  -0.361
REMARK UNBOUND:                -0.192
REMARK  7 active torsions:
REMARK  status: ('A' for Active; 'I' for Inactive)
REMARK    1  A    between atoms: C_2  and  C_19 
REMARK    2  A    between atoms: P_4  and  O_7 
REMARK    3  A    between atoms: O_7  and  C_8 
REMARK    4  A    between atoms: C_8  and  C_9 
REMARK    5  A    between atoms: C_10  and  O_11 
REMARK    6  A    between atoms: C_13  and  O_14 
REMARK    7  A    between atoms: C_17  and  N_18 
ROOT
HETATM    1  C   UNL     1      12.398  11.914  41.213  1.00  0.00     0.180 C 
HETATM    2  C   UNL     1      12.318  12.860  40.031  1.00  0.00     0.182 C 
HETATM    3  C   UNL     1      12.388  11.946  38.832  1.00  0.00     0.198 C 
HETATM    4  O   UNL     1      13.105  10.762  40.748  1.00  0.00    -0.353 OA
HETATM    5  C   UNL     1      13.283  10.803  39.324  1.00  0.00     0.265 C 
ENDROOT
BRANCH   5   6
HETATM    6  N   UNL     1      12.997   9.459  38.771  1.00  0.00    -0.266 N 
HETATM    7  C   UNL     1      11.699   9.058  38.445  1.00  0.00     0.332 A 
HETATM    8  O   UNL     1      10.732   9.795  38.712  1.00  0.00    -0.246 OA
HETATM    9  N   UNL     1      11.490   7.858  37.894  1.00  0.00    -0.275 N 
HETATM   10  C   UNL     1      12.498   7.004  37.604  1.00  0.00     0.251 A 
ATOM     11  HN  UNL     1      10.533   7.575  37.684  1.00  0.00     0.173 HD
HETATM   12  O   UNL     1      12.158   5.886  37.122  1.00  0.00    -0.268 OA
HETATM   13  C   UNL     1      13.812   7.339  37.877  1.00  0.00     0.107 A 
HETATM   14  C   UNL     1      14.045   8.554  38.506  1.00  0.00     0.084 A 
BRANCH  14  15
HETATM   15  C   UNL     1      15.370   8.808  39.075  1.00  0.00     0.121 C 
HETATM   16  N   UNL     1      16.116   9.561  38.269  1.00  0.00    -0.388 N 
ATOM     17  HN2 UNL     1      17.039   9.739  38.665  1.00  0.00     0.157 HD
ATOM     18  HN1 UNL     1      15.780   9.982  37.402  1.00  0.00     0.157 HD
HETATM   19  S   UNL     1      15.896   8.149  40.432  1.00  0.00    -0.059 SA
ENDBRANCH  14  15
ENDBRANCH   5   6
BRANCH   3  20
HETATM   20  O   UNL     1      12.967  12.667  37.759  1.00  0.00    -0.388 OA
ATOM     21  HO  UNL     1      12.835  12.169  36.961  1.00  0.00     0.210 HD
ENDBRANCH   3  20
BRANCH   2  22
HETATM   22  O   UNL     1      13.405  13.815  40.059  1.00  0.00    -0.390 OA
ATOM     23  HO  UNL     1      13.124  14.672  40.356  1.00  0.00     0.210 HD
ENDBRANCH   2  22
BRANCH   1  24
HETATM   24  C   UNL     1      11.046  11.514  41.771  1.00  0.00     0.217 C 
BRANCH  24  25
HETATM   25  O   UNL     1      11.086  10.122  42.024  1.00  0.00    -0.280 OA
BRANCH  25  26
HETATM   26  P   UNL     1       9.817   9.351  42.606  1.00  0.00     0.422 P 
HETATM   27  O   UNL     1       9.120   8.705  41.418  1.00  0.00    -0.617 OA
HETATM   28  O   UNL     1      10.449   8.330  43.515  1.00  0.00    -0.617 OA
HETATM   29  O   UNL     1       8.932  10.327  43.337  1.00  0.00    -0.617 OA
ENDBRANCH  25  26
ENDBRANCH  24  25
ENDBRANCH   1  24
TORSDOF 7
ENDMDL
