MODEL 1
REMARK VINA RESULT:   -10.578      0.000      0.000
REMARK INTER + INTRA:         -20.252
REMARK INTER:                 -17.072
REMARK INTRA:                  -3.180
REMARK UNBOUND:                -3.180
REMARK  13 active torsions:
REMARK  status: ('A' for Active; 'I' for Inactive)
REMARK    1  A    between atoms: C_1  and  C_35 
REMARK    2  A    between atoms: C_2  and  N_43 
REMARK    3  A    between atoms: C_7  and  N_48 
REMARK    4  A    between atoms: P_12  and  O_34 
REMARK    5  A    between atoms: P_12  and  O_14 
REMARK    6  A    between atoms: O_14  and  C_15 
REMARK    7  A    between atoms: C_16  and  C_17 
REMARK    8  A    between atoms: C_17  and  O_18 
REMARK    9  A    between atoms: C_21  and  N_22 
REMARK   10  A    between atoms: C_31  and  O_32 
REMARK   11  A    between atoms: O_34  and  C_35 
REMARK   12  A    between atoms: C_37  and  O_38 
REMARK   13  A    between atoms: C_37  and  O_40 
ROOT
HETATM    1  C   UNL     1      41.946  12.561  55.947  1.00  0.00     0.153 C 
HETATM    2  C   UNL     1      39.962  12.328  54.810  1.00  0.00     0.235 C 
HETATM    3  C   UNL     1      40.212  10.954  55.394  1.00  0.00     0.047 C 
HETATM    4  C   UNL     1      41.515  11.138  56.174  1.00  0.00     0.030 C 
HETATM    5  C   UNL     1      39.133  10.616  56.353  1.00  0.00     0.077 C 
HETATM    6  C   UNL     1      41.263  10.871  57.604  1.00  0.00     0.076 C 
HETATM    7  C   UNL     1      39.750  10.796  57.728  1.00  0.00     0.160 C 
HETATM    8  O   UNL     1      41.216  12.971  54.809  1.00  0.00    -0.358 OA
ENDROOT
BRANCH   1   9
HETATM    9  C   UNL     1      43.414  12.586  55.596  1.00  0.00     0.213 C 
BRANCH   9  10
HETATM   10  O   UNL     1      43.615  13.719  54.790  1.00  0.00    -0.287 OA
BRANCH  10  11
HETATM   11  P   UNL     1      44.477  14.929  55.355  1.00  0.00     0.408 P 
HETATM   12  O   UNL     1      45.018  15.725  54.195  1.00  0.00    -0.624 OA
HETATM   13  O   UNL     1      45.603  14.423  56.417  1.00  0.00    -0.624 OA
BRANCH  11  14
HETATM   14  O   UNL     1      43.485  15.885  56.163  1.00  0.00    -0.279 OA
BRANCH  14  15
HETATM   15  C   UNL     1      42.673  16.883  55.534  1.00  0.00     0.198 C 
HETATM   16  C   UNL     1      41.195  16.833  55.878  1.00  0.00     0.199 C 
HETATM   17  C   UNL     1      41.222  17.449  57.270  1.00  0.00     0.264 C 
HETATM   18  O   UNL     1      42.312  18.355  57.284  1.00  0.00    -0.353 OA
HETATM   19  C   UNL     1      43.146  18.180  56.136  1.00  0.00     0.180 C 
BRANCH  16  20
HETATM   20  O   UNL     1      40.649  15.498  55.929  1.00  0.00    -0.388 OA
ATOM     21  HO  UNL     1      41.295  14.823  56.103  1.00  0.00     0.210 HD
ENDBRANCH  16  20
BRANCH  17  22
HETATM   22  N   UNL     1      39.993  18.163  57.717  1.00  0.00    -0.280 N 
HETATM   23  C   UNL     1      39.252  19.074  56.990  1.00  0.00     0.104 A 
HETATM   24  C   UNL     1      38.153  19.721  57.608  1.00  0.00     0.092 A 
HETATM   25  C   UNL     1      37.801  19.384  58.931  1.00  0.00     0.250 A 
HETATM   26  N   UNL     1      38.556  18.506  59.615  1.00  0.00    -0.275 N 
HETATM   27  O   UNL     1      36.811  19.910  59.560  1.00  0.00    -0.268 OA
HETATM   28  C   UNL     1      39.619  17.907  59.048  1.00  0.00     0.331 A 
ATOM     29  HN  UNL     1      38.318  18.290  60.583  1.00  0.00     0.173 HD
HETATM   30  O   UNL     1      40.302  17.085  59.691  1.00  0.00    -0.246 OA
ENDBRANCH  17  22
BRANCH  19  31
HETATM   31  C   UNL     1      43.094  19.328  55.134  1.00  0.00     0.198 C 
BRANCH  31  32
HETATM   32  O   UNL     1      41.997  20.230  55.335  1.00  0.00    -0.398 OA
ATOM     33  HO  UNL     1      41.421  20.312  54.584  1.00  0.00     0.209 HD
ENDBRANCH  31  32
ENDBRANCH  19  31
ENDBRANCH  14  15
ENDBRANCH  11  14
ENDBRANCH  10  11
ENDBRANCH   9  10
ENDBRANCH   1   9
BRANCH   2  34
HETATM   34  N   UNL     1      39.425  12.328  53.431  1.00  0.00    -0.299 N 
HETATM   35  C   UNL     1      39.359  13.454  52.790  1.00  0.00     0.159 A 
HETATM   36  C   UNL     1      38.825  13.153  51.471  1.00  0.00     0.147 A 
HETATM   37  N   UNL     1      39.650  14.715  53.161  1.00  0.00    -0.174 N 
HETATM   38  N   UNL     1      38.649  11.828  51.419  1.00  0.00    -0.345 N 
HETATM   39  C   UNL     1      38.673  14.291  50.566  1.00  0.00     0.290 A 
HETATM   40  C   UNL     1      39.014  11.323  52.633  1.00  0.00     0.188 A 
ATOM     41  HN  UNL     1      38.306  11.294  50.621  1.00  0.00     0.167 HD
HETATM   42  N   UNL     1      39.008  15.504  51.027  1.00  0.00    -0.154 N 
HETATM   43  O   UNL     1      38.217  14.111  49.406  1.00  0.00    -0.265 OA
HETATM   44  C   UNL     1      39.480  15.708  52.255  1.00  0.00     0.680 A 
ATOM     45  HN  UNL     1      38.895  16.307  50.409  1.00  0.00     0.187 HD
ATOM     46  HN  UNL     1      39.991  14.918  54.101  1.00  0.00     0.186 HD
BRANCH  44  47
HETATM   47  N   UNL     1      39.802  16.959  52.655  1.00  0.00    -0.234 N 
ATOM     48  HN2 UNL     1      39.569  17.268  53.599  1.00  0.00     0.174 HD
ATOM     49  HN1 UNL     1      40.287  17.547  51.977  1.00  0.00     0.174 HD
ENDBRANCH  44  47
ENDBRANCH   2  34
BRANCH   7  50
HETATM   50  O   UNL     1      39.272  12.009  58.250  1.00  0.00    -0.365 OA
ATOM     51  HO  UNL     1      39.773  12.710  57.851  1.00  0.00     0.213 HD
ENDBRANCH   7  50
BRANCH   7  52
HETATM   52  O   UNL     1      39.357   9.698  58.569  1.00  0.00    -0.365 OA
ATOM     53  HO  UNL     1      39.399   8.892  58.069  1.00  0.00     0.213 HD
ENDBRANCH   7  52
TORSDOF 13
ENDMDL
MODEL 2
REMARK VINA RESULT:   -10.390      3.220      3.980
REMARK INTER + INTRA:         -19.948
REMARK INTER:                 -18.175
REMARK INTRA:                  -1.773
REMARK UNBOUND:                -3.180
REMARK  13 active torsions:
REMARK  status: ('A' for Active; 'I' for Inactive)
REMARK    1  A    between atoms: C_1  and  C_35 
REMARK    2  A    between atoms: C_2  and  N_43 
REMARK    3  A    between atoms: C_7  and  N_48 
REMARK    4  A    between atoms: P_12  and  O_34 
REMARK    5  A    between atoms: P_12  and  O_14 
REMARK    6  A    between atoms: O_14  and  C_15 
REMARK    7  A    between atoms: C_16  and  C_17 
REMARK    8  A    between atoms: C_17  and  O_18 
REMARK    9  A    between atoms: C_21  and  N_22 
REMARK   10  A    between atoms: C_31  and  O_32 
REMARK   11  A    between atoms: O_34  and  C_35 
REMARK   12  A    between atoms: C_37  and  O_38 
REMARK   13  A    between atoms: C_37  and  O_40 
ROOT
HETATM    1  C   UNL     1      42.140  12.228  54.146  1.00  0.00     0.153 C 
HETATM    2  C   UNL     1      41.298  11.256  52.241  1.00  0.00     0.235 C 
HETATM    3  C   UNL     1      41.003  10.246  53.327  1.00  0.00     0.047 C 
HETATM    4  C   UNL     1      41.537  10.923  54.590  1.00  0.00     0.030 C 
HETATM    5  C   UNL     1      39.537  10.079  53.467  1.00  0.00     0.077 C 
HETATM    6  C   UNL     1      40.422  11.136  55.533  1.00  0.00     0.076 C 
HETATM    7  C   UNL     1      39.167  10.840  54.727  1.00  0.00     0.160 C 
HETATM    8  O   UNL     1      42.327  12.073  52.754  1.00  0.00    -0.358 OA
ENDROOT
BRANCH   1   9
HETATM    9  C   UNL     1      43.497  12.391  54.785  1.00  0.00     0.213 C 
BRANCH   9  10
HETATM   10  O   UNL     1      44.091  13.515  54.186  1.00  0.00    -0.287 OA
BRANCH  10  11
HETATM   11  P   UNL     1      44.964  14.500  55.078  1.00  0.00     0.408 P 
HETATM   12  O   UNL     1      45.741  15.419  54.171  1.00  0.00    -0.624 OA
HETATM   13  O   UNL     1      45.868  13.689  56.162  1.00  0.00    -0.624 OA
BRANCH  11  14
HETATM   14  O   UNL     1      43.951  15.407  55.916  1.00  0.00    -0.279 OA
BRANCH  14  15
HETATM   15  C   UNL     1      42.980  16.265  55.306  1.00  0.00     0.198 C 
HETATM   16  C   UNL     1      41.578  16.178  55.883  1.00  0.00     0.199 C 
HETATM   17  C   UNL     1      41.767  16.973  57.168  1.00  0.00     0.264 C 
HETATM   18  O   UNL     1      42.773  17.933  56.898  1.00  0.00    -0.353 OA
HETATM   19  C   UNL     1      43.437  17.656  55.662  1.00  0.00     0.180 C 
BRANCH  16  20
HETATM   20  O   UNL     1      41.150  14.831  56.182  1.00  0.00    -0.388 OA
ATOM     21  HO  UNL     1      40.702  14.746  57.015  1.00  0.00     0.210 HD
ENDBRANCH  16  20
BRANCH  17  22
HETATM   22  N   UNL     1      40.566  17.669  57.713  1.00  0.00    -0.280 N 
HETATM   23  C   UNL     1      39.807  18.632  57.079  1.00  0.00     0.104 A 
HETATM   24  C   UNL     1      38.744  19.249  57.785  1.00  0.00     0.092 A 
HETATM   25  C   UNL     1      38.445  18.830  59.097  1.00  0.00     0.250 A 
HETATM   26  N   UNL     1      39.217  17.902  59.690  1.00  0.00    -0.275 N 
HETATM   27  O   UNL     1      37.489  19.324  59.802  1.00  0.00    -0.268 OA
HETATM   28  C   UNL     1      40.246  17.331  59.039  1.00  0.00     0.331 A 
ATOM     29  HN  UNL     1      39.018  17.626  60.651  1.00  0.00     0.173 HD
HETATM   30  O   UNL     1      40.946  16.461  59.597  1.00  0.00    -0.246 OA
ENDBRANCH  17  22
BRANCH  19  31
HETATM   31  C   UNL     1      43.148  18.656  54.549  1.00  0.00     0.198 C 
BRANCH  31  32
HETATM   32  O   UNL     1      43.200  18.094  53.230  1.00  0.00    -0.398 OA
ATOM     33  HO  UNL     1      43.188  17.144  53.214  1.00  0.00     0.209 HD
ENDBRANCH  31  32
ENDBRANCH  19  31
ENDBRANCH  14  15
ENDBRANCH  11  14
ENDBRANCH  10  11
ENDBRANCH   9  10
ENDBRANCH   1   9
BRANCH   2  34
HETATM   34  N   UNL     1      41.749  10.674  50.957  1.00  0.00    -0.299 N 
HETATM   35  C   UNL     1      42.619   9.712  50.982  1.00  0.00     0.159 A 
HETATM   36  C   UNL     1      42.853   9.325  49.599  1.00  0.00     0.147 A 
HETATM   37  N   UNL     1      43.280   9.128  51.998  1.00  0.00    -0.174 N 
HETATM   38  N   UNL     1      42.049  10.082  48.845  1.00  0.00    -0.345 N 
HETATM   39  C   UNL     1      43.806   8.236  49.391  1.00  0.00     0.290 A 
HETATM   40  C   UNL     1      41.375  10.918  49.685  1.00  0.00     0.188 A 
ATOM     41  HN  UNL     1      41.957  10.043  47.830  1.00  0.00     0.167 HD
HETATM   42  N   UNL     1      44.398   7.710  50.472  1.00  0.00    -0.154 N 
HETATM   43  O   UNL     1      44.062   7.843  48.222  1.00  0.00    -0.265 OA
HETATM   44  C   UNL     1      44.144   8.124  51.712  1.00  0.00     0.680 A 
ATOM     45  HN  UNL     1      45.073   6.958  50.339  1.00  0.00     0.187 HD
ATOM     46  HN  UNL     1      43.134   9.432  52.961  1.00  0.00     0.186 HD
BRANCH  44  47
HETATM   47  N   UNL     1      44.775   7.546  52.759  1.00  0.00    -0.234 N 
ATOM     48  HN2 UNL     1      45.699   7.874  53.041  1.00  0.00     0.174 HD
ATOM     49  HN1 UNL     1      44.278   6.794  53.237  1.00  0.00     0.174 HD
ENDBRANCH  44  47
ENDBRANCH   2  34
BRANCH   7  50
HETATM   50  O   UNL     1      38.578  12.052  54.331  1.00  0.00    -0.365 OA
ATOM     51  HO  UNL     1      39.276  12.683  54.209  1.00  0.00     0.213 HD
ENDBRANCH   7  50
BRANCH   7  52
HETATM   52  O   UNL     1      38.237  10.057  55.495  1.00  0.00    -0.365 OA
ATOM     53  HO  UNL     1      38.676   9.280  55.819  1.00  0.00     0.213 HD
ENDBRANCH   7  52
TORSDOF 13
ENDMDL
MODEL 3
REMARK VINA RESULT:   -10.159      3.475      8.535
REMARK INTER + INTRA:         -19.576
REMARK INTER:                 -16.595
REMARK INTRA:                  -2.980
REMARK UNBOUND:                -3.180
REMARK  13 active torsions:
REMARK  status: ('A' for Active; 'I' for Inactive)
REMARK    1  A    between atoms: C_1  and  C_35 
REMARK    2  A    between atoms: C_2  and  N_43 
REMARK    3  A    between atoms: C_7  and  N_48 
REMARK    4  A    between atoms: P_12  and  O_34 
REMARK    5  A    between atoms: P_12  and  O_14 
REMARK    6  A    between atoms: O_14  and  C_15 
REMARK    7  A    between atoms: C_16  and  C_17 
REMARK    8  A    between atoms: C_17  and  O_18 
REMARK    9  A    between atoms: C_21  and  N_22 
REMARK   10  A    between atoms: C_31  and  O_32 
REMARK   11  A    between atoms: O_34  and  C_35 
REMARK   12  A    between atoms: C_37  and  O_38 
REMARK   13  A    between atoms: C_37  and  O_40 
ROOT
HETATM    1  C   UNL     1      41.718  14.211  55.578  1.00  0.00     0.153 C 
HETATM    2  C   UNL     1      42.664  16.222  54.996  1.00  0.00     0.235 C 
HETATM    3  C   UNL     1      43.607  15.664  56.039  1.00  0.00     0.047 C 
HETATM    4  C   UNL     1      42.981  14.312  56.388  1.00  0.00     0.030 C 
HETATM    5  C   UNL     1      44.937  15.423  55.430  1.00  0.00     0.077 C 
HETATM    6  C   UNL     1      43.932  13.237  56.044  1.00  0.00     0.076 C 
HETATM    7  C   UNL     1      45.019  13.921  55.231  1.00  0.00     0.160 C 
HETATM    8  O   UNL     1      41.445  15.540  55.185  1.00  0.00    -0.358 OA
ENDROOT
BRANCH   1   9
HETATM    9  C   UNL     1      40.593  13.746  56.471  1.00  0.00     0.213 C 
BRANCH   9  10
HETATM   10  O   UNL     1      39.991  12.653  55.823  1.00  0.00    -0.287 OA
BRANCH  10  11
HETATM   11  P   UNL     1      40.570  11.193  56.066  1.00  0.00     0.408 P 
HETATM   12  O   UNL     1      39.420  10.222  56.160  1.00  0.00    -0.624 OA
HETATM   13  O   UNL     1      41.597  11.154  57.329  1.00  0.00    -0.624 OA
BRANCH  11  14
HETATM   14  O   UNL     1      41.420  10.796  54.774  1.00  0.00    -0.279 OA
BRANCH  14  15
HETATM   15  C   UNL     1      41.436  11.579  53.575  1.00  0.00     0.198 C 
HETATM   16  C   UNL     1      42.537  11.238  52.586  1.00  0.00     0.199 C 
HETATM   17  C   UNL     1      41.967   9.962  51.982  1.00  0.00     0.264 C 
HETATM   18  O   UNL     1      40.557  10.089  52.037  1.00  0.00    -0.353 OA
HETATM   19  C   UNL     1      40.168  11.191  52.861  1.00  0.00     0.180 C 
BRANCH  16  20
HETATM   20  O   UNL     1      43.817  10.976  53.201  1.00  0.00    -0.388 OA
ATOM     21  HO  UNL     1      44.494  11.598  52.961  1.00  0.00     0.210 HD
ENDBRANCH  16  20
BRANCH  17  22
HETATM   22  N   UNL     1      42.370   9.639  50.583  1.00  0.00    -0.280 N 
HETATM   23  C   UNL     1      41.864  10.196  49.425  1.00  0.00     0.104 A 
HETATM   24  C   UNL     1      42.307   9.706  48.171  1.00  0.00     0.092 A 
HETATM   25  C   UNL     1      43.297   8.703  48.127  1.00  0.00     0.250 A 
HETATM   26  N   UNL     1      43.754   8.172  49.275  1.00  0.00    -0.275 N 
HETATM   27  O   UNL     1      43.767   8.214  47.035  1.00  0.00    -0.268 OA
HETATM   28  C   UNL     1      43.318   8.609  50.470  1.00  0.00     0.331 A 
ATOM     29  HN  UNL     1      44.446   7.423  49.239  1.00  0.00     0.173 HD
HETATM   30  O   UNL     1      43.762   8.115  51.527  1.00  0.00    -0.246 OA
ENDBRANCH  17  22
BRANCH  19  31
HETATM   31  C   UNL     1      39.556  12.364  52.102  1.00  0.00     0.198 C 
BRANCH  31  32
HETATM   32  O   UNL     1      39.584  13.604  52.822  1.00  0.00    -0.398 OA
ATOM     33  HO  UNL     1      38.839  14.168  52.651  1.00  0.00     0.209 HD
ENDBRANCH  31  32
ENDBRANCH  19  31
ENDBRANCH  14  15
ENDBRANCH  11  14
ENDBRANCH  10  11
ENDBRANCH   9  10
ENDBRANCH   1   9
BRANCH   2  34
HETATM   34  N   UNL     1      42.415  17.678  55.099  1.00  0.00    -0.299 N 
HETATM   35  C   UNL     1      41.564  18.222  54.284  1.00  0.00     0.159 A 
HETATM   36  C   UNL     1      41.503  19.635  54.628  1.00  0.00     0.147 A 
HETATM   37  N   UNL     1      40.850  17.714  53.263  1.00  0.00    -0.174 N 
HETATM   38  N   UNL     1      42.316  19.813  55.675  1.00  0.00    -0.345 N 
HETATM   39  C   UNL     1      40.587  20.449  53.831  1.00  0.00     0.290 A 
HETATM   40  C   UNL     1      42.882  18.605  55.959  1.00  0.00     0.188 A 
ATOM     41  HN  UNL     1      42.482  20.689  56.170  1.00  0.00     0.167 HD
HETATM   42  N   UNL     1      39.908  19.843  52.847  1.00  0.00    -0.154 N 
HETATM   43  O   UNL     1      40.478  21.680  54.067  1.00  0.00    -0.265 OA
HETATM   44  C   UNL     1      40.024  18.543  52.580  1.00  0.00     0.680 A 
ATOM     45  HN  UNL     1      39.275  20.402  52.277  1.00  0.00     0.187 HD
ATOM     46  HN  UNL     1      40.928  16.729  53.010  1.00  0.00     0.186 HD
BRANCH  44  47
HETATM   47  N   UNL     1      39.306  17.994  51.574  1.00  0.00    -0.234 N 
ATOM     48  HN2 UNL     1      39.310  18.428  50.651  1.00  0.00     0.174 HD
ATOM     49  HN1 UNL     1      38.787  17.144  51.791  1.00  0.00     0.174 HD
ENDBRANCH  44  47
ENDBRANCH   2  34
BRANCH   7  50
HETATM   50  O   UNL     1      44.804  13.663  53.867  1.00  0.00    -0.365 OA
ATOM     51  HO  UNL     1      45.626  13.357  53.501  1.00  0.00     0.213 HD
ENDBRANCH   7  50
BRANCH   7  52
HETATM   52  O   UNL     1      46.323  13.463  55.629  1.00  0.00    -0.365 OA
ATOM     53  HO  UNL     1      46.435  13.610  56.561  1.00  0.00     0.213 HD
ENDBRANCH   7  52
TORSDOF 13
ENDMDL
MODEL 4
REMARK VINA RESULT:   -10.007      3.260      3.955
REMARK INTER + INTRA:         -19.330
REMARK INTER:                 -17.152
REMARK INTRA:                  -2.178
REMARK UNBOUND:                -3.180
REMARK  13 active torsions:
REMARK  status: ('A' for Active; 'I' for Inactive)
REMARK    1  A    between atoms: C_1  and  C_35 
REMARK    2  A    between atoms: C_2  and  N_43 
REMARK    3  A    between atoms: C_7  and  N_48 
REMARK    4  A    between atoms: P_12  and  O_34 
REMARK    5  A    between atoms: P_12  and  O_14 
REMARK    6  A    between atoms: O_14  and  C_15 
REMARK    7  A    between atoms: C_16  and  C_17 
REMARK    8  A    between atoms: C_17  and  O_18 
REMARK    9  A    between atoms: C_21  and  N_22 
REMARK   10  A    between atoms: C_31  and  O_32 
REMARK   11  A    between atoms: O_34  and  C_35 
REMARK   12  A    between atoms: C_37  and  O_38 
REMARK   13  A    between atoms: C_37  and  O_40 
ROOT
HETATM    1  C   UNL     1      42.374  12.272  54.201  1.00  0.00     0.153 C 
HETATM    2  C   UNL     1      41.980  10.857  52.433  1.00  0.00     0.235 C 
HETATM    3  C   UNL     1      41.072  10.338  53.526  1.00  0.00     0.047 C 
HETATM    4  C   UNL     1      41.321  11.311  54.680  1.00  0.00     0.030 C 
HETATM    5  C   UNL     1      39.658  10.465  53.101  1.00  0.00     0.077 C 
HETATM    6  C   UNL     1      40.061  12.007  55.005  1.00  0.00     0.076 C 
HETATM    7  C   UNL     1      39.116  11.658  53.866  1.00  0.00     0.160 C 
HETATM    8  O   UNL     1      42.963  11.624  53.092  1.00  0.00    -0.358 OA
ENDROOT
BRANCH   1   9
HETATM    9  C   UNL     1      43.430  12.425  55.269  1.00  0.00     0.213 C 
BRANCH   9  10
HETATM   10  O   UNL     1      43.370  13.760  55.705  1.00  0.00    -0.287 OA
BRANCH  10  11
HETATM   11  P   UNL     1      44.555  14.752  55.332  1.00  0.00     0.408 P 
HETATM   12  O   UNL     1      45.046  14.424  53.945  1.00  0.00    -0.624 OA
HETATM   13  O   UNL     1      45.711  14.767  56.478  1.00  0.00    -0.624 OA
BRANCH  11  14
HETATM   14  O   UNL     1      43.943  16.226  55.281  1.00  0.00    -0.279 OA
BRANCH  14  15
HETATM   15  C   UNL     1      42.793  16.570  54.501  1.00  0.00     0.198 C 
HETATM   16  C   UNL     1      41.472  16.572  55.251  1.00  0.00     0.199 C 
HETATM   17  C   UNL     1      41.597  17.885  56.011  1.00  0.00     0.264 C 
HETATM   18  O   UNL     1      42.389  18.739  55.204  1.00  0.00    -0.353 OA
HETATM   19  C   UNL     1      43.009  18.016  54.137  1.00  0.00     0.180 C 
BRANCH  16  20
HETATM   20  O   UNL     1      41.319  15.470  56.172  1.00  0.00    -0.388 OA
ATOM     21  HO  UNL     1      42.081  15.317  56.719  1.00  0.00     0.210 HD
ENDBRANCH  16  20
BRANCH  17  22
HETATM   22  N   UNL     1      40.328  18.588  56.358  1.00  0.00    -0.280 N 
HETATM   23  C   UNL     1      39.613  19.454  55.555  1.00  0.00     0.104 A 
HETATM   24  C   UNL     1      38.467  20.099  56.083  1.00  0.00     0.092 A 
HETATM   25  C   UNL     1      38.044  19.802  57.395  1.00  0.00     0.250 A 
HETATM   26  N   UNL     1      38.774  18.966  58.154  1.00  0.00    -0.275 N 
HETATM   27  O   UNL     1      37.008  20.327  57.945  1.00  0.00    -0.268 OA
HETATM   28  C   UNL     1      39.881  18.371  57.673  1.00  0.00     0.331 A 
ATOM     29  HN  UNL     1      38.484  18.779  59.114  1.00  0.00     0.173 HD
HETATM   30  O   UNL     1      40.541  17.587  58.385  1.00  0.00    -0.246 OA
ENDBRANCH  17  22
BRANCH  19  31
HETATM   31  C   UNL     1      42.467  18.345  52.750  1.00  0.00     0.198 C 
BRANCH  31  32
HETATM   32  O   UNL     1      41.438  19.345  52.747  1.00  0.00    -0.398 OA
ATOM     33  HO  UNL     1      40.642  19.079  52.300  1.00  0.00     0.209 HD
ENDBRANCH  31  32
ENDBRANCH  19  31
ENDBRANCH  14  15
ENDBRANCH  11  14
ENDBRANCH  10  11
ENDBRANCH   9  10
ENDBRANCH   1   9
BRANCH   2  34
HETATM   34  N   UNL     1      42.652   9.809  51.634  1.00  0.00    -0.299 N 
HETATM   35  C   UNL     1      42.502   9.818  50.345  1.00  0.00     0.159 A 
HETATM   36  C   UNL     1      43.284   8.706  49.826  1.00  0.00     0.147 A 
HETATM   37  N   UNL     1      41.772  10.606  49.533  1.00  0.00    -0.174 N 
HETATM   38  N   UNL     1      43.885   8.134  50.875  1.00  0.00    -0.345 N 
HETATM   39  C   UNL     1      43.265   8.532  48.374  1.00  0.00     0.290 A 
HETATM   40  C   UNL     1      43.488   8.813  51.989  1.00  0.00     0.188 A 
ATOM     41  HN  UNL     1      44.523   7.338  50.846  1.00  0.00     0.167 HD
HETATM   42  N   UNL     1      42.520   9.381  47.653  1.00  0.00    -0.154 N 
HETATM   43  O   UNL     1      43.917   7.592  47.849  1.00  0.00    -0.265 OA
HETATM   44  C   UNL     1      41.816  10.372  48.199  1.00  0.00     0.680 A 
ATOM     45  HN  UNL     1      42.489   9.263  46.641  1.00  0.00     0.187 HD
ATOM     46  HN  UNL     1      41.200  11.360  49.912  1.00  0.00     0.186 HD
BRANCH  44  47
HETATM   47  N   UNL     1      41.088  11.195  47.412  1.00  0.00    -0.234 N 
ATOM     48  HN2 UNL     1      40.083  11.289  47.566  1.00  0.00     0.174 HD
ATOM     49  HN1 UNL     1      41.594  11.705  46.688  1.00  0.00     0.174 HD
ENDBRANCH  44  47
ENDBRANCH   2  34
BRANCH   7  50
HETATM   50  O   UNL     1      39.053  12.740  52.973  1.00  0.00    -0.365 OA
ATOM     51  HO  UNL     1      38.300  12.603  52.411  1.00  0.00     0.213 HD
ENDBRANCH   7  50
BRANCH   7  52
HETATM   52  O   UNL     1      37.805  11.342  54.366  1.00  0.00    -0.365 OA
ATOM     53  HO  UNL     1      37.383  12.140  54.662  1.00  0.00     0.213 HD
ENDBRANCH   7  52
TORSDOF 13
ENDMDL
MODEL 5
REMARK VINA RESULT:    -9.865      3.350      5.425
REMARK INTER + INTRA:         -19.100
REMARK INTER:                 -16.982
REMARK INTRA:                  -2.118
REMARK UNBOUND:                -3.180
REMARK  13 active torsions:
REMARK  status: ('A' for Active; 'I' for Inactive)
REMARK    1  A    between atoms: C_1  and  C_35 
REMARK    2  A    between atoms: C_2  and  N_43 
REMARK    3  A    between atoms: C_7  and  N_48 
REMARK    4  A    between atoms: P_12  and  O_34 
REMARK    5  A    between atoms: P_12  and  O_14 
REMARK    6  A    between atoms: O_14  and  C_15 
REMARK    7  A    between atoms: C_16  and  C_17 
REMARK    8  A    between atoms: C_17  and  O_18 
REMARK    9  A    between atoms: C_21  and  N_22 
REMARK   10  A    between atoms: C_31  and  O_32 
REMARK   11  A    between atoms: O_34  and  C_35 
REMARK   12  A    between atoms: C_37  and  O_38 
REMARK   13  A    between atoms: C_37  and  O_40 
ROOT
HETATM    1  C   UNL     1      40.381  11.905  53.182  1.00  0.00     0.153 C 
HETATM    2  C   UNL     1      40.613  11.988  50.897  1.00  0.00     0.235 C 
HETATM    3  C   UNL     1      39.133  11.756  51.105  1.00  0.00     0.047 C 
HETATM    4  C   UNL     1      38.992  11.738  52.629  1.00  0.00     0.030 C 
HETATM    5  C   UNL     1      38.368  12.909  50.576  1.00  0.00     0.077 C 
HETATM    6  C   UNL     1      38.108  12.844  53.045  1.00  0.00     0.076 C 
HETATM    7  C   UNL     1      37.937  13.699  51.799  1.00  0.00     0.160 C 
HETATM    8  O   UNL     1      41.231  11.587  52.099  1.00  0.00    -0.358 OA
ENDROOT
BRANCH   1   9
HETATM    9  C   UNL     1      40.608  10.884  54.270  1.00  0.00     0.213 C 
BRANCH   9  10
HETATM   10  O   UNL     1      41.636  11.387  55.085  1.00  0.00    -0.287 OA
BRANCH  10  11
HETATM   11  P   UNL     1      41.260  12.111  56.449  1.00  0.00     0.408 P 
HETATM   12  O   UNL     1      41.875  11.346  57.593  1.00  0.00    -0.624 OA
HETATM   13  O   UNL     1      39.656  12.356  56.580  1.00  0.00    -0.624 OA
BRANCH  11  14
HETATM   14  O   UNL     1      41.943  13.555  56.425  1.00  0.00    -0.279 OA
BRANCH  14  15
HETATM   15  C   UNL     1      42.451  14.161  55.232  1.00  0.00     0.198 C 
HETATM   16  C   UNL     1      41.547  15.200  54.591  1.00  0.00     0.199 C 
HETATM   17  C   UNL     1      41.784  16.376  55.528  1.00  0.00     0.264 C 
HETATM   18  O   UNL     1      43.109  16.240  56.013  1.00  0.00    -0.353 OA
HETATM   19  C   UNL     1      43.646  14.952  55.696  1.00  0.00     0.180 C 
BRANCH  16  20
HETATM   20  O   UNL     1      40.150  14.836  54.583  1.00  0.00    -0.388 OA
ATOM     21  HO  UNL     1      39.995  13.899  54.606  1.00  0.00     0.210 HD
ENDBRANCH  16  20
BRANCH  17  22
HETATM   22  N   UNL     1      41.618  17.742  54.952  1.00  0.00    -0.280 N 
HETATM   23  C   UNL     1      42.292  18.274  53.871  1.00  0.00     0.104 A 
HETATM   24  C   UNL     1      42.066  19.626  53.512  1.00  0.00     0.092 A 
HETATM   25  C   UNL     1      41.117  20.385  54.227  1.00  0.00     0.250 A 
HETATM   26  N   UNL     1      40.492  19.840  55.285  1.00  0.00    -0.275 N 
HETATM   27  O   UNL     1      40.838  21.612  53.958  1.00  0.00    -0.268 OA
HETATM   28  C   UNL     1      40.721  18.566  55.652  1.00  0.00     0.331 A 
ATOM     29  HN  UNL     1      39.830  20.403  55.820  1.00  0.00     0.173 HD
HETATM   30  O   UNL     1      40.123  18.070  56.629  1.00  0.00    -0.246 OA
ENDBRANCH  17  22
BRANCH  19  31
HETATM   31  C   UNL     1      44.761  14.969  54.657  1.00  0.00     0.198 C 
BRANCH  31  32
HETATM   32  O   UNL     1      46.082  14.924  55.215  1.00  0.00    -0.398 OA
ATOM     33  HO  UNL     1      46.120  14.550  56.087  1.00  0.00     0.209 HD
ENDBRANCH  31  32
ENDBRANCH  19  31
ENDBRANCH  14  15
ENDBRANCH  11  14
ENDBRANCH  10  11
ENDBRANCH   9  10
ENDBRANCH   1   9
BRANCH   2  34
HETATM   34  N   UNL     1      41.210  11.226  49.778  1.00  0.00    -0.299 N 
HETATM   35  C   UNL     1      42.048  10.274  50.051  1.00  0.00     0.159 A 
HETATM   36  C   UNL     1      42.447   9.691  48.779  1.00  0.00     0.147 A 
HETATM   37  N   UNL     1      42.560   9.838  51.217  1.00  0.00    -0.174 N 
HETATM   38  N   UNL     1      41.763  10.336  47.828  1.00  0.00    -0.345 N 
HETATM   39  C   UNL     1      43.393   8.579  48.853  1.00  0.00     0.290 A 
HETATM   40  C   UNL     1      41.007  11.287  48.447  1.00  0.00     0.188 A 
ATOM     41  HN  UNL     1      41.801  10.152  46.825  1.00  0.00     0.167 HD
HETATM   42  N   UNL     1      43.831   8.211  50.064  1.00  0.00    -0.154 N 
HETATM   43  O   UNL     1      43.787   8.022  47.794  1.00  0.00    -0.265 OA
HETATM   44  C   UNL     1      43.431   8.800  51.190  1.00  0.00     0.680 A 
ATOM     45  HN  UNL     1      44.500   7.444  50.128  1.00  0.00     0.187 HD
ATOM     46  HN  UNL     1      42.300  10.278  52.100  1.00  0.00     0.186 HD
BRANCH  44  47
HETATM   47  N   UNL     1      43.910   8.375  52.381  1.00  0.00    -0.234 N 
ATOM     48  HN2 UNL     1      44.829   7.935  52.432  1.00  0.00     0.174 HD
ATOM     49  HN1 UNL     1      43.316   8.529  53.196  1.00  0.00     0.174 HD
ENDBRANCH  44  47
ENDBRANCH   2  34
BRANCH   7  50
HETATM   50  O   UNL     1      38.774  14.822  51.893  1.00  0.00    -0.365 OA
ATOM     51  HO  UNL     1      39.672  14.512  51.882  1.00  0.00     0.213 HD
ENDBRANCH   7  50
BRANCH   7  52
HETATM   52  O   UNL     1      36.567  14.105  51.640  1.00  0.00    -0.365 OA
ATOM     53  HO  UNL     1      36.404  14.870  52.179  1.00  0.00     0.213 HD
ENDBRANCH   7  52
TORSDOF 13
ENDMDL
MODEL 6
REMARK VINA RESULT:    -9.683      2.286      3.397
REMARK INTER + INTRA:         -18.806
REMARK INTER:                 -16.306
REMARK INTRA:                  -2.501
REMARK UNBOUND:                -3.180
REMARK  13 active torsions:
REMARK  status: ('A' for Active; 'I' for Inactive)
REMARK    1  A    between atoms: C_1  and  C_35 
REMARK    2  A    between atoms: C_2  and  N_43 
REMARK    3  A    between atoms: C_7  and  N_48 
REMARK    4  A    between atoms: P_12  and  O_34 
REMARK    5  A    between atoms: P_12  and  O_14 
REMARK    6  A    between atoms: O_14  and  C_15 
REMARK    7  A    between atoms: C_16  and  C_17 
REMARK    8  A    between atoms: C_17  and  O_18 
REMARK    9  A    between atoms: C_21  and  N_22 
REMARK   10  A    between atoms: C_31  and  O_32 
REMARK   11  A    between atoms: O_34  and  C_35 
REMARK   12  A    between atoms: C_37  and  O_38 
REMARK   13  A    between atoms: C_37  and  O_40 
ROOT
HETATM    1  C   UNL     1      42.150  11.950  54.958  1.00  0.00     0.153 C 
HETATM    2  C   UNL     1      40.153  11.933  53.820  1.00  0.00     0.235 C 
HETATM    3  C   UNL     1      41.193  12.072  52.730  1.00  0.00     0.047 C 
HETATM    4  C   UNL     1      42.514  12.045  53.501  1.00  0.00     0.030 C 
HETATM    5  C   UNL     1      41.144  10.887  51.841  1.00  0.00     0.077 C 
HETATM    6  C   UNL     1      43.306  10.879  53.064  1.00  0.00     0.076 C 
HETATM    7  C   UNL     1      42.346  10.045  52.230  1.00  0.00     0.160 C 
HETATM    8  O   UNL     1      40.794  12.343  55.007  1.00  0.00    -0.358 OA
ENDROOT
BRANCH   1   9
HETATM    9  C   UNL     1      42.959  12.957  55.739  1.00  0.00     0.213 C 
BRANCH   9  10
HETATM   10  O   UNL     1      43.467  13.876  54.804  1.00  0.00    -0.287 OA
BRANCH  10  11
HETATM   11  P   UNL     1      44.559  14.933  55.271  1.00  0.00     0.408 P 
HETATM   12  O   UNL     1      45.224  15.516  54.051  1.00  0.00    -0.624 OA
HETATM   13  O   UNL     1      45.582  14.299  56.366  1.00  0.00    -0.624 OA
BRANCH  11  14
HETATM   14  O   UNL     1      43.786  16.123  56.003  1.00  0.00    -0.279 OA
BRANCH  14  15
HETATM   15  C   UNL     1      42.824  16.955  55.344  1.00  0.00     0.198 C 
HETATM   16  C   UNL     1      41.389  16.792  55.814  1.00  0.00     0.199 C 
HETATM   17  C   UNL     1      41.449  17.559  57.128  1.00  0.00     0.264 C 
HETATM   18  O   UNL     1      42.427  18.569  56.956  1.00  0.00    -0.353 OA
HETATM   19  C   UNL     1      43.191  18.354  55.766  1.00  0.00     0.180 C 
BRANCH  16  20
HETATM   20  O   UNL     1      41.001  15.421  56.049  1.00  0.00    -0.388 OA
ATOM     21  HO  UNL     1      40.083  15.245  55.878  1.00  0.00     0.210 HD
ENDBRANCH  16  20
BRANCH  17  22
HETATM   22  N   UNL     1      40.182  18.188  57.600  1.00  0.00    -0.280 N 
HETATM   23  C   UNL     1      39.386  19.076  56.903  1.00  0.00     0.104 A 
HETATM   24  C   UNL     1      38.255  19.640  57.544  1.00  0.00     0.092 A 
HETATM   25  C   UNL     1      37.930  19.244  58.857  1.00  0.00     0.250 A 
HETATM   26  N   UNL     1      38.737  18.391  59.512  1.00  0.00    -0.275 N 
HETATM   27  O   UNL     1      36.914  19.693  59.505  1.00  0.00    -0.268 OA
HETATM   28  C   UNL     1      39.830  17.871  58.924  1.00  0.00     0.331 A 
ATOM     29  HN  UNL     1      38.517  18.132  60.473  1.00  0.00     0.173 HD
HETATM   30  O   UNL     1      40.562  17.070  59.539  1.00  0.00    -0.246 OA
ENDBRANCH  17  22
BRANCH  19  31
HETATM   31  C   UNL     1      42.938  19.371  54.659  1.00  0.00     0.198 C 
BRANCH  31  32
HETATM   32  O   UNL     1      42.007  20.403  55.014  1.00  0.00    -0.398 OA
ATOM     33  HO  UNL     1      41.116  20.232  54.735  1.00  0.00     0.209 HD
ENDBRANCH  31  32
ENDBRANCH  19  31
ENDBRANCH  14  15
ENDBRANCH  11  14
ENDBRANCH  10  11
ENDBRANCH   9  10
ENDBRANCH   1   9
BRANCH   2  34
HETATM   34  N   UNL     1      38.938  12.755  53.627  1.00  0.00    -0.299 N 
HETATM   35  C   UNL     1      37.825  12.353  54.160  1.00  0.00     0.159 A 
HETATM   36  C   UNL     1      36.821  13.356  53.834  1.00  0.00     0.147 A 
HETATM   37  N   UNL     1      37.513  11.244  54.855  1.00  0.00    -0.174 N 
HETATM   38  N   UNL     1      37.447  14.319  53.149  1.00  0.00    -0.345 N 
HETATM   39  C   UNL     1      35.476  13.106  54.349  1.00  0.00     0.290 A 
HETATM   40  C   UNL     1      38.751  13.942  53.017  1.00  0.00     0.188 A 
ATOM     41  HN  UNL     1      37.026  15.177  52.791  1.00  0.00     0.167 HD
HETATM   42  N   UNL     1      35.273  11.979  55.045  1.00  0.00    -0.154 N 
HETATM   43  O   UNL     1      34.552  13.927  54.109  1.00  0.00    -0.265 OA
HETATM   44  C   UNL     1      36.240  11.097  55.295  1.00  0.00     0.680 A 
ATOM     45  HN  UNL     1      34.337  11.788  55.399  1.00  0.00     0.187 HD
ATOM     46  HN  UNL     1      38.218  10.532  55.047  1.00  0.00     0.186 HD
BRANCH  44  47
HETATM   47  N   UNL     1      35.967   9.981  56.009  1.00  0.00    -0.234 N 
ATOM     48  HN2 UNL     1      35.805  10.047  57.014  1.00  0.00     0.174 HD
ATOM     49  HN1 UNL     1      35.925   9.104  55.491  1.00  0.00     0.174 HD
ENDBRANCH  44  47
ENDBRANCH   2  34
BRANCH   7  50
HETATM   50  O   UNL     1      41.878   8.972  53.005  1.00  0.00    -0.365 OA
ATOM     51  HO  UNL     1      42.303   8.184  52.689  1.00  0.00     0.213 HD
ENDBRANCH   7  50
BRANCH   7  52
HETATM   52  O   UNL     1      42.989   9.561  51.038  1.00  0.00    -0.365 OA
ATOM     53  HO  UNL     1      42.462   8.867  50.659  1.00  0.00     0.213 HD
ENDBRANCH   7  52
TORSDOF 13
ENDMDL
MODEL 7
REMARK VINA RESULT:    -9.581      1.914      3.016
REMARK INTER + INTRA:         -18.642
REMARK INTER:                 -15.900
REMARK INTRA:                  -2.741
REMARK UNBOUND:                -3.180
REMARK  13 active torsions:
REMARK  status: ('A' for Active; 'I' for Inactive)
REMARK    1  A    between atoms: C_1  and  C_35 
REMARK    2  A    between atoms: C_2  and  N_43 
REMARK    3  A    between atoms: C_7  and  N_48 
REMARK    4  A    between atoms: P_12  and  O_34 
REMARK    5  A    between atoms: P_12  and  O_14 
REMARK    6  A    between atoms: O_14  and  C_15 
REMARK    7  A    between atoms: C_16  and  C_17 
REMARK    8  A    between atoms: C_17  and  O_18 
REMARK    9  A    between atoms: C_21  and  N_22 
REMARK   10  A    between atoms: C_31  and  O_32 
REMARK   11  A    between atoms: O_34  and  C_35 
REMARK   12  A    between atoms: C_37  and  O_38 
REMARK   13  A    between atoms: C_37  and  O_40 
ROOT
HETATM    1  C   UNL     1      42.192  12.036  54.494  1.00  0.00     0.153 C 
HETATM    2  C   UNL     1      40.557  12.803  53.074  1.00  0.00     0.235 C 
HETATM    3  C   UNL     1      41.679  12.389  52.148  1.00  0.00     0.047 C 
HETATM    4  C   UNL     1      42.742  11.849  53.107  1.00  0.00     0.030 C 
HETATM    5  C   UNL     1      41.224  11.278  51.278  1.00  0.00     0.077 C 
HETATM    6  C   UNL     1      42.983  10.424  52.808  1.00  0.00     0.076 C 
HETATM    7  C   UNL     1      41.868  10.030  51.853  1.00  0.00     0.160 C 
HETATM    8  O   UNL     1      41.157  12.984  54.337  1.00  0.00    -0.358 OA
ENDROOT
BRANCH   1   9
HETATM    9  C   UNL     1      43.257  12.647  55.372  1.00  0.00     0.213 C 
BRANCH   9  10
HETATM   10  O   UNL     1      44.007  13.509  54.554  1.00  0.00    -0.287 OA
BRANCH  10  11
HETATM   11  P   UNL     1      44.916  14.624  55.229  1.00  0.00     0.408 P 
HETATM   12  O   UNL     1      45.625  15.397  54.146  1.00  0.00    -0.624 OA
HETATM   13  O   UNL     1      45.895  13.995  56.368  1.00  0.00    -0.624 OA
BRANCH  11  14
HETATM   14  O   UNL     1      43.941  15.644  55.977  1.00  0.00    -0.279 OA
BRANCH  14  15
HETATM   15  C   UNL     1      42.887  16.349  55.313  1.00  0.00     0.198 C 
HETATM   16  C   UNL     1      41.517  16.236  55.960  1.00  0.00     0.199 C 
HETATM   17  C   UNL     1      41.693  17.196  57.129  1.00  0.00     0.264 C 
HETATM   18  O   UNL     1      42.613  18.184  56.699  1.00  0.00    -0.353 OA
HETATM   19  C   UNL     1      43.250  17.802  55.476  1.00  0.00     0.180 C 
BRANCH  16  20
HETATM   20  O   UNL     1      41.203  14.911  56.440  1.00  0.00    -0.388 OA
ATOM     21  HO  UNL     1      41.956  14.334  56.499  1.00  0.00     0.210 HD
ENDBRANCH  16  20
BRANCH  17  22
HETATM   22  N   UNL     1      40.465  17.869  57.641  1.00  0.00    -0.280 N 
HETATM   23  C   UNL     1      39.681  18.786  56.970  1.00  0.00     0.104 A 
HETATM   24  C   UNL     1      38.590  19.389  57.645  1.00  0.00     0.092 A 
HETATM   25  C   UNL     1      38.291  19.001  58.967  1.00  0.00     0.250 A 
HETATM   26  N   UNL     1      39.086  18.117  59.595  1.00  0.00    -0.275 N 
HETATM   27  O   UNL     1      37.312  19.485  59.647  1.00  0.00    -0.268 OA
HETATM   28  C   UNL     1      40.141  17.561  58.973  1.00  0.00     0.331 A 
ATOM     29  HN  UNL     1      38.886  17.864  60.563  1.00  0.00     0.173 HD
HETATM   30  O   UNL     1      40.862  16.732  59.565  1.00  0.00    -0.246 OA
ENDBRANCH  17  22
BRANCH  19  31
HETATM   31  C   UNL     1      42.845  18.634  54.264  1.00  0.00     0.198 C 
BRANCH  31  32
HETATM   32  O   UNL     1      41.895  19.668  54.556  1.00  0.00    -0.398 OA
ATOM     33  HO  UNL     1      40.998  19.442  54.339  1.00  0.00     0.209 HD
ENDBRANCH  31  32
ENDBRANCH  19  31
ENDBRANCH  14  15
ENDBRANCH  11  14
ENDBRANCH  10  11
ENDBRANCH   9  10
ENDBRANCH   1   9
BRANCH   2  34
HETATM   34  N   UNL     1      39.867  14.056  52.691  1.00  0.00    -0.299 N 
HETATM   35  C   UNL     1      38.651  13.984  52.245  1.00  0.00     0.159 A 
HETATM   36  C   UNL     1      38.224  15.349  51.978  1.00  0.00     0.147 A 
HETATM   37  N   UNL     1      37.849  12.933  51.994  1.00  0.00    -0.174 N 
HETATM   38  N   UNL     1      39.236  16.147  52.335  1.00  0.00    -0.345 N 
HETATM   39  C   UNL     1      36.862  15.506  51.470  1.00  0.00     0.290 A 
HETATM   40  C   UNL     1      40.251  15.345  52.768  1.00  0.00     0.188 A 
ATOM     41  HN  UNL     1      39.247  17.166  52.291  1.00  0.00     0.167 HD
HETATM   42  N   UNL     1      36.139  14.396  51.269  1.00  0.00    -0.154 N 
HETATM   43  O   UNL     1      36.419  16.656  51.213  1.00  0.00    -0.265 OA
HETATM   44  C   UNL     1      36.601  13.173  51.525  1.00  0.00     0.680 A 
ATOM     45  HN  UNL     1      35.192  14.492  50.904  1.00  0.00     0.187 HD
ATOM     46  HN  UNL     1      38.172  11.979  52.153  1.00  0.00     0.186 HD
BRANCH  44  47
HETATM   47  N   UNL     1      35.815  12.095  51.303  1.00  0.00    -0.234 N 
ATOM     48  HN2 UNL     1      35.352  11.980  50.401  1.00  0.00     0.174 HD
ATOM     49  HN1 UNL     1      35.728  11.425  52.067  1.00  0.00     0.174 HD
ENDBRANCH  44  47
ENDBRANCH   2  34
BRANCH   7  50
HETATM   50  O   UNL     1      40.878   9.333  52.565  1.00  0.00    -0.365 OA
ATOM     51  HO  UNL     1      40.946   9.592  53.476  1.00  0.00     0.213 HD
ENDBRANCH   7  50
BRANCH   7  52
HETATM   52  O   UNL     1      42.375   9.222  50.776  1.00  0.00    -0.365 OA
ATOM     53  HO  UNL     1      43.244   8.911  51.002  1.00  0.00     0.213 HD
ENDBRANCH   7  52
TORSDOF 13
ENDMDL
MODEL 8
REMARK VINA RESULT:    -9.505      2.882      4.560
REMARK INTER + INTRA:         -18.519
REMARK INTER:                 -15.021
REMARK INTRA:                  -3.498
REMARK UNBOUND:                -3.180
REMARK  13 active torsions:
REMARK  status: ('A' for Active; 'I' for Inactive)
REMARK    1  A    between atoms: C_1  and  C_35 
REMARK    2  A    between atoms: C_2  and  N_43 
REMARK    3  A    between atoms: C_7  and  N_48 
REMARK    4  A    between atoms: P_12  and  O_34 
REMARK    5  A    between atoms: P_12  and  O_14 
REMARK    6  A    between atoms: O_14  and  C_15 
REMARK    7  A    between atoms: C_16  and  C_17 
REMARK    8  A    between atoms: C_17  and  O_18 
REMARK    9  A    between atoms: C_21  and  N_22 
REMARK   10  A    between atoms: C_31  and  O_32 
REMARK   11  A    between atoms: O_34  and  C_35 
REMARK   12  A    between atoms: C_37  and  O_38 
REMARK   13  A    between atoms: C_37  and  O_40 
ROOT
HETATM    1  C   UNL     1      37.617  12.377  55.303  1.00  0.00     0.153 C 
HETATM    2  C   UNL     1      37.477  12.520  53.013  1.00  0.00     0.235 C 
HETATM    3  C   UNL     1      36.817  11.198  53.337  1.00  0.00     0.047 C 
HETATM    4  C   UNL     1      36.888  11.137  54.864  1.00  0.00     0.030 C 
HETATM    5  C   UNL     1      35.392  11.240  52.934  1.00  0.00     0.077 C 
HETATM    6  C   UNL     1      35.517  11.094  55.410  1.00  0.00     0.076 C 
HETATM    7  C   UNL     1      34.615  11.409  54.227  1.00  0.00     0.160 C 
HETATM    8  O   UNL     1      38.272  12.831  54.135  1.00  0.00    -0.358 OA
ENDROOT
BRANCH   1   9
HETATM    9  C   UNL     1      38.671  12.002  56.315  1.00  0.00     0.213 C 
BRANCH   9  10
HETATM   10  O   UNL     1      39.905  12.044  55.645  1.00  0.00    -0.287 OA
BRANCH  10  11
HETATM   11  P   UNL     1      41.244  12.180  56.492  1.00  0.00     0.408 P 
HETATM   12  O   UNL     1      42.335  11.396  55.808  1.00  0.00    -0.624 OA
HETATM   13  O   UNL     1      41.009  11.797  58.056  1.00  0.00    -0.624 OA
BRANCH  11  14
HETATM   14  O   UNL     1      41.675  13.718  56.458  1.00  0.00    -0.279 OA
BRANCH  14  15
HETATM   15  C   UNL     1      42.302  14.331  55.326  1.00  0.00     0.198 C 
HETATM   16  C   UNL     1      41.456  15.350  54.583  1.00  0.00     0.199 C 
HETATM   17  C   UNL     1      41.565  16.533  55.535  1.00  0.00     0.264 C 
HETATM   18  O   UNL     1      42.829  16.423  56.165  1.00  0.00    -0.353 OA
HETATM   19  C   UNL     1      43.422  15.145  55.917  1.00  0.00     0.180 C 
BRANCH  16  20
HETATM   20  O   UNL     1      40.075  14.959  54.421  1.00  0.00    -0.388 OA
ATOM     21  HO  UNL     1      39.918  14.033  54.561  1.00  0.00     0.210 HD
ENDBRANCH  16  20
BRANCH  17  22
HETATM   22  N   UNL     1      41.438  17.894  54.938  1.00  0.00    -0.280 N 
HETATM   23  C   UNL     1      42.150  18.399  53.868  1.00  0.00     0.104 A 
HETATM   24  C   UNL     1      41.957  19.751  53.487  1.00  0.00     0.092 A 
HETATM   25  C   UNL     1      41.004  20.536  54.167  1.00  0.00     0.250 A 
HETATM   26  N   UNL     1      40.342  20.016  55.215  1.00  0.00    -0.275 N 
HETATM   27  O   UNL     1      40.755  21.763  53.876  1.00  0.00    -0.268 OA
HETATM   28  C   UNL     1      40.539  18.743  55.604  1.00  0.00     0.331 A 
ATOM     29  HN  UNL     1      39.677  20.597  55.726  1.00  0.00     0.173 HD
HETATM   30  O   UNL     1      39.907  18.270  56.571  1.00  0.00    -0.246 OA
ENDBRANCH  17  22
BRANCH  19  31
HETATM   31  C   UNL     1      44.646  15.181  55.008  1.00  0.00     0.198 C 
BRANCH  31  32
HETATM   32  O   UNL     1      45.723  14.340  55.444  1.00  0.00    -0.398 OA
ATOM     33  HO  UNL     1      46.187  13.908  54.737  1.00  0.00     0.209 HD
ENDBRANCH  31  32
ENDBRANCH  19  31
ENDBRANCH  14  15
ENDBRANCH  11  14
ENDBRANCH  10  11
ENDBRANCH   9  10
ENDBRANCH   1   9
BRANCH   2  34
HETATM   34  N   UNL     1      38.339  12.505  51.810  1.00  0.00    -0.299 N 
HETATM   35  C   UNL     1      39.426  11.796  51.832  1.00  0.00     0.159 A 
HETATM   36  C   UNL     1      40.049  11.947  50.526  1.00  0.00     0.147 A 
HETATM   37  N   UNL     1      39.997  11.062  52.805  1.00  0.00    -0.174 N 
HETATM   38  N   UNL     1      39.238  12.723  49.799  1.00  0.00    -0.345 N 
HETATM   39  C   UNL     1      41.299  11.217  50.325  1.00  0.00     0.290 A 
HETATM   40  C   UNL     1      38.188  13.071  50.596  1.00  0.00     0.188 A 
ATOM     41  HN  UNL     1      39.379  13.004  48.828  1.00  0.00     0.167 HD
HETATM   42  N   UNL     1      41.776  10.500  51.352  1.00  0.00    -0.154 N 
HETATM   43  O   UNL     1      41.900  11.297  49.221  1.00  0.00    -0.265 OA
HETATM   44  C   UNL     1      41.156  10.417  52.528  1.00  0.00     0.680 A 
ATOM     45  HN  UNL     1      42.653   9.996  51.228  1.00  0.00     0.187 HD
ATOM     46  HN  UNL     1      39.568  10.993  53.728  1.00  0.00     0.186 HD
BRANCH  44  47
HETATM   47  N   UNL     1      41.691   9.672  53.522  1.00  0.00    -0.234 N 
ATOM     48  HN2 UNL     1      41.730  10.043  54.472  1.00  0.00     0.174 HD
ATOM     49  HN1 UNL     1      42.030   8.744  53.268  1.00  0.00     0.174 HD
ENDBRANCH  44  47
ENDBRANCH   2  34
BRANCH   7  50
HETATM   50  O   UNL     1      34.208  12.751  54.304  1.00  0.00    -0.365 OA
ATOM     51  HO  UNL     1      33.359  12.817  53.884  1.00  0.00     0.213 HD
ENDBRANCH   7  50
BRANCH   7  52
HETATM   52  O   UNL     1      33.471  10.538  54.208  1.00  0.00    -0.365 OA
ATOM     53  HO  UNL     1      33.634   9.822  53.605  1.00  0.00     0.213 HD
ENDBRANCH   7  52
TORSDOF 13
ENDMDL
MODEL 9
REMARK VINA RESULT:    -9.454      3.440      8.786
REMARK INTER + INTRA:         -18.437
REMARK INTER:                 -16.555
REMARK INTRA:                  -1.883
REMARK UNBOUND:                -3.180
REMARK  13 active torsions:
REMARK  status: ('A' for Active; 'I' for Inactive)
REMARK    1  A    between atoms: C_1  and  C_35 
REMARK    2  A    between atoms: C_2  and  N_43 
REMARK    3  A    between atoms: C_7  and  N_48 
REMARK    4  A    between atoms: P_12  and  O_34 
REMARK    5  A    between atoms: P_12  and  O_14 
REMARK    6  A    between atoms: O_14  and  C_15 
REMARK    7  A    between atoms: C_16  and  C_17 
REMARK    8  A    between atoms: C_17  and  O_18 
REMARK    9  A    between atoms: C_21  and  N_22 
REMARK   10  A    between atoms: C_31  and  O_32 
REMARK   11  A    between atoms: O_34  and  C_35 
REMARK   12  A    between atoms: C_37  and  O_38 
REMARK   13  A    between atoms: C_37  and  O_40 
ROOT
HETATM    1  C   UNL     1      41.885  14.285  54.749  1.00  0.00     0.153 C 
HETATM    2  C   UNL     1      42.923  16.336  54.735  1.00  0.00     0.235 C 
HETATM    3  C   UNL     1      43.516  15.635  55.938  1.00  0.00     0.047 C 
HETATM    4  C   UNL     1      42.841  14.262  55.911  1.00  0.00     0.030 C 
HETATM    5  C   UNL     1      44.972  15.447  55.737  1.00  0.00     0.077 C 
HETATM    6  C   UNL     1      43.873  13.220  55.742  1.00  0.00     0.076 C 
HETATM    7  C   UNL     1      45.142  13.979  55.389  1.00  0.00     0.160 C 
HETATM    8  O   UNL     1      41.718  15.658  54.459  1.00  0.00    -0.358 OA
ENDROOT
BRANCH   1   9
HETATM    9  C   UNL     1      40.552  13.735  55.193  1.00  0.00     0.213 C 
BRANCH   9  10
HETATM   10  O   UNL     1      39.567  14.545  54.603  1.00  0.00    -0.287 OA
BRANCH  10  11
HETATM   11  P   UNL     1      39.005  14.162  53.166  1.00  0.00     0.408 P 
HETATM   12  O   UNL     1      38.916  15.413  52.329  1.00  0.00    -0.624 OA
HETATM   13  O   UNL     1      37.621  13.311  53.267  1.00  0.00    -0.624 OA
BRANCH  11  14
HETATM   14  O   UNL     1      40.081  13.206  52.474  1.00  0.00    -0.279 OA
BRANCH  14  15
HETATM   15  C   UNL     1      39.925  11.785  52.389  1.00  0.00     0.198 C 
HETATM   16  C   UNL     1      40.006  11.202  50.988  1.00  0.00     0.199 C 
HETATM   17  C   UNL     1      41.511  11.251  50.764  1.00  0.00     0.264 C 
HETATM   18  O   UNL     1      42.109  11.100  52.040  1.00  0.00    -0.353 OA
HETATM   19  C   UNL     1      41.142  11.235  53.085  1.00  0.00     0.180 C 
BRANCH  16  20
HETATM   20  O   UNL     1      39.322  11.986  49.987  1.00  0.00    -0.388 OA
ATOM     21  HO  UNL     1      38.882  12.754  50.333  1.00  0.00     0.210 HD
ENDBRANCH  16  20
BRANCH  17  22
HETATM   22  N   UNL     1      42.089  10.237  49.836  1.00  0.00    -0.280 N 
HETATM   23  C   UNL     1      42.809   9.111  50.182  1.00  0.00     0.104 A 
HETATM   24  C   UNL     1      43.356   8.299  49.158  1.00  0.00     0.092 A 
HETATM   25  C   UNL     1      43.108   8.621  47.808  1.00  0.00     0.250 A 
HETATM   26  N   UNL     1      42.416   9.734  47.508  1.00  0.00    -0.275 N 
HETATM   27  O   UNL     1      43.551   7.930  46.818  1.00  0.00    -0.268 OA
HETATM   28  C   UNL     1      41.917  10.529  48.472  1.00  0.00     0.331 A 
ATOM     29  HN  UNL     1      42.267   9.982  46.530  1.00  0.00     0.173 HD
HETATM   30  O   UNL     1      41.266  11.552  48.178  1.00  0.00    -0.246 OA
ENDBRANCH  17  22
BRANCH  19  31
HETATM   31  C   UNL     1      40.837   9.943  53.836  1.00  0.00     0.198 C 
BRANCH  31  32
HETATM   32  O   UNL     1      40.944  10.057  55.262  1.00  0.00    -0.398 OA
ATOM     33  HO  UNL     1      41.218  10.915  55.562  1.00  0.00     0.209 HD
ENDBRANCH  31  32
ENDBRANCH  19  31
ENDBRANCH  14  15
ENDBRANCH  11  14
ENDBRANCH  10  11
ENDBRANCH   9  10
ENDBRANCH   1   9
BRANCH   2  34
HETATM   34  N   UNL     1      42.626  17.771  54.937  1.00  0.00    -0.299 N 
HETATM   35  C   UNL     1      41.711  18.326  54.203  1.00  0.00     0.159 A 
HETATM   36  C   UNL     1      41.616  19.713  54.632  1.00  0.00     0.147 A 
HETATM   37  N   UNL     1      40.960  17.847  53.194  1.00  0.00    -0.174 N 
HETATM   38  N   UNL     1      42.479  19.864  55.642  1.00  0.00    -0.345 N 
HETATM   39  C   UNL     1      40.626  20.532  53.935  1.00  0.00     0.290 A 
HETATM   40  C   UNL     1      43.105  18.666  55.823  1.00  0.00     0.188 A 
ATOM     41  HN  UNL     1      42.640  20.718  56.178  1.00  0.00     0.167 HD
HETATM   42  N   UNL     1      39.917  19.956  52.955  1.00  0.00    -0.154 N 
HETATM   43  O   UNL     1      40.484  21.743  54.249  1.00  0.00    -0.265 OA
HETATM   44  C   UNL     1      40.066  18.679  52.606  1.00  0.00     0.680 A 
ATOM     45  HN  UNL     1      39.231  20.520  52.454  1.00  0.00     0.187 HD
ATOM     46  HN  UNL     1      41.060  16.882  52.879  1.00  0.00     0.186 HD
BRANCH  44  47
HETATM   47  N   UNL     1      39.313  18.160  51.610  1.00  0.00    -0.234 N 
ATOM     48  HN2 UNL     1      39.484  17.207  51.288  1.00  0.00     0.174 HD
ATOM     49  HN1 UNL     1      38.584  18.759  51.225  1.00  0.00     0.174 HD
ENDBRANCH  44  47
ENDBRANCH   2  34
BRANCH   7  50
HETATM   50  O   UNL     1      45.356  13.896  54.003  1.00  0.00    -0.365 OA
ATOM     51  HO  UNL     1      46.093  14.457  53.794  1.00  0.00     0.213 HD
ENDBRANCH   7  50
BRANCH   7  52
HETATM   52  O   UNL     1      46.272  13.451  56.104  1.00  0.00    -0.365 OA
ATOM     53  HO  UNL     1      46.837  12.988  55.497  1.00  0.00     0.213 HD
ENDBRANCH   7  52
TORSDOF 13
ENDMDL
MODEL 10
REMARK VINA RESULT:    -9.332      1.260      2.237
REMARK INTER + INTRA:         -18.240
REMARK INTER:                 -15.167
REMARK INTRA:                  -3.073
REMARK UNBOUND:                -3.180
REMARK  13 active torsions:
REMARK  status: ('A' for Active; 'I' for Inactive)
REMARK    1  A    between atoms: C_1  and  C_35 
REMARK    2  A    between atoms: C_2  and  N_43 
REMARK    3  A    between atoms: C_7  and  N_48 
REMARK    4  A    between atoms: P_12  and  O_34 
REMARK    5  A    between atoms: P_12  and  O_14 
REMARK    6  A    between atoms: O_14  and  C_15 
REMARK    7  A    between atoms: C_16  and  C_17 
REMARK    8  A    between atoms: C_17  and  O_18 
REMARK    9  A    between atoms: C_21  and  N_22 
REMARK   10  A    between atoms: C_31  and  O_32 
REMARK   11  A    between atoms: O_34  and  C_35 
REMARK   12  A    between atoms: C_37  and  O_38 
REMARK   13  A    between atoms: C_37  and  O_40 
ROOT
HETATM    1  C   UNL     1      41.898  12.665  55.878  1.00  0.00     0.153 C 
HETATM    2  C   UNL     1      39.903  12.400  54.768  1.00  0.00     0.235 C 
HETATM    3  C   UNL     1      40.189  11.027  55.336  1.00  0.00     0.047 C 
HETATM    4  C   UNL     1      41.500  11.231  56.099  1.00  0.00     0.030 C 
HETATM    5  C   UNL     1      39.132  10.659  56.307  1.00  0.00     0.077 C 
HETATM    6  C   UNL     1      41.274  10.947  57.530  1.00  0.00     0.076 C 
HETATM    7  C   UNL     1      39.765  10.840  57.675  1.00  0.00     0.160 C 
HETATM    8  O   UNL     1      41.143  13.069  54.754  1.00  0.00    -0.358 OA
ENDROOT
BRANCH   1   9
HETATM    9  C   UNL     1      43.359  12.722  55.507  1.00  0.00     0.213 C 
BRANCH   9  10
HETATM   10  O   UNL     1      43.519  13.847  54.679  1.00  0.00    -0.287 OA
BRANCH  10  11
HETATM   11  P   UNL     1      44.538  14.989  55.110  1.00  0.00     0.408 P 
HETATM   12  O   UNL     1      45.624  15.091  54.070  1.00  0.00    -0.624 OA
HETATM   13  O   UNL     1      45.071  14.777  56.633  1.00  0.00    -0.624 OA
BRANCH  11  14
HETATM   14  O   UNL     1      43.737  16.371  55.094  1.00  0.00    -0.279 OA
BRANCH  14  15
HETATM   15  C   UNL     1      43.323  17.050  56.285  1.00  0.00     0.198 C 
HETATM   16  C   UNL     1      42.682  18.410  56.071  1.00  0.00     0.199 C 
HETATM   17  C   UNL     1      41.300  17.983  55.596  1.00  0.00     0.264 C 
HETATM   18  O   UNL     1      41.030  16.741  56.221  1.00  0.00    -0.353 OA
HETATM   19  C   UNL     1      42.206  16.199  56.829  1.00  0.00     0.180 C 
BRANCH  16  20
HETATM   20  O   UNL     1      43.335  19.214  55.065  1.00  0.00    -0.388 OA
ATOM     21  HO  UNL     1      43.343  18.819  54.201  1.00  0.00     0.210 HD
ENDBRANCH  16  20
BRANCH  17  22
HETATM   22  N   UNL     1      40.172  18.919  55.871  1.00  0.00    -0.280 N 
HETATM   23  C   UNL     1      39.362  18.935  56.989  1.00  0.00     0.104 A 
HETATM   24  C   UNL     1      38.280  19.848  57.045  1.00  0.00     0.092 A 
HETATM   25  C   UNL     1      38.083  20.759  55.988  1.00  0.00     0.250 A 
HETATM   26  N   UNL     1      38.881  20.703  54.907  1.00  0.00    -0.275 N 
HETATM   27  O   UNL     1      37.137  21.630  55.965  1.00  0.00    -0.268 OA
HETATM   28  C   UNL     1      39.894  19.821  54.830  1.00  0.00     0.331 A 
ATOM     29  HN  UNL     1      38.716  21.342  54.129  1.00  0.00     0.173 HD
HETATM   30  O   UNL     1      40.634  19.790  53.827  1.00  0.00    -0.246 OA
ENDBRANCH  17  22
BRANCH  19  31
HETATM   31  C   UNL     1      42.183  16.190  58.353  1.00  0.00     0.198 C 
BRANCH  31  32
HETATM   32  O   UNL     1      40.893  16.459  58.921  1.00  0.00    -0.398 OA
ATOM     33  HO  UNL     1      40.422  17.164  58.492  1.00  0.00     0.209 HD
ENDBRANCH  31  32
ENDBRANCH  19  31
ENDBRANCH  14  15
ENDBRANCH  11  14
ENDBRANCH  10  11
ENDBRANCH   9  10
ENDBRANCH   1   9
BRANCH   2  34
HETATM   34  N   UNL     1      39.346  12.400  53.397  1.00  0.00    -0.299 N 
HETATM   35  C   UNL     1      39.278  13.526  52.754  1.00  0.00     0.159 A 
HETATM   36  C   UNL     1      38.723  13.224  51.443  1.00  0.00     0.147 A 
HETATM   37  N   UNL     1      39.583  14.785  53.118  1.00  0.00    -0.174 N 
HETATM   38  N   UNL     1      38.538  11.901  51.397  1.00  0.00    -0.345 N 
HETATM   39  C   UNL     1      38.565  14.362  50.538  1.00  0.00     0.290 A 
HETATM   40  C   UNL     1      38.917  11.397  52.607  1.00  0.00     0.188 A 
ATOM     41  HN  UNL     1      38.180  11.367  50.605  1.00  0.00     0.167 HD
HETATM   42  N   UNL     1      38.914  15.573  50.991  1.00  0.00    -0.154 N 
HETATM   43  O   UNL     1      38.091  14.182  49.386  1.00  0.00    -0.265 OA
HETATM   44  C   UNL     1      39.406  15.777  52.212  1.00  0.00     0.680 A 
ATOM     45  HN  UNL     1      38.798  16.376  50.373  1.00  0.00     0.187 HD
ATOM     46  HN  UNL     1      39.938  14.988  54.052  1.00  0.00     0.186 HD
BRANCH  44  47
HETATM   47  N   UNL     1      39.741  17.027  52.604  1.00  0.00    -0.234 N 
ATOM     48  HN2 UNL     1      40.625  17.436  52.299  1.00  0.00     0.174 HD
ATOM     49  HN1 UNL     1      39.071  17.519  53.194  1.00  0.00     0.174 HD
ENDBRANCH  44  47
ENDBRANCH   2  34
BRANCH   7  50
HETATM   50  O   UNL     1      39.269  12.039  58.214  1.00  0.00    -0.365 OA
ATOM     51  HO  UNL     1      38.570  11.814  58.817  1.00  0.00     0.213 HD
ENDBRANCH   7  50
BRANCH   7  52
HETATM   52  O   UNL     1      39.406   9.727  58.512  1.00  0.00    -0.365 OA
ATOM     53  HO  UNL     1      40.198   9.309  58.830  1.00  0.00     0.213 HD
ENDBRANCH   7  52
TORSDOF 13
ENDMDL
MODEL 11
REMARK VINA RESULT:    -9.322      1.842      2.144
REMARK INTER + INTRA:         -18.225
REMARK INTER:                 -15.551
REMARK INTRA:                  -2.674
REMARK UNBOUND:                -3.180
REMARK  13 active torsions:
REMARK  status: ('A' for Active; 'I' for Inactive)
REMARK    1  A    between atoms: C_1  and  C_35 
REMARK    2  A    between atoms: C_2  and  N_43 
REMARK    3  A    between atoms: C_7  and  N_48 
REMARK    4  A    between atoms: P_12  and  O_34 
REMARK    5  A    between atoms: P_12  and  O_14 
REMARK    6  A    between atoms: O_14  and  C_15 
REMARK    7  A    between atoms: C_16  and  C_17 
REMARK    8  A    between atoms: C_17  and  O_18 
REMARK    9  A    between atoms: C_21  and  N_22 
REMARK   10  A    between atoms: C_31  and  O_32 
REMARK   11  A    between atoms: O_34  and  C_35 
REMARK   12  A    between atoms: C_37  and  O_38 
REMARK   13  A    between atoms: C_37  and  O_40 
ROOT
HETATM    1  C   UNL     1      40.883  11.885  54.051  1.00  0.00     0.153 C 
HETATM    2  C   UNL     1      38.618  12.228  53.872  1.00  0.00     0.235 C 
HETATM    3  C   UNL     1      38.843  10.905  53.174  1.00  0.00     0.047 C 
HETATM    4  C   UNL     1      40.347  10.676  53.334  1.00  0.00     0.030 C 
HETATM    5  C   UNL     1      38.125   9.830  53.900  1.00  0.00     0.077 C 
HETATM    6  C   UNL     1      40.569   9.443  54.114  1.00  0.00     0.076 C 
HETATM    7  C   UNL     1      39.199   9.075  54.662  1.00  0.00     0.160 C 
HETATM    8  O   UNL     1      39.876  12.863  53.892  1.00  0.00    -0.358 OA
ENDROOT
BRANCH   1   9
HETATM    9  C   UNL     1      42.125  12.372  53.344  1.00  0.00     0.213 C 
BRANCH   9  10
HETATM   10  O   UNL     1      42.462  13.605  53.928  1.00  0.00    -0.287 OA
BRANCH  10  11
HETATM   11  P   UNL     1      43.628  13.659  55.007  1.00  0.00     0.408 P 
HETATM   12  O   UNL     1      44.952  13.741  54.290  1.00  0.00    -0.624 OA
HETATM   13  O   UNL     1      43.511  12.443  56.083  1.00  0.00    -0.624 OA
BRANCH  11  14
HETATM   14  O   UNL     1      43.452  15.017  55.831  1.00  0.00    -0.279 OA
BRANCH  14  15
HETATM   15  C   UNL     1      42.758  16.160  55.318  1.00  0.00     0.198 C 
HETATM   16  C   UNL     1      41.296  16.268  55.714  1.00  0.00     0.199 C 
HETATM   17  C   UNL     1      41.443  16.753  57.150  1.00  0.00     0.264 C 
HETATM   18  O   UNL     1      42.640  17.510  57.195  1.00  0.00    -0.353 OA
HETATM   19  C   UNL     1      43.412  17.330  56.004  1.00  0.00     0.180 C 
BRANCH  16  20
HETATM   20  O   UNL     1      40.584  15.013  55.677  1.00  0.00    -0.388 OA
ATOM     21  HO  UNL     1      40.238  14.741  56.519  1.00  0.00     0.210 HD
ENDBRANCH  16  20
BRANCH  17  22
HETATM   22  N   UNL     1      40.329  17.577  57.702  1.00  0.00    -0.280 N 
HETATM   23  C   UNL     1      39.640  18.581  57.053  1.00  0.00     0.104 A 
HETATM   24  C   UNL     1      38.661  19.319  57.764  1.00  0.00     0.092 A 
HETATM   25  C   UNL     1      38.368  18.978  59.100  1.00  0.00     0.250 A 
HETATM   26  N   UNL     1      39.071  18.005  59.706  1.00  0.00    -0.275 N 
HETATM   27  O   UNL     1      37.484  19.583  59.812  1.00  0.00    -0.268 OA
HETATM   28  C   UNL     1      40.023  17.318  59.049  1.00  0.00     0.331 A 
ATOM     29  HN  UNL     1      38.879  17.783  60.682  1.00  0.00     0.173 HD
HETATM   30  O   UNL     1      40.658  16.408  59.620  1.00  0.00    -0.246 OA
ENDBRANCH  17  22
BRANCH  19  31
HETATM   31  C   UNL     1      43.480  18.558  55.102  1.00  0.00     0.198 C 
BRANCH  31  32
HETATM   32  O   UNL     1      43.727  18.256  53.721  1.00  0.00    -0.398 OA
ATOM     33  HO  UNL     1      43.960  17.349  53.560  1.00  0.00     0.209 HD
ENDBRANCH  31  32
ENDBRANCH  19  31
ENDBRANCH  14  15
ENDBRANCH  11  14
ENDBRANCH  10  11
ENDBRANCH   9  10
ENDBRANCH   1   9
BRANCH   2  34
HETATM   34  N   UNL     1      37.644  13.122  53.208  1.00  0.00    -0.299 N 
HETATM   35  C   UNL     1      38.058  14.265  52.754  1.00  0.00     0.159 A 
HETATM   36  C   UNL     1      36.909  14.911  52.138  1.00  0.00     0.147 A 
HETATM   37  N   UNL     1      39.260  14.869  52.809  1.00  0.00    -0.174 N 
HETATM   38  N   UNL     1      35.884  14.058  52.244  1.00  0.00    -0.345 N 
HETATM   39  C   UNL     1      37.154  16.225  51.546  1.00  0.00     0.290 A 
HETATM   40  C   UNL     1      36.340  12.958  52.910  1.00  0.00     0.188 A 
ATOM     41  HN  UNL     1      34.938  14.203  51.892  1.00  0.00     0.167 HD
HETATM   42  N   UNL     1      38.391  16.731  51.640  1.00  0.00    -0.154 N 
HETATM   43  O   UNL     1      36.209  16.848  50.994  1.00  0.00    -0.265 OA
HETATM   44  C   UNL     1      39.396  16.086  52.232  1.00  0.00     0.680 A 
ATOM     45  HN  UNL     1      38.572  17.652  51.241  1.00  0.00     0.187 HD
ATOM     46  HN  UNL     1      40.049  14.421  53.275  1.00  0.00     0.186 HD
BRANCH  44  47
HETATM   47  N   UNL     1      40.621  16.655  52.288  1.00  0.00    -0.234 N 
ATOM     48  HN2 UNL     1      40.737  17.574  52.716  1.00  0.00     0.174 HD
ATOM     49  HN1 UNL     1      41.395  16.117  51.897  1.00  0.00     0.174 HD
ENDBRANCH  44  47
ENDBRANCH   2  34
BRANCH   7  50
HETATM   50  O   UNL     1      39.121   9.471  56.007  1.00  0.00    -0.365 OA
ATOM     51  HO  UNL     1      38.243   9.275  56.312  1.00  0.00     0.213 HD
ENDBRANCH   7  50
BRANCH   7  52
HETATM   52  O   UNL     1      38.960   7.662  54.540  1.00  0.00    -0.365 OA
ATOM     53  HO  UNL     1      39.332   7.352  53.723  1.00  0.00     0.213 HD
ENDBRANCH   7  52
TORSDOF 13
ENDMDL
MODEL 12
REMARK VINA RESULT:    -9.219      3.039      4.409
REMARK INTER + INTRA:         -18.057
REMARK INTER:                 -15.125
REMARK INTRA:                  -2.933
REMARK UNBOUND:                -3.180
REMARK  13 active torsions:
REMARK  status: ('A' for Active; 'I' for Inactive)
REMARK    1  A    between atoms: C_1  and  C_35 
REMARK    2  A    between atoms: C_2  and  N_43 
REMARK    3  A    between atoms: C_7  and  N_48 
REMARK    4  A    between atoms: P_12  and  O_34 
REMARK    5  A    between atoms: P_12  and  O_14 
REMARK    6  A    between atoms: O_14  and  C_15 
REMARK    7  A    between atoms: C_16  and  C_17 
REMARK    8  A    between atoms: C_17  and  O_18 
REMARK    9  A    between atoms: C_21  and  N_22 
REMARK   10  A    between atoms: C_31  and  O_32 
REMARK   11  A    between atoms: O_34  and  C_35 
REMARK   12  A    between atoms: C_37  and  O_38 
REMARK   13  A    between atoms: C_37  and  O_40 
ROOT
HETATM    1  C   UNL     1      37.992  10.680  54.971  1.00  0.00     0.153 C 
HETATM    2  C   UNL     1      36.194  12.031  54.498  1.00  0.00     0.235 C 
HETATM    3  C   UNL     1      36.066  10.893  53.509  1.00  0.00     0.047 C 
HETATM    4  C   UNL     1      37.248   9.988  53.862  1.00  0.00     0.030 C 
HETATM    5  C   UNL     1      34.811  10.148  53.767  1.00  0.00     0.077 C 
HETATM    6  C   UNL     1      36.737   8.672  54.292  1.00  0.00     0.076 C 
HETATM    7  C   UNL     1      35.240   8.870  54.465  1.00  0.00     0.160 C 
HETATM    8  O   UNL     1      37.540  12.017  54.917  1.00  0.00    -0.358 OA
ENDROOT
BRANCH   1   9
HETATM    9  C   UNL     1      39.469  10.671  54.660  1.00  0.00     0.213 C 
BRANCH   9  10
HETATM   10  O   UNL     1      39.962  11.938  55.016  1.00  0.00    -0.287 OA
BRANCH  10  11
HETATM   11  P   UNL     1      40.732  12.110  56.397  1.00  0.00     0.408 P 
HETATM   12  O   UNL     1      41.918  11.180  56.412  1.00  0.00    -0.624 OA
HETATM   13  O   UNL     1      39.729  11.954  57.669  1.00  0.00    -0.624 OA
BRANCH  11  14
HETATM   14  O   UNL     1      41.300  13.602  56.442  1.00  0.00    -0.279 OA
BRANCH  14  15
HETATM   15  C   UNL     1      42.015  14.201  55.356  1.00  0.00     0.198 C 
HETATM   16  C   UNL     1      41.241  15.235  54.556  1.00  0.00     0.199 C 
HETATM   17  C   UNL     1      41.305  16.417  55.513  1.00  0.00     0.264 C 
HETATM   18  O   UNL     1      42.521  16.285  56.229  1.00  0.00    -0.353 OA
HETATM   19  C   UNL     1      43.106  14.997  56.023  1.00  0.00     0.180 C 
BRANCH  16  20
HETATM   20  O   UNL     1      39.867  14.869  54.299  1.00  0.00    -0.388 OA
ATOM     21  HO  UNL     1      39.633  14.873  53.378  1.00  0.00     0.210 HD
ENDBRANCH  16  20
BRANCH  17  22
HETATM   22  N   UNL     1      41.245  17.779  54.908  1.00  0.00    -0.280 N 
HETATM   23  C   UNL     1      41.933  18.224  53.797  1.00  0.00     0.104 A 
HETATM   24  C   UNL     1      41.818  19.583  53.411  1.00  0.00     0.092 A 
HETATM   25  C   UNL     1      40.961  20.440  54.131  1.00  0.00     0.250 A 
HETATM   26  N   UNL     1      40.320  19.977  55.219  1.00  0.00    -0.275 N 
HETATM   27  O   UNL     1      40.786  21.680  53.840  1.00  0.00    -0.268 OA
HETATM   28  C   UNL     1      40.446  18.696  55.611  1.00  0.00     0.331 A 
ATOM     29  HN  UNL     1      39.727  20.609  55.757  1.00  0.00     0.173 HD
HETATM   30  O   UNL     1      39.834  18.277  56.615  1.00  0.00    -0.246 OA
ENDBRANCH  17  22
BRANCH  19  31
HETATM   31  C   UNL     1      44.390  15.009  55.201  1.00  0.00     0.198 C 
BRANCH  31  32
HETATM   32  O   UNL     1      44.604  16.224  54.469  1.00  0.00    -0.398 OA
ATOM     33  HO  UNL     1      45.504  16.355  54.192  1.00  0.00     0.209 HD
ENDBRANCH  31  32
ENDBRANCH  19  31
ENDBRANCH  14  15
ENDBRANCH  11  14
ENDBRANCH  10  11
ENDBRANCH   9  10
ENDBRANCH   1   9
BRANCH   2  34
HETATM   34  N   UNL     1      35.880  13.369  53.949  1.00  0.00    -0.299 N 
HETATM   35  C   UNL     1      36.615  13.833  52.986  1.00  0.00     0.159 A 
HETATM   36  C   UNL     1      36.067  15.135  52.634  1.00  0.00     0.147 A 
HETATM   37  N   UNL     1      37.709  13.341  52.375  1.00  0.00    -0.174 N 
HETATM   38  N   UNL     1      34.995  15.325  53.411  1.00  0.00    -0.345 N 
HETATM   39  C   UNL     1      36.746  15.844  51.550  1.00  0.00     0.290 A 
HETATM   40  C   UNL     1      34.887  14.237  54.226  1.00  0.00     0.188 A 
ATOM     41  HN  UNL     1      34.375  16.135  53.397  1.00  0.00     0.167 HD
HETATM   42  N   UNL     1      37.817  15.259  50.996  1.00  0.00    -0.154 N 
HETATM   43  O   UNL     1      36.331  16.976  51.188  1.00  0.00    -0.265 OA
HETATM   44  C   UNL     1      38.271  14.067  51.379  1.00  0.00     0.680 A 
ATOM     45  HN  UNL     1      38.305  15.748  50.247  1.00  0.00     0.187 HD
ATOM     46  HN  UNL     1      38.104  12.443  52.655  1.00  0.00     0.186 HD
BRANCH  44  47
HETATM   47  N   UNL     1      39.356  13.532  50.773  1.00  0.00    -0.234 N 
ATOM     48  HN2 UNL     1      39.659  13.888  49.866  1.00  0.00     0.174 HD
ATOM     49  HN1 UNL     1      39.839  12.785  51.272  1.00  0.00     0.174 HD
ENDBRANCH  44  47
ENDBRANCH   2  34
BRANCH   7  50
HETATM   50  O   UNL     1      34.950   9.017  55.831  1.00  0.00    -0.365 OA
ATOM     51  HO  UNL     1      34.916   9.948  56.018  1.00  0.00     0.213 HD
ENDBRANCH   7  50
BRANCH   7  52
HETATM   52  O   UNL     1      34.508   7.762  53.913  1.00  0.00    -0.365 OA
ATOM     53  HO  UNL     1      33.598   8.011  53.805  1.00  0.00     0.213 HD
ENDBRANCH   7  52
TORSDOF 13
ENDMDL
MODEL 13
REMARK VINA RESULT:    -9.101      4.094      7.883
REMARK INTER + INTRA:         -17.868
REMARK INTER:                 -15.807
REMARK INTRA:                  -2.061
REMARK UNBOUND:                -3.180
REMARK  13 active torsions:
REMARK  status: ('A' for Active; 'I' for Inactive)
REMARK    1  A    between atoms: C_1  and  C_35 
REMARK    2  A    between atoms: C_2  and  N_43 
REMARK    3  A    between atoms: C_7  and  N_48 
REMARK    4  A    between atoms: P_12  and  O_34 
REMARK    5  A    between atoms: P_12  and  O_14 
REMARK    6  A    between atoms: O_14  and  C_15 
REMARK    7  A    between atoms: C_16  and  C_17 
REMARK    8  A    between atoms: C_17  and  O_18 
REMARK    9  A    between atoms: C_21  and  N_22 
REMARK   10  A    between atoms: C_31  and  O_32 
REMARK   11  A    between atoms: O_34  and  C_35 
REMARK   12  A    between atoms: C_37  and  O_38 
REMARK   13  A    between atoms: C_37  and  O_40 
ROOT
HETATM    1  C   UNL     1      41.587  14.100  54.839  1.00  0.00     0.153 C 
HETATM    2  C   UNL     1      42.688  16.115  54.750  1.00  0.00     0.235 C 
HETATM    3  C   UNL     1      43.314  15.409  55.933  1.00  0.00     0.047 C 
HETATM    4  C   UNL     1      42.594  14.059  55.955  1.00  0.00     0.030 C 
HETATM    5  C   UNL     1      44.752  15.171  55.667  1.00  0.00     0.077 C 
HETATM    6  C   UNL     1      43.583  12.982  55.751  1.00  0.00     0.076 C 
HETATM    7  C   UNL     1      44.858  13.695  55.330  1.00  0.00     0.160 C 
HETATM    8  O   UNL     1      41.451  15.474  54.539  1.00  0.00    -0.358 OA
ENDROOT
BRANCH   1   9
HETATM    9  C   UNL     1      40.258  13.599  55.351  1.00  0.00     0.213 C 
BRANCH   9  10
HETATM   10  O   UNL     1      40.045  12.345  54.753  1.00  0.00    -0.287 OA
BRANCH  10  11
HETATM   11  P   UNL     1      39.834  11.070  55.678  1.00  0.00     0.408 P 
HETATM   12  O   UNL     1      40.282  11.405  57.078  1.00  0.00    -0.624 OA
HETATM   13  O   UNL     1      40.528   9.742  55.042  1.00  0.00    -0.624 OA
BRANCH  11  14
HETATM   14  O   UNL     1      38.265  10.780  55.740  1.00  0.00    -0.279 OA
BRANCH  14  15
HETATM   15  C   UNL     1      37.365  11.108  54.675  1.00  0.00     0.198 C 
HETATM   16  C   UNL     1      36.252  10.104  54.429  1.00  0.00     0.199 C 
HETATM   17  C   UNL     1      35.323  10.447  55.586  1.00  0.00     0.264 C 
HETATM   18  O   UNL     1      35.503  11.828  55.847  1.00  0.00    -0.353 OA
HETATM   19  C   UNL     1      36.648  12.341  55.159  1.00  0.00     0.180 C 
BRANCH  16  20
HETATM   20  O   UNL     1      36.675   8.727  54.514  1.00  0.00    -0.388 OA
ATOM     21  HO  UNL     1      36.207   8.220  55.168  1.00  0.00     0.210 HD
ENDBRANCH  16  20
BRANCH  17  22
HETATM   22  N   UNL     1      33.870  10.178  55.388  1.00  0.00    -0.280 N 
HETATM   23  C   UNL     1      32.991  10.902  54.606  1.00  0.00     0.104 A 
HETATM   24  C   UNL     1      31.619  10.549  54.601  1.00  0.00     0.092 A 
HETATM   25  C   UNL     1      31.184   9.434  55.346  1.00  0.00     0.250 A 
HETATM   26  N   UNL     1      32.065   8.763  56.109  1.00  0.00    -0.275 N 
HETATM   27  O   UNL     1      29.963   9.036  55.384  1.00  0.00    -0.268 OA
HETATM   28  C   UNL     1      33.365   9.107  56.145  1.00  0.00     0.331 A 
ATOM     29  HN  UNL     1      31.741   7.977  56.673  1.00  0.00     0.173 HD
HETATM   30  O   UNL     1      34.172   8.467  56.848  1.00  0.00    -0.246 OA
ENDBRANCH  17  22
BRANCH  19  31
HETATM   31  C   UNL     1      36.325  13.300  54.019  1.00  0.00     0.198 C 
BRANCH  31  32
HETATM   32  O   UNL     1      37.468  13.991  53.496  1.00  0.00    -0.398 OA
ATOM     33  HO  UNL     1      38.027  14.375  54.162  1.00  0.00     0.209 HD
ENDBRANCH  31  32
ENDBRANCH  19  31
ENDBRANCH  14  15
ENDBRANCH  11  14
ENDBRANCH  10  11
ENDBRANCH   9  10
ENDBRANCH   1   9
BRANCH   2  34
HETATM   34  N   UNL     1      42.447  17.562  54.947  1.00  0.00    -0.299 N 
HETATM   35  C   UNL     1      41.593  18.161  54.175  1.00  0.00     0.159 A 
HETATM   36  C   UNL     1      41.541  19.549  54.608  1.00  0.00     0.147 A 
HETATM   37  N   UNL     1      40.868  17.721  53.130  1.00  0.00    -0.174 N 
HETATM   38  N   UNL     1      42.363  19.657  55.658  1.00  0.00    -0.345 N 
HETATM   39  C   UNL     1      40.622  20.415  53.872  1.00  0.00     0.290 A 
HETATM   40  C   UNL     1      42.925  18.431  55.860  1.00  0.00     0.188 A 
ATOM     41  HN  UNL     1      42.537  20.500  56.205  1.00  0.00     0.167 HD
HETATM   42  N   UNL     1      39.933  19.876  52.857  1.00  0.00    -0.154 N 
HETATM   43  O   UNL     1      40.521  21.630  54.186  1.00  0.00    -0.265 OA
HETATM   44  C   UNL     1      40.040  18.595  52.507  1.00  0.00     0.680 A 
ATOM     45  HN  UNL     1      39.298  20.473  52.328  1.00  0.00     0.187 HD
ATOM     46  HN  UNL     1      40.939  16.754  52.814  1.00  0.00     0.186 HD
BRANCH  44  47
HETATM   47  N   UNL     1      39.312  18.114  51.475  1.00  0.00    -0.234 N 
ATOM     48  HN2 UNL     1      38.473  17.562  51.657  1.00  0.00     0.174 HD
ATOM     49  HN1 UNL     1      39.639  18.342  50.536  1.00  0.00     0.174 HD
ENDBRANCH  44  47
ENDBRANCH   2  34
BRANCH   7  50
HETATM   50  O   UNL     1      45.005  13.589  53.937  1.00  0.00    -0.365 OA
ATOM     51  HO  UNL     1      45.442  12.766  53.757  1.00  0.00     0.213 HD
ENDBRANCH   7  50
BRANCH   7  52
HETATM   52  O   UNL     1      46.002  13.138  55.999  1.00  0.00    -0.365 OA
ATOM     53  HO  UNL     1      45.721  12.423  56.557  1.00  0.00     0.213 HD
ENDBRANCH   7  52
TORSDOF 13
ENDMDL
MODEL 14
REMARK VINA RESULT:    -9.082      4.040      8.151
REMARK INTER + INTRA:         -17.837
REMARK INTER:                 -16.007
REMARK INTRA:                  -1.829
REMARK UNBOUND:                -3.180
REMARK  13 active torsions:
REMARK  status: ('A' for Active; 'I' for Inactive)
REMARK    1  A    between atoms: C_1  and  C_35 
REMARK    2  A    between atoms: C_2  and  N_43 
REMARK    3  A    between atoms: C_7  and  N_48 
REMARK    4  A    between atoms: P_12  and  O_34 
REMARK    5  A    between atoms: P_12  and  O_14 
REMARK    6  A    between atoms: O_14  and  C_15 
REMARK    7  A    between atoms: C_16  and  C_17 
REMARK    8  A    between atoms: C_17  and  O_18 
REMARK    9  A    between atoms: C_21  and  N_22 
REMARK   10  A    between atoms: C_31  and  O_32 
REMARK   11  A    between atoms: O_34  and  C_35 
REMARK   12  A    between atoms: C_37  and  O_38 
REMARK   13  A    between atoms: C_37  and  O_40 
ROOT
HETATM    1  C   UNL     1      41.567  14.081  54.662  1.00  0.00     0.153 C 
HETATM    2  C   UNL     1      42.675  16.094  54.690  1.00  0.00     0.235 C 
HETATM    3  C   UNL     1      43.233  15.353  55.884  1.00  0.00     0.047 C 
HETATM    4  C   UNL     1      42.512  14.005  55.829  1.00  0.00     0.030 C 
HETATM    5  C   UNL     1      44.684  15.118  55.691  1.00  0.00     0.077 C 
HETATM    6  C   UNL     1      43.508  12.931  55.649  1.00  0.00     0.076 C 
HETATM    7  C   UNL     1      44.805  13.652  55.319  1.00  0.00     0.160 C 
HETATM    8  O   UNL     1      41.449  15.463  54.394  1.00  0.00    -0.358 OA
ENDROOT
BRANCH   1   9
HETATM    9  C   UNL     1      40.211  13.569  55.086  1.00  0.00     0.213 C 
BRANCH   9  10
HETATM   10  O   UNL     1      39.854  12.568  54.167  1.00  0.00    -0.287 OA
BRANCH  10  11
HETATM   11  P   UNL     1      38.659  12.835  53.154  1.00  0.00     0.408 P 
HETATM   12  O   UNL     1      38.988  12.192  51.831  1.00  0.00    -0.624 OA
HETATM   13  O   UNL     1      38.285  14.417  53.068  1.00  0.00    -0.624 OA
BRANCH  11  14
HETATM   14  O   UNL     1      37.369  12.092  53.733  1.00  0.00    -0.279 OA
BRANCH  14  15
HETATM   15  C   UNL     1      37.443  10.999  54.656  1.00  0.00     0.198 C 
HETATM   16  C   UNL     1      36.411  11.015  55.770  1.00  0.00     0.199 C 
HETATM   17  C   UNL     1      35.182  10.544  55.003  1.00  0.00     0.264 C 
HETATM   18  O   UNL     1      35.656   9.695  53.972  1.00  0.00    -0.353 OA
HETATM   19  C   UNL     1      37.077   9.792  53.833  1.00  0.00     0.180 C 
BRANCH  16  20
HETATM   20  O   UNL     1      36.180  12.322  56.337  1.00  0.00    -0.388 OA
ATOM     21  HO  UNL     1      36.441  12.399  57.248  1.00  0.00     0.210 HD
ENDBRANCH  16  20
BRANCH  17  22
HETATM   22  N   UNL     1      34.136   9.822  55.782  1.00  0.00    -0.280 N 
HETATM   23  C   UNL     1      34.274   8.613  56.435  1.00  0.00     0.104 A 
HETATM   24  C   UNL     1      33.142   8.032  57.059  1.00  0.00     0.092 A 
HETATM   25  C   UNL     1      31.913   8.721  57.052  1.00  0.00     0.250 A 
HETATM   26  N   UNL     1      31.811   9.888  56.391  1.00  0.00    -0.275 N 
HETATM   27  O   UNL     1      30.843   8.275  57.607  1.00  0.00    -0.268 OA
HETATM   28  C   UNL     1      32.871  10.435  55.771  1.00  0.00     0.331 A 
ATOM     29  HN  UNL     1      30.911  10.368  56.360  1.00  0.00     0.173 HD
HETATM   30  O   UNL     1      32.764  11.525  55.173  1.00  0.00    -0.246 OA
ENDBRANCH  17  22
BRANCH  19  31
HETATM   31  C   UNL     1      37.842   8.548  54.269  1.00  0.00     0.198 C 
BRANCH  31  32
HETATM   32  O   UNL     1      39.039   8.827  55.010  1.00  0.00    -0.398 OA
ATOM     33  HO  UNL     1      38.904   8.900  55.948  1.00  0.00     0.209 HD
ENDBRANCH  31  32
ENDBRANCH  19  31
ENDBRANCH  14  15
ENDBRANCH  11  14
ENDBRANCH  10  11
ENDBRANCH   9  10
ENDBRANCH   1   9
BRANCH   2  34
HETATM   34  N   UNL     1      42.426  17.536  54.914  1.00  0.00    -0.299 N 
HETATM   35  C   UNL     1      41.547  18.137  54.172  1.00  0.00     0.159 A 
HETATM   36  C   UNL     1      41.493  19.519  54.627  1.00  0.00     0.147 A 
HETATM   37  N   UNL     1      40.801  17.707  53.138  1.00  0.00    -0.174 N 
HETATM   38  N   UNL     1      42.339  19.619  55.658  1.00  0.00    -0.345 N 
HETATM   39  C   UNL     1      40.549  20.387  53.926  1.00  0.00     0.290 A 
HETATM   40  C   UNL     1      42.918  18.395  55.828  1.00  0.00     0.188 A 
ATOM     41  HN  UNL     1      42.519  20.455  56.214  1.00  0.00     0.167 HD
HETATM   42  N   UNL     1      39.841  19.856  52.920  1.00  0.00    -0.154 N 
HETATM   43  O   UNL     1      40.445  21.596  54.261  1.00  0.00    -0.265 OA
HETATM   44  C   UNL     1      39.951  18.581  52.549  1.00  0.00     0.680 A 
ATOM     45  HN  UNL     1      39.187  20.455  52.416  1.00  0.00     0.187 HD
ATOM     46  HN  UNL     1      40.873  16.745  52.806  1.00  0.00     0.186 HD
BRANCH  44  47
HETATM   47  N   UNL     1      39.202  18.109  51.527  1.00  0.00    -0.234 N 
ATOM     48  HN2 UNL     1      38.586  18.740  51.014  1.00  0.00     0.174 HD
ATOM     49  HN1 UNL     1      39.300  17.119  51.305  1.00  0.00     0.174 HD
ENDBRANCH  44  47
ENDBRANCH   2  34
BRANCH   7  50
HETATM   50  O   UNL     1      45.028  13.585  53.933  1.00  0.00    -0.365 OA
ATOM     51  HO  UNL     1      44.501  12.871  53.593  1.00  0.00     0.213 HD
ENDBRANCH   7  50
BRANCH   7  52
HETATM   52  O   UNL     1      45.911  13.073  56.033  1.00  0.00    -0.365 OA
ATOM     53  HO  UNL     1      46.704  13.552  55.822  1.00  0.00     0.213 HD
ENDBRANCH   7  52
TORSDOF 13
ENDMDL
MODEL 15
REMARK VINA RESULT:    -9.039      3.250      8.151
REMARK INTER + INTRA:         -17.768
REMARK INTER:                 -14.808
REMARK INTRA:                  -2.960
REMARK UNBOUND:                -3.180
REMARK  13 active torsions:
REMARK  status: ('A' for Active; 'I' for Inactive)
REMARK    1  A    between atoms: C_1  and  C_35 
REMARK    2  A    between atoms: C_2  and  N_43 
REMARK    3  A    between atoms: C_7  and  N_48 
REMARK    4  A    between atoms: P_12  and  O_34 
REMARK    5  A    between atoms: P_12  and  O_14 
REMARK    6  A    between atoms: O_14  and  C_15 
REMARK    7  A    between atoms: C_16  and  C_17 
REMARK    8  A    between atoms: C_17  and  O_18 
REMARK    9  A    between atoms: C_21  and  N_22 
REMARK   10  A    between atoms: C_31  and  O_32 
REMARK   11  A    between atoms: O_34  and  C_35 
REMARK   12  A    between atoms: C_37  and  O_38 
REMARK   13  A    between atoms: C_37  and  O_40 
ROOT
HETATM    1  C   UNL     1      41.624  14.786  55.710  1.00  0.00     0.153 C 
HETATM    2  C   UNL     1      40.999  15.486  53.612  1.00  0.00     0.235 C 
HETATM    3  C   UNL     1      40.999  16.755  54.435  1.00  0.00     0.047 C 
HETATM    4  C   UNL     1      41.451  16.276  55.816  1.00  0.00     0.030 C 
HETATM    5  C   UNL     1      42.018  17.692  53.906  1.00  0.00     0.077 C 
HETATM    6  C   UNL     1      42.718  16.944  56.168  1.00  0.00     0.076 C 
HETATM    7  C   UNL     1      43.176  17.617  54.884  1.00  0.00     0.160 C 
HETATM    8  O   UNL     1      40.910  14.431  54.544  1.00  0.00    -0.358 OA
ENDROOT
BRANCH   1   9
HETATM    9  C   UNL     1      40.955  14.122  56.889  1.00  0.00     0.213 C 
BRANCH   9  10
HETATM   10  O   UNL     1      41.723  12.987  57.200  1.00  0.00    -0.287 OA
BRANCH  10  11
HETATM   11  P   UNL     1      41.115  11.542  56.931  1.00  0.00     0.408 P 
HETATM   12  O   UNL     1      39.613  11.651  56.860  1.00  0.00    -0.624 OA
HETATM   13  O   UNL     1      41.668  10.447  58.000  1.00  0.00    -0.624 OA
BRANCH  11  14
HETATM   14  O   UNL     1      41.623  11.072  55.491  1.00  0.00    -0.279 OA
BRANCH  14  15
HETATM   15  C   UNL     1      40.834  11.195  54.303  1.00  0.00     0.198 C 
HETATM   16  C   UNL     1      41.611  11.488  53.031  1.00  0.00     0.199 C 
HETATM   17  C   UNL     1      42.186  10.108  52.745  1.00  0.00     0.264 C 
HETATM   18  O   UNL     1      41.254   9.172  53.258  1.00  0.00    -0.353 OA
HETATM   19  C   UNL     1      40.276   9.814  54.082  1.00  0.00     0.180 C 
BRANCH  16  20
HETATM   20  O   UNL     1      42.673  12.451  53.201  1.00  0.00    -0.388 OA
ATOM     21  HO  UNL     1      43.170  12.339  54.002  1.00  0.00     0.210 HD
ENDBRANCH  16  20
BRANCH  17  22
HETATM   22  N   UNL     1      42.470   9.776  51.319  1.00  0.00    -0.280 N 
HETATM   23  C   UNL     1      41.867  10.325  50.204  1.00  0.00     0.104 A 
HETATM   24  C   UNL     1      42.204   9.828  48.921  1.00  0.00     0.092 A 
HETATM   25  C   UNL     1      43.187   8.824  48.800  1.00  0.00     0.250 A 
HETATM   26  N   UNL     1      43.741   8.301  49.909  1.00  0.00    -0.275 N 
HETATM   27  O   UNL     1      43.564   8.329  47.675  1.00  0.00    -0.268 OA
HETATM   28  C   UNL     1      43.407   8.746  51.133  1.00  0.00     0.331 A 
ATOM     29  HN  UNL     1      44.428   7.552  49.819  1.00  0.00     0.173 HD
HETATM   30  O   UNL     1      43.939   8.260  52.152  1.00  0.00    -0.246 OA
ENDBRANCH  17  22
BRANCH  19  31
HETATM   31  C   UNL     1      38.873   9.851  53.488  1.00  0.00     0.198 C 
BRANCH  31  32
HETATM   32  O   UNL     1      37.832   9.548  54.428  1.00  0.00    -0.398 OA
ATOM     33  HO  UNL     1      37.642   8.621  54.509  1.00  0.00     0.209 HD
ENDBRANCH  31  32
ENDBRANCH  19  31
ENDBRANCH  14  15
ENDBRANCH  11  14
ENDBRANCH  10  11
ENDBRANCH   9  10
ENDBRANCH   1   9
BRANCH   2  34
HETATM   34  N   UNL     1      39.878  15.368  52.652  1.00  0.00    -0.299 N 
HETATM   35  C   UNL     1      38.869  14.616  52.965  1.00  0.00     0.159 A 
HETATM   36  C   UNL     1      37.922  14.709  51.863  1.00  0.00     0.147 A 
HETATM   37  N   UNL     1      38.634  13.827  54.029  1.00  0.00    -0.174 N 
HETATM   38  N   UNL     1      38.443  15.566  50.978  1.00  0.00    -0.345 N 
HETATM   39  C   UNL     1      36.690  13.937  52.010  1.00  0.00     0.290 A 
HETATM   40  C   UNL     1      39.653  15.965  51.465  1.00  0.00     0.188 A 
ATOM     41  HN  UNL     1      38.016  15.866  50.102  1.00  0.00     0.167 HD
HETATM   42  N   UNL     1      36.546  13.196  53.117  1.00  0.00    -0.154 N 
HETATM   43  O   UNL     1      35.821  13.966  51.099  1.00  0.00    -0.265 OA
HETATM   44  C   UNL     1      37.463  13.148  54.082  1.00  0.00     0.680 A 
ATOM     45  HN  UNL     1      35.696  12.643  53.226  1.00  0.00     0.187 HD
ATOM     46  HN  UNL     1      39.321  13.742  54.779  1.00  0.00     0.186 HD
BRANCH  44  47
HETATM   47  N   UNL     1      37.252  12.381  55.176  1.00  0.00    -0.234 N 
ATOM     48  HN2 UNL     1      38.045  11.980  55.677  1.00  0.00     0.174 HD
ATOM     49  HN1 UNL     1      36.282  12.246  55.462  1.00  0.00     0.174 HD
ENDBRANCH  44  47
ENDBRANCH   2  34
BRANCH   7  50
HETATM   50  O   UNL     1      44.181  16.836  54.289  1.00  0.00    -0.365 OA
ATOM     51  HO  UNL     1      45.011  17.268  54.449  1.00  0.00     0.213 HD
ENDBRANCH   7  50
BRANCH   7  52
HETATM   52  O   UNL     1      43.661  18.945  55.144  1.00  0.00    -0.365 OA
ATOM     53  HO  UNL     1      43.581  19.130  56.072  1.00  0.00     0.213 HD
ENDBRANCH   7  52
TORSDOF 13
ENDMDL
MODEL 16
REMARK VINA RESULT:    -9.005      3.360      8.189
REMARK INTER + INTRA:         -17.712
REMARK INTER:                 -14.886
REMARK INTRA:                  -2.826
REMARK UNBOUND:                -3.180
REMARK  13 active torsions:
REMARK  status: ('A' for Active; 'I' for Inactive)
REMARK    1  A    between atoms: C_1  and  C_35 
REMARK    2  A    between atoms: C_2  and  N_43 
REMARK    3  A    between atoms: C_7  and  N_48 
REMARK    4  A    between atoms: P_12  and  O_34 
REMARK    5  A    between atoms: P_12  and  O_14 
REMARK    6  A    between atoms: O_14  and  C_15 
REMARK    7  A    between atoms: C_16  and  C_17 
REMARK    8  A    between atoms: C_17  and  O_18 
REMARK    9  A    between atoms: C_21  and  N_22 
REMARK   10  A    between atoms: C_31  and  O_32 
REMARK   11  A    between atoms: O_34  and  C_35 
REMARK   12  A    between atoms: C_37  and  O_38 
REMARK   13  A    between atoms: C_37  and  O_40 
ROOT
HETATM    1  C   UNL     1      40.912  16.945  53.636  1.00  0.00     0.153 C 
HETATM    2  C   UNL     1      41.710  15.403  55.142  1.00  0.00     0.235 C 
HETATM    3  C   UNL     1      42.943  16.166  54.712  1.00  0.00     0.047 C 
HETATM    4  C   UNL     1      42.389  17.209  53.740  1.00  0.00     0.030 C 
HETATM    5  C   UNL     1      43.523  16.873  55.879  1.00  0.00     0.077 C 
HETATM    6  C   UNL     1      42.662  18.558  54.272  1.00  0.00     0.076 C 
HETATM    7  C   UNL     1      43.135  18.329  55.698  1.00  0.00     0.160 C 
HETATM    8  O   UNL     1      40.754  15.631  54.131  1.00  0.00    -0.358 OA
ENDROOT
BRANCH   1   9
HETATM    9  C   UNL     1      40.508  16.951  52.182  1.00  0.00     0.213 C 
BRANCH   9  10
HETATM   10  O   UNL     1      39.881  15.717  51.935  1.00  0.00    -0.287 OA
BRANCH  10  11
HETATM   11  P   UNL     1      38.316  15.684  51.660  1.00  0.00     0.408 P 
HETATM   12  O   UNL     1      38.075  15.137  50.276  1.00  0.00    -0.624 OA
HETATM   13  O   UNL     1      37.622  17.127  51.952  1.00  0.00    -0.624 OA
BRANCH  11  14
HETATM   14  O   UNL     1      37.673  14.650  52.695  1.00  0.00    -0.279 OA
BRANCH  14  15
HETATM   15  C   UNL     1      36.864  13.540  52.292  1.00  0.00     0.198 C 
HETATM   16  C   UNL     1      37.616  12.247  52.026  1.00  0.00     0.199 C 
HETATM   17  C   UNL     1      37.880  11.792  53.455  1.00  0.00     0.264 C 
HETATM   18  O   UNL     1      36.804  12.282  54.236  1.00  0.00    -0.353 OA
HETATM   19  C   UNL     1      36.024  13.232  53.504  1.00  0.00     0.180 C 
BRANCH  16  20
HETATM   20  O   UNL     1      38.860  12.428  51.317  1.00  0.00    -0.388 OA
ATOM     21  HO  UNL     1      39.191  13.318  51.339  1.00  0.00     0.210 HD
ENDBRANCH  16  20
BRANCH  17  22
HETATM   22  N   UNL     1      38.014  10.325  53.683  1.00  0.00    -0.280 N 
HETATM   23  C   UNL     1      36.992   9.423  53.905  1.00  0.00     0.104 A 
HETATM   24  C   UNL     1      37.311   8.072  54.186  1.00  0.00     0.092 A 
HETATM   25  C   UNL     1      38.660   7.660  54.178  1.00  0.00     0.250 A 
HETATM   26  N   UNL     1      39.630   8.568  53.975  1.00  0.00    -0.275 N 
HETATM   27  O   UNL     1      39.036   6.452  54.407  1.00  0.00    -0.268 OA
HETATM   28  C   UNL     1      39.339   9.860  53.736  1.00  0.00     0.331 A 
ATOM     29  HN  UNL     1      40.606   8.273  54.003  1.00  0.00     0.173 HD
HETATM   30  O   UNL     1      40.250  10.689  53.536  1.00  0.00    -0.246 OA
ENDBRANCH  17  22
BRANCH  19  31
HETATM   31  C   UNL     1      34.628  12.749  53.126  1.00  0.00     0.198 C 
BRANCH  31  32
HETATM   32  O   UNL     1      34.031  13.476  52.043  1.00  0.00    -0.398 OA
ATOM     33  HO  UNL     1      34.543  14.221  51.749  1.00  0.00     0.209 HD
ENDBRANCH  31  32
ENDBRANCH  19  31
ENDBRANCH  14  15
ENDBRANCH  11  14
ENDBRANCH  10  11
ENDBRANCH   9  10
ENDBRANCH   1   9
BRANCH   2  34
HETATM   34  N   UNL     1      41.903  13.943  55.292  1.00  0.00    -0.299 N 
HETATM   35  C   UNL     1      41.419  13.358  56.344  1.00  0.00     0.159 A 
HETATM   36  C   UNL     1      41.732  11.942  56.214  1.00  0.00     0.147 A 
HETATM   37  N   UNL     1      40.777  13.841  57.423  1.00  0.00    -0.174 N 
HETATM   38  N   UNL     1      42.360  11.792  55.043  1.00  0.00    -0.345 N 
HETATM   39  C   UNL     1      41.265  11.081  57.299  1.00  0.00     0.290 A 
HETATM   40  C   UNL     1      42.470  13.029  54.480  1.00  0.00     0.188 A 
ATOM     41  HN  UNL     1      42.695  10.915  54.644  1.00  0.00     0.167 HD
HETATM   42  N   UNL     1      40.621  11.659  58.322  1.00  0.00    -0.154 N 
HETATM   43  O   UNL     1      41.498   9.844  57.260  1.00  0.00    -0.265 OA
HETATM   44  C   UNL     1      40.379  12.968  58.380  1.00  0.00     0.680 A 
ATOM     45  HN  UNL     1      40.300  11.071  59.090  1.00  0.00     0.187 HD
ATOM     46  HN  UNL     1      40.594  14.840  57.519  1.00  0.00     0.186 HD
BRANCH  44  47
HETATM   47  N   UNL     1      39.719  13.485  59.441  1.00  0.00    -0.234 N 
ATOM     48  HN2 UNL     1      40.240  13.924  60.200  1.00  0.00     0.174 HD
ATOM     49  HN1 UNL     1      38.701  13.419  59.425  1.00  0.00     0.174 HD
ENDBRANCH  44  47
ENDBRANCH   2  34
BRANCH   7  50
HETATM   50  O   UNL     1      42.076  18.597  56.581  1.00  0.00    -0.365 OA
ATOM     51  HO  UNL     1      41.762  19.473  56.394  1.00  0.00     0.213 HD
ENDBRANCH   7  50
BRANCH   7  52
HETATM   52  O   UNL     1      44.267  19.161  56.004  1.00  0.00    -0.365 OA
ATOM     53  HO  UNL     1      44.903  19.093  55.302  1.00  0.00     0.213 HD
ENDBRANCH   7  52
TORSDOF 13
ENDMDL
MODEL 17
REMARK VINA RESULT:    -8.868      3.182      5.699
REMARK INTER + INTRA:         -17.491
REMARK INTER:                 -15.377
REMARK INTRA:                  -2.114
REMARK UNBOUND:                -3.180
REMARK  13 active torsions:
REMARK  status: ('A' for Active; 'I' for Inactive)
REMARK    1  A    between atoms: C_1  and  C_35 
REMARK    2  A    between atoms: C_2  and  N_43 
REMARK    3  A    between atoms: C_7  and  N_48 
REMARK    4  A    between atoms: P_12  and  O_34 
REMARK    5  A    between atoms: P_12  and  O_14 
REMARK    6  A    between atoms: O_14  and  C_15 
REMARK    7  A    between atoms: C_16  and  C_17 
REMARK    8  A    between atoms: C_17  and  O_18 
REMARK    9  A    between atoms: C_21  and  N_22 
REMARK   10  A    between atoms: C_31  and  O_32 
REMARK   11  A    between atoms: O_34  and  C_35 
REMARK   12  A    between atoms: C_37  and  O_38 
REMARK   13  A    between atoms: C_37  and  O_40 
ROOT
HETATM    1  C   UNL     1      39.914  10.899  53.321  1.00  0.00     0.153 C 
HETATM    2  C   UNL     1      37.667  11.368  53.451  1.00  0.00     0.235 C 
HETATM    3  C   UNL     1      38.311  12.720  53.238  1.00  0.00     0.047 C 
HETATM    4  C   UNL     1      39.799  12.385  53.119  1.00  0.00     0.030 C 
HETATM    5  C   UNL     1      37.853  13.292  51.950  1.00  0.00     0.077 C 
HETATM    6  C   UNL     1      40.279  12.787  51.782  1.00  0.00     0.076 C 
HETATM    7  C   UNL     1      39.019  13.111  50.995  1.00  0.00     0.160 C 
HETATM    8  O   UNL     1      38.695  10.533  53.936  1.00  0.00    -0.358 OA
ENDROOT
BRANCH   1   9
HETATM    9  C   UNL     1      41.032  10.615  54.294  1.00  0.00     0.213 C 
BRANCH   9  10
HETATM   10  O   UNL     1      41.564  11.861  54.669  1.00  0.00    -0.287 OA
BRANCH  10  11
HETATM   11  P   UNL     1      41.417  12.345  56.176  1.00  0.00     0.408 P 
HETATM   12  O   UNL     1      42.361  11.547  57.039  1.00  0.00    -0.624 OA
HETATM   13  O   UNL     1      39.865  12.323  56.667  1.00  0.00    -0.624 OA
BRANCH  11  14
HETATM   14  O   UNL     1      41.894  13.868  56.236  1.00  0.00    -0.279 OA
BRANCH  14  15
HETATM   15  C   UNL     1      42.542  14.529  55.144  1.00  0.00     0.198 C 
HETATM   16  C   UNL     1      41.724  15.608  54.456  1.00  0.00     0.199 C 
HETATM   17  C   UNL     1      41.854  16.733  55.475  1.00  0.00     0.264 C 
HETATM   18  O   UNL     1      43.112  16.558  56.104  1.00  0.00    -0.353 OA
HETATM   19  C   UNL     1      43.677  15.283  55.786  1.00  0.00     0.180 C 
BRANCH  16  20
HETATM   20  O   UNL     1      40.336  15.260  54.266  1.00  0.00    -0.388 OA
ATOM     21  HO  UNL     1      40.052  14.512  54.779  1.00  0.00     0.210 HD
ENDBRANCH  16  20
BRANCH  17  22
HETATM   22  N   UNL     1      41.763  18.128  54.956  1.00  0.00    -0.280 N 
HETATM   23  C   UNL     1      42.707  18.796  54.202  1.00  0.00     0.104 A 
HETATM   24  C   UNL     1      42.488  20.154  53.865  1.00  0.00     0.092 A 
HETATM   25  C   UNL     1      41.287  20.782  54.254  1.00  0.00     0.250 A 
HETATM   26  N   UNL     1      40.397  20.106  55.002  1.00  0.00    -0.275 N 
HETATM   27  O   UNL     1      41.000  22.004  53.976  1.00  0.00    -0.268 OA
HETATM   28  C   UNL     1      40.609  18.825  55.352  1.00  0.00     0.331 A 
ATOM     29  HN  UNL     1      39.544  20.573  55.309  1.00  0.00     0.173 HD
HETATM   30  O   UNL     1      39.767  18.206  56.035  1.00  0.00    -0.246 OA
ENDBRANCH  17  22
BRANCH  19  31
HETATM   31  C   UNL     1      44.907  15.342  54.887  1.00  0.00     0.198 C 
BRANCH  31  32
HETATM   32  O   UNL     1      46.002  14.533  55.339  1.00  0.00    -0.398 OA
ATOM     33  HO  UNL     1      46.799  15.021  55.507  1.00  0.00     0.209 HD
ENDBRANCH  31  32
ENDBRANCH  19  31
ENDBRANCH  14  15
ENDBRANCH  11  14
ENDBRANCH  10  11
ENDBRANCH   9  10
ENDBRANCH   1   9
BRANCH   2  34
HETATM   34  N   UNL     1      36.550  11.358  54.421  1.00  0.00    -0.299 N 
HETATM   35  C   UNL     1      35.798  10.303  54.492  1.00  0.00     0.159 A 
HETATM   36  C   UNL     1      34.813  10.562  55.533  1.00  0.00     0.147 A 
HETATM   37  N   UNL     1      35.791   9.158  53.785  1.00  0.00    -0.174 N 
HETATM   38  N   UNL     1      35.094  11.769  56.037  1.00  0.00    -0.345 N 
HETATM   39  C   UNL     1      33.857   9.487  55.791  1.00  0.00     0.290 A 
HETATM   40  C   UNL     1      36.161  12.260  55.345  1.00  0.00     0.188 A 
ATOM     41  HN  UNL     1      34.600  12.235  56.799  1.00  0.00     0.167 HD
HETATM   42  N   UNL     1      33.945   8.379  55.042  1.00  0.00    -0.154 N 
HETATM   43  O   UNL     1      32.974   9.635  56.676  1.00  0.00    -0.265 OA
HETATM   44  C   UNL     1      34.868   8.216  54.095  1.00  0.00     0.680 A 
ATOM     45  HN  UNL     1      33.276   7.627  55.205  1.00  0.00     0.187 HD
ATOM     46  HN  UNL     1      36.464   9.003  53.035  1.00  0.00     0.186 HD
BRANCH  44  47
HETATM   47  N   UNL     1      34.903   7.070  53.379  1.00  0.00    -0.234 N 
ATOM     48  HN2 UNL     1      34.123   6.414  53.430  1.00  0.00     0.174 HD
ATOM     49  HN1 UNL     1      35.727   6.916  52.797  1.00  0.00     0.174 HD
ENDBRANCH  44  47
ENDBRANCH   2  34
BRANCH   7  50
HETATM   50  O   UNL     1      38.713  12.029  50.153  1.00  0.00    -0.365 OA
ATOM     51  HO  UNL     1      39.037  12.241  49.286  1.00  0.00     0.213 HD
ENDBRANCH   7  50
BRANCH   7  52
HETATM   52  O   UNL     1      39.190  14.313  50.225  1.00  0.00    -0.365 OA
ATOM     53  HO  UNL     1      39.694  14.939  50.731  1.00  0.00     0.213 HD
ENDBRANCH   7  52
TORSDOF 13
ENDMDL
MODEL 18
REMARK VINA RESULT:    -8.862      4.099      7.424
REMARK INTER + INTRA:         -17.481
REMARK INTER:                 -14.202
REMARK INTRA:                  -3.280
REMARK UNBOUND:                -3.180
REMARK  13 active torsions:
REMARK  status: ('A' for Active; 'I' for Inactive)
REMARK    1  A    between atoms: C_1  and  C_35 
REMARK    2  A    between atoms: C_2  and  N_43 
REMARK    3  A    between atoms: C_7  and  N_48 
REMARK    4  A    between atoms: P_12  and  O_34 
REMARK    5  A    between atoms: P_12  and  O_14 
REMARK    6  A    between atoms: O_14  and  C_15 
REMARK    7  A    between atoms: C_16  and  C_17 
REMARK    8  A    between atoms: C_17  and  O_18 
REMARK    9  A    between atoms: C_21  and  N_22 
REMARK   10  A    between atoms: C_31  and  O_32 
REMARK   11  A    between atoms: O_34  and  C_35 
REMARK   12  A    between atoms: C_37  and  O_38 
REMARK   13  A    between atoms: C_37  and  O_40 
ROOT
HETATM    1  C   UNL     1      40.461  12.270  53.426  1.00  0.00     0.153 C 
HETATM    2  C   UNL     1      42.065  13.168  54.805  1.00  0.00     0.235 C 
HETATM    3  C   UNL     1      40.806  13.197  55.643  1.00  0.00     0.047 C 
HETATM    4  C   UNL     1      39.759  12.564  54.724  1.00  0.00     0.030 C 
HETATM    5  C   UNL     1      40.977  12.326  56.830  1.00  0.00     0.077 C 
HETATM    6  C   UNL     1      39.246  11.331  55.353  1.00  0.00     0.076 C 
HETATM    7  C   UNL     1      40.181  11.070  56.523  1.00  0.00     0.160 C 
HETATM    8  O   UNL     1      41.627  13.066  53.469  1.00  0.00    -0.358 OA
ENDROOT
BRANCH   1   9
HETATM    9  C   UNL     1      39.607  12.751  52.279  1.00  0.00     0.213 C 
BRANCH   9  10
HETATM   10  O   UNL     1      39.166  14.042  52.621  1.00  0.00    -0.287 OA
BRANCH  10  11
HETATM   11  P   UNL     1      37.694  14.490  52.222  1.00  0.00     0.408 P 
HETATM   12  O   UNL     1      37.242  13.676  51.036  1.00  0.00    -0.624 OA
HETATM   13  O   UNL     1      37.589  16.102  52.021  1.00  0.00    -0.624 OA
BRANCH  11  14
HETATM   14  O   UNL     1      36.736  14.118  53.444  1.00  0.00    -0.279 OA
BRANCH  14  15
HETATM   15  C   UNL     1      35.368  13.729  53.276  1.00  0.00     0.198 C 
HETATM   16  C   UNL     1      35.097  12.237  53.369  1.00  0.00     0.199 C 
HETATM   17  C   UNL     1      35.174  12.045  54.878  1.00  0.00     0.264 C 
HETATM   18  O   UNL     1      34.748  13.265  55.458  1.00  0.00    -0.353 OA
HETATM   19  C   UNL     1      34.667  14.305  54.479  1.00  0.00     0.180 C 
BRANCH  16  20
HETATM   20  O   UNL     1      36.085  11.419  52.706  1.00  0.00    -0.388 OA
ATOM     21  HO  UNL     1      36.629  11.896  52.090  1.00  0.00     0.210 HD
ENDBRANCH  16  20
BRANCH  17  22
HETATM   22  N   UNL     1      34.375  10.928  55.458  1.00  0.00    -0.280 N 
HETATM   23  C   UNL     1      33.053  10.972  55.853  1.00  0.00     0.104 A 
HETATM   24  C   UNL     1      32.476   9.831  56.464  1.00  0.00     0.092 A 
HETATM   25  C   UNL     1      33.242   8.656  56.606  1.00  0.00     0.250 A 
HETATM   26  N   UNL     1      34.532   8.655  56.226  1.00  0.00    -0.275 N 
HETATM   27  O   UNL     1      32.792   7.573  57.134  1.00  0.00    -0.268 OA
HETATM   28  C   UNL     1      35.098   9.741  55.672  1.00  0.00     0.331 A 
ATOM     29  HN  UNL     1      35.092   7.813  56.361  1.00  0.00     0.173 HD
HETATM   30  O   UNL     1      36.292   9.721  55.312  1.00  0.00    -0.246 OA
ENDBRANCH  17  22
BRANCH  19  31
HETATM   31  C   UNL     1      33.249  14.759  54.152  1.00  0.00     0.198 C 
BRANCH  31  32
HETATM   32  O   UNL     1      32.274  14.386  55.137  1.00  0.00    -0.398 OA
ATOM     33  HO  UNL     1      32.649  14.059  55.947  1.00  0.00     0.209 HD
ENDBRANCH  31  32
ENDBRANCH  19  31
ENDBRANCH  14  15
ENDBRANCH  11  14
ENDBRANCH  10  11
ENDBRANCH   9  10
ENDBRANCH   1   9
BRANCH   2  34
HETATM   34  N   UNL     1      42.924  14.366  54.934  1.00  0.00    -0.299 N 
HETATM   35  C   UNL     1      42.454  15.512  54.547  1.00  0.00     0.159 A 
HETATM   36  C   UNL     1      43.491  16.499  54.812  1.00  0.00     0.147 A 
HETATM   37  N   UNL     1      41.289  15.854  53.967  1.00  0.00    -0.174 N 
HETATM   38  N   UNL     1      44.506  15.847  55.389  1.00  0.00    -0.345 N 
HETATM   39  C   UNL     1      43.167  17.879  54.456  1.00  0.00     0.290 A 
HETATM   40  C   UNL     1      44.156  14.530  55.457  1.00  0.00     0.188 A 
ATOM     41  HN  UNL     1      45.380  16.257  55.717  1.00  0.00     0.167 HD
HETATM   42  N   UNL     1      41.972  18.116  53.899  1.00  0.00    -0.154 N 
HETATM   43  O   UNL     1      44.012  18.791  54.655  1.00  0.00    -0.265 OA
HETATM   44  C   UNL     1      41.074  17.158  53.673  1.00  0.00     0.680 A 
ATOM     45  HN  UNL     1      41.739  19.073  53.635  1.00  0.00     0.187 HD
ATOM     46  HN  UNL     1      40.584  15.147  53.754  1.00  0.00     0.186 HD
BRANCH  44  47
HETATM   47  N   UNL     1      39.884  17.468  53.110  1.00  0.00    -0.234 N 
ATOM     48  HN2 UNL     1      39.854  18.044  52.269  1.00  0.00     0.174 HD
ATOM     49  HN1 UNL     1      39.050  17.092  53.562  1.00  0.00     0.174 HD
ENDBRANCH  44  47
ENDBRANCH   2  34
BRANCH   7  50
HETATM   50  O   UNL     1      41.096  10.067  56.165  1.00  0.00    -0.365 OA
ATOM     51  HO  UNL     1      41.933  10.289  56.556  1.00  0.00     0.213 HD
ENDBRANCH   7  50
BRANCH   7  52
HETATM   52  O   UNL     1      39.443  10.681  57.694  1.00  0.00    -0.365 OA
ATOM     53  HO  UNL     1      39.400   9.733  57.735  1.00  0.00     0.213 HD
ENDBRANCH   7  52
TORSDOF 13
ENDMDL
MODEL 19
REMARK VINA RESULT:    -8.788      3.595      6.439
REMARK INTER + INTRA:         -17.363
REMARK INTER:                 -14.064
REMARK INTRA:                  -3.298
REMARK UNBOUND:                -3.180
REMARK  13 active torsions:
REMARK  status: ('A' for Active; 'I' for Inactive)
REMARK    1  A    between atoms: C_1  and  C_35 
REMARK    2  A    between atoms: C_2  and  N_43 
REMARK    3  A    between atoms: C_7  and  N_48 
REMARK    4  A    between atoms: P_12  and  O_34 
REMARK    5  A    between atoms: P_12  and  O_14 
REMARK    6  A    between atoms: O_14  and  C_15 
REMARK    7  A    between atoms: C_16  and  C_17 
REMARK    8  A    between atoms: C_17  and  O_18 
REMARK    9  A    between atoms: C_21  and  N_22 
REMARK   10  A    between atoms: C_31  and  O_32 
REMARK   11  A    between atoms: O_34  and  C_35 
REMARK   12  A    between atoms: C_37  and  O_38 
REMARK   13  A    between atoms: C_37  and  O_40 
ROOT
HETATM    1  C   UNL     1      41.457  11.377  53.804  1.00  0.00     0.153 C 
HETATM    2  C   UNL     1      42.503  12.882  55.191  1.00  0.00     0.235 C 
HETATM    3  C   UNL     1      41.074  12.862  55.686  1.00  0.00     0.047 C 
HETATM    4  C   UNL     1      40.403  11.831  54.777  1.00  0.00     0.030 C 
HETATM    5  C   UNL     1      41.036  12.356  57.078  1.00  0.00     0.077 C 
HETATM    6  C   UNL     1      39.908  10.711  55.600  1.00  0.00     0.076 C 
HETATM    7  C   UNL     1      40.523  10.931  56.972  1.00  0.00     0.160 C 
HETATM    8  O   UNL     1      42.455  12.375  53.876  1.00  0.00    -0.358 OA
ENDROOT
BRANCH   1   9
HETATM    9  C   UNL     1      40.883  11.388  52.409  1.00  0.00     0.213 C 
BRANCH   9  10
HETATM   10  O   UNL     1      40.219  12.617  52.257  1.00  0.00    -0.287 OA
BRANCH  10  11
HETATM   11  P   UNL     1      39.338  12.867  50.957  1.00  0.00     0.408 P 
HETATM   12  O   UNL     1      39.856  11.995  49.842  1.00  0.00    -0.624 OA
HETATM   13  O   UNL     1      39.238  14.450  50.593  1.00  0.00    -0.624 OA
BRANCH  11  14
HETATM   14  O   UNL     1      37.853  12.379  51.288  1.00  0.00    -0.279 OA
BRANCH  14  15
HETATM   15  C   UNL     1      37.427  12.000  52.601  1.00  0.00     0.198 C 
HETATM   16  C   UNL     1      37.186  13.148  53.566  1.00  0.00     0.199 C 
HETATM   17  C   UNL     1      35.840  13.647  53.057  1.00  0.00     0.264 C 
HETATM   18  O   UNL     1      35.172  12.517  52.523  1.00  0.00    -0.353 OA
HETATM   19  C   UNL     1      36.060  11.404  52.392  1.00  0.00     0.180 C 
BRANCH  16  20
HETATM   20  O   UNL     1      38.174  14.198  53.487  1.00  0.00    -0.388 OA
ATOM     21  HO  UNL     1      38.688  14.184  52.688  1.00  0.00     0.210 HD
ENDBRANCH  16  20
BRANCH  17  22
HETATM   22  N   UNL     1      34.948  14.313  54.049  1.00  0.00    -0.280 N 
HETATM   23  C   UNL     1      34.583  13.832  55.290  1.00  0.00     0.104 A 
HETATM   24  C   UNL     1      33.654  14.566  56.070  1.00  0.00     0.092 A 
HETATM   25  C   UNL     1      33.165  15.798  55.591  1.00  0.00     0.250 A 
HETATM   26  N   UNL     1      33.529  16.228  54.370  1.00  0.00    -0.275 N 
HETATM   27  O   UNL     1      32.334  16.535  56.240  1.00  0.00    -0.268 OA
HETATM   28  C   UNL     1      34.387  15.525  53.609  1.00  0.00     0.331 A 
ATOM     29  HN  UNL     1      33.148  17.104  54.013  1.00  0.00     0.173 HD
HETATM   30  O   UNL     1      34.727  15.942  52.484  1.00  0.00    -0.246 OA
ENDBRANCH  17  22
BRANCH  19  31
HETATM   31  C   UNL     1      35.783  10.255  53.354  1.00  0.00     0.198 C 
BRANCH  31  32
HETATM   32  O   UNL     1      36.965   9.642  53.889  1.00  0.00    -0.398 OA
ATOM     33  HO  UNL     1      36.815   8.789  54.279  1.00  0.00     0.209 HD
ENDBRANCH  31  32
ENDBRANCH  19  31
ENDBRANCH  14  15
ENDBRANCH  11  14
ENDBRANCH  10  11
ENDBRANCH   9  10
ENDBRANCH   1   9
BRANCH   2  34
HETATM   34  N   UNL     1      43.131  14.222  55.161  1.00  0.00    -0.299 N 
HETATM   35  C   UNL     1      42.506  15.189  54.562  1.00  0.00     0.159 A 
HETATM   36  C   UNL     1      43.333  16.377  54.711  1.00  0.00     0.147 A 
HETATM   37  N   UNL     1      41.350  15.217  53.873  1.00  0.00    -0.174 N 
HETATM   38  N   UNL     1      44.394  16.018  55.442  1.00  0.00    -0.345 N 
HETATM   39  C   UNL     1      42.808  17.602  54.111  1.00  0.00     0.290 A 
HETATM   40  C   UNL     1      44.270  14.687  55.712  1.00  0.00     0.188 A 
ATOM     41  HN  UNL     1      45.156  16.627  55.742  1.00  0.00     0.167 HD
HETATM   42  N   UNL     1      41.640  17.527  53.460  1.00  0.00    -0.154 N 
HETATM   43  O   UNL     1      43.466  18.672  54.198  1.00  0.00    -0.265 OA
HETATM   44  C   UNL     1      40.940  16.399  53.352  1.00  0.00     0.680 A 
ATOM     45  HN  UNL     1      41.269  18.373  53.028  1.00  0.00     0.187 HD
ATOM     46  HN  UNL     1      40.797  14.370  53.745  1.00  0.00     0.186 HD
BRANCH  44  47
HETATM   47  N   UNL     1      39.765  16.395  52.684  1.00  0.00    -0.234 N 
ATOM     48  HN2 UNL     1      39.675  15.868  51.815  1.00  0.00     0.174 HD
ATOM     49  HN1 UNL     1      38.999  16.927  53.098  1.00  0.00     0.174 HD
ENDBRANCH  44  47
ENDBRANCH   2  34
BRANCH   7  50
HETATM   50  O   UNL     1      41.625  10.073  57.125  1.00  0.00    -0.365 OA
ATOM     51  HO  UNL     1      41.694   9.553  56.334  1.00  0.00     0.213 HD
ENDBRANCH   7  50
BRANCH   7  52
HETATM   52  O   UNL     1      39.557  10.699  58.012  1.00  0.00    -0.365 OA
ATOM     53  HO  UNL     1      39.012  11.470  58.109  1.00  0.00     0.213 HD
ENDBRANCH   7  52
TORSDOF 13
ENDMDL
MODEL 20
REMARK VINA RESULT:    -8.718      3.683      7.616
REMARK INTER + INTRA:         -17.250
REMARK INTER:                 -13.973
REMARK INTRA:                  -3.277
REMARK UNBOUND:                -3.180
REMARK  13 active torsions:
REMARK  status: ('A' for Active; 'I' for Inactive)
REMARK    1  A    between atoms: C_1  and  C_35 
REMARK    2  A    between atoms: C_2  and  N_43 
REMARK    3  A    between atoms: C_7  and  N_48 
REMARK    4  A    between atoms: P_12  and  O_34 
REMARK    5  A    between atoms: P_12  and  O_14 
REMARK    6  A    between atoms: O_14  and  C_15 
REMARK    7  A    between atoms: C_16  and  C_17 
REMARK    8  A    between atoms: C_17  and  O_18 
REMARK    9  A    between atoms: C_21  and  N_22 
REMARK   10  A    between atoms: C_31  and  O_32 
REMARK   11  A    between atoms: O_34  and  C_35 
REMARK   12  A    between atoms: C_37  and  O_38 
REMARK   13  A    between atoms: C_37  and  O_40 
ROOT
HETATM    1  C   UNL     1      40.609  16.796  53.604  1.00  0.00     0.153 C 
HETATM    2  C   UNL     1      41.436  15.174  55.006  1.00  0.00     0.235 C 
HETATM    3  C   UNL     1      42.672  15.880  54.495  1.00  0.00     0.047 C 
HETATM    4  C   UNL     1      42.102  16.976  53.593  1.00  0.00     0.030 C 
HETATM    5  C   UNL     1      43.382  16.523  55.626  1.00  0.00     0.077 C 
HETATM    6  C   UNL     1      42.492  18.295  54.130  1.00  0.00     0.076 C 
HETATM    7  C   UNL     1      43.063  18.002  55.509  1.00  0.00     0.160 C 
HETATM    8  O   UNL     1      40.417  15.480  54.081  1.00  0.00    -0.358 OA
ENDROOT
BRANCH   1   9
HETATM    9  C   UNL     1      40.091  16.861  52.187  1.00  0.00     0.213 C 
BRANCH   9  10
HETATM   10  O   UNL     1      39.433  15.643  51.944  1.00  0.00    -0.287 OA
BRANCH  10  11
HETATM   11  P   UNL     1      37.887  15.657  51.574  1.00  0.00     0.408 P 
HETATM   12  O   UNL     1      37.694  14.949  50.258  1.00  0.00    -0.624 OA
HETATM   13  O   UNL     1      37.266  17.161  51.635  1.00  0.00    -0.624 OA
BRANCH  11  14
HETATM   14  O   UNL     1      37.124  14.803  52.688  1.00  0.00    -0.279 OA
BRANCH  14  15
HETATM   15  C   UNL     1      35.849  14.190  52.467  1.00  0.00     0.198 C 
HETATM   16  C   UNL     1      35.794  12.692  52.713  1.00  0.00     0.199 C 
HETATM   17  C   UNL     1      35.763  12.672  54.235  1.00  0.00     0.264 C 
HETATM   18  O   UNL     1      35.111  13.864  54.637  1.00  0.00    -0.353 OA
HETATM   19  C   UNL     1      34.966  14.770  53.540  1.00  0.00     0.180 C 
BRANCH  16  20
HETATM   20  O   UNL     1      36.947  11.974  52.223  1.00  0.00    -0.388 OA
ATOM     21  HO  UNL     1      37.688  11.982  52.818  1.00  0.00     0.210 HD
ENDBRANCH  16  20
BRANCH  17  22
HETATM   22  N   UNL     1      35.089  11.509  54.881  1.00  0.00    -0.280 N 
HETATM   23  C   UNL     1      33.736  11.358  55.111  1.00  0.00     0.104 A 
HETATM   24  C   UNL     1      33.277  10.218  55.817  1.00  0.00     0.092 A 
HETATM   25  C   UNL     1      34.201   9.233  56.221  1.00  0.00     0.250 A 
HETATM   26  N   UNL     1      35.513   9.421  55.996  1.00  0.00    -0.275 N 
HETATM   27  O   UNL     1      33.870   8.162  56.850  1.00  0.00    -0.268 OA
HETATM   28  C   UNL     1      35.962  10.514  55.352  1.00  0.00     0.331 A 
ATOM     29  HN  UNL     1      36.182   8.722  56.319  1.00  0.00     0.173 HD
HETATM   30  O   UNL     1      37.182  10.669  55.139  1.00  0.00    -0.246 OA
ENDBRANCH  17  22
BRANCH  19  31
HETATM   31  C   UNL     1      33.531  14.960  53.060  1.00  0.00     0.198 C 
BRANCH  31  32
HETATM   32  O   UNL     1      32.539  14.491  53.985  1.00  0.00    -0.398 OA
ATOM     33  HO  UNL     1      32.604  14.877  54.850  1.00  0.00     0.209 HD
ENDBRANCH  31  32
ENDBRANCH  19  31
ENDBRANCH  14  15
ENDBRANCH  11  14
ENDBRANCH  10  11
ENDBRANCH   9  10
ENDBRANCH   1   9
BRANCH   2  34
HETATM   34  N   UNL     1      41.558  13.703  55.108  1.00  0.00    -0.299 N 
HETATM   35  C   UNL     1      41.171  12.975  54.106  1.00  0.00     0.159 A 
HETATM   36  C   UNL     1      41.429  11.590  54.471  1.00  0.00     0.147 A 
HETATM   37  N   UNL     1      40.596  13.299  52.933  1.00  0.00    -0.174 N 
HETATM   38  N   UNL     1      42.003  11.611  55.679  1.00  0.00    -0.345 N 
HETATM   39  C   UNL     1      41.072  10.587  53.470  1.00  0.00     0.290 A 
HETATM   40  C   UNL     1      42.074  12.915  56.072  1.00  0.00     0.188 A 
ATOM     41  HN  UNL     1      42.326  10.801  56.209  1.00  0.00     0.167 HD
HETATM   42  N   UNL     1      40.520  11.015  52.327  1.00  0.00    -0.154 N 
HETATM   43  O   UNL     1      41.265   9.366  53.712  1.00  0.00    -0.265 OA
HETATM   44  C   UNL     1      40.300  12.302  52.064  1.00  0.00     0.680 A 
ATOM     45  HN  UNL     1      40.255  10.323  51.625  1.00  0.00     0.187 HD
ATOM     46  HN  UNL     1      40.387  14.271  52.703  1.00  0.00     0.186 HD
BRANCH  44  47
HETATM   47  N   UNL     1      39.742  12.665  50.887  1.00  0.00    -0.234 N 
ATOM     48  HN2 UNL     1      40.337  12.947  50.108  1.00  0.00     0.174 HD
ATOM     49  HN1 UNL     1      38.725  12.628  50.830  1.00  0.00     0.174 HD
ENDBRANCH  44  47
ENDBRANCH   2  34
BRANCH   7  50
HETATM   50  O   UNL     1      42.094  18.304  56.480  1.00  0.00    -0.365 OA
ATOM     51  HO  UNL     1      42.401  19.062  56.964  1.00  0.00     0.213 HD
ENDBRANCH   7  50
BRANCH   7  52
HETATM   52  O   UNL     1      44.260  18.764  55.740  1.00  0.00    -0.365 OA
ATOM     53  HO  UNL     1      45.004  18.174  55.769  1.00  0.00     0.213 HD
ENDBRANCH   7  52
TORSDOF 13
ENDMDL
