MODEL 1
REMARK VINA RESULT:    -9.373      0.000      0.000
REMARK INTER + INTRA:         -16.014
REMARK INTER:                 -15.400
REMARK INTRA:                  -0.614
REMARK UNBOUND:                -0.614
REMARK  11 active torsions:
REMARK  status: ('A' for Active; 'I' for Inactive)
REMARK    1  A    between atoms: C_1  and  O_2 
REMARK    2  A    between atoms: C_1  and  C_3 
REMARK    3  A    between atoms: O_2  and  P_17 
REMARK    4  A    between atoms: C_4  and  C_6 
REMARK    5  A    between atoms: C_6  and  C_7 
REMARK    6  A    between atoms: C_7  and  C_8 
REMARK    7  A    between atoms: C_9  and  C_11 
REMARK    8  A    between atoms: C_11  and  C_12 
REMARK    9  A    between atoms: C_12  and  C_13 
REMARK   10  A    between atoms: P_17  and  O_20 
REMARK   11  A    between atoms: O_20  and  P_21 
ROOT
HETATM    1  C   UNL     1      34.465 -31.344  -0.192  1.00  0.00     0.002 C 
HETATM    2  C   UNL     1      33.716 -32.150   0.528  1.00  0.00    -0.085 C 
HETATM    3  C   UNL     1      34.269 -32.650   1.846  1.00  0.00     0.043 C 
ENDROOT
BRANCH   2   4
HETATM    4  C   UNL     1      32.321 -32.625   0.119  1.00  0.00     0.037 C 
BRANCH   4   5
HETATM    5  C   UNL     1      31.852 -32.083  -1.224  1.00  0.00     0.031 C 
BRANCH   5   6
HETATM    6  C   UNL     1      30.456 -32.650  -1.506  1.00  0.00    -0.024 C 
HETATM    7  C   UNL     1      29.934 -32.614  -2.717  1.00  0.00    -0.087 C 
HETATM    8  C   UNL     1      30.704 -31.983  -3.876  1.00  0.00     0.043 C 
BRANCH   7   9
HETATM    9  C   UNL     1      28.527 -33.162  -2.983  1.00  0.00     0.037 C 
BRANCH   9  10
HETATM   10  C   UNL     1      28.496 -34.582  -3.544  1.00  0.00     0.031 C 
BRANCH  10  11
HETATM   11  C   UNL     1      27.224 -34.702  -4.386  1.00  0.00    -0.024 C 
HETATM   12  C   UNL     1      26.641 -35.856  -4.627  1.00  0.00    -0.091 C 
HETATM   13  C   UNL     1      27.208 -37.154  -4.054  1.00  0.00     0.042 C 
HETATM   14  C   UNL     1      25.381 -35.890  -5.490  1.00  0.00     0.042 C 
ENDBRANCH  10  11
ENDBRANCH   9  10
ENDBRANCH   7   9
ENDBRANCH   5   6
ENDBRANCH   4   5
ENDBRANCH   2   4
BRANCH   1  15
HETATM   15  C   UNL     1      35.839 -30.943   0.343  1.00  0.00     0.209 C 
BRANCH  15  16
HETATM   16  O   UNL     1      36.030 -29.571   0.157  1.00  0.00    -0.286 OA
BRANCH  16  17
HETATM   17  P   UNL     1      37.371 -29.072  -0.660  1.00  0.00     0.418 P 
HETATM   18  O   UNL     1      38.457 -28.725   0.334  1.00  0.00    -0.624 OA
HETATM   19  O   UNL     1      37.832 -30.128  -1.631  1.00  0.00    -0.624 OA
BRANCH  17  20
HETATM   20  O   UNL     1      36.983 -27.743  -1.548  1.00  0.00    -0.173 OA
BRANCH  20  21
HETATM   21  P   UNL     1      37.997 -26.927  -2.549  1.00  0.00     0.431 P 
HETATM   22  O   UNL     1      37.475 -25.537  -2.817  1.00  0.00    -0.616 OA
HETATM   23  O   UNL     1      39.372 -26.866  -1.930  1.00  0.00    -0.616 OA
HETATM   24  O   UNL     1      38.054 -27.718  -3.843  1.00  0.00    -0.616 OA
ENDBRANCH  20  21
ENDBRANCH  17  20
ENDBRANCH  16  17
ENDBRANCH  15  16
ENDBRANCH   1  15
TORSDOF 11
ENDMDL
MODEL 2
REMARK VINA RESULT:    -9.262      1.515      2.466
REMARK INTER + INTRA:         -15.832
REMARK INTER:                 -15.067
REMARK INTRA:                  -0.765
REMARK UNBOUND:                -0.614
REMARK  11 active torsions:
REMARK  status: ('A' for Active; 'I' for Inactive)
REMARK    1  A    between atoms: C_1  and  O_2 
REMARK    2  A    between atoms: C_1  and  C_3 
REMARK    3  A    between atoms: O_2  and  P_17 
REMARK    4  A    between atoms: C_4  and  C_6 
REMARK    5  A    between atoms: C_6  and  C_7 
REMARK    6  A    between atoms: C_7  and  C_8 
REMARK    7  A    between atoms: C_9  and  C_11 
REMARK    8  A    between atoms: C_11  and  C_12 
REMARK    9  A    between atoms: C_12  and  C_13 
REMARK   10  A    between atoms: P_17  and  O_20 
REMARK   11  A    between atoms: O_20  and  P_21 
ROOT
HETATM    1  C   UNL     1      34.031 -31.377  -0.147  1.00  0.00     0.002 C 
HETATM    2  C   UNL     1      33.157 -32.165   0.439  1.00  0.00    -0.085 C 
HETATM    3  C   UNL     1      33.342 -32.467   1.912  1.00  0.00     0.043 C 
ENDROOT
BRANCH   2   4
HETATM    4  C   UNL     1      31.964 -32.808  -0.271  1.00  0.00     0.037 C 
BRANCH   4   5
HETATM    5  C   UNL     1      31.381 -31.959  -1.392  1.00  0.00     0.031 C 
BRANCH   5   6
HETATM    6  C   UNL     1      30.001 -32.524  -1.749  1.00  0.00    -0.024 C 
HETATM    7  C   UNL     1      29.608 -32.627  -3.004  1.00  0.00    -0.087 C 
HETATM    8  C   UNL     1      30.515 -32.164  -4.143  1.00  0.00     0.043 C 
BRANCH   7   9
HETATM    9  C   UNL     1      28.216 -33.171  -3.349  1.00  0.00     0.037 C 
BRANCH   9  10
HETATM   10  C   UNL     1      28.191 -34.650  -3.730  1.00  0.00     0.031 C 
BRANCH  10  11
HETATM   11  C   UNL     1      26.969 -34.859  -4.628  1.00  0.00    -0.024 C 
HETATM   12  C   UNL     1      26.438 -36.044  -4.835  1.00  0.00    -0.091 C 
HETATM   13  C   UNL     1      27.016 -37.289  -4.163  1.00  0.00     0.042 C 
HETATM   14  C   UNL     1      25.228 -36.168  -5.758  1.00  0.00     0.042 C 
ENDBRANCH  10  11
ENDBRANCH   9  10
ENDBRANCH   7   9
ENDBRANCH   5   6
ENDBRANCH   4   5
ENDBRANCH   2   4
BRANCH   1  15
HETATM   15  C   UNL     1      35.171 -30.795   0.687  1.00  0.00     0.209 C 
BRANCH  15  16
HETATM   16  O   UNL     1      36.367 -30.883  -0.030  1.00  0.00    -0.286 OA
BRANCH  16  17
HETATM   17  P   UNL     1      37.089 -29.486  -0.523  1.00  0.00     0.418 P 
HETATM   18  O   UNL     1      37.262 -29.520  -2.024  1.00  0.00    -0.624 OA
HETATM   19  O   UNL     1      36.287 -28.287  -0.088  1.00  0.00    -0.624 OA
BRANCH  17  20
HETATM   20  O   UNL     1      38.559 -29.368   0.206  1.00  0.00    -0.173 OA
BRANCH  20  21
HETATM   21  P   UNL     1      39.884 -30.270  -0.151  1.00  0.00     0.431 P 
HETATM   22  O   UNL     1      39.493 -31.702  -0.424  1.00  0.00    -0.616 OA
HETATM   23  O   UNL     1      40.589 -29.676  -1.346  1.00  0.00    -0.616 OA
HETATM   24  O   UNL     1      40.790 -30.204   1.064  1.00  0.00    -0.616 OA
ENDBRANCH  20  21
ENDBRANCH  17  20
ENDBRANCH  16  17
ENDBRANCH  15  16
ENDBRANCH   1  15
TORSDOF 11
ENDMDL
MODEL 3
REMARK VINA RESULT:    -9.216      2.566      5.138
REMARK INTER + INTRA:         -15.756
REMARK INTER:                 -15.012
REMARK INTRA:                  -0.744
REMARK UNBOUND:                -0.614
REMARK  11 active torsions:
REMARK  status: ('A' for Active; 'I' for Inactive)
REMARK    1  A    between atoms: C_1  and  O_2 
REMARK    2  A    between atoms: C_1  and  C_3 
REMARK    3  A    between atoms: O_2  and  P_17 
REMARK    4  A    between atoms: C_4  and  C_6 
REMARK    5  A    between atoms: C_6  and  C_7 
REMARK    6  A    between atoms: C_7  and  C_8 
REMARK    7  A    between atoms: C_9  and  C_11 
REMARK    8  A    between atoms: C_11  and  C_12 
REMARK    9  A    between atoms: C_12  and  C_13 
REMARK   10  A    between atoms: P_17  and  O_20 
REMARK   11  A    between atoms: O_20  and  P_21 
ROOT
HETATM    1  C   UNL     1      30.341 -32.770  -1.502  1.00  0.00     0.002 C 
HETATM    2  C   UNL     1      29.848 -32.601  -2.709  1.00  0.00    -0.085 C 
HETATM    3  C   UNL     1      30.706 -31.893  -3.737  1.00  0.00     0.043 C 
ENDROOT
BRANCH   2   4
HETATM    4  C   UNL     1      28.459 -33.067  -3.146  1.00  0.00     0.037 C 
BRANCH   4   5
HETATM    5  C   UNL     1      28.429 -34.482  -3.707  1.00  0.00     0.031 C 
BRANCH   5   6
HETATM    6  C   UNL     1      27.040 -34.726  -4.309  1.00  0.00    -0.024 C 
HETATM    7  C   UNL     1      26.555 -35.947  -4.437  1.00  0.00    -0.087 C 
HETATM    8  C   UNL     1      27.378 -37.159  -4.003  1.00  0.00     0.043 C 
BRANCH   7   9
HETATM    9  C   UNL     1      25.176 -36.182  -5.064  1.00  0.00     0.037 C 
BRANCH   9  10
HETATM   10  C   UNL     1      25.203 -36.477  -6.563  1.00  0.00     0.031 C 
BRANCH  10  11
HETATM   11  C   UNL     1      24.783 -35.191  -7.278  1.00  0.00    -0.024 C 
HETATM   12  C   UNL     1      24.825 -35.064  -8.586  1.00  0.00    -0.091 C 
HETATM   13  C   UNL     1      25.288 -36.220  -9.471  1.00  0.00     0.042 C 
HETATM   14  C   UNL     1      24.401 -33.740  -9.221  1.00  0.00     0.042 C 
ENDBRANCH  10  11
ENDBRANCH   9  10
ENDBRANCH   7   9
ENDBRANCH   5   6
ENDBRANCH   4   5
ENDBRANCH   2   4
BRANCH   1  15
HETATM   15  C   UNL     1      31.751 -32.262  -1.205  1.00  0.00     0.209 C 
BRANCH  15  16
HETATM   16  O   UNL     1      32.169 -32.744   0.038  1.00  0.00    -0.286 OA
BRANCH  16  17
HETATM   17  P   UNL     1      33.419 -31.981   0.794  1.00  0.00     0.418 P 
HETATM   18  O   UNL     1      32.869 -30.886   1.680  1.00  0.00    -0.624 OA
HETATM   19  O   UNL     1      34.248 -32.962   1.582  1.00  0.00    -0.624 OA
BRANCH  17  20
HETATM   20  O   UNL     1      34.407 -31.330  -0.349  1.00  0.00    -0.173 OA
BRANCH  20  21
HETATM   21  P   UNL     1      35.856 -30.611  -0.068  1.00  0.00     0.431 P 
HETATM   22  O   UNL     1      35.799 -29.769   1.182  1.00  0.00    -0.616 OA
HETATM   23  O   UNL     1      36.926 -31.669   0.054  1.00  0.00    -0.616 OA
HETATM   24  O   UNL     1      36.142 -29.732  -1.272  1.00  0.00    -0.616 OA
ENDBRANCH  20  21
ENDBRANCH  17  20
ENDBRANCH  16  17
ENDBRANCH  15  16
ENDBRANCH   1  15
TORSDOF 11
ENDMDL
MODEL 4
REMARK VINA RESULT:    -7.413      2.446      5.052
REMARK INTER + INTRA:         -12.794
REMARK INTER:                 -11.830
REMARK INTRA:                  -0.964
REMARK UNBOUND:                -0.614
REMARK  11 active torsions:
REMARK  status: ('A' for Active; 'I' for Inactive)
REMARK    1  A    between atoms: C_1  and  O_2 
REMARK    2  A    between atoms: C_1  and  C_3 
REMARK    3  A    between atoms: O_2  and  P_17 
REMARK    4  A    between atoms: C_4  and  C_6 
REMARK    5  A    between atoms: C_6  and  C_7 
REMARK    6  A    between atoms: C_7  and  C_8 
REMARK    7  A    between atoms: C_9  and  C_11 
REMARK    8  A    between atoms: C_11  and  C_12 
REMARK    9  A    between atoms: C_12  and  C_13 
REMARK   10  A    between atoms: P_17  and  O_20 
REMARK   11  A    between atoms: O_20  and  P_21 
ROOT
HETATM    1  C   UNL     1      37.456 -27.946  -1.102  1.00  0.00     0.002 C 
HETATM    2  C   UNL     1      37.170 -29.204  -0.847  1.00  0.00    -0.085 C 
HETATM    3  C   UNL     1      37.857 -30.273  -1.671  1.00  0.00     0.043 C 
ENDROOT
BRANCH   2   4
HETATM    4  C   UNL     1      36.179 -29.663   0.225  1.00  0.00     0.037 C 
BRANCH   4   5
HETATM    5  C   UNL     1      35.842 -31.146   0.160  1.00  0.00     0.031 C 
BRANCH   5   6
HETATM    6  C   UNL     1      34.355 -31.281  -0.187  1.00  0.00    -0.024 C 
HETATM    7  C   UNL     1      33.568 -32.103   0.481  1.00  0.00    -0.087 C 
HETATM    8  C   UNL     1      34.127 -32.964   1.613  1.00  0.00     0.043 C 
BRANCH   7   9
HETATM    9  C   UNL     1      32.088 -32.249   0.109  1.00  0.00     0.037 C 
BRANCH   9  10
HETATM   10  C   UNL     1      31.809 -32.244  -1.393  1.00  0.00     0.031 C 
BRANCH  10  11
HETATM   11  C   UNL     1      30.394 -32.796  -1.586  1.00  0.00    -0.024 C 
HETATM   12  C   UNL     1      29.774 -32.761  -2.744  1.00  0.00    -0.091 C 
HETATM   13  C   UNL     1      30.454 -32.173  -3.979  1.00  0.00     0.042 C 
HETATM   14  C   UNL     1      28.356 -33.320  -2.848  1.00  0.00     0.042 C 
ENDBRANCH  10  11
ENDBRANCH   9  10
ENDBRANCH   7   9
ENDBRANCH   5   6
ENDBRANCH   4   5
ENDBRANCH   2   4
BRANCH   1  15
HETATM   15  C   UNL     1      38.474 -27.631  -2.197  1.00  0.00     0.209 C 
BRANCH  15  16
HETATM   16  O   UNL     1      39.704 -27.314  -1.614  1.00  0.00    -0.286 OA
BRANCH  16  17
HETATM   17  P   UNL     1      41.010 -28.246  -1.988  1.00  0.00     0.418 P 
HETATM   18  O   UNL     1      40.914 -28.678  -3.434  1.00  0.00    -0.624 OA
HETATM   19  O   UNL     1      42.294 -27.502  -1.721  1.00  0.00    -0.624 OA
BRANCH  17  20
HETATM   20  O   UNL     1      41.013 -29.568  -1.010  1.00  0.00    -0.173 OA
BRANCH  20  21
HETATM   21  P   UNL     1      41.092 -29.549   0.630  1.00  0.00     0.431 P 
HETATM   22  O   UNL     1      42.395 -28.941   1.092  1.00  0.00    -0.616 OA
HETATM   23  O   UNL     1      39.921 -28.773   1.181  1.00  0.00    -0.616 OA
HETATM   24  O   UNL     1      41.007 -30.995   1.083  1.00  0.00    -0.616 OA
ENDBRANCH  20  21
ENDBRANCH  17  20
ENDBRANCH  16  17
ENDBRANCH  15  16
ENDBRANCH   1  15
TORSDOF 11
ENDMDL
MODEL 5
REMARK VINA RESULT:    -7.395      2.734      5.322
REMARK INTER + INTRA:         -12.764
REMARK INTER:                 -11.971
REMARK INTRA:                  -0.793
REMARK UNBOUND:                -0.614
REMARK  11 active torsions:
REMARK  status: ('A' for Active; 'I' for Inactive)
REMARK    1  A    between atoms: C_1  and  O_2 
REMARK    2  A    between atoms: C_1  and  C_3 
REMARK    3  A    between atoms: O_2  and  P_17 
REMARK    4  A    between atoms: C_4  and  C_6 
REMARK    5  A    between atoms: C_6  and  C_7 
REMARK    6  A    between atoms: C_7  and  C_8 
REMARK    7  A    between atoms: C_9  and  C_11 
REMARK    8  A    between atoms: C_11  and  C_12 
REMARK    9  A    between atoms: C_12  and  C_13 
REMARK   10  A    between atoms: P_17  and  O_20 
REMARK   11  A    between atoms: O_20  and  P_21 
ROOT
HETATM    1  C   UNL     1      37.521 -27.732  -1.540  1.00  0.00     0.002 C 
HETATM    2  C   UNL     1      37.365 -28.946  -1.060  1.00  0.00    -0.085 C 
HETATM    3  C   UNL     1      38.280 -30.039  -1.572  1.00  0.00     0.043 C 
ENDROOT
BRANCH   2   4
HETATM    4  C   UNL     1      36.313 -29.332  -0.019  1.00  0.00     0.037 C 
BRANCH   4   5
HETATM    5  C   UNL     1      36.076 -30.832   0.092  1.00  0.00     0.031 C 
BRANCH   5   6
HETATM    6  C   UNL     1      34.590 -31.100  -0.180  1.00  0.00    -0.024 C 
HETATM    7  C   UNL     1      33.930 -32.028   0.485  1.00  0.00    -0.087 C 
HETATM    8  C   UNL     1      34.636 -32.881   1.538  1.00  0.00     0.043 C 
BRANCH   7   9
HETATM    9  C   UNL     1      32.451 -32.305   0.187  1.00  0.00     0.037 C 
BRANCH   9  10
HETATM   10  C   UNL     1      32.055 -32.119  -1.276  1.00  0.00     0.031 C 
BRANCH  10  11
HETATM   11  C   UNL     1      30.613 -32.612  -1.414  1.00  0.00    -0.024 C 
HETATM   12  C   UNL     1      29.968 -32.601  -2.560  1.00  0.00    -0.091 C 
HETATM   13  C   UNL     1      30.646 -32.101  -3.835  1.00  0.00     0.042 C 
HETATM   14  C   UNL     1      28.524 -33.097  -2.609  1.00  0.00     0.042 C 
ENDBRANCH  10  11
ENDBRANCH   9  10
ENDBRANCH   7   9
ENDBRANCH   5   6
ENDBRANCH   4   5
ENDBRANCH   2   4
BRANCH   1  15
HETATM   15  C   UNL     1      38.622 -27.485  -2.571  1.00  0.00     0.209 C 
BRANCH  15  16
HETATM   16  O   UNL     1      39.809 -27.149  -1.916  1.00  0.00    -0.286 OA
BRANCH  16  17
HETATM   17  P   UNL     1      40.905 -26.212  -2.713  1.00  0.00     0.418 P 
HETATM   18  O   UNL     1      40.364 -25.871  -4.083  1.00  0.00    -0.624 OA
HETATM   19  O   UNL     1      41.222 -24.968  -1.922  1.00  0.00    -0.624 OA
BRANCH  17  20
HETATM   20  O   UNL     1      42.310 -27.054  -2.861  1.00  0.00    -0.173 OA
BRANCH  20  21
HETATM   21  P   UNL     1      42.444 -28.623  -3.326  1.00  0.00     0.431 P 
HETATM   22  O   UNL     1      42.178 -29.547  -2.163  1.00  0.00    -0.616 OA
HETATM   23  O   UNL     1      41.479 -28.898  -4.453  1.00  0.00    -0.616 OA
HETATM   24  O   UNL     1      43.868 -28.807  -3.817  1.00  0.00    -0.616 OA
ENDBRANCH  20  21
ENDBRANCH  17  20
ENDBRANCH  16  17
ENDBRANCH  15  16
ENDBRANCH   1  15
TORSDOF 11
ENDMDL
MODEL 6
REMARK VINA RESULT:    -7.190      3.244      5.746
REMARK INTER + INTRA:         -12.427
REMARK INTER:                 -11.980
REMARK INTRA:                  -0.447
REMARK UNBOUND:                -0.614
REMARK  11 active torsions:
REMARK  status: ('A' for Active; 'I' for Inactive)
REMARK    1  A    between atoms: C_1  and  O_2 
REMARK    2  A    between atoms: C_1  and  C_3 
REMARK    3  A    between atoms: O_2  and  P_17 
REMARK    4  A    between atoms: C_4  and  C_6 
REMARK    5  A    between atoms: C_6  and  C_7 
REMARK    6  A    between atoms: C_7  and  C_8 
REMARK    7  A    between atoms: C_9  and  C_11 
REMARK    8  A    between atoms: C_11  and  C_12 
REMARK    9  A    between atoms: C_12  and  C_13 
REMARK   10  A    between atoms: P_17  and  O_20 
REMARK   11  A    between atoms: O_20  and  P_21 
ROOT
HETATM    1  C   UNL     1      38.293 -27.915  -1.528  1.00  0.00     0.002 C 
HETATM    2  C   UNL     1      37.786 -29.091  -1.232  1.00  0.00    -0.085 C 
HETATM    3  C   UNL     1      38.467 -30.323  -1.792  1.00  0.00     0.043 C 
ENDROOT
BRANCH   2   4
HETATM    4  C   UNL     1      36.545 -29.301  -0.364  1.00  0.00     0.037 C 
BRANCH   4   5
HETATM    5  C   UNL     1      36.278 -30.758  -0.010  1.00  0.00     0.031 C 
BRANCH   5   6
HETATM    6  C   UNL     1      34.790 -31.040  -0.248  1.00  0.00    -0.024 C 
HETATM    7  C   UNL     1      34.133 -31.916   0.489  1.00  0.00    -0.087 C 
HETATM    8  C   UNL     1      34.847 -32.692   1.594  1.00  0.00     0.043 C 
BRANCH   7   9
HETATM    9  C   UNL     1      32.651 -32.210   0.226  1.00  0.00     0.037 C 
BRANCH   9  10
HETATM   10  C   UNL     1      32.191 -31.915  -1.201  1.00  0.00     0.031 C 
BRANCH  10  11
HETATM   11  C   UNL     1      30.822 -32.575  -1.374  1.00  0.00    -0.024 C 
HETATM   12  C   UNL     1      30.169 -32.560  -2.515  1.00  0.00    -0.091 C 
HETATM   13  C   UNL     1      30.763 -31.883  -3.749  1.00  0.00     0.042 C 
HETATM   14  C   UNL     1      28.798 -33.231  -2.599  1.00  0.00     0.042 C 
ENDBRANCH  10  11
ENDBRANCH   9  10
ENDBRANCH   7   9
ENDBRANCH   5   6
ENDBRANCH   4   5
ENDBRANCH   2   4
BRANCH   1  15
HETATM   15  C   UNL     1      39.546 -27.852  -2.401  1.00  0.00     0.209 C 
BRANCH  15  16
HETATM   16  O   UNL     1      40.682 -27.825  -1.587  1.00  0.00    -0.286 OA
BRANCH  16  17
HETATM   17  P   UNL     1      41.982 -26.946  -2.087  1.00  0.00     0.418 P 
HETATM   18  O   UNL     1      42.244 -27.235  -3.548  1.00  0.00    -0.624 OA
HETATM   19  O   UNL     1      41.759 -25.475  -1.849  1.00  0.00    -0.624 OA
BRANCH  17  20
HETATM   20  O   UNL     1      43.290 -27.382  -1.189  1.00  0.00    -0.173 OA
BRANCH  20  21
HETATM   21  P   UNL     1      43.579 -26.937   0.365  1.00  0.00     0.431 P 
HETATM   22  O   UNL     1      43.262 -25.475   0.567  1.00  0.00    -0.616 OA
HETATM   23  O   UNL     1      42.751 -27.791   1.294  1.00  0.00    -0.616 OA
HETATM   24  O   UNL     1      45.054 -27.187   0.617  1.00  0.00    -0.616 OA
ENDBRANCH  20  21
ENDBRANCH  17  20
ENDBRANCH  16  17
ENDBRANCH  15  16
ENDBRANCH   1  15
TORSDOF 11
ENDMDL
MODEL 7
REMARK VINA RESULT:    -6.993      7.611     10.270
REMARK INTER + INTRA:         -12.104
REMARK INTER:                 -10.612
REMARK INTRA:                  -1.491
REMARK UNBOUND:                -0.614
REMARK  11 active torsions:
REMARK  status: ('A' for Active; 'I' for Inactive)
REMARK    1  A    between atoms: C_1  and  O_2 
REMARK    2  A    between atoms: C_1  and  C_3 
REMARK    3  A    between atoms: O_2  and  P_17 
REMARK    4  A    between atoms: C_4  and  C_6 
REMARK    5  A    between atoms: C_6  and  C_7 
REMARK    6  A    between atoms: C_7  and  C_8 
REMARK    7  A    between atoms: C_9  and  C_11 
REMARK    8  A    between atoms: C_11  and  C_12 
REMARK    9  A    between atoms: C_12  and  C_13 
REMARK   10  A    between atoms: P_17  and  O_20 
REMARK   11  A    between atoms: O_20  and  P_21 
ROOT
HETATM    1  C   UNL     1      39.472 -30.698  -0.481  1.00  0.00     0.002 C 
HETATM    2  C   UNL     1      40.404 -30.936  -1.377  1.00  0.00    -0.085 C 
HETATM    3  C   UNL     1      39.968 -31.302  -2.780  1.00  0.00     0.043 C 
ENDROOT
BRANCH   2   4
HETATM    4  C   UNL     1      41.906 -30.875  -1.095  1.00  0.00     0.037 C 
BRANCH   4   5
HETATM    5  C   UNL     1      42.672 -29.943  -2.024  1.00  0.00     0.031 C 
BRANCH   5   6
HETATM    6  C   UNL     1      42.142 -28.519  -1.811  1.00  0.00    -0.024 C 
HETATM    7  C   UNL     1      41.855 -27.737  -2.834  1.00  0.00    -0.087 C 
HETATM    8  C   UNL     1      42.062 -28.224  -4.268  1.00  0.00     0.043 C 
BRANCH   7   9
HETATM    9  C   UNL     1      41.349 -26.306  -2.611  1.00  0.00     0.037 C 
BRANCH   9  10
HETATM   10  C   UNL     1      40.202 -25.890  -3.530  1.00  0.00     0.031 C 
BRANCH  10  11
HETATM   11  C   UNL     1      39.026 -25.505  -2.629  1.00  0.00    -0.024 C 
HETATM   12  C   UNL     1      38.057 -26.343  -2.335  1.00  0.00    -0.091 C 
HETATM   13  C   UNL     1      38.068 -27.773  -2.874  1.00  0.00     0.042 C 
HETATM   14  C   UNL     1      36.911 -25.874  -1.440  1.00  0.00     0.042 C 
ENDBRANCH  10  11
ENDBRANCH   9  10
ENDBRANCH   7   9
ENDBRANCH   5   6
ENDBRANCH   4   5
ENDBRANCH   2   4
BRANCH   1  15
HETATM   15  C   UNL     1      38.006 -30.785  -0.903  1.00  0.00     0.209 C 
BRANCH  15  16
HETATM   16  O   UNL     1      37.263 -31.395   0.111  1.00  0.00    -0.286 OA
BRANCH  16  17
HETATM   17  P   UNL     1      35.682 -30.966   0.290  1.00  0.00     0.418 P 
HETATM   18  O   UNL     1      35.586 -29.824   1.276  1.00  0.00    -0.624 OA
HETATM   19  O   UNL     1      35.074 -30.597  -1.039  1.00  0.00    -0.624 OA
BRANCH  17  20
HETATM   20  O   UNL     1      34.844 -32.263   0.855  1.00  0.00    -0.173 OA
BRANCH  20  21
HETATM   21  P   UNL     1      33.250 -32.280   1.248  1.00  0.00     0.431 P 
HETATM   22  O   UNL     1      32.416 -32.719   0.070  1.00  0.00    -0.616 OA
HETATM   23  O   UNL     1      33.032 -33.201   2.424  1.00  0.00    -0.616 OA
HETATM   24  O   UNL     1      32.888 -30.859   1.638  1.00  0.00    -0.616 OA
ENDBRANCH  20  21
ENDBRANCH  17  20
ENDBRANCH  16  17
ENDBRANCH  15  16
ENDBRANCH   1  15
TORSDOF 11
ENDMDL
MODEL 8
REMARK VINA RESULT:    -6.926      9.063     10.617
REMARK INTER + INTRA:         -11.994
REMARK INTER:                 -10.332
REMARK INTRA:                  -1.662
REMARK UNBOUND:                -0.614
REMARK  11 active torsions:
REMARK  status: ('A' for Active; 'I' for Inactive)
REMARK    1  A    between atoms: C_1  and  O_2 
REMARK    2  A    between atoms: C_1  and  C_3 
REMARK    3  A    between atoms: O_2  and  P_17 
REMARK    4  A    between atoms: C_4  and  C_6 
REMARK    5  A    between atoms: C_6  and  C_7 
REMARK    6  A    between atoms: C_7  and  C_8 
REMARK    7  A    between atoms: C_9  and  C_11 
REMARK    8  A    between atoms: C_11  and  C_12 
REMARK    9  A    between atoms: C_12  and  C_13 
REMARK   10  A    between atoms: P_17  and  O_20 
REMARK   11  A    between atoms: O_20  and  P_21 
ROOT
HETATM    1  C   UNL     1      41.644 -26.318  -3.397  1.00  0.00     0.002 C 
HETATM    2  C   UNL     1      42.829 -26.828  -3.142  1.00  0.00    -0.085 C 
HETATM    3  C   UNL     1      43.395 -26.653  -1.748  1.00  0.00     0.043 C 
ENDROOT
BRANCH   2   4
HETATM    4  C   UNL     1      43.682 -27.582  -4.164  1.00  0.00     0.037 C 
BRANCH   4   5
HETATM    5  C   UNL     1      43.854 -29.062  -3.853  1.00  0.00     0.031 C 
BRANCH   5   6
HETATM    6  C   UNL     1      42.718 -29.829  -4.540  1.00  0.00    -0.024 C 
HETATM    7  C   UNL     1      41.752 -30.394  -3.840  1.00  0.00    -0.087 C 
HETATM    8  C   UNL     1      41.751 -30.316  -2.314  1.00  0.00     0.043 C 
BRANCH   7   9
HETATM    9  C   UNL     1      40.634 -31.179  -4.536  1.00  0.00     0.037 C 
BRANCH   9  10
HETATM   10  C   UNL     1      41.047 -32.563  -5.032  1.00  0.00     0.031 C 
BRANCH  10  11
HETATM   11  C   UNL     1      41.196 -32.467  -6.552  1.00  0.00    -0.024 C 
HETATM   12  C   UNL     1      42.344 -32.655  -7.164  1.00  0.00    -0.091 C 
HETATM   13  C   UNL     1      43.605 -33.001  -6.374  1.00  0.00     0.042 C 
HETATM   14  C   UNL     1      42.409 -32.526  -8.685  1.00  0.00     0.042 C 
ENDBRANCH  10  11
ENDBRANCH   9  10
ENDBRANCH   7   9
ENDBRANCH   5   6
ENDBRANCH   4   5
ENDBRANCH   2   4
BRANCH   1  15
HETATM   15  C   UNL     1      40.897 -25.597  -2.277  1.00  0.00     0.209 C 
BRANCH  15  16
HETATM   16  O   UNL     1      39.651 -25.169  -2.746  1.00  0.00    -0.286 OA
BRANCH  16  17
HETATM   17  P   UNL     1      38.386 -26.222  -2.677  1.00  0.00     0.418 P 
HETATM   18  O   UNL     1      37.117 -25.454  -2.385  1.00  0.00    -0.624 OA
HETATM   19  O   UNL     1      38.271 -27.006  -3.959  1.00  0.00    -0.624 OA
BRANCH  17  20
HETATM   20  O   UNL     1      38.670 -27.309  -1.476  1.00  0.00    -0.173 OA
BRANCH  20  21
HETATM   21  P   UNL     1      37.613 -28.446  -0.940  1.00  0.00     0.431 P 
HETATM   22  O   UNL     1      37.139 -29.311  -2.082  1.00  0.00    -0.616 OA
HETATM   23  O   UNL     1      38.276 -29.287   0.123  1.00  0.00    -0.616 OA
HETATM   24  O   UNL     1      36.440 -27.694  -0.339  1.00  0.00    -0.616 OA
ENDBRANCH  20  21
ENDBRANCH  17  20
ENDBRANCH  16  17
ENDBRANCH  15  16
ENDBRANCH   1  15
TORSDOF 11
ENDMDL
MODEL 9
REMARK VINA RESULT:    -6.795      8.387     11.414
REMARK INTER + INTRA:         -11.778
REMARK INTER:                 -11.075
REMARK INTRA:                  -0.703
REMARK UNBOUND:                -0.614
REMARK  11 active torsions:
REMARK  status: ('A' for Active; 'I' for Inactive)
REMARK    1  A    between atoms: C_1  and  O_2 
REMARK    2  A    between atoms: C_1  and  C_3 
REMARK    3  A    between atoms: O_2  and  P_17 
REMARK    4  A    between atoms: C_4  and  C_6 
REMARK    5  A    between atoms: C_6  and  C_7 
REMARK    6  A    between atoms: C_7  and  C_8 
REMARK    7  A    between atoms: C_9  and  C_11 
REMARK    8  A    between atoms: C_11  and  C_12 
REMARK    9  A    between atoms: C_12  and  C_13 
REMARK   10  A    between atoms: P_17  and  O_20 
REMARK   11  A    between atoms: O_20  and  P_21 
ROOT
HETATM    1  C   UNL     1      28.465 -33.116  -2.467  1.00  0.00     0.002 C 
HETATM    2  C   UNL     1      29.649 -32.545  -2.495  1.00  0.00    -0.085 C 
HETATM    3  C   UNL     1      30.366 -32.455  -3.826  1.00  0.00     0.043 C 
ENDROOT
BRANCH   2   4
HETATM    4  C   UNL     1      30.359 -31.971  -1.267  1.00  0.00     0.037 C 
BRANCH   4   5
HETATM    5  C   UNL     1      31.533 -32.810  -0.784  1.00  0.00     0.031 C 
BRANCH   5   6
HETATM    6  C   UNL     1      32.712 -31.867  -0.513  1.00  0.00    -0.024 C 
HETATM    7  C   UNL     1      33.397 -31.935   0.613  1.00  0.00    -0.087 C 
HETATM    8  C   UNL     1      33.019 -32.948   1.693  1.00  0.00     0.043 C 
BRANCH   7   9
HETATM    9  C   UNL     1      34.558 -30.970   0.885  1.00  0.00     0.037 C 
BRANCH   9  10
HETATM   10  C   UNL     1      35.803 -31.224   0.037  1.00  0.00     0.031 C 
BRANCH  10  11
HETATM   11  C   UNL     1      36.336 -29.855  -0.394  1.00  0.00    -0.024 C 
HETATM   12  C   UNL     1      37.597 -29.653  -0.703  1.00  0.00    -0.091 C 
HETATM   13  C   UNL     1      38.607 -30.799  -0.662  1.00  0.00     0.042 C 
HETATM   14  C   UNL     1      38.051 -28.252  -1.109  1.00  0.00     0.042 C 
ENDBRANCH  10  11
ENDBRANCH   9  10
ENDBRANCH   7   9
ENDBRANCH   5   6
ENDBRANCH   4   5
ENDBRANCH   2   4
BRANCH   1  15
HETATM   15  C   UNL     1      27.869 -33.639  -3.773  1.00  0.00     0.209 C 
BRANCH  15  16
HETATM   16  O   UNL     1      28.085 -35.016  -3.867  1.00  0.00    -0.286 OA
BRANCH  16  17
HETATM   17  P   UNL     1      26.864 -35.962  -4.442  1.00  0.00     0.418 P 
HETATM   18  O   UNL     1      27.215 -37.416  -4.218  1.00  0.00    -0.624 OA
HETATM   19  O   UNL     1      25.555 -35.606  -3.784  1.00  0.00    -0.624 OA
BRANCH  17  20
HETATM   20  O   UNL     1      26.685 -35.672  -6.051  1.00  0.00    -0.173 OA
BRANCH  20  21
HETATM   21  P   UNL     1      25.278 -35.762  -6.892  1.00  0.00     0.431 P 
HETATM   22  O   UNL     1      25.550 -35.867  -8.372  1.00  0.00    -0.616 OA
HETATM   23  O   UNL     1      24.482 -36.951  -6.413  1.00  0.00    -0.616 OA
HETATM   24  O   UNL     1      24.516 -34.483  -6.595  1.00  0.00    -0.616 OA
ENDBRANCH  20  21
ENDBRANCH  17  20
ENDBRANCH  16  17
ENDBRANCH  15  16
ENDBRANCH   1  15
TORSDOF 11
ENDMDL
MODEL 10
REMARK VINA RESULT:    -6.776      5.170      7.140
REMARK INTER + INTRA:         -11.747
REMARK INTER:                 -10.651
REMARK INTRA:                  -1.096
REMARK UNBOUND:                -0.614
REMARK  11 active torsions:
REMARK  status: ('A' for Active; 'I' for Inactive)
REMARK    1  A    between atoms: C_1  and  O_2 
REMARK    2  A    between atoms: C_1  and  C_3 
REMARK    3  A    between atoms: O_2  and  P_17 
REMARK    4  A    between atoms: C_4  and  C_6 
REMARK    5  A    between atoms: C_6  and  C_7 
REMARK    6  A    between atoms: C_7  and  C_8 
REMARK    7  A    between atoms: C_9  and  C_11 
REMARK    8  A    between atoms: C_11  and  C_12 
REMARK    9  A    between atoms: C_12  and  C_13 
REMARK   10  A    between atoms: P_17  and  O_20 
REMARK   11  A    between atoms: O_20  and  P_21 
ROOT
HETATM    1  C   UNL     1      35.256 -31.952   0.780  1.00  0.00     0.002 C 
HETATM    2  C   UNL     1      34.176 -32.179   1.495  1.00  0.00    -0.085 C 
HETATM    3  C   UNL     1      33.057 -31.160   1.438  1.00  0.00     0.043 C 
ENDROOT
BRANCH   2   4
HETATM    4  C   UNL     1      33.976 -33.402   2.392  1.00  0.00     0.037 C 
BRANCH   4   5
HETATM    5  C   UNL     1      32.635 -33.428   3.111  1.00  0.00     0.031 C 
BRANCH   5   6
HETATM    6  C   UNL     1      32.895 -33.729   4.592  1.00  0.00    -0.024 C 
HETATM    7  C   UNL     1      31.913 -34.073   5.403  1.00  0.00    -0.087 C 
HETATM    8  C   UNL     1      30.476 -34.162   4.890  1.00  0.00     0.043 C 
BRANCH   7   9
HETATM    9  C   UNL     1      32.180 -34.347   6.888  1.00  0.00     0.037 C 
BRANCH   9  10
HETATM   10  C   UNL     1      31.151 -35.255   7.559  1.00  0.00     0.031 C 
BRANCH  10  11
HETATM   11  C   UNL     1      31.671 -36.688   7.435  1.00  0.00    -0.024 C 
HETATM   12  C   UNL     1      30.948 -37.662   6.927  1.00  0.00    -0.091 C 
HETATM   13  C   UNL     1      29.534 -37.400   6.411  1.00  0.00     0.042 C 
HETATM   14  C   UNL     1      31.538 -39.069   6.853  1.00  0.00     0.042 C 
ENDBRANCH  10  11
ENDBRANCH   9  10
ENDBRANCH   7   9
ENDBRANCH   5   6
ENDBRANCH   4   5
ENDBRANCH   2   4
BRANCH   1  15
HETATM   15  C   UNL     1      35.318 -30.691  -0.080  1.00  0.00     0.209 C 
BRANCH  15  16
HETATM   16  O   UNL     1      36.145 -29.747   0.534  1.00  0.00    -0.286 OA
BRANCH  16  17
HETATM   17  P   UNL     1      37.019 -28.730  -0.425  1.00  0.00     0.418 P 
HETATM   18  O   UNL     1      37.116 -29.319  -1.814  1.00  0.00    -0.624 OA
HETATM   19  O   UNL     1      36.400 -27.356  -0.452  1.00  0.00    -0.624 OA
BRANCH  17  20
HETATM   20  O   UNL     1      38.524 -28.564   0.217  1.00  0.00    -0.173 OA
BRANCH  20  21
HETATM   21  P   UNL     1      39.787 -29.585  -0.020  1.00  0.00     0.431 P 
HETATM   22  O   UNL     1      40.404 -29.360  -1.379  1.00  0.00    -0.616 OA
HETATM   23  O   UNL     1      40.813 -29.377   1.068  1.00  0.00    -0.616 OA
HETATM   24  O   UNL     1      39.227 -30.992   0.068  1.00  0.00    -0.616 OA
ENDBRANCH  20  21
ENDBRANCH  17  20
ENDBRANCH  16  17
ENDBRANCH  15  16
ENDBRANCH   1  15
TORSDOF 11
ENDMDL
MODEL 11
REMARK VINA RESULT:    -6.765      7.638     11.338
REMARK INTER + INTRA:         -11.730
REMARK INTER:                  -9.755
REMARK INTRA:                  -1.975
REMARK UNBOUND:                -0.614
REMARK  11 active torsions:
REMARK  status: ('A' for Active; 'I' for Inactive)
REMARK    1  A    between atoms: C_1  and  O_2 
REMARK    2  A    between atoms: C_1  and  C_3 
REMARK    3  A    between atoms: O_2  and  P_17 
REMARK    4  A    between atoms: C_4  and  C_6 
REMARK    5  A    between atoms: C_6  and  C_7 
REMARK    6  A    between atoms: C_7  and  C_8 
REMARK    7  A    between atoms: C_9  and  C_11 
REMARK    8  A    between atoms: C_11  and  C_12 
REMARK    9  A    between atoms: C_12  and  C_13 
REMARK   10  A    between atoms: P_17  and  O_20 
REMARK   11  A    between atoms: O_20  and  P_21 
ROOT
HETATM    1  C   UNL     1      40.009 -31.092  -0.370  1.00  0.00     0.002 C 
HETATM    2  C   UNL     1      40.606 -31.415  -1.495  1.00  0.00    -0.085 C 
HETATM    3  C   UNL     1      39.780 -31.422  -2.765  1.00  0.00     0.043 C 
ENDROOT
BRANCH   2   4
HETATM    4  C   UNL     1      42.084 -31.793  -1.610  1.00  0.00     0.037 C 
BRANCH   4   5
HETATM    5  C   UNL     1      42.877 -30.906  -2.560  1.00  0.00     0.031 C 
BRANCH   5   6
HETATM    6  C   UNL     1      43.005 -29.519  -1.920  1.00  0.00    -0.024 C 
HETATM    7  C   UNL     1      42.542 -28.441  -2.525  1.00  0.00    -0.087 C 
HETATM    8  C   UNL     1      41.880 -28.545  -3.898  1.00  0.00     0.043 C 
BRANCH   7   9
HETATM    9  C   UNL     1      42.698 -27.055  -1.888  1.00  0.00     0.037 C 
BRANCH   9  10
HETATM   10  C   UNL     1      43.996 -26.860  -1.106  1.00  0.00     0.031 C 
BRANCH  10  11
HETATM   11  C   UNL     1      43.626 -26.167   0.207  1.00  0.00    -0.024 C 
HETATM   12  C   UNL     1      43.599 -26.801   1.358  1.00  0.00    -0.091 C 
HETATM   13  C   UNL     1      43.957 -28.284   1.444  1.00  0.00     0.042 C 
HETATM   14  C   UNL     1      43.204 -26.038   2.622  1.00  0.00     0.042 C 
ENDBRANCH  10  11
ENDBRANCH   9  10
ENDBRANCH   7   9
ENDBRANCH   5   6
ENDBRANCH   4   5
ENDBRANCH   2   4
BRANCH   1  15
HETATM   15  C   UNL     1      38.526 -30.725  -0.403  1.00  0.00     0.209 C 
BRANCH  15  16
HETATM   16  O   UNL     1      38.363 -29.401   0.014  1.00  0.00    -0.286 OA
BRANCH  16  17
HETATM   17  P   UNL     1      37.725 -28.319  -1.052  1.00  0.00     0.418 P 
HETATM   18  O   UNL     1      37.061 -29.069  -2.184  1.00  0.00    -0.624 OA
HETATM   19  O   UNL     1      36.755 -27.394  -0.362  1.00  0.00    -0.624 OA
BRANCH  17  20
HETATM   20  O   UNL     1      38.941 -27.381  -1.642  1.00  0.00    -0.173 OA
BRANCH  20  21
HETATM   21  P   UNL     1      38.769 -26.145  -2.709  1.00  0.00     0.431 P 
HETATM   22  O   UNL     1      39.039 -26.617  -4.117  1.00  0.00    -0.616 OA
HETATM   23  O   UNL     1      37.376 -25.576  -2.599  1.00  0.00    -0.616 OA
HETATM   24  O   UNL     1      39.785 -25.090  -2.313  1.00  0.00    -0.616 OA
ENDBRANCH  20  21
ENDBRANCH  17  20
ENDBRANCH  16  17
ENDBRANCH  15  16
ENDBRANCH   1  15
TORSDOF 11
ENDMDL
MODEL 12
REMARK VINA RESULT:    -6.745      6.933      7.580
REMARK INTER + INTRA:         -11.697
REMARK INTER:                 -10.697
REMARK INTRA:                  -0.999
REMARK UNBOUND:                -0.614
REMARK  11 active torsions:
REMARK  status: ('A' for Active; 'I' for Inactive)
REMARK    1  A    between atoms: C_1  and  O_2 
REMARK    2  A    between atoms: C_1  and  C_3 
REMARK    3  A    between atoms: O_2  and  P_17 
REMARK    4  A    between atoms: C_4  and  C_6 
REMARK    5  A    between atoms: C_6  and  C_7 
REMARK    6  A    between atoms: C_7  and  C_8 
REMARK    7  A    between atoms: C_9  and  C_11 
REMARK    8  A    between atoms: C_11  and  C_12 
REMARK    9  A    between atoms: C_12  and  C_13 
REMARK   10  A    between atoms: P_17  and  O_20 
REMARK   11  A    between atoms: O_20  and  P_21 
ROOT
HETATM    1  C   UNL     1      39.501 -31.460  -0.568  1.00  0.00     0.002 C 
HETATM    2  C   UNL     1      39.827 -31.835  -1.785  1.00  0.00    -0.085 C 
HETATM    3  C   UNL     1      40.267 -30.769  -2.767  1.00  0.00     0.043 C 
ENDROOT
BRANCH   2   4
HETATM    4  C   UNL     1      39.785 -33.281  -2.282  1.00  0.00     0.037 C 
BRANCH   4   5
HETATM    5  C   UNL     1      39.978 -34.318  -1.184  1.00  0.00     0.031 C 
BRANCH   5   6
HETATM    6  C   UNL     1      38.687 -35.136  -1.070  1.00  0.00    -0.024 C 
HETATM    7  C   UNL     1      38.651 -36.268  -0.392  1.00  0.00    -0.087 C 
HETATM    8  C   UNL     1      39.910 -36.807   0.286  1.00  0.00     0.043 C 
BRANCH   7   9
HETATM    9  C   UNL     1      37.361 -37.091  -0.305  1.00  0.00     0.037 C 
BRANCH   9  10
HETATM   10  C   UNL     1      37.382 -38.191   0.756  1.00  0.00     0.031 C 
BRANCH  10  11
HETATM   11  C   UNL     1      36.325 -39.221   0.351  1.00  0.00    -0.024 C 
HETATM   12  C   UNL     1      36.628 -40.335  -0.278  1.00  0.00    -0.091 C 
HETATM   13  C   UNL     1      38.077 -40.668  -0.627  1.00  0.00     0.042 C 
HETATM   14  C   UNL     1      35.510 -41.304  -0.659  1.00  0.00     0.042 C 
ENDBRANCH  10  11
ENDBRANCH   9  10
ENDBRANCH   7   9
ENDBRANCH   5   6
ENDBRANCH   4   5
ENDBRANCH   2   4
BRANCH   1  15
HETATM   15  C   UNL     1      39.599 -29.979  -0.204  1.00  0.00     0.209 C 
BRANCH  15  16
HETATM   16  O   UNL     1      38.319 -29.471   0.034  1.00  0.00    -0.286 OA
BRANCH  16  17
HETATM   17  P   UNL     1      37.699 -28.380  -1.034  1.00  0.00     0.418 P 
HETATM   18  O   UNL     1      37.110 -29.120  -2.213  1.00  0.00    -0.624 OA
HETATM   19  O   UNL     1      36.672 -27.502  -0.367  1.00  0.00    -0.624 OA
BRANCH  17  20
HETATM   20  O   UNL     1      38.913 -27.393  -1.543  1.00  0.00    -0.173 OA
BRANCH  20  21
HETATM   21  P   UNL     1      38.773 -26.199  -2.661  1.00  0.00     0.431 P 
HETATM   22  O   UNL     1      37.385 -25.608  -2.637  1.00  0.00    -0.616 OA
HETATM   23  O   UNL     1      39.808 -25.134  -2.389  1.00  0.00    -0.616 OA
HETATM   24  O   UNL     1      39.040 -26.838  -4.011  1.00  0.00    -0.616 OA
ENDBRANCH  20  21
ENDBRANCH  17  20
ENDBRANCH  16  17
ENDBRANCH  15  16
ENDBRANCH   1  15
TORSDOF 11
ENDMDL
MODEL 13
REMARK VINA RESULT:    -6.582      7.819      9.820
REMARK INTER + INTRA:         -11.429
REMARK INTER:                 -10.106
REMARK INTRA:                  -1.322
REMARK UNBOUND:                -0.614
REMARK  11 active torsions:
REMARK  status: ('A' for Active; 'I' for Inactive)
REMARK    1  A    between atoms: C_1  and  O_2 
REMARK    2  A    between atoms: C_1  and  C_3 
REMARK    3  A    between atoms: O_2  and  P_17 
REMARK    4  A    between atoms: C_4  and  C_6 
REMARK    5  A    between atoms: C_6  and  C_7 
REMARK    6  A    between atoms: C_7  and  C_8 
REMARK    7  A    between atoms: C_9  and  C_11 
REMARK    8  A    between atoms: C_11  and  C_12 
REMARK    9  A    between atoms: C_12  and  C_13 
REMARK   10  A    between atoms: P_17  and  O_20 
REMARK   11  A    between atoms: O_20  and  P_21 
ROOT
HETATM    1  C   UNL     1      39.124 -31.346  -1.101  1.00  0.00     0.002 C 
HETATM    2  C   UNL     1      40.010 -32.317  -1.098  1.00  0.00    -0.085 C 
HETATM    3  C   UNL     1      41.300 -32.102  -0.333  1.00  0.00     0.043 C 
ENDROOT
BRANCH   2   4
HETATM    4  C   UNL     1      39.831 -33.651  -1.824  1.00  0.00     0.037 C 
BRANCH   4   5
HETATM    5  C   UNL     1      41.026 -34.057  -2.676  1.00  0.00     0.031 C 
BRANCH   5   6
HETATM    6  C   UNL     1      40.973 -33.254  -3.982  1.00  0.00    -0.024 C 
HETATM    7  C   UNL     1      41.995 -32.515  -4.372  1.00  0.00    -0.087 C 
HETATM    8  C   UNL     1      43.259 -32.423  -3.518  1.00  0.00     0.043 C 
BRANCH   7   9
HETATM    9  C   UNL     1      41.922 -31.697  -5.667  1.00  0.00     0.037 C 
BRANCH   9  10
HETATM   10  C   UNL     1      41.543 -32.505  -6.906  1.00  0.00     0.031 C 
BRANCH  10  11
HETATM   11  C   UNL     1      42.836 -33.106  -7.461  1.00  0.00    -0.024 C 
HETATM   12  C   UNL     1      43.035 -33.290  -8.747  1.00  0.00    -0.091 C 
HETATM   13  C   UNL     1      41.973 -32.890  -9.769  1.00  0.00     0.042 C 
HETATM   14  C   UNL     1      44.350 -33.910  -9.217  1.00  0.00     0.042 C 
ENDBRANCH  10  11
ENDBRANCH   9  10
ENDBRANCH   7   9
ENDBRANCH   5   6
ENDBRANCH   4   5
ENDBRANCH   2   4
BRANCH   1  15
HETATM   15  C   UNL     1      39.430 -30.067  -0.323  1.00  0.00     0.209 C 
BRANCH  15  16
HETATM   16  O   UNL     1      38.235 -29.407  -0.021  1.00  0.00    -0.286 OA
BRANCH  16  17
HETATM   17  P   UNL     1      37.704 -28.240  -1.055  1.00  0.00     0.418 P 
HETATM   18  O   UNL     1      37.102 -28.895  -2.277  1.00  0.00    -0.624 OA
HETATM   19  O   UNL     1      36.712 -27.332  -0.373  1.00  0.00    -0.624 OA
BRANCH  17  20
HETATM   20  O   UNL     1      38.983 -27.304  -1.496  1.00  0.00    -0.173 OA
BRANCH  20  21
HETATM   21  P   UNL     1      38.968 -26.143  -2.657  1.00  0.00     0.431 P 
HETATM   22  O   UNL     1      37.595 -25.527  -2.775  1.00  0.00    -0.616 OA
HETATM   23  O   UNL     1      39.994 -25.087  -2.325  1.00  0.00    -0.616 OA
HETATM   24  O   UNL     1      39.341 -26.828  -3.958  1.00  0.00    -0.616 OA
ENDBRANCH  20  21
ENDBRANCH  17  20
ENDBRANCH  16  17
ENDBRANCH  15  16
ENDBRANCH   1  15
TORSDOF 11
ENDMDL
MODEL 14
REMARK VINA RESULT:    -6.568      8.831     10.411
REMARK INTER + INTRA:         -11.405
REMARK INTER:                 -10.368
REMARK INTRA:                  -1.037
REMARK UNBOUND:                -0.614
REMARK  11 active torsions:
REMARK  status: ('A' for Active; 'I' for Inactive)
REMARK    1  A    between atoms: C_1  and  O_2 
REMARK    2  A    between atoms: C_1  and  C_3 
REMARK    3  A    between atoms: O_2  and  P_17 
REMARK    4  A    between atoms: C_4  and  C_6 
REMARK    5  A    between atoms: C_6  and  C_7 
REMARK    6  A    between atoms: C_7  and  C_8 
REMARK    7  A    between atoms: C_9  and  C_11 
REMARK    8  A    between atoms: C_11  and  C_12 
REMARK    9  A    between atoms: C_12  and  C_13 
REMARK   10  A    between atoms: P_17  and  O_20 
REMARK   11  A    between atoms: O_20  and  P_21 
ROOT
HETATM    1  C   UNL     1      39.881 -29.392  -4.481  1.00  0.00     0.002 C 
HETATM    2  C   UNL     1      40.924 -30.176  -4.325  1.00  0.00    -0.085 C 
HETATM    3  C   UNL     1      42.282 -29.529  -4.145  1.00  0.00     0.043 C 
ENDROOT
BRANCH   2   4
HETATM    4  C   UNL     1      40.861 -31.704  -4.319  1.00  0.00     0.037 C 
BRANCH   4   5
HETATM    5  C   UNL     1      41.921 -32.369  -5.186  1.00  0.00     0.031 C 
BRANCH   5   6
HETATM    6  C   UNL     1      41.314 -33.643  -5.787  1.00  0.00    -0.024 C 
HETATM    7  C   UNL     1      41.229 -33.810  -7.094  1.00  0.00    -0.087 C 
HETATM    8  C   UNL     1      41.718 -32.723  -8.049  1.00  0.00     0.043 C 
BRANCH   7   9
HETATM    9  C   UNL     1      40.597 -35.076  -7.684  1.00  0.00     0.037 C 
BRANCH   9  10
HETATM   10  C   UNL     1      41.438 -36.340  -7.516  1.00  0.00     0.031 C 
BRANCH  10  11
HETATM   11  C   UNL     1      42.677 -36.173  -8.398  1.00  0.00    -0.024 C 
HETATM   12  C   UNL     1      42.955 -36.990  -9.389  1.00  0.00    -0.091 C 
HETATM   13  C   UNL     1      42.028 -38.158  -9.725  1.00  0.00     0.042 C 
HETATM   14  C   UNL     1      44.222 -36.761 -10.212  1.00  0.00     0.042 C 
ENDBRANCH  10  11
ENDBRANCH   9  10
ENDBRANCH   7   9
ENDBRANCH   5   6
ENDBRANCH   4   5
ENDBRANCH   2   4
BRANCH   1  15
HETATM   15  C   UNL     1      40.087 -27.878  -4.457  1.00  0.00     0.209 C 
BRANCH  15  16
HETATM   16  O   UNL     1      38.874 -27.246  -4.170  1.00  0.00    -0.286 OA
BRANCH  16  17
HETATM   17  P   UNL     1      38.787 -26.291  -2.830  1.00  0.00     0.418 P 
HETATM   18  O   UNL     1      39.942 -25.315  -2.839  1.00  0.00    -0.624 OA
HETATM   19  O   UNL     1      37.462 -25.575  -2.768  1.00  0.00    -0.624 OA
BRANCH  17  20
HETATM   20  O   UNL     1      38.875 -27.248  -1.495  1.00  0.00    -0.173 OA
BRANCH  20  21
HETATM   21  P   UNL     1      37.715 -28.292  -0.983  1.00  0.00     0.431 P 
HETATM   22  O   UNL     1      37.161 -29.081  -2.144  1.00  0.00    -0.616 OA
HETATM   23  O   UNL     1      38.296 -29.217   0.058  1.00  0.00    -0.616 OA
HETATM   24  O   UNL     1      36.619 -27.447  -0.362  1.00  0.00    -0.616 OA
ENDBRANCH  20  21
ENDBRANCH  17  20
ENDBRANCH  16  17
ENDBRANCH  15  16
ENDBRANCH   1  15
TORSDOF 11
ENDMDL
MODEL 15
REMARK VINA RESULT:    -6.545      9.551     10.881
REMARK INTER + INTRA:         -11.368
REMARK INTER:                  -9.281
REMARK INTRA:                  -2.088
REMARK UNBOUND:                -0.614
REMARK  11 active torsions:
REMARK  status: ('A' for Active; 'I' for Inactive)
REMARK    1  A    between atoms: C_1  and  O_2 
REMARK    2  A    between atoms: C_1  and  C_3 
REMARK    3  A    between atoms: O_2  and  P_17 
REMARK    4  A    between atoms: C_4  and  C_6 
REMARK    5  A    between atoms: C_6  and  C_7 
REMARK    6  A    between atoms: C_7  and  C_8 
REMARK    7  A    between atoms: C_9  and  C_11 
REMARK    8  A    between atoms: C_11  and  C_12 
REMARK    9  A    between atoms: C_12  and  C_13 
REMARK   10  A    between atoms: P_17  and  O_20 
REMARK   11  A    between atoms: O_20  and  P_21 
ROOT
HETATM    1  C   UNL     1      39.784 -38.915  -3.864  1.00  0.00     0.002 C 
HETATM    2  C   UNL     1      39.804 -40.125  -4.378  1.00  0.00    -0.085 C 
HETATM    3  C   UNL     1      41.134 -40.846  -4.454  1.00  0.00     0.043 C 
ENDROOT
BRANCH   2   4
HETATM    4  C   UNL     1      38.571 -40.855  -4.913  1.00  0.00     0.037 C 
BRANCH   4   5
HETATM    5  C   UNL     1      38.121 -42.024  -4.049  1.00  0.00     0.031 C 
BRANCH   5   6
HETATM    6  C   UNL     1      37.128 -41.492  -3.008  1.00  0.00    -0.024 C 
HETATM    7  C   UNL     1      37.459 -41.394  -1.734  1.00  0.00    -0.087 C 
HETATM    8  C   UNL     1      38.843 -41.831  -1.255  1.00  0.00     0.043 C 
BRANCH   7   9
HETATM    9  C   UNL     1      36.451 -40.884  -0.698  1.00  0.00     0.037 C 
BRANCH   9  10
HETATM   10  C   UNL     1      35.300 -41.846  -0.408  1.00  0.00     0.031 C 
BRANCH  10  11
HETATM   11  C   UNL     1      34.004 -41.106  -0.747  1.00  0.00    -0.024 C 
HETATM   12  C   UNL     1      33.231 -41.456  -1.750  1.00  0.00    -0.091 C 
HETATM   13  C   UNL     1      33.587 -42.651  -2.633  1.00  0.00     0.042 C 
HETATM   14  C   UNL     1      31.961 -40.654  -2.029  1.00  0.00     0.042 C 
ENDBRANCH  10  11
ENDBRANCH   9  10
ENDBRANCH   7   9
ENDBRANCH   5   6
ENDBRANCH   4   5
ENDBRANCH   2   4
BRANCH   1  15
HETATM   15  C   UNL     1      41.092 -38.309  -3.358  1.00  0.00     0.209 C 
BRANCH  15  16
HETATM   16  O   UNL     1      40.887 -37.740  -2.098  1.00  0.00    -0.286 OA
BRANCH  16  17
HETATM   17  P   UNL     1      41.475 -38.529  -0.777  1.00  0.00     0.418 P 
HETATM   18  O   UNL     1      42.099 -39.835  -1.215  1.00  0.00    -0.624 OA
HETATM   19  O   UNL     1      42.465 -37.668  -0.035  1.00  0.00    -0.624 OA
BRANCH  17  20
HETATM   20  O   UNL     1      40.231 -38.825   0.258  1.00  0.00    -0.173 OA
BRANCH  20  21
HETATM   21  P   UNL     1      38.930 -37.853   0.498  1.00  0.00     0.431 P 
HETATM   22  O   UNL     1      38.014 -37.886  -0.701  1.00  0.00    -0.616 OA
HETATM   23  O   UNL     1      38.194 -38.296   1.739  1.00  0.00    -0.616 OA
HETATM   24  O   UNL     1      39.471 -36.450   0.697  1.00  0.00    -0.616 OA
ENDBRANCH  20  21
ENDBRANCH  17  20
ENDBRANCH  16  17
ENDBRANCH  15  16
ENDBRANCH   1  15
TORSDOF 11
ENDMDL
MODEL 16
REMARK VINA RESULT:    -6.517      7.770      9.591
REMARK INTER + INTRA:         -11.322
REMARK INTER:                  -8.837
REMARK INTRA:                  -2.485
REMARK UNBOUND:                -0.614
REMARK  11 active torsions:
REMARK  status: ('A' for Active; 'I' for Inactive)
REMARK    1  A    between atoms: C_1  and  O_2 
REMARK    2  A    between atoms: C_1  and  C_3 
REMARK    3  A    between atoms: O_2  and  P_17 
REMARK    4  A    between atoms: C_4  and  C_6 
REMARK    5  A    between atoms: C_6  and  C_7 
REMARK    6  A    between atoms: C_7  and  C_8 
REMARK    7  A    between atoms: C_9  and  C_11 
REMARK    8  A    between atoms: C_11  and  C_12 
REMARK    9  A    between atoms: C_12  and  C_13 
REMARK   10  A    between atoms: P_17  and  O_20 
REMARK   11  A    between atoms: O_20  and  P_21 
ROOT
HETATM    1  C   UNL     1      39.058 -31.445  -0.893  1.00  0.00     0.002 C 
HETATM    2  C   UNL     1      39.984 -32.368  -1.031  1.00  0.00    -0.085 C 
HETATM    3  C   UNL     1      41.391 -32.040  -0.576  1.00  0.00     0.043 C 
ENDROOT
BRANCH   2   4
HETATM    4  C   UNL     1      39.738 -33.755  -1.628  1.00  0.00     0.037 C 
BRANCH   4   5
HETATM    5  C   UNL     1      40.995 -34.433  -2.155  1.00  0.00     0.031 C 
BRANCH   5   6
HETATM    6  C   UNL     1      41.259 -33.909  -3.572  1.00  0.00    -0.024 C 
HETATM    7  C   UNL     1      42.476 -33.577  -3.963  1.00  0.00    -0.087 C 
HETATM    8  C   UNL     1      43.658 -33.689  -3.001  1.00  0.00     0.043 C 
BRANCH   7   9
HETATM    9  C   UNL     1      42.725 -33.031  -5.374  1.00  0.00     0.037 C 
BRANCH   9  10
HETATM   10  C   UNL     1      41.959 -31.750  -5.701  1.00  0.00     0.031 C 
BRANCH  10  11
HETATM   11  C   UNL     1      42.333 -30.721  -4.632  1.00  0.00    -0.024 C 
HETATM   12  C   UNL     1      41.431 -30.052  -3.948  1.00  0.00    -0.091 C 
HETATM   13  C   UNL     1      39.939 -30.287  -4.181  1.00  0.00     0.042 C 
HETATM   14  C   UNL     1      41.888 -29.030  -2.909  1.00  0.00     0.042 C 
ENDBRANCH  10  11
ENDBRANCH   9  10
ENDBRANCH   7   9
ENDBRANCH   5   6
ENDBRANCH   4   5
ENDBRANCH   2   4
BRANCH   1  15
HETATM   15  C   UNL     1      39.443 -30.104  -0.270  1.00  0.00     0.209 C 
BRANCH  15  16
HETATM   16  O   UNL     1      38.286 -29.388   0.049  1.00  0.00    -0.286 OA
BRANCH  16  17
HETATM   17  P   UNL     1      37.732 -28.275  -1.031  1.00  0.00     0.418 P 
HETATM   18  O   UNL     1      37.052 -28.990  -2.177  1.00  0.00    -0.624 OA
HETATM   19  O   UNL     1      36.799 -27.297  -0.363  1.00  0.00    -0.624 OA
BRANCH  17  20
HETATM   20  O   UNL     1      39.010 -27.407  -1.596  1.00  0.00    -0.173 OA
BRANCH  20  21
HETATM   21  P   UNL     1      38.937 -26.208  -2.716  1.00  0.00     0.431 P 
HETATM   22  O   UNL     1      37.550 -25.616  -2.771  1.00  0.00    -0.616 OA
HETATM   23  O   UNL     1      39.954 -25.145  -2.381  1.00  0.00    -0.616 OA
HETATM   24  O   UNL     1      39.281 -26.844  -4.050  1.00  0.00    -0.616 OA
ENDBRANCH  20  21
ENDBRANCH  17  20
ENDBRANCH  16  17
ENDBRANCH  15  16
ENDBRANCH   1  15
TORSDOF 11
ENDMDL
MODEL 17
REMARK VINA RESULT:    -6.517      8.848     11.077
REMARK INTER + INTRA:         -11.322
REMARK INTER:                  -9.966
REMARK INTRA:                  -1.356
REMARK UNBOUND:                -0.614
REMARK  11 active torsions:
REMARK  status: ('A' for Active; 'I' for Inactive)
REMARK    1  A    between atoms: C_1  and  O_2 
REMARK    2  A    between atoms: C_1  and  C_3 
REMARK    3  A    between atoms: O_2  and  P_17 
REMARK    4  A    between atoms: C_4  and  C_6 
REMARK    5  A    between atoms: C_6  and  C_7 
REMARK    6  A    between atoms: C_7  and  C_8 
REMARK    7  A    between atoms: C_9  and  C_11 
REMARK    8  A    between atoms: C_11  and  C_12 
REMARK    9  A    between atoms: C_12  and  C_13 
REMARK   10  A    between atoms: P_17  and  O_20 
REMARK   11  A    between atoms: O_20  and  P_21 
ROOT
HETATM    1  C   UNL     1      40.612 -30.865  -4.894  1.00  0.00     0.002 C 
HETATM    2  C   UNL     1      40.890 -32.144  -4.766  1.00  0.00    -0.085 C 
HETATM    3  C   UNL     1      40.787 -32.762  -3.387  1.00  0.00     0.043 C 
ENDROOT
BRANCH   2   4
HETATM    4  C   UNL     1      41.320 -33.052  -5.919  1.00  0.00     0.037 C 
BRANCH   4   5
HETATM    5  C   UNL     1      41.749 -32.300  -7.171  1.00  0.00     0.031 C 
BRANCH   5   6
HETATM    6  C   UNL     1      43.005 -32.980  -7.729  1.00  0.00    -0.024 C 
HETATM    7  C   UNL     1      43.087 -33.329  -8.999  1.00  0.00    -0.087 C 
HETATM    8  C   UNL     1      41.917 -33.082  -9.950  1.00  0.00     0.043 C 
BRANCH   7   9
HETATM    9  C   UNL     1      44.338 -34.032  -9.540  1.00  0.00     0.037 C 
BRANCH   9  10
HETATM   10  C   UNL     1      44.644 -35.376  -8.882  1.00  0.00     0.031 C 
BRANCH  10  11
HETATM   11  C   UNL     1      44.023 -36.458  -9.767  1.00  0.00    -0.024 C 
HETATM   12  C   UNL     1      42.923 -37.098  -9.436  1.00  0.00    -0.091 C 
HETATM   13  C   UNL     1      42.190 -36.773  -8.136  1.00  0.00     0.042 C 
HETATM   14  C   UNL     1      42.377 -38.176 -10.370  1.00  0.00     0.042 C 
ENDBRANCH  10  11
ENDBRANCH   9  10
ENDBRANCH   7   9
ENDBRANCH   5   6
ENDBRANCH   4   5
ENDBRANCH   2   4
BRANCH   1  15
HETATM   15  C   UNL     1      40.184 -30.078  -3.656  1.00  0.00     0.209 C 
BRANCH  15  16
HETATM   16  O   UNL     1      39.336 -29.034  -4.036  1.00  0.00    -0.286 OA
BRANCH  16  17
HETATM   17  P   UNL     1      39.339 -27.655  -3.135  1.00  0.00     0.418 P 
HETATM   18  O   UNL     1      40.659 -26.941  -3.324  1.00  0.00    -0.624 OA
HETATM   19  O   UNL     1      38.178 -26.769  -3.506  1.00  0.00    -0.624 OA
BRANCH  17  20
HETATM   20  O   UNL     1      39.145 -28.059  -1.552  1.00  0.00    -0.173 OA
BRANCH  20  21
HETATM   21  P   UNL     1      37.729 -28.477  -0.835  1.00  0.00     0.431 P 
HETATM   22  O   UNL     1      36.982 -27.247  -0.379  1.00  0.00    -0.616 OA
HETATM   23  O   UNL     1      36.892 -29.277  -1.803  1.00  0.00    -0.616 OA
HETATM   24  O   UNL     1      38.089 -29.337   0.362  1.00  0.00    -0.616 OA
ENDBRANCH  20  21
ENDBRANCH  17  20
ENDBRANCH  16  17
ENDBRANCH  15  16
ENDBRANCH   1  15
TORSDOF 11
ENDMDL
MODEL 18
REMARK VINA RESULT:    -6.515      6.339      7.660
REMARK INTER + INTRA:         -11.318
REMARK INTER:                 -10.561
REMARK INTRA:                  -0.757
REMARK UNBOUND:                -0.614
REMARK  11 active torsions:
REMARK  status: ('A' for Active; 'I' for Inactive)
REMARK    1  A    between atoms: C_1  and  O_2 
REMARK    2  A    between atoms: C_1  and  C_3 
REMARK    3  A    between atoms: O_2  and  P_17 
REMARK    4  A    between atoms: C_4  and  C_6 
REMARK    5  A    between atoms: C_6  and  C_7 
REMARK    6  A    between atoms: C_7  and  C_8 
REMARK    7  A    between atoms: C_9  and  C_11 
REMARK    8  A    between atoms: C_11  and  C_12 
REMARK    9  A    between atoms: C_12  and  C_13 
REMARK   10  A    between atoms: P_17  and  O_20 
REMARK   11  A    between atoms: O_20  and  P_21 
ROOT
HETATM    1  C   UNL     1      38.875 -35.068  -1.149  1.00  0.00     0.002 C 
HETATM    2  C   UNL     1      39.078 -36.155  -0.438  1.00  0.00    -0.085 C 
HETATM    3  C   UNL     1      40.500 -36.492  -0.042  1.00  0.00     0.043 C 
ENDROOT
BRANCH   2   4
HETATM    4  C   UNL     1      37.971 -37.111   0.011  1.00  0.00     0.037 C 
BRANCH   4   5
HETATM    5  C   UNL     1      38.414 -38.564   0.111  1.00  0.00     0.031 C 
BRANCH   5   6
HETATM    6  C   UNL     1      37.289 -39.443  -0.451  1.00  0.00    -0.024 C 
HETATM    7  C   UNL     1      37.538 -40.644  -0.937  1.00  0.00    -0.087 C 
HETATM    8  C   UNL     1      38.966 -41.188  -0.971  1.00  0.00     0.043 C 
BRANCH   7   9
HETATM    9  C   UNL     1      36.411 -41.505  -1.519  1.00  0.00     0.037 C 
BRANCH   9  10
HETATM   10  C   UNL     1      35.302 -41.851  -0.526  1.00  0.00     0.031 C 
BRANCH  10  11
HETATM   11  C   UNL     1      34.077 -41.023  -0.919  1.00  0.00    -0.024 C 
HETATM   12  C   UNL     1      33.153 -41.472  -1.739  1.00  0.00    -0.091 C 
HETATM   13  C   UNL     1      33.251 -42.875  -2.337  1.00  0.00     0.042 C 
HETATM   14  C   UNL     1      31.967 -40.575  -2.091  1.00  0.00     0.042 C 
ENDBRANCH  10  11
ENDBRANCH   9  10
ENDBRANCH   7   9
ENDBRANCH   5   6
ENDBRANCH   4   5
ENDBRANCH   2   4
BRANCH   1  15
HETATM   15  C   UNL     1      40.074 -34.197  -1.521  1.00  0.00     0.209 C 
BRANCH  15  16
HETATM   16  O   UNL     1      39.624 -32.994  -2.072  1.00  0.00    -0.286 OA
BRANCH  16  17
HETATM   17  P   UNL     1      39.697 -31.633  -1.147  1.00  0.00     0.418 P 
HETATM   18  O   UNL     1      40.592 -31.890   0.045  1.00  0.00    -0.624 OA
HETATM   19  O   UNL     1      40.186 -30.459  -1.957  1.00  0.00    -0.624 OA
BRANCH  17  20
HETATM   20  O   UNL     1      38.179 -31.261  -0.635  1.00  0.00    -0.173 OA
BRANCH  20  21
HETATM   21  P   UNL     1      37.570 -29.747  -0.455  1.00  0.00     0.431 P 
HETATM   22  O   UNL     1      38.586 -28.839   0.194  1.00  0.00    -0.616 OA
HETATM   23  O   UNL     1      37.162 -29.206  -1.804  1.00  0.00    -0.616 OA
HETATM   24  O   UNL     1      36.348 -29.877   0.435  1.00  0.00    -0.616 OA
ENDBRANCH  20  21
ENDBRANCH  17  20
ENDBRANCH  16  17
ENDBRANCH  15  16
ENDBRANCH   1  15
TORSDOF 11
ENDMDL
MODEL 19
REMARK VINA RESULT:    -6.403      9.004     11.111
REMARK INTER + INTRA:         -11.135
REMARK INTER:                  -9.869
REMARK INTRA:                  -1.266
REMARK UNBOUND:                -0.614
REMARK  11 active torsions:
REMARK  status: ('A' for Active; 'I' for Inactive)
REMARK    1  A    between atoms: C_1  and  O_2 
REMARK    2  A    between atoms: C_1  and  C_3 
REMARK    3  A    between atoms: O_2  and  P_17 
REMARK    4  A    between atoms: C_4  and  C_6 
REMARK    5  A    between atoms: C_6  and  C_7 
REMARK    6  A    between atoms: C_7  and  C_8 
REMARK    7  A    between atoms: C_9  and  C_11 
REMARK    8  A    between atoms: C_11  and  C_12 
REMARK    9  A    between atoms: C_12  and  C_13 
REMARK   10  A    between atoms: P_17  and  O_20 
REMARK   11  A    between atoms: O_20  and  P_21 
ROOT
HETATM    1  C   UNL     1      40.276 -31.297  -4.114  1.00  0.00     0.002 C 
HETATM    2  C   UNL     1      41.209 -32.079  -4.612  1.00  0.00    -0.085 C 
HETATM    3  C   UNL     1      41.757 -33.184  -3.733  1.00  0.00     0.043 C 
ENDROOT
BRANCH   2   4
HETATM    4  C   UNL     1      41.785 -31.944  -6.022  1.00  0.00     0.037 C 
BRANCH   4   5
HETATM    5  C   UNL     1      41.489 -33.132  -6.927  1.00  0.00     0.031 C 
BRANCH   5   6
HETATM    6  C   UNL     1      42.812 -33.597  -7.549  1.00  0.00    -0.024 C 
HETATM    7  C   UNL     1      43.032 -33.491  -8.846  1.00  0.00    -0.087 C 
HETATM    8  C   UNL     1      41.961 -32.916  -9.772  1.00  0.00     0.043 C 
BRANCH   7   9
HETATM    9  C   UNL     1      44.348 -33.982  -9.461  1.00  0.00     0.037 C 
BRANCH   9  10
HETATM   10  C   UNL     1      44.764 -35.387  -9.028  1.00  0.00     0.031 C 
BRANCH  10  11
HETATM   11  C   UNL     1      44.291 -36.349 -10.120  1.00  0.00    -0.024 C 
HETATM   12  C   UNL     1      43.271 -37.161  -9.954  1.00  0.00    -0.091 C 
HETATM   13  C   UNL     1      42.484 -37.172  -8.645  1.00  0.00     0.042 C 
HETATM   14  C   UNL     1      42.874 -38.102 -11.090  1.00  0.00     0.042 C 
ENDBRANCH  10  11
ENDBRANCH   9  10
ENDBRANCH   7   9
ENDBRANCH   5   6
ENDBRANCH   4   5
ENDBRANCH   2   4
BRANCH   1  15
HETATM   15  C   UNL     1      39.785 -31.552  -2.690  1.00  0.00     0.209 C 
BRANCH  15  16
HETATM   16  O   UNL     1      40.080 -30.447  -1.888  1.00  0.00    -0.286 OA
BRANCH  16  17
HETATM   17  P   UNL     1      39.425 -30.378  -0.378  1.00  0.00     0.418 P 
HETATM   18  O   UNL     1      38.307 -31.390  -0.275  1.00  0.00    -0.624 OA
HETATM   19  O   UNL     1      40.478 -30.614   0.674  1.00  0.00    -0.624 OA
BRANCH  17  20
HETATM   20  O   UNL     1      38.833 -28.864  -0.129  1.00  0.00    -0.173 OA
BRANCH  20  21
HETATM   21  P   UNL     1      37.872 -28.026  -1.164  1.00  0.00     0.431 P 
HETATM   22  O   UNL     1      37.277 -28.948  -2.200  1.00  0.00    -0.616 OA
HETATM   23  O   UNL     1      36.782 -27.330  -0.386  1.00  0.00    -0.616 OA
HETATM   24  O   UNL     1      38.758 -26.995  -1.837  1.00  0.00    -0.616 OA
ENDBRANCH  20  21
ENDBRANCH  17  20
ENDBRANCH  16  17
ENDBRANCH  15  16
ENDBRANCH   1  15
TORSDOF 11
ENDMDL
