REMARK  2 active torsions:
REMARK  status: ('A' for Active; 'I' for Inactive)
REMARK    1  A    between atoms: C_3  and  O_4 
REMARK    2  A    between atoms: C_6  and  O_7 
ROOT
HETATM    1  C   UNL     1      17.188  30.828  75.986  1.00  0.00     0.003 A 
HETATM    2  C   UNL     1      16.891  31.152  74.675  1.00  0.00     0.039 A 
HETATM    3  C   UNL     1      16.305  32.376  74.383  1.00  0.00     0.098 A 
HETATM    4  C   UNL     1      16.010  33.279  75.382  1.00  0.00     0.098 A 
HETATM    5  C   UNL     1      16.302  32.958  76.702  1.00  0.00     0.039 A 
HETATM    6  C   UNL     1      16.889  31.735  76.999  1.00  0.00     0.003 A 
ENDROOT
BRANCH   3   7
HETATM    7  O   UNL     1      15.988  32.715  73.072  1.00  0.00    -0.358 OA
ATOM      8  HO  UNL     1      15.587  33.553  72.872  1.00  0.00     0.217 HD
ENDBRANCH   3   7
BRANCH   4   9
HETATM    9  O   UNL     1      15.410  34.499  75.041  1.00  0.00    -0.358 OA
ATOM     10  HO  UNL     1      15.207  35.121  75.729  1.00  0.00     0.217 HD
ENDBRANCH   4   9
TORSDOF 2
