MODEL 1
REMARK VINA RESULT:    -5.196      0.000      0.000
REMARK INTER + INTRA:          -6.904
REMARK INTER:                  -6.107
REMARK INTRA:                  -0.797
REMARK UNBOUND:                -0.797
REMARK  3 active torsions:
REMARK  status: ('A' for Active; 'I' for Inactive)
REMARK    1  A    between atoms: N_4  and  C_12 
REMARK    2  A    between atoms: N_4  and  C_11 
REMARK    3  A    between atoms: C_7  and  C_9 
ROOT
HETATM    1  N   UNL     1      29.247   4.386   9.598  1.00  0.00    -0.355 N 
ATOM      2  HN  UNL     1      29.608   4.138   8.677  1.00  0.00     0.166 HD
ENDROOT
BRANCH   1   3
HETATM    3  C   UNL     1      29.966   5.436  10.248  1.00  0.00     0.035 A 
HETATM    4  C   UNL     1      29.322   6.655  10.345  1.00  0.00     0.053 A 
HETATM    5  C   UNL     1      29.986   7.689  10.915  1.00  0.00     0.037 A 
HETATM    6 CL   UNL     1      29.156   9.227  11.042  1.00  0.00    -0.084 Cl
HETATM    7  C   UNL     1      31.276   7.561  11.415  1.00  0.00     0.048 A 
HETATM    8  C   UNL     1      31.899   6.333  11.307  1.00  0.00     0.037 A 
HETATM    9 CL   UNL     1      33.544   6.217  11.950  1.00  0.00    -0.084 Cl
HETATM   10  C   UNL     1      31.286   5.273  10.699  1.00  0.00     0.053 A 
ENDBRANCH   1   3
BRANCH   1  11
HETATM   11  C   UNL     1      28.077   3.598  10.021  1.00  0.00     0.049 A 
HETATM   12  C   UNL     1      28.377   2.687  11.002  1.00  0.00     0.030 A 
HETATM   13  C   UNL     1      27.397   1.843  11.521  1.00  0.00     0.002 A 
HETATM   14  C   UNL     1      26.096   1.883  11.066  1.00  0.00     0.001 A 
HETATM   15  C   UNL     1      25.798   2.790  10.074  1.00  0.00     0.021 A 
HETATM   16  C   UNL     1      26.785   3.627   9.568  1.00  0.00     0.067 A 
BRANCH  16  17
HETATM   17  C   UNL     1      26.465   4.641   8.495  1.00  0.00     0.211 C 
HETATM   18  O   UNL     1      27.288   4.870   7.558  1.00  0.00    -0.644 OA
HETATM   19  O   UNL     1      25.386   5.265   8.578  1.00  0.00    -0.644 OA
ENDBRANCH  16  17
ENDBRANCH   1  11
TORSDOF 3
ENDMDL
MODEL 2
REMARK VINA RESULT:    -5.110      0.215      2.134
REMARK INTER + INTRA:          -6.803
REMARK INTER:                  -5.978
REMARK INTRA:                  -0.825
REMARK UNBOUND:                -0.797
REMARK  3 active torsions:
REMARK  status: ('A' for Active; 'I' for Inactive)
REMARK    1  A    between atoms: N_4  and  C_12 
REMARK    2  A    between atoms: N_4  and  C_11 
REMARK    3  A    between atoms: C_7  and  C_9 
ROOT
HETATM    1  N   UNL     1      29.196   4.285   9.673  1.00  0.00    -0.355 N 
ATOM      2  HN  UNL     1      29.690   3.865   8.886  1.00  0.00     0.166 HD
ENDROOT
BRANCH   1   3
HETATM    3  C   UNL     1      29.803   5.476  10.179  1.00  0.00     0.035 A 
HETATM    4  C   UNL     1      31.126   5.377  10.564  1.00  0.00     0.053 A 
HETATM    5  C   UNL     1      31.727   6.471  11.090  1.00  0.00     0.037 A 
HETATM    6 CL   UNL     1      33.408   6.337  11.564  1.00  0.00    -0.084 Cl
HETATM    7  C   UNL     1      31.065   7.684  11.241  1.00  0.00     0.048 A 
HETATM    8  C   UNL     1      29.743   7.759  10.850  1.00  0.00     0.037 A 
HETATM    9 CL   UNL     1      28.937   9.320  11.066  1.00  0.00    -0.084 Cl
HETATM   10  C   UNL     1      29.082   6.668  10.356  1.00  0.00     0.053 A 
ENDBRANCH   1   3
BRANCH   1  11
HETATM   11  C   UNL     1      27.984   3.558  10.085  1.00  0.00     0.049 A 
HETATM   12  C   UNL     1      28.225   2.647  11.082  1.00  0.00     0.030 A 
HETATM   13  C   UNL     1      27.198   1.856  11.594  1.00  0.00     0.002 A 
HETATM   14  C   UNL     1      25.909   1.949  11.116  1.00  0.00     0.001 A 
HETATM   15  C   UNL     1      25.670   2.856  10.108  1.00  0.00     0.021 A 
HETATM   16  C   UNL     1      26.703   3.640   9.608  1.00  0.00     0.067 A 
BRANCH  16  17
HETATM   17  C   UNL     1      26.449   4.653   8.518  1.00  0.00     0.211 C 
HETATM   18  O   UNL     1      27.292   4.824   7.587  1.00  0.00    -0.644 OA
HETATM   19  O   UNL     1      25.403   5.334   8.580  1.00  0.00    -0.644 OA
ENDBRANCH  16  17
ENDBRANCH   1  11
TORSDOF 3
ENDMDL
MODEL 3
REMARK VINA RESULT:    -4.988     11.665     12.712
REMARK INTER + INTRA:          -6.660
REMARK INTER:                  -5.865
REMARK INTRA:                  -0.795
REMARK UNBOUND:                -0.797
REMARK  3 active torsions:
REMARK  status: ('A' for Active; 'I' for Inactive)
REMARK    1  A    between atoms: N_4  and  C_12 
REMARK    2  A    between atoms: N_4  and  C_11 
REMARK    3  A    between atoms: C_7  and  C_9 
ROOT
HETATM    1  N   UNL     1      20.684   8.572   0.039  1.00  0.00    -0.355 N 
ATOM      2  HN  UNL     1      19.801   8.980  -0.268  1.00  0.00     0.166 HD
ENDROOT
BRANCH   1   3
HETATM    3  C   UNL     1      21.677   9.530   0.411  1.00  0.00     0.035 A 
HETATM    4  C   UNL     1      22.993   9.171   0.188  1.00  0.00     0.053 A 
HETATM    5  C   UNL     1      23.967  10.033   0.567  1.00  0.00     0.037 A 
HETATM    6 CL   UNL     1      25.631   9.572   0.269  1.00  0.00    -0.084 Cl
HETATM    7  C   UNL     1      23.689  11.261   1.154  1.00  0.00     0.048 A 
HETATM    8  C   UNL     1      22.366  11.598   1.367  1.00  0.00     0.037 A 
HETATM    9 CL   UNL     1      22.058  13.168   2.123  1.00  0.00    -0.084 Cl
HETATM   10  C   UNL     1      21.350  10.741   1.043  1.00  0.00     0.053 A 
ENDBRANCH   1   3
BRANCH   1  11
HETATM   11  C   UNL     1      20.708   7.100   0.021  1.00  0.00     0.049 A 
HETATM   12  C   UNL     1      20.835   6.587  -1.245  1.00  0.00     0.030 A 
HETATM   13  C   UNL     1      20.865   5.210  -1.461  1.00  0.00     0.002 A 
HETATM   14  C   UNL     1      20.760   4.314  -0.419  1.00  0.00     0.001 A 
HETATM   15  C   UNL     1      20.622   4.829   0.850  1.00  0.00     0.021 A 
HETATM   16  C   UNL     1      20.595   6.204   1.051  1.00  0.00     0.067 A 
BRANCH  16  17
HETATM   17  C   UNL     1      20.466   6.781   2.440  1.00  0.00     0.211 C 
HETATM   18  O   UNL     1      19.611   7.684   2.687  1.00  0.00    -0.644 OA
HETATM   19  O   UNL     1      21.245   6.366   3.325  1.00  0.00    -0.644 OA
ENDBRANCH  16  17
ENDBRANCH   1  11
TORSDOF 3
ENDMDL
MODEL 4
REMARK VINA RESULT:    -4.927     13.460     15.253
REMARK INTER + INTRA:          -6.588
REMARK INTER:                  -5.833
REMARK INTRA:                  -0.755
REMARK UNBOUND:                -0.797
REMARK  3 active torsions:
REMARK  status: ('A' for Active; 'I' for Inactive)
REMARK    1  A    between atoms: N_4  and  C_12 
REMARK    2  A    between atoms: N_4  and  C_11 
REMARK    3  A    between atoms: C_7  and  C_9 
ROOT
HETATM    1  N   UNL     1      25.936  17.587   4.217  1.00  0.00    -0.355 N 
ATOM      2  HN  UNL     1      25.102  17.397   4.773  1.00  0.00     0.166 HD
ENDROOT
BRANCH   1   3
HETATM    3  C   UNL     1      26.087  16.741   3.076  1.00  0.00     0.035 A 
HETATM    4  C   UNL     1      25.178  15.708   2.950  1.00  0.00     0.053 A 
HETATM    5  C   UNL     1      25.313  14.856   1.906  1.00  0.00     0.037 A 
HETATM    6 CL   UNL     1      24.149  13.556   1.751  1.00  0.00    -0.084 Cl
HETATM    7  C   UNL     1      26.318  14.994   0.956  1.00  0.00     0.048 A 
HETATM    8  C   UNL     1      27.215  16.035   1.102  1.00  0.00     0.037 A 
HETATM    9 CL   UNL     1      28.483  16.170  -0.126  1.00  0.00    -0.084 Cl
HETATM   10  C   UNL     1      27.146  16.893   2.165  1.00  0.00     0.053 A 
ENDBRANCH   1   3
BRANCH   1  11
HETATM   11  C   UNL     1      26.769  18.686   4.733  1.00  0.00     0.049 A 
HETATM   12  C   UNL     1      26.413  19.908   4.221  1.00  0.00     0.030 A 
HETATM   13  C   UNL     1      27.097  21.066   4.587  1.00  0.00     0.002 A 
HETATM   14  C   UNL     1      28.160  21.029   5.465  1.00  0.00     0.001 A 
HETATM   15  C   UNL     1      28.524  19.801   5.969  1.00  0.00     0.021 A 
HETATM   16  C   UNL     1      27.831  18.655   5.598  1.00  0.00     0.067 A 
BRANCH  16  17
HETATM   17  C   UNL     1      28.207  17.305   6.161  1.00  0.00     0.211 C 
HETATM   18  O   UNL     1      28.851  16.469   5.458  1.00  0.00    -0.644 OA
HETATM   19  O   UNL     1      27.838  17.028   7.322  1.00  0.00    -0.644 OA
ENDBRANCH  16  17
ENDBRANCH   1  11
TORSDOF 3
ENDMDL
MODEL 5
REMARK VINA RESULT:    -4.913     14.128     15.463
REMARK INTER + INTRA:          -6.571
REMARK INTER:                  -5.778
REMARK INTRA:                  -0.793
REMARK UNBOUND:                -0.797
REMARK  3 active torsions:
REMARK  status: ('A' for Active; 'I' for Inactive)
REMARK    1  A    between atoms: N_4  and  C_12 
REMARK    2  A    between atoms: N_4  and  C_11 
REMARK    3  A    between atoms: C_7  and  C_9 
ROOT
HETATM    1  N   UNL     1      26.066  18.944   3.933  1.00  0.00    -0.355 N 
ATOM      2  HN  UNL     1      26.429  19.718   3.376  1.00  0.00     0.166 HD
ENDROOT
BRANCH   1   3
HETATM    3  C   UNL     1      25.872  17.733   3.200  1.00  0.00     0.035 A 
HETATM    4  C   UNL     1      26.894  17.357   2.349  1.00  0.00     0.053 A 
HETATM    5  C   UNL     1      26.730  16.239   1.603  1.00  0.00     0.037 A 
HETATM    6 CL   UNL     1      28.037  15.766   0.536  1.00  0.00    -0.084 Cl
HETATM    7  C   UNL     1      25.585  15.455   1.674  1.00  0.00     0.048 A 
HETATM    8  C   UNL     1      24.577  15.851   2.531  1.00  0.00     0.037 A 
HETATM    9 CL   UNL     1      23.133  14.828   2.586  1.00  0.00    -0.084 Cl
HETATM   10  C   UNL     1      24.677  16.997   3.271  1.00  0.00     0.053 A 
ENDBRANCH   1   3
BRANCH   1  11
HETATM   11  C   UNL     1      25.837  19.273   5.349  1.00  0.00     0.049 A 
HETATM   12  C   UNL     1      24.662  19.951   5.553  1.00  0.00     0.030 A 
HETATM   13  C   UNL     1      24.280  20.357   6.831  1.00  0.00     0.002 A 
HETATM   14  C   UNL     1      25.068  20.103   7.934  1.00  0.00     0.001 A 
HETATM   15  C   UNL     1      26.252  19.432   7.727  1.00  0.00     0.021 A 
HETATM   16  C   UNL     1      26.619  19.032   6.448  1.00  0.00     0.067 A 
BRANCH  16  17
HETATM   17  C   UNL     1      27.905  18.277   6.212  1.00  0.00     0.211 C 
HETATM   18  O   UNL     1      28.791  18.738   5.430  1.00  0.00    -0.644 OA
HETATM   19  O   UNL     1      28.054  17.174   6.781  1.00  0.00    -0.644 OA
ENDBRANCH  16  17
ENDBRANCH   1  11
TORSDOF 3
ENDMDL
MODEL 6
REMARK VINA RESULT:    -4.904     14.053     15.881
REMARK INTER + INTRA:          -6.561
REMARK INTER:                  -5.755
REMARK INTRA:                  -0.806
REMARK UNBOUND:                -0.797
REMARK  3 active torsions:
REMARK  status: ('A' for Active; 'I' for Inactive)
REMARK    1  A    between atoms: N_4  and  C_12 
REMARK    2  A    between atoms: N_4  and  C_11 
REMARK    3  A    between atoms: C_7  and  C_9 
ROOT
HETATM    1  N   UNL     1      28.689  18.570   5.033  1.00  0.00    -0.355 N 
ATOM      2  HN  UNL     1      29.488  18.149   5.507  1.00  0.00     0.166 HD
ENDROOT
BRANCH   1   3
HETATM    3  C   UNL     1      28.235  17.845   3.888  1.00  0.00     0.035 A 
HETATM    4  C   UNL     1      28.839  18.154   2.685  1.00  0.00     0.053 A 
HETATM    5  C   UNL     1      28.407  17.520   1.568  1.00  0.00     0.037 A 
HETATM    6 CL   UNL     1      29.188  17.911   0.049  1.00  0.00    -0.084 Cl
HETATM    7  C   UNL     1      27.395  16.568   1.595  1.00  0.00     0.048 A 
HETATM    8  C   UNL     1      26.805  16.277   2.810  1.00  0.00     0.037 A 
HETATM    9 CL   UNL     1      25.516  15.064   2.797  1.00  0.00    -0.084 Cl
HETATM   10  C   UNL     1      27.177  16.923   3.956  1.00  0.00     0.053 A 
ENDBRANCH   1   3
BRANCH   1  11
HETATM   11  C   UNL     1      28.209  19.817   5.651  1.00  0.00     0.049 A 
HETATM   12  C   UNL     1      28.884  20.925   5.205  1.00  0.00     0.030 A 
HETATM   13  C   UNL     1      28.575  22.196   5.686  1.00  0.00     0.002 A 
HETATM   14  C   UNL     1      27.590  22.389   6.631  1.00  0.00     0.001 A 
HETATM   15  C   UNL     1      26.920  21.276   7.086  1.00  0.00     0.021 A 
HETATM   16  C   UNL     1      27.237  20.015   6.596  1.00  0.00     0.067 A 
BRANCH  16  17
HETATM   17  C   UNL     1      26.494  18.790   7.072  1.00  0.00     0.211 C 
HETATM   18  O   UNL     1      25.249  18.669   6.864  1.00  0.00    -0.644 OA
HETATM   19  O   UNL     1      27.135  17.920   7.700  1.00  0.00    -0.644 OA
ENDBRANCH  16  17
ENDBRANCH   1  11
TORSDOF 3
ENDMDL
MODEL 7
REMARK VINA RESULT:    -4.901     11.689     12.517
REMARK INTER + INTRA:          -6.558
REMARK INTER:                  -5.761
REMARK INTRA:                  -0.797
REMARK UNBOUND:                -0.797
REMARK  3 active torsions:
REMARK  status: ('A' for Active; 'I' for Inactive)
REMARK    1  A    between atoms: N_4  and  C_12 
REMARK    2  A    between atoms: N_4  and  C_11 
REMARK    3  A    between atoms: C_7  and  C_9 
ROOT
HETATM    1  N   UNL     1      20.876   8.511   0.032  1.00  0.00    -0.355 N 
ATOM      2  HN  UNL     1      20.006   8.958  -0.261  1.00  0.00     0.166 HD
ENDROOT
BRANCH   1   3
HETATM    3  C   UNL     1      21.921   9.423   0.372  1.00  0.00     0.035 A 
HETATM    4  C   UNL     1      21.539  10.584   1.016  1.00  0.00     0.053 A 
HETATM    5  C   UNL     1      22.495  11.497   1.317  1.00  0.00     0.037 A 
HETATM    6 CL   UNL     1      22.001  12.960   2.144  1.00  0.00    -0.084 Cl
HETATM    7  C   UNL     1      23.837  11.298   1.015  1.00  0.00     0.048 A 
HETATM    8  C   UNL     1      24.194  10.130   0.370  1.00  0.00     0.037 A 
HETATM    9 CL   UNL     1      25.912   9.921  -0.002  1.00  0.00    -0.084 Cl
HETATM   10  C   UNL     1      23.259   9.201   0.006  1.00  0.00     0.053 A 
ENDBRANCH   1   3
BRANCH   1  11
HETATM   11  C   UNL     1      20.829   7.039   0.028  1.00  0.00     0.049 A 
HETATM   12  C   UNL     1      20.974   6.507  -1.228  1.00  0.00     0.030 A 
HETATM   13  C   UNL     1      20.946   5.128  -1.430  1.00  0.00     0.002 A 
HETATM   14  C   UNL     1      20.762   4.249  -0.383  1.00  0.00     0.001 A 
HETATM   15  C   UNL     1      20.605   4.785   0.875  1.00  0.00     0.021 A 
HETATM   16  C   UNL     1      20.639   6.161   1.062  1.00  0.00     0.067 A 
BRANCH  16  17
HETATM   17  C   UNL     1      20.489   6.759   2.441  1.00  0.00     0.211 C 
HETATM   18  O   UNL     1      19.622   7.657   2.664  1.00  0.00    -0.644 OA
HETATM   19  O   UNL     1      21.264   6.367   3.339  1.00  0.00    -0.644 OA
ENDBRANCH  16  17
ENDBRANCH   1  11
TORSDOF 3
ENDMDL
MODEL 8
REMARK VINA RESULT:    -4.826     14.023     15.760
REMARK INTER + INTRA:          -6.469
REMARK INTER:                  -5.743
REMARK INTRA:                  -0.726
REMARK UNBOUND:                -0.797
REMARK  3 active torsions:
REMARK  status: ('A' for Active; 'I' for Inactive)
REMARK    1  A    between atoms: N_4  and  C_12 
REMARK    2  A    between atoms: N_4  and  C_11 
REMARK    3  A    between atoms: C_7  and  C_9 
ROOT
HETATM    1  N   UNL     1      28.474  18.321   5.071  1.00  0.00    -0.355 N 
ATOM      2  HN  UNL     1      29.086  17.749   5.654  1.00  0.00     0.166 HD
ENDROOT
BRANCH   1   3
HETATM    3  C   UNL     1      28.106  17.713   3.832  1.00  0.00     0.035 A 
HETATM    4  C   UNL     1      27.058  16.814   3.875  1.00  0.00     0.053 A 
HETATM    5  C   UNL     1      26.705  16.182   2.730  1.00  0.00     0.037 A 
HETATM    6 CL   UNL     1      25.367  15.052   2.794  1.00  0.00    -0.084 Cl
HETATM    7  C   UNL     1      27.348  16.417   1.520  1.00  0.00     0.048 A 
HETATM    8  C   UNL     1      28.393  17.319   1.502  1.00  0.00     0.037 A 
HETATM    9 CL   UNL     1      29.188  17.583  -0.058  1.00  0.00    -0.084 Cl
HETATM   10  C   UNL     1      28.814  17.948   2.641  1.00  0.00     0.053 A 
ENDBRANCH   1   3
BRANCH   1  11
HETATM   11  C   UNL     1      28.128  19.627   5.657  1.00  0.00     0.049 A 
HETATM   12  C   UNL     1      28.901  20.649   5.168  1.00  0.00     0.030 A 
HETATM   13  C   UNL     1      28.725  21.958   5.615  1.00  0.00     0.002 A 
HETATM   14  C   UNL     1      27.779  22.274   6.567  1.00  0.00     0.001 A 
HETATM   15  C   UNL     1      27.011  21.246   7.064  1.00  0.00     0.021 A 
HETATM   16  C   UNL     1      27.196  19.946   6.608  1.00  0.00     0.067 A 
BRANCH  16  17
HETATM   17  C   UNL     1      26.345  18.814   7.131  1.00  0.00     0.211 C 
HETATM   18  O   UNL     1      26.830  17.958   7.931  1.00  0.00    -0.644 OA
HETATM   19  O   UNL     1      25.166  18.729   6.727  1.00  0.00    -0.644 OA
ENDBRANCH  16  17
ENDBRANCH   1  11
TORSDOF 3
ENDMDL
MODEL 9
REMARK VINA RESULT:    -4.825     13.534     15.572
REMARK INTER + INTRA:          -6.468
REMARK INTER:                  -5.728
REMARK INTRA:                  -0.740
REMARK UNBOUND:                -0.797
REMARK  3 active torsions:
REMARK  status: ('A' for Active; 'I' for Inactive)
REMARK    1  A    between atoms: N_4  and  C_12 
REMARK    2  A    between atoms: N_4  and  C_11 
REMARK    3  A    between atoms: C_7  and  C_9 
ROOT
HETATM    1  N   UNL     1      27.324  16.999   3.922  1.00  0.00    -0.355 N 
ATOM      2  HN  UNL     1      27.896  16.160   4.016  1.00  0.00     0.166 HD
ENDROOT
BRANCH   1   3
HETATM    3  C   UNL     1      26.022  16.766   3.381  1.00  0.00     0.035 A 
HETATM    4  C   UNL     1      25.750  15.475   2.968  1.00  0.00     0.053 A 
HETATM    5  C   UNL     1      24.543  15.221   2.408  1.00  0.00     0.037 A 
HETATM    6 CL   UNL     1      24.204  13.579   1.899  1.00  0.00    -0.084 Cl
HETATM    7  C   UNL     1      23.572  16.203   2.250  1.00  0.00     0.048 A 
HETATM    8  C   UNL     1      23.868  17.485   2.670  1.00  0.00     0.037 A 
HETATM    9 CL   UNL     1      22.606  18.706   2.443  1.00  0.00    -0.084 Cl
HETATM   10  C   UNL     1      25.089  17.800   3.199  1.00  0.00     0.053 A 
ENDBRANCH   1   3
BRANCH   1  11
HETATM   11  C   UNL     1      27.985  18.236   4.370  1.00  0.00     0.049 A 
HETATM   12  C   UNL     1      28.555  18.937   3.337  1.00  0.00     0.030 A 
HETATM   13  C   UNL     1      29.236  20.130   3.570  1.00  0.00     0.002 A 
HETATM   14  C   UNL     1      29.373  20.647   4.841  1.00  0.00     0.001 A 
HETATM   15  C   UNL     1      28.811  19.938   5.878  1.00  0.00     0.021 A 
HETATM   16  C   UNL     1      28.132  18.750   5.631  1.00  0.00     0.067 A 
BRANCH  16  17
HETATM   17  C   UNL     1      27.492  17.975   6.758  1.00  0.00     0.211 C 
HETATM   18  O   UNL     1      26.523  18.466   7.410  1.00  0.00    -0.644 OA
HETATM   19  O   UNL     1      27.967  16.856   7.046  1.00  0.00    -0.644 OA
ENDBRANCH  16  17
ENDBRANCH   1  11
TORSDOF 3
ENDMDL
MODEL 10
REMARK VINA RESULT:    -4.797     13.496     15.418
REMARK INTER + INTRA:          -6.436
REMARK INTER:                  -5.742
REMARK INTRA:                  -0.694
REMARK UNBOUND:                -0.797
REMARK  3 active torsions:
REMARK  status: ('A' for Active; 'I' for Inactive)
REMARK    1  A    between atoms: N_4  and  C_12 
REMARK    2  A    between atoms: N_4  and  C_11 
REMARK    3  A    between atoms: C_7  and  C_9 
ROOT
HETATM    1  N   UNL     1      27.319  16.900   3.981  1.00  0.00    -0.355 N 
ATOM      2  HN  UNL     1      27.878  16.074   4.196  1.00  0.00     0.166 HD
ENDROOT
BRANCH   1   3
HETATM    3  C   UNL     1      26.068  16.615   3.351  1.00  0.00     0.035 A 
HETATM    4  C   UNL     1      25.172  17.662   3.259  1.00  0.00     0.053 A 
HETATM    5  C   UNL     1      23.958  17.423   2.708  1.00  0.00     0.037 A 
HETATM    6 CL   UNL     1      22.833  18.761   2.587  1.00  0.00    -0.084 Cl
HETATM    7  C   UNL     1      23.593  16.173   2.222  1.00  0.00     0.048 A 
HETATM    8  C   UNL     1      24.505  15.141   2.325  1.00  0.00     0.037 A 
HETATM    9 CL   UNL     1      23.997  13.565   1.700  1.00  0.00    -0.084 Cl
HETATM   10  C   UNL     1      25.726  15.324   2.914  1.00  0.00     0.053 A 
ENDBRANCH   1   3
BRANCH   1  11
HETATM   11  C   UNL     1      27.944  18.173   4.375  1.00  0.00     0.049 A 
HETATM   12  C   UNL     1      28.458  18.864   3.307  1.00  0.00     0.030 A 
HETATM   13  C   UNL     1      29.099  20.089   3.487  1.00  0.00     0.002 A 
HETATM   14  C   UNL     1      29.249  20.647   4.739  1.00  0.00     0.001 A 
HETATM   15  C   UNL     1      28.743  19.948   5.811  1.00  0.00     0.021 A 
HETATM   16  C   UNL     1      28.104  18.729   5.616  1.00  0.00     0.067 A 
BRANCH  16  17
HETATM   17  C   UNL     1      27.526  17.963   6.782  1.00  0.00     0.211 C 
HETATM   18  O   UNL     1      27.960  16.808   7.075  1.00  0.00    -0.644 OA
HETATM   19  O   UNL     1      26.590  18.486   7.424  1.00  0.00    -0.644 OA
ENDBRANCH  16  17
ENDBRANCH   1  11
TORSDOF 3
ENDMDL
MODEL 11
REMARK VINA RESULT:    -4.781     11.866     13.494
REMARK INTER + INTRA:          -6.417
REMARK INTER:                  -5.653
REMARK INTRA:                  -0.764
REMARK UNBOUND:                -0.797
REMARK  3 active torsions:
REMARK  status: ('A' for Active; 'I' for Inactive)
REMARK    1  A    between atoms: N_4  and  C_12 
REMARK    2  A    between atoms: N_4  and  C_11 
REMARK    3  A    between atoms: C_7  and  C_9 
ROOT
HETATM    1  N   UNL     1      19.628   8.585   0.246  1.00  0.00    -0.355 N 
ATOM      2  HN  UNL     1      18.616   8.690   0.316  1.00  0.00     0.166 HD
ENDROOT
BRANCH   1   3
HETATM    3  C   UNL     1      20.355   9.812   0.328  1.00  0.00     0.035 A 
HETATM    4  C   UNL     1      19.826  10.888  -0.360  1.00  0.00     0.053 A 
HETATM    5  C   UNL     1      20.507  12.059  -0.344  1.00  0.00     0.037 A 
HETATM    6 CL   UNL     1      19.822  13.419  -1.210  1.00  0.00    -0.084 Cl
HETATM    7  C   UNL     1      21.702  12.217   0.348  1.00  0.00     0.048 A 
HETATM    8  C   UNL     1      22.211  11.128   1.028  1.00  0.00     0.037 A 
HETATM    9 CL   UNL     1      23.738  11.371   1.890  1.00  0.00    -0.084 Cl
HETATM   10  C   UNL     1      21.582   9.913   1.003  1.00  0.00     0.053 A 
ENDBRANCH   1   3
BRANCH   1  11
HETATM   11  C   UNL     1      20.081   7.194   0.078  1.00  0.00     0.049 A 
HETATM   12  C   UNL     1      20.087   6.792  -1.234  1.00  0.00     0.030 A 
HETATM   13  C   UNL     1      20.477   5.501  -1.587  1.00  0.00     0.002 A 
HETATM   14  C   UNL     1      20.860   4.578  -0.637  1.00  0.00     0.001 A 
HETATM   15  C   UNL     1      20.842   4.978   0.680  1.00  0.00     0.021 A 
HETATM   16  C   UNL     1      20.454   6.269   1.017  1.00  0.00     0.067 A 
BRANCH  16  17
HETATM   17  C   UNL     1      20.452   6.726   2.457  1.00  0.00     0.211 C 
HETATM   18  O   UNL     1      19.609   7.584   2.860  1.00  0.00    -0.644 OA
HETATM   19  O   UNL     1      21.320   6.260   3.224  1.00  0.00    -0.644 OA
ENDBRANCH  16  17
ENDBRANCH   1  11
TORSDOF 3
ENDMDL
MODEL 12
REMARK VINA RESULT:    -4.771     14.187     15.416
REMARK INTER + INTRA:          -6.404
REMARK INTER:                  -5.611
REMARK INTRA:                  -0.794
REMARK UNBOUND:                -0.797
REMARK  3 active torsions:
REMARK  status: ('A' for Active; 'I' for Inactive)
REMARK    1  A    between atoms: N_4  and  C_12 
REMARK    2  A    between atoms: N_4  and  C_11 
REMARK    3  A    between atoms: C_7  and  C_9 
ROOT
HETATM    1  N   UNL     1      26.034  19.143   3.943  1.00  0.00    -0.355 N 
ATOM      2  HN  UNL     1      26.282  19.977   3.409  1.00  0.00     0.166 HD
ENDROOT
BRANCH   1   3
HETATM    3  C   UNL     1      25.963  17.947   3.165  1.00  0.00     0.035 A 
HETATM    4  C   UNL     1      24.804  17.204   3.282  1.00  0.00     0.053 A 
HETATM    5  C   UNL     1      24.714  16.040   2.596  1.00  0.00     0.037 A 
HETATM    6 CL   UNL     1      23.235  15.112   2.743  1.00  0.00    -0.084 Cl
HETATM    7  C   UNL     1      25.735  15.579   1.773  1.00  0.00     0.048 A 
HETATM    8  C   UNL     1      26.884  16.338   1.672  1.00  0.00     0.037 A 
HETATM    9 CL   UNL     1      28.161  15.710   0.619  1.00  0.00    -0.084 Cl
HETATM   10  C   UNL     1      27.039  17.497   2.381  1.00  0.00     0.053 A 
ENDBRANCH   1   3
BRANCH   1  11
HETATM   11  C   UNL     1      25.814  19.388   5.377  1.00  0.00     0.049 A 
HETATM   12  C   UNL     1      24.637  20.046   5.629  1.00  0.00     0.030 A 
HETATM   13  C   UNL     1      24.263  20.375   6.931  1.00  0.00     0.002 A 
HETATM   14  C   UNL     1      25.060  20.062   8.011  1.00  0.00     0.001 A 
HETATM   15  C   UNL     1      26.247  19.412   7.757  1.00  0.00     0.021 A 
HETATM   16  C   UNL     1      26.606  19.088   6.454  1.00  0.00     0.067 A 
BRANCH  16  17
HETATM   17  C   UNL     1      27.894  18.355   6.165  1.00  0.00     0.211 C 
HETATM   18  O   UNL     1      28.779  18.875   5.421  1.00  0.00    -0.644 OA
HETATM   19  O   UNL     1      28.045  17.215   6.653  1.00  0.00    -0.644 OA
ENDBRANCH  16  17
ENDBRANCH   1  11
TORSDOF 3
ENDMDL
MODEL 13
REMARK VINA RESULT:    -4.766     11.738     13.223
REMARK INTER + INTRA:          -6.399
REMARK INTER:                  -5.647
REMARK INTRA:                  -0.752
REMARK UNBOUND:                -0.797
REMARK  3 active torsions:
REMARK  status: ('A' for Active; 'I' for Inactive)
REMARK    1  A    between atoms: N_4  and  C_12 
REMARK    2  A    between atoms: N_4  and  C_11 
REMARK    3  A    between atoms: C_7  and  C_9 
ROOT
HETATM    1  N   UNL     1      22.455   8.722   0.813  1.00  0.00    -0.355 N 
ATOM      2  HN  UNL     1      23.363   8.577   1.255  1.00  0.00     0.166 HD
ENDROOT
BRANCH   1   3
HETATM    3  C   UNL     1      22.024  10.084   0.787  1.00  0.00     0.035 A 
HETATM    4  C   UNL     1      22.871  11.009   1.367  1.00  0.00     0.053 A 
HETATM    5  C   UNL     1      22.480  12.305   1.402  1.00  0.00     0.037 A 
HETATM    6 CL   UNL     1      23.566  13.471   2.130  1.00  0.00    -0.084 Cl
HETATM    7  C   UNL     1      21.271  12.734   0.866  1.00  0.00     0.048 A 
HETATM    8  C   UNL     1      20.441  11.791   0.292  1.00  0.00     0.037 A 
HETATM    9 CL   UNL     1      18.909  12.380  -0.372  1.00  0.00    -0.084 Cl
HETATM   10  C   UNL     1      20.773  10.465   0.273  1.00  0.00     0.053 A 
ENDBRANCH   1   3
BRANCH   1  11
HETATM   11  C   UNL     1      21.822   7.490   0.315  1.00  0.00     0.049 A 
HETATM   12  C   UNL     1      22.141   7.220  -0.992  1.00  0.00     0.030 A 
HETATM   13  C   UNL     1      21.625   6.099  -1.640  1.00  0.00     0.002 A 
HETATM   14  C   UNL     1      20.772   5.225  -1.000  1.00  0.00     0.001 A 
HETATM   15  C   UNL     1      20.443   5.502   0.307  1.00  0.00     0.021 A 
HETATM   16  C   UNL     1      20.966   6.623   0.941  1.00  0.00     0.067 A 
BRANCH  16  17
HETATM   17  C   UNL     1      20.630   6.925   2.382  1.00  0.00     0.211 C 
HETATM   18  O   UNL     1      19.786   7.825   2.673  1.00  0.00    -0.644 OA
HETATM   19  O   UNL     1      21.230   6.286   3.273  1.00  0.00    -0.644 OA
ENDBRANCH  16  17
ENDBRANCH   1  11
TORSDOF 3
ENDMDL
MODEL 14
REMARK VINA RESULT:    -4.730     12.373     13.593
REMARK INTER + INTRA:          -6.357
REMARK INTER:                  -5.635
REMARK INTRA:                  -0.721
REMARK UNBOUND:                -0.797
REMARK  3 active torsions:
REMARK  status: ('A' for Active; 'I' for Inactive)
REMARK    1  A    between atoms: N_4  and  C_12 
REMARK    2  A    between atoms: N_4  and  C_11 
REMARK    3  A    between atoms: C_7  and  C_9 
ROOT
HETATM    1  N   UNL     1      20.137  10.709   0.792  1.00  0.00    -0.355 N 
ATOM      2  HN  UNL     1      19.334  11.223   1.158  1.00  0.00     0.166 HD
ENDROOT
BRANCH   1   3
HETATM    3  C   UNL     1      21.398  11.332   1.047  1.00  0.00     0.035 A 
HETATM    4  C   UNL     1      22.523  10.597   0.725  1.00  0.00     0.053 A 
HETATM    5  C   UNL     1      23.738  11.133   0.991  1.00  0.00     0.037 A 
HETATM    6 CL   UNL     1      25.159  10.198   0.568  1.00  0.00    -0.084 Cl
HETATM    7  C   UNL     1      23.890  12.393   1.559  1.00  0.00     0.048 A 
HETATM    8  C   UNL     1      22.750  13.108   1.873  1.00  0.00     0.037 A 
HETATM    9 CL   UNL     1      22.989  14.704   2.601  1.00  0.00    -0.084 Cl
HETATM   10  C   UNL     1      21.502  12.589   1.664  1.00  0.00     0.053 A 
ENDBRANCH   1   3
BRANCH   1  11
HETATM   11  C   UNL     1      19.790   9.459   0.097  1.00  0.00     0.049 A 
HETATM   12  C   UNL     1      19.796   9.592  -1.269  1.00  0.00     0.030 A 
HETATM   13  C   UNL     1      19.482   8.515  -2.095  1.00  0.00     0.002 A 
HETATM   14  C   UNL     1      19.143   7.283  -1.578  1.00  0.00     0.001 A 
HETATM   15  C   UNL     1      19.126   7.153  -0.207  1.00  0.00     0.021 A 
HETATM   16  C   UNL     1      19.445   8.235   0.605  1.00  0.00     0.067 A 
BRANCH  16  17
HETATM   17  C   UNL     1      19.450   8.099   2.109  1.00  0.00     0.211 C 
HETATM   18  O   UNL     1      18.981   9.021   2.842  1.00  0.00    -0.644 OA
HETATM   19  O   UNL     1      19.958   7.071   2.605  1.00  0.00    -0.644 OA
ENDBRANCH  16  17
ENDBRANCH   1  11
TORSDOF 3
ENDMDL
MODEL 15
REMARK VINA RESULT:    -4.699     14.079     15.823
REMARK INTER + INTRA:          -6.321
REMARK INTER:                  -5.646
REMARK INTRA:                  -0.674
REMARK UNBOUND:                -0.797
REMARK  3 active torsions:
REMARK  status: ('A' for Active; 'I' for Inactive)
REMARK    1  A    between atoms: N_4  and  C_12 
REMARK    2  A    between atoms: N_4  and  C_11 
REMARK    3  A    between atoms: C_7  and  C_9 
ROOT
HETATM    1  N   UNL     1      25.649  18.734   3.918  1.00  0.00    -0.355 N 
ATOM      2  HN  UNL     1      26.398  19.153   3.365  1.00  0.00     0.166 HD
ENDROOT
BRANCH   1   3
HETATM    3  C   UNL     1      24.811  17.837   3.187  1.00  0.00     0.035 A 
HETATM    4  C   UNL     1      23.763  18.406   2.488  1.00  0.00     0.053 A 
HETATM    5  C   UNL     1      22.918  17.586   1.817  1.00  0.00     0.037 A 
HETATM    6 CL   UNL     1      21.600  18.318   0.925  1.00  0.00    -0.084 Cl
HETATM    7  C   UNL     1      23.077  16.206   1.798  1.00  0.00     0.048 A 
HETATM    8  C   UNL     1      24.131  15.661   2.504  1.00  0.00     0.037 A 
HETATM    9 CL   UNL     1      24.292  13.898   2.457  1.00  0.00    -0.084 Cl
HETATM   10  C   UNL     1      24.983  16.444   3.233  1.00  0.00     0.053 A 
ENDBRANCH   1   3
BRANCH   1  11
HETATM   11  C   UNL     1      25.627  19.160   5.326  1.00  0.00     0.049 A 
HETATM   12  C   UNL     1      24.469  19.814   5.665  1.00  0.00     0.030 A 
HETATM   13  C   UNL     1      24.271  20.301   6.956  1.00  0.00     0.002 A 
HETATM   14  C   UNL     1      25.229  20.156   7.936  1.00  0.00     0.001 A 
HETATM   15  C   UNL     1      26.395  19.509   7.593  1.00  0.00     0.021 A 
HETATM   16  C   UNL     1      26.578  19.026   6.303  1.00  0.00     0.067 A 
BRANCH  16  17
HETATM   17  C   UNL     1      27.844  18.297   5.921  1.00  0.00     0.211 C 
HETATM   18  O   UNL     1      28.609  18.759   5.023  1.00  0.00    -0.644 OA
HETATM   19  O   UNL     1      28.094  17.214   6.492  1.00  0.00    -0.644 OA
ENDBRANCH  16  17
ENDBRANCH   1  11
TORSDOF 3
ENDMDL
MODEL 16
REMARK VINA RESULT:    -4.646     12.520     14.512
REMARK INTER + INTRA:          -6.258
REMARK INTER:                  -5.569
REMARK INTRA:                  -0.689
REMARK UNBOUND:                -0.797
REMARK  3 active torsions:
REMARK  status: ('A' for Active; 'I' for Inactive)
REMARK    1  A    between atoms: N_4  and  C_12 
REMARK    2  A    between atoms: N_4  and  C_11 
REMARK    3  A    between atoms: C_7  and  C_9 
ROOT
HETATM    1  N   UNL     1      21.937  10.510  -0.105  1.00  0.00    -0.355 N 
ATOM      2  HN  UNL     1      22.351  10.559  -1.037  1.00  0.00     0.166 HD
ENDROOT
BRANCH   1   3
HETATM    3  C   UNL     1      21.201   9.312   0.148  1.00  0.00     0.035 A 
HETATM    4  C   UNL     1      20.247   8.965  -0.789  1.00  0.00     0.053 A 
HETATM    5  C   UNL     1      19.496   7.860  -0.564  1.00  0.00     0.037 A 
HETATM    6 CL   UNL     1      18.296   7.424  -1.764  1.00  0.00    -0.084 Cl
HETATM    7  C   UNL     1      19.663   7.062   0.561  1.00  0.00     0.048 A 
HETATM    8  C   UNL     1      20.623   7.429   1.484  1.00  0.00     0.037 A 
HETATM    9 CL   UNL     1      20.797   6.388   2.906  1.00  0.00    -0.084 Cl
HETATM   10  C   UNL     1      21.374   8.560   1.323  1.00  0.00     0.053 A 
ENDBRANCH   1   3
BRANCH   1  11
HETATM   11  C   UNL     1      22.206  11.685   0.738  1.00  0.00     0.049 A 
HETATM   12  C   UNL     1      23.278  11.504   1.576  1.00  0.00     0.030 A 
HETATM   13  C   UNL     1      23.677  12.507   2.458  1.00  0.00     0.002 A 
HETATM   14  C   UNL     1      23.009  13.711   2.531  1.00  0.00     0.001 A 
HETATM   15  C   UNL     1      21.928  13.888   1.698  1.00  0.00     0.021 A 
HETATM   16  C   UNL     1      21.543  12.881   0.822  1.00  0.00     0.067 A 
BRANCH  16  17
HETATM   17  C   UNL     1      20.371  13.072  -0.112  1.00  0.00     0.211 C 
HETATM   18  O   UNL     1      20.323  14.072  -0.889  1.00  0.00    -0.644 OA
HETATM   19  O   UNL     1      19.443  12.237  -0.070  1.00  0.00    -0.644 OA
ENDBRANCH  16  17
ENDBRANCH   1  11
TORSDOF 3
ENDMDL
MODEL 17
REMARK VINA RESULT:    -4.569     12.559     14.577
REMARK INTER + INTRA:          -6.167
REMARK INTER:                  -5.381
REMARK INTRA:                  -0.786
REMARK UNBOUND:                -0.797
REMARK  3 active torsions:
REMARK  status: ('A' for Active; 'I' for Inactive)
REMARK    1  A    between atoms: N_4  and  C_12 
REMARK    2  A    between atoms: N_4  and  C_11 
REMARK    3  A    between atoms: C_7  and  C_9 
ROOT
HETATM    1  N   UNL     1      22.337  10.325   0.057  1.00  0.00    -0.355 N 
ATOM      2  HN  UNL     1      23.061  10.166  -0.644  1.00  0.00     0.166 HD
ENDROOT
BRANCH   1   3
HETATM    3  C   UNL     1      21.403   9.253   0.191  1.00  0.00     0.035 A 
HETATM    4  C   UNL     1      21.525   8.467   1.321  1.00  0.00     0.053 A 
HETATM    5  C   UNL     1      20.686   7.413   1.465  1.00  0.00     0.037 A 
HETATM    6 CL   UNL     1      20.843   6.430   2.907  1.00  0.00    -0.084 Cl
HETATM    7  C   UNL     1      19.706   7.107   0.529  1.00  0.00     0.048 A 
HETATM    8  C   UNL     1      19.603   7.907  -0.593  1.00  0.00     0.037 A 
HETATM    9 CL   UNL     1      18.346   7.477  -1.762  1.00  0.00    -0.084 Cl
HETATM   10  C   UNL     1      20.457   8.954  -0.803  1.00  0.00     0.053 A 
ENDBRANCH   1   3
BRANCH   1  11
HETATM   11  C   UNL     1      22.443  11.619   0.751  1.00  0.00     0.049 A 
HETATM   12  C   UNL     1      23.297  11.578   1.824  1.00  0.00     0.030 A 
HETATM   13  C   UNL     1      23.516  12.708   2.611  1.00  0.00     0.002 A 
HETATM   14  C   UNL     1      22.879  13.903   2.350  1.00  0.00     0.001 A 
HETATM   15  C   UNL     1      22.014  13.940   1.280  1.00  0.00     0.021 A 
HETATM   16  C   UNL     1      21.807  12.806   0.503  1.00  0.00     0.067 A 
BRANCH  16  17
HETATM   17  C   UNL     1      20.876  12.841  -0.686  1.00  0.00     0.211 C 
HETATM   18  O   UNL     1      21.228  12.339  -1.796  1.00  0.00    -0.644 OA
HETATM   19  O   UNL     1      19.770  13.406  -0.551  1.00  0.00    -0.644 OA
ENDBRANCH  16  17
ENDBRANCH   1  11
TORSDOF 3
ENDMDL
MODEL 18
REMARK VINA RESULT:    -4.522     13.724     15.604
REMARK INTER + INTRA:          -6.112
REMARK INTER:                  -5.410
REMARK INTRA:                  -0.702
REMARK UNBOUND:                -0.797
REMARK  3 active torsions:
REMARK  status: ('A' for Active; 'I' for Inactive)
REMARK    1  A    between atoms: N_4  and  C_12 
REMARK    2  A    between atoms: N_4  and  C_11 
REMARK    3  A    between atoms: C_7  and  C_9 
ROOT
HETATM    1  N   UNL     1      25.928  18.368   4.127  1.00  0.00    -0.355 N 
ATOM      2  HN  UNL     1      24.998  18.562   4.501  1.00  0.00     0.166 HD
ENDROOT
BRANCH   1   3
HETATM    3  C   UNL     1      25.983  17.253   3.236  1.00  0.00     0.035 A 
HETATM    4  C   UNL     1      27.065  17.203   2.378  1.00  0.00     0.053 A 
HETATM    5  C   UNL     1      27.132  16.185   1.487  1.00  0.00     0.037 A 
HETATM    6 CL   UNL     1      28.515  16.125   0.412  1.00  0.00    -0.084 Cl
HETATM    7  C   UNL     1      26.165  15.190   1.417  1.00  0.00     0.048 A 
HETATM    8  C   UNL     1      25.092  15.262   2.284  1.00  0.00     0.037 A 
HETATM    9 CL   UNL     1      23.879  13.978   2.156  1.00  0.00    -0.084 Cl
HETATM   10  C   UNL     1      24.958  16.295   3.170  1.00  0.00     0.053 A 
ENDBRANCH   1   3
BRANCH   1  11
HETATM   11  C   UNL     1      26.974  19.289   4.602  1.00  0.00     0.049 A 
HETATM   12  C   UNL     1      26.905  20.523   4.006  1.00  0.00     0.030 A 
HETATM   13  C   UNL     1      27.822  21.524   4.323  1.00  0.00     0.002 A 
HETATM   14  C   UNL     1      28.834  21.314   5.235  1.00  0.00     0.001 A 
HETATM   15  C   UNL     1      28.909  20.071   5.824  1.00  0.00     0.021 A 
HETATM   16  C   UNL     1      27.987  19.083   5.500  1.00  0.00     0.067 A 
BRANCH  16  17
HETATM   17  C   UNL     1      28.046  17.724   6.156  1.00  0.00     0.211 C 
HETATM   18  O   UNL     1      28.533  16.730   5.537  1.00  0.00    -0.644 OA
HETATM   19  O   UNL     1      27.575  17.605   7.307  1.00  0.00    -0.644 OA
ENDBRANCH  16  17
ENDBRANCH   1  11
TORSDOF 3
ENDMDL
MODEL 19
REMARK VINA RESULT:    -4.499     14.387     16.007
REMARK INTER + INTRA:          -6.085
REMARK INTER:                  -5.319
REMARK INTRA:                  -0.766
REMARK UNBOUND:                -0.797
REMARK  3 active torsions:
REMARK  status: ('A' for Active; 'I' for Inactive)
REMARK    1  A    between atoms: N_4  and  C_12 
REMARK    2  A    between atoms: N_4  and  C_11 
REMARK    3  A    between atoms: C_7  and  C_9 
ROOT
HETATM    1  N   UNL     1      28.370  18.186   5.165  1.00  0.00    -0.355 N 
ATOM      2  HN  UNL     1      29.067  17.647   5.680  1.00  0.00     0.166 HD
ENDROOT
BRANCH   1   3
HETATM    3  C   UNL     1      28.076  17.675   3.864  1.00  0.00     0.035 A 
HETATM    4  C   UNL     1      27.082  16.717   3.789  1.00  0.00     0.053 A 
HETATM    5  C   UNL     1      26.803  16.175   2.579  1.00  0.00     0.037 A 
HETATM    6 CL   UNL     1      25.534  14.970   2.494  1.00  0.00    -0.084 Cl
HETATM    7  C   UNL     1      27.466  16.557   1.419  1.00  0.00     0.048 A 
HETATM    8  C   UNL     1      28.455  17.516   1.520  1.00  0.00     0.037 A 
HETATM    9 CL   UNL     1      29.279  17.968   0.019  1.00  0.00    -0.084 Cl
HETATM   10  C   UNL     1      28.804  18.059   2.726  1.00  0.00     0.053 A 
ENDBRANCH   1   3
BRANCH   1  11
HETATM   11  C   UNL     1      27.847  19.352   5.896  1.00  0.00     0.049 A 
HETATM   12  C   UNL     1      26.724  19.060   6.628  1.00  0.00     0.030 A 
HETATM   13  C   UNL     1      26.080  20.043   7.378  1.00  0.00     0.002 A 
HETATM   14  C   UNL     1      26.537  21.343   7.407  1.00  0.00     0.001 A 
HETATM   15  C   UNL     1      27.658  21.638   6.663  1.00  0.00     0.021 A 
HETATM   16  C   UNL     1      28.291  20.648   5.922  1.00  0.00     0.067 A 
BRANCH  16  17
HETATM   17  C   UNL     1      29.532  20.955   5.120  1.00  0.00     0.211 C 
HETATM   18  O   UNL     1      29.457  21.622   4.044  1.00  0.00    -0.644 OA
HETATM   19  O   UNL     1      30.624  20.506   5.530  1.00  0.00    -0.644 OA
ENDBRANCH  16  17
ENDBRANCH   1  11
TORSDOF 3
ENDMDL
MODEL 20
REMARK VINA RESULT:    -4.470     14.294     15.860
REMARK INTER + INTRA:          -6.051
REMARK INTER:                  -5.229
REMARK INTRA:                  -0.821
REMARK UNBOUND:                -0.797
REMARK  3 active torsions:
REMARK  status: ('A' for Active; 'I' for Inactive)
REMARK    1  A    between atoms: N_4  and  C_12 
REMARK    2  A    between atoms: N_4  and  C_11 
REMARK    3  A    between atoms: C_7  and  C_9 
ROOT
HETATM    1  N   UNL     1      28.550  17.864   4.744  1.00  0.00    -0.355 N 
ATOM      2  HN  UNL     1      29.422  17.449   5.072  1.00  0.00     0.166 HD
ENDROOT
BRANCH   1   3
HETATM    3  C   UNL     1      27.993  17.229   3.592  1.00  0.00     0.035 A 
HETATM    4  C   UNL     1      28.613  17.489   2.385  1.00  0.00     0.053 A 
HETATM    5  C   UNL     1      28.090  16.941   1.262  1.00  0.00     0.037 A 
HETATM    6 CL   UNL     1      28.891  17.268  -0.261  1.00  0.00    -0.084 Cl
HETATM    7  C   UNL     1      26.967  16.121   1.286  1.00  0.00     0.048 A 
HETATM    8  C   UNL     1      26.364  15.877   2.504  1.00  0.00     0.037 A 
HETATM    9 CL   UNL     1      24.934  14.833   2.487  1.00  0.00    -0.084 Cl
HETATM   10  C   UNL     1      26.829  16.444   3.658  1.00  0.00     0.053 A 
ENDBRANCH   1   3
BRANCH   1  11
HETATM   11  C   UNL     1      28.089  19.012   5.543  1.00  0.00     0.049 A 
HETATM   12  C   UNL     1      27.314  18.638   6.611  1.00  0.00     0.030 A 
HETATM   13  C   UNL     1      26.778  19.591   7.477  1.00  0.00     0.002 A 
HETATM   14  C   UNL     1      26.996  20.939   7.290  1.00  0.00     0.001 A 
HETATM   15  C   UNL     1      27.764  21.314   6.211  1.00  0.00     0.021 A 
HETATM   16  C   UNL     1      28.295  20.354   5.358  1.00  0.00     0.067 A 
BRANCH  16  17
HETATM   17  C   UNL     1      29.157  20.752   4.184  1.00  0.00     0.211 C 
HETATM   18  O   UNL     1      30.298  20.226   4.014  1.00  0.00    -0.644 OA
HETATM   19  O   UNL     1      28.727  21.633   3.410  1.00  0.00    -0.644 OA
ENDBRANCH  16  17
ENDBRANCH   1  11
TORSDOF 3
ENDMDL
