MODEL 1
REMARK VINA RESULT:   -10.433      0.000      0.000
REMARK INTER + INTRA:         -21.546
REMARK INTER:                 -18.668
REMARK INTRA:                  -2.878
REMARK UNBOUND:                -2.878
REMARK  16 active torsions:
REMARK  status: ('A' for Active; 'I' for Inactive)
REMARK    1  A    between atoms: P_1  and  O_30 
REMARK    2  A    between atoms: P_1  and  O_4 
REMARK    3  A    between atoms: O_4  and  C_5 
REMARK    4  A    between atoms: C_5  and  C_6 
REMARK    5  A    between atoms: C_8  and  O_9 
REMARK    6  A    between atoms: C_11  and  O_12 
REMARK    7  A    between atoms: C_14  and  N_15 
REMARK    8  A    between atoms: C_20  and  N_21 
REMARK    9  A    between atoms: O_30  and  P_31 
REMARK   10  A    between atoms: P_31  and  O_34 
REMARK   11  A    between atoms: O_34  and  C_35 
REMARK   12  A    between atoms: C_35  and  C_36 
REMARK   13  A    between atoms: C_38  and  O_39 
REMARK   14  A    between atoms: C_41  and  O_42 
REMARK   15  A    between atoms: C_44  and  N_45 
REMARK   16  A    between atoms: C_47  and  C_48 
REMARK       I    between atoms: C_48  and  N_50 
ROOT
HETATM    1  P   UNL     1       8.431 -13.003  -9.245  1.00  0.00     0.417 P 
HETATM    2  O   UNL     1       7.403 -13.949  -8.680  1.00  0.00    -0.624 OA
HETATM    3  O   UNL     1       8.867 -11.845  -8.418  1.00  0.00    -0.624 OA
ENDROOT
BRANCH   1   4
HETATM    4  O   UNL     1       9.732 -13.865  -9.602  1.00  0.00    -0.180 OA
BRANCH   4   5
HETATM    5  P   UNL     1      10.194 -15.387  -9.641  1.00  0.00     0.417 P 
HETATM    6  O   UNL     1       9.207 -16.173 -10.419  1.00  0.00    -0.624 OA
HETATM    7  O   UNL     1      11.649 -15.364 -10.011  1.00  0.00    -0.624 OA
BRANCH   5   8
HETATM    8  O   UNL     1      10.170 -15.747  -8.088  1.00  0.00    -0.289 OA
BRANCH   8   9
HETATM    9  C   UNL     1      11.374 -15.598  -7.276  1.00  0.00     0.189 C 
BRANCH   9  10
HETATM   10  C   UNL     1      11.013 -14.700  -6.117  1.00  0.00     0.043 C 
HETATM   11  C   UNL     1      10.959 -13.207  -6.511  1.00  0.00     0.155 C 
HETATM   12  C   UNL     1      12.357 -12.690  -6.150  1.00  0.00     0.170 C 
HETATM   13  C   UNL     1      12.681 -13.400  -4.819  1.00  0.00     0.120 C 
HETATM   14  C   UNL     1      12.013 -14.795  -4.951  1.00  0.00     0.037 C 
BRANCH  11  15
HETATM   15  O   UNL     1       9.917 -12.551  -5.778  1.00  0.00    -0.392 OA
ATOM     16  HO  UNL     1      10.022 -12.630  -4.836  1.00  0.00     0.210 HD
ENDBRANCH  11  15
BRANCH  12  17
HETATM   17  O   UNL     1      12.339 -11.271  -6.004  1.00  0.00    -0.391 OA
ATOM     18  HO  UNL     1      12.680 -10.998  -5.160  1.00  0.00     0.210 HD
ENDBRANCH  12  17
BRANCH  13  19
HETATM   19  N   UNL     1      14.141 -13.492  -4.506  1.00  0.00    -0.358 N 
HETATM   20  C   UNL     1      15.065 -13.344  -5.476  1.00  0.00     0.091 A 
HETATM   21  C   UNL     1      16.409 -13.504  -5.247  1.00  0.00     0.018 A 
HETATM   22  C   UNL     1      16.864 -13.765  -3.978  1.00  0.00     0.020 A 
HETATM   23  C   UNL     1      15.938 -13.877  -2.943  1.00  0.00     0.047 A 
HETATM   24  C   UNL     1      14.577 -13.757  -3.220  1.00  0.00     0.108 A 
BRANCH  23  25
HETATM   25  C   UNL     1      16.379 -14.153  -1.528  1.00  0.00     0.250 C 
HETATM   26  O   UNL     1      17.563 -14.411  -1.295  1.00  0.00    -0.268 OA
HETATM   27  N   UNL     1      15.461 -14.088  -0.580  1.00  0.00    -0.366 N 
ATOM     28  HN2 UNL     1      15.759 -14.274   0.378  1.00  0.00     0.159 HD
ATOM     29  HN1 UNL     1      14.483 -13.874  -0.772  1.00  0.00     0.159 HD
ENDBRANCH  23  25
ENDBRANCH  13  19
ENDBRANCH   9  10
ENDBRANCH   8   9
ENDBRANCH   5   8
ENDBRANCH   4   5
ENDBRANCH   1   4
BRANCH   1  30
HETATM   30  O   UNL     1       7.830 -12.500 -10.597  1.00  0.00    -0.287 OA
BRANCH  30  31
HETATM   31  C   UNL     1       6.977 -13.361 -11.397  1.00  0.00     0.216 C 
BRANCH  31  32
HETATM   32  C   UNL     1       7.487 -13.270 -12.801  1.00  0.00     0.180 C 
HETATM   33  O   UNL     1       7.926 -11.923 -13.102  1.00  0.00    -0.353 OA
HETATM   34  C   UNL     1       9.144 -12.005 -13.806  1.00  0.00     0.262 C 
HETATM   35  C   UNL     1       9.852 -13.205 -13.198  1.00  0.00     0.198 C 
HETATM   36  C   UNL     1       8.675 -14.183 -13.149  1.00  0.00     0.182 C 
BRANCH  34  37
HETATM   37  N   UNL     1       9.837 -10.728 -13.686  1.00  0.00    -0.297 N 
HETATM   38  C   UNL     1      10.218 -10.146 -12.507  1.00  0.00     0.142 A 
HETATM   39  N   UNL     1       9.960 -10.592 -11.272  1.00  0.00    -0.336 N 
HETATM   40  C   UNL     1      10.905  -8.996 -12.840  1.00  0.00     0.122 A 
HETATM   41  C   UNL     1      10.438  -9.746 -10.368  1.00  0.00     0.183 A 
ATOM     42  HN  UNL     1       9.466 -11.459 -11.057  1.00  0.00     0.168 HD
HETATM   43  N   UNL     1      11.155  -8.634 -10.534  1.00  0.00    -0.337 N 
HETATM   44  C   UNL     1      11.371  -8.188 -11.790  1.00  0.00     0.131 A 
ATOM     45  HN  UNL     1      11.532  -8.131  -9.730  1.00  0.00     0.168 HD
HETATM   46  N   UNL     1      10.989  -8.876 -14.218  1.00  0.00    -0.346 N 
HETATM   47  C   UNL     1      10.352  -9.927 -14.672  1.00  0.00     0.188 A 
ATOM     48  HN  UNL     1      11.443  -8.137 -14.755  1.00  0.00     0.167 HD
BRANCH  44  49
HETATM   49  N   UNL     1      12.009  -7.030 -11.969  1.00  0.00    -0.383 N 
ATOM     50  HN2 UNL     1      11.570  -6.189 -12.344  1.00  0.00     0.157 HD
ATOM     51  HN1 UNL     1      12.998  -6.964 -11.726  1.00  0.00     0.157 HD
ENDBRANCH  44  49
ENDBRANCH  34  37
BRANCH  35  52
HETATM   52  O   UNL     1      10.931 -13.661 -13.981  1.00  0.00    -0.388 OA
ATOM     53  HO  UNL     1      11.166 -14.565 -13.812  1.00  0.00     0.210 HD
ENDBRANCH  35  52
BRANCH  36  54
HETATM   54  O   UNL     1       8.394 -14.754 -14.419  1.00  0.00    -0.390 OA
ATOM     55  HO  UNL     1       8.670 -14.121 -15.072  1.00  0.00     0.210 HD
ENDBRANCH  36  54
ENDBRANCH  31  32
ENDBRANCH  30  31
ENDBRANCH   1  30
TORSDOF 16
ENDMDL
MODEL 2
REMARK VINA RESULT:   -10.367      1.509      1.993
REMARK INTER + INTRA:         -21.427
REMARK INTER:                 -18.550
REMARK INTRA:                  -2.877
REMARK UNBOUND:                -2.878
REMARK  16 active torsions:
REMARK  status: ('A' for Active; 'I' for Inactive)
REMARK    1  A    between atoms: P_1  and  O_30 
REMARK    2  A    between atoms: P_1  and  O_4 
REMARK    3  A    between atoms: O_4  and  C_5 
REMARK    4  A    between atoms: C_5  and  C_6 
REMARK    5  A    between atoms: C_8  and  O_9 
REMARK    6  A    between atoms: C_11  and  O_12 
REMARK    7  A    between atoms: C_14  and  N_15 
REMARK    8  A    between atoms: C_20  and  N_21 
REMARK    9  A    between atoms: O_30  and  P_31 
REMARK   10  A    between atoms: P_31  and  O_34 
REMARK   11  A    between atoms: O_34  and  C_35 
REMARK   12  A    between atoms: C_35  and  C_36 
REMARK   13  A    between atoms: C_38  and  O_39 
REMARK   14  A    between atoms: C_41  and  O_42 
REMARK   15  A    between atoms: C_44  and  N_45 
REMARK   16  A    between atoms: C_47  and  C_48 
REMARK       I    between atoms: C_48  and  N_50 
ROOT
HETATM    1  P   UNL     1       9.472 -13.187  -8.528  1.00  0.00     0.417 P 
HETATM    2  O   UNL     1       8.861 -12.807  -7.204  1.00  0.00    -0.624 OA
HETATM    3  O   UNL     1      10.859 -12.738  -8.830  1.00  0.00    -0.624 OA
ENDROOT
BRANCH   1   4
HETATM    4  O   UNL     1       9.443 -14.784  -8.629  1.00  0.00    -0.180 OA
BRANCH   4   5
HETATM    5  P   UNL     1      10.062 -16.049  -7.888  1.00  0.00     0.417 P 
HETATM    6  O   UNL     1       9.029 -17.109  -7.795  1.00  0.00    -0.624 OA
HETATM    7  O   UNL     1      11.389 -16.299  -8.544  1.00  0.00    -0.624 OA
BRANCH   5   8
HETATM    8  O   UNL     1      10.417 -15.420  -6.467  1.00  0.00    -0.289 OA
BRANCH   8   9
HETATM    9  C   UNL     1      11.789 -15.445  -5.970  1.00  0.00     0.189 C 
BRANCH   9  10
HETATM   10  C   UNL     1      12.296 -14.023  -6.006  1.00  0.00     0.043 C 
HETATM   11  C   UNL     1      13.463 -13.828  -6.999  1.00  0.00     0.155 C 
HETATM   12  C   UNL     1      14.711 -13.985  -6.120  1.00  0.00     0.170 C 
HETATM   13  C   UNL     1      14.334 -13.263  -4.811  1.00  0.00     0.120 C 
HETATM   14  C   UNL     1      12.815 -13.537  -4.640  1.00  0.00     0.037 C 
BRANCH  11  15
HETATM   15  O   UNL     1      13.369 -12.533  -7.606  1.00  0.00    -0.392 OA
ATOM     16  HO  UNL     1      13.721 -12.513  -8.489  1.00  0.00     0.210 HD
ENDBRANCH  11  15
BRANCH  12  17
HETATM   17  O   UNL     1      15.840 -13.383  -6.752  1.00  0.00    -0.391 OA
ATOM     18  HO  UNL     1      16.523 -13.169  -6.127  1.00  0.00     0.210 HD
ENDBRANCH  12  17
BRANCH  13  19
HETATM   19  N   UNL     1      15.129 -13.691  -3.618  1.00  0.00    -0.358 N 
HETATM   20  C   UNL     1      14.559 -13.766  -2.400  1.00  0.00     0.091 A 
HETATM   21  C   UNL     1      15.271 -14.073  -1.267  1.00  0.00     0.018 A 
HETATM   22  C   UNL     1      16.606 -14.381  -1.357  1.00  0.00     0.020 A 
HETATM   23  C   UNL     1      17.217 -14.360  -2.610  1.00  0.00     0.047 A 
HETATM   24  C   UNL     1      16.474 -13.996  -3.732  1.00  0.00     0.108 A 
BRANCH  23  25
HETATM   25  C   UNL     1      18.676 -14.698  -2.772  1.00  0.00     0.250 C 
HETATM   26  O   UNL     1      19.041 -15.389  -3.727  1.00  0.00    -0.268 OA
HETATM   27  N   UNL     1      19.519 -14.214  -1.877  1.00  0.00    -0.366 N 
ATOM     28  HN2 UNL     1      20.507 -14.442  -1.987  1.00  0.00     0.159 HD
ATOM     29  HN1 UNL     1      19.217 -13.642  -1.088  1.00  0.00     0.159 HD
ENDBRANCH  23  25
ENDBRANCH  13  19
ENDBRANCH   9  10
ENDBRANCH   8   9
ENDBRANCH   5   8
ENDBRANCH   4   5
ENDBRANCH   1   4
BRANCH   1  30
HETATM   30  O   UNL     1       8.485 -12.642  -9.610  1.00  0.00    -0.287 OA
BRANCH  30  31
HETATM   31  C   UNL     1       7.455 -13.496 -10.174  1.00  0.00     0.216 C 
BRANCH  31  32
HETATM   32  C   UNL     1       7.669 -13.490 -11.655  1.00  0.00     0.180 C 
HETATM   33  O   UNL     1       7.995 -12.159 -12.122  1.00  0.00    -0.353 OA
HETATM   34  C   UNL     1       9.048 -12.265 -13.052  1.00  0.00     0.262 C 
HETATM   35  C   UNL     1       9.903 -13.406 -12.526  1.00  0.00     0.198 C 
HETATM   36  C   UNL     1       8.792 -14.401 -12.179  1.00  0.00     0.182 C 
BRANCH  34  37
HETATM   37  N   UNL     1       9.710 -10.969 -13.155  1.00  0.00    -0.297 N 
HETATM   38  C   UNL     1      10.154 -10.225 -12.095  1.00  0.00     0.142 A 
HETATM   39  N   UNL     1       9.997 -10.505 -10.796  1.00  0.00    -0.336 N 
HETATM   40  C   UNL     1      10.781  -9.117 -12.628  1.00  0.00     0.122 A 
HETATM   41  C   UNL     1      10.511  -9.535 -10.050  1.00  0.00     0.183 A 
ATOM     42  HN  UNL     1       9.546 -11.345 -10.431  1.00  0.00     0.168 HD
HETATM   43  N   UNL     1      11.182  -8.441 -10.415  1.00  0.00    -0.337 N 
HETATM   44  C   UNL     1      11.295  -8.165 -11.733  1.00  0.00     0.131 A 
ATOM     45  HN  UNL     1      11.598  -7.827  -9.716  1.00  0.00     0.168 HD
HETATM   46  N   UNL     1      10.764  -9.182 -14.012  1.00  0.00    -0.346 N 
HETATM   47  C   UNL     1      10.129 -10.298 -14.274  1.00  0.00     0.188 A 
ATOM     48  HN  UNL     1      11.157  -8.515 -14.675  1.00  0.00     0.167 HD
BRANCH  44  49
HETATM   49  N   UNL     1      11.884  -7.029 -12.111  1.00  0.00    -0.383 N 
ATOM     50  HN2 UNL     1      11.764  -6.137 -11.630  1.00  0.00     0.157 HD
ATOM     51  HN1 UNL     1      12.490  -7.032 -12.931  1.00  0.00     0.157 HD
ENDBRANCH  44  49
ENDBRANCH  34  37
BRANCH  35  52
HETATM   52  O   UNL     1      10.816 -13.893 -13.481  1.00  0.00    -0.388 OA
ATOM     53  HO  UNL     1      11.284 -13.207 -13.943  1.00  0.00     0.210 HD
ENDBRANCH  35  52
BRANCH  36  54
HETATM   54  O   UNL     1       8.281 -15.063 -13.327  1.00  0.00    -0.390 OA
ATOM     55  HO  UNL     1       8.095 -15.958 -13.067  1.00  0.00     0.210 HD
ENDBRANCH  36  54
ENDBRANCH  31  32
ENDBRANCH  30  31
ENDBRANCH   1  30
TORSDOF 16
ENDMDL
MODEL 3
REMARK VINA RESULT:   -10.289      2.385      3.346
REMARK INTER + INTRA:         -21.287
REMARK INTER:                 -17.284
REMARK INTRA:                  -4.003
REMARK UNBOUND:                -2.878
REMARK  16 active torsions:
REMARK  status: ('A' for Active; 'I' for Inactive)
REMARK    1  A    between atoms: P_1  and  O_30 
REMARK    2  A    between atoms: P_1  and  O_4 
REMARK    3  A    between atoms: O_4  and  C_5 
REMARK    4  A    between atoms: C_5  and  C_6 
REMARK    5  A    between atoms: C_8  and  O_9 
REMARK    6  A    between atoms: C_11  and  O_12 
REMARK    7  A    between atoms: C_14  and  N_15 
REMARK    8  A    between atoms: C_20  and  N_21 
REMARK    9  A    between atoms: O_30  and  P_31 
REMARK   10  A    between atoms: P_31  and  O_34 
REMARK   11  A    between atoms: O_34  and  C_35 
REMARK   12  A    between atoms: C_35  and  C_36 
REMARK   13  A    between atoms: C_38  and  O_39 
REMARK   14  A    between atoms: C_41  and  O_42 
REMARK   15  A    between atoms: C_44  and  N_45 
REMARK   16  A    between atoms: C_47  and  C_48 
REMARK       I    between atoms: C_48  and  N_50 
ROOT
HETATM    1  P   UNL     1       8.665 -13.861  -9.179  1.00  0.00     0.417 P 
HETATM    2  O   UNL     1       7.729 -12.966  -8.409  1.00  0.00    -0.624 OA
HETATM    3  O   UNL     1      10.009 -13.339  -9.551  1.00  0.00    -0.624 OA
ENDROOT
BRANCH   1   4
HETATM    4  O   UNL     1       8.882 -15.189  -8.312  1.00  0.00    -0.180 OA
BRANCH   4   5
HETATM    5  P   UNL     1      10.043 -16.216  -7.951  1.00  0.00     0.417 P 
HETATM    6  O   UNL     1       9.437 -17.490  -7.494  1.00  0.00    -0.624 OA
HETATM    7  O   UNL     1      11.003 -16.170  -9.105  1.00  0.00    -0.624 OA
BRANCH   5   8
HETATM    8  O   UNL     1      10.779 -15.435  -6.773  1.00  0.00    -0.289 OA
BRANCH   8   9
HETATM    9  C   UNL     1      10.039 -15.024  -5.584  1.00  0.00     0.189 C 
BRANCH   9  10
HETATM   10  C   UNL     1      10.749 -13.816  -5.021  1.00  0.00     0.043 C 
HETATM   11  C   UNL     1      10.231 -12.486  -5.612  1.00  0.00     0.155 C 
HETATM   12  C   UNL     1      11.200 -12.205  -6.767  1.00  0.00     0.170 C 
HETATM   13  C   UNL     1      12.575 -12.623  -6.205  1.00  0.00     0.120 C 
HETATM   14  C   UNL     1      12.265 -13.835  -5.285  1.00  0.00     0.037 C 
BRANCH  11  15
HETATM   15  O   UNL     1      10.255 -11.467  -4.605  1.00  0.00    -0.392 OA
ATOM     16  HO  UNL     1       9.570 -11.575  -3.954  1.00  0.00     0.210 HD
ENDBRANCH  11  15
BRANCH  12  17
HETATM   17  O   UNL     1      11.168 -10.822  -7.117  1.00  0.00    -0.391 OA
ATOM     18  HO  UNL     1      11.324 -10.264  -6.364  1.00  0.00     0.210 HD
ENDBRANCH  12  17
BRANCH  13  19
HETATM   19  N   UNL     1      13.598 -12.944  -7.249  1.00  0.00    -0.358 N 
HETATM   20  C   UNL     1      14.885 -12.581  -7.087  1.00  0.00     0.091 A 
HETATM   21  C   UNL     1      15.837 -12.783  -8.055  1.00  0.00     0.018 A 
HETATM   22  C   UNL     1      15.508 -13.432  -9.219  1.00  0.00     0.020 A 
HETATM   23  C   UNL     1      14.195 -13.864  -9.398  1.00  0.00     0.047 A 
HETATM   24  C   UNL     1      13.243 -13.599  -8.414  1.00  0.00     0.108 A 
BRANCH  23  25
HETATM   25  C   UNL     1      13.776 -14.591 -10.650  1.00  0.00     0.250 C 
HETATM   26  O   UNL     1      14.605 -15.256 -11.277  1.00  0.00    -0.268 OA
HETATM   27  N   UNL     1      12.511 -14.494 -11.017  1.00  0.00    -0.366 N 
ATOM     28  HN2 UNL     1      12.227 -14.986 -11.865  1.00  0.00     0.159 HD
ATOM     29  HN1 UNL     1      11.826 -13.945 -10.499  1.00  0.00     0.159 HD
ENDBRANCH  23  25
ENDBRANCH  13  19
ENDBRANCH   9  10
ENDBRANCH   8   9
ENDBRANCH   5   8
ENDBRANCH   4   5
ENDBRANCH   1   4
BRANCH   1  30
HETATM   30  O   UNL     1       7.877 -14.277 -10.463  1.00  0.00    -0.287 OA
BRANCH  30  31
HETATM   31  C   UNL     1       7.026 -13.324 -11.153  1.00  0.00     0.216 C 
BRANCH  31  32
HETATM   32  C   UNL     1       7.516 -13.269 -12.565  1.00  0.00     0.180 C 
HETATM   33  O   UNL     1       7.946 -11.930 -12.909  1.00  0.00    -0.353 OA
HETATM   34  C   UNL     1       9.155 -12.027 -13.628  1.00  0.00     0.262 C 
HETATM   35  C   UNL     1       9.876 -13.206 -12.996  1.00  0.00     0.198 C 
HETATM   36  C   UNL     1       8.704 -14.187 -12.904  1.00  0.00     0.182 C 
BRANCH  34  37
HETATM   37  N   UNL     1       9.844 -10.744 -13.552  1.00  0.00    -0.297 N 
HETATM   38  C   UNL     1      10.223 -10.120 -12.394  1.00  0.00     0.142 A 
HETATM   39  N   UNL     1       9.967 -10.524 -11.144  1.00  0.00    -0.336 N 
HETATM   40  C   UNL     1      10.906  -8.980 -12.767  1.00  0.00     0.122 A 
HETATM   41  C   UNL     1      10.442  -9.645 -10.270  1.00  0.00     0.183 A 
ATOM     42  HN  UNL     1       9.476 -11.384 -10.899  1.00  0.00     0.168 HD
HETATM   43  N   UNL     1      11.156  -8.537 -10.475  1.00  0.00    -0.337 N 
HETATM   44  C   UNL     1      11.370  -8.135 -11.746  1.00  0.00     0.131 A 
ATOM     45  HN  UNL     1      11.531  -8.006  -9.689  1.00  0.00     0.168 HD
HETATM   46  N   UNL     1      10.989  -8.907 -14.149  1.00  0.00    -0.346 N 
HETATM   47  C   UNL     1      10.355  -9.976 -14.566  1.00  0.00     0.188 A 
ATOM     48  HN  UNL     1      11.441  -8.187 -14.712  1.00  0.00     0.167 HD
BRANCH  44  49
HETATM   49  N   UNL     1      12.005  -6.981 -11.965  1.00  0.00    -0.383 N 
ATOM     50  HN2 UNL     1      13.013  -6.859 -11.871  1.00  0.00     0.157 HD
ATOM     51  HN1 UNL     1      11.464  -6.161 -12.239  1.00  0.00     0.157 HD
ENDBRANCH  44  49
ENDBRANCH  34  37
BRANCH  35  52
HETATM   52  O   UNL     1      10.946 -13.679 -13.780  1.00  0.00    -0.388 OA
ATOM     53  HO  UNL     1      11.183 -13.094 -14.490  1.00  0.00     0.210 HD
ENDBRANCH  35  52
BRANCH  36  54
HETATM   54  O   UNL     1       8.409 -14.795 -14.153  1.00  0.00    -0.390 OA
ATOM     55  HO  UNL     1       7.924 -14.155 -14.663  1.00  0.00     0.210 HD
ENDBRANCH  36  54
ENDBRANCH  31  32
ENDBRANCH  30  31
ENDBRANCH   1  30
TORSDOF 16
ENDMDL
MODEL 4
REMARK VINA RESULT:   -10.275      1.592      9.535
REMARK INTER + INTRA:         -21.263
REMARK INTER:                 -19.091
REMARK INTRA:                  -2.172
REMARK UNBOUND:                -2.878
REMARK  16 active torsions:
REMARK  status: ('A' for Active; 'I' for Inactive)
REMARK    1  A    between atoms: P_1  and  O_30 
REMARK    2  A    between atoms: P_1  and  O_4 
REMARK    3  A    between atoms: O_4  and  C_5 
REMARK    4  A    between atoms: C_5  and  C_6 
REMARK    5  A    between atoms: C_8  and  O_9 
REMARK    6  A    between atoms: C_11  and  O_12 
REMARK    7  A    between atoms: C_14  and  N_15 
REMARK    8  A    between atoms: C_20  and  N_21 
REMARK    9  A    between atoms: O_30  and  P_31 
REMARK   10  A    between atoms: P_31  and  O_34 
REMARK   11  A    between atoms: O_34  and  C_35 
REMARK   12  A    between atoms: C_35  and  C_36 
REMARK   13  A    between atoms: C_38  and  O_39 
REMARK   14  A    between atoms: C_41  and  O_42 
REMARK   15  A    between atoms: C_44  and  N_45 
REMARK   16  A    between atoms: C_47  and  C_48 
REMARK       I    between atoms: C_48  and  N_50 
ROOT
HETATM    1  P   UNL     1      11.140 -14.824  -9.014  1.00  0.00     0.417 P 
HETATM    2  O   UNL     1       9.992 -15.767  -8.763  1.00  0.00    -0.624 OA
HETATM    3  O   UNL     1      12.037 -15.083 -10.174  1.00  0.00    -0.624 OA
ENDROOT
BRANCH   1   4
HETATM    4  O   UNL     1      10.526 -13.356  -9.191  1.00  0.00    -0.180 OA
BRANCH   4   5
HETATM    5  P   UNL     1       9.278 -12.505  -8.691  1.00  0.00     0.417 P 
HETATM    6  O   UNL     1       8.494 -13.316  -7.729  1.00  0.00    -0.624 OA
HETATM    7  O   UNL     1       9.825 -11.156  -8.321  1.00  0.00    -0.624 OA
BRANCH   5   8
HETATM    8  O   UNL     1       8.504 -12.272 -10.065  1.00  0.00    -0.289 OA
BRANCH   8   9
HETATM    9  C   UNL     1       7.323 -13.066 -10.390  1.00  0.00     0.189 C 
BRANCH   9  10
HETATM   10  C   UNL     1       7.397 -13.378 -11.866  1.00  0.00     0.043 C 
HETATM   11  C   UNL     1       8.571 -14.318 -12.221  1.00  0.00     0.155 C 
HETATM   12  C   UNL     1       9.694 -13.354 -12.624  1.00  0.00     0.170 C 
HETATM   13  C   UNL     1       8.967 -12.256 -13.427  1.00  0.00     0.120 C 
HETATM   14  C   UNL     1       7.583 -12.121 -12.736  1.00  0.00     0.037 C 
BRANCH  11  15
HETATM   15  O   UNL     1       8.181 -15.196 -13.285  1.00  0.00    -0.392 OA
ATOM     16  HO  UNL     1       7.287 -15.053 -13.573  1.00  0.00     0.210 HD
ENDBRANCH  11  15
BRANCH  12  17
HETATM   17  O   UNL     1      10.669 -14.033 -13.414  1.00  0.00    -0.391 OA
ATOM     18  HO  UNL     1      10.479 -13.968 -14.343  1.00  0.00     0.210 HD
ENDBRANCH  12  17
BRANCH  13  19
HETATM   19  N   UNL     1       9.700 -10.954 -13.497  1.00  0.00    -0.358 N 
HETATM   20  C   UNL     1      10.123 -10.463 -14.678  1.00  0.00     0.091 A 
HETATM   21  C   UNL     1      10.870  -9.315 -14.777  1.00  0.00     0.018 A 
HETATM   22  C   UNL     1      11.161  -8.585 -13.652  1.00  0.00     0.020 A 
HETATM   23  C   UNL     1      10.697  -9.039 -12.419  1.00  0.00     0.047 A 
HETATM   24  C   UNL     1       9.983 -10.234 -12.349  1.00  0.00     0.108 A 
BRANCH  23  25
HETATM   25  C   UNL     1      10.976  -8.275 -11.150  1.00  0.00     0.250 C 
HETATM   26  O   UNL     1      11.256  -7.075 -11.208  1.00  0.00    -0.268 OA
HETATM   27  N   UNL     1      10.891  -8.935 -10.008  1.00  0.00    -0.366 N 
ATOM     28  HN2 UNL     1      11.079  -8.418  -9.149  1.00  0.00     0.159 HD
ATOM     29  HN1 UNL     1      10.659  -9.927  -9.961  1.00  0.00     0.159 HD
ENDBRANCH  23  25
ENDBRANCH  13  19
ENDBRANCH   9  10
ENDBRANCH   8   9
ENDBRANCH   5   8
ENDBRANCH   4   5
ENDBRANCH   1   4
BRANCH   1  30
HETATM   30  O   UNL     1      11.967 -14.818  -7.688  1.00  0.00    -0.287 OA
BRANCH  30  31
HETATM   31  C   UNL     1      11.436 -15.420  -6.478  1.00  0.00     0.216 C 
BRANCH  31  32
HETATM   32  C   UNL     1      11.599 -14.400  -5.396  1.00  0.00     0.180 C 
HETATM   33  O   UNL     1      12.851 -14.591  -4.695  1.00  0.00    -0.353 OA
HETATM   34  C   UNL     1      13.440 -13.326  -4.495  1.00  0.00     0.262 C 
HETATM   35  C   UNL     1      13.069 -12.536  -5.739  1.00  0.00     0.198 C 
HETATM   36  C   UNL     1      11.594 -12.930  -5.846  1.00  0.00     0.182 C 
BRANCH  34  37
HETATM   37  N   UNL     1      14.868 -13.510  -4.259  1.00  0.00    -0.297 N 
HETATM   38  C   UNL     1      15.430 -13.844  -3.056  1.00  0.00     0.142 A 
HETATM   39  N   UNL     1      14.798 -13.983  -1.885  1.00  0.00    -0.336 N 
HETATM   40  C   UNL     1      16.784 -13.992  -3.283  1.00  0.00     0.122 A 
HETATM   41  C   UNL     1      15.668 -14.263  -0.923  1.00  0.00     0.183 A 
ATOM     42  HN  UNL     1      13.790 -13.888  -1.752  1.00  0.00     0.168 HD
HETATM   43  N   UNL     1      16.982 -14.481  -0.996  1.00  0.00    -0.337 N 
HETATM   44  C   UNL     1      17.600 -14.300  -2.183  1.00  0.00     0.131 A 
ATOM     45  HN  UNL     1      17.508 -14.777  -0.173  1.00  0.00     0.168 HD
HETATM   46  N   UNL     1      17.065 -13.789  -4.625  1.00  0.00    -0.346 N 
HETATM   47  C   UNL     1      15.900 -13.517  -5.161  1.00  0.00     0.188 A 
ATOM     48  HN  UNL     1      17.971 -13.841  -5.090  1.00  0.00     0.167 HD
BRANCH  44  49
HETATM   49  N   UNL     1      18.926 -14.426  -2.251  1.00  0.00    -0.383 N 
ATOM     50  HN2 UNL     1      19.452 -14.453  -3.126  1.00  0.00     0.157 HD
ATOM     51  HN1 UNL     1      19.463 -14.509  -1.388  1.00  0.00     0.157 HD
ENDBRANCH  44  49
ENDBRANCH  34  37
BRANCH  35  52
HETATM   52  O   UNL     1      13.273 -11.150  -5.591  1.00  0.00    -0.388 OA
ATOM     53  HO  UNL     1      12.496 -10.632  -5.765  1.00  0.00     0.210 HD
ENDBRANCH  35  52
BRANCH  36  54
HETATM   54  O   UNL     1      10.777 -12.222  -4.924  1.00  0.00    -0.390 OA
ATOM     55  HO  UNL     1      10.109 -11.778  -5.434  1.00  0.00     0.210 HD
ENDBRANCH  36  54
ENDBRANCH  31  32
ENDBRANCH  30  31
ENDBRANCH   1  30
TORSDOF 16
ENDMDL
MODEL 5
REMARK VINA RESULT:   -10.165      1.788      9.297
REMARK INTER + INTRA:         -21.065
REMARK INTER:                 -18.773
REMARK INTRA:                  -2.292
REMARK UNBOUND:                -2.878
REMARK  16 active torsions:
REMARK  status: ('A' for Active; 'I' for Inactive)
REMARK    1  A    between atoms: P_1  and  O_30 
REMARK    2  A    between atoms: P_1  and  O_4 
REMARK    3  A    between atoms: O_4  and  C_5 
REMARK    4  A    between atoms: C_5  and  C_6 
REMARK    5  A    between atoms: C_8  and  O_9 
REMARK    6  A    between atoms: C_11  and  O_12 
REMARK    7  A    between atoms: C_14  and  N_15 
REMARK    8  A    between atoms: C_20  and  N_21 
REMARK    9  A    between atoms: O_30  and  P_31 
REMARK   10  A    between atoms: P_31  and  O_34 
REMARK   11  A    between atoms: O_34  and  C_35 
REMARK   12  A    between atoms: C_35  and  C_36 
REMARK   13  A    between atoms: C_38  and  O_39 
REMARK   14  A    between atoms: C_41  and  O_42 
REMARK   15  A    between atoms: C_44  and  N_45 
REMARK   16  A    between atoms: C_47  and  C_48 
REMARK       I    between atoms: C_48  and  N_50 
ROOT
HETATM    1  P   UNL     1      12.123 -16.536  -7.509  1.00  0.00     0.417 P 
HETATM    2  O   UNL     1      12.002 -18.037  -7.493  1.00  0.00    -0.624 OA
HETATM    3  O   UNL     1      13.437 -15.929  -7.862  1.00  0.00    -0.624 OA
ENDROOT
BRANCH   1   4
HETATM    4  O   UNL     1      11.035 -15.976  -8.541  1.00  0.00    -0.180 OA
BRANCH   4   5
HETATM    5  P   UNL     1      10.923 -14.897  -9.705  1.00  0.00     0.417 P 
HETATM    6  O   UNL     1      11.375 -13.582  -9.191  1.00  0.00    -0.624 OA
HETATM    7  O   UNL     1      11.554 -15.529 -10.912  1.00  0.00    -0.624 OA
BRANCH   5   8
HETATM    8  O   UNL     1       9.356 -14.930  -9.996  1.00  0.00    -0.289 OA
BRANCH   8   9
HETATM    9  C   UNL     1       8.596 -13.688 -10.092  1.00  0.00     0.189 C 
BRANCH   9  10
HETATM   10  C   UNL     1       7.995 -13.648 -11.476  1.00  0.00     0.043 C 
HETATM   11  C   UNL     1       8.787 -14.493 -12.498  1.00  0.00     0.155 C 
HETATM   12  C   UNL     1       9.731 -13.475 -13.151  1.00  0.00     0.170 C 
HETATM   13  C   UNL     1       8.861 -12.211 -13.306  1.00  0.00     0.120 C 
HETATM   14  C   UNL     1       7.932 -12.225 -12.061  1.00  0.00     0.037 C 
BRANCH  11  15
HETATM   15  O   UNL     1       7.883 -15.093 -13.434  1.00  0.00    -0.392 OA
ATOM     16  HO  UNL     1       8.132 -14.941 -14.338  1.00  0.00     0.210 HD
ENDBRANCH  11  15
BRANCH  12  17
HETATM   17  O   UNL     1      10.190 -13.962 -14.411  1.00  0.00    -0.391 OA
ATOM     18  HO  UNL     1       9.505 -13.939 -15.070  1.00  0.00     0.210 HD
ENDBRANCH  12  17
BRANCH  13  19
HETATM   19  N   UNL     1       9.637 -10.937 -13.425  1.00  0.00    -0.358 N 
HETATM   20  C   UNL     1      10.047 -10.490 -14.628  1.00  0.00     0.091 A 
HETATM   21  C   UNL     1      10.831  -9.372 -14.773  1.00  0.00     0.018 A 
HETATM   22  C   UNL     1      11.174  -8.626 -13.673  1.00  0.00     0.020 A 
HETATM   23  C   UNL     1      10.725  -9.034 -12.419  1.00  0.00     0.047 A 
HETATM   24  C   UNL     1       9.972 -10.201 -12.303  1.00  0.00     0.108 A 
BRANCH  23  25
HETATM   25  C   UNL     1      11.061  -8.249 -11.176  1.00  0.00     0.250 C 
HETATM   26  O   UNL     1      11.487  -7.096 -11.278  1.00  0.00    -0.268 OA
HETATM   27  N   UNL     1      10.864  -8.839 -10.010  1.00  0.00    -0.366 N 
ATOM     28  HN2 UNL     1      11.091  -8.308  -9.169  1.00  0.00     0.159 HD
ATOM     29  HN1 UNL     1      10.512  -9.792  -9.927  1.00  0.00     0.159 HD
ENDBRANCH  23  25
ENDBRANCH  13  19
ENDBRANCH   9  10
ENDBRANCH   8   9
ENDBRANCH   5   8
ENDBRANCH   4   5
ENDBRANCH   1   4
BRANCH   1  30
HETATM   30  O   UNL     1      11.684 -16.070  -6.084  1.00  0.00    -0.287 OA
BRANCH  30  31
HETATM   31  C   UNL     1      10.482 -15.276  -5.899  1.00  0.00     0.216 C 
BRANCH  31  32
HETATM   32  C   UNL     1      10.880 -14.102  -5.062  1.00  0.00     0.180 C 
HETATM   33  O   UNL     1      12.236 -14.251  -4.577  1.00  0.00    -0.353 OA
HETATM   34  C   UNL     1      12.891 -13.011  -4.714  1.00  0.00     0.262 C 
HETATM   35  C   UNL     1      12.317 -12.420  -5.991  1.00  0.00     0.198 C 
HETATM   36  C   UNL     1      10.836 -12.730  -5.758  1.00  0.00     0.182 C 
BRANCH  34  37
HETATM   37  N   UNL     1      14.331 -13.243  -4.711  1.00  0.00    -0.297 N 
HETATM   38  C   UNL     1      15.061 -13.648  -3.626  1.00  0.00     0.142 A 
HETATM   39  N   UNL     1      14.613 -13.823  -2.377  1.00  0.00    -0.336 N 
HETATM   40  C   UNL     1      16.358 -13.821  -4.067  1.00  0.00     0.122 A 
HETATM   41  C   UNL     1      15.611 -14.169  -1.574  1.00  0.00     0.183 A 
ATOM     42  HN  UNL     1      13.642 -13.707  -2.085  1.00  0.00     0.168 HD
HETATM   43  N   UNL     1      16.890 -14.419  -1.860  1.00  0.00    -0.337 N 
HETATM   44  C   UNL     1      17.323 -14.200  -3.121  1.00  0.00     0.131 A 
ATOM     45  HN  UNL     1      17.527 -14.766  -1.143  1.00  0.00     0.168 HD
HETATM   46  N   UNL     1      16.434 -13.565  -5.427  1.00  0.00    -0.346 N 
HETATM   47  C   UNL     1      15.210 -13.237  -5.763  1.00  0.00     0.188 A 
ATOM     48  HN  UNL     1      17.256 -13.620  -6.029  1.00  0.00     0.167 HD
BRANCH  44  49
HETATM   49  N   UNL     1      18.618 -14.359  -3.400  1.00  0.00    -0.383 N 
ATOM     50  HN2 UNL     1      19.326 -13.641  -3.247  1.00  0.00     0.157 HD
ATOM     51  HN1 UNL     1      18.936 -15.244  -3.797  1.00  0.00     0.157 HD
ENDBRANCH  44  49
ENDBRANCH  34  37
BRANCH  35  52
HETATM   52  O   UNL     1      12.589 -11.045  -6.130  1.00  0.00    -0.388 OA
ATOM     53  HO  UNL     1      12.469 -10.552  -5.327  1.00  0.00     0.210 HD
ENDBRANCH  35  52
BRANCH  36  54
HETATM   54  O   UNL     1      10.231 -11.826  -4.844  1.00  0.00    -0.390 OA
ATOM     55  HO  UNL     1       9.381 -12.188  -4.621  1.00  0.00     0.210 HD
ENDBRANCH  36  54
ENDBRANCH  31  32
ENDBRANCH  30  31
ENDBRANCH   1  30
TORSDOF 16
ENDMDL
MODEL 6
REMARK VINA RESULT:    -9.782      1.546      2.297
REMARK INTER + INTRA:         -20.380
REMARK INTER:                 -18.292
REMARK INTRA:                  -2.088
REMARK UNBOUND:                -2.878
REMARK  16 active torsions:
REMARK  status: ('A' for Active; 'I' for Inactive)
REMARK    1  A    between atoms: P_1  and  O_30 
REMARK    2  A    between atoms: P_1  and  O_4 
REMARK    3  A    between atoms: O_4  and  C_5 
REMARK    4  A    between atoms: C_5  and  C_6 
REMARK    5  A    between atoms: C_8  and  O_9 
REMARK    6  A    between atoms: C_11  and  O_12 
REMARK    7  A    between atoms: C_14  and  N_15 
REMARK    8  A    between atoms: C_20  and  N_21 
REMARK    9  A    between atoms: O_30  and  P_31 
REMARK   10  A    between atoms: P_31  and  O_34 
REMARK   11  A    between atoms: O_34  and  C_35 
REMARK   12  A    between atoms: C_35  and  C_36 
REMARK   13  A    between atoms: C_38  and  O_39 
REMARK   14  A    between atoms: C_41  and  O_42 
REMARK   15  A    between atoms: C_44  and  N_45 
REMARK   16  A    between atoms: C_47  and  C_48 
REMARK       I    between atoms: C_48  and  N_50 
ROOT
HETATM    1  P   UNL     1      12.599 -14.737 -10.703  1.00  0.00     0.417 P 
HETATM    2  O   UNL     1      12.752 -13.406 -10.013  1.00  0.00    -0.624 OA
HETATM    3  O   UNL     1      13.701 -15.218 -11.580  1.00  0.00    -0.624 OA
ENDROOT
BRANCH   1   4
HETATM    4  O   UNL     1      12.361 -15.841  -9.568  1.00  0.00    -0.180 OA
BRANCH   4   5
HETATM    5  P   UNL     1      12.547 -16.012  -7.997  1.00  0.00     0.417 P 
HETATM    6  O   UNL     1      12.284 -17.424  -7.630  1.00  0.00    -0.624 OA
HETATM    7  O   UNL     1      13.848 -15.341  -7.663  1.00  0.00    -0.624 OA
BRANCH   5   8
HETATM    8  O   UNL     1      11.422 -15.022  -7.453  1.00  0.00    -0.289 OA
BRANCH   8   9
HETATM    9  C   UNL     1      10.524 -15.442  -6.381  1.00  0.00     0.189 C 
BRANCH   9  10
HETATM   10  C   UNL     1      10.410 -14.280  -5.424  1.00  0.00     0.043 C 
HETATM   11  C   UNL     1      10.473 -12.909  -6.135  1.00  0.00     0.155 C 
HETATM   12  C   UNL     1      11.953 -12.521  -6.036  1.00  0.00     0.170 C 
HETATM   13  C   UNL     1      12.359 -12.971  -4.618  1.00  0.00     0.120 C 
HETATM   14  C   UNL     1      11.530 -14.261  -4.368  1.00  0.00     0.037 C 
BRANCH  11  15
HETATM   15  O   UNL     1       9.608 -11.980  -5.470  1.00  0.00    -0.392 OA
ATOM     16  HO  UNL     1       9.918 -11.083  -5.524  1.00  0.00     0.210 HD
ENDBRANCH  11  15
BRANCH  12  17
HETATM   17  O   UNL     1      12.109 -11.113  -6.211  1.00  0.00    -0.391 OA
ATOM     18  HO  UNL     1      12.718 -10.744  -5.581  1.00  0.00     0.210 HD
ENDBRANCH  12  17
BRANCH  13  19
HETATM   19  N   UNL     1      13.828 -13.192  -4.435  1.00  0.00    -0.358 N 
HETATM   20  C   UNL     1      14.673 -13.105  -5.480  1.00  0.00     0.091 A 
HETATM   21  C   UNL     1      16.014 -13.381  -5.372  1.00  0.00     0.018 A 
HETATM   22  C   UNL     1      16.553 -13.701  -4.150  1.00  0.00     0.020 A 
HETATM   23  C   UNL     1      15.714 -13.752  -3.039  1.00  0.00     0.047 A 
HETATM   24  C   UNL     1      14.349 -13.514  -3.195  1.00  0.00     0.108 A 
BRANCH  23  25
HETATM   25  C   UNL     1      16.250 -14.088  -1.671  1.00  0.00     0.250 C 
HETATM   26  O   UNL     1      17.451 -14.333  -1.528  1.00  0.00    -0.268 OA
HETATM   27  N   UNL     1      15.395 -14.089  -0.664  1.00  0.00    -0.366 N 
ATOM     28  HN2 UNL     1      15.758 -14.316   0.263  1.00  0.00     0.159 HD
ATOM     29  HN1 UNL     1      14.403 -13.887  -0.782  1.00  0.00     0.159 HD
ENDBRANCH  23  25
ENDBRANCH  13  19
ENDBRANCH   9  10
ENDBRANCH   8   9
ENDBRANCH   5   8
ENDBRANCH   4   5
ENDBRANCH   1   4
BRANCH   1  30
HETATM   30  O   UNL     1      11.271 -14.628 -11.520  1.00  0.00    -0.287 OA
BRANCH  30  31
HETATM   31  C   UNL     1      10.118 -15.442 -11.176  1.00  0.00     0.216 C 
BRANCH  31  32
HETATM   32  C   UNL     1       8.921 -14.556 -11.322  1.00  0.00     0.180 C 
HETATM   33  O   UNL     1       9.309 -13.161 -11.303  1.00  0.00    -0.353 OA
HETATM   34  C   UNL     1       8.589 -12.491 -12.313  1.00  0.00     0.262 C 
HETATM   35  C   UNL     1       8.476 -13.510 -13.435  1.00  0.00     0.198 C 
HETATM   36  C   UNL     1       8.097 -14.741 -12.607  1.00  0.00     0.182 C 
BRANCH  34  37
HETATM   37  N   UNL     1       9.291 -11.256 -12.643  1.00  0.00    -0.297 N 
HETATM   38  C   UNL     1       9.915 -10.439 -11.738  1.00  0.00     0.142 A 
HETATM   39  N   UNL     1       9.927 -10.577 -10.408  1.00  0.00    -0.336 N 
HETATM   40  C   UNL     1      10.514  -9.431 -12.467  1.00  0.00     0.122 A 
HETATM   41  C   UNL     1      10.586  -9.571  -9.846  1.00  0.00     0.183 A 
ATOM     42  HN  UNL     1       9.491 -11.346  -9.897  1.00  0.00     0.168 HD
HETATM   43  N   UNL     1      11.251  -8.563 -10.414  1.00  0.00    -0.337 N 
HETATM   44  C   UNL     1      11.193  -8.429 -11.757  1.00  0.00     0.131 A 
ATOM     45  HN  UNL     1      11.790  -7.909  -9.846  1.00  0.00     0.168 HD
HETATM   46  N   UNL     1      10.302  -9.634 -13.821  1.00  0.00    -0.346 N 
HETATM   47  C   UNL     1       9.583 -10.729 -13.874  1.00  0.00     0.188 A 
ATOM     48  HN  UNL     1      10.630  -9.062 -14.599  1.00  0.00     0.167 HD
BRANCH  44  49
HETATM   49  N   UNL     1      11.778  -7.375 -12.330  1.00  0.00    -0.383 N 
ATOM     50  HN2 UNL     1      12.458  -7.443 -13.088  1.00  0.00     0.157 HD
ATOM     51  HN1 UNL     1      11.548  -6.438 -12.000  1.00  0.00     0.157 HD
ENDBRANCH  44  49
ENDBRANCH  34  37
BRANCH  35  52
HETATM   52  O   UNL     1       7.510 -13.160 -14.399  1.00  0.00    -0.388 OA
ATOM     53  HO  UNL     1       7.883 -12.859 -15.218  1.00  0.00     0.210 HD
ENDBRANCH  35  52
BRANCH  36  54
HETATM   54  O   UNL     1       6.730 -14.734 -12.222  1.00  0.00    -0.390 OA
ATOM     55  HO  UNL     1       6.696 -14.388 -11.337  1.00  0.00     0.210 HD
ENDBRANCH  36  54
ENDBRANCH  31  32
ENDBRANCH  30  31
ENDBRANCH   1  30
TORSDOF 16
ENDMDL
MODEL 7
REMARK VINA RESULT:    -9.530      1.968      8.668
REMARK INTER + INTRA:         -19.929
REMARK INTER:                 -17.081
REMARK INTRA:                  -2.849
REMARK UNBOUND:                -2.878
REMARK  16 active torsions:
REMARK  status: ('A' for Active; 'I' for Inactive)
REMARK    1  A    between atoms: P_1  and  O_30 
REMARK    2  A    between atoms: P_1  and  O_4 
REMARK    3  A    between atoms: O_4  and  C_5 
REMARK    4  A    between atoms: C_5  and  C_6 
REMARK    5  A    between atoms: C_8  and  O_9 
REMARK    6  A    between atoms: C_11  and  O_12 
REMARK    7  A    between atoms: C_14  and  N_15 
REMARK    8  A    between atoms: C_20  and  N_21 
REMARK    9  A    between atoms: O_30  and  P_31 
REMARK   10  A    between atoms: P_31  and  O_34 
REMARK   11  A    between atoms: O_34  and  C_35 
REMARK   12  A    between atoms: C_35  and  C_36 
REMARK   13  A    between atoms: C_38  and  O_39 
REMARK   14  A    between atoms: C_41  and  O_42 
REMARK   15  A    between atoms: C_44  and  N_45 
REMARK   16  A    between atoms: C_47  and  C_48 
REMARK       I    between atoms: C_48  and  N_50 
ROOT
HETATM    1  P   UNL     1       9.468 -13.746  -8.204  1.00  0.00     0.417 P 
HETATM    2  O   UNL     1       8.515 -12.840  -7.468  1.00  0.00    -0.624 OA
HETATM    3  O   UNL     1      10.034 -14.922  -7.487  1.00  0.00    -0.624 OA
ENDROOT
BRANCH   1   4
HETATM    4  O   UNL     1       8.709 -14.288  -9.504  1.00  0.00    -0.180 OA
BRANCH   4   5
HETATM    5  P   UNL     1       8.600 -15.620 -10.367  1.00  0.00     0.417 P 
HETATM    6  O   UNL     1       9.944 -15.969 -10.890  1.00  0.00    -0.624 OA
HETATM    7  O   UNL     1       7.806 -16.584  -9.534  1.00  0.00    -0.624 OA
BRANCH   5   8
HETATM    8  O   UNL     1       7.603 -15.152 -11.519  1.00  0.00    -0.289 OA
BRANCH   8   9
HETATM    9  C   UNL     1       7.413 -13.732 -11.799  1.00  0.00     0.189 C 
BRANCH   9  10
HETATM   10  C   UNL     1       7.569 -13.555 -13.291  1.00  0.00     0.043 C 
HETATM   11  C   UNL     1       8.780 -14.325 -13.862  1.00  0.00     0.155 C 
HETATM   12  C   UNL     1       9.899 -13.276 -13.874  1.00  0.00     0.170 C 
HETATM   13  C   UNL     1       9.189 -11.983 -14.323  1.00  0.00     0.120 C 
HETATM   14  C   UNL     1       7.769 -12.085 -13.702  1.00  0.00     0.037 C 
BRANCH  11  15
HETATM   15  O   UNL     1       8.465 -14.818 -15.171  1.00  0.00    -0.392 OA
ATOM     16  HO  UNL     1       8.235 -15.740 -15.172  1.00  0.00     0.210 HD
ENDBRANCH  11  15
BRANCH  12  17
HETATM   17  O   UNL     1      10.929 -13.660 -14.784  1.00  0.00    -0.391 OA
ATOM     18  HO  UNL     1      10.804 -13.273 -15.643  1.00  0.00     0.210 HD
ENDBRANCH  12  17
BRANCH  13  19
HETATM   19  N   UNL     1       9.894 -10.723 -13.933  1.00  0.00    -0.358 N 
HETATM   20  C   UNL     1      10.453  -9.928 -14.866  1.00  0.00     0.091 A 
HETATM   21  C   UNL     1      11.179  -8.808 -14.544  1.00  0.00     0.018 A 
HETATM   22  C   UNL     1      11.305  -8.424 -13.232  1.00  0.00     0.020 A 
HETATM   23  C   UNL     1      10.698  -9.197 -12.245  1.00  0.00     0.047 A 
HETATM   24  C   UNL     1      10.009 -10.355 -12.604  1.00  0.00     0.108 A 
BRANCH  23  25
HETATM   25  C   UNL     1      10.793  -8.820 -10.789  1.00  0.00     0.250 C 
HETATM   26  O   UNL     1      11.200  -7.699 -10.473  1.00  0.00    -0.268 OA
HETATM   27  N   UNL     1      10.414  -9.720  -9.899  1.00  0.00    -0.366 N 
ATOM     28  HN2 UNL     1      10.478  -9.465  -8.913  1.00  0.00     0.159 HD
ATOM     29  HN1 UNL     1      10.078 -10.646 -10.160  1.00  0.00     0.159 HD
ENDBRANCH  23  25
ENDBRANCH  13  19
ENDBRANCH   9  10
ENDBRANCH   8   9
ENDBRANCH   5   8
ENDBRANCH   4   5
ENDBRANCH   1   4
BRANCH   1  30
HETATM   30  O   UNL     1      10.621 -12.816  -8.701  1.00  0.00    -0.287 OA
BRANCH  30  31
HETATM   31  C   UNL     1      11.283 -13.066  -9.970  1.00  0.00     0.216 C 
BRANCH  31  32
HETATM   32  C   UNL     1      12.722 -13.318  -9.650  1.00  0.00     0.180 C 
HETATM   33  O   UNL     1      13.009 -12.980  -8.271  1.00  0.00    -0.353 OA
HETATM   34  C   UNL     1      13.824 -13.995  -7.730  1.00  0.00     0.262 C 
HETATM   35  C   UNL     1      13.330 -15.270  -8.394  1.00  0.00     0.198 C 
HETATM   36  C   UNL     1      13.212 -14.764  -9.834  1.00  0.00     0.182 C 
BRANCH  34  37
HETATM   37  N   UNL     1      13.718 -13.951  -6.276  1.00  0.00    -0.297 N 
HETATM   38  C   UNL     1      14.773 -13.822  -5.413  1.00  0.00     0.142 A 
HETATM   39  N   UNL     1      16.072 -13.793  -5.733  1.00  0.00    -0.336 N 
HETATM   40  C   UNL     1      14.236 -13.746  -4.144  1.00  0.00     0.122 A 
HETATM   41  C   UNL     1      16.814 -13.710  -4.635  1.00  0.00     0.183 A 
ATOM     42  HN  UNL     1      16.440 -13.830  -6.684  1.00  0.00     0.168 HD
HETATM   43  N   UNL     1      16.443 -13.582  -3.360  1.00  0.00    -0.337 N 
HETATM   44  C   UNL     1      15.127 -13.649  -3.063  1.00  0.00     0.131 A 
ATOM     45  HN  UNL     1      17.136 -13.438  -2.627  1.00  0.00     0.168 HD
HETATM   46  N   UNL     1      12.852 -13.789  -4.212  1.00  0.00    -0.346 N 
HETATM   47  C   UNL     1      12.595 -13.901  -5.492  1.00  0.00     0.188 A 
ATOM     48  HN  UNL     1      12.186 -13.743  -3.441  1.00  0.00     0.167 HD
BRANCH  44  49
HETATM   49  N   UNL     1      14.746 -13.613  -1.785  1.00  0.00    -0.383 N 
ATOM     50  HN2 UNL     1      15.169 -14.179  -1.048  1.00  0.00     0.157 HD
ATOM     51  HN1 UNL     1      13.984 -12.994  -1.510  1.00  0.00     0.157 HD
ENDBRANCH  44  49
ENDBRANCH  34  37
BRANCH  35  52
HETATM   52  O   UNL     1      14.225 -16.348  -8.247  1.00  0.00    -0.388 OA
ATOM     53  HO  UNL     1      13.843 -17.101  -7.812  1.00  0.00     0.210 HD
ENDBRANCH  35  52
BRANCH  36  54
HETATM   54  O   UNL     1      14.472 -14.691 -10.486  1.00  0.00    -0.390 OA
ATOM     55  HO  UNL     1      14.550 -15.472 -11.021  1.00  0.00     0.210 HD
ENDBRANCH  36  54
ENDBRANCH  31  32
ENDBRANCH  30  31
ENDBRANCH   1  30
TORSDOF 16
ENDMDL
MODEL 8
REMARK VINA RESULT:    -9.270      2.005      9.089
REMARK INTER + INTRA:         -19.465
REMARK INTER:                 -16.758
REMARK INTRA:                  -2.707
REMARK UNBOUND:                -2.878
REMARK  16 active torsions:
REMARK  status: ('A' for Active; 'I' for Inactive)
REMARK    1  A    between atoms: P_1  and  O_30 
REMARK    2  A    between atoms: P_1  and  O_4 
REMARK    3  A    between atoms: O_4  and  C_5 
REMARK    4  A    between atoms: C_5  and  C_6 
REMARK    5  A    between atoms: C_8  and  O_9 
REMARK    6  A    between atoms: C_11  and  O_12 
REMARK    7  A    between atoms: C_14  and  N_15 
REMARK    8  A    between atoms: C_20  and  N_21 
REMARK    9  A    between atoms: O_30  and  P_31 
REMARK   10  A    between atoms: P_31  and  O_34 
REMARK   11  A    between atoms: O_34  and  C_35 
REMARK   12  A    between atoms: C_35  and  C_36 
REMARK   13  A    between atoms: C_38  and  O_39 
REMARK   14  A    between atoms: C_41  and  O_42 
REMARK   15  A    between atoms: C_44  and  N_45 
REMARK   16  A    between atoms: C_47  and  C_48 
REMARK       I    between atoms: C_48  and  N_50 
ROOT
HETATM    1  P   UNL     1      10.956 -16.057  -8.195  1.00  0.00     0.417 P 
HETATM    2  O   UNL     1      10.542 -17.321  -7.487  1.00  0.00    -0.624 OA
HETATM    3  O   UNL     1      12.284 -16.016  -8.865  1.00  0.00    -0.624 OA
ENDROOT
BRANCH   1   4
HETATM    4  O   UNL     1       9.842 -15.739  -9.300  1.00  0.00    -0.180 OA
BRANCH   4   5
HETATM    5  P   UNL     1       8.257 -15.677  -9.428  1.00  0.00     0.417 P 
HETATM    6  O   UNL     1       7.716 -17.058  -9.413  1.00  0.00    -0.624 OA
HETATM    7  O   UNL     1       7.806 -14.644  -8.437  1.00  0.00    -0.624 OA
BRANCH   5   8
HETATM    8  O   UNL     1       8.099 -14.978 -10.852  1.00  0.00    -0.289 OA
BRANCH   8   9
HETATM    9  C   UNL     1       7.442 -15.679 -11.951  1.00  0.00     0.189 C 
BRANCH   9  10
HETATM   10  C   UNL     1       6.824 -14.625 -12.837  1.00  0.00     0.043 C 
HETATM   11  C   UNL     1       7.442 -14.594 -14.253  1.00  0.00     0.155 C 
HETATM   12  C   UNL     1       8.524 -13.512 -14.148  1.00  0.00     0.170 C 
HETATM   13  C   UNL     1       7.871 -12.419 -13.279  1.00  0.00     0.120 C 
HETATM   14  C   UNL     1       6.982 -13.201 -12.274  1.00  0.00     0.037 C 
BRANCH  11  15
HETATM   15  O   UNL     1       6.429 -14.276 -15.215  1.00  0.00    -0.392 OA
ATOM     16  HO  UNL     1       6.544 -13.415 -15.602  1.00  0.00     0.210 HD
ENDBRANCH  11  15
BRANCH  12  17
HETATM   17  O   UNL     1       8.867 -13.026 -15.445  1.00  0.00    -0.391 OA
ATOM     18  HO  UNL     1       9.370 -13.663 -15.940  1.00  0.00     0.210 HD
ENDBRANCH  12  17
BRANCH  13  19
HETATM   19  N   UNL     1       8.842 -11.509 -12.594  1.00  0.00    -0.358 N 
HETATM   20  C   UNL     1       9.300 -10.401 -13.208  1.00  0.00     0.091 A 
HETATM   21  C   UNL     1      10.253  -9.587 -12.650  1.00  0.00     0.018 A 
HETATM   22  C   UNL     1      10.733  -9.852 -11.391  1.00  0.00     0.020 A 
HETATM   23  C   UNL     1      10.244 -10.964 -10.708  1.00  0.00     0.047 A 
HETATM   24  C   UNL     1       9.313 -11.797 -11.325  1.00  0.00     0.108 A 
BRANCH  23  25
HETATM   25  C   UNL     1      10.726 -11.301  -9.320  1.00  0.00     0.250 C 
HETATM   26  O   UNL     1      11.204 -12.416  -9.092  1.00  0.00    -0.268 OA
HETATM   27  N   UNL     1      10.627 -10.363  -8.395  1.00  0.00    -0.366 N 
ATOM     28  HN2 UNL     1      10.953 -10.591  -7.456  1.00  0.00     0.159 HD
ATOM     29  HN1 UNL     1      10.232  -9.442  -8.584  1.00  0.00     0.159 HD
ENDBRANCH  23  25
ENDBRANCH  13  19
ENDBRANCH   9  10
ENDBRANCH   8   9
ENDBRANCH   5   8
ENDBRANCH   4   5
ENDBRANCH   1   4
BRANCH   1  30
HETATM   30  O   UNL     1      10.864 -14.930  -7.116  1.00  0.00    -0.287 OA
BRANCH  30  31
HETATM   31  C   UNL     1      10.515 -15.243  -5.742  1.00  0.00     0.216 C 
BRANCH  31  32
HETATM   32  C   UNL     1      10.931 -14.063  -4.923  1.00  0.00     0.180 C 
HETATM   33  O   UNL     1      12.288 -14.223  -4.443  1.00  0.00    -0.353 OA
HETATM   34  C   UNL     1      12.958 -12.993  -4.602  1.00  0.00     0.262 C 
HETATM   35  C   UNL     1      12.384 -12.412  -5.883  1.00  0.00     0.198 C 
HETATM   36  C   UNL     1      10.901 -12.701  -5.637  1.00  0.00     0.182 C 
BRANCH  34  37
HETATM   37  N   UNL     1      14.395 -13.243  -4.603  1.00  0.00    -0.297 N 
HETATM   38  C   UNL     1      15.130 -13.622  -3.512  1.00  0.00     0.142 A 
HETATM   39  N   UNL     1      14.691 -13.751  -2.255  1.00  0.00    -0.336 N 
HETATM   40  C   UNL     1      16.420 -13.825  -3.958  1.00  0.00     0.122 A 
HETATM   41  C   UNL     1      15.692 -14.084  -1.449  1.00  0.00     0.183 A 
ATOM     42  HN  UNL     1      13.724 -13.613  -1.958  1.00  0.00     0.168 HD
HETATM   43  N   UNL     1      16.965 -14.359  -1.738  1.00  0.00    -0.337 N 
HETATM   44  C   UNL     1      17.389 -14.186  -3.009  1.00  0.00     0.131 A 
ATOM     45  HN  UNL     1      17.604 -14.691  -1.015  1.00  0.00     0.168 HD
HETATM   46  N   UNL     1      16.488 -13.614  -5.327  1.00  0.00    -0.346 N 
HETATM   47  C   UNL     1      15.265 -13.282  -5.662  1.00  0.00     0.188 A 
ATOM     48  HN  UNL     1      17.303 -13.699  -5.934  1.00  0.00     0.167 HD
BRANCH  44  49
HETATM   49  N   UNL     1      18.680 -14.371  -3.294  1.00  0.00    -0.383 N 
ATOM     50  HN2 UNL     1      19.016 -14.826  -4.143  1.00  0.00     0.157 HD
ATOM     51  HN1 UNL     1      19.386 -14.048  -2.633  1.00  0.00     0.157 HD
ENDBRANCH  44  49
ENDBRANCH  34  37
BRANCH  35  52
HETATM   52  O   UNL     1      12.672 -11.042  -6.043  1.00  0.00    -0.388 OA
ATOM     53  HO  UNL     1      12.567 -10.538  -5.245  1.00  0.00     0.210 HD
ENDBRANCH  35  52
BRANCH  36  54
HETATM   54  O   UNL     1      10.313 -11.777  -4.733  1.00  0.00    -0.390 OA
ATOM     55  HO  UNL     1      10.962 -11.599  -4.061  1.00  0.00     0.210 HD
ENDBRANCH  36  54
ENDBRANCH  31  32
ENDBRANCH  30  31
ENDBRANCH   1  30
TORSDOF 16
ENDMDL
MODEL 9
REMARK VINA RESULT:    -9.214      3.187      4.231
REMARK INTER + INTRA:         -19.364
REMARK INTER:                 -17.396
REMARK INTRA:                  -1.968
REMARK UNBOUND:                -2.878
REMARK  16 active torsions:
REMARK  status: ('A' for Active; 'I' for Inactive)
REMARK    1  A    between atoms: P_1  and  O_30 
REMARK    2  A    between atoms: P_1  and  O_4 
REMARK    3  A    between atoms: O_4  and  C_5 
REMARK    4  A    between atoms: C_5  and  C_6 
REMARK    5  A    between atoms: C_8  and  O_9 
REMARK    6  A    between atoms: C_11  and  O_12 
REMARK    7  A    between atoms: C_14  and  N_15 
REMARK    8  A    between atoms: C_20  and  N_21 
REMARK    9  A    between atoms: O_30  and  P_31 
REMARK   10  A    between atoms: P_31  and  O_34 
REMARK   11  A    between atoms: O_34  and  C_35 
REMARK   12  A    between atoms: C_35  and  C_36 
REMARK   13  A    between atoms: C_38  and  O_39 
REMARK   14  A    between atoms: C_41  and  O_42 
REMARK   15  A    between atoms: C_44  and  N_45 
REMARK   16  A    between atoms: C_47  and  C_48 
REMARK       I    between atoms: C_48  and  N_50 
ROOT
HETATM    1  P   UNL     1       7.926 -13.475 -11.163  1.00  0.00     0.417 P 
HETATM    2  O   UNL     1       7.435 -13.439  -9.739  1.00  0.00    -0.624 OA
HETATM    3  O   UNL     1       8.251 -12.190 -11.840  1.00  0.00    -0.624 OA
ENDROOT
BRANCH   1   4
HETATM    4  O   UNL     1       9.240 -14.389 -11.195  1.00  0.00    -0.180 OA
BRANCH   4   5
HETATM    5  P   UNL     1      10.683 -14.447 -10.525  1.00  0.00     0.417 P 
HETATM    6  O   UNL     1      11.544 -15.363 -11.311  1.00  0.00    -0.624 OA
HETATM    7  O   UNL     1      11.075 -13.019 -10.275  1.00  0.00    -0.624 OA
BRANCH   5   8
HETATM    8  O   UNL     1      10.323 -15.033  -9.088  1.00  0.00    -0.289 OA
BRANCH   8   9
HETATM    9  C   UNL     1      11.368 -15.233  -8.088  1.00  0.00     0.189 C 
BRANCH   9  10
HETATM   10  C   UNL     1      10.883 -14.589  -6.812  1.00  0.00     0.043 C 
HETATM   11  C   UNL     1      10.726 -13.057  -6.935  1.00  0.00     0.155 C 
HETATM   12  C   UNL     1      12.060 -12.516  -6.406  1.00  0.00     0.170 C 
HETATM   13  C   UNL     1      12.380 -13.431  -5.206  1.00  0.00     0.120 C 
HETATM   14  C   UNL     1      11.833 -14.823  -5.624  1.00  0.00     0.037 C 
BRANCH  11  15
HETATM   15  O   UNL     1       9.602 -12.622  -6.160  1.00  0.00    -0.392 OA
ATOM     16  HO  UNL     1       8.793 -12.608  -6.659  1.00  0.00     0.210 HD
ENDBRANCH  11  15
BRANCH  12  17
HETATM   17  O   UNL     1      11.920 -11.152  -6.011  1.00  0.00    -0.391 OA
ATOM     18  HO  UNL     1      11.654 -11.072  -5.102  1.00  0.00     0.210 HD
ENDBRANCH  12  17
BRANCH  13  19
HETATM   19  N   UNL     1      13.827 -13.474  -4.829  1.00  0.00    -0.358 N 
HETATM   20  C   UNL     1      14.787 -13.313  -5.760  1.00  0.00     0.091 A 
HETATM   21  C   UNL     1      16.124 -13.429  -5.471  1.00  0.00     0.018 A 
HETATM   22  C   UNL     1      16.531 -13.656  -4.180  1.00  0.00     0.020 A 
HETATM   23  C   UNL     1      15.565 -13.779  -3.183  1.00  0.00     0.047 A 
HETATM   24  C   UNL     1      14.214 -13.705  -3.521  1.00  0.00     0.108 A 
BRANCH  23  25
HETATM   25  C   UNL     1      15.951 -14.019  -1.747  1.00  0.00     0.250 C 
HETATM   26  O   UNL     1      17.141 -14.149  -1.446  1.00  0.00    -0.268 OA
HETATM   27  N   UNL     1      14.979 -14.065  -0.853  1.00  0.00    -0.366 N 
ATOM     28  HN2 UNL     1      15.241 -14.227   0.120  1.00  0.00     0.159 HD
ATOM     29  HN1 UNL     1      13.996 -13.958  -1.101  1.00  0.00     0.159 HD
ENDBRANCH  23  25
ENDBRANCH  13  19
ENDBRANCH   9  10
ENDBRANCH   8   9
ENDBRANCH   5   8
ENDBRANCH   4   5
ENDBRANCH   1   4
BRANCH   1  30
HETATM   30  O   UNL     1       6.820 -14.237 -11.962  1.00  0.00    -0.287 OA
BRANCH  30  31
HETATM   31  C   UNL     1       7.144 -15.424 -12.733  1.00  0.00     0.216 C 
BRANCH  31  32
HETATM   32  C   UNL     1       6.765 -15.122 -14.148  1.00  0.00     0.180 C 
HETATM   33  O   UNL     1       5.761 -14.079 -14.200  1.00  0.00    -0.353 OA
HETATM   34  C   UNL     1       6.108 -13.187 -15.235  1.00  0.00     0.262 C 
HETATM   35  C   UNL     1       7.627 -13.149 -15.208  1.00  0.00     0.198 C 
HETATM   36  C   UNL     1       7.904 -14.648 -15.067  1.00  0.00     0.182 C 
BRANCH  34  37
HETATM   37  N   UNL     1       5.435 -11.915 -14.996  1.00  0.00    -0.297 N 
HETATM   38  C   UNL     1       4.411 -11.411 -15.753  1.00  0.00     0.142 A 
HETATM   39  N   UNL     1       3.905 -11.941 -16.872  1.00  0.00    -0.336 N 
HETATM   40  C   UNL     1       4.015 -10.236 -15.146  1.00  0.00     0.122 A 
HETATM   41  C   UNL     1       2.957 -11.154 -17.367  1.00  0.00     0.183 A 
ATOM     42  HN  UNL     1       4.205 -12.824 -17.287  1.00  0.00     0.168 HD
HETATM   43  N   UNL     1       2.439 -10.028 -16.874  1.00  0.00    -0.337 N 
HETATM   44  C   UNL     1       2.992  -9.497 -15.762  1.00  0.00     0.131 A 
ATOM     45  HN  UNL     1       1.643  -9.578 -17.327  1.00  0.00     0.168 HD
HETATM   46  N   UNL     1       4.758 -10.023 -13.996  1.00  0.00    -0.346 N 
HETATM   47  C   UNL     1       5.575 -11.046 -13.945  1.00  0.00     0.188 A 
ATOM     48  HN  UNL     1       4.684  -9.247 -13.338  1.00  0.00     0.167 HD
BRANCH  44  49
HETATM   49  N   UNL     1       2.544  -8.325 -15.308  1.00  0.00    -0.383 N 
ATOM     50  HN2 UNL     1       2.770  -7.425 -15.734  1.00  0.00     0.157 HD
ATOM     51  HN1 UNL     1       1.942  -8.307 -14.485  1.00  0.00     0.157 HD
ENDBRANCH  44  49
ENDBRANCH  34  37
BRANCH  35  52
HETATM   52  O   UNL     1       8.182 -12.581 -16.371  1.00  0.00    -0.388 OA
ATOM     53  HO  UNL     1       7.801 -11.742 -16.602  1.00  0.00     0.210 HD
ENDBRANCH  35  52
BRANCH  36  54
HETATM   54  O   UNL     1       7.755 -15.344 -16.297  1.00  0.00    -0.390 OA
ATOM     55  HO  UNL     1       7.245 -14.782 -16.870  1.00  0.00     0.210 HD
ENDBRANCH  36  54
ENDBRANCH  31  32
ENDBRANCH  30  31
ENDBRANCH   1  30
TORSDOF 16
ENDMDL
MODEL 10
REMARK VINA RESULT:    -9.152      2.835     10.952
REMARK INTER + INTRA:         -19.254
REMARK INTER:                 -17.159
REMARK INTRA:                  -2.095
REMARK UNBOUND:                -2.878
REMARK  16 active torsions:
REMARK  status: ('A' for Active; 'I' for Inactive)
REMARK    1  A    between atoms: P_1  and  O_30 
REMARK    2  A    between atoms: P_1  and  O_4 
REMARK    3  A    between atoms: O_4  and  C_5 
REMARK    4  A    between atoms: C_5  and  C_6 
REMARK    5  A    between atoms: C_8  and  O_9 
REMARK    6  A    between atoms: C_11  and  O_12 
REMARK    7  A    between atoms: C_14  and  N_15 
REMARK    8  A    between atoms: C_20  and  N_21 
REMARK    9  A    between atoms: O_30  and  P_31 
REMARK   10  A    between atoms: P_31  and  O_34 
REMARK   11  A    between atoms: O_34  and  C_35 
REMARK   12  A    between atoms: C_35  and  C_36 
REMARK   13  A    between atoms: C_38  and  O_39 
REMARK   14  A    between atoms: C_41  and  O_42 
REMARK   15  A    between atoms: C_44  and  N_45 
REMARK   16  A    between atoms: C_47  and  C_48 
REMARK       I    between atoms: C_48  and  N_50 
ROOT
HETATM    1  P   UNL     1      10.201 -14.993  -8.895  1.00  0.00     0.417 P 
HETATM    2  O   UNL     1       8.840 -15.426  -8.415  1.00  0.00    -0.624 OA
HETATM    3  O   UNL     1      10.787 -15.669 -10.085  1.00  0.00    -0.624 OA
ENDROOT
BRANCH   1   4
HETATM    4  O   UNL     1      10.121 -13.426  -9.215  1.00  0.00    -0.180 OA
BRANCH   4   5
HETATM    5  P   UNL     1      11.059 -12.258  -9.753  1.00  0.00     0.417 P 
HETATM    6  O   UNL     1      10.766 -11.016  -8.998  1.00  0.00    -0.624 OA
HETATM    7  O   UNL     1      12.443 -12.837  -9.809  1.00  0.00    -0.624 OA
BRANCH   5   8
HETATM    8  O   UNL     1      10.588 -12.171 -11.273  1.00  0.00    -0.289 OA
BRANCH   8   9
HETATM    9  C   UNL     1       9.279 -11.622 -11.610  1.00  0.00     0.189 C 
BRANCH   9  10
HETATM   10  C   UNL     1       8.373 -12.793 -11.905  1.00  0.00     0.043 C 
HETATM   11  C   UNL     1       9.063 -13.886 -12.752  1.00  0.00     0.155 C 
HETATM   12  C   UNL     1       8.658 -13.534 -14.189  1.00  0.00     0.170 C 
HETATM   13  C   UNL     1       7.184 -13.100 -14.062  1.00  0.00     0.120 C 
HETATM   14  C   UNL     1       7.106 -12.392 -12.682  1.00  0.00     0.037 C 
BRANCH  11  15
HETATM   15  O   UNL     1       8.600 -15.179 -12.343  1.00  0.00    -0.392 OA
ATOM     16  HO  UNL     1       9.257 -15.857 -12.448  1.00  0.00     0.210 HD
ENDBRANCH  11  15
BRANCH  12  17
HETATM   17  O   UNL     1       8.805 -14.672 -15.038  1.00  0.00    -0.391 OA
ATOM     18  HO  UNL     1       8.925 -14.422 -15.947  1.00  0.00     0.210 HD
ENDBRANCH  12  17
BRANCH  13  19
HETATM   19  N   UNL     1       6.696 -12.231 -15.178  1.00  0.00    -0.358 N 
HETATM   20  C   UNL     1       7.565 -11.636 -16.019  1.00  0.00     0.091 A 
HETATM   21  C   UNL     1       7.164 -10.766 -17.002  1.00  0.00     0.018 A 
HETATM   22  C   UNL     1       5.828 -10.521 -17.201  1.00  0.00     0.020 A 
HETATM   23  C   UNL     1       4.900 -11.158 -16.379  1.00  0.00     0.047 A 
HETATM   24  C   UNL     1       5.345 -11.997 -15.359  1.00  0.00     0.108 A 
BRANCH  23  25
HETATM   25  C   UNL     1       3.419 -10.936 -16.555  1.00  0.00     0.250 C 
HETATM   26  O   UNL     1       2.691 -11.883 -16.866  1.00  0.00    -0.268 OA
HETATM   27  N   UNL     1       2.956  -9.716 -16.349  1.00  0.00    -0.366 N 
ATOM     28  HN2 UNL     1       1.954  -9.566 -16.467  1.00  0.00     0.159 HD
ATOM     29  HN1 UNL     1       3.558  -8.934 -16.092  1.00  0.00     0.159 HD
ENDBRANCH  23  25
ENDBRANCH  13  19
ENDBRANCH   9  10
ENDBRANCH   8   9
ENDBRANCH   5   8
ENDBRANCH   4   5
ENDBRANCH   1   4
BRANCH   1  30
HETATM   30  O   UNL     1      11.147 -15.160  -7.662  1.00  0.00    -0.287 OA
BRANCH  30  31
HETATM   31  C   UNL     1      10.628 -15.611  -6.383  1.00  0.00     0.216 C 
BRANCH  31  32
HETATM   32  C   UNL     1      10.899 -14.509  -5.408  1.00  0.00     0.180 C 
HETATM   33  O   UNL     1      12.245 -14.607  -4.883  1.00  0.00    -0.353 OA
HETATM   34  C   UNL     1      12.802 -13.313  -4.858  1.00  0.00     0.262 C 
HETATM   35  C   UNL     1      12.227 -12.630  -6.088  1.00  0.00     0.198 C 
HETATM   36  C   UNL     1      10.769 -13.077  -5.954  1.00  0.00     0.182 C 
BRANCH  34  37
HETATM   37  N   UNL     1      14.255 -13.433  -4.816  1.00  0.00    -0.297 N 
HETATM   38  C   UNL     1      14.987 -13.755  -3.705  1.00  0.00     0.142 A 
HETATM   39  N   UNL     1      14.523 -13.936  -2.463  1.00  0.00    -0.336 N 
HETATM   40  C   UNL     1      16.304 -13.837  -4.112  1.00  0.00     0.122 A 
HETATM   41  C   UNL     1      15.525 -14.186  -1.629  1.00  0.00     0.183 A 
ATOM     42  HN  UNL     1      13.539 -13.889  -2.196  1.00  0.00     0.168 HD
HETATM   43  N   UNL     1      16.826 -14.342  -1.879  1.00  0.00    -0.337 N 
HETATM   44  C   UNL     1      17.271 -14.120  -3.135  1.00  0.00     0.131 A 
ATOM     45  HN  UNL     1      17.469 -14.623  -1.139  1.00  0.00     0.168 HD
HETATM   46  N   UNL     1      16.394 -13.607  -5.476  1.00  0.00    -0.346 N 
HETATM   47  C   UNL     1      15.157 -13.382  -5.847  1.00  0.00     0.188 A 
ATOM     48  HN  UNL     1      17.231 -13.612  -6.057  1.00  0.00     0.167 HD
BRANCH  44  49
HETATM   49  N   UNL     1      18.581 -14.184  -3.381  1.00  0.00    -0.383 N 
ATOM     50  HN2 UNL     1      19.206 -14.876  -2.965  1.00  0.00     0.157 HD
ATOM     51  HN1 UNL     1      19.002 -13.505  -4.015  1.00  0.00     0.157 HD
ENDBRANCH  44  49
ENDBRANCH  34  37
BRANCH  35  52
HETATM   52  O   UNL     1      12.391 -11.231  -6.067  1.00  0.00    -0.388 OA
ATOM     53  HO  UNL     1      13.293 -10.954  -6.179  1.00  0.00     0.210 HD
ENDBRANCH  35  52
BRANCH  36  54
HETATM   54  O   UNL     1      10.061 -12.329  -4.977  1.00  0.00    -0.390 OA
ATOM     55  HO  UNL     1       9.989 -11.441  -5.310  1.00  0.00     0.210 HD
ENDBRANCH  36  54
ENDBRANCH  31  32
ENDBRANCH  30  31
ENDBRANCH   1  30
TORSDOF 16
ENDMDL
MODEL 11
REMARK VINA RESULT:    -9.107      3.098      4.274
REMARK INTER + INTRA:         -19.172
REMARK INTER:                 -16.823
REMARK INTRA:                  -2.349
REMARK UNBOUND:                -2.878
REMARK  16 active torsions:
REMARK  status: ('A' for Active; 'I' for Inactive)
REMARK    1  A    between atoms: P_1  and  O_30 
REMARK    2  A    between atoms: P_1  and  O_4 
REMARK    3  A    between atoms: O_4  and  C_5 
REMARK    4  A    between atoms: C_5  and  C_6 
REMARK    5  A    between atoms: C_8  and  O_9 
REMARK    6  A    between atoms: C_11  and  O_12 
REMARK    7  A    between atoms: C_14  and  N_15 
REMARK    8  A    between atoms: C_20  and  N_21 
REMARK    9  A    between atoms: O_30  and  P_31 
REMARK   10  A    between atoms: P_31  and  O_34 
REMARK   11  A    between atoms: O_34  and  C_35 
REMARK   12  A    between atoms: C_35  and  C_36 
REMARK   13  A    between atoms: C_38  and  O_39 
REMARK   14  A    between atoms: C_41  and  O_42 
REMARK   15  A    between atoms: C_44  and  N_45 
REMARK   16  A    between atoms: C_47  and  C_48 
REMARK       I    between atoms: C_48  and  N_50 
ROOT
HETATM    1  P   UNL     1       9.774 -11.941 -10.893  1.00  0.00     0.417 P 
HETATM    2  O   UNL     1       9.199 -12.133  -9.514  1.00  0.00    -0.624 OA
HETATM    3  O   UNL     1      10.489 -10.671 -11.199  1.00  0.00    -0.624 OA
ENDROOT
BRANCH   1   4
HETATM    4  O   UNL     1      10.789 -13.149 -11.163  1.00  0.00    -0.180 OA
BRANCH   4   5
HETATM    5  P   UNL     1      11.072 -14.624 -10.637  1.00  0.00     0.417 P 
HETATM    6  O   UNL     1       9.781 -15.334 -10.468  1.00  0.00    -0.624 OA
HETATM    7  O   UNL     1      12.161 -15.170 -11.514  1.00  0.00    -0.624 OA
BRANCH   5   8
HETATM    8  O   UNL     1      11.782 -14.315  -9.243  1.00  0.00    -0.289 OA
BRANCH   8   9
HETATM    9  C   UNL     1      11.863 -15.343  -8.211  1.00  0.00     0.189 C 
BRANCH   9  10
HETATM   10  C   UNL     1      11.273 -14.750  -6.954  1.00  0.00     0.043 C 
HETATM   11  C   UNL     1      11.076 -13.220  -7.048  1.00  0.00     0.155 C 
HETATM   12  C   UNL     1      12.354 -12.654  -6.416  1.00  0.00     0.170 C 
HETATM   13  C   UNL     1      12.621 -13.592  -5.221  1.00  0.00     0.120 C 
HETATM   14  C   UNL     1      12.149 -14.988  -5.710  1.00  0.00     0.037 C 
BRANCH  11  15
HETATM   15  O   UNL     1       9.889 -12.841  -6.340  1.00  0.00    -0.392 OA
ATOM     16  HO  UNL     1      10.039 -12.139  -5.718  1.00  0.00     0.210 HD
ENDBRANCH  11  15
BRANCH  12  17
HETATM   17  O   UNL     1      12.144 -11.307  -5.996  1.00  0.00    -0.391 OA
ATOM     18  HO  UNL     1      12.682 -10.696  -6.487  1.00  0.00     0.210 HD
ENDBRANCH  12  17
BRANCH  13  19
HETATM   19  N   UNL     1      14.041 -13.603  -4.748  1.00  0.00    -0.358 N 
HETATM   20  C   UNL     1      15.058 -13.432  -5.614  1.00  0.00     0.091 A 
HETATM   21  C   UNL     1      16.374 -13.518  -5.236  1.00  0.00     0.018 A 
HETATM   22  C   UNL     1      16.698 -13.723  -3.917  1.00  0.00     0.020 A 
HETATM   23  C   UNL     1      15.670 -13.855  -2.986  1.00  0.00     0.047 A 
HETATM   24  C   UNL     1      14.344 -13.811  -3.414  1.00  0.00     0.108 A 
BRANCH  23  25
HETATM   25  C   UNL     1      15.964 -14.071  -1.524  1.00  0.00     0.250 C 
HETATM   26  O   UNL     1      17.131 -14.206  -1.148  1.00  0.00    -0.268 OA
HETATM   27  N   UNL     1      14.938 -14.091  -0.691  1.00  0.00    -0.366 N 
ATOM     28  HN2 UNL     1      15.137 -14.238   0.298  1.00  0.00     0.159 HD
ATOM     29  HN1 UNL     1      13.973 -13.980  -1.002  1.00  0.00     0.159 HD
ENDBRANCH  23  25
ENDBRANCH  13  19
ENDBRANCH   9  10
ENDBRANCH   8   9
ENDBRANCH   5   8
ENDBRANCH   4   5
ENDBRANCH   1   4
BRANCH   1  30
HETATM   30  O   UNL     1       8.571 -12.128 -11.873  1.00  0.00    -0.287 OA
BRANCH  30  31
HETATM   31  C   UNL     1       7.237 -12.403 -11.368  1.00  0.00     0.216 C 
BRANCH  31  32
HETATM   32  C   UNL     1       6.780 -13.655 -12.048  1.00  0.00     0.180 C 
HETATM   33  O   UNL     1       5.550 -13.424 -12.776  1.00  0.00    -0.353 OA
HETATM   34  C   UNL     1       5.655 -14.061 -14.029  1.00  0.00     0.262 C 
HETATM   35  C   UNL     1       7.118 -13.906 -14.410  1.00  0.00     0.198 C 
HETATM   36  C   UNL     1       7.758 -14.265 -13.066  1.00  0.00     0.182 C 
BRANCH  34  37
HETATM   37  N   UNL     1       4.692 -13.455 -14.941  1.00  0.00    -0.297 N 
HETATM   38  C   UNL     1       4.463 -12.111 -15.066  1.00  0.00     0.142 A 
HETATM   39  N   UNL     1       5.012 -11.133 -14.335  1.00  0.00    -0.336 N 
HETATM   40  C   UNL     1       3.541 -11.961 -16.081  1.00  0.00     0.122 A 
HETATM   41  C   UNL     1       4.519  -9.955 -14.700  1.00  0.00     0.183 A 
ATOM     42  HN  UNL     1       5.709 -11.272 -13.603  1.00  0.00     0.168 HD
HETATM   43  N   UNL     1       3.670  -9.651 -15.682  1.00  0.00    -0.337 N 
HETATM   44  C   UNL     1       3.105 -10.660 -16.381  1.00  0.00     0.131 A 
ATOM     45  HN  UNL     1       3.451  -8.679 -15.901  1.00  0.00     0.168 HD
HETATM   46  N   UNL     1       3.220 -13.199 -16.617  1.00  0.00    -0.346 N 
HETATM   47  C   UNL     1       3.932 -14.047 -15.916  1.00  0.00     0.188 A 
ATOM     48  HN  UNL     1       2.577 -13.402 -17.382  1.00  0.00     0.167 HD
BRANCH  44  49
HETATM   49  N   UNL     1       2.186 -10.377 -17.305  1.00  0.00    -0.383 N 
ATOM     50  HN2 UNL     1       1.683 -11.082 -17.844  1.00  0.00     0.157 HD
ATOM     51  HN1 UNL     1       1.965  -9.401 -17.503  1.00  0.00     0.157 HD
ENDBRANCH  44  49
ENDBRANCH  34  37
BRANCH  35  52
HETATM   52  O   UNL     1       7.504 -14.759 -15.463  1.00  0.00    -0.388 OA
ATOM     53  HO  UNL     1       7.210 -14.464 -16.317  1.00  0.00     0.210 HD
ENDBRANCH  35  52
BRANCH  36  54
HETATM   54  O   UNL     1       7.773 -15.666 -12.831  1.00  0.00    -0.390 OA
ATOM     55  HO  UNL     1       8.679 -15.946 -12.895  1.00  0.00     0.210 HD
ENDBRANCH  36  54
ENDBRANCH  31  32
ENDBRANCH  30  31
ENDBRANCH   1  30
TORSDOF 16
ENDMDL
MODEL 12
REMARK VINA RESULT:    -8.966      3.269     11.222
REMARK INTER + INTRA:         -18.920
REMARK INTER:                 -17.278
REMARK INTRA:                  -1.642
REMARK UNBOUND:                -2.878
REMARK  16 active torsions:
REMARK  status: ('A' for Active; 'I' for Inactive)
REMARK    1  A    between atoms: P_1  and  O_30 
REMARK    2  A    between atoms: P_1  and  O_4 
REMARK    3  A    between atoms: O_4  and  C_5 
REMARK    4  A    between atoms: C_5  and  C_6 
REMARK    5  A    between atoms: C_8  and  O_9 
REMARK    6  A    between atoms: C_11  and  O_12 
REMARK    7  A    between atoms: C_14  and  N_15 
REMARK    8  A    between atoms: C_20  and  N_21 
REMARK    9  A    between atoms: O_30  and  P_31 
REMARK   10  A    between atoms: P_31  and  O_34 
REMARK   11  A    between atoms: O_34  and  C_35 
REMARK   12  A    between atoms: C_35  and  C_36 
REMARK   13  A    between atoms: C_38  and  O_39 
REMARK   14  A    between atoms: C_41  and  O_42 
REMARK   15  A    between atoms: C_44  and  N_45 
REMARK   16  A    between atoms: C_47  and  C_48 
REMARK       I    between atoms: C_48  and  N_50 
ROOT
HETATM    1  P   UNL     1       8.755 -14.985  -8.676  1.00  0.00     0.417 P 
HETATM    2  O   UNL     1       7.400 -14.452  -8.290  1.00  0.00    -0.624 OA
HETATM    3  O   UNL     1       8.838 -16.027  -9.737  1.00  0.00    -0.624 OA
ENDROOT
BRANCH   1   4
HETATM    4  O   UNL     1       9.646 -13.740  -9.145  1.00  0.00    -0.180 OA
BRANCH   4   5
HETATM    5  P   UNL     1      10.578 -13.318 -10.364  1.00  0.00     0.417 P 
HETATM    6  O   UNL     1      11.015 -11.914 -10.174  1.00  0.00    -0.624 OA
HETATM    7  O   UNL     1      11.568 -14.435 -10.528  1.00  0.00    -0.624 OA
BRANCH   5   8
HETATM    8  O   UNL     1       9.568 -13.481 -11.585  1.00  0.00    -0.289 OA
BRANCH   8   9
HETATM    9  C   UNL     1       8.236 -12.888 -11.527  1.00  0.00     0.189 C 
BRANCH   9  10
HETATM   10  C   UNL     1       7.286 -13.878 -12.156  1.00  0.00     0.043 C 
HETATM   11  C   UNL     1       7.803 -14.433 -13.502  1.00  0.00     0.155 C 
HETATM   12  C   UNL     1       7.143 -13.520 -14.543  1.00  0.00     0.170 C 
HETATM   13  C   UNL     1       5.720 -13.300 -13.993  1.00  0.00     0.120 C 
HETATM   14  C   UNL     1       5.900 -13.277 -12.450  1.00  0.00     0.037 C 
BRANCH  11  15
HETATM   15  O   UNL     1       7.416 -15.806 -13.640  1.00  0.00    -0.392 OA
ATOM     16  HO  UNL     1       7.864 -16.246 -14.354  1.00  0.00     0.210 HD
ENDBRANCH  11  15
BRANCH  12  17
HETATM   17  O   UNL     1       7.126 -14.156 -15.820  1.00  0.00    -0.391 OA
ATOM     18  HO  UNL     1       7.984 -14.484 -16.064  1.00  0.00     0.210 HD
ENDBRANCH  12  17
BRANCH  13  19
HETATM   19  N   UNL     1       5.040 -12.071 -14.508  1.00  0.00    -0.358 N 
HETATM   20  C   UNL     1       5.074 -10.920 -13.808  1.00  0.00     0.091 A 
HETATM   21  C   UNL     1       4.395  -9.794 -14.204  1.00  0.00     0.018 A 
HETATM   22  C   UNL     1       3.696  -9.793 -15.385  1.00  0.00     0.020 A 
HETATM   23  C   UNL     1       3.680 -10.953 -16.157  1.00  0.00     0.047 A 
HETATM   24  C   UNL     1       4.340 -12.092 -15.701  1.00  0.00     0.108 A 
BRANCH  23  25
HETATM   25  C   UNL     1       2.938 -11.008 -17.468  1.00  0.00     0.250 C 
HETATM   26  O   UNL     1       2.443  -9.979 -17.935  1.00  0.00    -0.268 OA
HETATM   27  N   UNL     1       2.863 -12.178 -18.078  1.00  0.00    -0.366 N 
ATOM     28  HN2 UNL     1       2.361 -12.215 -18.965  1.00  0.00     0.159 HD
ATOM     29  HN1 UNL     1       3.272 -13.028 -17.692  1.00  0.00     0.159 HD
ENDBRANCH  23  25
ENDBRANCH  13  19
ENDBRANCH   9  10
ENDBRANCH   8   9
ENDBRANCH   5   8
ENDBRANCH   4   5
ENDBRANCH   1   4
BRANCH   1  30
HETATM   30  O   UNL     1       9.382 -15.521  -7.349  1.00  0.00    -0.287 OA
BRANCH  30  31
HETATM   31  C   UNL     1      10.812 -15.436  -7.115  1.00  0.00     0.216 C 
BRANCH  31  32
HETATM   32  C   UNL     1      10.993 -14.507  -5.956  1.00  0.00     0.180 C 
HETATM   33  O   UNL     1      12.303 -14.676  -5.361  1.00  0.00    -0.353 OA
HETATM   34  C   UNL     1      12.828 -13.397  -5.086  1.00  0.00     0.262 C 
HETATM   35  C   UNL     1      12.322 -12.527  -6.224  1.00  0.00     0.198 C 
HETATM   36  C   UNL     1      10.868 -13.006  -6.268  1.00  0.00     0.182 C 
BRANCH  34  37
HETATM   37  N   UNL     1      14.278 -13.507  -4.963  1.00  0.00    -0.297 N 
HETATM   38  C   UNL     1      14.952 -13.786  -3.805  1.00  0.00     0.142 A 
HETATM   39  N   UNL     1      14.423 -13.927  -2.583  1.00  0.00    -0.336 N 
HETATM   40  C   UNL     1      16.288 -13.874  -4.139  1.00  0.00     0.122 A 
HETATM   41  C   UNL     1      15.381 -14.141  -1.690  1.00  0.00     0.183 A 
ATOM     42  HN  UNL     1      13.426 -13.876  -2.370  1.00  0.00     0.168 HD
HETATM   43  N   UNL     1      16.694 -14.298  -1.866  1.00  0.00    -0.337 N 
HETATM   44  C   UNL     1      17.204 -14.117  -3.103  1.00  0.00     0.131 A 
ATOM     45  HN  UNL     1      17.299 -14.549  -1.083  1.00  0.00     0.168 HD
HETATM   46  N   UNL     1      16.449 -13.691  -5.503  1.00  0.00    -0.346 N 
HETATM   47  C   UNL     1      15.233 -13.487  -5.947  1.00  0.00     0.188 A 
ATOM     48  HN  UNL     1      17.316 -13.711  -6.040  1.00  0.00     0.167 HD
BRANCH  44  49
HETATM   49  N   UNL     1      18.526 -14.182  -3.277  1.00  0.00    -0.383 N 
ATOM     50  HN2 UNL     1      18.973 -14.631  -4.077  1.00  0.00     0.157 HD
ATOM     51  HN1 UNL     1      19.140 -13.767  -2.577  1.00  0.00     0.157 HD
ENDBRANCH  44  49
ENDBRANCH  34  37
BRANCH  35  52
HETATM   52  O   UNL     1      12.454 -11.149  -5.963  1.00  0.00    -0.388 OA
ATOM     53  HO  UNL     1      12.535 -10.945  -5.039  1.00  0.00     0.210 HD
ENDBRANCH  35  52
BRANCH  36  54
HETATM   54  O   UNL     1      10.081 -12.436  -5.232  1.00  0.00    -0.390 OA
ATOM     55  HO  UNL     1       9.964 -11.518  -5.449  1.00  0.00     0.210 HD
ENDBRANCH  36  54
ENDBRANCH  31  32
ENDBRANCH  30  31
ENDBRANCH   1  30
TORSDOF 16
ENDMDL
MODEL 13
REMARK VINA RESULT:    -8.907      2.972      4.623
REMARK INTER + INTRA:         -18.816
REMARK INTER:                 -15.894
REMARK INTRA:                  -2.921
REMARK UNBOUND:                -2.878
REMARK  16 active torsions:
REMARK  status: ('A' for Active; 'I' for Inactive)
REMARK    1  A    between atoms: P_1  and  O_30 
REMARK    2  A    between atoms: P_1  and  O_4 
REMARK    3  A    between atoms: O_4  and  C_5 
REMARK    4  A    between atoms: C_5  and  C_6 
REMARK    5  A    between atoms: C_8  and  O_9 
REMARK    6  A    between atoms: C_11  and  O_12 
REMARK    7  A    between atoms: C_14  and  N_15 
REMARK    8  A    between atoms: C_20  and  N_21 
REMARK    9  A    between atoms: O_30  and  P_31 
REMARK   10  A    between atoms: P_31  and  O_34 
REMARK   11  A    between atoms: O_34  and  C_35 
REMARK   12  A    between atoms: C_35  and  C_36 
REMARK   13  A    between atoms: C_38  and  O_39 
REMARK   14  A    between atoms: C_41  and  O_42 
REMARK   15  A    between atoms: C_44  and  N_45 
REMARK   16  A    between atoms: C_47  and  C_48 
REMARK       I    between atoms: C_48  and  N_50 
ROOT
HETATM    1  P   UNL     1       9.963 -12.057 -11.145  1.00  0.00     0.417 P 
HETATM    2  O   UNL     1       8.882 -12.483 -10.186  1.00  0.00    -0.624 OA
HETATM    3  O   UNL     1      10.193 -10.602 -11.362  1.00  0.00    -0.624 OA
ENDROOT
BRANCH   1   4
HETATM    4  O   UNL     1      11.338 -12.696 -10.633  1.00  0.00    -0.180 OA
BRANCH   4   5
HETATM    5  P   UNL     1      11.959 -14.129 -10.326  1.00  0.00     0.417 P 
HETATM    6  O   UNL     1      11.931 -14.944 -11.565  1.00  0.00    -0.624 OA
HETATM    7  O   UNL     1      13.238 -13.871  -9.583  1.00  0.00    -0.624 OA
BRANCH   5   8
HETATM    8  O   UNL     1      10.943 -14.666  -9.222  1.00  0.00    -0.289 OA
BRANCH   8   9
HETATM    9  C   UNL     1      11.431 -15.420  -8.072  1.00  0.00     0.189 C 
BRANCH   9  10
HETATM   10  C   UNL     1      10.913 -14.723  -6.837  1.00  0.00     0.043 C 
HETATM   11  C   UNL     1      10.745 -13.200  -7.036  1.00  0.00     0.155 C 
HETATM   12  C   UNL     1      12.062 -12.621  -6.505  1.00  0.00     0.170 C 
HETATM   13  C   UNL     1      12.365 -13.475  -5.257  1.00  0.00     0.120 C 
HETATM   14  C   UNL     1      11.841 -14.891  -5.620  1.00  0.00     0.037 C 
BRANCH  11  15
HETATM   15  O   UNL     1       9.600 -12.741  -6.305  1.00  0.00    -0.392 OA
ATOM     16  HO  UNL     1       8.863 -13.339  -6.359  1.00  0.00     0.210 HD
ENDBRANCH  11  15
BRANCH  12  17
HETATM   17  O   UNL     1      11.901 -11.241  -6.177  1.00  0.00    -0.391 OA
ATOM     18  HO  UNL     1      11.407 -11.124  -5.374  1.00  0.00     0.210 HD
ENDBRANCH  12  17
BRANCH  13  19
HETATM   19  N   UNL     1      13.804 -13.485  -4.849  1.00  0.00    -0.358 N 
HETATM   20  C   UNL     1      14.778 -13.243  -5.748  1.00  0.00     0.091 A 
HETATM   21  C   UNL     1      16.112 -13.326  -5.433  1.00  0.00     0.018 A 
HETATM   22  C   UNL     1      16.499 -13.602  -4.145  1.00  0.00     0.020 A 
HETATM   23  C   UNL     1      15.516 -13.810  -3.180  1.00  0.00     0.047 A 
HETATM   24  C   UNL     1      14.171 -13.767  -3.545  1.00  0.00     0.108 A 
BRANCH  23  25
HETATM   25  C   UNL     1      15.880 -14.108  -1.747  1.00  0.00     0.250 C 
HETATM   26  O   UNL     1      15.008 -14.070  -0.875  1.00  0.00    -0.268 OA
HETATM   27  N   UNL     1      17.137 -14.418  -1.489  1.00  0.00    -0.366 N 
ATOM     28  HN2 UNL     1      17.384 -14.620  -0.520  1.00  0.00     0.159 HD
ATOM     29  HN1 UNL     1      17.857 -14.449  -2.211  1.00  0.00     0.159 HD
ENDBRANCH  23  25
ENDBRANCH  13  19
ENDBRANCH   9  10
ENDBRANCH   8   9
ENDBRANCH   5   8
ENDBRANCH   4   5
ENDBRANCH   1   4
BRANCH   1  30
HETATM   30  O   UNL     1       9.612 -12.752 -12.500  1.00  0.00    -0.287 OA
BRANCH  30  31
HETATM   31  C   UNL     1       9.624 -12.003 -13.744  1.00  0.00     0.216 C 
BRANCH  31  32
HETATM   32  C   UNL     1       8.304 -12.257 -14.400  1.00  0.00     0.180 C 
HETATM   33  O   UNL     1       7.975 -13.666 -14.364  1.00  0.00    -0.353 OA
HETATM   34  C   UNL     1       6.614 -13.792 -14.018  1.00  0.00     0.262 C 
HETATM   35  C   UNL     1       6.367 -12.654 -13.041  1.00  0.00     0.198 C 
HETATM   36  C   UNL     1       7.094 -11.532 -13.786  1.00  0.00     0.182 C 
BRANCH  34  37
HETATM   37  N   UNL     1       6.387 -15.136 -13.502  1.00  0.00    -0.297 N 
HETATM   38  C   UNL     1       7.080 -15.711 -12.469  1.00  0.00     0.142 A 
HETATM   39  N   UNL     1       8.121 -15.186 -11.812  1.00  0.00    -0.336 N 
HETATM   40  C   UNL     1       6.506 -16.947 -12.251  1.00  0.00     0.122 A 
HETATM   41  C   UNL     1       8.574 -16.046 -10.907  1.00  0.00     0.183 A 
ATOM     42  HN  UNL     1       8.511 -14.259 -11.982  1.00  0.00     0.168 HD
HETATM   43  N   UNL     1       8.100 -17.241 -10.552  1.00  0.00    -0.337 N 
HETATM   44  C   UNL     1       7.070 -17.761 -11.256  1.00  0.00     0.131 A 
ATOM     45  HN  UNL     1       8.506 -17.752  -9.768  1.00  0.00     0.168 HD
HETATM   46  N   UNL     1       5.437 -17.133 -13.113  1.00  0.00    -0.346 N 
HETATM   47  C   UNL     1       5.402 -16.033 -13.825  1.00  0.00     0.188 A 
ATOM     48  HN  UNL     1       4.819 -17.941 -13.179  1.00  0.00     0.167 HD
BRANCH  44  49
HETATM   49  N   UNL     1       6.645 -18.993 -10.971  1.00  0.00    -0.383 N 
ATOM     50  HN2 UNL     1       6.973 -19.833 -11.447  1.00  0.00     0.157 HD
ATOM     51  HN1 UNL     1       5.945 -19.121 -10.240  1.00  0.00     0.157 HD
ENDBRANCH  44  49
ENDBRANCH  34  37
BRANCH  35  52
HETATM   52  O   UNL     1       4.997 -12.397 -12.834  1.00  0.00    -0.388 OA
ATOM     53  HO  UNL     1       4.626 -12.884 -12.108  1.00  0.00     0.210 HD
ENDBRANCH  35  52
BRANCH  36  54
HETATM   54  O   UNL     1       6.331 -11.018 -14.868  1.00  0.00    -0.390 OA
ATOM     55  HO  UNL     1       5.525 -11.520 -14.898  1.00  0.00     0.210 HD
ENDBRANCH  36  54
ENDBRANCH  31  32
ENDBRANCH  30  31
ENDBRANCH   1  30
TORSDOF 16
ENDMDL
MODEL 14
REMARK VINA RESULT:    -8.904      2.325      3.609
REMARK INTER + INTRA:         -18.809
REMARK INTER:                 -15.747
REMARK INTRA:                  -3.062
REMARK UNBOUND:                -2.878
REMARK  16 active torsions:
REMARK  status: ('A' for Active; 'I' for Inactive)
REMARK    1  A    between atoms: P_1  and  O_30 
REMARK    2  A    between atoms: P_1  and  O_4 
REMARK    3  A    between atoms: O_4  and  C_5 
REMARK    4  A    between atoms: C_5  and  C_6 
REMARK    5  A    between atoms: C_8  and  O_9 
REMARK    6  A    between atoms: C_11  and  O_12 
REMARK    7  A    between atoms: C_14  and  N_15 
REMARK    8  A    between atoms: C_20  and  N_21 
REMARK    9  A    between atoms: O_30  and  P_31 
REMARK   10  A    between atoms: P_31  and  O_34 
REMARK   11  A    between atoms: O_34  and  C_35 
REMARK   12  A    between atoms: C_35  and  C_36 
REMARK   13  A    between atoms: C_38  and  O_39 
REMARK   14  A    between atoms: C_41  and  O_42 
REMARK   15  A    between atoms: C_44  and  N_45 
REMARK   16  A    between atoms: C_47  and  C_48 
REMARK       I    between atoms: C_48  and  N_50 
ROOT
HETATM    1  P   UNL     1       8.485 -13.168  -9.225  1.00  0.00     0.417 P 
HETATM    2  O   UNL     1       7.123 -13.685  -8.839  1.00  0.00    -0.624 OA
HETATM    3  O   UNL     1       8.964 -11.895  -8.619  1.00  0.00    -0.624 OA
ENDROOT
BRANCH   1   4
HETATM    4  O   UNL     1       9.551 -14.308  -8.869  1.00  0.00    -0.180 OA
BRANCH   4   5
HETATM    5  P   UNL     1       9.721 -15.884  -9.011  1.00  0.00     0.417 P 
HETATM    6  O   UNL     1      10.055 -16.456  -7.684  1.00  0.00    -0.624 OA
HETATM    7  O   UNL     1       8.529 -16.355  -9.793  1.00  0.00    -0.624 OA
BRANCH   5   8
HETATM    8  O   UNL     1      10.941 -15.963 -10.033  1.00  0.00    -0.289 OA
BRANCH   8   9
HETATM    9  C   UNL     1      11.067 -14.988 -11.111  1.00  0.00     0.189 C 
BRANCH   9  10
HETATM   10  C   UNL     1      12.400 -14.303 -10.930  1.00  0.00     0.043 C 
HETATM   11  C   UNL     1      13.539 -15.289 -10.586  1.00  0.00     0.155 C 
HETATM   12  C   UNL     1      13.595 -15.251  -9.053  1.00  0.00     0.170 C 
HETATM   13  C   UNL     1      13.375 -13.763  -8.712  1.00  0.00     0.120 C 
HETATM   14  C   UNL     1      12.389 -13.258  -9.800  1.00  0.00     0.037 C 
BRANCH  11  15
HETATM   15  O   UNL     1      14.758 -14.851 -11.198  1.00  0.00    -0.392 OA
ATOM     16  HO  UNL     1      14.613 -14.343 -11.989  1.00  0.00     0.210 HD
ENDBRANCH  11  15
BRANCH  12  17
HETATM   17  O   UNL     1      14.861 -15.720  -8.592  1.00  0.00    -0.391 OA
ATOM     18  HO  UNL     1      15.124 -16.520  -9.033  1.00  0.00     0.210 HD
ENDBRANCH  12  17
BRANCH  13  19
HETATM   19  N   UNL     1      12.872 -13.515  -7.325  1.00  0.00    -0.358 N 
HETATM   20  C   UNL     1      13.352 -14.218  -6.281  1.00  0.00     0.091 A 
HETATM   21  C   UNL     1      12.859 -14.080  -5.007  1.00  0.00     0.018 A 
HETATM   22  C   UNL     1      11.882 -13.152  -4.745  1.00  0.00     0.020 A 
HETATM   23  C   UNL     1      11.397 -12.373  -5.794  1.00  0.00     0.047 A 
HETATM   24  C   UNL     1      11.886 -12.575  -7.084  1.00  0.00     0.108 A 
BRANCH  23  25
HETATM   25  C   UNL     1      10.332 -11.332  -5.566  1.00  0.00     0.250 C 
HETATM   26  O   UNL     1       9.697 -11.328  -4.508  1.00  0.00    -0.268 OA
HETATM   27  N   UNL     1      10.133 -10.442  -6.522  1.00  0.00    -0.366 N 
ATOM     28  HN2 UNL     1       9.412  -9.737  -6.368  1.00  0.00     0.159 HD
ATOM     29  HN1 UNL     1      10.658 -10.445  -7.396  1.00  0.00     0.159 HD
ENDBRANCH  23  25
ENDBRANCH  13  19
ENDBRANCH   9  10
ENDBRANCH   8   9
ENDBRANCH   5   8
ENDBRANCH   4   5
ENDBRANCH   1   4
BRANCH   1  30
HETATM   30  O   UNL     1       8.454 -13.041 -10.782  1.00  0.00    -0.287 OA
BRANCH  30  31
HETATM   31  C   UNL     1       7.223 -13.260 -11.521  1.00  0.00     0.216 C 
BRANCH  31  32
HETATM   32  C   UNL     1       7.537 -12.971 -12.955  1.00  0.00     0.180 C 
HETATM   33  O   UNL     1       8.015 -11.614 -13.113  1.00  0.00    -0.353 OA
HETATM   34  C   UNL     1       9.116 -11.636 -13.994  1.00  0.00     0.262 C 
HETATM   35  C   UNL     1       9.823 -12.944 -13.682  1.00  0.00     0.198 C 
HETATM   36  C   UNL     1       8.604 -13.867 -13.606  1.00  0.00     0.182 C 
BRANCH  34  37
HETATM   37  N   UNL     1       9.899 -10.423 -13.788  1.00  0.00    -0.297 N 
HETATM   38  C   UNL     1      10.264  -9.918 -12.569  1.00  0.00     0.142 A 
HETATM   39  N   UNL     1       9.911 -10.389 -11.367  1.00  0.00    -0.336 N 
HETATM   40  C   UNL     1      11.054  -8.815 -12.821  1.00  0.00     0.122 A 
HETATM   41  C   UNL     1      10.407  -9.618 -10.407  1.00  0.00     0.183 A 
ATOM     42  HN  UNL     1       9.341 -11.221 -11.212  1.00  0.00     0.168 HD
HETATM   43  N   UNL     1      11.216  -8.561 -10.493  1.00  0.00    -0.337 N 
HETATM   44  C   UNL     1      11.529  -8.087 -11.718  1.00  0.00     0.131 A 
ATOM     45  HN  UNL     1      11.590  -8.121  -9.652  1.00  0.00     0.168 HD
HETATM   46  N   UNL     1      11.217  -8.650 -14.188  1.00  0.00    -0.346 N 
HETATM   47  C   UNL     1      10.523  -9.629 -14.715  1.00  0.00     0.188 A 
ATOM     48  HN  UNL     1      11.753  -7.931 -14.672  1.00  0.00     0.167 HD
BRANCH  44  49
HETATM   49  N   UNL     1      12.263  -6.977 -11.818  1.00  0.00    -0.383 N 
ATOM     50  HN2 UNL     1      13.115  -6.808 -11.282  1.00  0.00     0.157 HD
ATOM     51  HN1 UNL     1      11.968  -6.242 -12.460  1.00  0.00     0.157 HD
ENDBRANCH  44  49
ENDBRANCH  34  37
BRANCH  35  52
HETATM   52  O   UNL     1      10.751 -13.317 -14.675  1.00  0.00    -0.388 OA
ATOM     53  HO  UNL     1      11.534 -12.781 -14.681  1.00  0.00     0.210 HD
ENDBRANCH  35  52
BRANCH  36  54
HETATM   54  O   UNL     1       8.113 -14.221 -14.892  1.00  0.00    -0.390 OA
ATOM     55  HO  UNL     1       8.342 -15.133 -15.032  1.00  0.00     0.210 HD
ENDBRANCH  36  54
ENDBRANCH  31  32
ENDBRANCH  30  31
ENDBRANCH   1  30
TORSDOF 16
ENDMDL
MODEL 15
REMARK VINA RESULT:    -8.875      2.938      4.347
REMARK INTER + INTRA:         -18.758
REMARK INTER:                 -16.828
REMARK INTRA:                  -1.930
REMARK UNBOUND:                -2.878
REMARK  16 active torsions:
REMARK  status: ('A' for Active; 'I' for Inactive)
REMARK    1  A    between atoms: P_1  and  O_30 
REMARK    2  A    between atoms: P_1  and  O_4 
REMARK    3  A    between atoms: O_4  and  C_5 
REMARK    4  A    between atoms: C_5  and  C_6 
REMARK    5  A    between atoms: C_8  and  O_9 
REMARK    6  A    between atoms: C_11  and  O_12 
REMARK    7  A    between atoms: C_14  and  N_15 
REMARK    8  A    between atoms: C_20  and  N_21 
REMARK    9  A    between atoms: O_30  and  P_31 
REMARK   10  A    between atoms: P_31  and  O_34 
REMARK   11  A    between atoms: O_34  and  C_35 
REMARK   12  A    between atoms: C_35  and  C_36 
REMARK   13  A    between atoms: C_38  and  O_39 
REMARK   14  A    between atoms: C_41  and  O_42 
REMARK   15  A    between atoms: C_44  and  N_45 
REMARK   16  A    between atoms: C_47  and  C_48 
REMARK       I    between atoms: C_48  and  N_50 
ROOT
HETATM    1  P   UNL     1       9.379 -13.258  -8.458  1.00  0.00     0.417 P 
HETATM    2  O   UNL     1       8.978 -12.730  -7.106  1.00  0.00    -0.624 OA
HETATM    3  O   UNL     1      10.739 -12.942  -8.975  1.00  0.00    -0.624 OA
ENDROOT
BRANCH   1   4
HETATM    4  O   UNL     1       9.233 -14.852  -8.414  1.00  0.00    -0.180 OA
BRANCH   4   5
HETATM    5  P   UNL     1       9.986 -16.113  -7.802  1.00  0.00     0.417 P 
HETATM    6  O   UNL     1       9.030 -17.242  -7.694  1.00  0.00    -0.624 OA
HETATM    7  O   UNL     1      11.268 -16.239  -8.574  1.00  0.00    -0.624 OA
BRANCH   5   8
HETATM    8  O   UNL     1      10.418 -15.543  -6.378  1.00  0.00    -0.289 OA
BRANCH   8   9
HETATM    9  C   UNL     1      11.821 -15.543  -5.975  1.00  0.00     0.189 C 
BRANCH   9  10
HETATM   10  C   UNL     1      12.287 -14.107  -6.008  1.00  0.00     0.043 C 
HETATM   11  C   UNL     1      13.448 -13.877  -7.002  1.00  0.00     0.155 C 
HETATM   12  C   UNL     1      14.700 -14.000  -6.124  1.00  0.00     0.170 C 
HETATM   13  C   UNL     1      14.303 -13.293  -4.813  1.00  0.00     0.120 C 
HETATM   14  C   UNL     1      12.793 -13.610  -4.642  1.00  0.00     0.037 C 
BRANCH  11  15
HETATM   15  O   UNL     1      13.317 -12.584  -7.606  1.00  0.00    -0.392 OA
ATOM     16  HO  UNL     1      12.583 -12.531  -8.208  1.00  0.00     0.210 HD
ENDBRANCH  11  15
BRANCH  12  17
HETATM   17  O   UNL     1      15.811 -13.366  -6.755  1.00  0.00    -0.391 OA
ATOM     18  HO  UNL     1      15.848 -13.559  -7.685  1.00  0.00     0.210 HD
ENDBRANCH  12  17
BRANCH  13  19
HETATM   19  N   UNL     1      15.111 -13.701  -3.621  1.00  0.00    -0.358 N 
HETATM   20  C   UNL     1      14.556 -13.746  -2.395  1.00  0.00     0.091 A 
HETATM   21  C   UNL     1      15.281 -14.034  -1.265  1.00  0.00     0.018 A 
HETATM   22  C   UNL     1      16.613 -14.353  -1.365  1.00  0.00     0.020 A 
HETATM   23  C   UNL     1      17.207 -14.363  -2.626  1.00  0.00     0.047 A 
HETATM   24  C   UNL     1      16.452 -14.018  -3.746  1.00  0.00     0.108 A 
BRANCH  23  25
HETATM   25  C   UNL     1      18.662 -14.715  -2.800  1.00  0.00     0.250 C 
HETATM   26  O   UNL     1      19.013 -15.411  -3.757  1.00  0.00    -0.268 OA
HETATM   27  N   UNL     1      19.516 -14.238  -1.912  1.00  0.00    -0.366 N 
ATOM     28  HN2 UNL     1      20.501 -14.476  -2.030  1.00  0.00     0.159 HD
ATOM     29  HN1 UNL     1      19.226 -13.663  -1.121  1.00  0.00     0.159 HD
ENDBRANCH  23  25
ENDBRANCH  13  19
ENDBRANCH   9  10
ENDBRANCH   8   9
ENDBRANCH   5   8
ENDBRANCH   4   5
ENDBRANCH   1   4
BRANCH   1  30
HETATM   30  O   UNL     1       8.292 -12.727  -9.448  1.00  0.00    -0.287 OA
BRANCH  30  31
HETATM   31  C   UNL     1       7.519 -13.645 -10.265  1.00  0.00     0.216 C 
BRANCH  31  32
HETATM   32  C   UNL     1       8.104 -13.578 -11.641  1.00  0.00     0.180 C 
HETATM   33  O   UNL     1       7.072 -13.719 -12.646  1.00  0.00    -0.353 OA
HETATM   34  C   UNL     1       7.315 -12.772 -13.661  1.00  0.00     0.262 C 
HETATM   35  C   UNL     1       7.875 -11.565 -12.926  1.00  0.00     0.198 C 
HETATM   36  C   UNL     1       8.854 -12.283 -11.993  1.00  0.00     0.182 C 
BRANCH  34  37
HETATM   37  N   UNL     1       6.075 -12.551 -14.397  1.00  0.00    -0.297 N 
HETATM   38  C   UNL     1       5.959 -11.805 -15.540  1.00  0.00     0.142 A 
HETATM   39  N   UNL     1       6.924 -11.093 -16.134  1.00  0.00    -0.336 N 
HETATM   40  C   UNL     1       4.646 -11.915 -15.950  1.00  0.00     0.122 A 
HETATM   41  C   UNL     1       6.439 -10.455 -17.192  1.00  0.00     0.183 A 
ATOM     42  HN  UNL     1       7.893 -11.047 -15.818  1.00  0.00     0.168 HD
HETATM   43  N   UNL     1       5.221 -10.501 -17.733  1.00  0.00    -0.337 N 
HETATM   44  C   UNL     1       4.258 -11.200 -17.093  1.00  0.00     0.131 A 
ATOM     45  HN  UNL     1       5.020 -10.019 -18.610  1.00  0.00     0.168 HD
HETATM   46  N   UNL     1       3.951 -12.755 -15.093  1.00  0.00    -0.346 N 
HETATM   47  C   UNL     1       4.840 -13.111 -14.199  1.00  0.00     0.188 A 
ATOM     48  HN  UNL     1       2.971 -13.032 -15.147  1.00  0.00     0.167 HD
BRANCH  44  49
HETATM   49  N   UNL     1       3.013 -11.181 -17.573  1.00  0.00    -0.383 N 
ATOM     50  HN2 UNL     1       2.269 -10.589 -17.204  1.00  0.00     0.157 HD
ATOM     51  HN1 UNL     1       2.771 -11.793 -18.353  1.00  0.00     0.157 HD
ENDBRANCH  44  49
ENDBRANCH  34  37
BRANCH  35  52
HETATM   52  O   UNL     1       8.493 -10.637 -13.786  1.00  0.00    -0.388 OA
ATOM     53  HO  UNL     1       8.482  -9.747 -13.454  1.00  0.00     0.210 HD
ENDBRANCH  35  52
BRANCH  36  54
HETATM   54  O   UNL     1      10.049 -12.668 -12.657  1.00  0.00    -0.390 OA
ATOM     55  HO  UNL     1      10.695 -12.841 -11.982  1.00  0.00     0.210 HD
ENDBRANCH  36  54
ENDBRANCH  31  32
ENDBRANCH  30  31
ENDBRANCH   1  30
TORSDOF 16
ENDMDL
MODEL 16
REMARK VINA RESULT:    -8.796      3.220      4.856
REMARK INTER + INTRA:         -18.617
REMARK INTER:                 -16.371
REMARK INTRA:                  -2.246
REMARK UNBOUND:                -2.878
REMARK  16 active torsions:
REMARK  status: ('A' for Active; 'I' for Inactive)
REMARK    1  A    between atoms: P_1  and  O_30 
REMARK    2  A    between atoms: P_1  and  O_4 
REMARK    3  A    between atoms: O_4  and  C_5 
REMARK    4  A    between atoms: C_5  and  C_6 
REMARK    5  A    between atoms: C_8  and  O_9 
REMARK    6  A    between atoms: C_11  and  O_12 
REMARK    7  A    between atoms: C_14  and  N_15 
REMARK    8  A    between atoms: C_20  and  N_21 
REMARK    9  A    between atoms: O_30  and  P_31 
REMARK   10  A    between atoms: P_31  and  O_34 
REMARK   11  A    between atoms: O_34  and  C_35 
REMARK   12  A    between atoms: C_35  and  C_36 
REMARK   13  A    between atoms: C_38  and  O_39 
REMARK   14  A    between atoms: C_41  and  O_42 
REMARK   15  A    between atoms: C_44  and  N_45 
REMARK   16  A    between atoms: C_47  and  C_48 
REMARK       I    between atoms: C_48  and  N_50 
ROOT
HETATM    1  P   UNL     1       8.207 -14.925 -10.557  1.00  0.00     0.417 P 
HETATM    2  O   UNL     1       7.833 -16.363 -10.807  1.00  0.00    -0.624 OA
HETATM    3  O   UNL     1       8.390 -14.469  -9.151  1.00  0.00    -0.624 OA
ENDROOT
BRANCH   1   4
HETATM    4  O   UNL     1       9.572 -14.640 -11.343  1.00  0.00    -0.180 OA
BRANCH   4   5
HETATM    5  P   UNL     1      11.095 -14.305 -11.028  1.00  0.00     0.417 P 
HETATM    6  O   UNL     1      11.922 -14.656 -12.209  1.00  0.00    -0.624 OA
HETATM    7  O   UNL     1      11.099 -12.920 -10.449  1.00  0.00    -0.624 OA
BRANCH   5   8
HETATM    8  O   UNL     1      11.365 -15.271  -9.789  1.00  0.00    -0.289 OA
BRANCH   8   9
HETATM    9  C   UNL     1      12.360 -14.920  -8.781  1.00  0.00     0.189 C 
BRANCH   9  10
HETATM   10  C   UNL     1      11.662 -14.958  -7.443  1.00  0.00     0.043 C 
HETATM   11  C   UNL     1      11.053 -13.594  -7.046  1.00  0.00     0.155 C 
HETATM   12  C   UNL     1      12.144 -12.954  -6.177  1.00  0.00     0.170 C 
HETATM   13  C   UNL     1      12.685 -14.130  -5.339  1.00  0.00     0.120 C 
HETATM   14  C   UNL     1      12.599 -15.356  -6.289  1.00  0.00     0.037 C 
BRANCH  11  15
HETATM   15  O   UNL     1       9.826 -13.801  -6.336  1.00  0.00    -0.392 OA
ATOM     16  HO  UNL     1       9.685 -14.711  -6.099  1.00  0.00     0.210 HD
ENDBRANCH  11  15
BRANCH  12  17
HETATM   17  O   UNL     1      11.585 -11.930  -5.356  1.00  0.00    -0.391 OA
ATOM     18  HO  UNL     1      11.208 -12.282  -4.558  1.00  0.00     0.210 HD
ENDBRANCH  12  17
BRANCH  13  19
HETATM   19  N   UNL     1      14.065 -13.922  -4.799  1.00  0.00    -0.358 N 
HETATM   20  C   UNL     1      15.082 -13.587  -5.616  1.00  0.00     0.091 A 
HETATM   21  C   UNL     1      16.377 -13.468  -5.175  1.00  0.00     0.018 A 
HETATM   22  C   UNL     1      16.667 -13.630  -3.842  1.00  0.00     0.020 A 
HETATM   23  C   UNL     1      15.629 -13.929  -2.962  1.00  0.00     0.047 A 
HETATM   24  C   UNL     1      14.334 -14.090  -3.452  1.00  0.00     0.108 A 
BRANCH  23  25
HETATM   25  C   UNL     1      15.884 -14.108  -1.487  1.00  0.00     0.250 C 
HETATM   26  O   UNL     1      17.040 -14.246  -1.079  1.00  0.00    -0.268 OA
HETATM   27  N   UNL     1      14.838 -14.092  -0.680  1.00  0.00    -0.366 N 
ATOM     28  HN2 UNL     1      15.011 -14.213   0.318  1.00  0.00     0.159 HD
ATOM     29  HN1 UNL     1      13.883 -13.977  -1.018  1.00  0.00     0.159 HD
ENDBRANCH  23  25
ENDBRANCH  13  19
ENDBRANCH   9  10
ENDBRANCH   8   9
ENDBRANCH   5   8
ENDBRANCH   4   5
ENDBRANCH   1   4
BRANCH   1  30
HETATM   30  O   UNL     1       7.092 -14.081 -11.254  1.00  0.00    -0.287 OA
BRANCH  30  31
HETATM   31  C   UNL     1       7.173 -12.632 -11.294  1.00  0.00     0.216 C 
BRANCH  31  32
HETATM   32  C   UNL     1       7.070 -12.245 -12.735  1.00  0.00     0.180 C 
HETATM   33  O   UNL     1       7.421 -13.358 -13.592  1.00  0.00    -0.353 OA
HETATM   34  C   UNL     1       6.491 -13.408 -14.650  1.00  0.00     0.262 C 
HETATM   35  C   UNL     1       5.178 -12.971 -14.020  1.00  0.00     0.198 C 
HETATM   36  C   UNL     1       5.685 -11.775 -13.210  1.00  0.00     0.182 C 
BRANCH  34  37
HETATM   37  N   UNL     1       6.508 -14.750 -15.221  1.00  0.00    -0.297 N 
HETATM   38  C   UNL     1       7.572 -15.316 -15.872  1.00  0.00     0.142 A 
HETATM   39  N   UNL     1       8.736 -14.727 -16.168  1.00  0.00    -0.336 N 
HETATM   40  C   UNL     1       7.201 -16.609 -16.182  1.00  0.00     0.122 A 
HETATM   41  C   UNL     1       9.513 -15.560 -16.850  1.00  0.00     0.183 A 
ATOM     42  HN  UNL     1       8.991 -13.773 -15.907  1.00  0.00     0.168 HD
HETATM   43  N   UNL     1       9.314 -16.838 -17.178  1.00  0.00    -0.337 N 
HETATM   44  C   UNL     1       8.117 -17.396 -16.897  1.00  0.00     0.131 A 
ATOM     45  HN  UNL     1      10.050 -17.380 -17.631  1.00  0.00     0.168 HD
HETATM   46  N   UNL     1       5.929 -16.867 -15.695  1.00  0.00    -0.346 N 
HETATM   47  C   UNL     1       5.566 -15.742 -15.128  1.00  0.00     0.188 A 
ATOM     48  HN  UNL     1       5.397 -17.734 -15.763  1.00  0.00     0.167 HD
BRANCH  44  49
HETATM   49  N   UNL     1       7.871 -18.644 -17.299  1.00  0.00    -0.383 N 
ATOM     50  HN2 UNL     1       7.428 -19.354 -16.715  1.00  0.00     0.157 HD
ATOM     51  HN1 UNL     1       8.142 -18.925 -18.242  1.00  0.00     0.157 HD
ENDBRANCH  44  49
ENDBRANCH  34  37
BRANCH  35  52
HETATM   52  O   UNL     1       4.198 -12.632 -14.974  1.00  0.00    -0.388 OA
ATOM     53  HO  UNL     1       3.365 -12.385 -14.590  1.00  0.00     0.210 HD
ENDBRANCH  35  52
BRANCH  36  54
HETATM   54  O   UNL     1       5.896 -10.626 -14.018  1.00  0.00    -0.390 OA
ATOM     55  HO  UNL     1       5.039 -10.321 -14.292  1.00  0.00     0.210 HD
ENDBRANCH  36  54
ENDBRANCH  31  32
ENDBRANCH  30  31
ENDBRANCH   1  30
TORSDOF 16
ENDMDL
MODEL 17
REMARK VINA RESULT:    -8.700      2.989      4.628
REMARK INTER + INTRA:         -18.445
REMARK INTER:                 -16.495
REMARK INTRA:                  -1.949
REMARK UNBOUND:                -2.878
REMARK  16 active torsions:
REMARK  status: ('A' for Active; 'I' for Inactive)
REMARK    1  A    between atoms: P_1  and  O_30 
REMARK    2  A    between atoms: P_1  and  O_4 
REMARK    3  A    between atoms: O_4  and  C_5 
REMARK    4  A    between atoms: C_5  and  C_6 
REMARK    5  A    between atoms: C_8  and  O_9 
REMARK    6  A    between atoms: C_11  and  O_12 
REMARK    7  A    between atoms: C_14  and  N_15 
REMARK    8  A    between atoms: C_20  and  N_21 
REMARK    9  A    between atoms: O_30  and  P_31 
REMARK   10  A    between atoms: P_31  and  O_34 
REMARK   11  A    between atoms: O_34  and  C_35 
REMARK   12  A    between atoms: C_35  and  C_36 
REMARK   13  A    between atoms: C_38  and  O_39 
REMARK   14  A    between atoms: C_41  and  O_42 
REMARK   15  A    between atoms: C_44  and  N_45 
REMARK   16  A    between atoms: C_47  and  C_48 
REMARK       I    between atoms: C_48  and  N_50 
ROOT
HETATM    1  P   UNL     1       8.261 -13.019  -9.384  1.00  0.00     0.417 P 
HETATM    2  O   UNL     1       7.635 -14.166  -8.633  1.00  0.00    -0.624 OA
HETATM    3  O   UNL     1       8.660 -11.801  -8.626  1.00  0.00    -0.624 OA
ENDROOT
BRANCH   1   4
HETATM    4  O   UNL     1       9.564 -13.582 -10.123  1.00  0.00    -0.180 OA
BRANCH   4   5
HETATM    5  P   UNL     1      10.523 -14.851 -10.073  1.00  0.00     0.417 P 
HETATM    6  O   UNL     1       9.698 -16.074  -9.917  1.00  0.00    -0.624 OA
HETATM    7  O   UNL     1      11.479 -14.688 -11.218  1.00  0.00    -0.624 OA
BRANCH   5   8
HETATM    8  O   UNL     1      11.381 -14.527  -8.770  1.00  0.00    -0.289 OA
BRANCH   8   9
HETATM    9  C   UNL     1      11.379 -15.446  -7.635  1.00  0.00     0.189 C 
BRANCH   9  10
HETATM   10  C   UNL     1      10.953 -14.649  -6.426  1.00  0.00     0.043 C 
HETATM   11  C   UNL     1      10.873 -13.131  -6.706  1.00  0.00     0.155 C 
HETATM   12  C   UNL     1      12.244 -12.611  -6.254  1.00  0.00     0.170 C 
HETATM   13  C   UNL     1      12.538 -13.413  -4.970  1.00  0.00     0.120 C 
HETATM   14  C   UNL     1      11.912 -14.810  -5.233  1.00  0.00     0.037 C 
BRANCH  11  15
HETATM   15  O   UNL     1       9.788 -12.559  -5.965  1.00  0.00    -0.392 OA
ATOM     16  HO  UNL     1       9.733 -12.891  -5.076  1.00  0.00     0.210 HD
ENDBRANCH  11  15
BRANCH  12  17
HETATM   17  O   UNL     1      12.182 -11.208  -6.001  1.00  0.00    -0.391 OA
ATOM     18  HO  UNL     1      12.865 -10.735  -6.463  1.00  0.00     0.210 HD
ENDBRANCH  12  17
BRANCH  13  19
HETATM   19  N   UNL     1      13.988 -13.495  -4.611  1.00  0.00    -0.358 N 
HETATM   20  C   UNL     1      14.941 -13.337  -5.550  1.00  0.00     0.091 A 
HETATM   21  C   UNL     1      16.279 -13.487  -5.279  1.00  0.00     0.018 A 
HETATM   22  C   UNL     1      16.695 -13.747  -3.996  1.00  0.00     0.020 A 
HETATM   23  C   UNL     1      15.737 -13.868  -2.991  1.00  0.00     0.047 A 
HETATM   24  C   UNL     1      14.385 -13.758  -3.312  1.00  0.00     0.108 A 
BRANCH  23  25
HETATM   25  C   UNL     1      16.134 -14.143  -1.564  1.00  0.00     0.250 C 
HETATM   26  O   UNL     1      17.315 -14.376  -1.291  1.00  0.00    -0.268 OA
HETATM   27  N   UNL     1      15.183 -14.105  -0.647  1.00  0.00    -0.366 N 
ATOM     28  HN2 UNL     1      15.452 -14.290   0.319  1.00  0.00     0.159 HD
ATOM     29  HN1 UNL     1      14.208 -13.912  -0.873  1.00  0.00     0.159 HD
ENDBRANCH  23  25
ENDBRANCH  13  19
ENDBRANCH   9  10
ENDBRANCH   8   9
ENDBRANCH   5   8
ENDBRANCH   4   5
ENDBRANCH   1   4
BRANCH   1  30
HETATM   30  O   UNL     1       7.230 -12.642 -10.497  1.00  0.00    -0.287 OA
BRANCH  30  31
HETATM   31  C   UNL     1       7.054 -13.489 -11.663  1.00  0.00     0.216 C 
BRANCH  31  32
HETATM   32  C   UNL     1       7.918 -12.907 -12.738  1.00  0.00     0.180 C 
HETATM   33  O   UNL     1       8.506 -13.954 -13.547  1.00  0.00    -0.353 OA
HETATM   34  C   UNL     1       8.418 -13.566 -14.900  1.00  0.00     0.262 C 
HETATM   35  C   UNL     1       7.099 -12.816 -14.991  1.00  0.00     0.198 C 
HETATM   36  C   UNL     1       7.218 -11.960 -13.728  1.00  0.00     0.182 C 
BRANCH  34  37
HETATM   37  N   UNL     1       8.532 -14.758 -15.733  1.00  0.00    -0.297 N 
HETATM   38  C   UNL     1       7.703 -15.846 -15.670  1.00  0.00     0.142 A 
HETATM   39  N   UNL     1       6.707 -16.046 -14.799  1.00  0.00    -0.336 N 
HETATM   40  C   UNL     1       8.108 -16.707 -16.670  1.00  0.00     0.122 A 
HETATM   41  C   UNL     1       6.151 -17.234 -15.001  1.00  0.00     0.183 A 
ATOM     42  HN  UNL     1       6.417 -15.381 -14.082  1.00  0.00     0.168 HD
HETATM   43  N   UNL     1       6.399 -18.144 -15.946  1.00  0.00    -0.337 N 
HETATM   44  C   UNL     1       7.432 -17.931 -16.790  1.00  0.00     0.131 A 
ATOM     45  HN  UNL     1       5.821 -18.980 -16.028  1.00  0.00     0.168 HD
HETATM   46  N   UNL     1       9.158 -16.147 -17.381  1.00  0.00    -0.346 N 
HETATM   47  C   UNL     1       9.366 -14.993 -16.795  1.00  0.00     0.188 A 
ATOM     48  HN  UNL     1       9.656 -16.544 -18.178  1.00  0.00     0.167 HD
BRANCH  44  49
HETATM   49  N   UNL     1       7.747 -18.872 -17.681  1.00  0.00    -0.383 N 
ATOM     50  HN2 UNL     1       7.181 -19.703 -17.858  1.00  0.00     0.157 HD
ATOM     51  HN1 UNL     1       8.606 -18.775 -18.224  1.00  0.00     0.157 HD
ENDBRANCH  44  49
ENDBRANCH  34  37
BRANCH  35  52
HETATM   52  O   UNL     1       6.979 -12.060 -16.174  1.00  0.00    -0.388 OA
ATOM     53  HO  UNL     1       7.815 -11.826 -16.561  1.00  0.00     0.210 HD
ENDBRANCH  35  52
BRANCH  36  54
HETATM   54  O   UNL     1       8.081 -10.846 -13.908  1.00  0.00    -0.390 OA
ATOM     55  HO  UNL     1       8.589 -10.760 -13.110  1.00  0.00     0.210 HD
ENDBRANCH  36  54
ENDBRANCH  31  32
ENDBRANCH  30  31
ENDBRANCH   1  30
TORSDOF 16
ENDMDL
MODEL 18
REMARK VINA RESULT:    -8.645      2.736      4.022
REMARK INTER + INTRA:         -18.346
REMARK INTER:                 -15.935
REMARK INTRA:                  -2.411
REMARK UNBOUND:                -2.878
REMARK  16 active torsions:
REMARK  status: ('A' for Active; 'I' for Inactive)
REMARK    1  A    between atoms: P_1  and  O_30 
REMARK    2  A    between atoms: P_1  and  O_4 
REMARK    3  A    between atoms: O_4  and  C_5 
REMARK    4  A    between atoms: C_5  and  C_6 
REMARK    5  A    between atoms: C_8  and  O_9 
REMARK    6  A    between atoms: C_11  and  O_12 
REMARK    7  A    between atoms: C_14  and  N_15 
REMARK    8  A    between atoms: C_20  and  N_21 
REMARK    9  A    between atoms: O_30  and  P_31 
REMARK   10  A    between atoms: P_31  and  O_34 
REMARK   11  A    between atoms: O_34  and  C_35 
REMARK   12  A    between atoms: C_35  and  C_36 
REMARK   13  A    between atoms: C_38  and  O_39 
REMARK   14  A    between atoms: C_41  and  O_42 
REMARK   15  A    between atoms: C_44  and  N_45 
REMARK   16  A    between atoms: C_47  and  C_48 
REMARK       I    between atoms: C_48  and  N_50 
ROOT
HETATM    1  P   UNL     1      12.341 -14.713 -10.163  1.00  0.00     0.417 P 
HETATM    2  O   UNL     1      12.331 -13.309  -9.617  1.00  0.00    -0.624 OA
HETATM    3  O   UNL     1      13.624 -15.274 -10.670  1.00  0.00    -0.624 OA
ENDROOT
BRANCH   1   4
HETATM    4  O   UNL     1      11.808 -15.683  -9.006  1.00  0.00    -0.180 OA
BRANCH   4   5
HETATM    5  P   UNL     1      12.322 -16.330  -7.646  1.00  0.00     0.417 P 
HETATM    6  O   UNL     1      12.400 -17.801  -7.810  1.00  0.00    -0.624 OA
HETATM    7  O   UNL     1      13.517 -15.520  -7.234  1.00  0.00    -0.624 OA
BRANCH   5   8
HETATM    8  O   UNL     1      11.162 -15.889  -6.647  1.00  0.00    -0.289 OA
BRANCH   8   9
HETATM    9  C   UNL     1      10.161 -14.911  -7.062  1.00  0.00     0.189 C 
BRANCH   9  10
HETATM   10  C   UNL     1      10.070 -13.883  -5.960  1.00  0.00     0.043 C 
HETATM   11  C   UNL     1      10.125 -12.432  -6.489  1.00  0.00     0.155 C 
HETATM   12  C   UNL     1      11.609 -12.062  -6.369  1.00  0.00     0.170 C 
HETATM   13  C   UNL     1      12.039 -12.693  -5.029  1.00  0.00     0.120 C 
HETATM   14  C   UNL     1      11.210 -14.002  -4.932  1.00  0.00     0.037 C 
BRANCH  11  15
HETATM   15  O   UNL     1       9.276 -11.595  -5.694  1.00  0.00    -0.392 OA
ATOM     16  HO  UNL     1       9.532 -10.680  -5.719  1.00  0.00     0.210 HD
ENDBRANCH  11  15
BRANCH  12  17
HETATM   17  O   UNL     1      11.767 -10.644  -6.364  1.00  0.00    -0.391 OA
ATOM     18  HO  UNL     1      12.013 -10.319  -5.506  1.00  0.00     0.210 HD
ENDBRANCH  12  17
BRANCH  13  19
HETATM   19  N   UNL     1      13.510 -12.938  -4.905  1.00  0.00    -0.358 N 
HETATM   20  C   UNL     1      14.326 -12.785  -5.965  1.00  0.00     0.091 A 
HETATM   21  C   UNL     1      15.666 -13.079  -5.915  1.00  0.00     0.018 A 
HETATM   22  C   UNL     1      16.237 -13.488  -4.735  1.00  0.00     0.020 A 
HETATM   23  C   UNL     1      15.429 -13.610  -3.606  1.00  0.00     0.047 A 
HETATM   24  C   UNL     1      14.063 -13.350  -3.706  1.00  0.00     0.108 A 
BRANCH  23  25
HETATM   25  C   UNL     1      16.000 -14.045  -2.281  1.00  0.00     0.250 C 
HETATM   26  O   UNL     1      17.112 -14.578  -2.239  1.00  0.00    -0.268 OA
HETATM   27  N   UNL     1      15.276 -13.816  -1.200  1.00  0.00    -0.366 N 
ATOM     28  HN2 UNL     1      15.662 -14.110  -0.303  1.00  0.00     0.159 HD
ATOM     29  HN1 UNL     1      14.357 -13.375  -1.234  1.00  0.00     0.159 HD
ENDBRANCH  23  25
ENDBRANCH  13  19
ENDBRANCH   9  10
ENDBRANCH   8   9
ENDBRANCH   5   8
ENDBRANCH   4   5
ENDBRANCH   1   4
BRANCH   1  30
HETATM   30  O   UNL     1      11.267 -14.722 -11.298  1.00  0.00    -0.287 OA
BRANCH  30  31
HETATM   31  C   UNL     1      10.470 -13.541 -11.577  1.00  0.00     0.216 C 
BRANCH  31  32
HETATM   32  C   UNL     1       9.095 -13.831 -11.063  1.00  0.00     0.180 C 
HETATM   33  O   UNL     1       8.109 -13.018 -11.744  1.00  0.00    -0.353 OA
HETATM   34  C   UNL     1       7.002 -13.835 -12.050  1.00  0.00     0.262 C 
HETATM   35  C   UNL     1       7.609 -15.192 -12.365  1.00  0.00     0.198 C 
HETATM   36  C   UNL     1       8.611 -15.283 -11.211  1.00  0.00     0.182 C 
BRANCH  34  37
HETATM   37  N   UNL     1       6.247 -13.209 -13.129  1.00  0.00    -0.297 N 
HETATM   38  C   UNL     1       6.793 -12.662 -14.259  1.00  0.00     0.142 A 
HETATM   39  N   UNL     1       8.096 -12.533 -14.538  1.00  0.00    -0.336 N 
HETATM   40  C   UNL     1       5.738 -12.251 -15.048  1.00  0.00     0.122 A 
HETATM   41  C   UNL     1       8.258 -11.909 -15.699  1.00  0.00     0.183 A 
ATOM     42  HN  UNL     1       8.855 -12.865 -13.944  1.00  0.00     0.168 HD
HETATM   43  N   UNL     1       7.347 -11.501 -16.584  1.00  0.00    -0.337 N 
HETATM   44  C   UNL     1       6.040 -11.613 -16.261  1.00  0.00     0.131 A 
ATOM     45  HN  UNL     1       7.630 -11.114 -17.484  1.00  0.00     0.168 HD
HETATM   46  N   UNL     1       4.536 -12.572 -14.436  1.00  0.00    -0.346 N 
HETATM   47  C   UNL     1       4.890 -13.144 -13.311  1.00  0.00     0.188 A 
ATOM     48  HN  UNL     1       3.592 -12.402 -14.783  1.00  0.00     0.167 HD
BRANCH  44  49
HETATM   49  N   UNL     1       5.120 -11.127 -17.097  1.00  0.00    -0.383 N 
ATOM     50  HN2 UNL     1       4.966 -10.132 -17.259  1.00  0.00     0.157 HD
ATOM     51  HN1 UNL     1       4.521 -11.776 -17.608  1.00  0.00     0.157 HD
ENDBRANCH  44  49
ENDBRANCH  34  37
BRANCH  35  52
HETATM   52  O   UNL     1       6.658 -16.231 -12.368  1.00  0.00    -0.388 OA
ATOM     53  HO  UNL     1       5.760 -15.923 -12.378  1.00  0.00     0.210 HD
ENDBRANCH  35  52
BRANCH  36  54
HETATM   54  O   UNL     1       7.991 -15.636  -9.983  1.00  0.00    -0.390 OA
ATOM     55  HO  UNL     1       8.662 -15.587  -9.312  1.00  0.00     0.210 HD
ENDBRANCH  36  54
ENDBRANCH  31  32
ENDBRANCH  30  31
ENDBRANCH   1  30
TORSDOF 16
ENDMDL
MODEL 19
REMARK VINA RESULT:    -8.638      2.830      3.716
REMARK INTER + INTRA:         -18.334
REMARK INTER:                 -16.512
REMARK INTRA:                  -1.822
REMARK UNBOUND:                -2.878
REMARK  16 active torsions:
REMARK  status: ('A' for Active; 'I' for Inactive)
REMARK    1  A    between atoms: P_1  and  O_30 
REMARK    2  A    between atoms: P_1  and  O_4 
REMARK    3  A    between atoms: O_4  and  C_5 
REMARK    4  A    between atoms: C_5  and  C_6 
REMARK    5  A    between atoms: C_8  and  O_9 
REMARK    6  A    between atoms: C_11  and  O_12 
REMARK    7  A    between atoms: C_14  and  N_15 
REMARK    8  A    between atoms: C_20  and  N_21 
REMARK    9  A    between atoms: O_30  and  P_31 
REMARK   10  A    between atoms: P_31  and  O_34 
REMARK   11  A    between atoms: O_34  and  C_35 
REMARK   12  A    between atoms: C_35  and  C_36 
REMARK   13  A    between atoms: C_38  and  O_39 
REMARK   14  A    between atoms: C_41  and  O_42 
REMARK   15  A    between atoms: C_44  and  N_45 
REMARK   16  A    between atoms: C_47  and  C_48 
REMARK       I    between atoms: C_48  and  N_50 
ROOT
HETATM    1  P   UNL     1      11.376 -13.090 -10.575  1.00  0.00     0.417 P 
HETATM    2  O   UNL     1      11.362 -11.629 -10.942  1.00  0.00    -0.624 OA
HETATM    3  O   UNL     1      11.568 -14.096 -11.656  1.00  0.00    -0.624 OA
ENDROOT
BRANCH   1   4
HETATM    4  O   UNL     1      12.542 -13.303  -9.499  1.00  0.00    -0.180 OA
BRANCH   4   5
HETATM    5  P   UNL     1      13.815 -14.231  -9.271  1.00  0.00     0.417 P 
HETATM    6  O   UNL     1      14.017 -15.078 -10.471  1.00  0.00    -0.624 OA
HETATM    7  O   UNL     1      14.895 -13.325  -8.755  1.00  0.00    -0.624 OA
BRANCH   5   8
HETATM    8  O   UNL     1      13.347 -15.076  -8.003  1.00  0.00    -0.289 OA
BRANCH   8   9
HETATM    9  C   UNL     1      12.000 -15.635  -7.943  1.00  0.00     0.189 C 
BRANCH   9  10
HETATM   10  C   UNL     1      11.433 -15.272  -6.592  1.00  0.00     0.043 C 
HETATM   11  C   UNL     1      10.982 -13.796  -6.508  1.00  0.00     0.155 C 
HETATM   12  C   UNL     1      12.201 -13.082  -5.910  1.00  0.00     0.170 C 
HETATM   13  C   UNL     1      12.720 -14.068  -4.844  1.00  0.00     0.120 C 
HETATM   14  C   UNL     1      12.441 -15.473  -5.445  1.00  0.00     0.037 C 
BRANCH  11  15
HETATM   15  O   UNL     1       9.816 -13.694  -5.682  1.00  0.00    -0.392 OA
ATOM     16  HO  UNL     1       9.081 -13.289  -6.129  1.00  0.00     0.210 HD
ENDBRANCH  11  15
BRANCH  12  17
HETATM   17  O   UNL     1      11.812 -11.836  -5.335  1.00  0.00    -0.391 OA
ATOM     18  HO  UNL     1      12.362 -11.121  -5.634  1.00  0.00     0.210 HD
ENDBRANCH  12  17
BRANCH  13  19
HETATM   19  N   UNL     1      14.158 -13.880  -4.476  1.00  0.00    -0.358 N 
HETATM   20  C   UNL     1      15.065 -13.515  -5.402  1.00  0.00     0.091 A 
HETATM   21  C   UNL     1      16.406 -13.413  -5.124  1.00  0.00     0.018 A 
HETATM   22  C   UNL     1      16.861 -13.624  -3.846  1.00  0.00     0.020 A 
HETATM   23  C   UNL     1      15.942 -13.957  -2.853  1.00  0.00     0.047 A 
HETATM   24  C   UNL     1      14.595 -14.100  -3.181  1.00  0.00     0.108 A 
BRANCH  23  25
HETATM   25  C   UNL     1      16.381 -14.191  -1.430  1.00  0.00     0.250 C 
HETATM   26  O   UNL     1      17.560 -14.469  -1.192  1.00  0.00    -0.268 OA
HETATM   27  N   UNL     1      15.469 -14.070  -0.482  1.00  0.00    -0.366 N 
ATOM     28  HN2 UNL     1      15.766 -14.229   0.481  1.00  0.00     0.159 HD
ATOM     29  HN1 UNL     1      14.496 -13.841  -0.680  1.00  0.00     0.159 HD
ENDBRANCH  23  25
ENDBRANCH  13  19
ENDBRANCH   9  10
ENDBRANCH   8   9
ENDBRANCH   5   8
ENDBRANCH   4   5
ENDBRANCH   1   4
BRANCH   1  30
HETATM   30  O   UNL     1      10.022 -13.345  -9.839  1.00  0.00    -0.287 OA
BRANCH  30  31
HETATM   31  C   UNL     1       8.915 -12.416  -9.975  1.00  0.00     0.216 C 
BRANCH  31  32
HETATM   32  C   UNL     1       7.765 -13.207 -10.514  1.00  0.00     0.180 C 
HETATM   33  O   UNL     1       7.199 -12.563 -11.680  1.00  0.00    -0.353 OA
HETATM   34  C   UNL     1       6.942 -13.555 -12.648  1.00  0.00     0.262 C 
HETATM   35  C   UNL     1       8.074 -14.554 -12.475  1.00  0.00     0.198 C 
HETATM   36  C   UNL     1       8.082 -14.649 -10.947  1.00  0.00     0.182 C 
BRANCH  34  37
HETATM   37  N   UNL     1       6.852 -12.916 -13.956  1.00  0.00    -0.297 N 
HETATM   38  C   UNL     1       6.071 -11.830 -14.250  1.00  0.00     0.142 A 
HETATM   39  N   UNL     1       5.206 -11.219 -13.431  1.00  0.00    -0.336 N 
HETATM   40  C   UNL     1       6.335 -11.500 -15.564  1.00  0.00     0.122 A 
HETATM   41  C   UNL     1       4.585 -10.234 -14.070  1.00  0.00     0.183 A 
ATOM     42  HN  UNL     1       5.047 -11.473 -12.456  1.00  0.00     0.168 HD
HETATM   43  N   UNL     1       4.766  -9.772 -15.308  1.00  0.00    -0.337 N 
HETATM   44  C   UNL     1       5.619 -10.429 -16.123  1.00  0.00     0.131 A 
ATOM     45  HN  UNL     1       4.271  -8.941 -15.632  1.00  0.00     0.168 HD
HETATM   46  N   UNL     1       7.302 -12.347 -16.080  1.00  0.00    -0.346 N 
HETATM   47  C   UNL     1       7.582 -13.159 -15.090  1.00  0.00     0.188 A 
ATOM     48  HN  UNL     1       7.705 -12.340 -17.017  1.00  0.00     0.167 HD
BRANCH  44  49
HETATM   49  N   UNL     1       5.743 -10.032 -17.391  1.00  0.00    -0.383 N 
ATOM     50  HN2 UNL     1       4.953  -9.827 -18.004  1.00  0.00     0.157 HD
ATOM     51  HN1 UNL     1       6.676  -9.928 -17.791  1.00  0.00     0.157 HD
ENDBRANCH  44  49
ENDBRANCH  34  37
BRANCH  35  52
HETATM   52  O   UNL     1       7.822 -15.785 -13.114  1.00  0.00    -0.388 OA
ATOM     53  HO  UNL     1       8.485 -16.443 -12.942  1.00  0.00     0.210 HD
ENDBRANCH  35  52
BRANCH  36  54
HETATM   54  O   UNL     1       7.032 -15.466 -10.450  1.00  0.00    -0.390 OA
ATOM     55  HO  UNL     1       6.441 -14.894  -9.974  1.00  0.00     0.210 HD
ENDBRANCH  36  54
ENDBRANCH  31  32
ENDBRANCH  30  31
ENDBRANCH   1  30
TORSDOF 16
ENDMDL
MODEL 20
REMARK VINA RESULT:    -8.565      2.591      3.398
REMARK INTER + INTRA:         -18.202
REMARK INTER:                 -16.242
REMARK INTRA:                  -1.960
REMARK UNBOUND:                -2.878
REMARK  16 active torsions:
REMARK  status: ('A' for Active; 'I' for Inactive)
REMARK    1  A    between atoms: P_1  and  O_30 
REMARK    2  A    between atoms: P_1  and  O_4 
REMARK    3  A    between atoms: O_4  and  C_5 
REMARK    4  A    between atoms: C_5  and  C_6 
REMARK    5  A    between atoms: C_8  and  O_9 
REMARK    6  A    between atoms: C_11  and  O_12 
REMARK    7  A    between atoms: C_14  and  N_15 
REMARK    8  A    between atoms: C_20  and  N_21 
REMARK    9  A    between atoms: O_30  and  P_31 
REMARK   10  A    between atoms: P_31  and  O_34 
REMARK   11  A    between atoms: O_34  and  C_35 
REMARK   12  A    between atoms: C_35  and  C_36 
REMARK   13  A    between atoms: C_38  and  O_39 
REMARK   14  A    between atoms: C_41  and  O_42 
REMARK   15  A    between atoms: C_44  and  N_45 
REMARK   16  A    between atoms: C_47  and  C_48 
REMARK       I    between atoms: C_48  and  N_50 
ROOT
HETATM    1  P   UNL     1       8.178 -13.363 -10.229  1.00  0.00     0.417 P 
HETATM    2  O   UNL     1       6.995 -12.595  -9.697  1.00  0.00    -0.624 OA
HETATM    3  O   UNL     1       9.548 -12.904  -9.869  1.00  0.00    -0.624 OA
ENDROOT
BRANCH   1   4
HETATM    4  O   UNL     1       8.027 -14.879  -9.738  1.00  0.00    -0.180 OA
BRANCH   4   5
HETATM    5  P   UNL     1       8.900 -16.010  -9.036  1.00  0.00     0.417 P 
HETATM    6  O   UNL     1       8.150 -17.288  -9.066  1.00  0.00    -0.624 OA
HETATM    7  O   UNL     1      10.276 -15.890  -9.625  1.00  0.00    -0.624 OA
BRANCH   5   8
HETATM    8  O   UNL     1       9.031 -15.416  -7.562  1.00  0.00    -0.289 OA
BRANCH   8   9
HETATM    9  C   UNL     1      10.341 -15.274  -6.936  1.00  0.00     0.189 C 
BRANCH   9  10
HETATM   10  C   UNL     1      10.197 -14.238  -5.848  1.00  0.00     0.043 C 
HETATM   11  C   UNL     1      10.208 -12.791  -6.391  1.00  0.00     0.155 C 
HETATM   12  C   UNL     1      11.676 -12.367  -6.254  1.00  0.00     0.170 C 
HETATM   13  C   UNL     1      12.108 -12.968  -4.901  1.00  0.00     0.120 C 
HETATM   14  C   UNL     1      11.325 -14.306  -4.802  1.00  0.00     0.037 C 
BRANCH  11  15
HETATM   15  O   UNL     1       9.318 -11.977  -5.617  1.00  0.00    -0.392 OA
ATOM     16  HO  UNL     1       9.060 -11.181  -6.067  1.00  0.00     0.210 HD
ENDBRANCH  11  15
BRANCH  12  17
HETATM   17  O   UNL     1      11.783 -10.944  -6.262  1.00  0.00    -0.391 OA
ATOM     18  HO  UNL     1      12.651 -10.654  -6.005  1.00  0.00     0.210 HD
ENDBRANCH  12  17
BRANCH  13  19
HETATM   19  N   UNL     1      13.585 -13.158  -4.753  1.00  0.00    -0.358 N 
HETATM   20  C   UNL     1      14.408 -13.015  -5.810  1.00  0.00     0.091 A 
HETATM   21  C   UNL     1      15.757 -13.262  -5.735  1.00  0.00     0.018 A 
HETATM   22  C   UNL     1      16.327 -13.610  -4.536  1.00  0.00     0.020 A 
HETATM   23  C   UNL     1      15.511 -13.719  -3.411  1.00  0.00     0.047 A 
HETATM   24  C   UNL     1      14.138 -13.509  -3.534  1.00  0.00     0.108 A 
BRANCH  23  25
HETATM   25  C   UNL     1      16.081 -14.088  -2.066  1.00  0.00     0.250 C 
HETATM   26  O   UNL     1      15.343 -14.120  -1.077  1.00  0.00    -0.268 OA
HETATM   27  N   UNL     1      17.367 -14.381  -2.007  1.00  0.00    -0.366 N 
ATOM     28  HN2 UNL     1      17.753 -14.631  -1.097  1.00  0.00     0.159 HD
ATOM     29  HN1 UNL     1      17.977 -14.354  -2.825  1.00  0.00     0.159 HD
ENDBRANCH  23  25
ENDBRANCH  13  19
ENDBRANCH   9  10
ENDBRANCH   8   9
ENDBRANCH   5   8
ENDBRANCH   4   5
ENDBRANCH   1   4
BRANCH   1  30
HETATM   30  O   UNL     1       8.005 -13.366 -11.782  1.00  0.00    -0.287 OA
BRANCH  30  31
HETATM   31  C   UNL     1       8.193 -14.585 -12.548  1.00  0.00     0.216 C 
BRANCH  31  32
HETATM   32  C   UNL     1       8.629 -14.158 -13.915  1.00  0.00     0.180 C 
HETATM   33  O   UNL     1       7.529 -13.559 -14.641  1.00  0.00    -0.353 OA
HETATM   34  C   UNL     1       8.012 -12.411 -15.301  1.00  0.00     0.262 C 
HETATM   35  C   UNL     1       9.049 -11.837 -14.350  1.00  0.00     0.198 C 
HETATM   36  C   UNL     1       9.772 -13.131 -13.969  1.00  0.00     0.182 C 
BRANCH  34  37
HETATM   37  N   UNL     1       6.882 -11.543 -15.612  1.00  0.00    -0.297 N 
HETATM   38  C   UNL     1       5.920 -11.152 -14.719  1.00  0.00     0.142 A 
HETATM   39  N   UNL     1       5.799 -11.548 -13.446  1.00  0.00    -0.336 N 
HETATM   40  C   UNL     1       5.088 -10.282 -15.393  1.00  0.00     0.122 A 
HETATM   41  C   UNL     1       4.720 -11.005 -12.897  1.00  0.00     0.183 A 
ATOM     42  HN  UNL     1       6.444 -12.178 -12.967  1.00  0.00     0.168 HD
HETATM   43  N   UNL     1       3.857 -10.121 -13.401  1.00  0.00    -0.337 N 
HETATM   44  C   UNL     1       3.984  -9.765 -14.698  1.00  0.00     0.131 A 
ATOM     45  HN  UNL     1       3.119  -9.723 -12.820  1.00  0.00     0.168 HD
HETATM   46  N   UNL     1       5.544 -10.098 -16.689  1.00  0.00    -0.346 N 
HETATM   47  C   UNL     1       6.610 -10.856 -16.766  1.00  0.00     0.188 A 
ATOM     48  HN  UNL     1       5.142  -9.507 -17.417  1.00  0.00     0.167 HD
BRANCH  44  49
HETATM   49  N   UNL     1       3.076  -8.951 -15.240  1.00  0.00    -0.383 N 
ATOM     50  HN2 UNL     1       3.286  -8.017 -15.592  1.00  0.00     0.157 HD
ATOM     51  HN1 UNL     1       2.107  -9.263 -15.310  1.00  0.00     0.157 HD
ENDBRANCH  44  49
ENDBRANCH  34  37
BRANCH  35  52
HETATM   52  O   UNL     1       9.886 -10.883 -14.962  1.00  0.00    -0.388 OA
ATOM     53  HO  UNL     1       9.519 -10.007 -14.970  1.00  0.00     0.210 HD
ENDBRANCH  35  52
BRANCH  36  54
HETATM   54  O   UNL     1      10.668 -13.568 -14.981  1.00  0.00    -0.390 OA
ATOM     55  HO  UNL     1      11.175 -12.808 -15.245  1.00  0.00     0.210 HD
ENDBRANCH  36  54
ENDBRANCH  31  32
ENDBRANCH  30  31
ENDBRANCH   1  30
TORSDOF 16
ENDMDL
