MODEL 1
REMARK VINA RESULT:    -7.546      0.000      0.000
REMARK INTER + INTRA:         -10.830
REMARK INTER:                 -10.413
REMARK INTRA:                  -0.416
REMARK UNBOUND:                -0.416
REMARK  7 active torsions:
REMARK  status: ('A' for Active; 'I' for Inactive)
REMARK    1  A    between atoms: P_2  and  O_5 
REMARK    2  A    between atoms: O_5  and  C_6 
REMARK    3  A    between atoms: C_6  and  C_7 
REMARK    4  A    between atoms: C_7  and  C_8 
REMARK    5  A    between atoms: C_8  and  O_9 
REMARK    6  A    between atoms: C_8  and  C_12 
REMARK    7  A    between atoms: C_12  and  C_13 
ROOT
HETATM    1  C   UNL     1      -0.004 -20.745 -19.664  1.00  0.00     0.065 C 
HETATM    2  C   UNL     1      -0.997 -21.891 -19.729  1.00  0.00     0.046 C 
ENDROOT
BRANCH   1   3
HETATM    3  C   UNL     1       0.619 -20.800 -18.267  1.00  0.00     0.065 C 
BRANCH   3   4
HETATM    4  C   UNL     1       1.976 -20.105 -18.204  1.00  0.00     0.185 C 
BRANCH   4   5
HETATM    5  O   UNL     1       2.736 -20.616 -17.107  1.00  0.00    -0.283 OA
BRANCH   5   6
HETATM    6  P   UNL     1       3.178 -19.668 -15.889  1.00  0.00     0.422 P 
HETATM    7  O   UNL     1       2.181 -18.537 -15.813  1.00  0.00    -0.617 OA
HETATM    8  O   UNL     1       3.153 -20.475 -14.603  1.00  0.00    -0.617 OA
HETATM    9  O   UNL     1       4.620 -19.040 -16.168  1.00  0.00    -0.617 OA
ENDBRANCH   5   6
ENDBRANCH   4   5
ENDBRANCH   3   4
ENDBRANCH   1   3
BRANCH   1  10
HETATM   10  O   UNL     1      -0.744 -19.520 -19.819  1.00  0.00    -0.390 OA
ATOM     11  HO  UNL     1      -0.764 -19.272 -20.736  1.00  0.00     0.210 HD
ENDBRANCH   1  10
BRANCH   1  12
HETATM   12  C   UNL     1       1.098 -20.798 -20.735  1.00  0.00     0.150 C 
BRANCH  12  13
HETATM   13  C   UNL     1       0.761 -20.267 -22.123  1.00  0.00     0.175 C 
HETATM   14  O   UNL     1      -0.390 -20.382 -22.606  1.00  0.00    -0.648 OA
HETATM   15  O   UNL     1       1.708 -19.824 -22.824  1.00  0.00    -0.648 OA
ENDBRANCH  12  13
ENDBRANCH   1  12
TORSDOF 7
ENDMDL
MODEL 2
REMARK VINA RESULT:    -7.518      0.081      1.178
REMARK INTER + INTRA:         -10.791
REMARK INTER:                 -10.354
REMARK INTRA:                  -0.437
REMARK UNBOUND:                -0.416
REMARK  7 active torsions:
REMARK  status: ('A' for Active; 'I' for Inactive)
REMARK    1  A    between atoms: P_2  and  O_5 
REMARK    2  A    between atoms: O_5  and  C_6 
REMARK    3  A    between atoms: C_6  and  C_7 
REMARK    4  A    between atoms: C_7  and  C_8 
REMARK    5  A    between atoms: C_8  and  O_9 
REMARK    6  A    between atoms: C_8  and  C_12 
REMARK    7  A    between atoms: C_12  and  C_13 
ROOT
HETATM    1  C   UNL     1       0.036 -20.690 -19.648  1.00  0.00     0.065 C 
HETATM    2  C   UNL     1      -0.920 -21.869 -19.672  1.00  0.00     0.046 C 
ENDROOT
BRANCH   1   3
HETATM    3  C   UNL     1       0.650 -20.667 -18.246  1.00  0.00     0.065 C 
BRANCH   3   4
HETATM    4  C   UNL     1       2.085 -20.150 -18.244  1.00  0.00     0.185 C 
BRANCH   4   5
HETATM    5  O   UNL     1       2.778 -20.636 -17.092  1.00  0.00    -0.283 OA
BRANCH   5   6
HETATM    6  P   UNL     1       3.197 -19.651 -15.897  1.00  0.00     0.422 P 
HETATM    7  O   UNL     1       3.207 -20.463 -14.624  1.00  0.00    -0.617 OA
HETATM    8  O   UNL     1       4.584 -19.099 -16.176  1.00  0.00    -0.617 OA
HETATM    9  O   UNL     1       2.117 -18.485 -15.733  1.00  0.00    -0.617 OA
ENDBRANCH   5   6
ENDBRANCH   4   5
ENDBRANCH   3   4
ENDBRANCH   1   3
BRANCH   1  10
HETATM   10  O   UNL     1      -0.741 -19.497 -19.858  1.00  0.00    -0.390 OA
ATOM     11  HO  UNL     1      -0.220 -18.733 -19.639  1.00  0.00     0.210 HD
ENDBRANCH   1  10
BRANCH   1  12
HETATM   12  C   UNL     1       1.147 -20.752 -20.708  1.00  0.00     0.150 C 
BRANCH  12  13
HETATM   13  C   UNL     1       0.818 -20.248 -22.108  1.00  0.00     0.175 C 
HETATM   14  O   UNL     1      -0.330 -20.371 -22.595  1.00  0.00    -0.648 OA
HETATM   15  O   UNL     1       1.769 -19.818 -22.813  1.00  0.00    -0.648 OA
ENDBRANCH  12  13
ENDBRANCH   1  12
TORSDOF 7
ENDMDL
MODEL 3
REMARK VINA RESULT:    -5.918      1.645      2.251
REMARK INTER + INTRA:          -8.583
REMARK INTER:                  -7.898
REMARK INTRA:                  -0.685
REMARK UNBOUND:                -0.416
REMARK  7 active torsions:
REMARK  status: ('A' for Active; 'I' for Inactive)
REMARK    1  A    between atoms: P_2  and  O_5 
REMARK    2  A    between atoms: O_5  and  C_6 
REMARK    3  A    between atoms: C_6  and  C_7 
REMARK    4  A    between atoms: C_7  and  C_8 
REMARK    5  A    between atoms: C_8  and  O_9 
REMARK    6  A    between atoms: C_8  and  C_12 
REMARK    7  A    between atoms: C_12  and  C_13 
ROOT
HETATM    1  C   UNL     1       1.243 -20.571 -19.665  1.00  0.00     0.065 C 
HETATM    2  C   UNL     1       2.237 -20.336 -20.786  1.00  0.00     0.046 C 
ENDROOT
BRANCH   1   3
HETATM    3  C   UNL     1       1.547 -19.516 -18.598  1.00  0.00     0.065 C 
BRANCH   3   4
HETATM    4  C   UNL     1       1.496 -20.082 -17.183  1.00  0.00     0.185 C 
BRANCH   4   5
HETATM    5  O   UNL     1       2.715 -20.768 -16.886  1.00  0.00    -0.283 OA
BRANCH   5   6
HETATM    6  P   UNL     1       3.657 -20.300 -15.674  1.00  0.00     0.422 P 
HETATM    7  O   UNL     1       2.757 -19.919 -14.523  1.00  0.00    -0.617 OA
HETATM    8  O   UNL     1       4.555 -21.457 -15.274  1.00  0.00    -0.617 OA
HETATM    9  O   UNL     1       4.501 -19.009 -16.092  1.00  0.00    -0.617 OA
ENDBRANCH   5   6
ENDBRANCH   4   5
ENDBRANCH   3   4
ENDBRANCH   1   3
BRANCH   1  10
HETATM   10  O   UNL     1       1.490 -21.885 -19.132  1.00  0.00    -0.390 OA
ATOM     11  HO  UNL     1       2.306 -22.225 -19.482  1.00  0.00     0.210 HD
ENDBRANCH   1  10
BRANCH   1  12
HETATM   12  C   UNL     1      -0.231 -20.478 -20.091  1.00  0.00     0.150 C 
BRANCH  12  13
HETATM   13  C   UNL     1      -0.805 -21.630 -20.907  1.00  0.00     0.175 C 
HETATM   14  O   UNL     1      -1.146 -21.480 -22.103  1.00  0.00    -0.648 OA
HETATM   15  O   UNL     1      -1.048 -22.708 -20.303  1.00  0.00    -0.648 OA
ENDBRANCH  12  13
ENDBRANCH   1  12
TORSDOF 7
ENDMDL
MODEL 4
REMARK VINA RESULT:    -5.862      2.139      3.014
REMARK INTER + INTRA:          -8.506
REMARK INTER:                  -7.836
REMARK INTRA:                  -0.669
REMARK UNBOUND:                -0.416
REMARK  7 active torsions:
REMARK  status: ('A' for Active; 'I' for Inactive)
REMARK    1  A    between atoms: P_2  and  O_5 
REMARK    2  A    between atoms: O_5  and  C_6 
REMARK    3  A    between atoms: C_6  and  C_7 
REMARK    4  A    between atoms: C_7  and  C_8 
REMARK    5  A    between atoms: C_8  and  O_9 
REMARK    6  A    between atoms: C_8  and  C_12 
REMARK    7  A    between atoms: C_12  and  C_13 
ROOT
HETATM    1  C   UNL     1      -0.020 -21.319 -19.279  1.00  0.00     0.065 C 
HETATM    2  C   UNL     1      -0.081 -20.821 -20.711  1.00  0.00     0.046 C 
ENDROOT
BRANCH   1   3
HETATM    3  C   UNL     1       0.391 -20.115 -18.426  1.00  0.00     0.065 C 
BRANCH   3   4
HETATM    4  C   UNL     1       1.904 -19.987 -18.286  1.00  0.00     0.185 C 
BRANCH   4   5
HETATM    5  O   UNL     1       2.333 -20.574 -17.055  1.00  0.00    -0.283 OA
BRANCH   5   6
HETATM    6  P   UNL     1       3.053 -19.696 -15.922  1.00  0.00     0.422 P 
HETATM    7  O   UNL     1       2.207 -18.465 -15.698  1.00  0.00    -0.617 OA
HETATM    8  O   UNL     1       3.137 -20.512 -14.644  1.00  0.00    -0.617 OA
HETATM    9  O   UNL     1       4.496 -19.222 -16.419  1.00  0.00    -0.617 OA
ENDBRANCH   5   6
ENDBRANCH   4   5
ENDBRANCH   3   4
ENDBRANCH   1   3
BRANCH   1  10
HETATM   10  O   UNL     1       1.000 -22.332 -19.213  1.00  0.00    -0.390 OA
ATOM     11  HO  UNL     1       0.672 -23.086 -18.738  1.00  0.00     0.210 HD
ENDBRANCH   1  10
BRANCH   1  12
HETATM   12  C   UNL     1      -1.339 -21.908 -18.754  1.00  0.00     0.150 C 
BRANCH  12  13
HETATM   13  C   UNL     1      -1.492 -23.425 -18.771  1.00  0.00     0.175 C 
HETATM   14  O   UNL     1      -1.817 -24.062 -17.742  1.00  0.00    -0.648 OA
HETATM   15  O   UNL     1      -1.156 -24.033 -19.821  1.00  0.00    -0.648 OA
ENDBRANCH  12  13
ENDBRANCH   1  12
TORSDOF 7
ENDMDL
MODEL 5
REMARK VINA RESULT:    -5.798      2.032      2.951
REMARK INTER + INTRA:          -8.417
REMARK INTER:                  -7.705
REMARK INTRA:                  -0.712
REMARK UNBOUND:                -0.416
REMARK  7 active torsions:
REMARK  status: ('A' for Active; 'I' for Inactive)
REMARK    1  A    between atoms: P_2  and  O_5 
REMARK    2  A    between atoms: O_5  and  C_6 
REMARK    3  A    between atoms: C_6  and  C_7 
REMARK    4  A    between atoms: C_7  and  C_8 
REMARK    5  A    between atoms: C_8  and  O_9 
REMARK    6  A    between atoms: C_8  and  C_12 
REMARK    7  A    between atoms: C_12  and  C_13 
ROOT
HETATM    1  C   UNL     1       1.014 -20.800 -19.621  1.00  0.00     0.065 C 
HETATM    2  C   UNL     1       2.039 -20.356 -20.648  1.00  0.00     0.046 C 
ENDROOT
BRANCH   1   3
HETATM    3  C   UNL     1       0.949 -19.684 -18.575  1.00  0.00     0.065 C 
BRANCH   3   4
HETATM    4  C   UNL     1       1.384 -20.154 -17.190  1.00  0.00     0.185 C 
BRANCH   4   5
HETATM    5  O   UNL     1       2.801 -20.339 -17.158  1.00  0.00    -0.283 OA
BRANCH   5   6
HETATM    6  P   UNL     1       3.641 -20.093 -15.814  1.00  0.00     0.422 P 
HETATM    7  O   UNL     1       4.487 -21.321 -15.578  1.00  0.00    -0.617 OA
HETATM    8  O   UNL     1       4.529 -18.876 -16.003  1.00  0.00    -0.617 OA
HETATM    9  O   UNL     1       2.657 -19.922 -14.567  1.00  0.00    -0.617 OA
ENDBRANCH   5   6
ENDBRANCH   4   5
ENDBRANCH   3   4
ENDBRANCH   1   3
BRANCH   1  10
HETATM   10  O   UNL     1       1.504 -22.009 -19.013  1.00  0.00    -0.390 OA
ATOM     11  HO  UNL     1       1.430 -22.730 -19.628  1.00  0.00     0.210 HD
ENDBRANCH   1  10
BRANCH   1  12
HETATM   12  C   UNL     1      -0.387 -21.065 -20.194  1.00  0.00     0.150 C 
BRANCH  12  13
HETATM   13  C   UNL     1      -1.116 -22.320 -19.729  1.00  0.00     0.175 C 
HETATM   14  O   UNL     1      -0.803 -23.456 -20.157  1.00  0.00    -0.648 OA
HETATM   15  O   UNL     1      -2.129 -22.169 -18.996  1.00  0.00    -0.648 OA
ENDBRANCH  12  13
ENDBRANCH   1  12
TORSDOF 7
ENDMDL
MODEL 6
REMARK VINA RESULT:    -5.694      1.268      2.022
REMARK INTER + INTRA:          -8.274
REMARK INTER:                  -8.489
REMARK INTRA:                   0.214
REMARK UNBOUND:                -0.416
REMARK  7 active torsions:
REMARK  status: ('A' for Active; 'I' for Inactive)
REMARK    1  A    between atoms: P_2  and  O_5 
REMARK    2  A    between atoms: O_5  and  C_6 
REMARK    3  A    between atoms: C_6  and  C_7 
REMARK    4  A    between atoms: C_7  and  C_8 
REMARK    5  A    between atoms: C_8  and  O_9 
REMARK    6  A    between atoms: C_8  and  C_12 
REMARK    7  A    between atoms: C_12  and  C_13 
ROOT
HETATM    1  C   UNL     1       1.065 -20.772 -19.752  1.00  0.00     0.065 C 
HETATM    2  C   UNL     1       2.248 -20.320 -20.587  1.00  0.00     0.046 C 
ENDROOT
BRANCH   1   3
HETATM    3  C   UNL     1       0.902 -19.730 -18.643  1.00  0.00     0.065 C 
BRANCH   3   4
HETATM    4  C   UNL     1       1.207 -20.294 -17.259  1.00  0.00     0.185 C 
BRANCH   4   5
HETATM    5  O   UNL     1       2.610 -20.532 -17.126  1.00  0.00    -0.283 OA
BRANCH   5   6
HETATM    6  P   UNL     1       3.440 -19.935 -15.889  1.00  0.00     0.422 P 
HETATM    7  O   UNL     1       4.522 -19.048 -16.456  1.00  0.00    -0.617 OA
HETATM    8  O   UNL     1       2.503 -19.123 -15.013  1.00  0.00    -0.617 OA
HETATM    9  O   UNL     1       4.144 -21.114 -15.071  1.00  0.00    -0.617 OA
ENDBRANCH   5   6
ENDBRANCH   4   5
ENDBRANCH   3   4
ENDBRANCH   1   3
BRANCH   1  10
HETATM   10  O   UNL     1       1.401 -22.047 -19.175  1.00  0.00    -0.390 OA
ATOM     11  HO  UNL     1       1.571 -21.944 -18.246  1.00  0.00     0.210 HD
ENDBRANCH   1  10
BRANCH   1  12
HETATM   12  C   UNL     1      -0.250 -20.914 -20.537  1.00  0.00     0.150 C 
BRANCH  12  13
HETATM   13  C   UNL     1      -0.207 -20.662 -22.039  1.00  0.00     0.175 C 
HETATM   14  O   UNL     1       0.452 -19.714 -22.525  1.00  0.00    -0.648 OA
HETATM   15  O   UNL     1      -0.959 -21.359 -22.770  1.00  0.00    -0.648 OA
ENDBRANCH  12  13
ENDBRANCH   1  12
TORSDOF 7
ENDMDL
MODEL 7
REMARK VINA RESULT:    -5.249      2.473      5.635
REMARK INTER + INTRA:          -7.659
REMARK INTER:                  -7.244
REMARK INTRA:                  -0.415
REMARK UNBOUND:                -0.416
REMARK  7 active torsions:
REMARK  status: ('A' for Active; 'I' for Inactive)
REMARK    1  A    between atoms: P_2  and  O_5 
REMARK    2  A    between atoms: O_5  and  C_6 
REMARK    3  A    between atoms: C_6  and  C_7 
REMARK    4  A    between atoms: C_7  and  C_8 
REMARK    5  A    between atoms: C_8  and  O_9 
REMARK    6  A    between atoms: C_8  and  C_12 
REMARK    7  A    between atoms: C_12  and  C_13 
ROOT
HETATM    1  C   UNL     1       1.800 -19.942 -17.490  1.00  0.00     0.065 C 
HETATM    2  C   UNL     1       2.962 -20.223 -18.424  1.00  0.00     0.046 C 
ENDROOT
BRANCH   1   3
HETATM    3  C   UNL     1       0.876 -21.159 -17.580  1.00  0.00     0.065 C 
BRANCH   3   4
HETATM    4  C   UNL     1       1.235 -22.082 -18.741  1.00  0.00     0.185 C 
BRANCH   4   5
HETATM    5  O   UNL     1       0.153 -22.138 -19.673  1.00  0.00    -0.283 OA
BRANCH   5   6
HETATM    6  P   UNL     1      -0.082 -20.968 -20.746  1.00  0.00     0.422 P 
HETATM    7  O   UNL     1      -1.015 -21.505 -21.805  1.00  0.00    -0.617 OA
HETATM    8  O   UNL     1      -0.714 -19.778 -20.047  1.00  0.00    -0.617 OA
HETATM    9  O   UNL     1       1.297 -20.578 -21.453  1.00  0.00    -0.617 OA
ENDBRANCH   5   6
ENDBRANCH   4   5
ENDBRANCH   3   4
ENDBRANCH   1   3
BRANCH   1  10
HETATM   10  O   UNL     1       1.117 -18.775 -17.985  1.00  0.00    -0.390 OA
ATOM     11  HO  UNL     1       1.752 -18.113 -18.231  1.00  0.00     0.210 HD
ENDBRANCH   1  10
BRANCH   1  12
HETATM   12  C   UNL     1       2.205 -19.696 -16.028  1.00  0.00     0.150 C 
BRANCH  12  13
HETATM   13  C   UNL     1       3.684 -19.809 -15.675  1.00  0.00     0.175 C 
HETATM   14  O   UNL     1       4.505 -18.922 -16.007  1.00  0.00    -0.648 OA
HETATM   15  O   UNL     1       4.079 -20.883 -15.151  1.00  0.00    -0.648 OA
ENDBRANCH  12  13
ENDBRANCH   1  12
TORSDOF 7
ENDMDL
MODEL 8
REMARK VINA RESULT:    -4.852      2.402      5.814
REMARK INTER + INTRA:          -7.112
REMARK INTER:                  -6.605
REMARK INTRA:                  -0.507
REMARK UNBOUND:                -0.416
REMARK  7 active torsions:
REMARK  status: ('A' for Active; 'I' for Inactive)
REMARK    1  A    between atoms: P_2  and  O_5 
REMARK    2  A    between atoms: O_5  and  C_6 
REMARK    3  A    between atoms: C_6  and  C_7 
REMARK    4  A    between atoms: C_7  and  C_8 
REMARK    5  A    between atoms: C_8  and  O_9 
REMARK    6  A    between atoms: C_8  and  C_12 
REMARK    7  A    between atoms: C_12  and  C_13 
ROOT
HETATM    1  C   UNL     1       2.196 -20.287 -17.745  1.00  0.00     0.065 C 
HETATM    2  C   UNL     1       1.208 -19.575 -16.840  1.00  0.00     0.046 C 
ENDROOT
BRANCH   1   3
HETATM    3  C   UNL     1       2.084 -19.610 -19.114  1.00  0.00     0.065 C 
BRANCH   3   4
HETATM    4  C   UNL     1       2.251 -20.593 -20.268  1.00  0.00     0.185 C 
BRANCH   4   5
HETATM    5  O   UNL     1       1.116 -20.528 -21.135  1.00  0.00    -0.283 OA
BRANCH   5   6
HETATM    6  P   UNL     1      -0.313 -21.097 -20.677  1.00  0.00     0.422 P 
HETATM    7  O   UNL     1      -0.062 -22.348 -19.868  1.00  0.00    -0.617 OA
HETATM    8  O   UNL     1      -1.009 -20.053 -19.822  1.00  0.00    -0.617 OA
HETATM    9  O   UNL     1      -1.186 -21.499 -21.953  1.00  0.00    -0.617 OA
ENDBRANCH   5   6
ENDBRANCH   4   5
ENDBRANCH   3   4
ENDBRANCH   1   3
BRANCH   1  10
HETATM   10  O   UNL     1       1.781 -21.661 -17.847  1.00  0.00    -0.390 OA
ATOM     11  HO  UNL     1       2.107 -22.036 -18.657  1.00  0.00     0.210 HD
ENDBRANCH   1  10
BRANCH   1  12
HETATM   12  C   UNL     1       3.653 -20.244 -17.255  1.00  0.00     0.150 C 
BRANCH  12  13
HETATM   13  C   UNL     1       3.894 -19.941 -15.781  1.00  0.00     0.175 C 
HETATM   14  O   UNL     1       4.207 -18.792 -15.391  1.00  0.00    -0.648 OA
HETATM   15  O   UNL     1       3.895 -20.912 -14.979  1.00  0.00    -0.648 OA
ENDBRANCH  12  13
ENDBRANCH   1  12
TORSDOF 7
ENDMDL
MODEL 9
REMARK VINA RESULT:    -4.603     12.903     14.733
REMARK INTER + INTRA:          -6.769
REMARK INTER:                  -6.265
REMARK INTRA:                  -0.504
REMARK UNBOUND:                -0.416
REMARK  7 active torsions:
REMARK  status: ('A' for Active; 'I' for Inactive)
REMARK    1  A    between atoms: P_2  and  O_5 
REMARK    2  A    between atoms: O_5  and  C_6 
REMARK    3  A    between atoms: C_6  and  C_7 
REMARK    4  A    between atoms: C_7  and  C_8 
REMARK    5  A    between atoms: C_8  and  O_9 
REMARK    6  A    between atoms: C_8  and  C_12 
REMARK    7  A    between atoms: C_12  and  C_13 
ROOT
HETATM    1  C   UNL     1       6.418 -31.862 -12.345  1.00  0.00     0.065 C 
HETATM    2  C   UNL     1       6.299 -30.773 -13.394  1.00  0.00     0.046 C 
ENDROOT
BRANCH   1   3
HETATM    3  C   UNL     1       5.154 -32.716 -12.473  1.00  0.00     0.065 C 
BRANCH   3   4
HETATM    4  C   UNL     1       3.879 -31.917 -12.223  1.00  0.00     0.185 C 
BRANCH   4   5
HETATM    5  O   UNL     1       2.817 -32.424 -13.036  1.00  0.00    -0.283 OA
BRANCH   5   6
HETATM    6  P   UNL     1       1.901 -31.441 -13.913  1.00  0.00     0.422 P 
HETATM    7  O   UNL     1       1.005 -32.303 -14.770  1.00  0.00    -0.617 OA
HETATM    8  O   UNL     1       1.065 -30.582 -12.981  1.00  0.00    -0.617 OA
HETATM    9  O   UNL     1       2.809 -30.554 -14.884  1.00  0.00    -0.617 OA
ENDBRANCH   5   6
ENDBRANCH   4   5
ENDBRANCH   3   4
ENDBRANCH   1   3
BRANCH   1  10
HETATM   10  O   UNL     1       6.444 -31.223 -11.056  1.00  0.00    -0.390 OA
ATOM     11  HO  UNL     1       7.343 -31.132 -10.761  1.00  0.00     0.210 HD
ENDBRANCH   1  10
BRANCH   1  12
HETATM   12  C   UNL     1       7.667 -32.747 -12.485  1.00  0.00     0.150 C 
BRANCH  12  13
HETATM   13  C   UNL     1       8.928 -32.312 -11.748  1.00  0.00     0.175 C 
HETATM   14  O   UNL     1       9.028 -32.418 -10.503  1.00  0.00    -0.648 OA
HETATM   15  O   UNL     1       9.819 -31.723 -12.414  1.00  0.00    -0.648 OA
ENDBRANCH  12  13
ENDBRANCH   1  12
TORSDOF 7
ENDMDL
MODEL 10
REMARK VINA RESULT:    -4.568     13.653     15.132
REMARK INTER + INTRA:          -6.720
REMARK INTER:                  -5.802
REMARK INTRA:                  -0.918
REMARK UNBOUND:                -0.416
REMARK  7 active torsions:
REMARK  status: ('A' for Active; 'I' for Inactive)
REMARK    1  A    between atoms: P_2  and  O_5 
REMARK    2  A    between atoms: O_5  and  C_6 
REMARK    3  A    between atoms: C_6  and  C_7 
REMARK    4  A    between atoms: C_7  and  C_8 
REMARK    5  A    between atoms: C_8  and  O_9 
REMARK    6  A    between atoms: C_8  and  C_12 
REMARK    7  A    between atoms: C_12  and  C_13 
ROOT
HETATM    1  C   UNL     1       6.757 -31.943 -12.427  1.00  0.00     0.065 C 
HETATM    2  C   UNL     1       6.625 -30.913 -13.534  1.00  0.00     0.046 C 
ENDROOT
BRANCH   1   3
HETATM    3  C   UNL     1       5.502 -32.815 -12.504  1.00  0.00     0.065 C 
BRANCH   3   4
HETATM    4  C   UNL     1       4.249 -32.082 -12.035  1.00  0.00     0.185 C 
BRANCH   4   5
HETATM    5  O   UNL     1       4.065 -32.279 -10.630  1.00  0.00    -0.283 OA
BRANCH   5   6
HETATM    6  P   UNL     1       3.550 -31.088  -9.685  1.00  0.00     0.422 P 
HETATM    7  O   UNL     1       2.269 -30.558 -10.285  1.00  0.00    -0.617 OA
HETATM    8  O   UNL     1       3.287 -31.641  -8.296  1.00  0.00    -0.617 OA
HETATM    9  O   UNL     1       4.615 -29.898  -9.660  1.00  0.00    -0.617 OA
ENDBRANCH   5   6
ENDBRANCH   4   5
ENDBRANCH   3   4
ENDBRANCH   1   3
BRANCH   1  10
HETATM   10  O   UNL     1       6.781 -31.235 -11.174  1.00  0.00    -0.390 OA
ATOM     11  HO  UNL     1       6.431 -30.360 -11.294  1.00  0.00     0.210 HD
ENDBRANCH   1  10
BRANCH   1  12
HETATM   12  C   UNL     1       8.015 -32.822 -12.523  1.00  0.00     0.150 C 
BRANCH  12  13
HETATM   13  C   UNL     1       9.241 -32.391 -11.728  1.00  0.00     0.175 C 
HETATM   14  O   UNL     1       9.318 -32.577 -10.491  1.00  0.00    -0.648 OA
HETATM   15  O   UNL     1      10.123 -31.724 -12.331  1.00  0.00    -0.648 OA
ENDBRANCH  12  13
ENDBRANCH   1  12
TORSDOF 7
ENDMDL
